FOO
135168
    1MOL0     O    1   7.982   5.915   4.398  0.3486  0.1670 -0.2527
    1MOL0     C    2   7.976   6.028   4.431  0.1009 -1.1482  0.0959
    1MOL0     O    3   8.069   6.100   4.505  0.0409 -0.5355  0.0417
    1MOL0     C    4   8.175   6.034   4.551 -0.9063 -0.1120 -0.3389
    1MOL0     C    5   8.295   6.106   4.539 -0.1356 -0.4050  0.4491
    1MOL0     C    6   8.411   6.041   4.573  0.0565 -0.4318  1.0163
    1MOL0     C    7   8.412   5.912   4.634  0.0796 -0.6765  0.5657
    1MOL0     O    8   8.535   5.868   4.683  0.1051 -0.2572  0.8756
    1MOL0     C    9   8.549   5.728   4.713  0.7414  0.1916 -0.0055
    1MOL0     C   10   8.699   5.693   4.761  0.0413  0.3849 -0.2431
    1MOL0     C   11   8.784   5.689   4.632  0.6319 -0.2389 -0.5096
    1MOL0     C   12   8.932   5.675   4.670  0.1809  0.1789 -0.2276
    1MOL0     C   13   8.996   5.808   4.707 -0.5201 -0.0357 -1.1235
    1MOL0     C   14   9.139   5.801   4.680 -0.3995 -0.1108  0.8212
    1MOL0     C   15   9.223   5.717   4.781  1.0069 -0.4600 -0.2745
    1MOL0     C   16   9.233   5.753   4.932  0.2657 -0.4015  1.2888
    1MOL0     N   17   9.266   5.897   4.954  0.8283 -0.1983  0.2558
    1MOL0     C   18   9.372   5.974   4.915  1.2563  0.6520  0.4747
    1MOL0     C   19   9.341   6.102   4.948  0.0748  0.1027  0.4254
    1MOL0     C   20   9.449   6.209   4.955  0.0341  0.3102 -0.0751
    1MOL0     C   21   9.457   6.304   4.837 -0.1016 -0.4436 -0.0159
    1MOL0     C   22   9.527   6.232   4.724  0.8462 -0.5673 -0.3764
    1MOL0     C   23   9.445   6.232   4.596  0.5666 -0.0807 -0.1722
    1MOL0     O   24   9.334   6.136   4.620 -0.5202 -1.0539 -0.3161
    1MOL0     C   25   9.213   6.176   4.569  1.4697  0.4110 -0.4462
    1MOL0     C   26   9.196   6.221   4.438  0.6474  0.5206  0.7274
    1MOL0     C   27   9.064   6.247   4.395  0.0042 -0.3766  1.1128
    1MOL0     C   28   8.949   6.241   4.464  0.0942  1.0172  0.0600
    1MOL0     C   29   8.822   6.291   4.416  0.0161 -0.3968 -0.4050
    1MOL0     O   30   8.807   6.307   4.283 -0.5266  0.0267  0.1314
    1MOL0     C   31   8.704   6.373   4.228 -0.2786 -0.1884  0.4624
    1MOL0     C   32   8.733   6.454   4.119  0.1500  0.5709  1.2434
    1MOL0     C   33   8.625   6.501   4.037  0.2520 -0.2580 -0.2316
    1MOL0     C   34   8.487   6.493   4.071 -0.6618 -1.7238 -0.2939
    1MOL0     O   35   8.384   6.542   4.001 -1.1670  0.0337 -0.0105
    1MOL0     C   36   8.398   6.627   3.890 -0.1901  0.3936 -0.5323
    1MOL0     C   37   8.410   6.774   3.932  0.8787  0.1973  1.0515
    1MOL0     C   38   8.271   6.804   3.989 -0.4829 -0.4940  0.0159
    1MOL0     C   39   8.255   6.958   4.018  0.1772  0.6978  0.1297
    1MOL0     C   40   8.115   6.992   4.066  0.1482  0.1295 -0.3908
    1MOL0     C   41   8.094   7.136   4.118 -0.1478  0.0683 -0.2032
    1MOL0     C   42   7.944   7.176   4.117 -0.0833 -0.6153 -0.0090
    1MOL0     C   43   7.854   7.080   4.186 -0.4780  0.2927  0.9589
    1MOL0    Cl   44   7.696   7.155   4.189  0.1438 -0.3332 -0.4484
    1MOL0     C   45   8.463   6.417   4.179 -0.2164 -0.0439 -0.6762
    1MOL0     C   46   8.567   6.358   4.260  1.1031  0.3095 -0.4185
    1MOL0     O   47   8.734   6.321   4.493 -0.4317 -0.4954  0.0580
    1MOL0     C   48   8.969   6.209   4.598  0.7583 -0.2367  0.1216
    1MOL0     C   49   9.097   6.177   4.652 -0.4325  0.5083  0.0507
    1MOL0     N   50   9.210   6.103   4.996  0.2448 -0.1209 -0.1962
    1MOL0     N   51   9.168   5.982   5.004 -0.2565 -0.4383  0.0586
    1MOL0     C   52   8.290   5.842   4.648 -0.8673  0.2299  0.2153
    1MOL0     C   53   8.169   5.906   4.615 -0.3462 -0.1600  0.5129
    1MOL0     C   54   7.867   6.108   4.348  0.4198  0.3440  0.3810
    1MOL0     C   55   7.785   6.041   4.254  0.0791 -0.2440 -0.4033
    1MOL0     C   56   7.716   6.119   4.163  0.5901  0.7250  0.5358
    1MOL0     C   57   7.706   6.257   4.182  0.4608 -0.9888 -0.1279
    1MOL0     O   58   7.618   6.336   4.102  0.3359  0.4301 -0.7359
    1MOL0     C   59   7.551   6.453   4.141 -0.1654  0.5839 -0.1784
    1MOL0     C   60   7.483   6.440   4.282 -0.7544 -0.6927 -0.4991
    1MOL0     C   61   7.399   6.315   4.286  0.1803 -0.0281 -0.2186
    1MOL0     C   62   7.340   6.292   4.423 -0.4085 -0.3818  0.1132
    1MOL0     C   63   7.447   6.277   4.534 -0.1907  0.4765  0.0936
    1MOL0     C   64   7.519   6.277   4.635  0.4629 -0.0007 -0.4882
    1MOL0     C   65   7.784   6.321   4.282 -0.7355 -0.2488 -1.1487
    1MOL0     C   66   7.863   6.246   4.363 -1.1036 -0.7355  0.1379
    1MOL0     H   67   8.295   6.207   4.500  0.8440 -0.3972  0.4494
    1MOL0     H   68   8.501   6.100   4.562 -0.8374  0.6714 -0.7158
    1MOL0     H   69   8.521   5.662   4.630  0.0560  1.0839 -0.5009
    1MOL0     H   70   8.488   5.703   4.800  0.4020 -1.2976 -0.6409
    1MOL0     H   71   8.695   5.594   4.807  1.6376 -0.1972 -1.2668
    1MOL0     H   72   8.728   5.763   4.840  3.6026  0.3352 -1.3334
    1MOL0     H   73   8.780   5.777   4.567 -0.0055  0.4813  0.4833
    1MOL0     H   74   8.750   5.604   4.572 -1.1605  0.7861 -1.0117
    1MOL0     H   75   8.942   5.599   4.748  1.1267  0.3749 -0.1563
    1MOL0     H   76   8.974   5.626   4.582 -0.2898  0.1927 -0.4641
    1MOL0     H   77   8.990   5.834   4.813  0.5514 -2.1037 -0.4950
    1MOL0     H   78   8.946   5.887   4.650 -0.0474 -1.2819 -3.3694
    1MOL0     H   79   9.177   5.903   4.671  2.2866 -1.2007 -1.9206
    1MOL0     H   80   9.153   5.766   4.577  1.4557 -0.3602  1.1392
    1MOL0     H   81   9.196   5.611   4.786  0.9218 -0.3913  1.5085
    1MOL0     H   82   9.324   5.707   4.741  1.1681  1.2339 -0.3852
    1MOL0     H   83   9.320   5.699   4.972  0.7991 -0.4298  0.1299
    1MOL0     H   84   9.144   5.735   4.993 -0.3343  0.0611  0.5500
    1MOL0     H   85   9.462   5.932   4.873 -0.1694 -1.8986 -0.3136
    1MOL0     H   86   9.543   6.167   4.991  0.7534 -0.1303 -2.3022
    1MOL0     H   87   9.420   6.275   5.038  1.4076  0.3525  0.3927
    1MOL0     H   88   9.511   6.394   4.867  1.4555 -1.9770  2.0901
    1MOL0     H   89   9.355   6.332   4.811 -0.4335  0.3800  2.0320
    1MOL0     H   90   9.625   6.275   4.706  0.3805  0.8096  0.2461
    1MOL0     H   91   9.540   6.127   4.753 -1.0236 -0.7865 -0.1875
    1MOL0     H   92   9.515   6.194   4.520  1.5553 -1.4684  1.3802
    1MOL0     H   93   9.416   6.334   4.568 -2.1637 -0.3710  1.2599
    1MOL0     H   94   9.266   6.224   4.355 -1.4513  2.7598 -1.1575
    1MOL0     H   95   9.053   6.265   4.288 -1.0712 -0.0210  1.2709
    1MOL0     H   96   8.836   6.470   4.087  0.2274 -0.5078  0.8933
    1MOL0     H   97   8.659   6.552   3.948 -0.2026  2.2585  0.9638
    1MOL0     H   98   8.311   6.606   3.827  0.1567  0.4933 -1.0456
    1MOL0     H   99   8.487   6.604   3.831  0.9328  4.3413 -0.6169
    1MOL0     H  100   8.436   6.830   3.841 -3.0477  1.0682  0.2673
    1MOL0     H  101   8.489   6.784   4.007  0.7185 -1.2342  1.4375
    1MOL0     H  102   8.250   6.749   4.081 -1.0240 -1.2585 -0.5485
    1MOL0     H  103   8.201   6.774   3.910 -0.6937 -0.3798  0.1605
    1MOL0     H  104   8.323   7.003   4.090  1.8322 -1.3364 -0.0776
    1MOL0     H  105   8.270   7.007   3.921  1.6755  0.9087  0.4477
    1MOL0     H  106   8.087   6.926   4.149 -1.0969 -0.5704 -1.3366
    1MOL0     H  107   8.049   6.980   3.980 -1.1082 -1.4132  0.7322
    1MOL0     H  108   8.164   7.204   4.068  1.1162  0.2022  1.6501
    1MOL0     H  109   8.128   7.149   4.221  0.9232  5.7769 -0.9535
    1MOL0     H  110   7.930   7.267   4.176 -1.5956 -2.0164  1.9304
    1MOL0     H  111   7.907   7.195   4.016 -1.0800  2.1809  0.7902
    1MOL0     H  112   7.886   7.056   4.288  0.5536 -1.7124  0.2157
    1MOL0     H  113   7.853   6.990   4.123  0.4128  2.4280 -2.3455
    1MOL0     H  114   8.359   6.400   4.203 -0.0906 -1.6495 -1.1609
    1MOL0     H  115   8.535   6.301   4.346 -0.0742  2.1585  0.4438
    1MOL0     H  116   8.885   6.206   4.667 -1.8266 -2.8124 -2.8096
    1MOL0     H  117   9.106   6.164   4.760 -0.1900 -0.6395 -0.0883
    1MOL0     H  118   8.278   5.742   4.689 -2.2205  1.3238  2.6775
    1MOL0     H  119   8.077   5.849   4.627 -1.4548  1.2336 -0.9294
    1MOL0     H  120   7.788   5.932   4.253  1.0471 -0.2340  0.0960
    1MOL0     H  121   7.655   6.069   4.089  0.1724  0.4237  1.0805
    1MOL0     H  122   7.469   6.456   4.070  0.1060 -3.5801 -0.9231
    1MOL0     H  123   7.617   6.540   4.138 -0.2132  0.7070  1.2707
    1MOL0     H  124   7.557   6.426   4.362  0.6692 -1.3416 -1.8783
    1MOL0     H  125   7.428   6.529   4.313  3.0160  1.4093  0.7724
    1MOL0     H  126   7.452   6.223   4.260  1.7453  0.9623 -0.6706
    1MOL0     H  127   7.314   6.331   4.219  1.3319  1.2012 -1.4337
    1MOL0     H  128   7.277   6.376   4.453 -0.5278 -0.1529 -0.7453
    1MOL0     H  129   7.266   6.211   4.422  0.1914 -0.9421 -0.1228
    1MOL0     H  130   7.587   6.271   4.717 -0.2685 -2.3725  0.0419
    1MOL0     H  131   7.783   6.427   4.304  2.3464 -0.5472  1.1018
    1MOL0     H  132   7.936   6.295   4.427 -1.1096  0.9905 -1.1100
    2MOL0     O  133   7.960   8.804   9.718 -0.2208 -1.0519  0.3043
    2MOL0     C  134   8.040   8.737   9.650 -0.0018  0.0928 -0.0841
    2MOL0     O  135   8.005   8.624   9.579  0.5468  0.2568 -0.6143
    2MOL0     C  136   7.875   8.599   9.533 -0.0623 -0.2484  1.2151
    2MOL0     C  137   7.781   8.709   9.505 -0.0749 -0.5382 -0.4312
    2MOL0     C  138   7.650   8.685   9.459  0.6765  0.1275  0.2398
    2MOL0     C  139   7.609   8.555   9.418 -0.2735  0.1568 -1.1998
    2MOL0     O  140   7.481   8.553   9.371  0.3087  0.1993  0.0960
    2MOL0     C  141   7.466   8.464   9.257  0.2418  0.1512 -0.3233
    2MOL0     C  142   7.337   8.482   9.178  0.2222 -0.0199  0.0646
    2MOL0     C  143   7.220   8.478   9.281  0.2656  0.0948 -0.4841
    2MOL0     C  144   7.093   8.458   9.204 -0.4718  1.1039  0.0774
    2MOL0     C  145   6.981   8.427   9.303 -0.0420  1.0641  0.6515
    2MOL0     C  146   6.937   8.539   9.404  0.6684 -0.4180 -0.2099
    2MOL0     C  147   6.855   8.494   9.529 -0.3285 -0.4975  1.2756
    2MOL0     C  148   6.714   8.450   9.497 -0.2983  0.3867  0.1956
    2MOL0     N  149   6.632   8.553   9.435 -0.1047  0.0974 -0.4378
    2MOL0     C  150   6.565   8.657   9.486 -0.5709  0.7482  0.0669
    2MOL0     C  151   6.498   8.705   9.385  0.0785  0.0433  0.4698
    2MOL0     C  152   6.414   8.829   9.396  0.0736 -0.3538 -0.0706
    2MOL0     C  153   6.269   8.803   9.386  0.1127  0.1850  0.0135
    2MOL0     C  154   6.196   8.898   9.289 -0.6268  0.3474 -0.1852
    2MOL0     C  155   6.044   8.902   9.308 -0.0550  0.2025  0.1370
    2MOL0     O  156   5.969   8.978   9.210  0.3129  0.2887 -0.2136
    2MOL0     C  157   5.835   8.998   9.223  0.4474  0.4245  0.0476
    2MOL0     C  158   5.779   9.091   9.135 -0.2579 -0.2275 -0.2979
    2MOL0     C  159   5.637   9.101   9.123  0.2667 -0.3022 -0.5223
    2MOL0     C  160   5.551   9.027   9.197 -0.2675 -0.3857  0.0098
    2MOL0     C  161   5.400   9.039   9.176 -1.1295  0.0540  0.5170
    2MOL0     O  162   5.330   8.984   9.280 -0.4902  0.0722  1.0988
    2MOL0     C  163   5.191   9.000   9.277 -0.0211 -0.9217  0.2260
    2MOL0     C  164   5.126   9.124   9.300 -0.3862  0.4857 -0.6073
    2MOL0     C  165   4.987   9.132   9.284  1.1000 -0.3511 -0.0327
    2MOL0     C  166   4.916   9.026   9.234 -0.3302 -0.1093  0.8072
    2MOL0     O  167   4.788   9.044   9.238  0.2492  0.1838 -0.0911
    2MOL0     C  168   4.700   8.924   9.257 -0.3073  0.6258 -0.9177
    2MOL0     C  169   4.659   8.852   9.123 -0.0290 -0.3809 -0.3245
    2MOL0     C  170   4.586   8.723   9.141  0.3143 -0.0449 -0.3724
    2MOL0     C  171   4.439   8.751   9.175  1.0065 -0.8794 -0.9793
    2MOL0     C  172   4.338   8.637   9.173 -0.2050  0.0333 -0.1285
    2MOL0     C  173   4.195   8.693   9.198 -0.1645 -0.9132  0.2202
    2MOL0     C  174   4.086   8.588   9.227 -0.3307  0.3545 -0.5856
    2MOL0     C  175   4.060   8.504   9.097 -0.2893  0.3976  1.1110
    2MOL0    Cl  176   3.904   8.439   9.078 -0.0437 -0.2845 -0.0357
    2MOL0     C  177   4.986   8.904   9.203 -0.3877  0.2537 -0.0586
    2MOL0     C  178   5.118   8.892   9.239  0.0480 -0.1040  0.2554
    2MOL0     O  179   5.357   9.090   9.073  0.7887  0.2968 -0.1699
    2MOL0     C  180   5.613   8.934   9.283  0.3503  0.0018 -0.3641
    2MOL0     C  181   5.756   8.917   9.305  0.6824 -0.0618  1.2953
    2MOL0     N  182   6.520   8.624   9.273 -0.5203 -0.3602 -1.2348
    2MOL0     N  183   6.592   8.528   9.307 -0.9490 -0.1311  0.6599
    2MOL0     C  184   7.704   8.449   9.437  0.1919  0.3521 -0.2159
    2MOL0     C  185   7.835   8.471   9.494  0.2482  0.7000 -0.9287
    2MOL0     C  186   8.183   8.786   9.653  0.1363  0.5056  0.9493
    2MOL0     C  187   8.216   8.900   9.738  0.5985  0.1408  1.1620
    2MOL0     C  188   8.352   8.939   9.744 -0.5214 -0.0104 -0.5130
    2MOL0     C  189   8.455   8.868   9.683 -0.0500  0.0052 -0.3605
    2MOL0     O  190   8.591   8.902   9.699 -0.2744  0.4528 -0.1122
    2MOL0     C  191   8.636   8.987   9.807 -0.0054  0.2366  0.2657
    2MOL0     C  192   8.789   8.996   9.808  0.4156  0.2473  0.1205
    2MOL0     C  193   8.844   9.087   9.694  0.2257  0.5060  0.2082
    2MOL0     C  194   8.979   9.022   9.640  0.1133  0.0665  0.5018
    2MOL0     C  195   9.095   9.031   9.727 -0.3792 -0.2231  0.2607
    2MOL0     C  196   9.190   9.029   9.794 -0.2188  0.0938  0.4190
    2MOL0     C  197   8.418   8.763   9.594 -0.6625 -0.1939 -0.3092
    2MOL0     C  198   8.285   8.718   9.584 -0.2523 -0.5949  0.0225
    2MOL0     H  199   7.803   8.814   9.519 -0.6191 -0.8134  3.8654
    2MOL0     H  200   7.579   8.765   9.443 -0.5949 -0.9080  0.5398
    2MOL0     H  201   7.461   8.356   9.274 -2.1080 -0.0097 -1.5872
    2MOL0     H  202   7.548   8.487   9.188  0.2732  0.1852 -0.2741
    2MOL0     H  203   7.320   8.409   9.098  0.0410 -0.6170  0.6312
    2MOL0     H  204   7.340   8.577   9.124 -1.9237 -0.2138 -0.4917
    2MOL0     H  205   7.207   8.569   9.341 -1.7107 -0.5268  0.1172
    2MOL0     H  206   7.235   8.396   9.352  0.0225 -0.2731 -0.8480
    2MOL0     H  207   7.075   8.541   9.136 -1.4304  2.7953  2.2653
    2MOL0     H  208   7.102   8.361   9.154 -2.4564  0.8579  0.1079
    2MOL0     H  209   7.006   8.335   9.356 -1.0671  0.4195  0.0589
    2MOL0     H  210   6.897   8.397   9.239  0.3205  0.9866  0.2133
    2MOL0     H  211   6.879   8.611   9.345  2.2455  0.1762 -1.0804
    2MOL0     H  212   7.023   8.597   9.439 -0.6121  1.0523  0.6548
    2MOL0     H  213   6.912   8.421   9.587  0.7083  0.2181  1.1797
    2MOL0     H  214   6.858   8.581   9.594  2.3783 -0.7705  1.6411
    2MOL0     H  215   6.670   8.408   9.588  0.1887 -0.7204 -0.0595
    2MOL0     H  216   6.728   8.363   9.433  3.4391  0.3416  0.8581
    2MOL0     H  217   6.567   8.696   9.588  2.2925 -0.2912  0.5099
    2MOL0     H  218   6.444   8.907   9.325  2.2141  0.2700  1.3873
    2MOL0     H  219   6.424   8.882   9.492  0.4093  1.7968 -1.2135
    2MOL0     H  220   6.223   8.819   9.483 -1.9855 -0.7654 -0.7774
    2MOL0     H  221   6.250   8.705   9.341 -0.9718 -0.0148  0.8691
    2MOL0     H  222   6.228   9.003   9.296 -1.3738  0.6387 -0.9506
    2MOL0     H  223   6.205   8.858   9.187 -1.9483 -1.2970  0.2928
    2MOL0     H  224   6.022   8.957   9.400  0.7077 -0.5906  0.8101
    2MOL0     H  225   6.010   8.798   9.309  2.9555 -0.9026 -1.3757
    2MOL0     H  226   5.843   9.149   9.068 -0.7841  1.8140  0.8738
    2MOL0     H  227   5.594   9.179   9.060 -1.4284 -1.9591 -1.5411
    2MOL0     H  228   5.192   9.205   9.329 -0.5307  0.2112  0.5055
    2MOL0     H  229   4.947   9.226   9.321 -0.2972 -1.7168  2.1195
    2MOL0     H  230   4.605   8.950   9.304 -0.6673 -2.5811  0.3811
    2MOL0     H  231   4.751   8.851   9.321  0.5320  0.0146 -2.2420
    2MOL0     H  232   4.740   8.836   9.051 -1.7201 -1.6746 -2.0341
    2MOL0     H  233   4.606   8.926   9.063 -0.4775 -1.3628 -1.1682
    2MOL0     H  234   4.631   8.658   9.217 -0.2427 -0.4934 -0.4159
    2MOL0     H  235   4.585   8.670   9.045  0.6849  1.2538 -1.1095
    2MOL0     H  236   4.430   8.804   9.270 -1.0891 -2.2672 -0.3263
    2MOL0     H  237   4.409   8.826   9.100 -1.3750 -0.1609  0.5894
    2MOL0     H  238   4.360   8.558   9.245 -0.1948 -0.4472 -0.6562
    2MOL0     H  239   4.340   8.596   9.072  0.0638  0.5670 -0.3429
    2MOL0     H  240   4.162   8.767   9.125  1.3928  1.2317  1.5754
    2MOL0     H  241   4.204   8.748   9.292  2.2354 -1.5424  0.4250
    2MOL0     H  242   4.122   8.526   9.309 -2.0251  0.2500  0.1191
    2MOL0     H  243   4.002   8.649   9.261 -0.1254  0.2827  0.0530
    2MOL0     H  244   4.131   8.421   9.092 -0.8027  0.0467 -2.0228
    2MOL0     H  245   4.086   8.556   9.005  0.8281 -0.0683  1.1426
    2MOL0     H  246   4.941   8.815   9.160 -0.5141 -0.5405  1.6175
    2MOL0     H  247   5.172   8.803   9.208 -0.0043  0.5492 -1.8141
    2MOL0     H  248   5.550   8.864   9.336 -1.9129  1.5160 -0.9336
    2MOL0     H  249   5.793   8.844   9.377  1.1742 -3.6151 -2.2068
    2MOL0     H  250   7.681   8.354   9.391  0.1560 -1.1551  2.6410
    2MOL0     H  251   7.901   8.386   9.491  1.3007  1.4512 -0.0543
    2MOL0     H  252   8.142   8.950   9.801 -0.5111 -1.6077  1.3195
    2MOL0     H  253   8.384   9.022   9.806  2.1663 -0.2068 -1.5279
    2MOL0     H  254   8.606   8.947   9.904  2.1410 -0.6565  0.6089
    2MOL0     H  255   8.595   9.088   9.801 -0.5034  0.0100 -0.2811
    2MOL0     H  256   8.819   9.044   9.901  1.0020  1.3513 -0.6221
    2MOL0     H  257   8.838   8.898   9.809 -0.8288 -0.4031  0.0222
    2MOL0     H  258   8.847   9.188   9.737 -0.5451  1.1029 -1.0878
    2MOL0     H  259   8.781   9.093   9.605 -1.0945 -0.2667  1.0404
    2MOL0     H  260   8.956   8.917   9.624 -0.4918 -0.0592  2.0330
    2MOL0     H  261   9.006   9.065   9.543 -1.1881 -2.2835 -0.9936
    2MOL0     H  262   9.276   9.017   9.857 -0.8033 -0.0605  1.1944
    2MOL0     H  263   8.506   8.722   9.547  0.4158  1.7594 -0.0801
    2MOL0     H  264   8.267   8.642   9.509 -0.4307 -0.1191 -0.4207
    3MOL0     O  265   9.871   2.100   5.234  0.2389 -0.8423  0.2182
    3MOL0     C  266   9.911   2.035   5.333 -0.5454 -0.3402  0.5360
    3MOL0     O  267   9.826   1.992   5.436 -0.6114  0.8154 -0.0322
    3MOL0     C  268   9.690   2.020   5.436  0.6768  0.4294 -0.8562
    3MOL0     C  269   9.634   1.969   5.556  1.0106  0.0419  0.0168
    3MOL0     C  270   9.498   1.994   5.593 -0.4194 -0.5381  0.1660
    3MOL0     C  271   9.414   2.062   5.508  0.1845 -0.0165 -0.8355
    3MOL0     O  272   9.289   2.101   5.556  0.2814 -0.1775 -0.0194
    3MOL0     C  273   9.196   2.157   5.460 -1.1857  0.2600  0.7473
    3MOL0     C  274   9.050   2.147   5.511 -0.5512 -0.1324 -0.2185
    3MOL0     C  275   9.034   2.227   5.643 -1.0464 -0.3797 -0.3445
    3MOL0     C  276   8.923   2.163   5.714 -0.0967  0.4395  0.1014
    3MOL0     C  277   8.787   2.194   5.650 -0.6835 -0.1143 -0.6435
    3MOL0     C  278   8.675   2.157   5.735 -0.2233 -0.3723 -0.3116
    3MOL0     C  279   8.537   2.189   5.675 -0.5417  0.0878 -0.1455
    3MOL0     C  280   8.419   2.118   5.744  0.4885 -0.1933  0.1099
    3MOL0     N  281   8.293   2.187   5.706 -0.4233  0.0682 -0.1073
    3MOL0     C  282   8.217   2.262   5.795 -0.4145  0.9049  0.6951
    3MOL0     C  283   8.106   2.291   5.730 -0.0802  1.0480  0.3108
    3MOL0     C  284   7.991   2.367   5.785 -0.3381  0.2799  0.2585
    3MOL0     C  285   7.950   2.479   5.684 -0.3991 -0.1154 -0.1710
    3MOL0     C  286   8.002   2.623   5.704  0.3460  0.7148 -0.3781
    3MOL0     C  287   8.152   2.630   5.688  0.4711 -0.8237  0.4527
    3MOL0     O  288   8.226   2.583   5.794  0.3882  0.7631 -0.7972
    3MOL0     C  289   8.363   2.595   5.802  0.0035  0.1185  0.5584
    3MOL0     C  290   8.443   2.631   5.691 -0.7989 -0.2575  0.4670
    3MOL0     C  291   8.584   2.624   5.709 -0.1134 -0.0637 -0.6702
    3MOL0     C  292   8.645   2.597   5.835  0.1622 -0.4039 -0.2054
    3MOL0     C  293   8.792   2.599   5.851  1.0871  0.2082  1.1836
    3MOL0     O  294   8.870   2.601   5.741 -0.1593 -0.8690 -0.3895
    3MOL0     C  295   9.005   2.629   5.764 -0.0550 -0.0637 -0.0474
    3MOL0     C  296   9.097   2.540   5.828 -0.8191  0.2203 -0.2488
    3MOL0     C  297   9.230   2.580   5.851 -0.8603 -0.1476  0.6600
    3MOL0     C  298   9.284   2.696   5.797 -0.2824  0.3319  0.1248
    3MOL0     O  299   9.413   2.718   5.824 -0.2114  0.7469 -0.7374
    3MOL0     C  300   9.467   2.843   5.783 -0.5493 -0.6090 -0.0717
    3MOL0     C  301   9.613   2.825   5.801  0.0677 -0.4084 -0.1822
    3MOL0     C  302   9.701   2.940   5.754  0.3898  0.6892 -0.3636
    3MOL0     C  303   9.853   2.904   5.760  0.3547 -0.4463  0.2945
    3MOL0     C  304   9.938   3.031   5.740 -0.4545 -0.6462 -0.0273
    3MOL0     C  305   9.922   3.104   5.608 -0.3367  0.1259  0.5296
    3MOL0     C  306   9.986   3.246   5.618  0.2682  0.2998 -0.4386
    3MOL0     C  307   9.954   3.320   5.490 -0.3466  0.2667 -0.1027
    3MOL0    Cl  308   9.784   3.367   5.482 -0.1669 -0.2748 -0.5659
    3MOL0     C  309   9.191   2.782   5.731 -0.4418 -1.1765  0.0912
    3MOL0     C  310   9.054   2.750   5.714 -0.4722  0.2205  0.0528
    3MOL0     O  311   8.827   2.599   5.971 -0.8620 -0.6007 -0.1753
    3MOL0     C  312   8.562   2.566   5.944 -0.2383 -0.3753  0.5839
    3MOL0     C  313   8.429   2.559   5.928 -0.2667 -0.3195  1.9314
    3MOL0     N  314   8.111   2.228   5.599 -0.8604  0.3597  0.2628
    3MOL0     N  315   8.228   2.174   5.595  0.4909  0.1574  0.1462
    3MOL0     C  316   9.466   2.103   5.383  0.2315  0.7783  0.1753
    3MOL0     C  317   9.602   2.073   5.346 -0.0111 -0.2538 -0.1700
    3MOL0     C  318  10.051   1.993   5.331  0.3435 -0.1383 -0.5085
    3MOL0     C  319  10.127   1.993   5.218 -0.2461  0.2603 -0.0163
    3MOL0     C  320  10.261   1.956   5.215  0.0686 -0.0969  0.4225
    3MOL0     C  321  10.328   1.920   5.333 -0.0296 -0.0696 -0.4563
    3MOL0     O  322  10.459   1.882   5.339 -0.3390  0.2380 -0.1733
    3MOL0     C  323  10.541   1.900   5.228 -1.1609 -0.2593 -0.6543
    3MOL0     C  324  10.685   1.871   5.273 -0.3652  0.0306 -0.5906
    3MOL0     C  325  10.791   1.883   5.171  0.3253  0.1159 -0.0839
    3MOL0     C  326  10.930   1.866   5.219 -0.8730  0.2088 -0.1369
    3MOL0     C  327  10.953   1.990   5.292 -0.4642 -0.2011 -0.2337
    3MOL0     C  328  10.953   2.094   5.358 -0.3496  0.4873 -0.2591
    3MOL0     C  329  10.248   1.916   5.453  0.7493 -0.6028  0.6988
    3MOL0     C  330  10.112   1.952   5.455 -0.3887  0.1513 -0.0913
    3MOL0     H  331   9.694   1.912   5.627  1.3888 -1.9722 -1.8082
    3MOL0     H  332   9.464   1.968   5.693  0.3644  0.9835  0.8568
    3MOL0     H  333   9.214   2.102   5.368  3.5283  0.3846  1.3430
    3MOL0     H  334   9.215   2.263   5.441  0.6365 -0.4010 -1.6566
    3MOL0     H  335   9.019   2.042   5.517 -1.3010  0.1016  0.1447
    3MOL0     H  336   8.976   2.185   5.440 -1.8857 -0.8184  0.7593
    3MOL0     H  337   9.020   2.334   5.629  3.4105  0.3037 -1.2289
    3MOL0     H  338   9.120   2.233   5.711 -2.0768 -0.1593  0.9732
    3MOL0     H  339   8.942   2.056   5.714 -3.0173 -0.1718 -0.9537
    3MOL0     H  340   8.926   2.205   5.815  2.1141  1.9317 -0.4976
    3MOL0     H  341   8.778   2.157   5.548 -2.8489  0.3548 -0.6854
    3MOL0     H  342   8.773   2.302   5.642  0.4968 -0.0090 -1.4434
    3MOL0     H  343   8.682   2.205   5.832 -1.7383 -2.0262  0.6748
    3MOL0     H  344   8.677   2.048   5.748  3.2571 -0.1814  1.9723
    3MOL0     H  345   8.523   2.297   5.690 -2.8681  0.1720 -2.1863
    3MOL0     H  346   8.534   2.162   5.569 -2.1904  1.7905 -0.5925
    3MOL0     H  347   8.439   2.130   5.851  0.4693  2.2583 -0.1036
    3MOL0     H  348   8.424   2.014   5.712  1.0160 -0.2291  0.3124
    3MOL0     H  349   8.239   2.293   5.896 -1.6770  0.4486  1.1343
    3MOL0     H  350   8.021   2.413   5.880  0.9216 -0.8909  0.4703
    3MOL0     H  351   7.906   2.301   5.798  0.0389 -0.8064 -2.2435
    3MOL0     H  352   7.845   2.500   5.703 -0.2584  0.4831 -0.0378
    3MOL0     H  353   7.954   2.437   5.583  1.2756  0.0137 -0.1952
    3MOL0     H  354   7.954   2.691   5.632  0.5280  0.3586 -0.8435
    3MOL0     H  355   7.970   2.657   5.803  2.0617 -2.9392  1.6103
    3MOL0     H  356   8.182   2.733   5.669 -3.0443  0.8103  2.8531
    3MOL0     H  357   8.175   2.571   5.598 -1.1946 -0.5078 -0.2196
    3MOL0     H  358   8.390   2.647   5.598 -0.5476  0.9604  0.5229
    3MOL0     H  359   8.646   2.662   5.628  1.1519  0.8282  0.6772
    3MOL0     H  360   9.049   2.449   5.861 -1.9971  0.8414 -0.1673
    3MOL0     H  361   9.298   2.509   5.897  1.6910  1.5311 -0.2862
    3MOL0     H  362   9.428   2.926   5.842  2.1472  1.0585 -0.4648
    3MOL0     H  363   9.450   2.862   5.676  1.3085 -0.8911 -0.4566
    3MOL0     H  364   9.645   2.732   5.753  2.8433 -1.4549  3.2521
    3MOL0     H  365   9.638   2.808   5.907 -0.9426 -2.2944 -0.2159
    3MOL0     H  366   9.677   3.022   5.823 -0.6162 -0.6186  0.8972
    3MOL0     H  367   9.672   2.975   5.654 -0.3487  0.7793 -0.1187
    3MOL0     H  368   9.876   2.861   5.858  0.1846  0.2455  0.6461
    3MOL0     H  369   9.872   2.834   5.678 -0.0814 -0.8291  0.5118
    3MOL0     H  370  10.046   3.017   5.732  0.1472  3.4950 -2.5324
    3MOL0     H  371   9.912   3.101   5.820 -0.8258 -2.0335  1.1072
    3MOL0     H  372   9.817   3.103   5.578 -0.4072 -0.4245  0.7766
    3MOL0     H  373   9.985   3.049   5.538 -0.0901 -1.6437  2.0452
    3MOL0     H  374   9.942   3.306   5.699 -1.1878  0.4516 -1.2980
    3MOL0     H  375  10.094   3.235   5.631  0.3586 -2.6886 -2.6653
    3MOL0     H  376   9.969   3.269   5.394  1.2596  2.8816 -1.3432
    3MOL0     H  377  10.015   3.411   5.489  2.2982 -1.3091  2.3889
    3MOL0     H  378   9.219   2.876   5.685  1.7561 -2.6077 -1.7243
    3MOL0     H  379   8.992   2.817   5.655 -0.2978 -0.8492 -1.4102
    3MOL0     H  380   8.603   2.538   6.041  0.7190  1.3827  0.7412
    3MOL0     H  381   8.359   2.541   6.009 -3.7119 -1.0235 -0.9607
    3MOL0     H  382   9.413   2.160   5.307  0.0107  1.1431  0.6044
    3MOL0     H  383   9.631   2.129   5.257  0.8381  1.0366  0.8868
    3MOL0     H  384  10.078   2.032   5.130 -1.0862 -1.6262 -0.4347
    3MOL0     H  385  10.302   1.962   5.115 -0.2009 -2.5388  0.1087
    3MOL0     H  386  10.538   2.001   5.188 -0.0262  0.4230  0.8694
    3MOL0     H  387  10.519   1.826   5.150  0.9097 -0.7623 -0.8050
    3MOL0     H  388  10.704   1.940   5.356 -2.2860 -1.1341  0.9171
    3MOL0     H  389  10.685   1.765   5.298 -2.8842 -0.2324 -1.3667
    3MOL0     H  390  10.785   1.976   5.114  4.1162 -1.1773 -3.0358
    3MOL0     H  391  10.775   1.803   5.098 -3.5118  1.7142 -1.2451
    3MOL0     H  392  10.928   1.782   5.289 -1.1202  0.9572  0.7757
    3MOL0     H  393  11.003   1.851   5.140  1.1574  1.1480  1.4853
    3MOL0     H  394  10.965   2.184   5.416 -0.3335  1.0716 -1.1503
    3MOL0     H  395  10.307   1.905   5.544  2.8355 -0.2520 -0.5297
    3MOL0     H  396  10.059   1.947   5.550  1.6962 -0.1266  1.1334
    4MOL0     O  397   2.626   3.774   3.688  0.0283 -0.4737  0.0647
    4MOL0     C  398   2.653   3.881   3.625  0.4113  0.3552 -0.4109
    4MOL0     O  399   2.556   3.971   3.581 -0.3287  0.3330  0.5521
    4MOL0     C  400   2.452   3.992   3.668 -0.5947  0.3880 -0.8874
    4MOL0     C  401   2.324   3.983   3.614 -0.0908 -0.4687 -0.1407
    4MOL0     C  402   2.216   3.997   3.697  0.5863  0.0653 -0.3368
    4MOL0     C  403   2.231   4.011   3.839 -0.1906 -0.3088 -0.6227
    4MOL0     O  404   2.130   4.017   3.928  0.3289 -0.2648  0.3189
    4MOL0     C  405   2.006   3.959   3.876  0.5243 -0.0319 -0.2163
    4MOL0     C  406   1.921   3.923   3.999 -0.7635  0.5373 -0.0307
    4MOL0     C  407   1.857   4.061   4.048  0.3926 -0.6321 -0.3431
    4MOL0     C  408   1.783   4.034   4.177 -0.0417  0.7545 -0.6418
    4MOL0     C  409   1.685   4.153   4.211  0.3723  0.8070  0.8155
    4MOL0     C  410   1.549   4.141   4.141  0.3939  1.1537  0.1477
    4MOL0     C  411   1.446   4.247   4.184  0.1377 -0.1464  0.3696
    4MOL0     C  412   1.381   4.303   4.064 -0.0848  0.3028 -0.1645
    4MOL0     N  413   1.262   4.374   4.107  0.2306  0.4464 -0.9926
    4MOL0     C  414   1.235   4.515   4.104 -0.0441  0.2407 -0.3209
    4MOL0     C  415   1.105   4.529   4.129  0.0565 -0.2646 -0.0221
    4MOL0     C  416   1.025   4.656   4.150 -0.4540  0.6092 -1.1248
    4MOL0     C  417   0.883   4.623   4.201  0.3227  0.1706  0.5066
    4MOL0     C  418   0.872   4.601   4.352 -0.3156 -0.2652  0.3028
    4MOL0     C  419   0.731   4.597   4.410  0.1842  0.6788 -0.0674
    4MOL0     O  420   0.737   4.600   4.558 -0.2677  0.3106 -0.2095
    4MOL0     C  421   0.608   4.611   4.611 -0.6062  0.4736 -0.1782
    4MOL0     C  422   0.510   4.521   4.565  0.0341 -0.1782 -0.9853
    4MOL0     C  423   0.375   4.542   4.600  0.4333 -0.1627 -0.9934
    4MOL0     C  424   0.344   4.642   4.687  0.8266  0.1974  0.0671
    4MOL0     C  425   0.206   4.638   4.728  0.1488  0.2135 -0.1780
    4MOL0     O  426   0.177   4.647   4.864 -0.6088 -0.3779 -0.4427
    4MOL0     C  427   0.046   4.637   4.918  0.2293 -0.4105 -0.1012
    4MOL0     C  428  -0.012   4.752   4.973 -0.5365  0.0763  0.1416
    4MOL0     C  429  -0.147   4.745   5.022  0.1255 -0.2435 -0.4085
    4MOL0     C  430  -0.204   4.617   5.034 -0.3671  0.0990 -0.6505
    4MOL0     O  431  -0.338   4.607   5.071  0.7759  0.3064 -0.8315
    4MOL0     C  432  -0.418   4.721   5.056 -0.3618 -0.1822  0.7819
    4MOL0     C  433  -0.559   4.681   5.084 -0.2479  0.3016  0.2095
    4MOL0     C  434  -0.600   4.661   5.236  0.7376  0.1416  0.1421
    4MOL0     C  435  -0.749   4.643   5.246  0.7847 -0.9183 -0.2382
    4MOL0     C  436  -0.797   4.657   5.388 -0.4699 -0.8411  0.7284
    4MOL0     C  437  -0.931   4.594   5.415  0.0539  0.2319 -0.2631
    4MOL0     C  438  -1.051   4.662   5.345 -0.1581  0.1349 -0.6212
    4MOL0     C  439  -1.183   4.651   5.423  0.2350  0.9246 -0.4448
    4MOL0    Cl  440  -1.311   4.749   5.346  0.6309  0.2624  0.5590
    4MOL0     C  441  -0.143   4.499   4.991 -0.3057  0.4209 -0.6337
    4MOL0     C  442  -0.015   4.513   4.924  0.3957 -0.5550  0.1221
    4MOL0     O  443   0.128   4.624   4.641  0.2303 -0.0660  0.2751
    4MOL0     C  444   0.450   4.714   4.752  0.0208 -0.0290  0.3507
    4MOL0     C  445   0.579   4.710   4.706  0.1818  0.8118 -0.9783
    4MOL0     N  446   1.062   4.401   4.151 -0.0217  0.0661  0.1516
    4MOL0     N  447   1.150   4.307   4.135 -0.5470  0.3209 -1.0896
    4MOL0     C  448   2.362   4.032   3.884  0.3760 -0.2786 -0.6801
    4MOL0     C  449   2.475   4.022   3.804 -0.3332  0.3402  0.1410
    4MOL0     C  450   2.793   3.905   3.573 -0.4317 -0.0014  1.7201
    4MOL0     C  451   2.822   4.021   3.486 -0.1020  0.3482 -0.2690
    4MOL0     C  452   2.952   4.049   3.436 -0.0534 -0.4039 -0.1479
    4MOL0     C  453   3.060   3.965   3.472  0.0997 -0.0170  0.1018
    4MOL0     O  454   3.190   3.988   3.434 -0.2747 -0.4277 -0.4091
    4MOL0     C  455   3.255   4.104   3.494 -0.0717  0.1225 -0.2706
    4MOL0     C  456   3.395   4.126   3.442  0.1107  0.1900  0.8321
    4MOL0     C  457   3.463   4.013   3.369 -0.9190  0.2247 -0.1172
    4MOL0     C  458   3.599   4.056   3.306 -0.6447  0.7543 -0.5562
    4MOL0     C  459   3.709   4.067   3.405  0.2575 -0.0413 -0.3549
    4MOL0     C  460   3.797   4.078   3.485  0.4783 -0.0180 -0.5954
    4MOL0     C  461   3.032   3.856   3.554  0.2999 -0.1325  0.1271
    4MOL0     C  462   2.905   3.826   3.606  0.5257 -0.7862  0.5913
    4MOL0     H  463   2.315   3.958   3.509  1.3868  0.2632 -0.4775
    4MOL0     H  464   2.121   3.977   3.648  0.8917 -1.5180 -0.3570
    4MOL0     H  465   2.035   3.864   3.830 -0.1035 -0.0457 -0.5939
    4MOL0     H  466   1.941   4.016   3.808  0.0535 -0.3142 -0.0121
    4MOL0     H  467   1.978   3.878   4.080 -0.5479 -0.8232 -0.9124
    4MOL0     H  468   1.841   3.851   3.981 -1.0115  0.4264  1.4019
    4MOL0     H  469   1.784   4.092   3.972  2.6076 -1.3090 -2.8783
    4MOL0     H  470   1.934   4.138   4.061 -1.8578  1.8933 -1.1392
    4MOL0     H  471   1.718   3.947   4.165  0.3780 -0.2316  3.0495
    4MOL0     H  472   1.864   4.026   4.250 -0.5293  2.1752  0.0991
    4MOL0     H  473   1.738   4.245   4.187  1.5862  0.1883  1.0156
    4MOL0     H  474   1.674   4.145   4.320 -1.5384 -1.0096  0.5498
    4MOL0     H  475   1.511   4.041   4.164  2.6450 -0.1299 -1.3474
    4MOL0     H  476   1.567   4.144   4.033 -0.1492 -0.1751 -0.0005
    4MOL0     H  477   1.386   4.210   4.267  3.9481 -1.0867  2.9717
    4MOL0     H  478   1.493   4.336   4.226 -0.4020 -0.3875  1.5259
    4MOL0     H  479   1.347   4.228   3.992 -1.9923  0.5506  0.3999
    4MOL0     H  480   1.448   4.372   4.014 -0.7471 -1.4734 -3.8509
    4MOL0     H  481   1.307   4.596   4.099  0.8089 -0.4743  0.1844
    4MOL0     H  482   1.013   4.702   4.051 -2.4302 -0.6984 -1.5342
    4MOL0     H  483   1.079   4.723   4.218  2.7182 -1.8142 -1.0125
    4MOL0     H  484   0.843   4.534   4.152  0.0524 -0.8359  2.4790
    4MOL0     H  485   0.820   4.710   4.181  0.7764  0.2542 -0.6802
    4MOL0     H  486   0.923   4.508   4.377  2.4975  0.9292 -0.5583
    4MOL0     H  487   0.922   4.684   4.402  1.0327 -0.8084 -0.0979
    4MOL0     H  488   0.679   4.508   4.373  0.4641  0.5868 -0.2470
    4MOL0     H  489   0.684   4.691   4.380  0.8231  0.9420 -0.2722
    4MOL0     H  490   0.525   4.442   4.492 -4.6763 -2.0348 -0.2988
    4MOL0     H  491   0.304   4.469   4.562 -0.4459  1.0583 -1.7727
    4MOL0     H  492   0.040   4.846   4.989  1.3545 -1.1604  1.7102
    4MOL0     H  493  -0.184   4.844   5.045  0.1513 -0.6797  1.7789
    4MOL0     H  494  -0.414   4.763   4.955  0.9111  2.4524  1.8157
    4MOL0     H  495  -0.374   4.797   5.121  2.7619 -1.7435  0.6883
    4MOL0     H  496  -0.585   4.584   5.040  1.1473  0.4175 -0.9177
    4MOL0     H  497  -0.616   4.764   5.043  2.2700  2.7411  1.3498
    4MOL0     H  498  -0.559   4.748   5.289  1.0896 -0.5798  1.0616
    4MOL0     H  499  -0.553   4.573   5.281 -1.8796 -0.0661  2.7221
    4MOL0     H  500  -0.799   4.718   5.184 -1.0711 -0.6787  1.4401
    4MOL0     H  501  -0.783   4.547   5.206 -2.2686  0.2277 -0.6634
    4MOL0     H  502  -0.793   4.763   5.413 -0.5868 -0.5449 -0.4381
    4MOL0     H  503  -0.722   4.605   5.448  1.4801 -1.3688 -1.9575
    4MOL0     H  504  -0.946   4.598   5.523 -0.8390 -0.7447 -0.3380
    4MOL0     H  505  -0.938   4.488   5.389  3.4906  0.2580 -1.7996
    4MOL0     H  506  -1.011   4.762   5.326 -1.3499  0.7574 -0.0214
    4MOL0     H  507  -1.067   4.624   5.244  0.0566 -2.1619  0.1619
    4MOL0     H  508  -1.156   4.691   5.522  0.4825  0.3920 -0.2907
    4MOL0     H  509  -1.218   4.548   5.430 -2.1871  1.4671 -2.9645
    4MOL0     H  510  -0.198   4.407   5.006  2.0790 -0.6859  2.4110
    4MOL0     H  511   0.043   4.432   4.882 -1.4222 -1.5245 -0.6085
    4MOL0     H  512   0.427   4.772   4.841  1.0269  1.6349 -0.4228
    4MOL0     H  513   0.662   4.761   4.753  0.2251  0.5955 -0.8154
    4MOL0     H  514   2.380   4.051   3.989 -0.9283  0.2718 -0.5303
    4MOL0     H  515   2.574   4.040   3.844  0.1255 -0.9280 -0.3994
    4MOL0     H  516   2.736   4.076   3.449 -0.1413 -0.9437 -2.2597
    4MOL0     H  517   2.956   4.135   3.370  1.0795 -0.8660 -0.7042
    4MOL0     H  518   3.265   4.084   3.601 -0.6404  1.8842  0.1552
    4MOL0     H  519   3.205   4.199   3.475  0.7423  0.1872 -2.3710
    4MOL0     H  520   3.390   4.201   3.363 -0.6535 -2.1531 -1.4568
    4MOL0     H  521   3.455   4.164   3.526 -1.3078  0.4029  1.8003
    4MOL0     H  522   3.396   3.971   3.293 -3.3872 -0.9357  2.5076
    4MOL0     H  523   3.468   3.939   3.450 -0.3511  1.3769  0.9424
    4MOL0     H  524   3.642   3.973   3.249  1.6848 -0.8548  3.0900
    4MOL0     H  525   3.590   4.144   3.242 -2.1247  1.9076  1.1422
    4MOL0     H  526   3.871   4.091   3.562 -1.0913 -0.1796  1.0022
    4MOL0     H  527   3.121   3.802   3.584  1.8415  2.2737  0.1500
    4MOL0     H  528   2.912   3.738   3.670  4.3541 -1.5690 -0.6299
    5MOL0     O  529   8.795   1.491   8.829  0.4339  0.0364 -0.0816
    5MOL0     C  530   8.825   1.543   8.934 -0.9837  0.5775  0.0023
    5MOL0     O  531   8.757   1.650   9.000 -0.3926 -0.3293  0.3743
    5MOL0     C  532   8.618   1.639   9.016 -0.1682 -0.3241  1.0312
    5MOL0     C  533   8.553   1.759   9.063 -0.1308  0.3454  0.0080
    5MOL0     C  534   8.419   1.762   9.091  0.4932  0.9998 -0.6445
    5MOL0     C  535   8.344   1.640   9.083 -0.6954 -0.1659 -0.3310
    5MOL0     O  536   8.216   1.651   9.126 -0.9058 -0.6803  0.2996
    5MOL0     C  537   8.116   1.564   9.073 -0.8045 -0.2059 -1.3585
    5MOL0     C  538   7.982   1.569   9.164 -0.5373  0.6331 -0.4489
    5MOL0     C  539   7.918   1.432   9.179 -0.3242  0.7497  0.0468
    5MOL0     C  540   7.798   1.441   9.265 -0.4218  0.3162 -0.2305
    5MOL0     C  541   7.747   1.306   9.324 -0.0425  0.9637  0.3684
    5MOL0     C  542   7.612   1.335   9.396  0.9261  0.0838 -0.3456
    5MOL0     C  543   7.558   1.211   9.459 -0.6275  0.4857 -0.2440
    5MOL0     C  544   7.633   1.171   9.585 -0.3972 -0.9590  0.3702
    5MOL0     N  545   7.606   1.268   9.697  0.4296 -0.1359 -0.6305
    5MOL0     C  546   7.500   1.262   9.782  0.8098 -0.0422  0.3403
    5MOL0     C  547   7.528   1.333   9.896  0.3248 -0.1959 -0.2647
    5MOL0     C  548   7.435   1.338  10.019  0.7443 -0.6554  0.1853
    5MOL0     C  549   7.337   1.455  10.043  0.4610 -0.8101 -0.4240
    5MOL0     C  550   7.291   1.448  10.192 -0.1203  0.5590  0.2086
    5MOL0     C  551   7.179   1.548  10.223 -0.2563 -0.3285 -0.4550
    5MOL0     O  552   7.075   1.556  10.127 -0.0209  0.5697  0.2038
    5MOL0     C  553   6.960   1.610  10.170  0.4307 -0.6541  0.3100
    5MOL0     C  554   6.931   1.713  10.263  0.1191  0.3064  0.3993
    5MOL0     C  555   6.810   1.769  10.287 -0.2850  0.4973  0.3204
    5MOL0     C  556   6.697   1.721  10.222 -0.0263 -0.2878 -0.3195
    5MOL0     C  557   6.570   1.773  10.264  0.6469 -0.0248 -0.1904
    5MOL0     O  558   6.461   1.725  10.184  1.0241 -0.0756  0.6770
    5MOL0     C  559   6.348   1.793  10.193 -0.1586 -0.2088  0.0903
    5MOL0     C  560   6.266   1.757  10.299 -0.3938 -1.1992  0.3490
    5MOL0     C  561   6.147   1.818  10.302  0.0346  0.5862  0.1258
    5MOL0     C  562   6.097   1.902  10.204  0.0476  1.1147 -1.0387
    5MOL0     O  563   5.966   1.942  10.218  0.2880 -0.0181  0.0020
    5MOL0     C  564   5.946   2.079  10.217  0.2897 -0.2023 -0.7362
    5MOL0     C  565   5.799   2.112  10.182 -1.2947 -0.0406 -0.2938
    5MOL0     C  566   5.773   2.088  10.036  0.4403 -0.2397  0.2236
    5MOL0     C  567   5.632   2.127  10.003  0.4486 -0.4955  1.1587
    5MOL0     C  568   5.584   2.084   9.860 -0.0738  0.1601  0.3913
    5MOL0     C  569   5.568   1.931   9.841 -0.0783  0.7987 -0.3871
    5MOL0     C  570   5.513   1.884   9.712  0.2403  1.0668 -0.2385
    5MOL0     C  571   5.491   1.731   9.693 -0.6975  0.3128  1.0708
    5MOL0    Cl  572   5.641   1.642   9.662 -0.4263 -0.3160 -0.1411
    5MOL0     C  573   6.182   1.944  10.099 -0.3495 -0.2257 -0.8774
    5MOL0     C  574   6.302   1.881  10.086  0.0764 -1.2905 -0.3462
    5MOL0     O  575   6.549   1.850  10.362  0.4579 -0.0044 -0.2648
    5MOL0     C  576   6.720   1.627  10.113  0.7134 -0.4983  0.0881
    5MOL0     C  577   6.848   1.577  10.090 -0.0123  0.1283 -0.1677
    5MOL0     N  578   7.659   1.371   9.880 -0.3302 -0.3428  0.4463
    5MOL0     N  579   7.703   1.342   9.761 -0.5531 -0.4198 -0.3621
    5MOL0     C  580   8.411   1.524   9.042 -0.4155 -0.1948  0.1846
    5MOL0     C  581   8.540   1.523   9.009 -1.2352 -0.0984  0.6700
    5MOL0     C  582   8.956   1.504   8.986 -0.5109 -0.1177 -0.6527
    5MOL0     C  583   9.025   1.389   8.941  0.7618  0.1736 -0.1506
    5MOL0     C  584   9.132   1.342   9.014 -0.0642  0.8312 -0.8858
    5MOL0     C  585   9.171   1.402   9.131 -0.1881  0.4703 -0.4438
    5MOL0     O  586   9.272   1.367   9.216 -0.1290  0.1994  0.4152
    5MOL0     C  587   9.302   1.230   9.217 -0.3067  0.8650  0.0667
    5MOL0     C  588   9.399   1.199   9.330 -1.6701  0.6278  0.2812
    5MOL0     C  589   9.429   1.050   9.336  0.0117 -0.3205 -0.0925
    5MOL0     C  590   9.504   1.015   9.458 -0.5163 -0.6151 -0.2085
    5MOL0     C  591   9.643   1.063   9.461 -1.2662  0.4834  0.5083
    5MOL0     C  592   9.764   1.098   9.447  0.9255  0.0379  0.0798
    5MOL0     C  593   9.113   1.519   9.173  0.4824  0.3012  0.1732
    5MOL0     C  594   9.006   1.574   9.104 -0.1394 -0.1683  0.4564
    5MOL0     H  595   8.615   1.845   9.040  0.3277 -0.5233 -2.3046
    5MOL0     H  596   8.369   1.851   9.128 -1.1532  0.4719 -1.5257
    5MOL0     H  597   8.167   1.468   9.075  3.6366  1.8853 -0.1425
    5MOL0     H  598   8.094   1.581   8.967 -2.0533 -1.2048 -1.2799
    5MOL0     H  599   7.907   1.633   9.118 -1.1469 -0.6525 -1.2821
    5MOL0     H  600   8.016   1.607   9.261 -0.1171 -0.0644 -0.3079
    5MOL0     H  601   7.984   1.362   9.229 -0.5213  2.4208  2.8536
    5MOL0     H  602   7.903   1.394   9.077  2.1758  1.1383 -0.5349
    5MOL0     H  603   7.818   1.499   9.355 -0.0763  0.6637 -0.5243
    5MOL0     H  604   7.717   1.495   9.214  1.1151  3.1090  0.0786
    5MOL0     H  605   7.822   1.266   9.394  0.5296 -1.7085 -1.5976
    5MOL0     H  606   7.742   1.222   9.253  1.1421 -0.0352  1.4088
    5MOL0     H  607   7.540   1.370   9.322  0.6950 -0.3003 -0.3064
    5MOL0     H  608   7.626   1.413   9.471  2.1958 -1.2543  0.8978
    5MOL0     H  609   7.453   1.211   9.491  0.2713  2.7618  3.1988
    5MOL0     H  610   7.552   1.128   9.389  0.3186 -1.5206  1.9026
    5MOL0     H  611   7.738   1.159   9.559 -1.2119 -0.5496 -4.0501
    5MOL0     H  612   7.602   1.072   9.618  0.1987 -1.5196 -0.6930
    5MOL0     H  613   7.404   1.212   9.770 -0.7588  2.6189  0.9566
    5MOL0     H  614   7.507   1.331  10.101 -0.6325  0.1946  1.5150
    5MOL0     H  615   7.372   1.249  10.020  1.0271 -0.8551  0.9186
    5MOL0     H  616   7.259   1.434   9.969  0.5944  2.8544 -1.7802
    5MOL0     H  617   7.382   1.552  10.024  3.0058 -2.4002 -3.4450
    5MOL0     H  618   7.253   1.347  10.209 -0.6025  0.7437  0.2347
    5MOL0     H  619   7.373   1.478  10.258  0.5549 -0.4882 -0.1255
    5MOL0     H  620   7.221   1.649  10.235  0.9148 -0.8694  0.1283
    5MOL0     H  621   7.128   1.510  10.312 -0.7695  1.2520 -0.0387
    5MOL0     H  622   7.021   1.748  10.312  0.3645 -0.9981  0.9270
    5MOL0     H  623   6.800   1.853  10.355 -0.7505  1.1713 -0.5493
    5MOL0     H  624   6.298   1.684  10.374 -1.0461 -1.7295  0.1227
    5MOL0     H  625   6.092   1.808  10.395 -0.3432 -2.3691 -0.3129
    5MOL0     H  626   6.014   2.126  10.145 -0.3253  0.6051 -0.7973
    5MOL0     H  627   5.966   2.113  10.319 -1.2728 -1.4998  0.0557
    5MOL0     H  628   5.787   2.219  10.201 -0.8591  0.4273 -2.4760
    5MOL0     H  629   5.738   2.056  10.253 -1.3311  0.3126 -0.0406
    5MOL0     H  630   5.786   1.980  10.024 -0.2130 -0.1643 -1.4212
    5MOL0     H  631   5.842   2.146   9.973 -1.8551 -2.3311 -4.8007
    5MOL0     H  632   5.552   2.090  10.069  0.1875  2.4482  2.6698
    5MOL0     H  633   5.617   2.235   9.993  1.3983 -0.5689 -1.8060
    5MOL0     H  634   5.656   2.129   9.791 -0.4612  0.7067  0.3414
    5MOL0     H  635   5.487   2.131   9.843  0.4660  1.1003 -0.2114
    5MOL0     H  636   5.512   1.884   9.923  0.8702 -0.1671 -0.2591
    5MOL0     H  637   5.667   1.890   9.864 -0.0927  1.2506  0.5180
    5MOL0     H  638   5.412   1.927   9.709 -0.3042 -0.1728 -0.0781
    5MOL0     H  639   5.568   1.923   9.626  3.6229  0.8546  1.6397
    5MOL0     H  640   5.425   1.715   9.607  0.1124  0.9596  0.3130
    5MOL0     H  641   5.442   1.684   9.779 -1.6325  1.9992  1.5143
    5MOL0     H  642   6.146   2.022  10.033  0.6234  0.5521 -0.5190
    5MOL0     H  643   6.360   1.901   9.997  1.8335 -2.0493  0.5857
    5MOL0     H  644   6.639   1.589  10.052 -0.8470 -4.1413  3.8986
    5MOL0     H  645   6.858   1.515  10.001 -0.4580  1.4448 -1.1580
    5MOL0     H  646   8.355   1.431   9.050  1.2239 -1.6834 -3.5843
    5MOL0     H  647   8.589   1.427   8.992  1.2688  1.5390 -2.3470
    5MOL0     H  648   8.988   1.338   8.853 -0.4708  0.9244 -0.0865
    5MOL0     H  649   9.191   1.259   8.977 -1.8411 -0.2230 -1.4658
    5MOL0     H  650   9.354   1.196   9.127  0.9255 -0.6742  1.3068
    5MOL0     H  651   9.205   1.180   9.224  0.0892  0.1408  0.5220
    5MOL0     H  652   9.488   1.257   9.307 -0.9658 -1.3184 -2.4790
    5MOL0     H  653   9.364   1.218   9.432  0.6074 -0.6784  1.3724
    5MOL0     H  654   9.484   1.013   9.248 -0.0197  0.9616 -0.6692
    5MOL0     H  655   9.334   0.995   9.335 -0.0561 -0.2010 -0.5432
    5MOL0     H  656   9.451   1.051   9.546 -0.6017 -0.1495 -0.4503
    5MOL0     H  657   9.493   0.906   9.461 -3.8477 -0.4147 -1.5483
    5MOL0     H  658   9.867   1.116   9.425  0.4231  5.6514  0.7963
    5MOL0     H  659   9.154   1.558   9.266 -1.1232 -3.8902  2.9344
    5MOL0     H  660   8.955   1.656   9.155 -2.0413 -0.9329 -0.1643
    6MOL0     O  661   5.789   4.453   4.201  0.2163 -0.0876  0.4222
    6MOL0     C  662   5.813   4.548   4.127 -0.0479 -0.6159 -0.4802
    6MOL0     O  663   5.734   4.591   4.015 -0.2855  1.1039 -0.2646
    6MOL0     C  664   5.616   4.524   3.994 -0.1894 -0.7133  0.1702
    6MOL0     C  665   5.522   4.484   4.089  0.3387 -0.1669 -0.1151
    6MOL0     C  666   5.418   4.399   4.054 -0.0333 -0.1783 -0.1751
    6MOL0     C  667   5.397   4.359   3.922  0.2076 -0.4682 -0.3203
    6MOL0     O  668   5.302   4.266   3.874 -0.2341  0.2732 -0.1273
    6MOL0     C  669   5.250   4.185   3.975 -0.3413  0.4801  0.3829
    6MOL0     C  670   5.167   4.073   3.915  0.5056  0.1189  0.1054
    6MOL0     C  671   5.016   4.075   3.921 -0.3942  0.3870  0.2846
    6MOL0     C  672   4.963   3.948   3.850 -0.0948  0.3857  0.5162
    6MOL0     C  673   4.814   3.954   3.848 -0.1625  0.8974 -1.2290
    6MOL0     C  674   4.773   3.830   3.769  0.1170  0.5735  0.2371
    6MOL0     C  675   4.623   3.818   3.757  0.0240  0.2804 -0.6872
    6MOL0     C  676   4.577   3.677   3.727 -0.1234  0.1347 -0.8230
    6MOL0     N  677   4.432   3.660   3.732 -0.0026  0.0635 -1.0586
    6MOL0     C  678   4.365   3.607   3.842  0.2857  0.6987 -0.8242
    6MOL0     C  679   4.239   3.571   3.806 -0.2867 -0.8496  0.4124
    6MOL0     C  680   4.125   3.517   3.886 -0.4769 -0.0475  0.1583
    6MOL0     C  681   4.061   3.399   3.808 -0.6872 -1.7144 -0.0028
    6MOL0     C  682   3.928   3.360   3.857  0.4243 -0.0942 -0.9158
    6MOL0     C  683   3.855   3.285   3.741 -0.0160  0.0052  0.5993
    6MOL0     O  684   3.750   3.204   3.789  0.1813  0.1696 -0.7954
    6MOL0     C  685   3.632   3.266   3.837 -0.2994 -0.3056 -0.0529
    6MOL0     C  686   3.601   3.404   3.828  0.6937  0.6210  0.1849
    6MOL0     C  687   3.469   3.447   3.874 -0.0333 -0.3791 -0.6589
    6MOL0     C  688   3.371   3.359   3.930 -0.2891 -0.5718  0.4451
    6MOL0     C  689   3.250   3.397   3.992 -0.5362 -0.8604 -0.0509
    6MOL0     O  690   3.211   3.530   3.964  0.2202 -0.6481  0.3186
    6MOL0     C  691   3.083   3.548   3.993  0.1586 -0.2804  0.4591
    6MOL0     C  692   3.033   3.554   4.123 -0.2523 -0.5565  0.0047
    6MOL0     C  693   2.894   3.579   4.151 -0.0865 -0.3175  0.3701
    6MOL0     C  694   2.801   3.586   4.046 -0.2426 -0.9773 -0.0514
    6MOL0     O  695   2.667   3.595   4.080 -0.1756  0.1961  0.3142
    6MOL0     C  696   2.590   3.664   3.980  0.0601  0.1751 -0.4585
    6MOL0     C  697   2.455   3.702   4.041 -0.0251  0.4333  0.0357
    6MOL0     C  698   2.467   3.776   4.181  0.2207  0.7233  0.8886
    6MOL0     C  699   2.328   3.824   4.224  0.1693 -0.1032  0.5079
    6MOL0     C  700   2.320   3.895   4.356 -0.1642 -0.7511  0.1571
    6MOL0     C  701   2.180   3.935   4.397  0.1957 -0.1156  0.7835
    6MOL0     C  702   2.183   4.002   4.534 -0.5695  0.1645  0.0907
    6MOL0     C  703   2.044   4.059   4.575  0.1104 -0.5218 -0.4583
    6MOL0    Cl  704   2.048   4.130   4.737 -0.0035  0.0816 -0.0413
    6MOL0     C  705   2.852   3.583   3.911  0.6850 -0.3019 -0.4363
    6MOL0     C  706   2.992   3.573   3.892 -0.0270  0.7411  0.2217
    6MOL0     O  707   3.192   3.320   4.060 -0.0136 -0.0723 -0.4624
    6MOL0     C  708   3.411   3.221   3.933  0.1808 -0.1676  0.0045
    6MOL0     C  709   3.537   3.177   3.888  0.4125 -0.3105  1.2226
    6MOL0     N  710   4.229   3.618   3.672 -0.9469  0.3201 -0.3501
    6MOL0     N  711   4.341   3.661   3.634 -0.2675 -0.0057  0.7525
    6MOL0     C  712   5.487   4.401   3.830  0.3110 -0.0802  0.3257
    6MOL0     C  713   5.597   4.480   3.860 -0.8043 -0.2725  0.2662
    6MOL0     C  714   5.933   4.631   4.143  0.0968 -0.1117 -0.5637
    6MOL0     C  715   6.011   4.623   4.259  0.0553  0.1405 -0.1507
    6MOL0     C  716   6.120   4.708   4.282 -0.3871 -0.1912  0.1610
    6MOL0     C  717   6.139   4.817   4.197  0.0717 -0.4782  0.3700
    6MOL0     O  718   6.243   4.896   4.222 -1.2116 -0.1588  0.2346
    6MOL0     C  719   6.237   5.027   4.170 -0.0223  0.1341 -0.6859
    6MOL0     C  720   6.306   5.028   4.033 -0.2259  0.1179 -0.4763
    6MOL0     C  721   6.452   5.067   4.045  0.3813  0.1350 -0.1533
    6MOL0     C  722   6.522   5.073   3.915  0.5337 -0.0414  0.0055
    6MOL0     C  723   6.664   5.116   3.920  0.2324 -0.0487  0.2901
    6MOL0     C  724   6.781   5.123   3.906  0.4291 -0.6436  0.3476
    6MOL0     C  725   6.058   4.830   4.082  0.1943  0.1564  0.3884
    6MOL0     C  726   5.961   4.737   4.049 -0.4130 -0.1385  0.0612
    6MOL0     H  727   5.525   4.511   4.195 -0.9291  1.8257 -0.5143
    6MOL0     H  728   5.355   4.353   4.131  0.4221  0.7588  0.7779
    6MOL0     H  729   5.196   4.246   4.048 -2.2557  0.0246 -0.5984
    6MOL0     H  730   5.341   4.134   4.010 -0.9787 -0.8925  0.0913
    6MOL0     H  731   5.192   3.979   3.965  2.3661  0.5075 -0.0369
    6MOL0     H  732   5.200   4.066   3.811  0.0052  3.2406 -0.3489
    6MOL0     H  733   4.985   4.167   3.869 -3.2881  0.4454  1.9061
    6MOL0     H  734   4.983   4.074   4.025  3.5346 -1.2230  1.7180
    6MOL0     H  735   5.008   3.947   3.749  0.8535  1.7905  0.8961
    6MOL0     H  736   4.980   3.848   3.891 -1.9985  0.7112  2.2439
    6MOL0     H  737   4.787   4.047   3.798  1.0198  1.2200 -1.3081
    6MOL0     H  738   4.771   3.952   3.948 -1.2126 -1.2741 -1.6655
    6MOL0     H  739   4.806   3.734   3.811  0.4827 -0.3457 -2.0174
    6MOL0     H  740   4.814   3.836   3.668 -0.9058 -1.0338 -0.3190
    6MOL0     H  741   4.586   3.850   3.855  0.0235  0.4799 -0.7526
    6MOL0     H  742   4.573   3.885   3.686  0.9131  1.8744  0.1359
    6MOL0     H  743   4.619   3.617   3.808  0.1279  0.9880 -0.3146
    6MOL0     H  744   4.619   3.654   3.629  1.4395  1.0362 -0.3905
    6MOL0     H  745   4.410   3.581   3.937  0.9202 -1.0452 -1.5585
    6MOL0     H  746   4.053   3.598   3.900 -1.0981 -0.1767 -1.8875
    6MOL0     H  747   4.150   3.482   3.987 -2.5272 -2.6298 -0.1110
    6MOL0     H  748   4.127   3.313   3.818 -0.7890 -1.7216  0.6756
    6MOL0     H  749   4.046   3.421   3.702 -2.4723  0.2711  0.5914
    6MOL0     H  750   3.948   3.294   3.942  3.6396  2.2018  0.3081
    6MOL0     H  751   3.875   3.451   3.888 -0.1519 -0.4321 -0.8859
    6MOL0     H  752   3.931   3.227   3.686  0.9260 -1.8774  3.6391
    6MOL0     H  753   3.822   3.346   3.656  1.9508 -0.4644 -0.5857
    6MOL0     H  754   3.669   3.470   3.775 -0.7935  1.9273 -0.1769
    6MOL0     H  755   3.443   3.551   3.863  1.1023  0.0767  0.6344
    6MOL0     H  756   3.106   3.534   4.201  0.2842  1.6669  0.1468
    6MOL0     H  757   2.860   3.585   4.253  3.1119  0.1274  1.5337
    6MOL0     H  758   2.578   3.601   3.892  1.1119 -0.0635 -0.4416
    6MOL0     H  759   2.642   3.757   3.956  2.7128 -1.6011 -2.0360
    6MOL0     H  760   2.394   3.612   4.049 -1.2298  1.2597  0.5240
    6MOL0     H  761   2.399   3.774   3.980 -0.2886 -1.5894 -2.2531
    6MOL0     H  762   2.536   3.859   4.160 -1.0388  0.9855 -2.9205
    6MOL0     H  763   2.510   3.717   4.263 -2.7464 -0.4175  1.7616
    6MOL0     H  764   2.304   3.898   4.146 -3.3511 -2.0511 -0.4756
    6MOL0     H  765   2.252   3.746   4.210 -1.8954  1.8447  0.2515
    6MOL0     H  766   2.377   3.986   4.337  0.9647 -1.2429  1.0748
    6MOL0     H  767   2.380   3.845   4.432  0.2009  0.8475  0.9646
    6MOL0     H  768   2.104   3.856   4.392  0.3774 -0.4553  2.7145
    6MOL0     H  769   2.157   4.008   4.319  0.9415  1.2802  1.8229
    6MOL0     H  770   2.228   3.942   4.614 -2.6251 -2.7014 -0.7688
    6MOL0     H  771   2.251   4.087   4.521 -0.9858  1.0541  2.9470
    6MOL0     H  772   1.973   3.976   4.567  1.3735 -1.5279 -1.8434
    6MOL0     H  773   2.010   4.135   4.505  0.5993  0.8669  0.7613
    6MOL0     H  774   2.780   3.580   3.830 -0.3653  0.6411  0.4409
    6MOL0     H  775   3.027   3.576   3.790 -3.1551  2.2065 -0.9589
    6MOL0     H  776   3.344   3.153   3.985 -0.2761  0.0455 -0.3035
    6MOL0     H  777   3.557   3.070   3.899  1.0357 -0.5083 -1.1792
    6MOL0     H  778   5.464   4.385   3.725 -3.1221 -0.7572  1.0617
    6MOL0     H  779   5.649   4.506   3.768 -2.2474 -0.7842 -0.7239
    6MOL0     H  780   5.988   4.541   4.327 -0.2233 -0.6362 -1.1532
    6MOL0     H  781   6.177   4.693   4.373 -0.6772 -1.6355  0.1239
    6MOL0     H  782   6.283   5.098   4.240 -2.6305  0.4786  0.7896
    6MOL0     H  783   6.133   5.058   4.154  0.2280  0.5652 -1.5963
    6MOL0     H  784   6.305   4.930   3.984 -0.1028  0.1554 -0.5535
    6MOL0     H  785   6.261   5.099   3.963  0.1633 -0.6806 -1.5674
    6MOL0     H  786   6.493   4.990   4.111 -3.0389  0.3803  2.5226
    6MOL0     H  787   6.467   5.167   4.086 -0.5693  0.4769 -0.6276
    6MOL0     H  788   6.529   4.973   3.870 -1.0836  0.2690 -0.9963
    6MOL0     H  789   6.480   5.135   3.836  1.1795  0.4113  0.0123
    6MOL0     H  790   6.887   5.134   3.902  0.1455  3.8503  0.5100
    6MOL0     H  791   6.066   4.915   4.015 -0.1108  0.7633  1.1053
    6MOL0     H  792   5.903   4.740   3.957  1.2294 -2.8666 -1.1925
    7MOL0     O  793   7.120   5.764   7.960  0.2395  0.2198 -0.2482
    7MOL0     C  794   7.239   5.749   7.979 -0.4398 -0.4061  0.7703
    7MOL0     O  795   7.288   5.655   8.052 -0.5415 -0.2795  0.0418
    7MOL0     C  796   7.212   5.579   8.138 -0.2298  1.6609  0.9709
    7MOL0     C  797   7.286   5.473   8.194  0.5794 -0.0594  0.6091
    7MOL0     C  798   7.233   5.393   8.290  0.6126 -0.0479  0.7324
    7MOL0     C  799   7.098   5.408   8.330  0.1768 -0.2930  0.7401
    7MOL0     O  800   7.036   5.324   8.418  0.0149  0.3626  0.0188
    7MOL0     C  801   6.898   5.338   8.462  0.0949 -0.9448 -0.0692
    7MOL0     C  802   6.797   5.301   8.352  0.2836 -0.2597 -0.4104
    7MOL0     C  803   6.668   5.374   8.382  0.8706  0.5597  0.1785
    7MOL0     C  804   6.561   5.331   8.279 -0.1244  0.4944 -0.2938
    7MOL0     C  805   6.417   5.327   8.347 -0.1876  0.0011  0.3098
    7MOL0     C  806   6.396   5.193   8.425  0.1917 -0.0278  0.0429
    7MOL0     C  807   6.244   5.169   8.444  0.6107  0.1815  0.5238
    7MOL0     C  808   6.176   5.275   8.536  0.1096  0.5498 -0.9598
    7MOL0     N  809   6.131   5.212   8.660 -0.4768  0.2058 -0.1746
    7MOL0     C  810   6.026   5.125   8.670 -0.1676  1.2495 -0.4254
    7MOL0     C  811   6.019   5.094   8.800 -0.5696 -0.7315 -0.3025
    7MOL0     C  812   5.920   4.992   8.856  0.7379 -0.7268 -0.7061
    7MOL0     C  813   5.800   5.044   8.925 -0.0906 -0.7751  0.1359
    7MOL0     C  814   5.698   4.925   8.951  0.3176  0.0619  0.1869
    7MOL0     C  815   5.589   4.977   9.046 -0.1348 -0.1591 -0.2718
    7MOL0     O  816   5.502   5.073   8.990  0.1323 -0.6305  0.0501
    7MOL0     C  817   5.363   5.054   8.975  0.3153  0.4961  0.6673
    7MOL0     C  818   5.299   5.094   8.859  0.1649 -0.8934 -0.5985
    7MOL0     C  819   5.163   5.088   8.842 -0.0934  0.3900  0.1474
    7MOL0     C  820   5.081   5.030   8.937 -0.3021  0.3175 -0.5626
    7MOL0     C  821   4.933   5.026   8.925  0.0644  0.2569  0.8663
    7MOL0     O  822   4.875   5.099   8.815 -0.0092  0.2008 -0.7417
    7MOL0     C  823   4.739   5.107   8.784 -0.3406 -0.0158  0.3103
    7MOL0     C  824   4.694   5.168   8.670 -0.5342 -0.2579  0.1823
    7MOL0     C  825   4.560   5.176   8.635 -0.4686 -0.2496  0.5431
    7MOL0     C  826   4.465   5.136   8.718  1.1101 -0.3488 -0.1675
    7MOL0     O  827   4.339   5.142   8.666 -0.2946  0.2026 -0.6051
    7MOL0     C  828   4.228   5.137   8.766  0.4013  0.0690 -0.4232
    7MOL0     C  829   4.184   4.999   8.793  0.3360  0.0903 -0.2778
    7MOL0     C  830   4.076   4.945   8.691  0.0858  0.0681  0.9256
    7MOL0     C  831   3.930   5.001   8.714 -0.2502 -0.7250  0.0068
    7MOL0     C  832   3.822   4.945   8.617 -0.4021 -0.0996  0.2712
    7MOL0     C  833   3.679   4.971   8.664  0.3170 -0.6640  0.0476
    7MOL0     C  834   3.574   4.924   8.568  0.1836 -0.5874  0.1921
    7MOL0     C  835   3.431   4.932   8.623 -0.6161  0.3817  0.1634
    7MOL0    Cl  836   3.393   5.076   8.728 -0.6228 -0.3923  0.2594
    7MOL0     C  837   4.498   5.087   8.844  0.4440  0.2556 -1.0805
    7MOL0     C  838   4.633   5.064   8.871 -0.5039 -0.5851  1.1034
    7MOL0     O  839   4.867   4.971   9.014 -0.1941 -0.5931 -0.1186
    7MOL0     C  840   5.142   4.974   9.050  0.4462 -0.1703 -1.0279
    7MOL0     C  841   5.284   4.984   9.072  0.2075 -1.1174  0.1436
    7MOL0     N  842   6.112   5.180   8.865 -0.6674  0.4477 -0.0178
    7MOL0     N  843   6.165   5.263   8.777  0.3571  0.0740  0.4014
    7MOL0     C  844   7.026   5.510   8.267 -0.9095 -0.9967 -0.4992
    7MOL0     C  845   7.081   5.581   8.165 -1.1136 -0.0888  0.4226
    7MOL0     C  846   7.339   5.839   7.919 -0.4984 -0.7293 -0.0842
    7MOL0     C  847   7.474   5.815   7.925 -0.7638  0.0885  0.8857
    7MOL0     C  848   7.562   5.894   7.846 -0.9192 -0.3624 -1.1328
    7MOL0     C  849   7.517   6.007   7.770 -0.0530  0.2417  0.4714
    7MOL0     O  850   7.609   6.091   7.703  1.1855 -1.0783  0.4573
    7MOL0     C  851   7.561   6.164   7.595 -0.0376 -0.7755  0.4781
    7MOL0     C  852   7.675   6.178   7.498 -0.6241 -0.3199  0.3330
    7MOL0     C  853   7.784   6.268   7.566  0.5222  0.3782 -0.2060
    7MOL0     C  854   7.881   6.277   7.443 -0.1422  0.0636  0.4143
    7MOL0     C  855   7.985   6.367   7.495 -0.2169 -0.0651 -1.0116
    7MOL0     C  856   8.059   6.455   7.529  0.2341  0.4797  0.2697
    7MOL0     C  857   7.382   6.031   7.773  0.0397  0.2325  0.2370
    7MOL0     C  858   7.296   5.951   7.845  0.2080  0.5336  0.5718
    7MOL0     H  859   7.388   5.465   8.158  0.7760  1.3491  0.7983
    7MOL0     H  860   7.290   5.302   8.308 -0.8011 -0.8848  1.1404
    7MOL0     H  861   6.891   5.446   8.479 -0.1926 -1.0726  0.6478
    7MOL0     H  862   6.874   5.277   8.550  2.8307 -2.5571 -0.3123
    7MOL0     H  863   6.782   5.193   8.349 -0.7571 -0.1826  1.1514
    7MOL0     H  864   6.839   5.333   8.256  0.5953  3.6533  0.8415
    7MOL0     H  865   6.677   5.482   8.375 -1.1391  0.7857  0.6352
    7MOL0     H  866   6.642   5.339   8.482  2.9426  0.4746  0.7324
    7MOL0     H  867   6.565   5.411   8.204 -3.6209  2.6036  1.5002
    7MOL0     H  868   6.576   5.230   8.240 -2.3835  0.1549 -0.4081
    7MOL0     H  869   6.347   5.346   8.264  0.3938  4.3929  0.5648
    7MOL0     H  870   6.397   5.412   8.414 -0.9516 -0.6211  0.8807
    7MOL0     H  871   6.441   5.194   8.525  1.0431  2.8438 -0.2926
    7MOL0     H  872   6.448   5.116   8.367  2.2502  1.5601 -0.3236
    7MOL0     H  873   6.202   5.162   8.344  0.5360 -3.3102  0.6784
    7MOL0     H  874   6.218   5.072   8.487 -1.6091  0.2884 -0.4564
    7MOL0     H  875   6.087   5.304   8.479  0.0569  0.9428 -0.6800
    7MOL0     H  876   6.224   5.372   8.548  1.0766  0.4036 -3.2361
    7MOL0     H  877   5.983   5.053   8.601  0.7844 -0.9635  1.1742
    7MOL0     H  878   5.975   4.929   8.927 -2.5169 -3.2536 -0.1931
    7MOL0     H  879   5.884   4.924   8.778  0.8598 -0.8721 -0.6369
    7MOL0     H  880   5.759   5.135   8.880  2.7125  1.0395  1.0170
    7MOL0     H  881   5.834   5.075   9.025 -2.6366 -1.2857  1.2457
    7MOL0     H  882   5.657   4.888   8.857  3.7666  1.4944 -2.0709
    7MOL0     H  883   5.757   4.845   8.995 -0.1801 -0.7535 -0.6096
    7MOL0     H  884   5.650   5.022   9.124 -0.2680 -1.9942  0.9397
    7MOL0     H  885   5.535   4.894   9.092  1.0492  0.2191  1.9444
    7MOL0     H  886   5.360   5.134   8.779 -1.1910 -0.0681 -1.2712
    7MOL0     H  887   5.117   5.132   8.754 -2.3589 -0.5667  0.7849
    7MOL0     H  888   4.782   5.207   8.619  1.2481  0.2461  3.3609
    7MOL0     H  889   4.540   5.227   8.541  4.6835 -1.2882 -1.4145
    7MOL0     H  890   4.141   5.195   8.734 -2.6694 -2.3796  2.6378
    7MOL0     H  891   4.256   5.191   8.856  1.0354  2.0440 -1.7281
    7MOL0     H  892   4.132   5.004   8.889 -1.0604  0.6060 -1.0268
    7MOL0     H  893   4.267   4.929   8.806  0.5947  0.2247 -1.1868
    7MOL0     H  894   4.072   4.836   8.703 -2.1308  0.0820  0.6202
    7MOL0     H  895   4.114   4.965   8.590  3.6655 -1.3732  1.8141
    7MOL0     H  896   3.895   4.982   8.816  2.0201 -0.4142  0.9077
    7MOL0     H  897   3.934   5.110   8.701 -0.1269 -0.5247  1.5895
    7MOL0     H  898   3.831   4.839   8.594  1.2001  0.3933 -1.6458
    7MOL0     H  899   3.835   4.991   8.519  3.0404  0.6024  0.9258
    7MOL0     H  900   3.673   5.080   8.673  0.5641 -0.5916 -0.6000
    7MOL0     H  901   3.668   4.931   8.765  3.6138  0.9174  1.2054
    7MOL0     H  902   3.591   4.986   8.478  1.2033 -1.0854  0.0224
    7MOL0     H  903   3.587   4.820   8.536  2.4564 -0.7331  1.3851
    7MOL0     H  904   3.409   4.842   8.681  1.4915 -1.4543 -1.6945
    7MOL0     H  905   3.361   4.932   8.539  0.8916  1.7510 -1.1692
    7MOL0     H  906   4.427   5.034   8.907  2.0032 -2.7642 -1.6632
    7MOL0     H  907   4.646   5.008   8.963  3.3790  2.3911  2.6495
    7MOL0     H  908   5.078   4.936   9.128 -1.1598  1.2575 -1.5865
    7MOL0     H  909   5.335   4.941   9.158 -1.3262 -1.0565  1.1116
    7MOL0     H  910   6.924   5.519   8.303 -0.3994 -1.6671  1.2579
    7MOL0     H  911   7.011   5.650   8.119 -0.4084 -0.5467 -1.4652
    7MOL0     H  912   7.521   5.742   7.990  0.3240 -1.0814 -1.1461
    7MOL0     H  913   7.668   5.870   7.843 -0.6290  0.4917  0.8271
    7MOL0     H  914   7.522   6.263   7.620 -0.0621 -0.7533  0.3509
    7MOL0     H  915   7.486   6.097   7.553 -3.7697  1.8635  2.3265
    7MOL0     H  916   7.714   6.078   7.477 -0.7719 -0.0849 -1.1328
    7MOL0     H  917   7.637   6.222   7.406  2.0048  2.6651  0.5006
    7MOL0     H  918   7.824   6.209   7.649  0.3198 -1.2713 -1.2200
    7MOL0     H  919   7.744   6.367   7.588  3.4801  2.2825 -2.6653
    7MOL0     H  920   7.917   6.178   7.413 -0.5755  0.1520 -0.4223
    7MOL0     H  921   7.840   6.319   7.351  0.0075  2.8348  1.5083
    7MOL0     H  922   8.127   6.518   7.583 -0.1116  0.8907  0.2324
    7MOL0     H  923   7.340   6.119   7.724  1.6663  0.1084 -1.4728
    7MOL0     H  924   7.190   5.975   7.850 -0.2145 -1.0854  0.0515
    8MOL0     O  925   6.351   9.783   0.643  0.7938 -0.9764  0.1146
    8MOL0     C  926   6.353   9.731   0.754  0.3377  0.3790 -0.3798
    8MOL0     O  927   6.240   9.715   0.828 -0.9461  0.1784  0.2494
    8MOL0     C  928   6.117   9.732   0.774  0.5236 -0.0964 -0.1005
    8MOL0     C  929   6.073   9.834   0.696 -0.6047 -0.4221 -0.3285
    8MOL0     C  930   5.949   9.853   0.659  0.9070  0.8085  0.3816
    8MOL0     C  931   5.847   9.766   0.698 -0.0713  0.3275  0.1659
    8MOL0     O  932   5.721   9.791   0.648  0.0770  0.2921 -0.3480
    8MOL0     C  933   5.632   9.685   0.650 -0.1995 -0.2220  0.2275
    8MOL0     C  934   5.512   9.734   0.572  0.2895  0.0286 -0.0449
    8MOL0     C  935   5.449   9.866   0.616 -0.0291 -0.5030 -0.2684
    8MOL0     C  936   5.435   9.881   0.773 -0.7169  0.2273  0.2181
    8MOL0     C  937   5.356  10.001   0.811 -0.4347 -0.8900 -0.1706
    8MOL0     C  938   5.405  10.138   0.763  0.8806 -0.0485  0.5204
    8MOL0     C  939   5.548  10.179   0.794 -0.9959  0.2333  0.0643
    8MOL0     C  940   5.600  10.140   0.932 -0.2282  0.2418  0.2106
    8MOL0     N  941   5.737  10.177   0.933  0.1629 -0.0598  0.1829
    8MOL0     C  942   5.847  10.097   0.897 -0.0556 -0.8851  0.1493
    8MOL0     C  943   5.962  10.176   0.910  0.6038  0.2040  0.0128
    8MOL0     C  944   6.104  10.146   0.910 -0.7986 -0.1656 -0.0078
    8MOL0     C  945   6.146  10.026   1.006  0.6171  0.8501  0.2309
    8MOL0     C  946   6.126  10.035   1.157 -0.2323 -0.4429  0.9171
    8MOL0     C  947   5.979  10.044   1.202 -0.2759 -0.3479 -0.8361
    8MOL0     O  948   5.910   9.924   1.137  0.3435 -0.1935 -0.5632
    8MOL0     C  949   5.776   9.919   1.154  0.0783 -0.5516  0.3738
    8MOL0     C  950   5.702  10.012   1.220  0.4826  0.1769  0.7776
    8MOL0     C  951   5.563  10.005   1.230  0.3681  0.2065 -0.1984
    8MOL0     C  952   5.497   9.898   1.177  0.1461 -0.5775 -0.8835
    8MOL0     C  953   5.356   9.886   1.181  0.7863  0.6156 -0.0231
    8MOL0     O  954   5.297   9.990   1.249 -0.0902 -0.0933 -0.0185
    8MOL0     C  955   5.169   9.979   1.302 -1.0439  0.2847 -0.1644
    8MOL0     C  956   5.056  10.024   1.243  0.1987 -0.5526  0.6598
    8MOL0     C  957   4.928  10.022   1.311 -0.2173 -0.4697  0.1541
    8MOL0     C  958   4.924   9.958   1.434  0.3026  0.2102 -0.2165
    8MOL0     O  959   4.804   9.945   1.498  0.0444  0.5696  0.4893
    8MOL0     C  960   4.810  10.025   1.619  0.2261  0.3340 -0.5186
    8MOL0     C  961   4.675  10.058   1.668  0.5117 -0.2259  0.5246
    8MOL0     C  962   4.677  10.150   1.791  0.0851 -0.5574 -0.0848
    8MOL0     C  963   4.533  10.205   1.820  0.2048 -0.0089  0.2465
    8MOL0     C  964   4.429  10.089   1.820  0.1042  0.1241  0.4811
    8MOL0     C  965   4.307  10.149   1.892  0.1001  0.7101  0.1818
    8MOL0     C  966   4.172  10.074   1.876 -0.4514 -0.0300 -0.2872
    8MOL0     C  967   4.116  10.025   2.008 -0.7298  0.5321 -0.0371
    8MOL0    Cl  968   3.944   9.996   2.015 -0.2822 -0.5286 -0.0104
    8MOL0     C  969   5.045   9.903   1.486 -0.1040  0.2912  0.0675
    8MOL0     C  970   5.160   9.912   1.426 -0.4896 -0.1446 -0.2084
    8MOL0     O  971   5.306   9.772   1.154 -0.1526 -0.0955 -0.0619
    8MOL0     C  972   5.571   9.803   1.110 -0.2391 -0.7375  0.4176
    8MOL0     C  973   5.708   9.818   1.087 -0.0440  0.4525 -0.5405
    8MOL0     N  974   5.920  10.301   0.937 -0.5703 -0.5812  0.3982
    8MOL0     N  975   5.791  10.300   0.962  0.0736 -0.3812  0.1360
    8MOL0     C  976   5.875   9.663   0.793 -0.2602 -0.5787  0.0305
    8MOL0     C  977   6.013   9.650   0.822 -0.2431  0.1315  0.6419
    8MOL0     C  978   6.474   9.705   0.823  0.0949  0.7074  0.2850
    8MOL0     C  979   6.599   9.744   0.780 -0.4271  0.5101  0.7253
    8MOL0     C  980   6.715   9.731   0.855  0.1589 -0.9079 -0.1741
    8MOL0     C  981   6.715   9.653   0.971 -0.2294  0.4994 -0.2115
    8MOL0     O  982   6.833   9.625   1.033  0.3533 -0.1127 -0.0681
    8MOL0     C  983   6.842   9.543   1.155  0.3812 -0.0126  0.8684
    8MOL0     C  984   6.962   9.564   1.239 -0.0711  0.1531 -0.2226
    8MOL0     C  985   7.098   9.529   1.192 -0.3130 -0.1882 -0.0982
    8MOL0     C  986   7.128   9.380   1.195 -0.9093  0.0839 -0.2108
    8MOL0     C  987   7.271   9.346   1.209 -0.9373 -0.6126  0.1895
    8MOL0     C  988   7.390   9.327   1.200  0.3165  0.2478  0.2690
    8MOL0     C  989   6.588   9.589   1.004  0.3423 -0.9692  0.2707
    8MOL0     C  990   6.474   9.616   0.936 -0.5622  0.5276  0.1393
    8MOL0     H  991   6.143   9.900   0.646 -1.8915  0.1247 -1.4681
    8MOL0     H  992   5.931   9.932   0.587 -0.1656  0.7582  0.5756
    8MOL0     H  993   5.608   9.665   0.755 -2.9752 -0.9843 -0.4669
    8MOL0     H  994   5.674   9.601   0.594 -2.1063 -0.3027 -1.1810
    8MOL0     H  995   5.433   9.658   0.574 -0.9144  1.2069 -0.9473
    8MOL0     H  996   5.543   9.752   0.468 -1.4377  2.6047 -0.1998
    8MOL0     H  997   5.355   9.877   0.562 -0.0414  0.8365  0.0059
    8MOL0     H  998   5.515   9.947   0.584  0.5029 -0.5285  0.7246
    8MOL0     H  999   5.378   9.793   0.804 -3.1263  0.9419 -1.7840
    8MOL0     H 1000   5.529   9.877   0.828 -1.8177 -0.5582  2.1512
    8MOL0     H 1001   5.351   9.994   0.920 -1.5346  1.5854  0.0162
    8MOL0     H 1002   5.253   9.985   0.777 -1.0276 -0.3660  1.3237
    8MOL0     H 1003   5.353  10.214   0.822 -1.0086  1.2305 -2.5474
    8MOL0     H 1004   5.400  10.159   0.655  3.2790  3.7547  0.9751
    8MOL0     H 1005   5.614  10.119   0.731 -1.6830 -1.5017  0.9392
    8MOL0     H 1006   5.560  10.285   0.769 -0.9768  0.6072  1.5558
    8MOL0     H 1007   5.596  10.032   0.952 -1.6144  0.3032  0.3322
    8MOL0     H 1008   5.551  10.193   1.014 -0.1815  1.8991 -0.7828
    8MOL0     H 1009   5.845   9.992   0.873  0.6408 -0.5218 -1.6853
    8MOL0     H 1010   6.168  10.233   0.923  1.2103 -1.4060 -1.1018
    8MOL0     H 1011   6.122  10.105   0.810  1.5192 -0.6043  0.5257
    8MOL0     H 1012   6.253  10.027   0.986  0.2282  1.5820 -2.1317
    8MOL0     H 1013   6.119   9.928   0.965 -0.4446  1.4796 -0.6709
    8MOL0     H 1014   6.168   9.941   1.195  0.2261 -0.2731  0.8470
    8MOL0     H 1015   6.188  10.119   1.190 -0.6805  0.1510  0.2591
    8MOL0     H 1016   5.935  10.140   1.175 -0.0183  0.1111  0.3492
    8MOL0     H 1017   5.971  10.034   1.310 -1.4361 -1.2425 -0.9811
    8MOL0     H 1018   5.746  10.103   1.258  1.0481  2.2896 -4.2174
    8MOL0     H 1019   5.509  10.084   1.282  1.3306  0.4031  0.5499
    8MOL0     H 1020   5.067  10.060   1.141 -0.7845  4.6552  2.1001
    8MOL0     H 1021   4.839  10.068   1.268  1.5270  2.2042 -0.8267
    8MOL0     H 1022   4.867  10.116   1.602 -1.9672  1.7722 -0.5240
    8MOL0     H 1023   4.857   9.968   1.700  0.6943 -0.0688 -1.0620
    8MOL0     H 1024   4.631   9.961   1.692 -2.1819  1.2625  2.0473
    8MOL0     H 1025   4.618  10.110   1.590 -1.1251 -1.8729  0.5382
    8MOL0     H 1026   4.740  10.240   1.783  0.5503 -0.6988  1.5959
    8MOL0     H 1027   4.715  10.090   1.875 -0.7082  0.4155  1.0076
    8MOL0     H 1028   4.543  10.240   1.923  2.3214  0.6905 -0.1512
    8MOL0     H 1029   4.507  10.283   1.749  1.1353  0.3504  0.2876
    8MOL0     H 1030   4.471  10.001   1.870  1.0172 -0.8206 -1.8080
    8MOL0     H 1031   4.403  10.061   1.718 -0.3139 -0.0180  0.6228
    8MOL0     H 1032   4.305  10.238   1.828  0.0177 -0.2553 -1.1996
    8MOL0     H 1033   4.324  10.179   1.996 -0.8777 -1.5010  1.0442
    8MOL0     H 1034   4.100  10.146   1.835  1.6793  1.4043 -1.7324
    8MOL0     H 1035   4.186   9.990   1.807 -2.8477 -1.9002  1.3720
    8MOL0     H 1036   4.135  10.106   2.079 -1.8103 -0.1504  1.0670
    8MOL0     H 1037   4.176   9.939   2.038 -0.2940  1.1778  0.9926
    8MOL0     H 1038   5.025   9.846   1.576  0.4780  1.6068  1.0645
    8MOL0     H 1039   5.258   9.878   1.460 -0.4883 -2.3456 -2.1031
    8MOL0     H 1040   5.512   9.724   1.066  0.5224 -0.4910 -1.1196
    8MOL0     H 1041   5.767   9.742   1.038  1.0901  1.2076 -0.3826
    8MOL0     H 1042   5.801   9.605   0.847 -0.6240  1.2500  1.6081
    8MOL0     H 1043   6.039   9.569   0.890  1.4452  0.6909  0.7125
    8MOL0     H 1044   6.608   9.800   0.687  2.6247  1.8662  1.7371
    8MOL0     H 1045   6.811   9.773   0.827  0.2772 -0.6852  0.5548
    8MOL0     H 1046   6.837   9.438   1.123 -0.1341  0.1345  0.4368
    8MOL0     H 1047   6.752   9.566   1.213 -0.3715  0.5263 -0.4422
    8MOL0     H 1048   6.960   9.671   1.262  0.5071  0.3215 -0.9203
    8MOL0     H 1049   6.951   9.512   1.335 -0.8315 -1.3423 -1.0768
    8MOL0     H 1050   7.162   9.587   1.260 -0.9780 -0.8766  1.1581
    8MOL0     H 1051   7.130   9.568   1.095  1.5265 -0.5310  0.3153
    8MOL0     H 1052   7.071   9.339   1.279  0.9385 -0.7544  0.7104
    8MOL0     H 1053   7.099   9.324   1.105 -0.5742 -2.8174  1.3502
    8MOL0     H 1054   7.493   9.307   1.179  0.0898 -0.7957  0.0778
    8MOL0     H 1055   6.588   9.514   1.083  4.3582 -1.4039  0.0735
    8MOL0     H 1056   6.385   9.557   0.956 -0.4874  0.4426  0.2250
    9MOL0     O 1057   0.100   7.829   8.620 -0.8025 -0.0958  0.6582
    9MOL0     C 1058   0.148   7.895   8.529  0.4291  0.6007  0.3648
    9MOL0     O 1059   0.068   7.963   8.437  1.0750 -0.0248 -0.0317
    9MOL0     C 1060  -0.065   7.986   8.463 -0.1316  0.0238 -0.2587
    9MOL0     C 1061  -0.121   8.086   8.543 -0.2032  0.6218 -0.0136
    9MOL0     C 1062  -0.259   8.081   8.560  0.4315  0.0314  0.2994
    9MOL0     C 1063  -0.346   7.987   8.494 -0.8419 -0.6144 -0.2201
    9MOL0     O 1064  -0.483   7.992   8.514  0.8501  0.3624 -0.4907
    9MOL0     C 1065  -0.540   8.112   8.569 -0.7545  0.3774 -0.4470
    9MOL0     C 1066  -0.698   8.099   8.564  0.7573 -0.9929 -0.5699
    9MOL0     C 1067  -0.751   7.974   8.628 -0.8398  0.2526 -0.4960
    9MOL0     C 1068  -0.755   7.965   8.774  0.0714 -0.9065 -0.9810
    9MOL0     C 1069  -0.768   7.838   8.857 -0.5781  0.6236  0.3316
    9MOL0     C 1070  -0.891   7.761   8.820  0.0197  0.2931 -0.2755
    9MOL0     C 1071  -0.879   7.612   8.862  0.5298  0.0978 -0.3976
    9MOL0     C 1072  -1.013   7.526   8.848  0.0432 -0.2984 -0.5138
    9MOL0     N 1073  -1.116   7.559   8.949  0.5707 -0.3812 -0.1852
    9MOL0     C 1074  -1.232   7.634   8.926 -0.0807 -0.5391 -0.8927
    9MOL0     C 1075  -1.292   7.648   9.044  0.2945 -0.1208 -0.1205
    9MOL0     C 1076  -1.411   7.730   9.082  0.0660 -0.6977  0.7565
    9MOL0     C 1077  -1.535   7.661   9.035  0.1791  0.2630  0.3686
    9MOL0     C 1078  -1.583   7.539   9.112 -1.0407 -1.0447  0.2523
    9MOL0     C 1079  -1.728   7.518   9.112  0.3144  0.2538 -0.8929
    9MOL0     O 1080  -1.749   7.385   9.173  0.7145 -0.5580  0.2043
    9MOL0     C 1081  -1.877   7.337   9.179 -0.2136  0.8593  0.4272
    9MOL0     C 1082  -1.891   7.207   9.223  0.1631  1.1856  0.2837
    9MOL0     C 1083  -2.019   7.149   9.234 -0.0793 -0.3320 -0.3387
    9MOL0     C 1084  -2.137   7.221   9.180  0.1915  1.0276 -0.7157
    9MOL0     C 1085  -2.264   7.153   9.179  0.1361  0.1959 -0.4971
    9MOL0     O 1086  -2.382   7.228   9.154 -0.1539 -0.3080  0.3744
    9MOL0     C 1087  -2.500   7.152   9.154 -0.6965  1.0715 -0.0636
    9MOL0     C 1088  -2.527   7.035   9.072  0.8808  0.6251 -0.6922
    9MOL0     C 1089  -2.658   6.979   9.074  0.2080  0.1626  0.0520
    9MOL0     C 1090  -2.759   7.026   9.163 -0.1471 -0.3706 -0.6343
    9MOL0     O 1091  -2.876   6.954   9.180  0.0009 -0.2865 -0.1242
    9MOL0     C 1092  -3.004   7.026   9.177 -0.0669 -0.1501  0.1800
    9MOL0     C 1093  -3.116   6.926   9.206 -0.1720  0.5037  0.5587
    9MOL0     C 1094  -3.251   6.994   9.196  0.3916 -0.6310  0.5305
    9MOL0     C 1095  -3.371   6.899   9.217 -0.0411 -1.0602 -0.0990
    9MOL0     C 1096  -3.389   6.806   9.099  0.1819  0.1294 -0.6379
    9MOL0     C 1097  -3.458   6.676   9.143 -0.2025 -0.1535  0.1623
    9MOL0     C 1098  -3.599   6.699   9.184 -0.5588 -0.3090 -0.0300
    9MOL0     C 1099  -3.673   6.570   9.197 -0.0570  0.4612  0.0213
    9MOL0    Cl 1100  -3.840   6.595   9.270  0.3975  0.1151 -0.3084
    9MOL0     C 1101  -2.728   7.136   9.240  0.1249 -0.2327  0.1321
    9MOL0     C 1102  -2.597   7.192   9.243  0.2753  0.4619 -0.4263
    9MOL0     O 1103  -2.255   7.030   9.183 -0.0439  0.5274  0.7207
    9MOL0     C 1104  -2.114   7.349   9.137 -0.2344  0.0742  0.7546
    9MOL0     C 1105  -1.992   7.412   9.144  0.4476 -0.7965 -0.1025
    9MOL0     N 1106  -1.215   7.586   9.141 -0.2135 -0.4609  0.0867
    9MOL0     N 1107  -1.106   7.532   9.088  0.0208 -1.0379 -0.4061
    9MOL0     C 1108  -0.285   7.902   8.410 -0.1697 -0.0426  0.0601
    9MOL0     C 1109  -0.147   7.909   8.383 -0.1986  0.6943 -0.3096
    9MOL0     C 1110   0.296   7.904   8.528  0.5206 -0.6151  0.0770
    9MOL0     C 1111   0.380   7.840   8.618  0.1746  0.5616  0.0562
    9MOL0     C 1112   0.524   7.848   8.605  0.2441  0.6275 -0.4788
    9MOL0     C 1113   0.573   7.917   8.505 -0.8816  0.1411  0.5482
    9MOL0     O 1114   0.708   7.945   8.485  0.6961  0.1847  0.2650
    9MOL0     C 1115   0.805   7.856   8.555 -0.3190 -0.0352  0.0148
    9MOL0     C 1116   0.926   7.949   8.531 -0.5001 -0.2511 -0.1801
    9MOL0     C 1117   1.052   7.887   8.591  0.6859  0.0248  0.6717
    9MOL0     C 1118   1.100   7.767   8.513 -0.3442  0.1477  0.2069
    9MOL0     C 1119   1.151   7.805   8.381  0.1301  0.0848 -0.2543
    9MOL0     C 1120   1.142   7.844   8.267  0.0191 -0.0864 -0.9255
    9MOL0     C 1121   0.493   7.992   8.421 -0.4018 -0.4213 -0.5810
    9MOL0     C 1122   0.355   7.985   8.426  0.9683  0.1971 -0.2541
    9MOL0     H 1123  -0.037   8.132   8.594  1.8686 -1.5684 -1.2519
    9MOL0     H 1124  -0.300   8.149   8.634  0.7391 -1.4189  1.8391
    9MOL0     H 1125  -0.504   8.194   8.507  0.3289 -1.8192 -2.8930
    9MOL0     H 1126  -0.499   8.121   8.670 -0.9756 -4.7122  0.3434
    9MOL0     H 1127  -0.728   8.095   8.459  0.9450 -1.3972 -0.6110
    9MOL0     H 1128  -0.741   8.187   8.613  2.0083 -1.5565  1.7042
    9MOL0     H 1129  -0.701   7.883   8.594 -1.3321  0.2515 -1.2440
    9MOL0     H 1130  -0.856   7.961   8.599 -1.5366  1.5396  1.2309
    9MOL0     H 1131  -0.661   8.011   8.806 -1.5245  1.3867  0.6420
    9MOL0     H 1132  -0.830   8.037   8.806  1.0532 -0.2704 -0.0203
    9MOL0     H 1133  -0.758   7.852   8.965  2.1821 -1.3483  0.4359
    9MOL0     H 1134  -0.679   7.780   8.833  1.2484  3.2820  0.2739
    9MOL0     H 1135  -0.893   7.765   8.710 -1.3899  0.7877 -0.2518
    9MOL0     H 1136  -0.980   7.812   8.857  1.5295  2.5662  0.4131
    9MOL0     H 1137  -0.808   7.557   8.800 -0.7648  0.6155 -2.4549
    9MOL0     H 1138  -0.844   7.610   8.966 -0.0191 -0.9705 -0.2205
    9MOL0     H 1139  -0.979   7.423   8.856  0.2625 -0.1224  1.3250
    9MOL0     H 1140  -1.061   7.550   8.753 -0.5709  2.1414  0.3215
    9MOL0     H 1141  -1.266   7.676   8.832 -0.2399  0.9949 -0.1745
    9MOL0     H 1142  -1.404   7.825   9.029 -0.1390 -0.0071  1.9202
    9MOL0     H 1143  -1.419   7.751   9.189 -0.4958 -1.6131  0.9048
    9MOL0     H 1144  -1.527   7.651   8.927 -0.2408  1.9082  0.1460
    9MOL0     H 1145  -1.613   7.737   9.045  1.6883  1.8726  0.4367
    9MOL0     H 1146  -1.534   7.458   9.058  1.9536  0.4316  0.4991
    9MOL0     H 1147  -1.554   7.537   9.218 -4.0948  0.0372  1.2082
    9MOL0     H 1148  -1.774   7.526   9.014 -1.6758 -0.8706 -0.1153
    9MOL0     H 1149  -1.780   7.598   9.166 -3.5016 -1.1139 -2.1572
    9MOL0     H 1150  -1.804   7.146   9.245  1.3471  1.4853 -2.9838
    9MOL0     H 1151  -2.015   7.049   9.276  2.0104 -0.4568 -0.7256
    9MOL0     H 1152  -2.461   6.998   8.994 -0.5448 -2.2118 -0.6662
    9MOL0     H 1153  -2.681   6.890   9.016  1.8969  0.1511 -0.6707
    9MOL0     H 1154  -3.010   7.072   9.078  3.3067  0.1444 -0.0080
    9MOL0     H 1155  -3.017   7.096   9.260 -1.7222 -0.0769 -0.1111
    9MOL0     H 1156  -3.103   6.871   9.300 -1.8520 -0.6384  0.1862
    9MOL0     H 1157  -3.102   6.849   9.129 -0.3446  0.6117  0.4175
    9MOL0     H 1158  -3.249   7.030   9.093  1.1556 -1.8438  0.0986
    9MOL0     H 1159  -3.262   7.086   9.254  1.5128  0.8727 -1.5191
    9MOL0     H 1160  -3.356   6.833   9.303  0.1033 -0.5039  0.3039
    9MOL0     H 1161  -3.463   6.957   9.225 -2.0253 -3.5947 -2.3283
    9MOL0     H 1162  -3.292   6.774   9.059  0.7622  0.1179  0.7162
    9MOL0     H 1163  -3.448   6.852   9.020 -0.8859 -2.7914 -1.6850
    9MOL0     H 1164  -3.408   6.629   9.228 -2.6194  0.7517  2.2243
    9MOL0     H 1165  -3.456   6.609   9.057  2.0732 -1.3536  1.0653
    9MOL0     H 1166  -3.593   6.746   9.283  0.9170 -0.7936  0.1279
    9MOL0     H 1167  -3.655   6.771   9.122 -0.3518  2.7102  2.9584
    9MOL0     H 1168  -3.606   6.501   9.250  0.6347  1.8847  1.0523
    9MOL0     H 1169  -3.684   6.523   9.099  0.3232 -3.1129  1.5399
    9MOL0     H 1170  -2.800   7.169   9.314 -1.3437 -1.5504 -0.6540
    9MOL0     H 1171  -2.574   7.284   9.297 -1.7873 -0.5256  2.4143
    9MOL0     H 1172  -2.188   7.409   9.084  1.5275  0.8155 -0.9874
    9MOL0     H 1173  -1.988   7.515   9.108 -1.1073 -0.2839  1.0943
    9MOL0     H 1174  -0.358   7.844   8.354  0.6422 -1.0302 -0.0179
    9MOL0     H 1175  -0.103   7.843   8.309 -0.4121 -0.5601  0.6561
    9MOL0     H 1176   0.349   7.781   8.703 -1.0451  0.9689 -0.0917
    9MOL0     H 1177   0.586   7.790   8.673  1.0397  1.6823 -0.2924
    9MOL0     H 1178   0.812   7.757   8.509 -1.1294 -0.5936  1.0507
    9MOL0     H 1179   0.790   7.853   8.663 -3.1036  1.3701 -0.2603
    9MOL0     H 1180   0.939   7.980   8.427  1.2203  2.2013  0.6739
    9MOL0     H 1181   0.907   8.044   8.580  2.7397  1.5737 -2.1376
    9MOL0     H 1182   1.032   7.857   8.694 -0.0883  0.0337  0.5317
    9MOL0     H 1183   1.128   7.966   8.596 -3.8100  5.2081 -2.2439
    9MOL0     H 1184   1.183   7.717   8.564 -0.4501  0.8446  1.0656
    9MOL0     H 1185   1.019   7.694   8.502  0.6780 -0.9600 -0.2718
    9MOL0     H 1186   1.113   7.891   8.176 -1.0330  2.8693  0.8221
    9MOL0     H 1187   0.544   8.052   8.346  1.3835 -0.1548  0.7930
    9MOL0     H 1188   0.304   8.040   8.347 -1.1771 -0.8966  0.2851
   10MOL0     O 1189   9.013   2.577   6.745  0.5036  0.0799 -0.5392
   10MOL0     C 1190   9.050   2.501   6.833  0.0430  0.1193 -0.0612
   10MOL0     O 1191   8.978   2.430   6.928 -0.3854 -0.1800  0.1267
   10MOL0     C 1192   8.841   2.417   6.913  0.1254 -0.0391  0.2674
   10MOL0     C 1193   8.780   2.391   6.789 -0.3297 -0.0378 -0.5370
   10MOL0     C 1194   8.638   2.378   6.786 -0.6758 -0.9428  0.9682
   10MOL0     C 1195   8.560   2.380   6.899 -0.6279 -0.5942  0.0313
   10MOL0     O 1196   8.422   2.376   6.883  0.2968 -0.3586  0.1635
   10MOL0     C 1197   8.346   2.441   6.982 -0.0099 -0.4423  0.8742
   10MOL0     C 1198   8.195   2.458   6.935 -0.7397  0.7053  0.5849
   10MOL0     C 1199   8.191   2.545   6.813  0.8773 -1.3351  0.0615
   10MOL0     C 1200   8.047   2.563   6.754  0.0849  0.1803  0.9612
   10MOL0     C 1201   7.977   2.428   6.716  0.4183  0.6723 -1.0118
   10MOL0     C 1202   7.861   2.449   6.613 -0.0076  0.2340 -0.2373
   10MOL0     C 1203   7.789   2.579   6.622  0.4758 -0.9519 -0.0313
   10MOL0     C 1204   7.649   2.575   6.563  0.4256 -0.5339 -0.1665
   10MOL0     N 1205   7.558   2.483   6.636  0.8187  0.4662  0.5702
   10MOL0     C 1206   7.526   2.355   6.602 -0.2010 -0.6613  0.2778
   10MOL0     C 1207   7.427   2.316   6.683 -0.1392  0.6416  0.5881
   10MOL0     C 1208   7.371   2.170   6.681  0.6255 -0.0453 -0.5490
   10MOL0     C 1209   7.225   2.167   6.713  0.2549  0.1605  0.0912
   10MOL0     C 1210   7.138   2.209   6.595  0.1709 -0.2991 -0.2872
   10MOL0     C 1211   6.994   2.245   6.648  0.1241 -0.1735  0.2569
   10MOL0     O 1212   6.927   2.315   6.546  0.6947 -0.3498 -0.1800
   10MOL0     C 1213   6.791   2.339   6.567  0.3334  0.7786 -0.2449
   10MOL0     C 1214   6.718   2.332   6.448 -0.7001 -0.9299  0.5026
   10MOL0     C 1215   6.574   2.358   6.441  0.1455  0.0227 -0.5913
   10MOL0     C 1216   6.511   2.398   6.567 -0.3575  0.6863 -0.1311
   10MOL0     C 1217   6.378   2.428   6.569 -0.2574 -0.0911 -1.0394
   10MOL0     O 1218   6.317   2.455   6.454  0.8466 -0.3807  0.2948
   10MOL0     C 1219   6.184   2.490   6.441  0.8947 -0.0364 -0.1053
   10MOL0     C 1220   6.137   2.503   6.312  0.6189  0.3884 -0.0563
   10MOL0     C 1221   6.002   2.542   6.275 -0.3591 -0.2811  0.4439
   10MOL0     C 1222   5.909   2.563   6.380 -0.7791 -0.6298 -0.5178
   10MOL0     O 1223   5.778   2.569   6.348  0.0144  0.4993  0.4677
   10MOL0     C 1224   5.688   2.640   6.427 -0.0054 -0.2994  0.8462
   10MOL0     C 1225   5.563   2.671   6.335  0.0918  0.0835  0.4787
   10MOL0     C 1226   5.448   2.736   6.422  0.5192  0.8389 -0.9100
   10MOL0     C 1227   5.322   2.779   6.349  0.9658 -0.0518 -0.3916
   10MOL0     C 1228   5.220   2.854   6.445 -0.6788  0.1764 -0.5103
   10MOL0     C 1229   5.104   2.915   6.366  0.0267  0.4499  0.3928
   10MOL0     C 1230   5.139   3.014   6.255 -0.2683  0.4422  0.2334
   10MOL0     C 1231   5.017   3.099   6.213 -0.2892 -0.2525  0.3437
   10MOL0    Cl 1232   4.896   2.980   6.145 -0.3990 -0.1638  0.0656
   10MOL0     C 1233   5.949   2.561   6.514 -0.7568  0.4011  0.0141
   10MOL0     C 1234   6.089   2.520   6.539 -0.3263  0.2967 -0.0433
   10MOL0     O 1235   6.333   2.445   6.684 -0.1696  0.1735  0.0738
   10MOL0     C 1236   6.587   2.391   6.692 -0.3708 -0.6466 -0.2364
   10MOL0     C 1237   6.727   2.363   6.686  0.4880  0.4287 -0.7920
   10MOL0     N 1238   7.414   2.414   6.773 -0.5834  0.0754  0.5260
   10MOL0     N 1239   7.481   2.521   6.741  0.5776 -0.5696 -0.5613
   10MOL0     C 1240   8.628   2.413   7.016 -0.1216  0.0973 -0.1588
   10MOL0     C 1241   8.765   2.438   7.024  0.9492 -0.0381 -0.0335
   10MOL0     C 1242   9.197   2.484   6.838  0.4083  0.5947  0.1410
   10MOL0     C 1243   9.255   2.404   6.951 -0.9167 -0.5731 -0.1153
   10MOL0     C 1244   9.398   2.395   6.959  0.4977  0.0770  0.7560
   10MOL0     C 1245   9.479   2.480   6.884 -0.8908  0.4184  0.3262
   10MOL0     O 1246   9.614   2.503   6.899 -0.0849  0.0984  0.6664
   10MOL0     C 1247   9.681   2.436   7.004 -0.5366  0.8218  0.2109
   10MOL0     C 1248   9.835   2.421   6.980  0.0887  0.2919  0.0750
   10MOL0     C 1249   9.896   2.563   6.952 -0.0604 -0.3044  0.0695
   10MOL0     C 1250  10.010   2.578   6.848 -0.6250  0.3007 -1.5337
   10MOL0     C 1251  10.137   2.512   6.882  0.2929 -0.6103 -0.6892
   10MOL0     C 1252  10.241   2.467   6.919  0.4734 -0.2873  0.5120
   10MOL0     C 1253   9.424   2.542   6.773  0.0020  0.1141  0.2496
   10MOL0     C 1254   9.285   2.545   6.744  0.4905  0.8875 -0.2868
   10MOL0     H 1255   8.831   2.382   6.694  0.7873  2.3693 -0.2566
   10MOL0     H 1256   8.586   2.366   6.692 -1.1791 -0.8871  1.2403
   10MOL0     H 1257   8.392   2.540   6.992  0.8915 -0.4123 -2.4269
   10MOL0     H 1258   8.352   2.382   7.074 -2.5237 -0.2227  1.2235
   10MOL0     H 1259   8.138   2.506   7.016  0.5787  2.8340  0.3250
   10MOL0     H 1260   8.153   2.358   6.922 -0.9984  1.1075 -2.2323
   10MOL0     H 1261   8.252   2.495   6.737 -1.1634 -1.7273 -1.3998
   10MOL0     H 1262   8.240   2.637   6.845 -0.9844 -0.7827  1.4863
   10MOL0     H 1263   7.977   2.613   6.821  0.7713  4.0762 -0.9401
   10MOL0     H 1264   8.061   2.623   6.663 -2.2928  0.4634  0.7145
   10MOL0     H 1265   7.929   2.385   6.804  0.4163  1.1401 -0.7825
   10MOL0     H 1266   8.054   2.358   6.683 -1.0878 -1.6561  0.1246
   10MOL0     H 1267   7.794   2.369   6.644  0.9205  0.2835  2.0990
   10MOL0     H 1268   7.890   2.432   6.509  0.8916  1.3142 -0.1827
   10MOL0     H 1269   7.780   2.608   6.727  1.9043  1.2517 -0.4574
   10MOL0     H 1270   7.837   2.663   6.572 -1.8392  0.5649  0.1385
   10MOL0     H 1271   7.658   2.534   6.462  0.5473 -1.0182  0.0366
   10MOL0     H 1272   7.603   2.674   6.566  1.0995 -0.2201 -0.0048
   10MOL0     H 1273   7.571   2.286   6.531 -1.1327 -0.3461 -0.6439
   10MOL0     H 1274   7.422   2.105   6.753 -1.9604  0.2863  1.7521
   10MOL0     H 1275   7.392   2.127   6.583 -0.7430 -4.9641  1.0007
   10MOL0     H 1276   7.205   2.231   6.799  0.3290 -0.0499  0.2646
   10MOL0     H 1277   7.184   2.067   6.732  0.0264  0.5279  1.6945
   10MOL0     H 1278   7.174   2.303   6.551  3.4312 -0.0278  2.5477
   10MOL0     H 1279   7.132   2.138   6.512  1.2580  0.4826 -1.0699
   10MOL0     H 1280   6.998   2.291   6.747  0.1823  2.8204 -1.0256
   10MOL0     H 1281   6.946   2.148   6.658  1.8842 -0.9483  2.0378
   10MOL0     H 1282   6.773   2.327   6.354  0.0350 -0.8974  0.9197
   10MOL0     H 1283   6.524   2.337   6.347  0.4986 -0.2031 -0.7299
   10MOL0     H 1284   6.203   2.476   6.230  1.2453  1.3254  0.1220
   10MOL0     H 1285   5.972   2.542   6.170  1.3884 -1.5103 -0.1010
   10MOL0     H 1286   5.729   2.729   6.476 -2.3275 -0.1513  2.7764
   10MOL0     H 1287   5.661   2.576   6.512 -2.4472  1.4827  1.5426
   10MOL0     H 1288   5.535   2.578   6.285  1.5610 -0.7510  1.1378
   10MOL0     H 1289   5.592   2.746   6.261  0.0186 -0.2690  0.0851
   10MOL0     H 1290   5.495   2.821   6.472 -0.3811  1.4148 -1.0218
   10MOL0     H 1291   5.418   2.663   6.498  0.9041 -0.1463 -1.6639
   10MOL0     H 1292   5.350   2.857   6.277 -2.8226  2.7981  0.9413
   10MOL0     H 1293   5.267   2.703   6.292 -1.2763  0.6649  0.7227
   10MOL0     H 1294   5.271   2.927   6.508  0.3891 -1.5330  0.7007
   10MOL0     H 1295   5.184   2.780   6.517  0.7232 -0.5655 -0.5395
   10MOL0     H 1296   5.039   2.959   6.442 -1.3187 -2.8046  1.3135
   10MOL0     H 1297   5.046   2.832   6.323  0.3614 -0.5315  1.7395
   10MOL0     H 1298   5.221   3.076   6.293 -0.3449  1.5898 -1.3864
   10MOL0     H 1299   5.178   2.955   6.172  0.9824 -1.7044  2.2239
   10MOL0     H 1300   5.035   3.176   6.137  0.8848 -1.5762 -0.7688
   10MOL0     H 1301   4.971   3.145   6.301 -2.2372 -2.2301  0.4457
   10MOL0     H 1302   5.881   2.571   6.598 -2.1749  1.6829 -1.2075
   10MOL0     H 1303   6.119   2.516   6.643  0.2013  1.3418 -0.1515
   10MOL0     H 1304   6.548   2.418   6.790 -2.2069  2.9028 -1.7557
   10MOL0     H 1305   6.776   2.358   6.783 -3.5219 -1.8373  1.3586
   10MOL0     H 1306   8.580   2.428   7.112 -0.1018  1.8415 -0.4005
   10MOL0     H 1307   8.799   2.481   7.117  0.6874  0.0827  0.0079
   10MOL0     H 1308   9.182   2.344   7.006 -2.7843  2.8880  1.5097
   10MOL0     H 1309   9.435   2.335   7.041  0.8682 -0.1876  0.4015
   10MOL0     H 1310   9.644   2.335   7.020 -2.4174  1.6235  1.3111
   10MOL0     H 1311   9.663   2.483   7.101 -0.5391 -1.7969  1.5665
   10MOL0     H 1312   9.874   2.378   7.073  3.2254 -0.5872 -1.5139
   10MOL0     H 1313   9.871   2.345   6.910 -0.1860 -0.4529  0.7182
   10MOL0     H 1314   9.918   2.602   7.052  0.6804 -1.0182  0.1997
   10MOL0     H 1315   9.819   2.632   6.915  1.1223  1.5788  0.9609
   10MOL0     H 1316   9.973   2.536   6.754  1.8903 -1.3097 -1.8952
   10MOL0     H 1317  10.028   2.683   6.825  0.6309  0.4821  0.1071
   10MOL0     H 1318  10.338   2.427   6.937 -1.2470 -4.0682  2.4341
   10MOL0     H 1319   9.488   2.577   6.693  0.7286 -1.4533  0.1116
   10MOL0     H 1320   9.236   2.599   6.663 -0.2702 -1.8024 -1.7493
   11MOL0     O 1321   9.328  10.515   2.320  0.1232 -0.1055 -0.1319
   11MOL0     C 1322   9.327  10.418   2.245  0.0246  1.2376  0.7968
   11MOL0     O 1323   9.425  10.378   2.163 -0.5681 -0.7925  0.6190
   11MOL0     C 1324   9.527  10.467   2.130  0.2287 -0.2806 -0.1731
   11MOL0     C 1325   9.522  10.609   2.118 -0.2041  0.3737 -0.2284
   11MOL0     C 1326   9.644  10.684   2.116 -0.3820 -0.3373 -1.0580
   11MOL0     C 1327   9.774  10.625   2.106  0.2332 -0.0563  0.5960
   11MOL0     O 1328   9.876  10.707   2.107 -0.7358 -0.0896 -1.3158
   11MOL0     C 1329   9.985  10.670   2.033 -1.0331  0.0632  0.7730
   11MOL0     C 1330  10.114  10.765   2.053 -0.2561  0.3520 -0.3706
   11MOL0     C 1331  10.224  10.728   1.951  0.4275 -0.4886  0.2724
   11MOL0     C 1332  10.283  10.589   1.967  0.5461  0.0702  0.4508
   11MOL0     C 1333  10.408  10.578   1.885 -0.0548 -0.7225 -0.3282
   11MOL0     C 1334  10.393  10.565   1.729 -0.1287 -0.3887 -0.6217
   11MOL0     C 1335  10.530  10.583   1.651  0.1449 -0.7798 -0.2053
   11MOL0     C 1336  10.507  10.633   1.508  0.1875 -0.3268 -0.8547
   11MOL0     N 1337  10.634  10.668   1.446 -0.3249 -0.1613 -0.2582
   11MOL0     C 1338  10.741  10.732   1.502 -0.6538  0.7586  0.5293
   11MOL0     C 1339  10.823  10.726   1.397 -0.5405 -1.0518 -0.6036
   11MOL0     C 1340  10.966  10.787   1.398 -0.2585 -0.3618 -0.3777
   11MOL0     C 1341  11.059  10.665   1.365 -0.3717 -0.4651 -1.1794
   11MOL0     C 1342  11.191  10.670   1.450  0.0342  0.3442  0.9017
   11MOL0     C 1343  11.162  10.675   1.601  0.0288  0.7998 -0.7809
   11MOL0     O 1344  11.056  10.585   1.643 -0.4593 -0.1905  0.2198
   11MOL0     C 1345  10.993  10.589   1.770 -0.5301 -0.0403  0.0370
   11MOL0     C 1346  10.891  10.507   1.787 -0.3811 -0.1854 -0.2002
   11MOL0     C 1347  10.829  10.492   1.916  0.2862 -0.2009  0.3329
   11MOL0     C 1348  10.863  10.582   2.017 -1.2311  0.0616  0.3397
   11MOL0     C 1349  10.802  10.574   2.147 -0.2458  0.6988 -0.1002
   11MOL0     O 1350  10.757  10.456   2.203 -0.1734  0.0200 -0.5575
   11MOL0     C 1351  10.700  10.454   2.329  0.9964 -0.8881  0.1139
   11MOL0     C 1352  10.576  10.394   2.346  0.3113  0.3265  0.5870
   11MOL0     C 1353  10.520  10.381   2.474  0.2310  0.5612 -0.7707
   11MOL0     C 1354  10.589  10.434   2.592  0.4787 -0.7692 -0.1584
   11MOL0     O 1355  10.534  10.425   2.718 -1.0126 -0.5743  0.1249
   11MOL0     C 1356  10.614  10.472   2.831 -0.3286  0.0003  0.3032
   11MOL0     C 1357  10.557  10.426   2.958  0.0544  0.0464 -0.1113
   11MOL0     C 1358  10.548  10.276   2.958 -0.7710  0.2625 -0.6812
   11MOL0     C 1359  10.489  10.220   3.084 -0.9473 -0.2984  0.2767
   11MOL0     C 1360  10.351  10.254   3.124  0.1795  1.1241 -0.2503
   11MOL0     C 1361  10.246  10.172   3.044 -1.1509  0.8656  0.6177
   11MOL0     C 1362  10.106  10.203   3.087  0.3579  0.7361 -0.7702
   11MOL0     C 1363  10.002  10.134   3.017 -0.0199  0.6956 -0.3828
   11MOL0    Cl 1364   9.839  10.193   3.056 -0.0744 -0.2709 -0.2328
   11MOL0     C 1365  10.704  10.492   2.567  0.1366 -0.2836  0.4950
   11MOL0     C 1366  10.767  10.502   2.447  0.3029  0.1546  0.8667
   11MOL0     O 1367  10.782  10.686   2.187  0.3719  0.1899 -0.6446
   11MOL0     C 1368  10.966  10.672   1.986  0.4367  0.3899  0.2880
   11MOL0     C 1369  11.037  10.676   1.866  1.2295 -0.0820 -1.4227
   11MOL0     N 1370  10.774  10.674   1.282 -0.8029 -0.3729 -0.9193
   11MOL0     N 1371  10.652  10.646   1.312 -0.0208  0.1431  0.0630
   11MOL0     C 1372   9.770  10.485   2.099 -0.6426 -0.1735 -0.5914
   11MOL0     C 1373   9.649  10.410   2.113 -0.3497  0.4889  0.6947
   11MOL0     C 1374   9.200  10.331   2.252  0.4244 -1.1822  0.7329
   11MOL0     C 1375   9.076  10.379   2.303  0.1841  1.1016 -0.2684
   11MOL0     C 1376   8.957  10.301   2.302 -1.0102  0.0024 -0.5575
   11MOL0     C 1377   8.961  10.179   2.235 -0.2618 -0.6268 -0.0279
   11MOL0     O 1378   8.852  10.096   2.233 -0.4791 -0.5893  0.1661
   11MOL0     C 1379   8.719  10.143   2.244 -0.4230  0.3887  0.0994
   11MOL0     C 1380   8.625  10.030   2.203  0.3628 -0.4310 -0.5269
   11MOL0     C 1381   8.664   9.984   2.063 -0.1480  0.5376 -0.1198
   11MOL0     C 1382   8.551   9.880   2.011 -0.2125 -0.8099 -1.0334
   11MOL0     C 1383   8.442   9.957   1.958  0.4966 -0.2913  0.0195
   11MOL0     C 1384   8.350  10.018   1.910  0.5196 -0.7222  0.3090
   11MOL0     C 1385   9.085  10.145   2.170 -0.7589  0.4808  0.3019
   11MOL0     C 1386   9.203  10.218   2.171 -0.0590  0.4015  1.2115
   11MOL0     H 1387   9.435  10.671   2.140  0.2086  0.4400  1.3711
   11MOL0     H 1388   9.641  10.792   2.124  0.5039 -0.2149 -2.1213
   11MOL0     H 1389   9.958  10.673   1.928 -2.5417  2.0556  1.1757
   11MOL0     H 1390  10.019  10.567   2.050 -0.3473  0.3339  1.0743
   11MOL0     H 1391  10.153  10.748   2.153  1.6559 -1.3377 -1.3338
   11MOL0     H 1392  10.083  10.869   2.036 -0.0905  0.3544 -0.6666
   11MOL0     H 1393  10.301  10.803   1.967 -1.2422  0.9206  2.3607
   11MOL0     H 1394  10.189  10.734   1.847  0.7851 -0.2469  0.1647
   11MOL0     H 1395  10.315  10.577   2.071  1.5977  0.6117  0.2019
   11MOL0     H 1396  10.216  10.510   1.931 -1.0647  0.9450  1.4103
   11MOL0     H 1397  10.454  10.484   1.918 -3.1670 -2.0314  0.7196
   11MOL0     H 1398  10.473  10.661   1.914 -0.2584 -0.6569 -0.0466
   11MOL0     H 1399  10.331  10.651   1.706  2.9829  2.4532  0.7694
   11MOL0     H 1400  10.337  10.478   1.691 -1.2148  0.8296 -1.9104
   11MOL0     H 1401  10.589  10.655   1.708 -2.2996 -1.3830  3.3587
   11MOL0     H 1402  10.587  10.489   1.647 -1.2098 -1.7533  1.9113
   11MOL0     H 1403  10.456  10.730   1.515  3.7602  1.6146  3.1853
   11MOL0     H 1404  10.452  10.557   1.453 -1.5202  0.7129 -0.6701
   11MOL0     H 1405  10.759  10.772   1.602  2.0041  3.4972 -0.8773
   11MOL0     H 1406  10.986  10.836   1.494 -0.9448  0.0280 -0.4270
   11MOL0     H 1407  10.987  10.852   1.312 -2.6243  0.1328 -0.6329
   11MOL0     H 1408  11.086  10.654   1.260  1.5875 -0.4489 -0.7027
   11MOL0     H 1409  11.004  10.574   1.394 -1.1944  0.2653 -0.3639
   11MOL0     H 1410  11.256  10.587   1.421 -1.8226 -1.1867  0.9504
   11MOL0     H 1411  11.239  10.764   1.420  1.7857 -1.4597 -2.5618
   11MOL0     H 1412  11.135  10.775   1.634  1.3024  0.9004  0.0093
   11MOL0     H 1413  11.261  10.650   1.641  0.3580 -0.1065 -2.0695
   11MOL0     H 1414  10.860  10.440   1.707  0.6163 -0.5571 -0.2923
   11MOL0     H 1415  10.759  10.412   1.936 -0.4006  0.6760  1.5832
   11MOL0     H 1416  10.514  10.351   2.268 -1.0866  0.2734  1.6930
   11MOL0     H 1417  10.426  10.329   2.490  0.3287  0.7198  0.4152
   11MOL0     H 1418  10.603  10.581   2.831  2.2171  0.3299  0.6012
   11MOL0     H 1419  10.717  10.437   2.823  0.3374  1.6877  0.9112
   11MOL0     H 1420  10.455  10.457   2.981 -0.4727 -2.6962  1.7096
   11MOL0     H 1421  10.616  10.454   3.046  1.0030 -1.2022 -0.3094
   11MOL0     H 1422  10.649  10.239   2.940 -1.2240 -2.0534  0.9733
   11MOL0     H 1423  10.496  10.239   2.869  1.1225 -0.6103 -1.4818
   11MOL0     H 1424  10.492  10.111   3.074  0.2975 -0.2436 -0.1307
   11MOL0     H 1425  10.553  10.252   3.166 -1.7856 -0.5827  1.0527
   11MOL0     H 1426  10.325  10.360   3.115 -0.6261  0.9298 -0.2984
   11MOL0     H 1427  10.331  10.218   3.225 -2.9898 -2.8395 -1.9801
   11MOL0     H 1428  10.272  10.068   3.066  0.3683  1.1363  0.2369
   11MOL0     H 1429  10.264  10.188   2.938  1.9219  2.2087  1.2250
   11MOL0     H 1430  10.100  10.178   3.194  2.0862  4.4258  0.3761
   11MOL0     H 1431  10.091  10.311   3.083 -0.9926  0.5600 -0.9814
   11MOL0     H 1432  10.010  10.030   3.049  1.4623  0.7316 -0.5515
   11MOL0     H 1433  10.015  10.142   2.908  2.8210  0.1879 -0.1576
   11MOL0     H 1434  10.760  10.542   2.645  1.7885 -0.2373 -0.6838
   11MOL0     H 1435  10.867  10.543   2.442  0.7619 -0.7639  2.1189
   11MOL0     H 1436  10.990  10.747   2.061 -2.2909 -0.1671  1.8454
   11MOL0     H 1437  11.124  10.736   1.842 -0.7719  2.9733 -1.5577
   11MOL0     H 1438   9.862  10.433   2.075 -0.5602  0.4143 -1.6029
   11MOL0     H 1439   9.655  10.303   2.094  0.3965  0.6854 -0.2474
   11MOL0     H 1440   9.068  10.472   2.358 -2.0547  1.3254 -0.8745
   11MOL0     H 1441   8.873  10.341   2.357 -0.6939  0.7280 -0.5961
   11MOL0     H 1442   8.708  10.228   2.176 -3.0343 -0.8763 -1.1921
   11MOL0     H 1443   8.697  10.170   2.348 -2.7265 -2.1912  0.3948
   11MOL0     H 1444   8.624   9.944   2.269 -1.2927 -0.6533 -0.7824
   11MOL0     H 1445   8.526  10.078   2.200  0.5862  0.0541 -0.2076
   11MOL0     H 1446   8.762   9.936   2.064 -0.0230  0.8015  0.5133
   11MOL0     H 1447   8.672  10.070   1.996  0.7301 -0.6533 -1.6378
   11MOL0     H 1448   8.591   9.826   1.925  0.6769  0.1376 -1.2406
   11MOL0     H 1449   8.524   9.815   2.095  0.6354  0.0688 -0.0457
   11MOL0     H 1450   8.267  10.076   1.873  0.4474  0.7365  2.5637
   11MOL0     H 1451   9.079  10.052   2.114 -1.8578 -0.2288  1.5458
   11MOL0     H 1452   9.286  10.168   2.121  0.2085  0.2573  1.7865
   12MOL0     O 1453   5.071   5.396   8.699 -0.2565 -0.3426 -0.3009
   12MOL0     C 1454   5.145   5.468   8.643 -0.1715  0.0516  0.0308
   12MOL0     O 1455   5.185   5.466   8.516 -0.5459 -0.1538  0.2403
   12MOL0     C 1456   5.142   5.381   8.414 -0.8908 -0.3036  0.1648
   12MOL0     C 1457   5.221   5.378   8.294 -1.1901 -0.5041 -1.2031
   12MOL0     C 1458   5.178   5.295   8.189  0.1755  0.8400 -0.1859
   12MOL0     C 1459   5.064   5.212   8.197 -0.1382  0.5484 -0.3201
   12MOL0     O 1460   5.048   5.131   8.086 -0.2317 -0.5783 -0.9201
   12MOL0     C 1461   4.923   5.068   8.061  0.4614  0.7892  0.3642
   12MOL0     C 1462   4.932   4.969   7.948 -0.0911  0.9713  0.3520
   12MOL0     C 1463   4.798   4.934   7.880 -0.8476 -0.3346 -0.1439
   12MOL0     C 1464   4.811   4.845   7.749 -0.1755 -0.0373 -0.2288
   12MOL0     C 1465   4.674   4.793   7.706  0.9046  0.2108 -0.9290
   12MOL0     C 1466   4.620   4.676   7.798 -0.7852 -0.0682  0.2648
   12MOL0     C 1467   4.688   4.544   7.754 -0.8118  0.6733  0.2197
   12MOL0     C 1468   4.628   4.504   7.620 -0.4298 -0.5517  0.4687
   12MOL0     N 1469   4.650   4.363   7.583 -0.2077 -0.4696 -0.0766
   12MOL0     C 1470   4.565   4.253   7.605 -0.4472  0.2906 -0.4839
   12MOL0     C 1471   4.633   4.152   7.546  0.5349 -1.2455  0.3609
   12MOL0     C 1472   4.593   4.006   7.546  0.3088 -0.0379  0.4701
   12MOL0     C 1473   4.632   3.941   7.406 -0.2333  1.0257  0.0055
   12MOL0     C 1474   4.596   3.795   7.393 -0.0760  0.3475 -0.3515
   12MOL0     C 1475   4.451   3.765   7.428  0.4683 -0.4483 -0.1871
   12MOL0     O 1476   4.346   3.848   7.366 -0.5674 -0.3370  0.6028
   12MOL0     C 1477   4.225   3.782   7.373  0.4115 -0.7278  0.6384
   12MOL0     C 1478   4.214   3.657   7.301  0.0991 -0.3096 -0.6093
   12MOL0     C 1479   4.089   3.585   7.296  0.2465  0.9528  0.0601
   12MOL0     C 1480   3.975   3.637   7.358  0.2352  0.0677  0.6267
   12MOL0     C 1481   3.854   3.560   7.337  0.3310 -0.1978  0.1683
   12MOL0     O 1482   3.839   3.485   7.224 -0.3636 -0.0374  0.5575
   12MOL0     C 1483   3.717   3.443   7.189  0.7221  0.1250  0.4142
   12MOL0     C 1484   3.682   3.303   7.183  0.1452 -0.5085  0.5065
   12MOL0     C 1485   3.554   3.257   7.158  0.7893  0.3185 -0.1241
   12MOL0     C 1486   3.450   3.346   7.141 -0.4604 -0.4804 -0.6293
   12MOL0     O 1487   3.323   3.304   7.124 -0.1732 -0.5124  0.7269
   12MOL0     C 1488   3.312   3.190   7.044 -1.0625 -0.2010 -0.0739
   12MOL0     C 1489   3.183   3.195   6.960 -0.6011 -0.5596 -0.0640
   12MOL0     C 1490   3.057   3.162   7.059 -1.1173 -0.8310 -0.1489
   12MOL0     C 1491   2.923   3.174   6.988 -1.0959 -0.1463 -0.1837
   12MOL0     C 1492   2.811   3.157   7.091 -0.2418 -0.2316  0.0240
   12MOL0     C 1493   2.666   3.173   7.025 -0.2652 -0.0378  0.2826
   12MOL0     C 1494   2.561   3.161   7.134  0.2486 -0.0488 -0.3382
   12MOL0     C 1495   2.425   3.179   7.075  0.2542 -0.3195  0.4310
   12MOL0    Cl 1496   2.298   3.120   7.184 -0.1454 -0.3130  0.3572
   12MOL0     C 1497   3.473   3.485   7.151 -0.7367 -0.0459  0.5699
   12MOL0     C 1498   3.604   3.532   7.171 -0.0490  0.6633  0.5621
   12MOL0     O 1499   3.765   3.574   7.412 -0.5299 -0.2714  0.4175
   12MOL0     C 1500   3.985   3.768   7.414  0.1267  1.0090  0.4698
   12MOL0     C 1501   4.108   3.830   7.436 -0.2817  0.6656 -0.1167
   12MOL0     N 1502   4.760   4.196   7.512  0.1647 -0.7520  0.2200
   12MOL0     N 1503   4.773   4.324   7.544  0.3151 -1.0463  0.2782
   12MOL0     C 1504   4.986   5.229   8.305  0.1791  0.0044 -0.0573
   12MOL0     C 1505   5.024   5.307   8.410 -0.1453  0.9195 -0.4849
   12MOL0     C 1506   5.220   5.564   8.733 -0.6034 -0.4457 -0.1506
   12MOL0     C 1507   5.312   5.655   8.679  0.5656 -0.6674 -0.3139
   12MOL0     C 1508   5.392   5.732   8.765 -0.2821  0.5420 -0.0974
   12MOL0     C 1509   5.383   5.713   8.906  0.0905 -0.3846  0.3062
   12MOL0     O 1510   5.476   5.777   8.984  0.2332 -0.1305 -0.2772
   12MOL0     C 1511   5.584   5.700   9.024  0.2576 -0.1125  0.4721
   12MOL0     C 1512   5.698   5.784   9.069 -0.2835 -0.1464 -0.4005
   12MOL0     C 1513   5.761   5.875   8.961 -0.1357  0.4959 -0.7794
   12MOL0     C 1514   5.894   5.927   9.010  0.7820  0.7495 -0.1441
   12MOL0     C 1515   5.956   6.016   8.914  0.0860  0.3486 -0.3134
   12MOL0     C 1516   6.003   6.088   8.837 -0.4108  0.3007  0.0675
   12MOL0     C 1517   5.284   5.632   8.964 -0.3203 -0.2146 -0.0758
   12MOL0     C 1518   5.207   5.551   8.877  0.0390 -1.0754  0.1198
   12MOL0     H 1519   5.312   5.437   8.291 -2.2958  1.2802 -1.1487
   12MOL0     H 1520   5.246   5.282   8.105 -1.2745 -0.0015 -1.2703
   12MOL0     H 1521   4.850   5.145   8.036 -0.1473 -0.0091 -0.3759
   12MOL0     H 1522   4.892   5.005   8.146  1.8688 -1.8365 -0.9492
   12MOL0     H 1523   4.986   4.881   7.984 -1.1113 -0.5850 -1.6750
   12MOL0     H 1524   4.992   5.012   7.867  0.2739 -0.0273  0.0699
   12MOL0     H 1525   4.755   5.032   7.855 -0.2371 -0.3505 -1.2724
   12MOL0     H 1526   4.725   4.898   7.954 -0.3940  2.2511  1.7189
   12MOL0     H 1527   4.852   4.910   7.672  0.8090 -0.6036 -0.1899
   12MOL0     H 1528   4.884   4.764   7.758  0.4049  0.5172  0.0879
   12MOL0     H 1529   4.675   4.768   7.599 -1.6970  0.9069 -1.1830
   12MOL0     H 1530   4.603   4.875   7.714 -0.9580 -1.5143  2.2528
   12MOL0     H 1531   4.513   4.672   7.777 -0.4868  3.7947 -3.4178
   12MOL0     H 1532   4.629   4.693   7.905  0.3390 -0.5701  0.2614
   12MOL0     H 1533   4.797   4.542   7.756 -0.7470  2.3958 -0.1070
   12MOL0     H 1534   4.659   4.467   7.826 -1.3497  0.5567 -0.1148
   12MOL0     H 1535   4.663   4.571   7.541 -4.2005 -0.7963 -1.6517
   12MOL0     H 1536   4.521   4.522   7.628  0.1545  3.1941  1.7456
   12MOL0     H 1537   4.468   4.260   7.652  0.4209  0.0032  1.4701
   12MOL0     H 1538   4.485   3.996   7.564  0.5046 -1.9678  0.8061
   12MOL0     H 1539   4.633   3.941   7.624  0.1101 -0.3580  0.3106
   12MOL0     H 1540   4.740   3.925   7.398 -0.4952 -0.4528 -1.0387
   12MOL0     H 1541   4.599   4.003   7.322  2.0074  1.2554 -0.7952
   12MOL0     H 1542   4.620   3.759   7.292 -0.4935  0.4844 -0.5006
   12MOL0     H 1543   4.655   3.742   7.468  2.9456  1.7399 -1.5394
   12MOL0     H 1544   4.436   3.785   7.534 -1.2582  5.7295 -1.1665
   12MOL0     H 1545   4.435   3.657   7.418 -0.5902 -0.2351 -0.9689
   12MOL0     H 1546   4.300   3.621   7.246  1.1148 -0.3010  0.9099
   12MOL0     H 1547   4.078   3.495   7.236  2.2571 -0.1990  1.3136
   12MOL0     H 1548   3.755   3.225   7.203  1.5000  0.0044 -1.9735
   12MOL0     H 1549   3.542   3.150   7.149  2.1311  0.2890 -2.1511
   12MOL0     H 1550   3.314   3.104   7.113 -0.0395  0.7250  1.1058
   12MOL0     H 1551   3.392   3.173   6.971 -1.5257 -0.2161 -0.5833
   12MOL0     H 1552   3.193   3.129   6.874  0.4998 -0.0276 -0.3761
   12MOL0     H 1553   3.181   3.301   6.930 -0.6068  0.0778  2.0173
   12MOL0     H 1554   3.055   3.232   7.142  0.8506 -0.8907  0.0055
   12MOL0     H 1555   3.056   3.059   7.095 -0.3575 -0.7899  0.0152
   12MOL0     H 1556   2.906   3.266   6.931 -0.1201  1.2009  1.5976
   12MOL0     H 1557   2.921   3.090   6.918  2.4065  0.9770 -1.8867
   12MOL0     H 1558   2.809   3.237   7.165  1.2858 -0.6376  0.5461
   12MOL0     H 1559   2.814   3.063   7.146 -0.8392 -0.0345  0.4051
   12MOL0     H 1560   2.655   3.093   6.950  0.9782  4.0146 -4.8185
   12MOL0     H 1561   2.654   3.271   6.977  1.7162  0.1454  0.0830
   12MOL0     H 1562   2.579   3.067   7.186 -0.6381 -1.3304 -2.2422
   12MOL0     H 1563   2.573   3.242   7.206 -1.2116 -0.9005  0.9202
   12MOL0     H 1564   2.419   3.113   6.988 -1.4409 -1.4018  1.3083
   12MOL0     H 1565   2.413   3.285   7.050 -0.3445 -0.3952  0.3891
   12MOL0     H 1566   3.389   3.552   7.140  0.2155  0.9887 -0.7530
   12MOL0     H 1567   3.619   3.639   7.165 -0.9268  0.8062  0.8380
   12MOL0     H 1568   3.897   3.816   7.457  0.3423  1.0652  0.8551
   12MOL0     H 1569   4.111   3.921   7.495 -1.0244  1.5028 -1.3425
   12MOL0     H 1570   4.901   5.163   8.319 -0.8273  1.1992 -0.3253
   12MOL0     H 1571   4.959   5.303   8.497  0.7677 -1.9312  0.1984
   12MOL0     H 1572   5.331   5.664   8.573 -2.9435 -3.1078 -1.3240
   12MOL0     H 1573   5.476   5.792   8.730  0.4472 -0.2775  0.2176
   12MOL0     H 1574   5.619   5.638   8.941  2.6009 -0.8188  1.8929
   12MOL0     H 1575   5.547   5.633   9.102 -0.3391 -1.1180 -0.6324
   12MOL0     H 1576   5.658   5.851   9.146  0.0197 -0.5668  0.1265
   12MOL0     H 1577   5.777   5.730   9.123 -0.8298 -1.3326 -0.7540
   12MOL0     H 1578   5.694   5.957   8.934 -1.3453 -0.3939 -0.5825
   12MOL0     H 1579   5.775   5.821   8.867  2.7256  2.3204 -1.5015
   12MOL0     H 1580   5.874   5.989   9.098  2.5634  2.8996 -1.1452
   12MOL0     H 1581   5.959   5.843   9.036 -0.6067 -0.5952 -0.8774
   12MOL0     H 1582   6.030   6.160   8.762  1.5756  0.1456  0.5724
   12MOL0     H 1583   5.264   5.628   9.071  4.5582  2.8717  1.2815
   12MOL0     H 1584   5.149   5.473   8.925 -0.2183 -1.6114 -1.0097
   13MOL0     O 1585   2.527   0.210   7.932  0.3554  0.5968  0.2484
   13MOL0     C 1586   2.590   0.103   7.940  0.3979  0.7072 -0.7263
   13MOL0     O 1587   2.545  -0.021   7.944  0.7568  0.0165  0.0765
   13MOL0     C 1588   2.414  -0.039   7.899  0.6568  0.2631 -0.3296
   13MOL0     C 1589   2.381  -0.016   7.769 -0.0819 -0.2608  0.4187
   13MOL0     C 1590   2.253  -0.038   7.722 -0.2224 -0.2086  0.0978
   13MOL0     C 1591   2.151  -0.089   7.811  0.1019  0.1486 -0.6765
   13MOL0     O 1592   2.023  -0.119   7.784 -0.3044 -0.3088 -0.5041
   13MOL0     C 1593   1.962  -0.053   7.666 -0.6788  0.0317  0.1300
   13MOL0     C 1594   1.818  -0.076   7.648  1.4614  0.2593  0.4114
   13MOL0     C 1595   1.727   0.009   7.739 -0.0794  0.5440  0.3710
   13MOL0     C 1596   1.704   0.143   7.676  0.2562 -0.4805  0.6206
   13MOL0     C 1597   1.605   0.223   7.767  0.5375  0.8227 -0.0276
   13MOL0     C 1598   1.537   0.324   7.680  0.7910  0.7461  1.3566
   13MOL0     C 1599   1.450   0.404   7.776  0.6243  0.5840 -0.0591
   13MOL0     C 1600   1.406   0.547   7.723 -0.5263 -0.4292  0.3752
   13MOL0     N 1601   1.306   0.542   7.613 -0.7197  0.2538  0.3595
   13MOL0     C 1602   1.329   0.502   7.486  0.4106 -0.4745  0.0485
   13MOL0     C 1603   1.216   0.503   7.415  0.6165 -0.3809 -0.1085
   13MOL0     C 1604   1.210   0.487   7.279  0.9457 -0.3203  0.9678
   13MOL0     C 1605   1.088   0.405   7.228  1.0286  0.4630  0.5704
   13MOL0     C 1606   1.105   0.359   7.088 -0.1248 -0.8435  0.1118
   13MOL0     C 1607   0.977   0.292   7.039  0.2254  0.6381  0.1605
   13MOL0     O 1608   0.956   0.152   7.081 -0.2101 -0.1185  0.3580
   13MOL0     C 1609   1.059   0.065   7.067  0.2930 -0.6437  0.1905
   13MOL0     C 1610   1.092  -0.028   7.166  0.2305 -0.0860 -0.6305
   13MOL0     C 1611   1.203  -0.117   7.151  0.1811 -0.4752  0.3854
   13MOL0     C 1612   1.280  -0.115   7.036  0.0014  0.7337 -0.2378
   13MOL0     C 1613   1.376  -0.218   7.013  0.6344  0.6862 -0.5853
   13MOL0     O 1614   1.364  -0.330   7.085 -0.6446 -0.1316 -0.0090
   13MOL0     C 1615   1.451  -0.439   7.060  0.2833  0.1132 -0.9092
   13MOL0     C 1616   1.587  -0.419   7.060 -0.2284 -0.1201 -0.1428
   13MOL0     C 1617   1.676  -0.530   7.061 -0.0803 -0.2936  0.3832
   13MOL0     C 1618   1.623  -0.661   7.046  0.3822 -0.1321  0.2433
   13MOL0     O 1619   1.720  -0.754   7.013 -0.5143  0.5398 -0.2564
   13MOL0     C 1620   1.675  -0.889   6.993 -0.2834  0.3596 -0.3049
   13MOL0     C 1621   1.789  -0.982   6.981 -0.4053  0.3187  0.6303
   13MOL0     C 1622   1.877  -0.935   6.850  0.0571  1.0520 -0.9305
   13MOL0     C 1623   1.978  -1.047   6.813  0.3766  0.2239 -1.0678
   13MOL0     C 1624   2.071  -1.003   6.698  0.3868 -0.2141 -0.4479
   13MOL0     C 1625   2.191  -1.096   6.677 -0.1676  0.2909 -0.0868
   13MOL0     C 1626   2.303  -1.044   6.585  0.7241  0.0989 -0.0468
   13MOL0     C 1627   2.422  -1.140   6.570  0.1915  0.0111 -0.5704
   13MOL0    Cl 1628   2.559  -1.067   6.466 -0.0311 -0.4417  0.2259
   13MOL0     C 1629   1.488  -0.671   7.031  0.1619  0.1463 -0.7702
   13MOL0     C 1630   1.401  -0.564   7.063 -0.5838  0.0600  0.3367
   13MOL0     O 1631   1.462  -0.196   6.928  0.3198 -0.3136  0.3260
   13MOL0     C 1632   1.240  -0.032   6.935 -0.7679 -0.4038 -0.2900
   13MOL0     C 1633   1.124   0.052   6.946 -0.4733  0.1287  0.7678
   13MOL0     N 1634   1.113   0.539   7.503 -0.7353  0.6803  0.6211
   13MOL0     N 1635   1.171   0.565   7.613  0.5920  0.3597  0.3952
   13MOL0     C 1636   2.189  -0.117   7.941 -0.8876  0.8064 -0.0983
   13MOL0     C 1637   2.316  -0.085   7.986  0.1911  0.4301  0.5252
   13MOL0     C 1638   2.743   0.111   7.941  0.4599 -0.1307 -0.5395
   13MOL0     C 1639   2.808   0.243   7.953 -0.0138  0.2544 -0.2478
   13MOL0     C 1640   2.942   0.247   7.977  0.1262  0.6439 -0.1580
   13MOL0     C 1641   3.022   0.134   7.999  0.8429  0.0376  0.1855
   13MOL0     O 1642   3.156   0.151   8.025 -0.7249  0.0633  0.3276
   13MOL0     C 1643   3.233   0.031   8.060 -0.6514 -0.2788 -0.0061
   13MOL0     C 1644   3.388   0.062   8.077 -0.4150  0.3467  0.7326
   13MOL0     C 1645   3.462   0.105   7.941  0.3256  0.4557 -0.2282
   13MOL0     C 1646   3.612   0.131   7.972 -0.0889 -0.7273 -0.7634
   13MOL0     C 1647   3.704   0.137   7.849  0.4343  0.3348 -0.5332
   13MOL0     C 1648   3.786   0.138   7.768 -0.4904  0.0465  0.9870
   13MOL0     C 1649   2.961   0.005   7.971  0.4071 -0.2182  0.3654
   13MOL0     C 1650   2.820  -0.000   7.939 -0.4150 -0.2639 -0.8501
   13MOL0     H 1651   2.471   0.010   7.714 -0.6002 -1.0345 -0.8160
   13MOL0     H 1652   2.225  -0.021   7.618  0.7481  0.1844 -0.1033
   13MOL0     H 1653   1.994  -0.103   7.574 -1.7728  1.4880 -1.0894
   13MOL0     H 1654   1.993   0.051   7.656  3.1126 -0.8205  0.9443
   13MOL0     H 1655   1.793  -0.182   7.661 -4.0360  1.3811  1.1179
   13MOL0     H 1656   1.796  -0.050   7.544 -1.9622 -0.1901  0.9181
   13MOL0     H 1657   1.781   0.017   7.834 -1.0037  1.6185  0.8275
   13MOL0     H 1658   1.626  -0.032   7.750  0.2662 -0.2327  0.7164
   13MOL0     H 1659   1.795   0.201   7.659 -0.5411  1.0481  1.3479
   13MOL0     H 1660   1.659   0.129   7.577  0.1300 -0.4223  0.6693
   13MOL0     H 1661   1.656   0.274   7.849 -0.3889  1.0522  0.4177
   13MOL0     H 1662   1.526   0.163   7.813  0.9579  1.1281  1.1340
   13MOL0     H 1663   1.481   0.279   7.597  2.4338  1.4962 -0.2338
   13MOL0     H 1664   1.611   0.388   7.633  0.7552 -0.6360 -0.7189
   13MOL0     H 1665   1.355   0.352   7.793  1.9180 -1.9742 -0.2307
   13MOL0     H 1666   1.496   0.405   7.876  1.3650 -0.8214 -0.3636
   13MOL0     H 1667   1.487   0.611   7.686 -0.4842  0.2449  1.5783
   13MOL0     H 1668   1.363   0.603   7.807 -0.3231 -1.7485  1.3932
   13MOL0     H 1669   1.426   0.472   7.448 -0.3142 -0.2550 -2.1015
   13MOL0     H 1670   1.307   0.447   7.246  0.0105 -0.8659 -1.3364
   13MOL0     H 1671   1.209   0.583   7.227 -0.1574 -0.1567  1.2624
   13MOL0     H 1672   0.987   0.444   7.241  0.0893 -0.6466 -2.4072
   13MOL0     H 1673   1.090   0.314   7.288  1.0269  0.2286  0.2210
   13MOL0     H 1674   1.128   0.451   7.033  0.8008 -0.6156  0.8465
   13MOL0     H 1675   1.190   0.289   7.088 -1.1641 -2.1480 -0.9968
   13MOL0     H 1676   0.978   0.280   6.931  3.4550 -1.0259  0.2690
   13MOL0     H 1677   0.882   0.347   7.044 -1.6158 -2.3229  0.5066
   13MOL0     H 1678   1.043  -0.034   7.263 -0.8119  0.8235 -1.0706
   13MOL0     H 1679   1.216  -0.182   7.236 -3.8943 -3.3284 -0.8593
   13MOL0     H 1680   1.632  -0.320   7.061  0.2283 -0.3272  0.2623
   13MOL0     H 1681   1.784  -0.524   7.063 -0.1446  2.0219 -0.2946
   13MOL0     H 1682   1.610  -0.882   6.905 -1.0287  2.1445  0.3405
   13MOL0     H 1683   1.616  -0.912   7.082 -1.4896  1.3185 -0.8324
   13MOL0     H 1684   1.756  -1.086   6.976 -0.1107  0.1790  1.4111
   13MOL0     H 1685   1.858  -0.978   7.066  0.6750  1.3272 -0.2507
   13MOL0     H 1686   1.917  -0.834   6.862 -0.2276  0.9913  0.7600
   13MOL0     H 1687   1.813  -0.928   6.762 -0.7642 -0.6645 -0.5246
   13MOL0     H 1688   2.034  -1.073   6.903 -0.1997 -3.0708 -1.5410
   13MOL0     H 1689   1.934  -1.146   6.801  1.6830 -0.9894  2.6314
   13MOL0     H 1690   2.103  -0.900   6.716 -0.2934  0.1386 -1.2045
   13MOL0     H 1691   2.009  -0.984   6.610  1.5297  0.5864 -1.1067
   13MOL0     H 1692   2.155  -1.196   6.651 -0.3692 -0.5505  3.0366
   13MOL0     H 1693   2.239  -1.119   6.773  1.5472  1.4646 -0.6214
   13MOL0     H 1694   2.266  -1.011   6.488 -0.9723 -1.9708 -0.2021
   13MOL0     H 1695   2.344  -0.957   6.637 -1.5292  1.3105 -0.1958
   13MOL0     H 1696   2.396  -1.240   6.533  3.3779 -0.7651 -0.9844
   13MOL0     H 1697   2.462  -1.148   6.671 -1.1034 -0.3031 -0.0601
   13MOL0     H 1698   1.444  -0.769   7.014 -2.5215  1.4118 -1.7952
   13MOL0     H 1699   1.299  -0.599   7.076  0.0374 -1.3246  1.8132
   13MOL0     H 1700   1.290  -0.025   6.839 -0.1942  2.7873  0.1277
   13MOL0     H 1701   1.080   0.108   6.865  2.6280  1.6558 -0.0228
   13MOL0     H 1702   2.102  -0.140   8.003  1.0166  2.3350  3.4788
   13MOL0     H 1703   2.340  -0.092   8.091 -2.6160  0.8357  1.2514
   13MOL0     H 1704   2.746   0.332   7.951 -1.6802 -0.8510 -2.4053
   13MOL0     H 1705   2.983   0.346   7.995 -2.4800  1.7987 -0.1240
   13MOL0     H 1706   3.223  -0.031   7.970 -3.6428 -0.6533  0.4752
   13MOL0     H 1707   3.195  -0.025   8.146 -0.5880  0.2854  0.3912
   13MOL0     H 1708   3.406   0.135   8.156 -0.6441 -0.2439  1.3360
   13MOL0     H 1709   3.428  -0.028   8.125 -0.0865  1.6818  3.1257
   13MOL0     H 1710   3.418   0.199   7.905  1.9203  1.7534  1.0386
   13MOL0     H 1711   3.441   0.024   7.871 -0.2251  1.2559 -1.0189
   13MOL0     H 1712   3.620   0.231   8.015 -0.6159 -0.3387 -1.5447
   13MOL0     H 1713   3.650   0.057   8.042  0.5379  0.1168 -0.1867
   13MOL0     H 1714   3.860   0.118   7.694 -1.9561  2.4755 -1.3276
   13MOL0     H 1715   3.016  -0.087   7.982 -1.2635 -1.2548  0.4313
   13MOL0     H 1716   2.773  -0.097   7.928  0.2646 -0.4911 -2.0731
   14MOL0     O 1717   7.168   1.154   2.093  0.3532  0.3155  0.6685
   14MOL0     C 1718   7.229   1.143   1.986 -0.2363 -0.1381 -1.5416
   14MOL0     O 1719   7.179   1.106   1.868  0.0989  0.0573  0.4689
   14MOL0     C 1720   7.047   1.120   1.833 -0.2249 -1.3682  0.0938
   14MOL0     C 1721   6.938   1.157   1.918 -0.2094  0.4019  0.0263
   14MOL0     C 1722   6.814   1.157   1.856 -0.2529  0.9316 -0.3183
   14MOL0     C 1723   6.785   1.124   1.725  0.2337  0.8931  0.0398
   14MOL0     O 1724   6.655   1.113   1.677  0.1444  0.0971 -0.6391
   14MOL0     C 1725   6.641   1.080   1.537  0.1637  0.1667 -0.4224
   14MOL0     C 1726   6.492   1.107   1.500 -0.5971  0.7875 -0.1881
   14MOL0     C 1727   6.395   1.008   1.565  0.2723  0.3293 -0.3728
   14MOL0     C 1728   6.253   1.039   1.511 -0.1047 -0.1342  0.6414
   14MOL0     C 1729   6.145   0.943   1.571 -0.5254  0.4623 -0.1807
   14MOL0     C 1730   5.992   0.987   1.560 -0.0271  0.7313 -0.7084
   14MOL0     C 1731   5.959   1.133   1.598  0.0410 -0.2060 -0.1758
   14MOL0     C 1732   5.813   1.162   1.638 -0.2941  0.4780 -0.1105
   14MOL0     N 1733   5.701   1.128   1.542 -0.2783  0.9449  0.1733
   14MOL0     C 1734   5.647   1.006   1.524 -0.9225  0.5686  0.1077
   14MOL0     C 1735   5.552   1.022   1.432  0.1606  1.1298 -1.1135
   14MOL0     C 1736   5.462   0.908   1.382 -0.0434  0.2850  0.0744
   14MOL0     C 1737   5.495   0.772   1.427  0.1719  0.0606 -0.3641
   14MOL0     C 1738   5.382   0.671   1.395  0.1453  0.2397 -0.6630
   14MOL0     C 1739   5.414   0.540   1.466  0.3513  1.5157 -0.2075
   14MOL0     O 1740   5.318   0.429   1.432 -0.4941 -0.5943 -0.2930
   14MOL0     C 1741   5.186   0.431   1.472  0.4238 -0.1026 -0.9140
   14MOL0     C 1742   5.092   0.368   1.395  0.9677 -0.1302  0.0761
   14MOL0     C 1743   4.956   0.340   1.446 -0.5273 -0.3035 -0.8096
   14MOL0     C 1744   4.910   0.380   1.570  0.0275 -0.3060  0.7860
   14MOL0     C 1745   4.776   0.353   1.606 -0.2735  0.5094 -0.4312
   14MOL0     O 1746   4.714   0.249   1.549  0.0717  0.1038 -0.1683
   14MOL0     C 1747   4.581   0.263   1.544 -0.1787  0.5228 -0.0455
   14MOL0     C 1748   4.501   0.164   1.601 -0.7166 -1.1855  0.1726
   14MOL0     C 1749   4.368   0.173   1.584  1.1973  0.2650 -0.1713
   14MOL0     C 1750   4.297   0.269   1.517 -0.0894 -0.4315 -0.1616
   14MOL0     O 1751   4.164   0.259   1.548 -0.6553 -0.7691 -0.1988
   14MOL0     C 1752   4.071   0.375   1.520 -0.2960  0.1493  0.8676
   14MOL0     C 1753   3.994   0.413   1.647 -0.5156  0.3388 -0.3169
   14MOL0     C 1754   3.901   0.288   1.685 -0.5760  0.3207 -0.2682
   14MOL0     C 1755   3.819   0.344   1.802 -0.7189  0.5182 -1.2120
   14MOL0     C 1756   3.893   0.288   1.925  0.2919  0.0872 -0.8144
   14MOL0     C 1757   3.858   0.353   2.062  0.3923  0.2820  0.6056
   14MOL0     C 1758   3.921   0.496   2.076  0.5103  0.5380  0.7501
   14MOL0     C 1759   3.888   0.583   2.192 -0.5498 -0.1890 -0.1715
   14MOL0    Cl 1760   3.992   0.559   2.325 -0.2532 -0.0935  0.3379
   14MOL0     C 1761   4.375   0.376   1.469 -0.4398 -0.1098  0.4048
   14MOL0     C 1762   4.518   0.372   1.473  0.0533  0.6534  0.4289
   14MOL0     O 1763   4.740   0.400   1.715  0.1156 -0.0642 -0.4322
   14MOL0     C 1764   5.001   0.465   1.635 -0.6856  0.8104  0.3422
   14MOL0     C 1765   5.133   0.480   1.590  0.3509 -0.3387 -0.3173
   14MOL0     N 1766   5.537   1.155   1.405  0.3460 -0.9006 -0.6898
   14MOL0     N 1767   5.630   1.217   1.473 -0.4796 -0.2102 -0.8345
   14MOL0     C 1768   6.897   1.088   1.650  0.9894  0.1736  1.1734
   14MOL0     C 1769   7.019   1.082   1.709 -0.8762  0.1726  0.6338
   14MOL0     C 1770   7.381   1.142   2.000  0.3411  0.5004 -0.0049
   14MOL0     C 1771   7.464   1.138   1.890  0.5237  0.3540  0.2885
   14MOL0     C 1772   7.607   1.130   1.908  0.6741  0.0195  1.1887
   14MOL0     C 1773   7.667   1.132   2.032 -0.0733 -0.3319 -0.7266
   14MOL0     O 1774   7.800   1.127   2.055 -0.3183 -0.2642 -0.6711
   14MOL0     C 1775   7.882   1.134   1.942 -0.6831  0.2944 -0.2360
   14MOL0     C 1776   8.015   1.061   1.975 -0.6517 -0.6503 -0.4255
   14MOL0     C 1777   8.128   1.093   1.873 -0.2084  0.0231  0.6561
   14MOL0     C 1778   8.151   0.977   1.770  0.4214 -0.3991 -0.6222
   14MOL0     C 1779   8.232   0.864   1.825  0.2853 -0.4373 -0.3558
   14MOL0     C 1780   8.308   0.777   1.872  0.3351  0.1226  0.9051
   14MOL0     C 1781   7.582   1.141   2.138 -0.4406 -0.1662 -0.1424
   14MOL0     C 1782   7.443   1.139   2.132 -0.4767 -0.0968  0.9184
   14MOL0     H 1783   6.947   1.189   2.022 -0.2456 -1.5860  0.6837
   14MOL0     H 1784   6.730   1.181   1.921 -0.0394  1.4828 -0.2450
   14MOL0     H 1785   6.656   0.973   1.522 -0.5132 -0.3673  2.2920
   14MOL0     H 1786   6.718   1.130   1.476  0.3432  1.3081  0.6960
   14MOL0     H 1787   6.470   1.088   1.394 -2.5231  0.1769  0.2866
   14MOL0     H 1788   6.470   1.214   1.512 -1.5428  1.0020 -2.9906
   14MOL0     H 1789   6.394   1.029   1.673  1.1942 -1.4378  0.0205
   14MOL0     H 1790   6.417   0.902   1.556 -2.6446 -0.7908  3.1163
   14MOL0     H 1791   6.232   1.143   1.538 -2.0581 -1.2408  3.9941
   14MOL0     H 1792   6.245   1.035   1.402 -2.9195 -1.7432  0.8157
   14MOL0     H 1793   6.175   0.928   1.675 -1.0011  0.8676  0.0184
   14MOL0     H 1794   6.147   0.850   1.514  0.7332  0.6898 -0.5310
   14MOL0     H 1795   5.940   0.920   1.630 -2.5127 -0.1511 -3.2317
   14MOL0     H 1796   5.947   0.977   1.461 -0.5722 -1.4498 -0.2858
   14MOL0     H 1797   6.021   1.169   1.681  0.5240 -0.9062 -0.2231
   14MOL0     H 1798   5.986   1.197   1.514  0.3616 -0.7124 -0.4626
   14MOL0     H 1799   5.806   1.266   1.673 -1.3589 -0.0497  1.3886
   14MOL0     H 1800   5.796   1.108   1.732 -0.4711  3.0200  1.4337
   14MOL0     H 1801   5.688   0.914   1.564  0.2866 -0.3290 -2.9412
   14MOL0     H 1802   5.461   0.908   1.272 -3.1489  0.7193  0.0199
   14MOL0     H 1803   5.360   0.929   1.414 -0.7608 -1.3703 -0.9538
   14MOL0     H 1804   5.505   0.782   1.536 -1.3309 -0.2004 -0.1733
   14MOL0     H 1805   5.586   0.734   1.381  1.1552  0.5331  1.0927
   14MOL0     H 1806   5.287   0.716   1.425  1.1334  2.8012 -1.0531
   14MOL0     H 1807   5.371   0.646   1.289  2.0570 -1.2499 -0.5635
   14MOL0     H 1808   5.414   0.550   1.575 -1.9994  1.2960 -0.1345
   14MOL0     H 1809   5.514   0.501   1.445 -1.6020 -2.9638 -2.4981
   14MOL0     H 1810   5.125   0.340   1.296 -0.7011  3.7817 -1.8053
   14MOL0     H 1811   4.888   0.281   1.385 -0.7784  0.4568 -1.2805
   14MOL0     H 1812   4.541   0.074   1.646  2.6235  0.2041  0.2736
   14MOL0     H 1813   4.309   0.092   1.626  0.9173  0.2868 -0.5177
   14MOL0     H 1814   4.009   0.341   1.436  1.8269 -2.3411  0.1833
   14MOL0     H 1815   4.119   0.465   1.480 -0.2512  0.3595  1.3900
   14MOL0     H 1816   3.927   0.499   1.636  0.1818  0.7440 -1.5572
   14MOL0     H 1817   4.064   0.436   1.728 -1.6144  0.2234  0.7018
   14MOL0     H 1818   3.956   0.198   1.715  1.1703  1.5721  0.3935
   14MOL0     H 1819   3.842   0.268   1.595  1.4323 -0.9769 -1.3476
   14MOL0     H 1820   3.814   0.453   1.800 -3.7410  0.5413  1.0928
   14MOL0     H 1821   3.717   0.306   1.794 -0.5123  0.2418 -3.2439
   14MOL0     H 1822   4.000   0.298   1.908  0.6163  1.9200  1.7063
   14MOL0     H 1823   3.883   0.179   1.934  4.3943 -0.5109 -1.4813
   14MOL0     H 1824   3.898   0.286   2.139  0.6501 -0.9728 -0.5667
   14MOL0     H 1825   3.750   0.360   2.076  0.5484  1.1261  1.5053
   14MOL0     H 1826   4.029   0.481   2.074  0.4801  0.4136 -0.6911
   14MOL0     H 1827   3.891   0.562   1.994 -0.7044 -0.0970  0.6409
   14MOL0     H 1828   3.787   0.554   2.225 -0.6361 -3.3702 -2.7600
   14MOL0     H 1829   3.898   0.690   2.172  0.3442 -0.1412  0.4713
   14MOL0     H 1830   4.334   0.457   1.410  0.3109 -1.0412 -1.4678
   14MOL0     H 1831   4.582   0.452   1.438 -0.6686  2.0218  2.0669
   14MOL0     H 1832   4.964   0.517   1.723 -0.5898  0.8734  0.3452
   14MOL0     H 1833   5.203   0.539   1.649  0.5687 -0.4218 -0.4928
   14MOL0     H 1834   6.882   1.056   1.548  1.4135  3.2282  0.0407
   14MOL0     H 1835   7.094   1.035   1.646 -2.0374 -1.8915  0.7225
   14MOL0     H 1836   7.422   1.136   1.790 -0.2852 -0.4003  0.6275
   14MOL0     H 1837   7.654   1.138   1.810 -0.1178 -1.9304  0.6204
   14MOL0     H 1838   7.900   1.236   1.909  5.6086 -1.2211 -2.7970
   14MOL0     H 1839   7.839   1.080   1.857  0.2252  0.5163 -0.8511
   14MOL0     H 1840   8.057   1.099   2.068  0.3327 -2.7697  0.0720
   14MOL0     H 1841   8.000   0.955   1.997 -0.1539 -0.1015  3.2258
   14MOL0     H 1842   8.222   1.114   1.925  1.4198  0.8431 -2.4056
   14MOL0     H 1843   8.108   1.191   1.828 -1.1058 -0.1215  0.7130
   14MOL0     H 1844   8.048   0.947   1.753  0.8536 -1.7083 -0.9992
   14MOL0     H 1845   8.194   1.011   1.675  2.3859 -2.2574 -0.4625
   14MOL0     H 1846   8.369   0.698   1.913 -0.7977  0.1271  2.7022
   14MOL0     H 1847   7.628   1.157   2.235 -3.1233 -0.9287  1.3564
   14MOL0     H 1848   7.387   1.129   2.225 -3.3727 -2.1611 -0.8522
   15MOL0     O 1849  10.882   6.624   2.568 -0.2000  0.3639  0.5196
   15MOL0     C 1850  10.928   6.622   2.451 -0.3851  0.8269 -0.0022
   15MOL0     O 1851  10.893   6.543   2.354 -0.3957 -0.8137 -0.1835
   15MOL0     C 1852  10.818   6.426   2.390  0.7700  0.4060 -0.3703
   15MOL0     C 1853  10.888   6.313   2.445 -0.2702  0.2849 -0.0842
   15MOL0     C 1854  10.810   6.205   2.481 -0.0384  0.1291 -0.4698
   15MOL0     C 1855  10.667   6.210   2.473 -0.4179  0.3369 -0.5344
   15MOL0     O 1856  10.598   6.096   2.516  0.4523  0.5776  0.2112
   15MOL0     C 1857  10.458   6.111   2.539  0.4939  0.9962 -0.0843
   15MOL0     C 1858  10.420   5.973   2.596 -1.2583  0.4054 -0.5892
   15MOL0     C 1859  10.277   5.937   2.554 -0.0350  1.0196 -0.2018
   15MOL0     C 1860  10.243   5.806   2.633  0.5465 -0.5447  0.2607
   15MOL0     C 1861  10.117   5.743   2.575 -0.0742  0.1589  0.0709
   15MOL0     C 1862  10.095   5.593   2.583 -0.2098  0.7731 -0.6705
   15MOL0     C 1863   9.950   5.575   2.606  0.3986  0.1351 -0.3488
   15MOL0     C 1864   9.904   5.429   2.618  0.3733 -0.1372  0.5165
   15MOL0     N 1865   9.756   5.413   2.635  0.2508 -0.2567 -0.2204
   15MOL0     C 1866   9.695   5.465   2.750  0.3447  0.3219  0.3683
   15MOL0     C 1867   9.562   5.445   2.740  0.6081 -0.3177 -0.2327
   15MOL0     C 1868   9.457   5.475   2.840 -0.3380  0.8021  1.1850
   15MOL0     C 1869   9.329   5.525   2.782  0.4284 -1.0087 -0.9473
   15MOL0     C 1870   9.249   5.418   2.706 -0.2536 -0.1026 -0.0163
   15MOL0     C 1871   9.096   5.429   2.740 -0.9649 -0.2759  0.1493
   15MOL0     O 1872   9.026   5.338   2.659  0.0317  0.6694 -0.0302
   15MOL0     C 1873   8.889   5.325   2.647 -1.2082 -0.3105 -0.5408
   15MOL0     C 1874   8.830   5.248   2.546  0.8116  0.6581 -0.1861
   15MOL0     C 1875   8.689   5.258   2.532 -0.3413 -0.6917  0.1921
   15MOL0     C 1876   8.613   5.336   2.624  1.2690  0.0620  1.6053
   15MOL0     C 1877   8.464   5.322   2.624 -0.4601 -0.4981 -1.0174
   15MOL0     O 1878   8.397   5.241   2.534 -0.7842 -0.4806  0.2910
   15MOL0     C 1879   8.262   5.211   2.550  0.6902  0.1600 -0.0628
   15MOL0     C 1880   8.221   5.119   2.652  0.2251  0.9564  0.1489
   15MOL0     C 1881   8.083   5.107   2.673 -0.0054 -0.9592 -0.3601
   15MOL0     C 1882   7.986   5.171   2.594  0.1202  0.3117  0.5352
   15MOL0     O 1883   7.854   5.149   2.625  0.2190 -0.0084 -0.0144
   15MOL0     C 1884   7.751   5.175   2.532  0.2267 -0.3083 -0.7981
   15MOL0     C 1885   7.702   5.320   2.544 -0.2561 -0.3383 -0.6812
   15MOL0     C 1886   7.553   5.337   2.530 -0.5392 -0.4479 -0.3132
   15MOL0     C 1887   7.522   5.487   2.498 -0.0463  0.5130  0.2052
   15MOL0     C 1888   7.377   5.504   2.461  0.0746 -0.2344 -0.1495
   15MOL0     C 1889   7.283   5.496   2.586 -0.6753 -0.5395  0.3837
   15MOL0     C 1890   7.147   5.463   2.536  0.0430  0.3010  0.6029
   15MOL0     C 1891   7.028   5.512   2.629 -1.2410  0.3143  1.1927
   15MOL0    Cl 1892   7.073   5.440   2.789  0.2539 -0.4286 -0.2302
   15MOL0     C 1893   8.025   5.263   2.491  0.8577 -0.0245 -1.2209
   15MOL0     C 1894   8.163   5.286   2.473  0.4869 -0.4744 -0.6547
   15MOL0     O 1895   8.410   5.376   2.718  0.3860 -0.2165  0.5541
   15MOL0     C 1896   8.676   5.404   2.720 -0.4356 -0.8235 -0.3370
   15MOL0     C 1897   8.810   5.402   2.730 -0.4642  0.4220 -0.5413
   15MOL0     N 1898   9.543   5.388   2.613 -0.1149 -0.2893  0.1816
   15MOL0     N 1899   9.657   5.365   2.555  0.3924 -1.0045  0.4288
   15MOL0     C 1900  10.599   6.322   2.418 -0.4631 -0.4503 -0.3880
   15MOL0     C 1901  10.673   6.425   2.374  0.2013 -0.0577  0.3693
   15MOL0     C 1902  11.057   6.696   2.427 -0.5126 -0.2118  0.8897
   15MOL0     C 1903  11.123   6.770   2.531  0.6320 -0.5531 -0.2250
   15MOL0     C 1904  11.239   6.840   2.493  1.3890 -0.5322 -0.6339
   15MOL0     C 1905  11.289   6.861   2.364 -0.2341  1.0754  0.5792
   15MOL0     O 1906  11.387   6.951   2.317  0.2410  0.1097 -0.2785
   15MOL0     C 1907  11.430   7.052   2.411  0.2300  0.2487  0.0840
   15MOL0     C 1908  11.340   7.167   2.393  0.0445 -0.4158  0.6546
   15MOL0     C 1909  11.392   7.293   2.461  0.1914 -0.2903 -0.9378
   15MOL0     C 1910  11.368   7.292   2.612 -0.7480 -0.1928 -0.0953
   15MOL0     C 1911  11.226   7.271   2.648  0.1971  0.1533  0.8825
   15MOL0     C 1912  11.107   7.264   2.685 -0.6522  0.0492 -0.1369
   15MOL0     C 1913  11.222   6.788   2.265  0.5922 -0.9302 -0.6613
   15MOL0     C 1914  11.108   6.712   2.297  0.4760 -0.1678 -0.3809
   15MOL0     H 1915  10.995   6.307   2.464 -0.1418 -1.8469 -1.1825
   15MOL0     H 1916  10.851   6.113   2.519  2.4894  2.0039  1.7494
   15MOL0     H 1917  10.409   6.135   2.444  1.0758  1.2211 -0.3309
   15MOL0     H 1918  10.437   6.181   2.620  2.3793 -0.2930  1.6410
   15MOL0     H 1919  10.420   5.986   2.704  2.2725 -1.4386 -0.2435
   15MOL0     H 1920  10.489   5.894   2.567 -1.8761 -0.6144  0.6699
   15MOL0     H 1921  10.269   5.918   2.446 -1.6530  3.1898 -0.5234
   15MOL0     H 1922  10.203   6.016   2.568 -0.8236 -0.0870  2.2281
   15MOL0     H 1923  10.333   5.745   2.623  1.6069  0.9218  0.3755
   15MOL0     H 1924  10.238   5.816   2.742  2.7246  0.9024  0.2961
   15MOL0     H 1925  10.115   5.775   2.470  1.5521 -0.2457 -0.0971
   15MOL0     H 1926  10.036   5.803   2.619  0.7320 -0.2801  2.2626
   15MOL0     H 1927  10.147   5.562   2.674 -1.3040 -1.3870 -0.7230
   15MOL0     H 1928  10.142   5.537   2.501  1.2596 -2.0070  1.8895
   15MOL0     H 1929   9.913   5.629   2.694  0.2264  1.9718 -1.5048
   15MOL0     H 1930   9.901   5.625   2.523  0.7753 -0.2585 -0.8147
   15MOL0     H 1931   9.951   5.388   2.708 -0.5878  0.2695  1.2199
   15MOL0     H 1932   9.933   5.370   2.530 -0.7677  0.9315 -0.6314
   15MOL0     H 1933   9.738   5.509   2.839  0.8717 -1.3217  0.9619
   15MOL0     H 1934   9.489   5.546   2.917  0.8122 -0.6004  2.0271
   15MOL0     H 1935   9.453   5.385   2.901  0.5718  1.5172  2.3274
   15MOL0     H 1936   9.346   5.617   2.725  2.0521  0.4649  1.6879
   15MOL0     H 1937   9.262   5.550   2.865 -1.2844  1.6743 -3.0062
   15MOL0     H 1938   9.265   5.426   2.598  3.7410 -1.1290  0.3130
   15MOL0     H 1939   9.291   5.319   2.729  1.3177  0.0726 -1.8922
   15MOL0     H 1940   9.066   5.534   2.731  0.5862  0.2522  0.8647
   15MOL0     H 1941   9.088   5.408   2.847 -0.1671  1.1944  0.5221
   15MOL0     H 1942   8.902   5.185   2.493 -1.3909 -2.6608  0.4264
   15MOL0     H 1943   8.647   5.187   2.461 -4.1916  2.2090 -0.7673
   15MOL0     H 1944   8.304   5.080   2.709  2.5076  1.6105 -2.4808
   15MOL0     H 1945   8.051   5.058   2.765 -0.1119 -0.7233 -0.2697
   15MOL0     H 1946   7.669   5.104   2.546  0.7273 -0.6270  0.7051
   15MOL0     H 1947   7.783   5.155   2.429  4.4592 -0.0049  0.2967
   15MOL0     H 1948   7.745   5.385   2.467 -1.7487  1.8743  0.2730
   15MOL0     H 1949   7.738   5.350   2.642  1.3818 -2.3154 -0.5946
   15MOL0     H 1950   7.521   5.302   2.629  2.3303 -2.2765  0.0751
   15MOL0     H 1951   7.512   5.262   2.461 -2.5110 -1.6907  2.0409
   15MOL0     H 1952   7.536   5.543   2.591  0.8260  4.3160 -2.0357
   15MOL0     H 1953   7.589   5.528   2.422  2.4007 -4.5820 -0.8029
   15MOL0     H 1954   7.352   5.425   2.390 -1.8092  0.1923 -0.0130
   15MOL0     H 1955   7.356   5.597   2.407 -1.5015 -0.7337 -0.4370
   15MOL0     H 1956   7.301   5.592   2.637  2.2737  0.3459 -2.0182
   15MOL0     H 1957   7.316   5.422   2.659 -0.2348 -0.2365  0.5003
   15MOL0     H 1958   7.126   5.506   2.438 -0.1051  1.4728  1.1416
   15MOL0     H 1959   7.137   5.354   2.527 -1.3055  0.5453 -1.5682
   15MOL0     H 1960   6.928   5.483   2.595 -0.7963 -1.9078  1.6362
   15MOL0     H 1961   7.041   5.619   2.647  4.0439 -0.3104  2.6229
   15MOL0     H 1962   7.945   5.312   2.437  0.3416  0.9200  0.3372
   15MOL0     H 1963   8.189   5.361   2.399 -3.0752  0.1006 -1.4673
   15MOL0     H 1964   8.629   5.459   2.801  3.3188  1.6618  0.3642
   15MOL0     H 1965   8.855   5.470   2.802 -1.3617  1.0380 -0.5421
   15MOL0     H 1966  10.491   6.314   2.407 -0.4715  0.4249 -0.9916
   15MOL0     H 1967  10.634   6.506   2.313 -0.5892  0.4468  1.5057
   15MOL0     H 1968  11.091   6.775   2.635  3.3353 -0.8349  0.7092
   15MOL0     H 1969  11.268   6.907   2.573 -1.9062 -1.7954  1.8729
   15MOL0     H 1970  11.532   7.081   2.387  0.7923 -2.2205 -0.7455
   15MOL0     H 1971  11.430   7.021   2.516  1.6318 -0.7680 -0.2012
   15MOL0     H 1972  11.329   7.187   2.286  0.0863 -3.4141 -0.0060
   15MOL0     H 1973  11.240   7.141   2.428  0.9091 -0.7699  3.1034
   15MOL0     H 1974  11.346   7.379   2.412  1.9020  0.8433 -0.6481
   15MOL0     H 1975  11.499   7.298   2.437  0.7447 -1.5097  1.0361
   15MOL0     H 1976  11.439   7.222   2.656  0.8495  0.5538 -1.3811
   15MOL0     H 1977  11.393   7.392   2.649 -1.7709 -0.1134  0.4175
   15MOL0     H 1978  11.006   7.250   2.716 -0.9949 -0.4957 -1.4319
   15MOL0     H 1979  11.265   6.788   2.166  1.6366  0.1908 -0.2428
   15MOL0     H 1980  11.064   6.657   2.215  2.1101 -1.8601 -0.1831
   16MOL0     O 1981   0.643  11.138   0.046  0.0969 -0.1366  0.2982
   16MOL0     C 1982   0.674  11.176  -0.066  1.1669 -0.9682  0.9479
   16MOL0     O 1983   0.580  11.218  -0.150  0.1724  0.1059 -0.0646
   16MOL0     C 1984   0.454  11.231  -0.101  0.2075 -0.7370 -0.3587
   16MOL0     C 1985   0.431  11.337  -0.002 -0.2173  0.8734  0.5562
   16MOL0     C 1986   0.312  11.353   0.062 -0.5671 -0.1256  0.4771
   16MOL0     C 1987   0.217  11.245   0.045  0.3902  0.6854 -0.2296
   16MOL0     O 1988   0.101  11.234   0.121  0.3332 -0.4732 -0.2256
   16MOL0     C 1989   0.087  11.312   0.239  0.6029 -0.5223 -0.3508
   16MOL0     C 1990  -0.064  11.310   0.289 -0.0074  0.1087  0.1505
   16MOL0     C 1991  -0.107  11.172   0.325  0.4746  1.1737 -0.2342
   16MOL0     C 1992  -0.017  11.111   0.434 -0.8762  0.2220 -0.4219
   16MOL0     C 1993  -0.090  10.995   0.495 -0.1843  0.4226  0.4523
   16MOL0     C 1994  -0.212  11.030   0.585  1.1501  0.0409  0.0786
   16MOL0     C 1995  -0.311  10.912   0.595  0.9767 -0.0951 -0.2394
   16MOL0     C 1996  -0.445  10.953   0.660 -1.1207  0.9244 -0.8055
   16MOL0     N 1997  -0.433  11.023   0.786 -0.2189 -0.0324 -0.3943
   16MOL0     C 1998  -0.433  10.960   0.904  0.4383  0.0438 -0.4905
   16MOL0     C 1999  -0.479  11.050   0.995 -0.0792  0.0786 -0.8476
   16MOL0     C 2000  -0.509  11.026   1.142  0.1079  0.7769  0.5187
   16MOL0     C 2001  -0.625  10.926   1.172  0.1124 -0.8886  0.2252
   16MOL0     C 2002  -0.772  10.985   1.154 -0.5688 -0.0983  0.8852
   16MOL0     C 2003  -0.865  10.876   1.118 -0.2130 -0.4506  0.5221
   16MOL0     O 2004  -1.007  10.910   1.102 -0.8158  0.7341  0.0603
   16MOL0     C 2005  -1.075  10.875   0.991  0.2313  0.1427 -0.0312
   16MOL0     C 2006  -1.205  10.924   0.979  0.5674 -0.0595  0.0553
   16MOL0     C 2007  -1.287  10.880   0.876  0.0950 -0.0174 -0.2475
   16MOL0     C 2008  -1.245  10.787   0.777 -0.9515 -0.3028 -0.1469
   16MOL0     C 2009  -1.333  10.747   0.663  0.1030  0.9252  0.5363
   16MOL0     O 2010  -1.466  10.765   0.688  0.3528  0.0108  0.4502
   16MOL0     C 2011  -1.565  10.692   0.625  1.3053 -0.3230 -0.0755
   16MOL0     C 2012  -1.702  10.747   0.628 -0.3696 -0.0962 -0.0249
   16MOL0     C 2013  -1.801  10.678   0.556 -0.3720 -0.0288 -1.6063
   16MOL0     C 2014  -1.774  10.564   0.490 -0.1958  0.1406  0.0822
   16MOL0     O 2015  -1.889  10.511   0.438  0.8236  0.5617 -0.0994
   16MOL0     C 2016  -1.891  10.378   0.388  0.0388  0.3580  0.0981
   16MOL0     C 2017  -2.025  10.381   0.314  0.6995 -0.0695  1.2271
   16MOL0     C 2018  -2.148  10.385   0.406 -0.2031  0.6631  1.0805
   16MOL0     C 2019  -2.272  10.353   0.335  0.1431  0.2174 -0.4332
   16MOL0     C 2020  -2.385  10.330   0.439  0.2850  0.1563  0.4106
   16MOL0     C 2021  -2.443  10.464   0.485 -0.6230 -0.1350 -0.1145
   16MOL0     C 2022  -2.558  10.430   0.580  0.3845 -0.5752 -0.1140
   16MOL0     C 2023  -2.618  10.552   0.652  0.0100 -0.0681  0.4023
   16MOL0    Cl 2024  -2.635  10.700   0.561 -0.0957 -0.1793  0.0921
   16MOL0     C 2025  -1.648  10.504   0.489  0.0341 -0.0621 -0.9772
   16MOL0     C 2026  -1.546  10.566   0.556  0.0942 -0.3266 -0.3853
   16MOL0     O 2027  -1.285  10.696   0.563 -0.4485 -0.6519 -0.2686
   16MOL0     C 2028  -1.112  10.744   0.784 -0.0426 -0.0608  0.2180
   16MOL0     C 2029  -1.029  10.788   0.895 -0.0458  0.4928  0.6029
   16MOL0     N 2030  -0.516  11.163   0.932  0.3088 -0.0316 -0.2342
   16MOL0     N 2031  -0.482  11.149   0.812 -0.0006 -0.6529  1.5638
   16MOL0     C 2032   0.235  11.144  -0.050  0.1008 -0.1406 -0.6795
   16MOL0     C 2033   0.358  11.135  -0.117 -0.3155 -1.0994 -0.8054
   16MOL0     C 2034   0.810  11.172  -0.126 -0.3834 -0.3901  0.1363
   16MOL0     C 2035   0.908  11.118  -0.048  0.4719  0.0166  0.8357
   16MOL0     C 2036   1.037  11.122  -0.088 -0.7815 -0.0589  0.3695
   16MOL0     C 2037   1.071  11.183  -0.215  0.6540 -0.0035 -1.6284
   16MOL0     O 2038   1.198  11.193  -0.245 -0.2717 -0.9245 -0.2439
   16MOL0     C 2039   1.308  11.166  -0.148  0.4799  0.2222 -0.5062
   16MOL0     C 2040   1.441  11.220  -0.192  0.3630 -0.1998 -0.1664
   16MOL0     C 2041   1.436  11.346  -0.284  0.4350 -0.5239 -0.1949
   16MOL0     C 2042   1.582  11.388  -0.305 -0.5768 -0.4828  0.1311
   16MOL0     C 2043   1.602  11.490  -0.402 -0.0902 -1.2442  0.0106
   16MOL0     C 2044   1.654  11.580  -0.464 -0.2527  0.5832 -0.0053
   16MOL0     C 2045   0.972  11.234  -0.296  0.8621  0.1816 -0.6221
   16MOL0     C 2046   0.841  11.228  -0.250  0.5560  1.4106  0.0575
   16MOL0     H 2047   0.497  11.421   0.017  0.0537  0.4402  1.6355
   16MOL0     H 2048   0.296  11.429   0.138  1.5879  3.4199 -2.3077
   16MOL0     H 2049   0.109  11.418   0.226  1.9987 -0.7169  0.2768
   16MOL0     H 2050   0.161  11.284   0.314 -0.0510  0.7078  0.7760
   16MOL0     H 2051  -0.129  11.343   0.208  0.3845 -0.5715 -0.4613
   16MOL0     H 2052  -0.069  11.376   0.376  3.3291 -0.8376  1.2541
   16MOL0     H 2053  -0.108  11.099   0.243  2.3344  0.5830  0.2185
   16MOL0     H 2054  -0.210  11.171   0.363  0.1570 -2.0219 -0.8551
   16MOL0     H 2055   0.083  11.080   0.401 -1.3287 -2.0868  0.2165
   16MOL0     H 2056  -0.008  11.185   0.514 -0.7214  1.1512 -1.2828
   16MOL0     H 2057  -0.020  10.938   0.557  0.6181  1.4444  0.5057
   16MOL0     H 2058  -0.116  10.924   0.416  2.9875 -1.1003  0.6348
   16MOL0     H 2059  -0.270  11.120   0.563  0.3232 -0.1532  1.3415
   16MOL0     H 2060  -0.177  11.052   0.686  1.0178  2.4728 -0.3402
   16MOL0     H 2061  -0.337  10.883   0.493 -2.6870  3.2046 -0.5065
   16MOL0     H 2062  -0.261  10.830   0.648 -0.3535 -0.6061  0.2917
   16MOL0     H 2063  -0.514  10.869   0.668  0.1735 -0.0666  0.4074
   16MOL0     H 2064  -0.490  11.026   0.591  0.5139  3.0286  0.2350
   16MOL0     H 2065  -0.428  10.854   0.927 -3.6136 -0.1591  0.1812
   16MOL0     H 2066  -0.543  11.120   1.187 -4.9046 -0.7768  0.6639
   16MOL0     H 2067  -0.412  11.004   1.187  0.3529  0.6474 -0.0746
   16MOL0     H 2068  -0.623  10.894   1.277 -1.2088 -1.4282  0.1025
   16MOL0     H 2069  -0.613  10.835   1.112 -0.9179 -0.6590 -0.3546
   16MOL0     H 2070  -0.805  11.031   1.247  1.0102 -3.4553  3.2707
   16MOL0     H 2071  -0.772  11.063   1.076  1.1207  1.2911  2.1872
   16MOL0     H 2072  -0.845  10.796   1.189  0.7804 -1.6157 -1.0067
   16MOL0     H 2073  -0.819  10.835   1.028  0.0288 -2.2400  1.4292
   16MOL0     H 2074  -1.229  10.998   1.054 -2.9247 -1.1263  0.1915
   16MOL0     H 2075  -1.381  10.933   0.864  0.3995  0.2731 -1.5342
   16MOL0     H 2076  -1.714  10.841   0.681  1.8259  0.8031 -0.9773
   16MOL0     H 2077  -1.902  10.717   0.547 -0.6112  0.7827  2.4403
   16MOL0     H 2078  -1.886  10.301   0.466 -0.0862 -1.9302 -2.0582
   16MOL0     H 2079  -1.806  10.359   0.321  0.9290  0.7344  1.0818
   16MOL0     H 2080  -2.020  10.286   0.260  2.3658  1.6433 -1.8871
   16MOL0     H 2081  -2.025  10.450   0.229 -0.7410 -1.2626  0.1998
   16MOL0     H 2082  -2.158  10.483   0.452  1.5113  0.9995  0.8118
   16MOL0     H 2083  -2.131  10.308   0.483  0.8769  0.0292  0.2306
   16MOL0     H 2084  -2.292  10.433   0.263 -0.5576  0.1476 -0.3181
   16MOL0     H 2085  -2.259  10.265   0.271  1.2445 -0.3414  0.5209
   16MOL0     H 2086  -2.344  10.281   0.528 -1.4072 -0.7752  0.7061
   16MOL0     H 2087  -2.469  10.278   0.393  1.8026 -3.5344  1.4435
   16MOL0     H 2088  -2.478  10.522   0.399 -0.3034  0.6520  0.2795
   16MOL0     H 2089  -2.367  10.523   0.537  0.6149 -0.9814 -0.9395
   16MOL0     H 2090  -2.636  10.397   0.511  1.9676  3.0902 -4.1361
   16MOL0     H 2091  -2.522  10.358   0.654  3.1193  0.8069  0.0178
   16MOL0     H 2092  -2.557  10.584   0.736 -0.3354  1.7640  0.0022
   16MOL0     H 2093  -2.718  10.520   0.685  0.3215 -2.1245 -0.4739
   16MOL0     H 2094  -1.635  10.414   0.431  1.5374 -0.8862  0.5525
   16MOL0     H 2095  -1.451  10.515   0.546 -1.0075 -2.5052 -0.2373
   16MOL0     H 2096  -1.066  10.671   0.718  2.2408  0.4422  1.1829
   16MOL0     H 2097  -0.931  10.741   0.897 -1.1870 -2.0237  3.0940
   16MOL0     H 2098   0.152  11.074  -0.058  0.3777 -0.8333  1.7753
   16MOL0     H 2099   0.380  11.056  -0.188  2.0539  0.9692 -2.5375
   16MOL0     H 2100   0.878  11.062   0.040 -1.8023 -0.3593 -0.1100
   16MOL0     H 2101   1.112  11.080  -0.022 -1.2320 -0.8925  0.3533
   16MOL0     H 2102   1.321  11.058  -0.137  0.5996  0.3458  0.7036
   16MOL0     H 2103   1.292  11.191  -0.043  0.4183  0.8236 -0.6567
   16MOL0     H 2104   1.495  11.252  -0.103  2.6770 -0.9986 -1.2090
   16MOL0     H 2105   1.494  11.137  -0.239 -2.1055 -1.2553 -1.2741
   16MOL0     H 2106   1.369  11.416  -0.233 -5.1811 -5.4356  0.2561
   16MOL0     H 2107   1.380  11.324  -0.375 -0.2732 -0.7931  0.3014
   16MOL0     H 2108   1.634  11.414  -0.213  2.0723 -0.4207 -1.2847
   16MOL0     H 2109   1.640  11.300  -0.332 -0.0025 -0.2263  0.5181
   16MOL0     H 2110   1.706  11.667  -0.499  1.6270  0.5492  2.5066
   16MOL0     H 2111   0.986  11.287  -0.390 -2.6061  2.3309 -0.0889
   16MOL0     H 2112   0.764  11.266  -0.316  0.3888 -1.9927 -1.9376
   17MOL0     O 2113   9.964   0.036   6.900  0.2354 -0.3526 -0.5234
   17MOL0     C 2114   9.852  -0.019   6.920  0.3961 -0.3042  0.0881
   17MOL0     O 2115   9.828  -0.149   6.976  0.1634  0.3112 -0.2152
   17MOL0     C 2116   9.939  -0.199   7.049 -0.2511 -0.1889  0.7413
   17MOL0     C 2117  10.045  -0.131   7.114  1.3667 -0.2841 -1.2307
   17MOL0     C 2118  10.144  -0.200   7.180 -0.6410  0.5770 -0.3033
   17MOL0     C 2119  10.159  -0.343   7.173 -0.2136  0.8791 -0.0286
   17MOL0     O 2120  10.251  -0.426   7.226  0.5154  0.6105 -0.1735
   17MOL0     C 2121  10.336  -0.364   7.317 -0.2730  0.6494 -0.1097
   17MOL0     C 2122  10.411  -0.475   7.389  0.4929  0.3272  0.3710
   17MOL0     C 2123  10.464  -0.584   7.291  0.1115 -0.8933  0.0056
   17MOL0     C 2124  10.539  -0.697   7.358 -0.3126 -0.5039 -0.1672
   17MOL0     C 2125  10.562  -0.813   7.261 -0.1712 -1.0895  0.3278
   17MOL0     C 2126  10.433  -0.895   7.269  0.5396 -0.4731  0.4827
   17MOL0     C 2127  10.417  -0.987   7.152 -0.0190 -0.4136 -0.4260
   17MOL0     C 2128  10.287  -1.073   7.158 -0.2153 -0.0617  0.3358
   17MOL0     N 2129  10.289  -1.186   7.055 -0.3153 -0.3516 -0.0304
   17MOL0     C 2130  10.253  -1.170   6.923 -0.1772  0.5283 -0.2825
   17MOL0     C 2131  10.274  -1.296   6.871  0.2540 -0.8508  0.4735
   17MOL0     C 2132  10.250  -1.341   6.730 -0.1576  0.8175 -0.2528
   17MOL0     C 2133  10.102  -1.327   6.684  0.0003  0.7019 -0.2844
   17MOL0     C 2134  10.027  -1.453   6.730  0.2192 -0.3770  0.4580
   17MOL0     C 2135   9.900  -1.487   6.642  0.3981  0.5696 -0.0702
   17MOL0     O 2136   9.804  -1.387   6.686 -0.3775 -0.0282 -0.1808
   17MOL0     C 2137   9.675  -1.395   6.629 -0.5975  0.2371  0.4182
   17MOL0     C 2138   9.641  -1.488   6.530 -0.6944  0.4298  0.2088
   17MOL0     C 2139   9.507  -1.513   6.493 -1.1327 -0.2661 -0.0746
   17MOL0     C 2140   9.400  -1.440   6.547  0.8089 -0.1605  0.1797
   17MOL0     C 2141   9.257  -1.466   6.519  0.6142 -0.7601  0.4142
   17MOL0     O 2142   9.177  -1.360   6.472  0.0379 -0.1960  0.0507
   17MOL0     C 2143   9.040  -1.372   6.455  0.0427 -0.6962  0.1625
   17MOL0     C 2144   8.957  -1.464   6.524 -0.3575 -0.2949 -0.4567
   17MOL0     C 2145   8.820  -1.452   6.518 -0.3566  0.6267  0.0220
   17MOL0     C 2146   8.751  -1.354   6.440  0.0715 -0.4198 -0.3553
   17MOL0     O 2147   8.613  -1.335   6.443  0.5954 -0.1339 -0.3329
   17MOL0     C 2148   8.526  -1.408   6.537 -0.4138  0.3003  0.7319
   17MOL0     C 2149   8.374  -1.366   6.533  1.2528 -0.6342  0.3370
   17MOL0     C 2150   8.335  -1.357   6.379 -0.0777  0.4471 -0.7430
   17MOL0     C 2151   8.195  -1.287   6.373  0.3605 -0.0090  0.5094
   17MOL0     C 2152   8.134  -1.269   6.231  0.0872 -0.1596 -0.2931
   17MOL0     C 2153   8.033  -1.154   6.217 -0.3774 -0.6097  0.5829
   17MOL0     C 2154   7.892  -1.196   6.267  0.3747  0.0180 -0.1315
   17MOL0     C 2155   7.826  -1.274   6.161  0.4903  0.2634  0.3234
   17MOL0    Cl 2156   7.722  -1.180   6.029  0.1376  0.1582 -0.0343
   17MOL0     C 2157   8.835  -1.276   6.361 -0.6197  0.2378  0.4231
   17MOL0     C 2158   8.975  -1.286   6.371  0.1967 -0.6032  0.0439
   17MOL0     O 2159   9.218  -1.584   6.531 -0.0736  0.8220 -0.0644
   17MOL0     C 2160   9.430  -1.333   6.637  0.7616  0.8501 -0.3785
   17MOL0     C 2161   9.570  -1.319   6.674  1.4335 -0.8867 -0.6823
   17MOL0     N 2162  10.311  -1.379   6.973 -0.4045  0.3289  0.9124
   17MOL0     N 2163  10.317  -1.318   7.079 -0.0828  0.7889 -0.7426
   17MOL0     C 2164  10.048  -0.406   7.117 -0.0168 -0.0043  0.1743
   17MOL0     C 2165   9.941  -0.342   7.053 -0.1058 -0.2424  0.7565
   17MOL0     C 2166   9.732   0.035   6.849 -0.0491  0.1449 -0.9073
   17MOL0     C 2167   9.746   0.147   6.763  0.2042  0.9363  0.2603
   17MOL0     C 2168   9.634   0.208   6.708 -1.2598  0.8814  0.6482
   17MOL0     C 2169   9.508   0.165   6.726  0.8636  0.5626  0.4846
   17MOL0     O 2170   9.404   0.233   6.675 -0.3803  0.1333 -0.0242
   17MOL0     C 2171   9.335   0.157   6.575  0.4292  0.1243 -0.0416
   17MOL0     C 2172   9.236   0.239   6.489 -0.0554 -0.1505 -0.2396
   17MOL0     C 2173   9.103   0.262   6.566 -0.0978 -0.2953  0.2117
   17MOL0     C 2174   9.008   0.338   6.482 -0.5323  0.0477  0.3096
   17MOL0     C 2175   8.881   0.337   6.551 -0.5713  0.8294  0.4208
   17MOL0     C 2176   8.763   0.338   6.579 -0.5136  0.2391 -0.1531
   17MOL0     C 2177   9.495   0.043   6.800  0.2030 -0.4683  0.3788
   17MOL0     C 2178   9.606  -0.021   6.852 -1.0934 -0.7349 -0.4862
   17MOL0     H 2179  10.051  -0.022   7.115  1.6505 -0.2523 -2.8003
   17MOL0     H 2180  10.226  -0.146   7.226 -0.6393  2.2032 -2.0860
   17MOL0     H 2181  10.266  -0.322   7.390 -1.6818 -0.9770 -0.4817
   17MOL0     H 2182  10.404  -0.292   7.269 -0.6530  2.2483  1.5946
   17MOL0     H 2183  10.339  -0.518   7.459 -0.2825  0.8354 -0.1062
   17MOL0     H 2184  10.492  -0.430   7.448  0.2374 -1.3795  2.1510
   17MOL0     H 2185  10.522  -0.535   7.213  1.7404  1.8911  2.7454
   17MOL0     H 2186  10.369  -0.618   7.250 -0.6672  0.0972  0.9141
   17MOL0     H 2187  10.639  -0.657   7.378  1.4263 -3.3506 -2.5049
   17MOL0     H 2188  10.500  -0.733   7.454 -0.2263  0.9589  0.4603
   17MOL0     H 2189  10.640  -0.873   7.308 -1.1553 -1.6369  1.2924
   17MOL0     H 2190  10.594  -0.774   7.163 -1.6893 -0.2068  0.1600
   17MOL0     H 2191  10.349  -0.825   7.266  2.4735  2.1315 -4.0693
   17MOL0     H 2192  10.429  -0.963   7.354 -2.8466  0.3513  1.1033
   17MOL0     H 2193  10.402  -0.927   7.061 -1.5791 -1.3630 -0.8402
   17MOL0     H 2194  10.508  -1.046   7.141  0.2504 -0.1774  0.4854
   17MOL0     H 2195  10.199  -1.014   7.129  0.7752  1.7484  0.8179
   17MOL0     H 2196  10.267  -1.114   7.257 -0.8896 -2.8427 -0.8696
   17MOL0     H 2197  10.229  -1.083   6.861 -1.6014  0.1032 -0.3612
   17MOL0     H 2198  10.276  -1.448   6.730  0.4173  0.9450  0.4958
   17MOL0     H 2199  10.315  -1.297   6.654  0.3817  1.1988  0.4148
   17MOL0     H 2200  10.097  -1.313   6.576 -0.4286 -0.9188 -0.5116
   17MOL0     H 2201  10.064  -1.236   6.730 -2.9503 -0.6608  0.1928
   17MOL0     H 2202  10.095  -1.538   6.734  0.4493 -0.1493  1.8039
   17MOL0     H 2203   9.991  -1.433   6.831  0.8286  0.1902  0.5739
   17MOL0     H 2204   9.869  -1.586   6.676  3.0040 -0.2144  0.2536
   17MOL0     H 2205   9.921  -1.476   6.535 -1.2261  3.8260 -0.1724
   17MOL0     H 2206   9.712  -1.553   6.478 -2.3713 -0.8322 -0.5969
   17MOL0     H 2207   9.488  -1.597   6.427  0.1781  0.1061 -0.9510
   17MOL0     H 2208   9.003  -1.537   6.590 -1.6808 -0.5142  0.2471
   17MOL0     H 2209   8.759  -1.511   6.585 -2.2094  1.7953 -0.5826
   17MOL0     H 2210   8.566  -1.402   6.639 -1.1019 -1.2502  1.1294
   17MOL0     H 2211   8.542  -1.509   6.497  2.0095  0.4220  1.2253
   17MOL0     H 2212   8.361  -1.271   6.587 -1.9151  0.3613 -1.8415
   17MOL0     H 2213   8.311  -1.427   6.599  0.2401  0.8543  0.8032
   17MOL0     H 2214   8.330  -1.460   6.343 -0.6138 -0.6419  2.1627
   17MOL0     H 2215   8.407  -1.296   6.324  0.8225 -0.4943 -0.6602
   17MOL0     H 2216   8.123  -1.343   6.434  3.5267 -2.1843  2.5648
   17MOL0     H 2217   8.198  -1.190   6.423  0.3847 -0.2829  1.0419
   17MOL0     H 2218   8.088  -1.366   6.207  1.6586 -0.4579 -2.3069
   17MOL0     H 2219   8.223  -1.261   6.168  1.8162  1.2452  2.1627
   17MOL0     H 2220   8.029  -1.119   6.113  0.1540  1.6917  1.2742
   17MOL0     H 2221   8.073  -1.079   6.286  2.3868 -1.2756 -0.1749
   17MOL0     H 2222   7.913  -1.255   6.356  3.7667  0.0113 -0.7997
   17MOL0     H 2223   7.829  -1.109   6.286 -1.5980 -1.1612 -1.0061
   17MOL0     H 2224   7.748  -1.330   6.214  2.6368 -2.6227  0.6408
   17MOL0     H 2225   7.897  -1.339   6.109  0.1252  1.2024 -1.4342
   17MOL0     H 2226   8.790  -1.190   6.313  0.7711  1.3494  1.0028
   17MOL0     H 2227   9.032  -1.209   6.320 -0.3757  0.4776  0.9748
   17MOL0     H 2228   9.356  -1.266   6.680 -2.5373 -2.4660 -0.3452
   17MOL0     H 2229   9.590  -1.237   6.742  1.2886 -2.2695  1.0840
   17MOL0     H 2230  10.030  -0.512   7.106 -1.0494  0.3671 -2.4986
   17MOL0     H 2231   9.860  -0.399   7.009 -2.8525  2.7852  1.4999
   17MOL0     H 2232   9.843   0.193   6.750 -0.0070  1.0638 -0.9618
   17MOL0     H 2233   9.641   0.276   6.624 -0.7970 -1.4428 -1.3101
   17MOL0     H 2234   9.280   0.076   6.623 -1.0986  1.0580 -0.1676
   17MOL0     H 2235   9.414   0.122   6.507 -0.0087 -0.1300 -0.4271
   17MOL0     H 2236   9.286   0.331   6.460 -0.1958 -0.7152 -2.4251
   17MOL0     H 2237   9.225   0.180   6.398  1.2125  0.7265 -0.9820
   17MOL0     H 2238   9.138   0.313   6.657  1.5641 -0.7944 -0.1189
   17MOL0     H 2239   9.056   0.165   6.587 -1.3297 -0.1628 -1.6983
   17MOL0     H 2240   9.042   0.441   6.469 -1.4659  0.2101 -1.1534
   17MOL0     H 2241   8.997   0.288   6.385  0.4271  0.2190  0.1065
   17MOL0     H 2242   8.659   0.324   6.604 -0.4383  0.1529  0.1123
   17MOL0     H 2243   9.400  -0.009   6.803 -0.4690  0.1930 -3.8159
   17MOL0     H 2244   9.590  -0.120   6.893 -0.5208 -1.0555 -1.0273
   18MOL0     O 2245   5.659   1.305   0.520 -0.5221  0.3155 -0.6672
   18MOL0     C 2246   5.592   1.320   0.622  0.1971  0.4556 -0.0150
   18MOL0     O 2247   5.460   1.358   0.626  0.0564 -0.6603  0.2945
   18MOL0     C 2248   5.385   1.370   0.509  0.1329 -0.3444  0.0914
   18MOL0     C 2249   5.402   1.322   0.376  0.8234  0.4281  0.0718
   18MOL0     C 2250   5.308   1.348   0.279  0.7546 -0.1855  0.3049
   18MOL0     C 2251   5.186   1.403   0.315  0.0570 -0.0689  0.2318
   18MOL0     O 2252   5.091   1.411   0.212 -0.1193 -0.5966  0.4770
   18MOL0     C 2253   5.100   1.536   0.138  0.3692  0.3888 -0.4711
   18MOL0     C 2254   4.977   1.550   0.044  0.0926  0.1398 -0.1881
   18MOL0     C 2255   4.844   1.520   0.126 -0.1944 -0.2040  0.9250
   18MOL0     C 2256   4.725   1.594   0.058  0.0022 -0.7750  0.0043
   18MOL0     C 2257   4.710   1.567  -0.092 -0.3041 -0.2262 -0.5352
   18MOL0     C 2258   4.575   1.588  -0.139  0.4523  0.1653 -0.4363
   18MOL0     C 2259   4.570   1.539  -0.286 -0.5747  0.3439  0.8684
   18MOL0     C 2260   4.444   1.568  -0.374 -0.1129  0.3291 -0.1144
   18MOL0     N 2261   4.437   1.464  -0.476  0.2659  0.7160  0.3726
   18MOL0     C 2262   4.525   1.450  -0.578 -0.4792 -0.4183 -1.2554
   18MOL0     C 2263   4.508   1.324  -0.629 -1.2041 -0.2475 -0.5065
   18MOL0     C 2264   4.598   1.260  -0.730  0.9507 -0.1218 -0.1431
   18MOL0     C 2265   4.730   1.231  -0.671 -0.7345  0.2771  0.4211
   18MOL0     C 2266   4.810   1.121  -0.748  0.3134  0.4512  0.2960
   18MOL0     C 2267   4.958   1.140  -0.727 -0.1323 -0.5548  0.5597
   18MOL0     O 2268   5.008   1.244  -0.806  0.5465 -1.5147 -0.4830
   18MOL0     C 2269   5.140   1.249  -0.845  0.4684 -0.6244 -0.0700
   18MOL0     C 2270   5.233   1.160  -0.796  0.5514 -0.3312 -0.1959
   18MOL0     C 2271   5.367   1.178  -0.835  0.4345  1.2355 -0.3185
   18MOL0     C 2272   5.405   1.282  -0.917 -0.7322  0.5500 -0.1326
   18MOL0     C 2273   5.545   1.287  -0.969 -0.3109  0.2645 -0.1444
   18MOL0     O 2274   5.639   1.263  -0.873  0.7374  0.0206  0.1340
   18MOL0     C 2275   5.778   1.257  -0.886  0.6274 -0.1539 -0.5601
   18MOL0     C 2276   5.846   1.250  -1.003  0.0588  0.7937  0.1760
   18MOL0     C 2277   5.986   1.238  -0.991 -0.0598 -0.4679  0.3994
   18MOL0     C 2278   6.057   1.249  -0.870 -0.3931 -0.1712 -0.4832
   18MOL0     O 2279   6.193   1.251  -0.868  0.0936  0.1665 -0.1734
   18MOL0     C 2280   6.264   1.306  -0.976  1.1592 -0.4894  0.2700
   18MOL0     C 2281   6.407   1.333  -0.928  0.4428 -0.7358  0.3627
   18MOL0     C 2282   6.513   1.264  -1.012  0.0189 -0.4125  0.0732
   18MOL0     C 2283   6.660   1.302  -0.965 -0.2134  0.2383  0.1030
   18MOL0     C 2284   6.765   1.196  -0.982  0.9799  0.3330 -0.0120
   18MOL0     C 2285   6.905   1.254  -0.972  1.1998 -0.0101  0.7055
   18MOL0     C 2286   7.014   1.149  -0.968 -0.1067  0.3035  0.4488
   18MOL0     C 2287   6.996   1.027  -0.880  0.8178 -0.1806 -1.5957
   18MOL0    Cl 2288   6.968   1.077  -0.712  0.0418  0.2045 -0.2039
   18MOL0     C 2289   5.980   1.245  -0.754 -0.7797  0.0629  0.4871
   18MOL0     C 2290   5.842   1.245  -0.763 -0.2947  0.3756  0.2117
   18MOL0     O 2291   5.558   1.321  -1.086 -0.4318  0.1550  0.2942
   18MOL0     C 2292   5.306   1.366  -0.956  0.7268 -0.0543  0.8415
   18MOL0     C 2293   5.176   1.357  -0.925  0.5374 -0.4324  1.2637
   18MOL0     N 2294   4.403   1.267  -0.571  0.2414 -0.7105  0.5530
   18MOL0     N 2295   4.364   1.350  -0.467  0.0403  0.1648  0.3255
   18MOL0     C 2296   5.168   1.456   0.447  0.0974  0.5115  0.5178
   18MOL0     C 2297   5.264   1.437   0.535 -1.1291 -0.7086 -0.0943
   18MOL0     C 2298   5.643   1.273   0.750  0.8423  0.7260  0.6820
   18MOL0     C 2299   5.557   1.270   0.858  0.7944 -0.5440 -0.0398
   18MOL0     C 2300   5.607   1.218   0.980  0.2202  0.4109 -0.2223
   18MOL0     C 2301   5.738   1.167   0.996 -0.5304 -0.2071 -0.9061
   18MOL0     O 2302   5.770   1.118   1.122  0.6505 -0.1948  0.3768
   18MOL0     C 2303   5.900   1.070   1.157  0.5546  0.5446  0.5844
   18MOL0     C 2304   6.000   1.187   1.169 -0.8363 -0.5477  0.6437
   18MOL0     C 2305   6.140   1.131   1.137 -0.0653  0.3935  0.1404
   18MOL0     C 2306   6.254   1.234   1.154  0.0401 -0.3145 -0.0725
   18MOL0     C 2307   6.247   1.327   1.268  0.1621  0.0115 -0.5915
   18MOL0     C 2308   6.233   1.408   1.358  1.3269 -0.1645  0.2264
   18MOL0     C 2309   5.823   1.181   0.886 -0.4230 -0.3726 -0.0966
   18MOL0     C 2310   5.778   1.232   0.766  0.9061  1.0927  0.2588
   18MOL0     H 2311   5.492   1.269   0.349 -0.0035 -0.4909 -1.0052
   18MOL0     H 2312   5.331   1.323   0.176 -2.1036 -0.7543 -0.2951
   18MOL0     H 2313   5.195   1.537   0.083  1.0372 -2.7507  0.4360
   18MOL0     H 2314   5.101   1.628   0.197  0.7394 -1.3098  2.3242
   18MOL0     H 2315   4.984   1.484  -0.044  0.5518 -0.8173  0.5482
   18MOL0     H 2316   4.974   1.655   0.015  1.5430  0.5893  1.1971
   18MOL0     H 2317   4.866   1.566   0.223  1.0473 -1.2282  1.1596
   18MOL0     H 2318   4.825   1.413   0.140 -1.3668 -0.4359 -1.8616
   18MOL0     H 2319   4.635   1.579   0.118 -1.1572  1.9821 -0.8769
   18MOL0     H 2320   4.742   1.702   0.066  3.5045 -1.2435  0.5365
   18MOL0     H 2321   4.736   1.463  -0.113 -0.4405  0.1018 -2.5360
   18MOL0     H 2322   4.788   1.627  -0.141 -0.9862  0.4400 -0.8368
   18MOL0     H 2323   4.544   1.692  -0.138  1.4771  0.4832  0.2696
   18MOL0     H 2324   4.514   1.530  -0.070  2.7340 -3.2117 -0.9842
   18MOL0     H 2325   4.651   1.590  -0.339 -0.9582  0.0703  0.0161
   18MOL0     H 2326   4.585   1.431  -0.274 -1.5384  0.3011  1.7773
   18MOL0     H 2327   4.459   1.669  -0.413  0.7469  1.6862  3.3282
   18MOL0     H 2328   4.353   1.567  -0.313 -0.3598  0.8463 -0.4734
   18MOL0     H 2329   4.603   1.522  -0.599  0.9875 -1.6773 -0.3335
   18MOL0     H 2330   4.607   1.333  -0.811 -0.1805  1.1466  0.8226
   18MOL0     H 2331   4.538   1.179  -0.772 -0.4219  0.2278  1.0453
   18MOL0     H 2332   4.719   1.192  -0.570  1.0780 -2.4686 -0.3398
   18MOL0     H 2333   4.799   1.316  -0.670 -1.1651  0.6409 -0.2581
   18MOL0     H 2334   4.788   1.020  -0.714  2.8430  0.1419  1.1819
   18MOL0     H 2335   4.787   1.122  -0.855 -0.4699 -0.5098  0.4451
   18MOL0     H 2336   5.008   1.049  -0.761 -0.3808  0.3833 -2.6557
   18MOL0     H 2337   4.986   1.148  -0.622 -2.6561 -3.1548  1.5442
   18MOL0     H 2338   5.208   1.079  -0.728 -1.5716 -0.7932 -1.4285
   18MOL0     H 2339   5.441   1.104  -0.806 -1.5792 -0.3740  1.0145
   18MOL0     H 2340   5.783   1.237  -1.091 -0.2906 -0.4335  0.5848
   18MOL0     H 2341   6.023   1.222  -1.091 -4.0249  0.2352 -1.3492
   18MOL0     H 2342   6.215   1.395  -1.016  0.6346 -0.3842  1.1333
   18MOL0     H 2343   6.261   1.228  -1.054  1.6678  0.4649 -0.7312
   18MOL0     H 2344   6.415   1.287  -0.829 -0.5756 -2.0398 -0.1285
   18MOL0     H 2345   6.432   1.440  -0.926  3.5782 -1.3528  0.1077
   18MOL0     H 2346   6.497   1.287  -1.118  0.0138  0.9032  0.3415
   18MOL0     H 2347   6.501   1.160  -0.981  1.0115 -0.6078 -0.1440
   18MOL0     H 2348   6.702   1.384  -1.024  0.4829  1.1123  1.7629
   18MOL0     H 2349   6.668   1.344  -0.865  1.6246  2.3832 -0.8576
   18MOL0     H 2350   6.745   1.139  -1.072 -0.4222 -0.5205  0.8004
   18MOL0     H 2351   6.767   1.127  -0.897  1.2988 -1.7996 -1.6909
   18MOL0     H 2352   6.922   1.309  -0.879 -3.5091  4.2670 -0.5391
   18MOL0     H 2353   6.927   1.326  -1.051  1.3049 -1.6881 -0.8712
   18MOL0     H 2354   7.029   1.105  -1.067 -1.4776 -1.5289  1.0032
   18MOL0     H 2355   7.107   1.196  -0.937  1.7652 -1.3198 -2.2596
   18MOL0     H 2356   7.085   0.966  -0.865 -1.1653 -2.5560  2.1942
   18MOL0     H 2357   6.919   0.960  -0.921 -1.5470  1.2948  0.1407
   18MOL0     H 2358   6.030   1.245  -0.658  0.1444 -2.5951  0.1151
   18MOL0     H 2359   5.788   1.243  -0.669 -1.1313 -1.5840 -0.2480
   18MOL0     H 2360   5.338   1.441  -1.027  1.2989 -1.7407 -0.7773
   18MOL0     H 2361   5.100   1.428  -0.954 -0.6833 -1.3841  2.0347
   18MOL0     H 2362   5.077   1.505   0.479  0.4170  0.6060  1.3099
   18MOL0     H 2363   5.238   1.456   0.639  0.2001 -0.2662  0.1740
   18MOL0     H 2364   5.450   1.289   0.850  0.6210 -1.2802  0.4102
   18MOL0     H 2365   5.536   1.218   1.062 -0.0099 -0.7232 -0.4063
   18MOL0     H 2366   5.928   1.012   1.069  0.7915  0.7236  0.5412
   18MOL0     H 2367   5.911   1.009   1.248  0.8278 -1.2546 -0.6098
   18MOL0     H 2368   5.967   1.270   1.106 -4.1235 -1.8294  0.4753
   18MOL0     H 2369   6.005   1.224   1.272 -0.1740 -0.1587  0.4797
   18MOL0     H 2370   6.148   1.094   1.035  1.0780 -0.5130  0.5439
   18MOL0     H 2371   6.165   1.051   1.207  1.4191  0.6969 -0.0113
   18MOL0     H 2372   6.349   1.180   1.152 -0.1025 -0.5703  0.0268
   18MOL0     H 2373   6.254   1.290   1.060 -1.1300  0.8268  0.5695
   18MOL0     H 2374   6.224   1.474   1.442  1.7923 -1.6197  1.4670
   18MOL0     H 2375   5.928   1.151   0.884 -0.6597 -1.3031 -2.6893
   18MOL0     H 2376   5.847   1.250   0.684  0.7206 -3.1255 -1.0666
   19MOL0     O 2377   4.518   8.961  10.395  0.1411  0.5164 -0.4434
   19MOL0     C 2378   4.512   8.858  10.338  0.2296  0.6663  1.0089
   19MOL0     O 2379   4.399   8.784  10.303  0.0248 -0.8535  0.2090
   19MOL0     C 2380   4.277   8.830  10.354 -0.9771  0.3444 -0.2300
   19MOL0     C 2381   4.222   8.785  10.482  0.0714  0.8696  0.3770
   19MOL0     C 2382   4.111   8.851  10.536  0.1678 -0.9408  0.3427
   19MOL0     C 2383   4.039   8.956  10.466 -0.4249  0.6784  0.5534
   19MOL0     O 2384   3.936   9.026  10.524 -0.4490  0.0708  0.5228
   19MOL0     C 2385   3.976   9.088  10.644  0.4205  0.4379 -0.1359
   19MOL0     C 2386   3.870   9.194  10.694 -0.1158  0.5357 -0.3739
   19MOL0     C 2387   3.762   9.125  10.779 -0.1400 -0.3983 -0.7972
   19MOL0     C 2388   3.669   9.228  10.834 -0.3675  0.9085  0.5356
   19MOL0     C 2389   3.541   9.155  10.878  0.6280  0.4770  0.2249
   19MOL0     C 2390   3.450   9.264  10.913  0.1292 -0.0213 -0.0229
   19MOL0     C 2391   3.310   9.214  10.945  0.4519  0.4015  0.5222
   19MOL0     C 2392   3.224   9.322  11.017  0.4217  0.2356 -0.9763
   19MOL0     N 2393   3.095   9.261  11.066  0.2481  0.1840 -0.7167
   19MOL0     C 2394   3.009   9.185  10.988  0.5635 -0.8511 -0.1963
   19MOL0     C 2395   2.926   9.126  11.082  0.8588 -0.8647 -0.2652
   19MOL0     C 2396   2.826   9.024  11.034 -0.7499  0.1014 -0.0247
   19MOL0     C 2397   2.698   9.029  11.111 -0.3563 -0.6628 -0.3865
   19MOL0     C 2398   2.608   9.145  11.056 -0.2195 -0.5065  0.7123
   19MOL0     C 2399   2.481   9.122  11.129  1.1460 -0.1265  0.9731
   19MOL0     O 2400   2.386   9.222  11.086  0.0892 -0.3567  0.3797
   19MOL0     C 2401   2.260   9.212  11.139 -1.3477  0.7594  0.2488
   19MOL0     C 2402   2.227   9.285  11.250 -0.5904  0.2542 -0.5821
   19MOL0     C 2403   2.097   9.277  11.301  0.7582 -0.5230  0.0827
   19MOL0     C 2404   1.993   9.204  11.234 -0.3793 -0.9361  0.3062
   19MOL0     C 2405   1.857   9.224  11.291 -0.0306 -0.4265  0.0950
   19MOL0     O 2406   1.844   9.295  11.404  0.1211 -0.1144 -0.7598
   19MOL0     C 2407   1.717   9.294  11.461  0.9331  0.0012 -0.1604
   19MOL0     C 2408   1.611   9.353  11.396  0.4648  0.1672  0.2928
   19MOL0     C 2409   1.486   9.358  11.456  0.3352  0.4907  0.0599
   19MOL0     C 2410   1.457   9.311  11.585 -0.3647  0.0236 -0.2866
   19MOL0     O 2411   1.331   9.306  11.638  0.0580  0.6134 -0.3084
   19MOL0     C 2412   1.250   9.430  11.659 -0.2837  0.6435 -0.1865
   19MOL0     C 2413   1.099   9.394  11.660  0.2413 -0.4507  1.1385
   19MOL0     C 2414   1.069   9.263  11.578 -0.6815 -0.9896  1.4512
   19MOL0     C 2415   0.920   9.251  11.571 -0.4289  0.4047 -0.1325
   19MOL0     C 2416   0.903   9.139  11.478  0.5488 -0.0570 -0.0456
   19MOL0     C 2417   0.752   9.103  11.458  0.1549  0.4580  0.5803
   19MOL0     C 2418   0.692   9.043  11.583 -0.0173 -0.5432 -0.0989
   19MOL0     C 2419   0.548   8.991  11.559  0.3218 -0.2310  0.2255
   19MOL0    Cl 2420   0.431   9.103  11.479  0.3282  0.1198  0.3099
   19MOL0     C 2421   1.559   9.244  11.655 -0.8920 -0.7457  0.0229
   19MOL0     C 2422   1.690   9.251  11.591  0.0306  0.1521 -0.1114
   19MOL0     O 2423   1.769   9.164  11.229  0.1632  0.1365  0.1762
   19MOL0     C 2424   2.025   9.128  11.122  0.2473  0.0221 -0.3842
   19MOL0     C 2425   2.164   9.130  11.073 -0.2929  0.1007 -0.2782
   19MOL0     N 2426   2.959   9.162  11.214 -0.5443 -0.3001 -0.7244
   19MOL0     N 2427   3.063   9.244  11.197  0.0328 -0.2611  0.4643
   19MOL0     C 2428   4.083   8.995  10.340  0.2974  0.3120 -0.6057
   19MOL0     C 2429   4.199   8.929  10.281 -0.2250 -0.0702 -0.4638
   19MOL0     C 2430   4.634   8.809  10.275  0.0336  0.0902 -0.0898
   19MOL0     C 2431   4.625   8.724  10.159  0.1983 -0.5633 -0.7661
   19MOL0     C 2432   4.736   8.705  10.074  0.3758  0.7774 -0.0181
   19MOL0     C 2433   4.861   8.760  10.098  0.2314 -0.2197  0.2530
   19MOL0     O 2434   4.967   8.734  10.014 -0.0633 -0.1782 -0.0659
   19MOL0     C 2435   5.111   8.756  10.055 -0.0672  0.2660  1.0209
   19MOL0     C 2436   5.208   8.644  10.011 -0.3208  0.5567 -0.0842
   19MOL0     C 2437   5.263   8.575  10.135  0.2781 -0.0622 -0.4783
   19MOL0     C 2438   5.341   8.446  10.101  0.0718 -0.1202 -0.1199
   19MOL0     C 2439   5.472   8.486  10.050 -0.1339  0.1870  0.5592
   19MOL0     C 2440   5.580   8.527  10.001 -0.4774  0.0185 -0.0182
   19MOL0     C 2441   4.873   8.845  10.218 -0.2646 -0.0632  0.6057
   19MOL0     C 2442   4.765   8.868  10.298  0.8312  0.2789  0.2375
   19MOL0     H 2443   4.290   8.711  10.521 -1.3003 -2.2858 -2.6744
   19MOL0     H 2444   4.078   8.843  10.639  0.1444  0.8658  0.5140
   19MOL0     H 2445   4.072   9.136  10.624 -0.0633  0.0919 -3.8173
   19MOL0     H 2446   3.991   9.009  10.718  0.8368 -0.0611 -0.7493
   19MOL0     H 2447   3.812   9.243  10.614 -3.6973 -0.8731  1.1508
   19MOL0     H 2448   3.918   9.269  10.758  0.0510  2.5966 -2.7140
   19MOL0     H 2449   3.804   9.057  10.855  0.0335 -1.3529 -1.7258
   19MOL0     H 2450   3.708   9.054  10.715 -3.5275  0.6955  0.6184
   19MOL0     H 2451   3.714   9.274  10.923 -0.0484  1.7254 -0.0376
   19MOL0     H 2452   3.653   9.304  10.757 -0.5547 -0.9465 -1.3316
   19MOL0     H 2453   3.554   9.086  10.963  1.2941 -2.1637 -1.8732
   19MOL0     H 2454   3.495   9.102  10.794 -0.4893  2.9706 -0.8361
   19MOL0     H 2455   3.438   9.348  10.844 -3.8379 -0.5387 -0.2449
   19MOL0     H 2456   3.487   9.291  11.012  1.1872  1.1492 -0.7038
   19MOL0     H 2457   3.262   9.196  10.849  2.9677 -0.9786 -0.5773
   19MOL0     H 2458   3.304   9.121  11.003 -0.5992 -1.9700 -3.0892
   19MOL0     H 2459   3.203   9.403  10.947  0.8508  0.4251 -0.8902
   19MOL0     H 2460   3.290   9.366  11.093  1.6066 -1.1227 -1.1603
   19MOL0     H 2461   3.003   9.183  10.879  1.3802  0.1921 -0.2813
   19MOL0     H 2462   2.874   8.928  11.056 -0.3953  0.0730 -0.8651
   19MOL0     H 2463   2.805   9.026  10.927 -2.0730  0.5149  0.2338
   19MOL0     H 2464   2.711   9.046  11.219 -2.0638 -0.5592 -0.1685
   19MOL0     H 2465   2.646   8.933  11.104  0.2174 -0.8655 -2.6866
   19MOL0     H 2466   2.656   9.240  11.082  0.5069 -0.6964  0.1037
   19MOL0     H 2467   2.594   9.137  10.948 -0.1686 -0.3255  0.6920
   19MOL0     H 2468   2.494   9.129  11.238 -1.5528 -0.9101  1.4307
   19MOL0     H 2469   2.452   9.018  11.112  2.0894 -0.0613 -1.3686
   19MOL0     H 2470   2.305   9.342  11.299 -0.5512 -0.0062 -0.3395
   19MOL0     H 2471   2.073   9.337  11.389  0.7615 -0.6804  0.1902
   19MOL0     H 2472   1.640   9.392  11.299  0.6171  1.0408  0.6842
   19MOL0     H 2473   1.398   9.396  11.405 -0.4269  0.9725  1.6466
   19MOL0     H 2474   1.267   9.509  11.585 -3.1439 -0.4120 -2.1636
   19MOL0     H 2475   1.286   9.457  11.758  4.0563 -0.3191 -1.2821
   19MOL0     H 2476   1.046   9.478  11.613  2.5682  0.0317 -0.8533
   19MOL0     H 2477   1.052   9.373  11.756 -0.4470  1.3260  1.2280
   19MOL0     H 2478   1.111   9.177  11.633  2.5135  0.8325  2.1314
   19MOL0     H 2479   1.113   9.265  11.478 -1.3060 -1.9416  1.1421
   19MOL0     H 2480   0.878   9.217  11.666  2.2267 -1.2437  0.5738
   19MOL0     H 2481   0.876   9.344  11.534  0.8338  1.8863  1.9065
   19MOL0     H 2482   0.959   9.047  11.498  0.8065 -0.1268 -1.0300
   19MOL0     H 2483   0.940   9.165  11.379  0.2081 -1.5822 -0.6037
   19MOL0     H 2484   0.736   9.037  11.372  0.2196  0.9521  0.1842
   19MOL0     H 2485   0.696   9.189  11.421  0.1805 -1.0862 -3.5417
   19MOL0     H 2486   0.754   8.957  11.611 -0.6965 -1.7569 -2.1552
   19MOL0     H 2487   0.688   9.125  11.656 -1.6083 -0.2093 -0.5284
   19MOL0     H 2488   0.513   8.957  11.657 -1.2057 -0.5225 -0.3922
   19MOL0     H 2489   0.553   8.901  11.497  0.4660 -0.3125  0.3547
   19MOL0     H 2490   1.542   9.202  11.753 -1.7018  0.0707  0.2445
   19MOL0     H 2491   1.777   9.204  11.637 -0.8113 -1.0698  0.2527
   19MOL0     H 2492   1.957   9.060  11.073  1.2022 -1.1435 -0.1651
   19MOL0     H 2493   2.188   9.071  10.986 -2.2839  0.6602 -1.2585
   19MOL0     H 2494   4.039   9.075  10.281 -1.9887  0.0534  0.6473
   19MOL0     H 2495   4.239   8.965  10.187  0.9203  0.3677  0.1662
   19MOL0     H 2496   4.528   8.685  10.130 -1.9843  2.6549  1.5058
   19MOL0     H 2497   4.724   8.644   9.985  1.2661 -2.5258  1.9824
   19MOL0     H 2498   5.114   8.773  10.163 -0.4946 -1.1772  1.2842
   19MOL0     H 2499   5.138   8.847  10.000  1.6260 -0.2398  0.9655
   19MOL0     H 2500   5.157   8.572   9.946 -1.8135  1.5315 -0.0555
   19MOL0     H 2501   5.290   8.685   9.953 -0.9060  0.1442 -1.2422
   19MOL0     H 2502   5.188   8.558  10.213  0.0089 -0.3789 -0.7983
   19MOL0     H 2503   5.343   8.641  10.170  0.3657  0.0409 -0.8691
   19MOL0     H 2504   5.347   8.394  10.197 -0.4883  0.6556  0.3566
   19MOL0     H 2505   5.290   8.372  10.039 -0.8102  0.5279 -0.2022
   19MOL0     H 2506   5.675   8.568   9.970 -1.4289  2.0195 -0.4353
   19MOL0     H 2507   4.962   8.907  10.229 -1.4191  2.0019 -0.9531
   19MOL0     H 2508   4.764   8.953  10.365 -0.0476 -1.0820  2.0195
   20MOL0     O 2509   9.454   5.255   9.034  0.3434 -0.1027 -0.8852
   20MOL0     C 2510   9.442   5.379   9.052 -0.0693  0.6961 -1.0681
   20MOL0     O 2511   9.530   5.463   9.110 -0.3766 -0.8831  0.4479
   20MOL0     C 2512   9.641   5.411   9.170  0.6492 -0.0881  0.7624
   20MOL0     C 2513   9.731   5.337   9.090  0.1810  0.2169  0.9647
   20MOL0     C 2514   9.857   5.312   9.145 -0.2402  0.3205 -0.3517
   20MOL0     C 2515   9.896   5.346   9.274 -0.1160  0.8840 -0.6184
   20MOL0     O 2516  10.014   5.324   9.329  0.1538  0.0560  0.1561
   20MOL0     C 2517  10.128   5.332   9.245 -0.4128  0.3561 -0.1874
   20MOL0     C 2518  10.245   5.412   9.314  0.3147  0.5395 -0.3556
   20MOL0     C 2519  10.376   5.423   9.237 -0.1897  0.0636  0.5876
   20MOL0     C 2520  10.427   5.293   9.186  0.3111  0.0818  0.2679
   20MOL0     C 2521  10.565   5.285   9.120 -0.3844  0.9617  0.3939
   20MOL0     C 2522  10.679   5.281   9.221 -0.2211  0.0482 -0.1298
   20MOL0     C 2523  10.808   5.342   9.160  0.0737 -0.9979 -0.1056
   20MOL0     C 2524  10.919   5.312   9.259  0.4774  0.3625  0.3012
   20MOL0     N 2525  11.048   5.395   9.253  0.4215 -0.7408 -0.5513
   20MOL0     C 2526  11.157   5.359   9.180  0.7174 -0.6407 -0.2628
   20MOL0     C 2527  11.235   5.473   9.187 -0.0127  0.1888 -0.1540
   20MOL0     C 2528  11.371   5.507   9.117 -0.2651 -0.4416  0.4342
   20MOL0     C 2529  11.341   5.519   8.965  0.5375 -0.5540 -0.1446
   20MOL0     C 2530  11.217   5.611   8.938 -0.3352 -0.5920  0.0406
   20MOL0     C 2531  11.228   5.763   8.988  0.0111  0.6308 -0.5708
   20MOL0     O 2532  11.124   5.841   8.925  0.2478  0.0280 -0.6795
   20MOL0     C 2533  11.004   5.860   8.990 -0.1482  0.5874  0.5811
   20MOL0     C 2534  10.960   5.767   9.086  0.1513 -1.3355 -0.2493
   20MOL0     C 2535  10.829   5.782   9.135 -0.5515  0.8200 -0.2035
   20MOL0     C 2536  10.747   5.888   9.097 -0.1009 -0.6316 -0.3995
   20MOL0     C 2537  10.613   5.891   9.153  1.3909  0.2606  1.0638
   20MOL0     O 2538  10.590   5.821   9.259 -0.7322  0.2768 -0.2013
   20MOL0     C 2539  10.476   5.786   9.331 -0.1901  0.2586  0.4957
   20MOL0     C 2540  10.489   5.728   9.454  0.0026 -0.3232 -0.3341
   20MOL0     C 2541  10.380   5.677   9.528  0.6108  0.9163  0.5201
   20MOL0     C 2542  10.246   5.698   9.499  0.0095  0.4542  0.1961
   20MOL0     O 2543  10.146   5.652   9.577  0.2549 -0.1594 -0.4424
   20MOL0     C 2544  10.016   5.719   9.570 -0.7536  0.1772  0.1498
   20MOL0     C 2545   9.921   5.664   9.686  0.4891 -0.0090  0.6385
   20MOL0     C 2546   9.773   5.704   9.665 -0.9655 -0.1513 -0.3276
   20MOL0     C 2547   9.681   5.622   9.760  0.4992 -0.5259  0.1450
   20MOL0     C 2548   9.540   5.682   9.757  0.0212  0.8303  0.0639
   20MOL0     C 2549   9.446   5.609   9.857  0.0873 -0.5218  0.6763
   20MOL0     C 2550   9.319   5.701   9.880 -0.7871 -0.0311  0.2580
   20MOL0     C 2551   9.259   5.774   9.753 -0.0497  0.4779  0.2959
   20MOL0    Cl 2552   9.112   5.866   9.805 -0.0574  0.3355  0.0517
   20MOL0     C 2553  10.225   5.764   9.378  0.2681  0.2701 -0.1465
   20MOL0     C 2554  10.337   5.803   9.298 -0.0504 -0.6285  0.8867
   20MOL0     O 2555  10.534   5.967   9.102  0.2547  0.6603 -0.1043
   20MOL0     C 2556  10.791   5.977   8.994  0.2243 -0.1738  0.8014
   20MOL0     C 2557  10.917   5.956   8.941 -0.9357  0.2090 -0.3383
   20MOL0     N 2558  11.186   5.563   9.275  0.1360 -0.5696  0.0140
   20MOL0     N 2559  11.070   5.518   9.307  0.1950 -0.0176  0.4725
   20MOL0     C 2560   9.805   5.416   9.354  0.0629  0.0103 -0.5393
   20MOL0     C 2561   9.675   5.452   9.299 -0.3150  0.9856 -0.2214
   20MOL0     C 2562   9.329   5.459   8.977  0.0384 -0.1486  0.2225
   20MOL0     C 2563   9.226   5.381   8.915  0.0385 -0.1237 -0.0173
   20MOL0     C 2564   9.120   5.436   8.842 -0.4948 -0.3260  0.5929
   20MOL0     C 2565   9.118   5.577   8.825 -0.6234 -0.0446  0.0482
   20MOL0     O 2566   9.020   5.630   8.735 -0.1045  0.3161 -0.2096
   20MOL0     C 2567   8.959   5.737   8.804  0.4303 -0.1095 -0.1304
   20MOL0     C 2568   8.810   5.730   8.770 -0.4408  0.0902 -0.6185
   20MOL0     C 2569   8.771   5.809   8.648  0.0802 -0.6195 -0.0824
   20MOL0     C 2570   8.612   5.817   8.641  0.6385 -0.1240  0.3163
   20MOL0     C 2571   8.574   5.913   8.533 -0.0497  0.0875  0.4533
   20MOL0     C 2572   8.550   5.977   8.430  0.7817  0.7919 -0.0818
   20MOL0     C 2573   9.229   5.656   8.875  0.1291  0.3815 -0.0478
   20MOL0     C 2574   9.332   5.590   8.947 -0.2266 -0.3554 -0.4283
   20MOL0     H 2575   9.713   5.300   8.989  0.5510 -1.4551  1.4748
   20MOL0     H 2576   9.921   5.241   9.094  0.6299  1.0877 -0.3677
   20MOL0     H 2577  10.100   5.383   9.152 -1.6732  1.9476  0.9889
   20MOL0     H 2578  10.164   5.230   9.234  0.9067  0.3284  3.1109
   20MOL0     H 2579  10.269   5.369   9.412  0.9744  0.6109 -0.4842
   20MOL0     H 2580  10.212   5.515   9.332  1.4434  1.3602 -2.6030
   20MOL0     H 2581  10.450   5.472   9.301 -0.2416 -0.7690  1.3109
   20MOL0     H 2582  10.353   5.480   9.146 -2.4062 -2.7660 -0.8126
   20MOL0     H 2583  10.410   5.212   9.257  0.3003 -0.4614 -0.3420
   20MOL0     H 2584  10.351   5.274   9.109  0.4118 -2.0642  0.6415
   20MOL0     H 2585  10.574   5.370   9.052  2.1708  0.7709  0.4075
   20MOL0     H 2586  10.570   5.190   9.065 -1.2857  1.2664 -0.2351
   20MOL0     H 2587  10.707   5.181   9.256  0.0632  0.7345  1.7594
   20MOL0     H 2588  10.654   5.322   9.320  2.3881 -1.8584  1.4515
   20MOL0     H 2589  10.830   5.297   9.063 -2.1602  2.6334 -2.5207
   20MOL0     H 2590  10.790   5.450   9.154  0.0566 -1.0614 -1.7902
   20MOL0     H 2591  10.942   5.206   9.251 -0.0317  0.4003 -2.1783
   20MOL0     H 2592  10.878   5.331   9.359 -0.5739  1.0586 -0.2498
   20MOL0     H 2593  11.185   5.268   9.129  1.7659 -2.2483  2.9056
   20MOL0     H 2594  11.430   5.418   9.141 -0.3881 -1.1627 -1.6997
   20MOL0     H 2595  11.408   5.600   9.162  1.2188 -0.4781 -0.6326
   20MOL0     H 2596  11.324   5.418   8.926 -0.6357 -1.4486  2.4721
   20MOL0     H 2597  11.426   5.560   8.911 -0.0602  2.0143  0.7351
   20MOL0     H 2598  11.209   5.614   8.829  1.3468  2.5835 -0.1203
   20MOL0     H 2599  11.129   5.559   8.976 -0.2341 -0.2767  0.7195
   20MOL0     H 2600  11.324   5.803   8.954  0.8524  0.0754  1.0541
   20MOL0     H 2601  11.224   5.769   9.097  2.3048  1.8352 -0.4951
   20MOL0     H 2602  11.022   5.687   9.124  1.1247 -0.2936  0.4291
   20MOL0     H 2603  10.796   5.709   9.208  2.4061 -0.6523 -0.1705
   20MOL0     H 2604  10.592   5.725   9.485  1.7670  5.1064 -4.2521
   20MOL0     H 2605  10.398   5.619   9.619 -0.1997 -2.5155 -1.3337
   20MOL0     H 2606   9.977   5.693   9.471  0.4294 -0.6269 -0.1353
   20MOL0     H 2607  10.035   5.826   9.576  2.0146 -0.2214 -0.2108
   20MOL0     H 2608   9.977   5.699   9.773  1.6121  0.0593 -0.0871
   20MOL0     H 2609   9.928   5.558   9.660 -2.4727  0.5033 -3.1179
   20MOL0     H 2610   9.752   5.683   9.560  1.4789 -0.8426 -0.7446
   20MOL0     H 2611   9.759   5.809   9.691 -0.2987 -0.6530  2.3954
   20MOL0     H 2612   9.672   5.520   9.723 -0.1111  0.4825 -2.7522
   20MOL0     H 2613   9.719   5.621   9.862 -1.1399  1.6520  0.8495
   20MOL0     H 2614   9.496   5.658   9.660  0.0490  0.0922  0.2234
   20MOL0     H 2615   9.543   5.791   9.753 -1.0777  0.8550 -0.4744
   20MOL0     H 2616   9.488   5.593   9.956  0.1886 -0.5608  0.6275
   20MOL0     H 2617   9.426   5.507   9.824  2.7026 -1.2676  1.2019
   20MOL0     H 2618   9.247   5.642   9.937 -0.9203  1.7429  2.0533
   20MOL0     H 2619   9.343   5.776   9.955  0.5872 -0.7305  0.5627
   20MOL0     H 2620   9.235   5.695   9.681  0.2069 -1.3059  2.0857
   20MOL0     H 2621   9.324   5.844   9.700  0.6099 -0.3852 -0.0474
   20MOL0     H 2622  10.124   5.780   9.342  0.5252  1.4853 -0.3889
   20MOL0     H 2623  10.314   5.849   9.203  2.5598 -1.4392 -0.2212
   20MOL0     H 2624  10.737   6.057   8.945  4.1083  2.4552  0.4107
   20MOL0     H 2625  10.955   6.027   8.868 -0.6104 -1.9611 -2.4025
   20MOL0     H 2626   9.817   5.434   9.461 -1.4178 -1.4457 -0.0861
   20MOL0     H 2627   9.604   5.506   9.360 -0.3004 -0.0234  0.7263
   20MOL0     H 2628   9.228   5.273   8.927 -1.3175 -0.1059  0.5518
   20MOL0     H 2629   9.047   5.371   8.793  1.7074 -0.0987 -3.4732
   20MOL0     H 2630   9.001   5.834   8.772 -1.8581  0.9450 -0.1268
   20MOL0     H 2631   8.973   5.737   8.912  0.3064  0.3337 -0.1105
   20MOL0     H 2632   8.790   5.623   8.763 -0.3719 -0.0330  0.8244
   20MOL0     H 2633   8.751   5.771   8.853  0.6137 -0.1967  0.2939
   20MOL0     H 2634   8.818   5.759   8.563 -0.0012  0.6257 -0.8824
   20MOL0     H 2635   8.815   5.909   8.649  2.7453 -1.6893  1.5643
   20MOL0     H 2636   8.574   5.716   8.630  1.7281 -0.8166  2.2384
   20MOL0     H 2637   8.590   5.855   8.742  2.2587  1.1893  0.2374
   20MOL0     H 2638   8.538   6.038   8.343  0.4461  1.6702  0.5685
   20MOL0     H 2639   9.234   5.764   8.863  1.2576  0.3537  0.0812
   20MOL0     H 2640   9.417   5.653   8.967  0.2698 -0.7830 -1.1429
   21MOL0     O 2641   2.158   5.632   7.487  0.2860  0.5086  0.3152
   21MOL0     C 2642   2.250   5.663   7.564  0.3563  0.1896 -0.1111
   21MOL0     O 2643   2.255   5.787   7.630  0.6255  1.0969  0.0179
   21MOL0     C 2644   2.154   5.875   7.602 -0.6418  0.1822 -0.9463
   21MOL0     C 2645   2.020   5.843   7.634  0.6532  0.0533  0.4869
   21MOL0     C 2646   1.920   5.942   7.613 -0.3625  0.5917  0.0061
   21MOL0     C 2647   1.959   6.072   7.561  0.2610 -0.1383  0.8491
   21MOL0     O 2648   1.870   6.171   7.523 -0.1166  0.0675  0.1062
   21MOL0     C 2649   1.735   6.170   7.578 -1.1361 -0.6991  1.2738
   21MOL0     C 2650   1.701   6.287   7.665  0.4141  0.8872 -0.4904
   21MOL0     C 2651   1.548   6.287   7.706  0.2042  0.6606 -0.6901
   21MOL0     C 2652   1.500   6.404   7.786 -0.4039  1.0503  0.4075
   21MOL0     C 2653   1.349   6.404   7.775 -0.2397  1.0581 -0.8177
   21MOL0     C 2654   1.283   6.508   7.870  0.1028  0.3371  0.5554
   21MOL0     C 2655   1.133   6.540   7.834 -0.2851 -0.5034  0.0004
   21MOL0     C 2656   1.078   6.626   7.948 -0.1086  0.5526  1.0776
   21MOL0     N 2657   1.141   6.759   7.946 -0.3434 -1.1518  0.0329
   21MOL0     C 2658   1.142   6.845   7.837 -1.6643 -0.2827 -0.2817
   21MOL0     C 2659   1.187   6.961   7.891 -0.0060  0.1295  0.3184
   21MOL0     C 2660   1.190   7.089   7.820 -0.3202 -0.3663 -0.1247
   21MOL0     C 2661   1.075   7.177   7.861  0.0131  0.7441  0.1419
   21MOL0     C 2662   0.932   7.109   7.835 -0.1255 -0.0322 -0.1149
   21MOL0     C 2663   0.826   7.210   7.866  0.1146  0.2173 -0.1377
   21MOL0     O 2664   0.701   7.147   7.851  0.0474 -0.1830 -0.1784
   21MOL0     C 2665   0.600   7.236   7.830 -0.4070 -0.4406  0.8022
   21MOL0     C 2666   0.585   7.355   7.905 -0.2356 -0.1438  0.8574
   21MOL0     C 2667   0.466   7.420   7.900  0.2202  0.4152 -0.1799
   21MOL0     C 2668   0.364   7.390   7.803  0.3350 -0.3039 -0.2368
   21MOL0     C 2669   0.246   7.473   7.790  1.2782  0.3483 -0.7230
   21MOL0     O 2670   0.218   7.569   7.876 -0.2950 -0.3363  0.0084
   21MOL0     C 2671   0.092   7.631   7.891 -1.1631 -0.0690  0.0509
   21MOL0     C 2672  -0.030   7.561   7.892 -0.4586 -0.0772 -0.0645
   21MOL0     C 2673  -0.152   7.634   7.903 -0.0402  0.2573 -0.3382
   21MOL0     C 2674  -0.152   7.773   7.936  0.1938 -0.2870 -0.1886
   21MOL0     O 2675  -0.269   7.833   7.937  0.3757 -0.6771 -0.0338
   21MOL0     C 2676  -0.278   7.976   7.973  0.3471  0.9093 -0.6117
   21MOL0     C 2677  -0.424   7.990   8.008  0.1992  0.1657 -0.0391
   21MOL0     C 2678  -0.444   8.095   8.122 -0.1992 -0.0576 -0.1446
   21MOL0     C 2679  -0.577   8.105   8.200 -0.9350 -0.2789 -0.7482
   21MOL0     C 2680  -0.689   8.114   8.091  0.2534 -0.5016 -0.1936
   21MOL0     C 2681  -0.820   8.159   8.161 -0.9154  0.8421 -0.1310
   21MOL0     C 2682  -0.937   8.111   8.067 -0.1667  0.0319 -0.1325
   21MOL0     C 2683  -1.058   8.104   8.142 -0.0735  0.2367  0.1072
   21MOL0    Cl 2684  -1.104   8.250   8.242 -0.2096  0.3014 -0.3711
   21MOL0     C 2685  -0.020   7.839   7.951 -0.2933 -0.2226 -0.0454
   21MOL0     C 2686   0.095   7.767   7.928 -0.2966 -0.5018 -0.0148
   21MOL0     O 2687   0.171   7.437   7.705  0.2139 -0.2609  0.5438
   21MOL0     C 2688   0.381   7.273   7.728  0.1241 -0.4184  1.1029
   21MOL0     C 2689   0.499   7.195   7.744  0.1620 -0.1525  0.6047
   21MOL0     N 2690   1.234   6.942   8.013 -0.0837  0.0854  0.2728
   21MOL0     N 2691   1.207   6.821   8.052  0.0580 -0.2962  0.2035
   21MOL0     C 2692   2.103   6.104   7.543  0.1145  0.5416  0.2528
   21MOL0     C 2693   2.192   6.002   7.555 -0.0008 -0.0226  0.0170
   21MOL0     C 2694   2.369   5.575   7.580 -0.5712  0.2425  0.0059
   21MOL0     C 2695   2.458   5.582   7.696 -0.4383 -0.7014 -0.1611
   21MOL0     C 2696   2.571   5.493   7.694 -0.7653  0.1279 -0.5859
   21MOL0     C 2697   2.592   5.405   7.587  0.1498 -0.7807 -0.4530
   21MOL0     O 2698   2.700   5.320   7.599  0.0150  0.5358 -0.2791
   21MOL0     C 2699   2.746   5.251   7.478 -0.0995 -0.0140 -0.0023
   21MOL0     C 2700   2.894   5.220   7.484 -1.0176 -0.0272 -0.5240
   21MOL0     C 2701   2.985   5.328   7.440  1.0250 -0.1116  0.3195
   21MOL0     C 2702   3.130   5.281   7.431  0.2069  0.5788  0.2445
   21MOL0     C 2703   3.210   5.365   7.342 -0.3838 -0.1578  1.0359
   21MOL0     C 2704   3.282   5.443   7.288  0.1480  1.2007  0.3720
   21MOL0     C 2705   2.508   5.406   7.477  0.4977  0.5896  0.3926
   21MOL0     C 2706   2.401   5.490   7.474 -0.0068  1.4022 -0.3799
   21MOL0     H 2707   1.997   5.742   7.664  0.0374 -0.3292 -1.1391
   21MOL0     H 2708   1.816   5.914   7.628  0.2096 -2.3649 -0.9047
   21MOL0     H 2709   1.702   6.072   7.613 -1.6594 -1.7247 -1.7985
   21MOL0     H 2710   1.676   6.187   7.488 -1.4239 -0.2169  1.5474
   21MOL0     H 2711   1.722   6.385   7.622 -0.1319  0.7603 -1.0705
   21MOL0     H 2712   1.766   6.270   7.752  0.7011  1.4512 -0.5939
   21MOL0     H 2713   1.523   6.198   7.764 -1.1456 -0.1250 -2.3995
   21MOL0     H 2714   1.487   6.284   7.616 -2.1908  0.3591  0.8470
   21MOL0     H 2715   1.526   6.409   7.892 -1.3040  2.6216  0.5759
   21MOL0     H 2716   1.543   6.496   7.745 -3.2589  2.6568  0.7739
   21MOL0     H 2717   1.311   6.306   7.804  0.0941  0.3039 -2.7294
   21MOL0     H 2718   1.319   6.433   7.674 -0.3165  4.7318  0.1332
   21MOL0     H 2719   1.343   6.599   7.860  1.3978 -0.6288 -0.8849
   21MOL0     H 2720   1.298   6.463   7.969  0.3957 -0.6187  0.0944
   21MOL0     H 2721   1.119   6.585   7.736  0.1906  2.1122  1.0514
   21MOL0     H 2722   1.077   6.446   7.840 -1.7970  0.4055  0.9156
   21MOL0     H 2723   1.092   6.575   8.043  2.7006  0.2223  0.5730
   21MOL0     H 2724   0.974   6.643   7.920 -0.6145  1.3634  3.3106
   21MOL0     H 2725   1.087   6.827   7.745 -0.0774  0.5381 -1.4446
   21MOL0     H 2726   1.187   7.069   7.713  1.5145  1.2327 -0.5184
   21MOL0     H 2727   1.287   7.136   7.836 -0.4777 -0.5183  1.5111
   21MOL0     H 2728   1.090   7.266   7.800 -0.2743  0.5826 -0.1643
   21MOL0     H 2729   1.082   7.184   7.970  0.8732 -0.3547  0.1730
   21MOL0     H 2730   0.924   7.081   7.729 -0.4432 -0.3492 -0.0093
   21MOL0     H 2731   0.906   7.026   7.901 -1.1494 -0.6274 -1.2175
   21MOL0     H 2732   0.837   7.295   7.798  3.3408 -1.1578 -1.5653
   21MOL0     H 2733   0.827   7.240   7.971 -2.0807  2.6379 -0.6958
   21MOL0     H 2734   0.655   7.395   7.978  0.0512 -0.5587  0.8148
   21MOL0     H 2735   0.434   7.498   7.968  0.8962  0.9284 -0.4451
   21MOL0     H 2736  -0.040   7.456   7.870 -1.0422  0.0199 -0.2750
   21MOL0     H 2737  -0.246   7.582   7.889  0.8446 -2.2070  2.0551
   21MOL0     H 2738  -0.260   8.042   7.888  2.9939 -0.4016 -1.1604
   21MOL0     H 2739  -0.204   8.006   8.048  2.6262  2.4883 -3.2972
   21MOL0     H 2740  -0.468   7.893   8.029 -0.8082  1.1740  3.0292
   21MOL0     H 2741  -0.473   8.029   7.918  2.0049  1.6503 -0.4527
   21MOL0     H 2742  -0.416   8.196   8.091 -2.0385 -0.2209 -2.6200
   21MOL0     H 2743  -0.376   8.079   8.206 -0.6334  0.7858  0.3844
   21MOL0     H 2744  -0.597   8.008   8.246  2.5707 -0.0073  1.6777
   21MOL0     H 2745  -0.577   8.182   8.277  1.8285 -0.4254 -0.4961
   21MOL0     H 2746  -0.699   8.013   8.052 -0.4498 -1.2671  1.8066
   21MOL0     H 2747  -0.665   8.190   8.016  1.0941 -1.3131 -0.7671
   21MOL0     H 2748  -0.823   8.268   8.178  0.7512  0.8317  0.4398
   21MOL0     H 2749  -0.834   8.123   8.263 -1.3371 -1.3294 -0.9078
   21MOL0     H 2750  -0.942   8.182   7.984  1.7615 -0.6622 -0.9172
   21MOL0     H 2751  -0.922   8.009   8.031 -3.0027 -0.4428 -0.1228
   21MOL0     H 2752  -1.046   8.016   8.206  0.0913 -1.1886 -1.7938
   21MOL0     H 2753  -1.135   8.090   8.066 -0.6912  0.1938  0.7310
   21MOL0     H 2754  -0.018   7.947   7.947 -1.1167 -0.2259 -3.0787
   21MOL0     H 2755   0.189   7.822   7.931 -0.2338 -0.6576  1.2734
   21MOL0     H 2756   0.317   7.230   7.652  0.3763  0.0845  0.6001
   21MOL0     H 2757   0.517   7.101   7.691 -2.6354 -0.4175 -0.0340
   21MOL0     H 2758   2.129   6.206   7.515  1.5764 -0.3590 -1.9570
   21MOL0     H 2759   2.294   6.031   7.532  0.5377 -1.3933  0.5198
   21MOL0     H 2760   2.435   5.644   7.782 -3.7421 -0.7573 -0.8630
   21MOL0     H 2761   2.638   5.485   7.779 -3.4408  0.2220  1.7097
   21MOL0     H 2762   2.721   5.302   7.384 -0.8675 -0.3093  0.0389
   21MOL0     H 2763   2.694   5.155   7.474  1.3359 -0.9975 -6.8042
   21MOL0     H 2764   2.926   5.183   7.582  0.6013  0.8259 -0.6922
   21MOL0     H 2765   2.907   5.140   7.410  2.9684  1.3281 -1.5909
   21MOL0     H 2766   2.992   5.418   7.502  1.1908  1.5268 -1.9318
   21MOL0     H 2767   2.957   5.359   7.339  1.3094  0.9291  0.5436
   21MOL0     H 2768   3.176   5.286   7.530  1.1095  0.8718 -0.1831
   21MOL0     H 2769   3.142   5.177   7.399  0.1831  0.2210  1.3838
   21MOL0     H 2770   3.350   5.513   7.245  1.5861  1.0306  2.2312
   21MOL0     H 2771   2.509   5.330   7.400  1.0317  0.4259  0.5556
   21MOL0     H 2772   2.325   5.483   7.397  1.1986  2.6578 -1.7215
   22MOL0     O 2773   3.628   0.239   4.126 -0.2952 -0.4159 -0.1007
   22MOL0     C 2774   3.691   0.246   4.233  0.7366 -0.2470 -0.9399
   22MOL0     O 2775   3.656   0.172   4.345 -0.8490 -0.0942 -0.2832
   22MOL0     C 2776   3.548   0.091   4.336 -0.2189 -0.4466 -0.2028
   22MOL0     C 2777   3.450   0.124   4.424  0.1528  0.5257  0.4528
   22MOL0     C 2778   3.335   0.034   4.428  0.1430  0.4303  0.3264
   22MOL0     C 2779   3.321  -0.080   4.348  0.3775  0.6338 -0.3574
   22MOL0     O 2780   3.206  -0.157   4.357 -0.3907  0.0303 -0.0023
   22MOL0     C 2781   3.209  -0.295   4.316  0.0133 -0.5942  0.5824
   22MOL0     C 2782   3.075  -0.361   4.319 -0.1007 -0.3844 -0.3915
   22MOL0     C 2783   3.000  -0.343   4.458  0.3231  0.7467  0.4049
   22MOL0     C 2784   2.865  -0.416   4.471  0.6058 -0.3365 -0.1454
   22MOL0     C 2785   2.797  -0.402   4.612 -0.0617 -0.0752 -1.1349
   22MOL0     C 2786   2.762  -0.255   4.639 -0.4016 -0.1111  0.0414
   22MOL0     C 2787   2.655  -0.256   4.747  0.0738 -0.0032 -0.0109
   22MOL0     C 2788   2.636  -0.107   4.797  0.1850 -0.9754  0.1026
   22MOL0     N 2789   2.537  -0.111   4.902 -0.5658  0.1358  0.8091
   22MOL0     C 2790   2.405  -0.085   4.882 -0.8500 -0.4155  0.6795
   22MOL0     C 2791   2.352  -0.085   5.004  0.0257  0.1211  0.1790
   22MOL0     C 2792   2.205  -0.072   5.035 -0.1659  0.3408 -0.0655
   22MOL0     C 2793   2.124  -0.136   4.921 -0.2373  0.0285  0.0365
   22MOL0     C 2794   1.969  -0.107   4.944 -0.9006 -0.3314 -0.0928
   22MOL0     C 2795   1.943   0.042   4.928 -0.1896  0.2495 -0.2686
   22MOL0     O 2796   1.956   0.118   5.054  0.6190 -0.1615  0.0701
   22MOL0     C 2797   1.839   0.117   5.137 -0.2771 -0.0984  0.9511
   22MOL0     C 2798   1.712   0.060   5.111  0.2501  0.2567 -0.6406
   22MOL0     C 2799   1.597   0.093   5.194  0.1080  0.0534  0.1285
   22MOL0     C 2800   1.616   0.184   5.308  0.2831  0.4880  0.3053
   22MOL0     C 2801   1.495   0.218   5.399  0.2194  0.0719 -0.2945
   22MOL0     O 2802   1.360   0.172   5.374  0.1024 -0.3461 -0.7765
   22MOL0     C 2803   1.269   0.190   5.473 -0.7712  0.3301 -0.5779
   22MOL0     C 2804   1.187   0.084   5.495  0.3075 -1.2973  0.6530
   22MOL0     C 2805   1.097   0.074   5.601 -0.3068  0.7645  1.0620
   22MOL0     C 2806   1.083   0.186   5.697 -1.2649  0.7354  0.2073
   22MOL0     O 2807   0.985   0.204   5.790  0.4357 -0.2883  0.2908
   22MOL0     C 2808   0.989   0.111   5.888  0.2513  0.9043 -0.9010
   22MOL0     C 2809   1.052   0.182   6.016  0.2437  0.6158  0.4081
   22MOL0     C 2810   1.059   0.102   6.148  1.0543  0.5421  0.0894
   22MOL0     C 2811   1.039   0.180   6.279  0.2843 -0.6212 -1.7437
   22MOL0     C 2812   1.109   0.314   6.282 -0.3823  0.3265 -0.3686
   22MOL0     C 2813   1.147   0.376   6.417  0.1856  0.3555  0.4248
   22MOL0     C 2814   1.033   0.383   6.518 -0.0708 -0.2854  0.1218
   22MOL0     C 2815   1.077   0.445   6.648  0.1281  0.2420 -0.9938
   22MOL0    Cl 2816   1.170   0.321   6.729 -0.4509  0.0454  0.0726
   22MOL0     C 2817   1.172   0.294   5.666 -0.4836  0.0864 -0.1063
   22MOL0     C 2818   1.261   0.299   5.559 -0.2541  0.0368  0.1592
   22MOL0     O 2819   1.529   0.268   5.504 -0.3706 -0.4518  0.3508
   22MOL0     C 2820   1.743   0.230   5.336  0.4170 -0.4059  0.3517
   22MOL0     C 2821   1.853   0.205   5.252  0.5745 -0.4465  0.6340
   22MOL0     N 2822   2.453  -0.098   5.097  0.5675  0.9000  0.1538
   22MOL0     N 2823   2.566  -0.122   5.035  0.8580  0.2664 -0.1421
   22MOL0     C 2824   3.429  -0.100   4.264 -0.0567  0.2208  0.4984
   22MOL0     C 2825   3.542  -0.016   4.257 -0.4364 -0.7407 -0.3992
   22MOL0     C 2826   3.809   0.327   4.254 -0.3074 -1.0041  0.4684
   22MOL0     C 2827   3.892   0.314   4.365  0.0305 -0.1153  0.3190
   22MOL0     C 2828   4.019   0.371   4.366  0.6245 -1.3869  0.5196
   22MOL0     C 2829   4.050   0.464   4.264 -0.1250 -0.3055 -0.1386
   22MOL0     O 2830   4.182   0.511   4.271  0.0838 -0.6633  0.2561
   22MOL0     C 2831   4.238   0.580   4.157 -0.2635  0.4176  0.2356
   22MOL0     C 2832   4.382   0.627   4.197  0.2909  0.5017  0.3415
   22MOL0     C 2833   4.454   0.660   4.065  0.0077  0.2994 -0.1054
   22MOL0     C 2834   4.607   0.682   4.098  0.2080 -0.4184 -0.0623
   22MOL0     C 2835   4.669   0.732   3.974 -0.4883  0.0830 -0.1445
   22MOL0     C 2836   4.696   0.774   3.865  0.7279  0.1980  0.3685
   22MOL0     C 2837   3.957   0.488   4.160 -0.6651  1.0187 -0.0223
   22MOL0     C 2838   3.841   0.417   4.148  0.1340  0.4421 -0.3249
   22MOL0     H 2839   3.456   0.215   4.483 -3.5854  2.1793 -1.3754
   22MOL0     H 2840   3.249   0.061   4.488 -1.4515  1.8964 -2.3888
   22MOL0     H 2841   3.273  -0.357   4.379  2.3374  0.6475 -0.4057
   22MOL0     H 2842   3.243  -0.309   4.213 -0.3379  1.4738  0.1331
   22MOL0     H 2843   3.083  -0.462   4.280 -0.4317  0.2696 -2.2307
   22MOL0     H 2844   3.006  -0.306   4.255  0.0260  0.8169  0.4623
   22MOL0     H 2845   2.988  -0.236   4.475 -0.6645  0.6343  0.4717
   22MOL0     H 2846   3.061  -0.389   4.537 -2.1133  1.6186  2.9617
   22MOL0     H 2847   2.804  -0.376   4.390 -0.0172 -1.5698 -0.3138
   22MOL0     H 2848   2.880  -0.524   4.458 -0.4561 -0.5366  0.1767
   22MOL0     H 2849   2.866  -0.431   4.692 -0.1503  2.6438  0.0289
   22MOL0     H 2850   2.714  -0.473   4.603  0.0209 -0.1748 -1.1143
   22MOL0     H 2851   2.720  -0.208   4.549 -1.4797 -0.7086  0.2133
   22MOL0     H 2852   2.854  -0.202   4.666 -1.3872  1.3612  0.6588
   22MOL0     H 2853   2.562  -0.292   4.701 -1.9685 -1.2918  4.5939
   22MOL0     H 2854   2.678  -0.323   4.830 -0.5618  1.5240  1.4621
   22MOL0     H 2855   2.598  -0.044   4.716 -1.8271 -1.0929  0.8929
   22MOL0     H 2856   2.731  -0.068   4.833  0.3044 -0.4225 -0.7932
   22MOL0     H 2857   2.365  -0.045   4.789  1.8604  0.5187 -0.1892
   22MOL0     H 2858   2.177   0.034   5.034 -0.2685  0.3136 -0.0954
   22MOL0     H 2859   2.170  -0.131   5.120 -0.2457 -1.5442 -1.3699
   22MOL0     H 2860   2.139  -0.244   4.913  0.4318 -0.1161  2.5213
   22MOL0     H 2861   2.147  -0.101   4.820 -1.1712  0.3791 -0.0665
   22MOL0     H 2862   1.920  -0.153   4.858 -0.8244  1.5142 -1.1774
   22MOL0     H 2863   1.933  -0.153   5.037  1.2137  0.9180  1.4379
   22MOL0     H 2864   1.843   0.064   4.891  0.1538  1.6764 -0.4117
   22MOL0     H 2865   2.010   0.082   4.851 -0.4810  0.2248 -0.5343
   22MOL0     H 2866   1.678   0.000   5.027 -3.0056  1.4360 -0.3265
   22MOL0     H 2867   1.500   0.047   5.176  0.8206 -1.8395  0.8805
   22MOL0     H 2868   1.195   0.004   5.422  1.5239 -0.6491  0.0403
   22MOL0     H 2869   1.024  -0.006   5.588  1.8818 -1.1193 -0.4995
   22MOL0     H 2870   1.029   0.015   5.852 -1.3199 -0.9777  2.0120
   22MOL0     H 2871   0.887   0.078   5.910  0.7478  0.5666  1.1089
   22MOL0     H 2872   0.989   0.271   6.022  1.5636  1.9199 -2.6326
   22MOL0     H 2873   1.153   0.218   5.993  1.0414 -2.1372 -0.9393
   22MOL0     H 2874   1.154   0.048   6.155  1.2755  1.0942  1.7382
   22MOL0     H 2875   0.982   0.024   6.142 -0.4736  2.1113 -2.8290
   22MOL0     H 2876   0.934   0.186   6.307  0.8135  0.0668  0.2433
   22MOL0     H 2877   1.084   0.131   6.365  2.4667  2.9897 -0.6021
   22MOL0     H 2878   1.051   0.384   6.221  0.0476  0.4200 -0.6790
   22MOL0     H 2879   1.198   0.309   6.218 -0.5334 -0.4190 -0.5301
   22MOL0     H 2880   1.186   0.476   6.402 -4.2002  2.0071 -1.9887
   22MOL0     H 2881   1.228   0.314   6.456 -0.8326 -2.2887 -1.2781
   22MOL0     H 2882   0.958   0.454   6.482  1.4590  0.6945 -1.2627
   22MOL0     H 2883   1.002   0.283   6.547  1.4364 -0.3302  1.7360
   22MOL0     H 2884   0.987   0.469   6.705 -0.9437  0.9709 -2.8800
   22MOL0     H 2885   1.134   0.537   6.631 -0.5971  1.1107  0.9881
   22MOL0     H 2886   1.168   0.387   5.720 -0.9908  1.3692 -2.2426
   22MOL0     H 2887   1.319   0.389   5.544 -2.1536  1.3005 -0.0041
   22MOL0     H 2888   1.749   0.294   5.423 -2.4337 -0.2865  0.5410
   22MOL0     H 2889   1.937   0.272   5.265 -0.7238  1.4855 -0.3576
   22MOL0     H 2890   3.422  -0.195   4.211 -1.1484  0.2662  0.5430
   22MOL0     H 2891   3.622  -0.042   4.188  0.2614  1.6293 -0.5852
   22MOL0     H 2892   3.863   0.250   4.447  0.0996 -1.3271 -0.5676
   22MOL0     H 2893   4.090   0.356   4.447  0.3895 -0.7033  0.8651
   22MOL0     H 2894   4.180   0.668   4.132 -0.5093 -0.2501 -1.7070
   22MOL0     H 2895   4.229   0.515   4.069 -0.6724  2.2356 -1.1140
   22MOL0     H 2896   4.375   0.709   4.268 -1.0743  1.4272 -0.7955
   22MOL0     H 2897   4.433   0.538   4.235  1.4391  0.5621 -0.9714
   22MOL0     H 2898   4.421   0.756   4.026  1.8955  1.6599  1.5092
   22MOL0     H 2899   4.456   0.568   4.004  2.0118  0.5054 -0.4141
   22MOL0     H 2900   4.609   0.756   4.179  0.0801 -1.2938  0.7588
   22MOL0     H 2901   4.657   0.589   4.125  2.0110 -0.3158 -2.6237
   22MOL0     H 2902   4.713   0.807   3.764 -0.3892  2.1310  0.7626
   22MOL0     H 2903   4.001   0.550   4.082  0.6475  2.4725  1.7842
   22MOL0     H 2904   3.771   0.428   4.066 -2.2132 -0.0089  1.4952
   23MOL0     O 2905   6.825   7.859   5.009 -0.1422  0.5292 -0.0305
   23MOL0     C 2906   6.890   7.766   4.972 -0.7368  0.6213 -0.6818
   23MOL0     O 2907   6.860   7.661   4.882  0.0079  0.4966  0.5489
   23MOL0     C 2908   6.743   7.649   4.813  0.4050 -0.6276  0.3429
   23MOL0     C 2909   6.654   7.749   4.757  0.9618 -0.1011 -0.8816
   23MOL0     C 2910   6.546   7.711   4.674  0.9003  0.3380 -0.5623
   23MOL0     C 2911   6.524   7.580   4.640 -0.2794 -0.2205 -0.7329
   23MOL0     O 2912   6.418   7.528   4.571  0.2810  0.0750 -0.3365
   23MOL0     C 2913   6.354   7.615   4.479  0.4517  0.0836  0.6524
   23MOL0     C 2914   6.291   7.539   4.366  0.8467 -0.1597  0.0165
   23MOL0     C 2915   6.159   7.473   4.408  0.3100  0.7074  0.4165
   23MOL0     C 2916   6.095   7.399   4.292 -0.7633 -0.1522  0.1322
   23MOL0     C 2917   5.999   7.304   4.340 -0.7945  0.4629  0.2069
   23MOL0     C 2918   5.883   7.363   4.422  0.2879  0.0863  0.6316
   23MOL0     C 2919   5.788   7.258   4.467  0.8852 -0.5784 -0.1368
   23MOL0     C 2920   5.705   7.188   4.361  0.2671 -0.1517  0.3830
   23MOL0     N 2921   5.631   7.271   4.258  0.3550 -0.5166 -0.5758
   23MOL0     C 2922   5.684   7.311   4.138 -0.3100 -1.0401 -0.6018
   23MOL0     C 2923   5.618   7.424   4.098 -0.4653 -0.0071  0.0209
   23MOL0     C 2924   5.659   7.526   3.994  0.3094  0.2811 -0.3799
   23MOL0     C 2925   5.787   7.597   4.052  0.2959 -0.0332 -0.1604
   23MOL0     C 2926   5.844   7.691   3.944  0.1436 -0.2339 -0.8298
   23MOL0     C 2927   5.995   7.730   3.963 -0.3410 -0.2295  0.2492
   23MOL0     O 2928   6.031   7.839   3.878  0.5679 -0.5160 -0.3885
   23MOL0     C 2929   6.167   7.878   3.873 -0.8185 -0.3474  0.2807
   23MOL0     C 2930   6.270   7.818   3.940 -0.3272 -0.1971  0.7188
   23MOL0     C 2931   6.399   7.849   3.917 -0.3261  0.3564 -0.1426
   23MOL0     C 2932   6.435   7.951   3.822 -0.2524 -0.8667 -0.2688
   23MOL0     C 2933   6.575   7.982   3.786  0.1335  0.4193  0.8780
   23MOL0     O 2934   6.596   8.050   3.665 -0.7586  0.5941 -0.0690
   23MOL0     C 2935   6.720   8.100   3.635 -0.3265  0.2291 -0.5580
   23MOL0     C 2936   6.745   8.231   3.669  0.1129  0.4567  0.5893
   23MOL0     C 2937   6.873   8.281   3.657 -1.1190 -0.3593 -0.9892
   23MOL0     C 2938   6.970   8.209   3.596 -0.4267  0.1427  0.4811
   23MOL0     O 2939   7.092   8.266   3.593  0.6529 -0.2955  0.5417
   23MOL0     C 2940   7.169   8.253   3.472 -0.7857  0.2232 -0.2112
   23MOL0     C 2941   7.266   8.375   3.448  0.3867  0.1942  0.0493
   23MOL0     C 2942   7.184   8.502   3.440 -0.1441  0.0745 -0.4662
   23MOL0     C 2943   7.089   8.512   3.326  0.6200  0.2244  1.0221
   23MOL0     C 2944   7.057   8.653   3.296  0.2445  0.6411  0.5911
   23MOL0     C 2945   6.926   8.656   3.210  0.7722  0.4703 -0.5109
   23MOL0     C 2946   6.908   8.795   3.157 -0.3165  0.1867  0.5618
   23MOL0     C 2947   6.818   8.891   3.238  0.4649 -0.5041 -0.0759
   23MOL0    Cl 2948   6.915   8.963   3.373 -0.3738 -0.0530  0.2703
   23MOL0     C 2949   6.947   8.077   3.560 -0.4061  0.0896 -0.8650
   23MOL0     C 2950   6.822   8.021   3.577 -0.1511 -0.2769  0.1144
   23MOL0     O 2951   6.665   7.939   3.861  0.5783  0.0382 -0.4613
   23MOL0     C 2952   6.326   8.031   3.772 -0.4522  0.2077 -0.4459
   23MOL0     C 2953   6.190   7.987   3.784 -0.1920 -0.2945  0.3621
   23MOL0     N 2954   5.521   7.450   4.196  0.4744  0.5463  1.2217
   23MOL0     N 2955   5.527   7.355   4.281 -0.8022  0.5066  0.2714
   23MOL0     C 2956   6.605   7.489   4.697  0.4392 -0.0557  0.3840
   23MOL0     C 2957   6.716   7.523   4.774 -0.2116  0.2081  0.0231
   23MOL0     C 2958   7.034   7.761   5.026  0.4781  0.5470 -0.4395
   23MOL0     C 2959   7.120   7.660   4.976  0.2111 -0.4874  0.7919
   23MOL0     C 2960   7.257   7.660   5.020  0.0760 -0.7387  0.7935
   23MOL0     C 2961   7.301   7.749   5.123  1.3763  0.1425 -0.2825
   23MOL0     O 2962   7.423   7.740   5.179 -0.1359  0.9049  0.0812
   23MOL0     C 2963   7.488   7.839   5.262  0.4790 -0.0648  0.1740
   23MOL0     C 2964   7.634   7.795   5.264 -0.0001 -0.4849 -0.0604
   23MOL0     C 2965   7.712   7.905   5.340 -0.3761  0.2340 -1.4176
   23MOL0     C 2966   7.861   7.883   5.340 -0.0192  0.7160  0.3567
   23MOL0     C 2967   7.926   7.968   5.445 -0.3435  0.7352  0.2409
   23MOL0     C 2968   7.974   8.031   5.540 -0.1366 -0.0629 -0.2422
   23MOL0     C 2969   7.221   7.853   5.164  0.9543 -1.7882  0.0202
   23MOL0     C 2970   7.088   7.863   5.110  0.8338 -0.0250 -0.2469
   23MOL0     H 2971   6.664   7.849   4.798 -1.0077 -0.1165 -0.2171
   23MOL0     H 2972   6.471   7.783   4.641  2.4997  2.1940 -0.3637
   23MOL0     H 2973   6.438   7.670   4.436  1.9822 -3.2114 -0.9159
   23MOL0     H 2974   6.277   7.671   4.533 -1.0820  2.2405 -3.3368
   23MOL0     H 2975   6.362   7.471   4.319 -0.1378 -1.1932 -0.0269
   23MOL0     H 2976   6.265   7.611   4.287  0.9543 -3.6245 -3.4889
   23MOL0     H 2977   6.096   7.548   4.458  2.6811  1.8846  1.7865
   23MOL0     H 2978   6.199   7.403   4.481 -0.3563  2.5297  2.6922
   23MOL0     H 2979   6.053   7.476   4.227 -1.1364 -0.9272 -0.5599
   23MOL0     H 2980   6.167   7.340   4.234  1.7597  1.4548  1.4427
   23MOL0     H 2981   6.048   7.234   4.408 -2.2669 -1.8177 -0.9553
   23MOL0     H 2982   5.955   7.253   4.254  0.8787  1.0903 -1.0795
   23MOL0     H 2983   5.837   7.442   4.362  2.2824  1.5366  0.9017
   23MOL0     H 2984   5.922   7.419   4.508  1.0919 -0.3429  0.5538
   23MOL0     H 2985   5.844   7.189   4.530 -0.2704 -0.8223  0.6539
   23MOL0     H 2986   5.716   7.306   4.534 -0.2244  0.6457 -2.1276
   23MOL0     H 2987   5.637   7.117   4.410 -1.9574  1.5614 -0.0729
   23MOL0     H 2988   5.776   7.131   4.300  2.1435  0.3908  1.9314
   23MOL0     H 2989   5.774   7.272   4.092  0.1471  2.3982 -2.9372
   23MOL0     H 2990   5.579   7.600   3.988 -2.1179 -2.0524  1.1717
   23MOL0     H 2991   5.678   7.483   3.895  0.2273  0.0080 -0.2778
   23MOL0     H 2992   5.865   7.523   4.073  1.1319  0.1863 -2.2885
   23MOL0     H 2993   5.763   7.654   4.142  4.0673  1.5036  0.0375
   23MOL0     H 2994   5.841   7.638   3.849  0.0339 -2.7562  0.4919
   23MOL0     H 2995   5.778   7.779   3.945 -1.5966 -1.4697 -1.9191
   23MOL0     H 2996   6.059   7.644   3.940  3.1538  1.2444  3.4965
   23MOL0     H 2997   6.011   7.748   4.069 -0.7300  0.0809  0.2594
   23MOL0     H 2998   6.257   7.733   4.006 -0.0307 -0.2471  0.7170
   23MOL0     H 2999   6.472   7.784   3.964 -1.2520 -1.8114 -1.5404
   23MOL0     H 3000   6.663   8.293   3.702 -1.6643 -1.2784 -0.3359
   23MOL0     H 3001   6.895   8.383   3.688 -0.3592 -0.9263  0.4202
   23MOL0     H 3002   7.105   8.240   3.385 -0.8266 -0.6256 -0.0633
   23MOL0     H 3003   7.239   8.169   3.480 -0.3115  0.7935  3.3057
   23MOL0     H 3004   7.316   8.364   3.352  2.0016 -1.6370  1.0480
   23MOL0     H 3005   7.346   8.377   3.523  0.2901  2.3820  0.1819
   23MOL0     H 3006   7.251   8.588   3.439  0.3694 -0.3195 -0.3873
   23MOL0     H 3007   7.121   8.511   3.530 -1.3367 -0.9825 -1.1456
   23MOL0     H 3008   7.123   8.463   3.234 -3.0023  1.9338 -1.4525
   23MOL0     H 3009   6.999   8.469   3.372 -0.7300  0.3015 -1.3780
   23MOL0     H 3010   7.141   8.707   3.252 -1.4252  1.2413 -2.0815
   23MOL0     H 3011   7.037   8.709   3.388  1.5239  1.2085  0.5476
   23MOL0     H 3012   6.841   8.613   3.264  1.9291 -0.7490  0.4056
   23MOL0     H 3013   6.947   8.593   3.123  0.0433  0.1026 -0.4314
   23MOL0     H 3014   6.999   8.846   3.123  0.1467 -1.1588 -0.2781
   23MOL0     H 3015   6.862   8.785   3.059  2.0820 -0.3951 -0.5800
   23MOL0     H 3016   6.734   8.841   3.288  0.4395  1.7581  2.3761
   23MOL0     H 3017   6.771   8.970   3.178 -0.6417 -0.1673  1.1753
   23MOL0     H 3018   7.019   8.019   3.503  0.0775 -1.7622  1.4688
   23MOL0     H 3019   6.794   7.919   3.553 -0.6145 -0.0324 -0.4064
   23MOL0     H 3020   6.351   8.121   3.717 -2.2429  0.5549 -0.7554
   23MOL0     H 3021   6.103   8.030   3.734 -1.7597 -3.0796  0.4769
   23MOL0     H 3022   6.592   7.384   4.674  0.1183 -0.2249  1.2757
   23MOL0     H 3023   6.788   7.449   4.809  0.6616  1.0101 -0.0332
   23MOL0     H 3024   7.083   7.597   4.895  0.0902  2.0434 -1.2760
   23MOL0     H 3025   7.326   7.581   4.992 -0.7034 -1.1571  0.0160
   23MOL0     H 3026   7.439   7.856   5.358 -0.1027  0.1597 -0.1582
   23MOL0     H 3027   7.486   7.930   5.200 -1.1064 -0.2104 -0.0256
   23MOL0     H 3028   7.635   7.696   5.311 -0.9935 -0.4132  0.1469
   23MOL0     H 3029   7.669   7.795   5.161 -1.9120  2.5044 -0.8192
   23MOL0     H 3030   7.671   7.919   5.441  0.3143 -0.4127 -1.0295
   23MOL0     H 3031   7.699   8.003   5.294  2.6027 -0.1338 -3.3164
   23MOL0     H 3032   7.885   7.777   5.354 -1.6243  0.4646  1.4056
   23MOL0     H 3033   7.911   7.919   5.249 -0.9759 -0.0601 -0.5000
   23MOL0     H 3034   8.004   8.105   5.612 -0.8211  1.6367 -1.6379
   23MOL0     H 3035   7.249   7.930   5.235 -1.7917 -0.4055 -0.2278
   23MOL0     H 3036   7.032   7.946   5.151  1.9326 -1.0405  3.6828
   24MOL0     O 3037   1.620   9.403   3.150 -0.0066  0.2458 -0.1486
   24MOL0     C 3038   1.578   9.464   3.240  0.4521  0.2452 -0.6351
   24MOL0     O 3039   1.448   9.504   3.258 -0.0006  0.3285  0.5841
   24MOL0     C 3040   1.358   9.505   3.158 -0.0154  0.8174 -0.4872
   24MOL0     C 3041   1.366   9.464   3.022 -0.4294  0.3026 -0.7313
   24MOL0     C 3042   1.251   9.448   2.941 -0.2977  0.8226  0.2240
   24MOL0     C 3043   1.126   9.484   2.983 -0.0348 -0.2773  0.4977
   24MOL0     O 3044   1.024   9.478   2.894 -0.0768 -0.2697 -0.0977
   24MOL0     C 3045   0.894   9.529   2.929 -0.3498 -0.1015 -0.0843
   24MOL0     C 3046   0.789   9.531   2.815  0.0572 -0.9061 -0.2355
   24MOL0     C 3047   0.648   9.582   2.860  0.1434 -0.1413  0.7190
   24MOL0     C 3048   0.548   9.588   2.744 -0.9296 -0.0053 -0.0930
   24MOL0     C 3049   0.454   9.476   2.748 -0.2672 -0.0382  0.5192
   24MOL0     C 3050   0.353   9.454   2.634 -0.0566  0.2078  0.9943
   24MOL0     C 3051   0.276   9.335   2.668 -0.6921  0.1841  0.1910
   24MOL0     C 3052   0.178   9.311   2.555  0.4042 -0.3641 -0.1117
   24MOL0     N 3053   0.052   9.394   2.552 -0.2069  0.7262  0.3868
   24MOL0     C 3054   0.035   9.505   2.471  0.8302  0.2903 -0.4330
   24MOL0     C 3055  -0.095   9.530   2.489 -0.0599 -0.0268  0.1009
   24MOL0     C 3056  -0.169   9.645   2.423 -0.2608  0.1306  1.0499
   24MOL0     C 3057  -0.173   9.767   2.515  0.3026 -0.3817  0.2456
   24MOL0     C 3058  -0.033   9.820   2.555  0.4770  0.6209 -0.4791
   24MOL0     C 3059   0.038   9.904   2.448  0.1192  0.3062 -0.6665
   24MOL0     O 3060   0.168   9.839   2.429 -0.2391  0.0512 -0.5423
   24MOL0     C 3061   0.258   9.922   2.361  0.0193  0.3135 -0.1618
   24MOL0     C 3062   0.394   9.898   2.391 -0.6488 -0.3788 -0.8290
   24MOL0     C 3063   0.500   9.966   2.337  0.1316  0.2405 -0.8692
   24MOL0     C 3064   0.475  10.058   2.237  0.9037  0.5768 -0.7786
   24MOL0     C 3065   0.588  10.119   2.159  0.1765  0.0670 -0.7159
   24MOL0     O 3066   0.555  10.189   2.048 -0.1901 -0.1564 -0.2405
   24MOL0     C 3067   0.653  10.266   1.979  0.5633 -1.0428  0.5317
   24MOL0     C 3068   0.625  10.281   1.840  0.7163  0.5783 -0.0346
   24MOL0     C 3069   0.710  10.346   1.751  0.2608  0.6299  0.7864
   24MOL0     C 3070   0.823  10.415   1.796  0.3989 -0.1047 -0.2016
   24MOL0     O 3071   0.895  10.500   1.716 -0.5857 -0.2133  0.0351
   24MOL0     C 3072   1.032  10.533   1.747  0.5929  0.2644 -0.0562
   24MOL0     C 3073   1.134  10.445   1.672  0.6698  0.0068  0.3590
   24MOL0     C 3074   1.278  10.492   1.702  1.0268 -0.3345 -0.2657
   24MOL0     C 3075   1.376  10.380   1.667  1.0444 -0.1393 -0.2190
   24MOL0     C 3076   1.508  10.424   1.708 -0.0754 -0.2563 -0.4169
   24MOL0     C 3077   1.621  10.332   1.655  0.0508  0.1799 -0.0393
   24MOL0     C 3078   1.768  10.401   1.681  0.2538  0.4114 -0.1353
   24MOL0     C 3079   1.864  10.316   1.600  0.3318  0.1598  0.1354
   24MOL0    Cl 3080   2.023  10.382   1.594  0.0452 -0.2444 -0.0597
   24MOL0     C 3081   0.858  10.386   1.938  0.0999  0.2190 -0.1893
   24MOL0     C 3082   0.770  10.319   2.030 -0.2632 -0.1475 -0.0396
   24MOL0     O 3083   0.702  10.092   2.197 -0.0727  0.7368 -0.2820
   24MOL0     C 3084   0.344  10.076   2.194 -0.2987  0.2415  0.7719
   24MOL0     C 3085   0.236  10.008   2.256  0.8404  0.4084  0.2257
   24MOL0     N 3086  -0.153   9.439   2.576  0.2419  1.0266  0.3161
   24MOL0     N 3087  -0.066   9.351   2.605 -0.2568 -0.2960 -0.5702
   24MOL0     C 3088   1.116   9.526   3.116 -0.0816  0.3615 -0.0881
   24MOL0     C 3089   1.228   9.532   3.199  0.0318 -0.6917  0.0478
   24MOL0     C 3090   1.660   9.474   3.355 -0.3418  0.6680  0.0484
   24MOL0     C 3091   1.800   9.466   3.338  0.1041 -0.6689 -0.1704
   24MOL0     C 3092   1.883   9.467   3.450 -0.0943 -0.2188  0.7106
   24MOL0     C 3093   1.828   9.483   3.580  0.9430 -0.6846  0.0613
   24MOL0     O 3094   1.903   9.499   3.689  0.9557 -0.3522 -0.1290
   24MOL0     C 3095   2.049   9.503   3.702  0.0233 -0.1602  0.0603
   24MOL0     C 3096   2.115   9.628   3.659 -1.0720 -0.2104 -0.3042
   24MOL0     C 3097   2.266   9.611   3.675  0.4711  0.3948  0.9173
   24MOL0     C 3098   2.342   9.729   3.641 -0.0254 -0.7107 -1.0878
   24MOL0     C 3099   2.488   9.702   3.648 -0.5621 -0.8358  0.1917
   24MOL0     C 3100   2.607   9.673   3.641  0.9051  0.3674 -0.5746
   24MOL0     C 3101   1.690   9.496   3.595  0.9182 -0.8960  0.5178
   24MOL0     C 3102   1.607   9.499   3.479  0.4990 -0.0216 -0.9483
   24MOL0     H 3103   1.460   9.448   2.970 -0.3314  1.0280 -0.7765
   24MOL0     H 3104   1.266   9.416   2.839  2.0131  1.4196  0.3184
   24MOL0     H 3105   0.899   9.632   2.967 -0.5414  0.1129 -0.6333
   24MOL0     H 3106   0.848   9.456   2.995  0.7203 -2.2856 -1.6304
   24MOL0     H 3107   0.784   9.428   2.777  1.5050  0.1811 -3.6672
   24MOL0     H 3108   0.820   9.594   2.732 -0.5857 -0.1793  0.0706
   24MOL0     H 3109   0.671   9.686   2.887 -1.4866  0.4207  0.1216
   24MOL0     H 3110   0.610   9.520   2.941  0.7334 -2.2784 -0.5716
   24MOL0     H 3111   0.483   9.676   2.748  0.2780  1.0449 -2.0823
   24MOL0     H 3112   0.605   9.594   2.651  2.3003  0.4930  1.7423
   24MOL0     H 3113   0.410   9.492   2.846  3.0289 -0.8734  2.2937
   24MOL0     H 3114   0.516   9.386   2.753 -0.5159 -0.2190  0.3787
   24MOL0     H 3115   0.414   9.434   2.546 -0.1476  0.9802  0.7476
   24MOL0     H 3116   0.285   9.540   2.625 -2.5504 -1.8398 -1.1938
   24MOL0     H 3117   0.340   9.246   2.670 -0.2162  0.5087 -0.5771
   24MOL0     H 3118   0.219   9.344   2.761 -1.6578  2.4341 -0.5624
   24MOL0     H 3119   0.155   9.204   2.561  1.0720 -0.8829 -3.8714
   24MOL0     H 3120   0.226   9.326   2.458  0.5255 -0.9379 -0.1464
   24MOL0     H 3121   0.112   9.554   2.412  0.7442 -1.0205 -1.7005
   24MOL0     H 3122  -0.270   9.611   2.396  0.2853 -0.7090 -0.0709
   24MOL0     H 3123  -0.121   9.677   2.330  0.3910 -3.5963 -0.0772
   24MOL0     H 3124  -0.234   9.747   2.604 -1.2804 -2.6633 -1.2549
   24MOL0     H 3125  -0.218   9.846   2.456  1.8122  0.7969  0.6202
   24MOL0     H 3126  -0.072   9.891   2.629  0.3870 -0.8321  0.9318
   24MOL0     H 3127   0.029   9.742   2.600  1.1410 -0.0245 -2.4504
   24MOL0     H 3128   0.044  10.007   2.484  1.7761 -0.4190  1.3548
   24MOL0     H 3129  -0.014   9.904   2.353  0.4561 -0.2199 -0.8570
   24MOL0     H 3130   0.415   9.835   2.477 -0.1441  0.9928  0.0883
   24MOL0     H 3131   0.602   9.942   2.367 -0.5495 -1.6912  0.1235
   24MOL0     H 3132   0.537  10.241   1.791 -0.6810  1.1045  1.9507
   24MOL0     H 3133   0.685  10.345   1.646 -1.6600 -4.9033  0.9656
   24MOL0     H 3134   1.054  10.532   1.855  0.6164 -0.6947 -0.0638
   24MOL0     H 3135   1.057  10.633   1.712  3.6934 -0.2047  0.5038
   24MOL0     H 3136   1.113  10.443   1.565 -1.7393  3.1290  0.6140
   24MOL0     H 3137   1.114  10.340   1.698 -0.8509  0.2695  0.3517
   24MOL0     H 3138   1.285  10.517   1.808 -0.4881 -0.8973  0.0005
   24MOL0     H 3139   1.305  10.578   1.640 -0.8745 -0.7612 -1.7918
   24MOL0     H 3140   1.348  10.284   1.713  1.1120  0.5982  1.4440
   24MOL0     H 3141   1.386  10.365   1.559 -0.7912 -1.4265 -0.2590
   24MOL0     H 3142   1.517  10.425   1.817  4.4483  0.1808 -0.6039
   24MOL0     H 3143   1.526  10.530   1.689 -1.8077  0.7697  2.8482
   24MOL0     H 3144   1.601  10.318   1.548  1.7759  2.0571 -0.6976
   24MOL0     H 3145   1.609  10.238   1.709  2.5601 -0.8897 -1.1815
   24MOL0     H 3146   1.770  10.506   1.651  0.2116  0.2927 -0.5589
   24MOL0     H 3147   1.782  10.389   1.789 -0.5022 -2.6329 -0.2913
   24MOL0     H 3148   1.829  10.318   1.496 -2.9124  1.4634  1.1176
   24MOL0     H 3149   1.858  10.213   1.636 -2.0624  0.1061 -0.2717
   24MOL0     H 3150   0.952  10.413   1.985 -1.7661  0.8469  3.5094
   24MOL0     H 3151   0.802  10.315   2.133  0.7974  2.2081 -0.2352
   24MOL0     H 3152   0.323  10.147   2.115  0.1151 -1.0213 -0.5087
   24MOL0     H 3153   0.131  10.018   2.234  0.9172  1.4971  0.2714
   24MOL0     H 3154   1.028   9.560   3.170 -1.0027 -1.4804 -0.3449
   24MOL0     H 3155   1.207   9.556   3.303  0.3344 -0.1279 -0.0147
   24MOL0     H 3156   1.837   9.444   3.238  1.6971  0.4790  0.1304
   24MOL0     H 3157   1.990   9.464   3.435 -0.1462  1.1901 -0.1376
   24MOL0     H 3158   2.081   9.426   3.631  0.4990  0.7275 -0.7015
   24MOL0     H 3159   2.072   9.476   3.805 -1.3469 -0.5530  0.2826
   24MOL0     H 3160   2.086   9.653   3.557  0.7903 -3.4507 -1.7926
   24MOL0     H 3161   2.076   9.708   3.722 -2.3663 -2.2281  1.6010
   24MOL0     H 3162   2.305   9.529   3.614 -2.6037 -0.2442 -0.3907
   24MOL0     H 3163   2.281   9.599   3.783 -1.9062 -1.2719  1.1382
   24MOL0     H 3164   2.320   9.766   3.541 -1.5895  0.7923 -0.2380
   24MOL0     H 3165   2.318   9.808   3.713 -0.9566 -1.8137 -0.1504
   24MOL0     H 3166   2.711   9.667   3.619  0.9037  0.8183 -0.7149
   24MOL0     H 3167   1.644   9.531   3.687  1.4605 -0.0675  0.4818
   24MOL0     H 3168   1.500   9.510   3.493  0.7878  0.1526  1.7176
   25MOL0     O 3169   7.382   9.610   9.653  0.1496  0.0981 -0.9220
   25MOL0     C 3170   7.391   9.731   9.636 -0.2923  0.0851 -0.4700
   25MOL0     O 3171   7.285   9.820   9.653 -0.0378 -0.1089  1.0029
   25MOL0     C 3172   7.152   9.779   9.660 -0.4047  0.5072 -0.0308
   25MOL0     C 3173   7.067   9.790   9.546  0.0093  0.4977 -0.3207
   25MOL0     C 3174   6.936   9.745   9.546 -0.2374 -0.1023  0.5759
   25MOL0     C 3175   6.875   9.708   9.664  0.8705  1.1851 -0.0244
   25MOL0     O 3176   6.738   9.695   9.682 -0.1660 -0.5026  0.0038
   25MOL0     C 3177   6.652   9.634   9.582 -0.0126  0.0399 -0.2791
   25MOL0     C 3178   6.510   9.663   9.634 -0.6000  0.3341  0.9025
   25MOL0     C 3179   6.449   9.790   9.562 -0.2102  0.1337 -0.4929
   25MOL0     C 3180   6.335   9.857   9.636 -0.2866  0.6312 -0.2517
   25MOL0     C 3181   6.198   9.806   9.592  0.1453  0.2878  0.1523
   25MOL0     C 3182   6.077   9.865   9.673 -0.6734 -0.6738 -0.7625
   25MOL0     C 3183   5.939   9.854   9.609  0.1902 -0.9831 -0.1314
   25MOL0     C 3184   5.837   9.912   9.707 -0.2795  0.4397 -0.2089
   25MOL0     N 3185   5.711   9.934   9.635 -0.5041 -0.0770 -0.0123
   25MOL0     C 3186   5.646  10.053   9.618  0.8113 -0.7576  0.6283
   25MOL0     C 3187   5.521  10.017   9.568 -0.1124  0.0807 -0.3304
   25MOL0     C 3188   5.421  10.116   9.522 -1.4157  0.1671 -0.2266
   25MOL0     C 3189   5.286  10.045   9.512  0.0736 -0.2678  0.1803
   25MOL0     C 3190   5.172  10.131   9.465  0.4174  0.1671  0.3668
   25MOL0     C 3191   5.041  10.057   9.499 -0.2625  0.4909 -0.1937
   25MOL0     O 3192   4.930  10.131   9.447  0.2005 -0.4488  0.4572
   25MOL0     C 3193   4.802  10.100   9.477 -0.6250  0.7525  0.1800
   25MOL0     C 3194   4.749   9.968   9.475 -1.0876  0.3325 -0.0131
   25MOL0     C 3195   4.618   9.944   9.514  0.1977  0.5497  0.3189
   25MOL0     C 3196   4.527  10.057   9.533  0.1887  0.7926  0.0944
   25MOL0     C 3197   4.380  10.027   9.551 -0.7683 -0.1100  0.1837
   25MOL0     O 3198   4.335   9.893   9.526  0.1696  0.7221  0.3399
   25MOL0     C 3199   4.209   9.846   9.555 -0.4424 -0.4588 -0.5277
   25MOL0     C 3200   4.156   9.859   9.681  0.4587  0.3734 -0.0299
   25MOL0     C 3201   4.027   9.813   9.703 -0.4560 -0.2699 -0.9664
   25MOL0     C 3202   3.955   9.752   9.604 -0.5402 -1.0997  0.2292
   25MOL0     O 3203   3.830   9.715   9.639 -0.0969 -0.9244 -0.6313
   25MOL0     C 3204   3.768   9.607   9.567 -0.1987 -0.4743 -0.1611
   25MOL0     C 3205   3.675   9.533   9.669 -0.0960  0.3140  0.4254
   25MOL0     C 3206   3.608   9.416   9.595 -0.7569 -0.3090  0.3791
   25MOL0     C 3207   3.507   9.362   9.695 -0.2456  0.4479  0.3982
   25MOL0     C 3208   3.411   9.259   9.634 -0.5147 -0.2145  0.0618
   25MOL0     C 3209   3.473   9.132   9.577 -1.5390  1.3423  0.2442
   25MOL0     C 3210   3.586   9.056   9.656  0.4712  0.0003  0.2788
   25MOL0     C 3211   3.535   9.017   9.796  0.6810 -0.0925  0.8687
   25MOL0    Cl 3212   3.654   8.941   9.889  0.0502 -0.2120 -0.2471
   25MOL0     C 3213   4.007   9.740   9.473  0.3487 -0.1399 -0.6491
   25MOL0     C 3214   4.137   9.789   9.452  0.2583  0.0392 -0.0225
   25MOL0     O 3215   4.315  10.117   9.607 -0.5027  0.6524  0.3763
   25MOL0     C 3216   4.582  10.183   9.533 -0.3022 -0.0346  0.9557
   25MOL0     C 3217   4.713  10.207   9.500  0.3643  0.5147  0.0932
   25MOL0     N 3218   5.518   9.881   9.561  0.4717 -0.6333  0.3462
   25MOL0     N 3219   5.631   9.835   9.584  0.5780 -0.0277 -0.0138
   25MOL0     C 3220   6.952   9.709   9.782  0.1175  0.1443 -0.1752
   25MOL0     C 3221   7.094   9.716   9.773  0.2817  0.6689  0.1588
   25MOL0     C 3222   7.534   9.786   9.618  0.1027  0.3512  0.0406
   25MOL0     C 3223   7.637   9.701   9.576  0.0511 -0.0774 -0.6954
   25MOL0     C 3224   7.771   9.744   9.566 -0.9060 -0.1884 -1.3535
   25MOL0     C 3225   7.796   9.884   9.580 -1.2729  1.7083 -0.2779
   25MOL0     O 3226   7.929   9.917   9.542  0.2408  0.1982  0.1157
   25MOL0     C 3227   7.990  10.022   9.604  0.0476  0.4962  0.0652
   25MOL0     C 3228   8.057  10.114   9.495 -0.4362 -0.3766  0.1171
   25MOL0     C 3229   8.168  10.046   9.415 -0.8849  0.3772  0.6272
   25MOL0     C 3230   8.307  10.111   9.426 -0.0854 -0.3650 -0.1603
   25MOL0     C 3231   8.412  10.046   9.345  0.1172  0.1433 -0.7788
   25MOL0     C 3232   8.498   9.986   9.287  0.0869  0.6942 -0.4772
   25MOL0     C 3233   7.696   9.965   9.635 -0.2586 -0.1390  0.3560
   25MOL0     C 3234   7.568   9.919   9.654  0.1145 -0.0520 -0.3409
   25MOL0     H 3235   7.113   9.847   9.466  2.6680  0.1175  0.8169
   25MOL0     H 3236   6.873   9.765   9.460 -0.4243  0.6702  0.8918
   25MOL0     H 3237   6.668   9.527   9.567 -1.2068  0.2500 -4.2766
   25MOL0     H 3238   6.674   9.677   9.483  0.3206  1.4597  0.3785
   25MOL0     H 3239   6.519   9.671   9.743 -2.3174 -0.9986  1.1814
   25MOL0     H 3240   6.449   9.574   9.616  0.1531  0.0590 -0.3828
   25MOL0     H 3241   6.426   9.765   9.458  2.0742  0.6558 -1.1761
   25MOL0     H 3242   6.530   9.861   9.547 -0.6658  0.4922 -1.3089
   25MOL0     H 3243   6.356   9.836   9.741  4.0016  0.4830 -0.9548
   25MOL0     H 3244   6.336   9.965   9.620  0.1047  0.1278 -5.2270
   25MOL0     H 3245   6.197   9.697   9.593  2.3414  0.1765  2.4975
   25MOL0     H 3246   6.184   9.831   9.487  0.0992  1.3662  0.3973
   25MOL0     H 3247   6.108   9.968   9.691  0.1070 -0.7046 -1.8068
   25MOL0     H 3248   6.075   9.811   9.768  0.2723 -1.8578 -1.3797
   25MOL0     H 3249   5.946   9.912   9.517  1.1151 -0.4108  0.2955
   25MOL0     H 3250   5.919   9.753   9.572  0.1334 -0.4554 -1.5844
   25MOL0     H 3251   5.874  10.004   9.753  1.6034  0.2598 -1.2789
   25MOL0     H 3252   5.821   9.837   9.786 -0.1856  1.7860  1.1325
   25MOL0     H 3253   5.690  10.150   9.635 -0.8823  0.0362  0.7612
   25MOL0     H 3254   5.454  10.163   9.429 -3.5165 -0.3648 -1.2997
   25MOL0     H 3255   5.426  10.206   9.585 -0.4178 -0.0282 -0.0046
   25MOL0     H 3256   5.254   9.993   9.603 -2.8030  2.1446  0.7230
   25MOL0     H 3257   5.301   9.965   9.440 -0.4200 -1.5474  1.4568
   25MOL0     H 3258   5.166  10.223   9.523 -2.0126 -1.0220  2.1535
   25MOL0     H 3259   5.191  10.162   9.362  0.4996 -0.2953  0.2419
   25MOL0     H 3260   5.040  10.037   9.606  0.9231 -0.7289 -0.3889
   25MOL0     H 3261   5.047   9.960   9.449  0.6567  0.0409  0.7567
   25MOL0     H 3262   4.812   9.884   9.448 -0.6634  0.8304 -0.5958
   25MOL0     H 3263   4.591   9.840   9.523  1.4323  0.0111 -1.6611
   25MOL0     H 3264   4.222   9.908   9.752 -1.5703  0.5446  1.8091
   25MOL0     H 3265   3.985   9.818   9.803 -1.0611  1.6445 -1.2614
   25MOL0     H 3266   3.845   9.539   9.530 -0.8005 -1.1772 -0.1477
   25MOL0     H 3267   3.710   9.657   9.489 -0.5509  4.1392  2.6724
   25MOL0     H 3268   3.606   9.595   9.728  0.6039  2.5097 -0.9366
   25MOL0     H 3269   3.744   9.479   9.735  3.0370  3.8131  0.3924
   25MOL0     H 3270   3.688   9.348   9.566 -0.8908 -1.2876  2.1592
   25MOL0     H 3271   3.548   9.447   9.508 -2.5222  1.3735  2.1054
   25MOL0     H 3272   3.559   9.315   9.779 -1.2062 -0.6322  0.4098
   25MOL0     H 3273   3.453   9.449   9.734 -1.2465 -1.4464  3.5471
   25MOL0     H 3274   3.354   9.307   9.554 -0.2395 -1.2304 -0.7626
   25MOL0     H 3275   3.339   9.229   9.711 -1.9250  1.7553 -0.4104
   25MOL0     H 3276   3.508   9.153   9.475 -0.0803 -1.1096  0.1639
   25MOL0     H 3277   3.391   9.062   9.557 -1.6820  2.1813 -2.6850
   25MOL0     H 3278   3.603   8.961   9.604  0.3380 -0.4596  1.0608
   25MOL0     H 3279   3.681   9.111   9.656  1.8338 -2.2094  1.8200
   25MOL0     H 3280   3.443   8.959   9.782  0.9157  0.1629 -2.4753
   25MOL0     H 3281   3.495   9.102   9.852  1.3547 -0.7297  2.3774
   25MOL0     H 3282   3.939   9.699   9.398  2.7069 -0.2302 -2.9015
   25MOL0     H 3283   4.177   9.781   9.351 -0.3116  2.1751 -0.4821
   25MOL0     H 3284   4.514  10.266   9.549 -0.3868 -0.1144  1.0078
   25MOL0     H 3285   4.740  10.312   9.492 -0.5227  0.6170 -2.0128
   25MOL0     H 3286   6.896   9.704   9.875  0.8190  1.5549  0.3532
   25MOL0     H 3287   7.162   9.689   9.852  0.5040 -1.5846 -0.7375
   25MOL0     H 3288   7.605   9.599   9.558 -3.9063  0.7046  0.8837
   25MOL0     H 3289   7.836   9.664   9.534 -1.0248 -0.4593 -0.9283
   25MOL0     H 3290   8.067   9.987   9.673  1.5243  3.8718  0.3495
   25MOL0     H 3291   7.926  10.081   9.670 -0.3184 -1.1161  1.2091
   25MOL0     H 3292   7.981  10.157   9.428  2.9106  0.5817 -3.3999
   25MOL0     H 3293   8.096  10.202   9.547 -3.1872  0.7830  0.4195
   25MOL0     H 3294   8.137  10.057   9.311  0.6704  0.0742  0.0986
   25MOL0     H 3295   8.173   9.939   9.436  0.7706 -0.0803 -1.6906
   25MOL0     H 3296   8.300  10.209   9.379  3.1693  0.3564  0.6487
   25MOL0     H 3297   8.350  10.129   9.525  0.2966 -2.1289  0.0213
   25MOL0     H 3298   8.565   9.929   9.227  0.7681 -0.1703  1.0474
   25MOL0     H 3299   7.707  10.073   9.645 -2.5929  0.2274 -0.5541
   25MOL0     H 3300   7.492   9.984   9.696  1.2794  1.0641  0.1076
   26MOL0     O 3301   3.067   9.445   0.516 -0.9357 -0.4924 -0.2271
   26MOL0     C 3302   3.104   9.347   0.452  0.3700  0.2129  0.3492
   26MOL0     O 3303   3.065   9.220   0.472  0.7472 -0.2502 -0.0464
   26MOL0     C 3304   2.965   9.189   0.565 -0.6665  0.2133  0.9032
   26MOL0     C 3305   2.940   9.264   0.676  0.1818  0.0893  0.6351
   26MOL0     C 3306   2.829   9.229   0.761 -0.4035  0.7499  0.7048
   26MOL0     C 3307   2.742   9.124   0.729  0.4229  0.1042  0.2064
   26MOL0     O 3308   2.647   9.110   0.820  0.9257  0.6424  0.1562
   26MOL0     C 3309   2.534   9.027   0.775  0.5039  0.0201  0.2476
   26MOL0     C 3310   2.427   9.039   0.873  0.5794  0.7761 -0.0110
   26MOL0     C 3311   2.307   8.945   0.849 -0.4618  0.0677 -0.9629
   26MOL0     C 3312   2.220   8.944   0.972 -0.6648 -0.2511 -0.4689
   26MOL0     C 3313   2.078   8.897   0.947  0.4582  0.0861 -0.5225
   26MOL0     C 3314   2.070   8.739   0.928 -0.0156 -0.3973  0.4834
   26MOL0     C 3315   1.922   8.698   0.922  0.5845 -0.3705 -0.1929
   26MOL0     C 3316   1.858   8.698   1.063  0.5663 -1.7280 -0.7577
   26MOL0     N 3317   1.730   8.617   1.066  0.1194 -0.1004  0.1940
   26MOL0     C 3318   1.618   8.670   1.005 -0.6300 -0.2094  0.6013
   26MOL0     C 3319   1.519   8.592   1.050 -0.5932  0.0680 -0.1655
   26MOL0     C 3320   1.380   8.584   0.988 -0.3693  0.0152  0.8883
   26MOL0     C 3321   1.378   8.487   0.869 -0.4125  0.0756  0.3407
   26MOL0     C 3322   1.273   8.519   0.765 -0.6395  0.0457  0.5315
   26MOL0     C 3323   1.126   8.503   0.823  0.2928  0.0530  0.6719
   26MOL0     O 3324   1.033   8.532   0.713  0.0276 -0.4214  0.4769
   26MOL0     C 3325   0.903   8.499   0.752  0.2529  0.0399 -0.4164
   26MOL0     C 3326   0.832   8.521   0.868  0.4852 -0.2363 -0.4326
   26MOL0     C 3327   0.693   8.499   0.880 -0.0796  1.3513  0.3055
   26MOL0     C 3328   0.624   8.424   0.784 -0.0862 -0.3232  1.4931
   26MOL0     C 3329   0.485   8.382   0.792  0.4602  0.4903 -0.0490
   26MOL0     O 3330   0.429   8.370   0.913  0.1695 -0.5738 -0.4120
   26MOL0     C 3331   0.310   8.297   0.940  0.0256 -0.6173  0.3190
   26MOL0     C 3332   0.237   8.218   0.851  0.0273 -0.2197  0.4306
   26MOL0     C 3333   0.121   8.161   0.901 -0.0194 -0.0981 -0.7406
   26MOL0     C 3334   0.062   8.187   1.019 -0.3030 -0.2323 -0.5162
   26MOL0     O 3335  -0.057   8.126   1.046 -0.7655  0.0683  0.1148
   26MOL0     C 3336  -0.091   8.126   1.185 -0.6923  0.5010 -0.7054
   26MOL0     C 3337  -0.196   8.012   1.201  0.1428  0.4334  0.2186
   26MOL0     C 3338  -0.335   8.044   1.137 -0.1471  0.6107 -0.6795
   26MOL0     C 3339  -0.441   7.942   1.147  0.6473  1.1748  0.1908
   26MOL0     C 3340  -0.587   8.003   1.136  0.3667  0.0670 -0.2998
   26MOL0     C 3341  -0.622   8.118   1.038  0.0341  0.3351 -0.5851
   26MOL0     C 3342  -0.764   8.111   0.986 -0.1128 -0.7707  0.8488
   26MOL0     C 3343  -0.789   8.244   0.922 -0.0067 -0.4582  0.5024
   26MOL0    Cl 3344  -0.958   8.259   0.861 -0.0329 -0.2273 -0.7875
   26MOL0     C 3345   0.138   8.269   1.107  0.1027  0.3806 -0.3869
   26MOL0     C 3346   0.258   8.320   1.068 -0.9667 -0.2393  0.1477
   26MOL0     O 3347   0.430   8.376   0.688 -0.4224  0.8549 -0.3187
   26MOL0     C 3348   0.703   8.379   0.679  0.2028  0.2203 -0.1896
   26MOL0     C 3349   0.833   8.420   0.658 -0.5810 -0.4000 -1.2981
   26MOL0     N 3350   1.564   8.507   1.147  0.1549  0.3829 -0.0685
   26MOL0     N 3351   1.694   8.518   1.152  0.4305 -0.0180  0.4107
   26MOL0     C 3352   2.773   9.041   0.619  0.3631 -0.4857 -0.4460
   26MOL0     C 3353   2.886   9.078   0.536  0.0098  0.5772  0.0196
   26MOL0     C 3354   3.212   9.371   0.350 -0.2978 -0.3562  0.6700
   26MOL0     C 3355   3.259   9.506   0.314  1.1400  0.2557 -0.7447
   26MOL0     C 3356   3.359   9.527   0.218  0.5530  0.0503 -0.7558
   26MOL0     C 3357   3.410   9.425   0.145  1.3406  0.1304  0.2600
   26MOL0     O 3358   3.484   9.438   0.033 -0.2158  0.1036 -0.0762
   26MOL0     C 3359   3.594   9.530   0.057 -0.3646  0.1249  0.7440
   26MOL0     C 3360   3.699   9.476  -0.036  0.3239  0.6202  0.3316
   26MOL0     C 3361   3.825   9.556  -0.012 -0.0289  0.3639 -0.1837
   26MOL0     C 3362   3.937   9.512  -0.098 -0.3538 -0.5471 -0.0094
   26MOL0     C 3363   4.024   9.623  -0.156 -0.2446  0.8318  0.2532
   26MOL0     C 3364   4.071   9.726  -0.193 -0.0555 -0.4345 -0.1900
   26MOL0     C 3365   3.362   9.295   0.180  0.9753 -0.8330  0.2460
   26MOL0     C 3366   3.265   9.272   0.279 -1.2418 -0.3937  0.3300
   26MOL0     H 3367   3.014   9.336   0.709  0.2068  0.3796 -0.0381
   26MOL0     H 3368   2.801   9.287   0.848 -2.4323  0.7950  0.0621
   26MOL0     H 3369   2.564   8.925   0.799 -0.8843 -0.3565  0.5123
   26MOL0     H 3370   2.501   9.047   0.672 -1.1381  0.5481  0.8300
   26MOL0     H 3371   2.398   9.144   0.875 -0.2934  0.5916 -1.3911
   26MOL0     H 3372   2.463   9.016   0.973  1.6822  1.5881 -0.1963
   26MOL0     H 3373   2.347   8.845   0.829 -0.5290 -0.5524  1.6854
   26MOL0     H 3374   2.240   8.984   0.771 -1.8336  1.5573  0.8534
   26MOL0     H 3375   2.270   8.877   1.043  2.1846 -1.2413 -3.1987
   26MOL0     H 3376   2.234   9.047   1.006  3.1348 -0.4523 -1.0198
   26MOL0     H 3377   2.022   8.957   0.874 -1.8449 -1.5551 -0.2352
   26MOL0     H 3378   2.033   8.928   1.042  0.6180 -0.3634 -0.2966
   26MOL0     H 3379   2.129   8.694   1.008  0.0198  1.8381  1.7972
   26MOL0     H 3380   2.123   8.719   0.834  1.0497 -0.6167  1.1188
   26MOL0     H 3381   1.871   8.774   0.862  1.7897 -1.5016 -2.8057
   26MOL0     H 3382   1.908   8.597   0.881 -0.1406  0.2874 -1.6645
   26MOL0     H 3383   1.842   8.803   1.092  0.7115 -1.6065 -1.1101
   26MOL0     H 3384   1.930   8.654   1.132 -0.5314 -1.3466  0.6683
   26MOL0     H 3385   1.622   8.743   0.924  1.4132 -0.7690  0.1508
   26MOL0     H 3386   1.355   8.683   0.949 -0.4914 -0.9769 -1.7758
   26MOL0     H 3387   1.300   8.558   1.059 -2.4304  2.6620 -0.2883
   26MOL0     H 3388   1.363   8.382   0.897  1.4631 -0.5699 -0.8732
   26MOL0     H 3389   1.476   8.489   0.820 -0.3379  1.2096  0.5240
   26MOL0     H 3390   1.292   8.623   0.735 -1.7893  0.2504  0.4480
   26MOL0     H 3391   1.277   8.467   0.669  1.8423  0.1244  0.5441
   26MOL0     H 3392   1.115   8.572   0.907  1.3157  2.2591 -0.9151
   26MOL0     H 3393   1.104   8.401   0.856 -2.4775  0.6441  0.9560
   26MOL0     H 3394   0.883   8.564   0.953  0.1178 -0.4892 -0.0842
   26MOL0     H 3395   0.650   8.533   0.974  0.0856 -1.9820  1.7244
   26MOL0     H 3396   0.278   8.200   0.752 -1.1206 -0.2813 -0.0413
   26MOL0     H 3397   0.071   8.088   0.838  0.4882 -1.1559  0.0720
   26MOL0     H 3398  -0.131   8.218   1.228  1.8943  0.5401  1.9789
   26MOL0     H 3399  -0.003   8.096   1.243 -1.8857  0.9216  1.4396
   26MOL0     H 3400  -0.209   8.002   1.310 -1.1840 -2.6484 -0.1416
   26MOL0     H 3401  -0.156   7.918   1.162  0.4235  0.3623  0.6633
   26MOL0     H 3402  -0.324   8.061   1.030 -2.2173 -0.6814 -1.1486
   26MOL0     H 3403  -0.367   8.141   1.177 -2.6330  0.0267 -1.1032
   26MOL0     H 3404  -0.426   7.858   1.080 -1.6332  1.7073 -1.1021
   26MOL0     H 3405  -0.427   7.897   1.246 -2.2034 -0.5278 -0.0647
   26MOL0     H 3406  -0.601   8.043   1.237 -1.2425  0.4340 -0.6315
   26MOL0     H 3407  -0.663   7.925   1.125 -0.1217 -0.0351  2.7763
   26MOL0     H 3408  -0.551   8.109   0.956 -1.2504  0.5657 -1.7627
   26MOL0     H 3409  -0.594   8.209   1.092  2.4904 -0.3992 -0.5287
   26MOL0     H 3410  -0.778   8.033   0.911  0.6066 -1.2505  1.2006
   26MOL0     H 3411  -0.834   8.083   1.066  0.2724 -3.6252  0.2893
   26MOL0     H 3412  -0.722   8.255   0.836 -2.7677 -0.7335 -1.8387
   26MOL0     H 3413  -0.772   8.332   0.983 -0.6152  1.8834 -2.4812
   26MOL0     H 3414   0.102   8.297   1.206 -0.9911 -0.5881 -0.4865
   26MOL0     H 3415   0.318   8.384   1.132  1.2246 -0.4256 -1.5887
   26MOL0     H 3416   0.654   8.306   0.614  1.0333  0.0385 -0.6229
   26MOL0     H 3417   0.890   8.407   0.566  1.6799 -0.0744 -0.0194
   26MOL0     H 3418   2.720   8.948   0.605  1.5767 -1.1377 -0.7740
   26MOL0     H 3419   2.911   9.018   0.449 -1.3115  0.7019 -0.4752
   26MOL0     H 3420   3.213   9.589   0.366 -1.9157 -1.0697 -1.1151
   26MOL0     H 3421   3.387   9.630   0.197  1.3244 -0.0737 -0.3710
   26MOL0     H 3422   3.627   9.521   0.161  0.4798 -2.4401  0.3465
   26MOL0     H 3423   3.577   9.633   0.025  0.4466  0.1132  0.2343
   26MOL0     H 3424   3.712   9.369  -0.016  1.9063  0.3186 -1.9274
   26MOL0     H 3425   3.667   9.490  -0.140 -0.5088  1.2865  0.6691
   26MOL0     H 3426   3.862   9.548   0.090  2.2789  4.0003 -0.5407
   26MOL0     H 3427   3.816   9.665  -0.023  0.5347  0.4539  0.2075
   26MOL0     H 3428   3.986   9.433  -0.041  0.4443 -0.4987 -0.6233
   26MOL0     H 3429   3.888   9.473  -0.188  0.0809  0.8290 -0.8690
   26MOL0     H 3430   4.131   9.804  -0.236 -0.4889  0.8981  1.5358
   26MOL0     H 3431   3.394   9.207   0.124 -2.6268 -1.5243 -0.9504
   26MOL0     H 3432   3.230   9.171   0.298 -0.3995 -0.8291 -0.3772
   27MOL0     O 3433   4.261   0.632   5.569 -0.0455 -0.1593  0.2586
   27MOL0     C 3434   4.277   0.551   5.661  0.8180  0.1381  0.2232
   27MOL0     O 3435   4.174   0.478   5.720 -0.8300 -0.1617  0.9272
   27MOL0     C 3436   4.048   0.518   5.683  0.3959 -1.1371 -0.7895
   27MOL0     C 3437   4.009   0.650   5.703 -0.6303 -0.0670 -0.2872
   27MOL0     C 3438   3.880   0.688   5.669  0.2666 -0.4460  0.1177
   27MOL0     C 3439   3.797   0.599   5.602 -0.4176 -0.2597  0.3871
   27MOL0     O 3440   3.689   0.662   5.548  0.5956 -0.2707 -0.0524
   27MOL0     C 3441   3.577   0.591   5.490 -0.0174  0.7097 -0.9105
   27MOL0     C 3442   3.470   0.701   5.462  0.8447  0.4482  0.8536
   27MOL0     C 3443   3.434   0.791   5.580  0.2560  0.8371  0.7992
   27MOL0     C 3444   3.323   0.886   5.535  0.4518  0.7049  0.6651
   27MOL0     C 3445   3.183   0.829   5.568  0.3726 -0.2724 -0.5504
   27MOL0     C 3446   3.076   0.909   5.497  0.2328  0.1916 -0.0714
   27MOL0     C 3447   2.930   0.850   5.525  0.7854 -0.3898 -1.2110
   27MOL0     C 3448   2.880   0.875   5.670 -0.4737  0.1527  0.6696
   27MOL0     N 3449   2.741   0.930   5.658 -0.2823  0.0338 -0.5521
   27MOL0     C 3450   2.621   0.865   5.635 -0.7665 -0.8479  0.3265
   27MOL0     C 3451   2.526   0.973   5.618  0.2647  0.0529 -0.2086
   27MOL0     C 3452   2.388   0.953   5.564  0.3045 -0.1824 -0.4888
   27MOL0     C 3453   2.298   0.958   5.678 -0.4174 -0.3964 -0.9583
   27MOL0     C 3454   2.152   0.925   5.658  0.2855  0.0137  0.5476
   27MOL0     C 3455   2.063   0.961   5.772 -0.0965  0.9458 -0.6257
   27MOL0     O 3456   1.930   0.911   5.734  0.0961  0.6135 -0.3584
   27MOL0     C 3457   1.832   0.917   5.836 -0.3491  0.3869  0.0264
   27MOL0     C 3458   1.709   0.877   5.796  0.2648  0.0847 -0.5438
   27MOL0     C 3459   1.597   0.872   5.876 -0.1060  0.6663  0.0730
   27MOL0     C 3460   1.604   0.932   6.003 -0.5499 -0.7903  1.0238
   27MOL0     C 3461   1.495   0.920   6.102  0.2083  0.5837  0.3503
   27MOL0     O 3462   1.527   0.924   6.237  0.4377  0.3386  0.5138
   27MOL0     C 3463   1.424   0.894   6.325 -0.5640  0.4770  0.6594
   27MOL0     C 3464   1.332   0.989   6.362 -0.0441 -0.7578 -0.7564
   27MOL0     C 3465   1.220   0.964   6.450 -0.6518 -0.4392 -0.7913
   27MOL0     C 3466   1.199   0.836   6.503  0.0525  0.2379  0.6188
   27MOL0     O 3467   1.099   0.805   6.594  0.7073 -0.0904  0.1100
   27MOL0     C 3468   0.977   0.891   6.598  1.0704 -0.1977 -0.1437
   27MOL0     C 3469   0.860   0.793   6.638 -0.0332 -0.3657 -0.0242
   27MOL0     C 3470   0.749   0.859   6.718  0.0029 -0.3431 -0.1787
   27MOL0     C 3471   0.785   0.919   6.851 -1.3900  0.2957  1.1107
   27MOL0     C 3472   0.682   0.953   6.955 -0.0429 -0.1701 -0.5348
   27MOL0     C 3473   0.737   1.042   7.072 -0.2143  0.6226  0.4847
   27MOL0     C 3474   0.634   1.053   7.180  0.3924 -0.6744 -0.7295
   27MOL0     C 3475   0.651   0.946   7.288 -0.1001 -0.9291  0.5302
   27MOL0    Cl 3476   0.806   0.979   7.370 -0.4216  0.2452 -0.0038
   27MOL0     C 3477   1.294   0.733   6.462  0.2605 -0.5117  0.1913
   27MOL0     C 3478   1.400   0.767   6.380  0.7304  0.3449  0.7990
   27MOL0     O 3479   1.384   0.896   6.059  0.1064 -0.0974  0.7994
   27MOL0     C 3480   1.729   0.987   6.048 -0.3759  0.7819  0.1109
   27MOL0     C 3481   1.846   0.968   5.966 -0.1579  0.3827  0.0318
   27MOL0     N 3482   2.595   1.091   5.635 -0.1172  0.0540  0.5551
   27MOL0     N 3483   2.721   1.074   5.659 -0.3738  0.6458 -0.5313
   27MOL0     C 3484   3.834   0.461   5.596  0.5011 -0.2327  0.0539
   27MOL0     C 3485   3.961   0.422   5.634 -0.6701 -0.5564  0.0887
   27MOL0     C 3486   4.413   0.511   5.716 -0.3020 -0.2668 -1.1101
   27MOL0     C 3487   4.428   0.442   5.843  0.0327 -0.7147 -0.4551
   27MOL0     C 3488   4.558   0.421   5.889 -0.1484  0.5845  0.0276
   27MOL0     C 3489   4.668   0.470   5.824 -0.7858  0.2182  1.1128
   27MOL0     O 3490   4.787   0.434   5.882 -0.1466  0.4732 -0.0272
   27MOL0     C 3491   4.910   0.487   5.840 -0.2090  0.1495 -0.4462
   27MOL0     C 3492   4.969   0.398   5.731 -0.9315  0.7632  0.1885
   27MOL0     C 3493   5.123   0.389   5.759  0.2482 -0.6379 -0.0124
   27MOL0     C 3494   5.210   0.519   5.729 -0.4058 -0.4947 -0.1468
   27MOL0     C 3495   5.334   0.522   5.805  0.1004 -0.7638 -0.4066
   27MOL0     C 3496   5.439   0.534   5.875  0.0904 -0.4110  0.2218
   27MOL0     C 3497   4.653   0.533   5.699 -0.0817  1.0007  0.8683
   27MOL0     C 3498   4.527   0.552   5.647  0.1875 -1.5232  0.0261
   27MOL0     H 3499   4.076   0.725   5.745  1.9601 -3.4454  2.1410
   27MOL0     H 3500   3.851   0.793   5.666 -0.8018 -0.6889  1.2436
   27MOL0     H 3501   3.532   0.516   5.557 -1.4360  0.3331 -2.2360
   27MOL0     H 3502   3.618   0.535   5.406  0.6940  1.2185 -0.9105
   27MOL0     H 3503   3.377   0.654   5.428  1.0632  1.4041 -1.1635
   27MOL0     H 3504   3.513   0.743   5.371  2.5312 -1.3266  0.7617
   27MOL0     H 3505   3.523   0.852   5.600  1.4712 -0.6624  0.1938
   27MOL0     H 3506   3.398   0.730   5.663 -0.4535 -1.2765 -0.9862
   27MOL0     H 3507   3.342   0.978   5.591 -0.7259  2.0440 -1.0236
   27MOL0     H 3508   3.328   0.908   5.428  1.1009  0.5941  0.6710
   27MOL0     H 3509   3.157   0.834   5.673 -0.6257  1.5805 -0.8502
   27MOL0     H 3510   3.180   0.723   5.540  1.2295 -0.9619  1.7341
   27MOL0     H 3511   3.095   0.894   5.390 -2.0492  1.7659 -0.7691
   27MOL0     H 3512   3.077   1.015   5.522 -0.9446  0.4425 -0.9535
   27MOL0     H 3513   2.855   0.879   5.451  0.2865 -1.1981 -1.0361
   27MOL0     H 3514   2.945   0.743   5.509  2.4522 -0.3829  0.0063
   27MOL0     H 3515   2.942   0.947   5.724 -0.1181 -1.5220  2.6249
   27MOL0     H 3516   2.881   0.781   5.726 -0.4262 -0.4843 -0.3731
   27MOL0     H 3517   2.600   0.763   5.603 -3.7592  0.7184 -3.4510
   27MOL0     H 3518   2.371   0.856   5.516 -1.3343  0.0446 -0.4319
   27MOL0     H 3519   2.362   1.024   5.485 -2.2174 -3.0417 -2.4667
   27MOL0     H 3520   2.306   1.056   5.727 -0.6709  0.6176 -2.8321
   27MOL0     H 3521   2.323   0.886   5.756 -2.7892 -2.5457 -2.0096
   27MOL0     H 3522   2.118   0.990   5.576 -0.0832 -0.5100  0.2825
   27MOL0     H 3523   2.134   0.820   5.633 -1.7587  0.5621 -0.4705
   27MOL0     H 3524   2.064   1.067   5.796  3.1513  0.5759  1.4883
   27MOL0     H 3525   2.102   0.903   5.856 -0.4931 -2.6668 -2.7261
   27MOL0     H 3526   1.695   0.836   5.697  2.7776 -0.9349 -0.5443
   27MOL0     H 3527   1.518   0.811   5.834  0.3649  0.9094 -1.1816
   27MOL0     H 3528   1.344   1.089   6.322 -0.8565  2.5897  5.9220
   27MOL0     H 3529   1.152   1.046   6.472  0.3332  0.2472 -0.2079
   27MOL0     H 3530   0.950   0.938   6.503 -1.2089  1.3261  1.1659
   27MOL0     H 3531   0.989   0.959   6.682  1.6891  0.2414 -0.5726
   27MOL0     H 3532   0.893   0.702   6.689  4.1393  0.1989 -1.2819
   27MOL0     H 3533   0.811   0.752   6.549  0.4536  2.2185 -1.6263
   27MOL0     H 3534   0.674   0.780   6.728 -0.4960 -0.2416 -2.5369
   27MOL0     H 3535   0.685   0.928   6.662 -1.2731 -1.7503 -0.5144
   27MOL0     H 3536   0.868   0.858   6.887 -0.6307 -0.1832 -1.2763
   27MOL0     H 3537   0.839   1.012   6.828  0.5140 -1.2130 -0.9613
   27MOL0     H 3538   0.661   0.854   6.995  1.8379 -1.5483 -2.7034
   27MOL0     H 3539   0.589   0.993   6.913  0.9333  0.5789 -2.0967
   27MOL0     H 3540   0.761   1.137   7.024  1.1858  0.5916  1.0784
   27MOL0     H 3541   0.832   0.998   7.103 -0.2669  1.2305  1.5733
   27MOL0     H 3542   0.648   1.152   7.225  1.6149 -1.1378 -0.0610
   27MOL0     H 3543   0.536   1.038   7.133 -0.7276 -2.2098  1.8546
   27MOL0     H 3544   0.662   0.843   7.253  2.9520 -0.5067 -0.0244
   27MOL0     H 3545   0.576   0.955   7.367 -0.8068  0.1369 -0.2431
   27MOL0     H 3546   1.292   0.638   6.514 -0.8471 -0.3571  0.4508
   27MOL0     H 3547   1.458   0.681   6.349  3.6184  2.2002  0.6227
   27MOL0     H 3548   1.737   1.031   6.147 -0.0555 -0.3434  0.5970
   27MOL0     H 3549   1.944   0.991   6.005 -0.2725  0.2773  0.3806
   27MOL0     H 3550   3.767   0.387   5.554  0.0514 -0.8643  1.8226
   27MOL0     H 3551   3.994   0.321   5.611  0.8910  0.1076 -0.7895
   27MOL0     H 3552   4.339   0.417   5.900 -0.8778 -2.0113 -2.3404
   27MOL0     H 3553   4.584   0.359   5.975 -1.3901 -0.4208 -0.2958
   27MOL0     H 3554   4.970   0.491   5.931 -2.9252  1.4907  1.4210
   27MOL0     H 3555   4.906   0.592   5.812  0.1507  0.2509 -0.1218
   27MOL0     H 3556   4.922   0.299   5.729  3.0186 -1.2900 -1.0619
   27MOL0     H 3557   4.955   0.439   5.631  0.0215 -0.0091 -0.2736
   27MOL0     H 3558   5.158   0.305   5.699  1.7761  0.3423 -0.5459
   27MOL0     H 3559   5.137   0.376   5.866 -1.5861  0.2391  0.3845
   27MOL0     H 3560   5.234   0.531   5.623 -0.6048  2.2767  0.0715
   27MOL0     H 3561   5.144   0.602   5.756 -1.9416 -1.5639 -0.4676
   27MOL0     H 3562   5.524   0.547   5.939  1.2955  0.8603 -1.5695
   27MOL0     H 3563   4.742   0.568   5.647  0.9114 -0.6906  1.3618
   27MOL0     H 3564   4.506   0.598   5.551 -0.2272  0.5927  1.0908
   28MOL0     O 3565   5.199   1.043   7.165 -0.0416 -0.1058 -0.3460
   28MOL0     C 3566   5.187   0.962   7.068  0.7283 -0.2893 -0.2375
   28MOL0     O 3567   5.287   0.876   7.022 -0.1804 -0.1296 -0.1173
   28MOL0     C 3568   5.423   0.883   7.047 -0.0687  0.1582 -0.8100
   28MOL0     C 3569   5.507   0.772   7.030 -0.0813  0.5122  0.0920
   28MOL0     C 3570   5.643   0.777   7.055  0.2534  0.1061  1.0335
   28MOL0     C 3571   5.703   0.891   7.104  0.5118  0.4998 -0.0951
   28MOL0     O 3572   5.837   0.912   7.102  0.0244 -0.4293 -0.5591
   28MOL0     C 3573   5.938   0.815   7.125  0.0077 -0.4127  0.5269
   28MOL0     C 3574   6.076   0.890   7.140  0.6019  0.9399  0.4548
   28MOL0     C 3575   6.186   0.789   7.152 -1.4212 -0.1491 -1.1630
   28MOL0     C 3576   6.320   0.861   7.142  0.1022 -0.2992  0.4795
   28MOL0     C 3577   6.453   0.802   7.166  0.1796  0.5347  0.6548
   28MOL0     C 3578   6.568   0.891   7.148 -0.4371  0.0484 -0.6582
   28MOL0     C 3579   6.703   0.827   7.195 -0.9845 -0.6960 -0.0922
   28MOL0     C 3580   6.838   0.908   7.176  0.6014  0.5283  0.5168
   28MOL0     N 3581   6.810   1.050   7.175  0.1816 -0.2425 -0.3055
   28MOL0     C 3582   6.849   1.130   7.268  0.0375 -0.0269 -1.2396
   28MOL0     C 3583   6.827   1.254   7.220  0.2597 -0.4393 -0.6695
   28MOL0     C 3584   6.877   1.380   7.290 -0.7052 -0.6119 -0.4454
   28MOL0     C 3585   6.765   1.415   7.382 -0.8960 -0.1831 -1.0487
   28MOL0     C 3586   6.653   1.488   7.300  0.7352  0.1748  0.1429
   28MOL0     C 3587   6.513   1.442   7.352 -0.3255  0.9023 -0.2105
   28MOL0     O 3588   6.413   1.501   7.270 -0.1283  0.5966 -0.1077
   28MOL0     C 3589   6.285   1.469   7.260  0.0091 -0.9139 -0.4371
   28MOL0     C 3590   6.223   1.364   7.324 -0.3128 -0.5574 -0.0681
   28MOL0     C 3591   6.088   1.341   7.293 -0.0018  0.0802 -0.6876
   28MOL0     C 3592   6.012   1.427   7.207 -0.7155 -0.7660  0.6815
   28MOL0     C 3593   5.873   1.402   7.179  0.3757 -0.1510 -0.2662
   28MOL0     O 3594   5.808   1.499   7.113  0.7395  0.4657 -0.0550
   28MOL0     C 3595   5.677   1.500   7.069 -0.0093  0.2576 -0.7565
   28MOL0     C 3596   5.653   1.506   6.931  0.8688 -0.0004 -0.4340
   28MOL0     C 3597   5.522   1.488   6.882  0.0373 -0.2393 -0.2392
   28MOL0     C 3598   5.415   1.487   6.977  0.3433 -0.0140 -0.6287
   28MOL0     O 3599   5.286   1.487   6.933 -0.1896  0.9361 -0.0728
   28MOL0     C 3600   5.251   1.417   6.817 -0.3475 -0.2619  0.9556
   28MOL0     C 3601   5.106   1.431   6.787  0.0786  0.5590 -0.2084
   28MOL0     C 3602   5.028   1.340   6.873  0.2704  0.0580  0.0886
   28MOL0     C 3603   4.877   1.353   6.825 -0.1994 -0.1502 -0.6575
   28MOL0     C 3604   4.844   1.289   6.690  0.1150 -0.3846  0.4101
   28MOL0     C 3605   4.687   1.270   6.678 -0.1113 -0.0331 -0.1119
   28MOL0     C 3606   4.643   1.404   6.610  0.3415  0.2436  0.9024
   28MOL0     C 3607   4.497   1.399   6.583 -0.7026  0.5490  0.0665
   28MOL0    Cl 3608   4.448   1.535   6.491 -0.3798  0.9278 -0.0086
   28MOL0     C 3609   5.446   1.487   7.118  0.1560 -0.2647  0.3679
   28MOL0     C 3610   5.582   1.486   7.169  0.4352 -0.1301 -0.5313
   28MOL0     O 3611   5.813   1.308   7.232 -0.1281  0.6221  0.3202
   28MOL0     C 3612   6.076   1.542   7.148  0.2614 -0.1813  0.2061
   28MOL0     C 3613   6.209   1.566   7.178 -0.4749 -0.7145  0.5535
   28MOL0     N 3614   6.775   1.251   7.091  0.1092  0.8784 -0.2055
   28MOL0     N 3615   6.763   1.122   7.070  0.1645 -0.4691  0.2033
   28MOL0     C 3616   5.625   1.006   7.123  0.3855  0.4488  0.1279
   28MOL0     C 3617   5.486   1.004   7.094  0.0196  0.8567 -0.1615
   28MOL0     C 3618   5.047   0.947   7.008 -1.1400  1.2304  0.1265
   28MOL0     C 3619   5.026   0.834   6.923  0.6193 -0.8044  0.3174
   28MOL0     C 3620   4.898   0.819   6.873  0.2526  0.1148 -0.0636
   28MOL0     C 3621   4.793   0.904   6.911 -1.0123  0.3419  0.5016
   28MOL0     O 3622   4.669   0.879   6.863  0.2231 -0.0667 -0.7366
   28MOL0     C 3623   4.561   0.952   6.922  0.3655  0.4208 -0.8488
   28MOL0     C 3624   4.440   0.918   6.846 -0.1800  0.3401 -0.0007
   28MOL0     C 3625   4.312   0.985   6.910 -1.0502 -0.2754 -0.1685
   28MOL0     C 3626   4.188   0.945   6.842 -0.0980 -0.8053  1.1594
   28MOL0     C 3627   4.078   1.019   6.907  0.7092  0.0307 -0.0533
   28MOL0     C 3628   3.996   1.089   6.957 -0.5569 -0.1196  0.5339
   28MOL0     C 3629   4.829   1.013   6.989 -0.8888  0.1359  0.2131
   28MOL0     C 3630   4.953   1.035   7.049  0.2921  0.3067 -0.2311
   28MOL0     H 3631   5.474   0.675   6.996 -2.1603  0.7844  1.2042
   28MOL0     H 3632   5.701   0.690   7.028 -1.3766 -0.1272 -2.2077
   28MOL0     H 3633   5.938   0.727   7.061 -0.2359  0.2785 -0.4411
   28MOL0     H 3634   5.910   0.767   7.220 -2.4422 -1.6148 -0.7175
   28MOL0     H 3635   6.063   0.947   7.232  0.6750 -1.0083  1.7322
   28MOL0     H 3636   6.094   0.951   7.051 -1.3544  2.1423  0.8400
   28MOL0     H 3637   6.189   0.718   7.069  2.1887 -0.3043 -1.0217
   28MOL0     H 3638   6.175   0.741   7.250  1.1326 -1.4720 -1.4459
   28MOL0     H 3639   6.325   0.922   7.051  2.5257  1.0221  1.3850
   28MOL0     H 3640   6.315   0.938   7.220  0.5861 -1.6859  1.9216
   28MOL0     H 3641   6.472   0.711   7.108 -0.9054  0.7346 -0.0486
   28MOL0     H 3642   6.446   0.774   7.271 -2.1720  0.9063  0.6604
   28MOL0     H 3643   6.558   0.978   7.213  2.6962 -1.6051  2.3717
   28MOL0     H 3644   6.569   0.922   7.043 -0.6227  0.6690 -0.4809
   28MOL0     H 3645   6.696   0.817   7.304 -2.8832  2.5261  0.2060
   28MOL0     H 3646   6.729   0.730   7.151  0.4811 -0.8991  1.1258
   28MOL0     H 3647   6.876   0.887   7.076  2.3790  0.7338  1.1092
   28MOL0     H 3648   6.921   0.888   7.245  1.6926  1.3184 -0.5299
   28MOL0     H 3649   6.900   1.103   7.360 -0.9305  1.2611 -0.2794
   28MOL0     H 3650   6.891   1.464   7.222  1.9913  0.3006  1.0875
   28MOL0     H 3651   6.966   1.357   7.350 -0.9332 -0.7181 -0.1452
   28MOL0     H 3652   6.798   1.482   7.462  0.1255 -1.9895  0.0938
   28MOL0     H 3653   6.728   1.319   7.420  0.4164 -0.1031  0.5276
   28MOL0     H 3654   6.668   1.595   7.315  0.1048  0.3250 -0.2931
   28MOL0     H 3655   6.663   1.466   7.194  0.0466  0.8686 -0.0677
   28MOL0     H 3656   6.511   1.477   7.456  0.4728 -2.2826  0.9956
   28MOL0     H 3657   6.501   1.334   7.356  1.8396  0.6326  0.0436
   28MOL0     H 3658   6.272   1.292   7.389  1.1033 -0.7590 -1.3017
   28MOL0     H 3659   6.043   1.250   7.329  0.1791 -0.3859 -1.6017
   28MOL0     H 3660   5.742   1.512   6.869  1.8814  0.7880  1.0364
   28MOL0     H 3661   5.492   1.498   6.778 -1.4196 -4.1680 -0.3821
   28MOL0     H 3662   5.291   1.315   6.816  2.2464  0.6460 -1.2273
   28MOL0     H 3663   5.294   1.468   6.730 -2.2577 -0.1111  0.0538
   28MOL0     H 3664   5.093   1.397   6.684  2.7865  2.0928 -1.1396
   28MOL0     H 3665   5.067   1.532   6.802 -0.0166  0.3796  0.8403
   28MOL0     H 3666   5.044   1.380   6.973 -1.1476  1.6321 -0.2687
   28MOL0     H 3667   5.067   1.238   6.864 -0.1491 -0.0444 -0.7617
   28MOL0     H 3668   4.817   1.298   6.899 -0.3258 -1.2582 -1.5557
   28MOL0     H 3669   4.848   1.459   6.829  3.2876  0.9724 -1.6828
   28MOL0     H 3670   4.889   1.190   6.678 -1.2238 -0.8562 -1.0525
   28MOL0     H 3671   4.893   1.345   6.609 -1.7701 -1.0622 -1.2747
   28MOL0     H 3672   4.629   1.258   6.769 -0.7372  2.6682 -0.0773
   28MOL0     H 3673   4.673   1.183   6.613  0.2325 -1.6589  1.9145
   28MOL0     H 3674   4.661   1.483   6.684 -0.9589 -1.0105  2.6333
   28MOL0     H 3675   4.692   1.425   6.514 -1.4690 -1.4932 -0.4854
   28MOL0     H 3676   4.442   1.384   6.677 -0.4210  1.4995  0.3936
   28MOL0     H 3677   4.475   1.310   6.524 -0.8211 -0.7103  1.8989
   28MOL0     H 3678   5.372   1.480   7.197 -0.1726 -1.0278 -0.0091
   28MOL0     H 3679   5.599   1.463   7.274 -1.2890  2.1292  0.3231
   28MOL0     H 3680   6.012   1.605   7.087 -1.3949 -0.8597  1.1915
   28MOL0     H 3681   6.256   1.660   7.152 -0.4106 -0.4611  1.5346
   28MOL0     H 3682   5.670   1.096   7.164 -1.0979  1.2327  0.1202
   28MOL0     H 3683   5.438   1.100   7.111  0.3542  0.7969  1.2239
   28MOL0     H 3684   5.106   0.768   6.889 -0.7555  0.0222 -5.3527
   28MOL0     H 3685   4.869   0.743   6.801 -0.5694  0.6434 -0.3053
   28MOL0     H 3686   4.570   1.061   6.916  1.7818  0.2507 -2.8507
   28MOL0     H 3687   4.564   0.917   7.026  0.6792 -3.0348 -1.8984
   28MOL0     H 3688   4.461   0.939   6.740  2.8011 -3.2063 -0.3516
   28MOL0     H 3689   4.423   0.810   6.846 -0.1511  0.3209  1.3127
   28MOL0     H 3690   4.320   1.094   6.907  0.2249 -0.3689 -0.9127
   28MOL0     H 3691   4.309   0.953   7.015 -1.1224  2.5873  0.7987
   28MOL0     H 3692   4.205   0.971   6.737  0.3038  0.9861  1.6418
   28MOL0     H 3693   4.170   0.837   6.842 -0.5525 -0.7329  0.4110
   28MOL0     H 3694   3.926   1.154   7.004 -0.7333 -1.6209  2.4803
   28MOL0     H 3695   4.751   1.087   7.006 -2.2218 -1.5895  2.1443
   28MOL0     H 3696   4.976   1.121   7.111  1.1930  0.4346 -0.7226
   29MOL0     O 3697   4.101   4.089   4.586 -0.5134 -0.1923  0.2225
   29MOL0     C 3698   4.126   3.969   4.577 -0.3491 -0.0733 -0.3635
   29MOL0     O 3699   4.045   3.870   4.597  0.2328 -0.5205  0.6979
   29MOL0     C 3700   3.917   3.892   4.647 -0.3399 -0.3798  0.3687
   29MOL0     C 3701   3.889   3.819   4.763  0.3691  0.7787  0.7886
   29MOL0     C 3702   3.773   3.837   4.834  0.3738  0.1390 -0.4659
   29MOL0     C 3703   3.685   3.942   4.797  0.4608  0.0014  1.2957
   29MOL0     O 3704   3.572   3.958   4.872 -0.3073  0.3443 -0.3989
   29MOL0     C 3705   3.513   4.086   4.875  0.0651 -0.2766 -0.3871
   29MOL0     C 3706   3.398   4.075   4.967  0.2946 -1.1260  0.2244
   29MOL0     C 3707   3.313   4.201   4.975  0.9959 -0.7531  0.1877
   29MOL0     C 3708   3.274   4.271   4.842 -0.5694  0.4789 -0.8325
   29MOL0     C 3709   3.209   4.411   4.881  0.4636 -0.6612  0.0156
   29MOL0     C 3710   3.194   4.496   4.757 -0.3724  0.3029  0.2728
   29MOL0     C 3711   3.170   4.648   4.792  0.3115 -0.1821  0.0838
   29MOL0     C 3712   3.184   4.749   4.674  0.1267  0.2296 -0.0776
   29MOL0     N 3713   3.132   4.882   4.712  0.4836 -0.0931  0.5796
   29MOL0     C 3714   3.156   4.948   4.836 -0.1772  0.4469 -0.3615
   29MOL0     C 3715   3.085   5.067   4.826 -0.0874 -0.1560  0.3764
   29MOL0     C 3716   3.081   5.186   4.924 -0.2314  0.2343  0.1739
   29MOL0     C 3717   2.935   5.229   4.940 -0.4812  1.1114  0.1958
   29MOL0     C 3718   2.848   5.130   5.007  0.5873  0.4431 -0.2042
   29MOL0     C 3719   2.746   5.204   5.089  1.0570  0.1948  0.4848
   29MOL0     O 3720   2.706   5.118   5.194  0.1963  0.1503  0.6630
   29MOL0     C 3721   2.584   5.148   5.248  0.0594  0.2099  0.3455
   29MOL0     C 3722   2.541   5.062   5.345 -0.2723  0.2144 -0.5197
   29MOL0     C 3723   2.426   5.088   5.424 -0.1021 -0.6697  0.5273
   29MOL0     C 3724   2.341   5.198   5.390 -0.2802  0.3578  0.5878
   29MOL0     C 3725   2.211   5.220   5.462  0.3695  0.2571  0.5754
   29MOL0     O 3726   2.165   5.112   5.522  0.0830 -0.3661 -0.3172
   29MOL0     C 3727   2.037   5.129   5.575 -0.2609  0.5842  0.7539
   29MOL0     C 3728   1.933   5.101   5.489  0.0837 -0.7029 -0.7091
   29MOL0     C 3729   1.801   5.115   5.526 -1.1074  0.5858  1.0711
   29MOL0     C 3730   1.773   5.142   5.657 -0.6007  0.1726 -0.4202
   29MOL0     O 3731   1.642   5.146   5.712  0.3833  0.6063 -0.4761
   29MOL0     C 3732   1.534   5.205   5.638 -0.6219 -0.0338 -0.5226
   29MOL0     C 3733   1.413   5.229   5.733 -0.5629 -0.5164 -0.3728
   29MOL0     C 3734   1.290   5.276   5.660 -0.6724  0.5289  0.1996
   29MOL0     C 3735   1.162   5.285   5.746  0.6730 -0.5277 -0.1001
   29MOL0     C 3736   1.047   5.300   5.653 -0.3703 -0.1651 -0.8718
   29MOL0     C 3737   0.918   5.272   5.736 -0.4308 -0.4593 -0.5951
   29MOL0     C 3738   0.788   5.294   5.661  0.1515  0.2834  0.0845
   29MOL0     C 3739   0.667   5.239   5.733  0.5700 -0.0265  0.1528
   29MOL0    Cl 3740   0.516   5.249   5.635 -0.1565  0.2201  0.1435
   29MOL0     C 3741   1.876   5.165   5.749 -0.5802  0.6298  0.5693
   29MOL0     C 3742   2.010   5.161   5.710 -0.5638 -0.1390  0.5475
   29MOL0     O 3743   2.162   5.334   5.457 -0.8261  0.1434 -0.8591
   29MOL0     C 3744   2.377   5.277   5.278 -0.1805 -0.1925  0.0519
   29MOL0     C 3745   2.500   5.252   5.211  0.1739  0.4047 -0.2749
   29MOL0     N 3746   3.015   5.070   4.707  0.4828 -0.3900  0.4387
   29MOL0     N 3747   3.038   4.960   4.646 -0.2453  0.0662 -0.0548
   29MOL0     C 3748   3.703   3.997   4.671 -0.5661 -1.0622 -0.1007
   29MOL0     C 3749   3.821   3.979   4.597  0.3057 -0.2790 -0.4285
   29MOL0     C 3750   4.274   3.937   4.575  0.8607 -0.0551 -0.6089
   29MOL0     C 3751   4.323   3.805   4.586 -0.1295  0.2588 -0.4754
   29MOL0     C 3752   4.459   3.780   4.577 -0.3394  0.8314  0.6572
   29MOL0     C 3753   4.547   3.883   4.558 -0.4961  0.1570  0.5137
   29MOL0     O 3754   4.682   3.859   4.543 -0.7589  0.1660  0.3335
   29MOL0     C 3755   4.774   3.955   4.598  1.0731  0.2607  0.6376
   29MOL0     C 3756   4.908   3.903   4.636 -0.0844  0.3677  0.1524
   29MOL0     C 3757   5.000   4.011   4.693  0.7043  0.0790 -0.2043
   29MOL0     C 3758   5.130   3.963   4.764 -0.6874  0.2504 -0.5625
   29MOL0     C 3759   5.208   4.074   4.830  0.3966 -0.1620 -0.3531
   29MOL0     C 3760   5.261   4.161   4.891  0.5938  0.3004  0.1921
   29MOL0     C 3761   4.495   4.016   4.542  0.1984 -0.0603 -0.1662
   29MOL0     C 3762   4.361   4.038   4.568 -0.2357 -0.5356  0.0489
   29MOL0     H 3763   3.960   3.746   4.800 -0.6394 -0.7877 -0.2631
   29MOL0     H 3764   3.761   3.780   4.925  0.8075  1.3719  0.4014
   29MOL0     H 3765   3.491   4.111   4.771  0.1609 -1.3023 -0.6740
   29MOL0     H 3766   3.579   4.169   4.899 -0.6318  0.8890 -2.3120
   29MOL0     H 3767   3.439   4.067   5.069 -0.0813  1.9222  0.6960
   29MOL0     H 3768   3.334   3.989   4.947 -1.6088 -0.1369  1.7053
   29MOL0     H 3769   3.351   4.271   5.050 -0.7088 -0.4916  0.8549
   29MOL0     H 3770   3.216   4.166   5.013  0.1019  0.2399 -1.0558
   29MOL0     H 3771   3.368   4.290   4.790 -1.1686  2.3865 -1.2848
   29MOL0     H 3772   3.201   4.220   4.777  1.0987 -0.4966 -2.0192
   29MOL0     H 3773   3.267   4.465   4.957 -0.2385 -2.1667  1.6896
   29MOL0     H 3774   3.107   4.392   4.914  0.5961 -1.7980 -0.1895
   29MOL0     H 3775   3.103   4.468   4.703  0.0784  1.5388 -1.2138
   29MOL0     H 3776   3.283   4.491   4.694 -2.4776 -1.6697 -2.8051
   29MOL0     H 3777   3.073   4.648   4.842  0.8666 -0.8877  1.2141
   29MOL0     H 3778   3.241   4.686   4.866 -2.2979  2.2496  1.5379
   29MOL0     H 3779   3.123   4.706   4.594 -1.8220  1.1204  0.8406
   29MOL0     H 3780   3.285   4.755   4.634  0.0517 -2.0351 -0.7273
   29MOL0     H 3781   3.221   4.922   4.919 -1.7342 -1.0679  0.4567
   29MOL0     H 3782   3.124   5.274   4.876 -1.5710  0.8463  0.0407
   29MOL0     H 3783   3.123   5.161   5.022  1.1051  2.7909  0.3409
   29MOL0     H 3784   2.901   5.256   4.840 -0.2974 -1.0103 -0.4940
   29MOL0     H 3785   2.928   5.326   4.990  0.5647  1.3297 -0.0595
   29MOL0     H 3786   2.795   5.078   4.927  1.7214  0.1539 -0.7753
   29MOL0     H 3787   2.919   5.067   5.061  1.7535  1.2207 -0.7790
   29MOL0     H 3788   2.659   5.224   5.026  0.7151  0.0638  0.9079
   29MOL0     H 3789   2.779   5.294   5.140 -1.4131  0.9355  0.9216
   29MOL0     H 3790   2.595   4.974   5.377 -1.6464 -0.5351 -0.1603
   29MOL0     H 3791   2.389   5.026   5.506 -1.9338  1.4435  1.4058
   29MOL0     H 3792   1.963   5.059   5.393  0.2448 -2.4287  0.0615
   29MOL0     H 3793   1.724   5.092   5.454 -0.2532  2.2694 -0.4425
   29MOL0     H 3794   1.512   5.138   5.554  0.6633  0.3972 -1.2277
   29MOL0     H 3795   1.571   5.303   5.608 -1.3947  0.4954  0.2295
   29MOL0     H 3796   1.443   5.312   5.798 -1.0125 -1.2096  0.7378
   29MOL0     H 3797   1.384   5.150   5.802  0.7864 -0.0113  0.8090
   29MOL0     H 3798   1.270   5.194   5.591 -1.3530 -0.7113  1.8368
   29MOL0     H 3799   1.319   5.366   5.605  4.0806 -0.7063  0.2074
   29MOL0     H 3800   1.135   5.196   5.803 -2.7933 -0.0945 -0.8525
   29MOL0     H 3801   1.163   5.369   5.816  1.8154 -0.7525  0.1732
   29MOL0     H 3802   1.053   5.222   5.577 -0.5314 -2.9364  1.8029
   29MOL0     H 3803   1.048   5.394   5.597  0.0883  1.2336  1.3521
   29MOL0     H 3804   0.913   5.329   5.829 -2.3228  1.4423 -1.7640
   29MOL0     H 3805   0.927   5.171   5.776 -0.9156  0.0146  0.8006
   29MOL0     H 3806   0.762   5.401   5.661  1.2510  0.5797  1.2666
   29MOL0     H 3807   0.789   5.254   5.560 -1.5538 -0.6470  0.4010
   29MOL0     H 3808   0.658   5.284   5.833 -0.4622 -0.9477  0.5001
   29MOL0     H 3809   0.684   5.132   5.748  0.9217  0.1040  0.7762
   29MOL0     H 3810   1.844   5.200   5.846 -1.0627  1.5172  0.1114
   29MOL0     H 3811   2.098   5.179   5.772  0.8766 -0.3353 -1.3426
   29MOL0     H 3812   2.308   5.351   5.240 -1.0646 -0.8579  0.3354
   29MOL0     H 3813   2.512   5.316   5.125 -0.5128 -2.6060 -2.8063
   29MOL0     H 3814   3.634   4.075   4.642 -0.5877 -1.6841 -1.8456
   29MOL0     H 3815   3.828   4.036   4.505 -1.2725  0.9712  0.1855
   29MOL0     H 3816   4.259   3.722   4.615  1.0670  0.2886  2.5962
   29MOL0     H 3817   4.503   3.681   4.583  0.3869  1.1850  1.3620
   29MOL0     H 3818   4.715   3.985   4.685 -0.0145  1.7474 -0.5720
   29MOL0     H 3819   4.782   4.037   4.527 -0.3655 -0.9200 -0.9787
   29MOL0     H 3820   4.893   3.820   4.706 -2.7594  0.4181 -0.2532
   29MOL0     H 3821   4.953   3.857   4.548 -0.9042  1.7863 -1.0452
   29MOL0     H 3822   4.951   4.059   4.778  2.6033 -1.1323  1.6435
   29MOL0     H 3823   5.032   4.083   4.617 -0.1804  0.4305 -0.2573
   29MOL0     H 3824   5.107   3.894   4.845 -0.6000 -1.2821 -1.7873
   29MOL0     H 3825   5.197   3.914   4.692  1.2238  0.5713  0.9529
   29MOL0     H 3826   5.306   4.238   4.950  0.4775 -0.0224  0.7089
   29MOL0     H 3827   4.561   4.096   4.512  1.5757 -1.4009 -0.8285
   29MOL0     H 3828   4.326   4.141   4.571  3.6866  0.9493  2.6389
   30MOL0     O 3829   6.221   1.908   4.085 -0.1123 -0.0415 -0.0593
   30MOL0     C 3830   6.272   1.893   4.198 -0.0470  0.0353  0.2683
   30MOL0     O 3831   6.225   1.815   4.296 -0.1604  0.0390  0.0286
   30MOL0     C 3832   6.119   1.735   4.277 -0.0135 -0.5746  0.5682
   30MOL0     C 3833   6.126   1.648   4.168 -0.2665  0.1784 -0.2444
   30MOL0     C 3834   6.017   1.561   4.140  0.8919  0.2794  0.3180
   30MOL0     C 3835   5.902   1.560   4.215 -0.5634 -0.6956  0.0890
   30MOL0     O 3836   5.793   1.480   4.199  0.1739 -0.3231  0.1084
   30MOL0     C 3837   5.768   1.416   4.074  0.0860 -0.4242 -0.1500
   30MOL0     C 3838   5.632   1.359   4.075 -0.2398  0.1353  0.4992
   30MOL0     C 3839   5.600   1.285   3.947  0.0919  0.4371  0.6887
   30MOL0     C 3840   5.460   1.224   3.960 -0.1527  0.1518  0.0249
   30MOL0     C 3841   5.386   1.202   3.823 -0.3890 -0.6104 -0.1399
   30MOL0     C 3842   5.273   1.102   3.834 -0.5879 -0.2527  0.4072
   30MOL0     C 3843   5.145   1.168   3.882  0.4357  0.6262  0.3162
   30MOL0     C 3844   5.041   1.065   3.916 -0.2739  0.6991  0.3392
   30MOL0     N 3845   4.994   0.986   3.800 -0.2737 -0.7981  0.0274
   30MOL0     C 3846   4.923   1.044   3.691 -0.2291  0.4040  0.9003
   30MOL0     C 3847   4.927   0.945   3.596 -0.7829  0.3355 -1.4260
   30MOL0     C 3848   4.886   0.948   3.457  0.5099 -0.2257 -0.1107
   30MOL0     C 3849   4.733   0.961   3.449 -0.3693 -0.4043  0.4441
   30MOL0     C 3850   4.690   0.956   3.299 -0.3417  0.1964  0.0294
   30MOL0     C 3851   4.543   0.944   3.280 -0.5896 -0.9744 -0.0087
   30MOL0     O 3852   4.494   0.817   3.328 -0.0194 -0.2392  0.5564
   30MOL0     C 3853   4.357   0.778   3.318 -0.4986 -0.4441  0.4018
   30MOL0     C 3854   4.320   0.644   3.353 -0.3563 -1.3971  0.5681
   30MOL0     C 3855   4.184   0.611   3.347  0.4689  0.0475 -0.2033
   30MOL0     C 3856   4.079   0.704   3.312 -1.1944  0.2673 -0.1919
   30MOL0     C 3857   3.939   0.660   3.326  0.1691 -0.1346  0.6089
   30MOL0     O 3858   3.847   0.764   3.343 -0.4015  0.6864  0.3249
   30MOL0     C 3859   3.718   0.720   3.352  0.0626 -0.1912  0.9727
   30MOL0     C 3860   3.630   0.719   3.235 -0.9397 -0.8829 -0.0868
   30MOL0     C 3861   3.494   0.696   3.254  0.1882  0.3975  0.3752
   30MOL0     C 3862   3.441   0.658   3.381 -1.0813 -0.2755  0.1656
   30MOL0     O 3863   3.305   0.644   3.410 -0.3369  0.1239  0.1286
   30MOL0     C 3864   3.223   0.598   3.304 -0.3428  1.0023  0.3610
   30MOL0     C 3865   3.101   0.532   3.364 -0.4582 -1.2079  0.3118
   30MOL0     C 3866   3.006   0.645   3.401 -0.1980  1.0144 -0.3538
   30MOL0     C 3867   2.869   0.595   3.443  0.9805  0.3198  0.4261
   30MOL0     C 3868   2.862   0.566   3.594 -0.1320  0.4018 -0.6549
   30MOL0     C 3869   2.860   0.684   3.703 -0.3671  1.1987  1.4211
   30MOL0     C 3870   2.740   0.764   3.700  0.5648 -0.4863  0.4812
   30MOL0     C 3871   2.726   0.856   3.814  0.2614 -0.4609  0.0985
   30MOL0    Cl 3872   2.571   0.954   3.811  0.2654 -0.2959  0.5140
   30MOL0     C 3873   3.526   0.650   3.492  0.2479 -0.6600  0.7038
   30MOL0     C 3874   3.663   0.686   3.479 -0.1757 -0.5539 -0.2040
   30MOL0     O 3875   3.921   0.536   3.337  0.1909 -0.2808 -0.1161
   30MOL0     C 3876   4.118   0.834   3.277  0.5062 -0.2586 -0.3781
   30MOL0     C 3877   4.251   0.867   3.276 -0.1265 -0.7984 -0.6242
   30MOL0     N 3878   4.988   0.831   3.659  0.3773  0.3697  0.3675
   30MOL0     N 3879   5.030   0.857   3.781  0.7470  0.4858  0.2266
   30MOL0     C 3880   5.889   1.647   4.328 -0.0324  0.7851 -0.6599
   30MOL0     C 3881   6.001   1.739   4.356 -0.5658  0.2911  0.6086
   30MOL0     C 3882   6.393   1.973   4.237 -0.6336 -0.0609 -0.2856
   30MOL0     C 3883   6.467   1.955   4.357  0.1810  0.6299  0.4401
   30MOL0     C 3884   6.584   2.032   4.373 -0.2348 -0.8711 -0.6942
   30MOL0     C 3885   6.624   2.121   4.283 -0.8318  0.3451  0.7831
   30MOL0     O 3886   6.733   2.209   4.306 -0.4548 -0.4604  0.2902
   30MOL0     C 3887   6.814   2.227   4.196 -0.3780 -0.1516 -0.0934
   30MOL0     C 3888   6.951   2.301   4.233  0.0674  0.4466 -0.2159
   30MOL0     C 3889   7.066   2.207   4.190 -0.4895 -0.4877  1.0265
   30MOL0     C 3890   7.197   2.281   4.193  0.0296  0.1056  1.4068
   30MOL0     C 3891   7.302   2.215   4.110  0.1583 -0.0620 -0.2697
   30MOL0     C 3892   7.393   2.169   4.042  0.5540 -0.5479 -0.3177
   30MOL0     C 3893   6.547   2.139   4.159  0.5025  0.0468 -0.1677
   30MOL0     C 3894   6.436   2.069   4.144  0.4135  0.4687  0.5002
   30MOL0     H 3895   6.208   1.639   4.097 -1.4260  1.8722 -1.9174
   30MOL0     H 3896   6.031   1.494   4.056  0.5336  1.4644 -0.7074
   30MOL0     H 3897   5.838   1.333   4.064  1.1818  0.1258  2.1807
   30MOL0     H 3898   5.779   1.486   3.991  0.7463  1.6927  1.6248
   30MOL0     H 3899   5.555   1.435   4.092  0.3715  0.7467  0.5753
   30MOL0     H 3900   5.629   1.278   4.148  0.1129  1.2082  1.7320
   30MOL0     H 3901   5.682   1.213   3.933 -0.0694  0.0579  1.6413
   30MOL0     H 3902   5.596   1.347   3.856 -0.4555  0.2659  0.5924
   30MOL0     H 3903   5.473   1.133   4.020  0.6735  1.4847  1.9632
   30MOL0     H 3904   5.386   1.287   4.010 -1.1132  0.6650 -1.9512
   30MOL0     H 3905   5.457   1.152   3.756 -0.7597 -0.0761 -0.9294
   30MOL0     H 3906   5.350   1.291   3.771 -1.0976 -0.2514  0.9177
   30MOL0     H 3907   5.293   1.015   3.897  1.1316 -1.4010 -1.6029
   30MOL0     H 3908   5.261   1.056   3.735  1.5155 -2.8165  1.2267
   30MOL0     H 3909   5.178   1.217   3.974  0.1300  0.6691  0.4049
   30MOL0     H 3910   5.105   1.242   3.812 -0.6337 -3.1044 -3.4386
   30MOL0     H 3911   4.955   1.108   3.968  0.3923  0.6193  1.5550
   30MOL0     H 3912   5.078   0.995   3.992 -3.9278 -0.6950  1.0081
   30MOL0     H 3913   4.886   1.145   3.676 -0.6437 -0.0456 -1.4000
   30MOL0     H 3914   4.925   0.853   3.418 -0.2031 -0.8891  0.7430
   30MOL0     H 3915   4.926   1.034   3.403  1.1392 -0.8053 -0.5827
   30MOL0     H 3916   4.706   1.052   3.504 -0.8467 -0.8292  0.9216
   30MOL0     H 3917   4.689   0.878   3.504  1.6735  0.9704  4.5303
   30MOL0     H 3918   4.722   1.050   3.252 -3.4298  2.5480  2.1997
   30MOL0     H 3919   4.742   0.870   3.255 -0.6547 -1.1066  2.0859
   30MOL0     H 3920   4.527   0.944   3.172  1.7933  0.3739 -0.4175
   30MOL0     H 3921   4.503   1.030   3.334  0.7320  0.1210 -0.7322
   30MOL0     H 3922   4.389   0.567   3.388 -0.3166 -2.3329 -1.4391
   30MOL0     H 3923   4.149   0.514   3.382 -1.9554  2.1534  4.0480
   30MOL0     H 3924   3.667   0.746   3.136  0.7181 -0.7910  0.5325
   30MOL0     H 3925   3.419   0.682   3.176 -0.6314 -0.4591  1.2882
   30MOL0     H 3926   3.280   0.518   3.255 -2.1883  0.6200 -1.2743
   30MOL0     H 3927   3.190   0.672   3.230 -1.2155 -0.3090 -0.6139
   30MOL0     H 3928   3.132   0.474   3.452  1.8392 -1.3150 -0.5177
   30MOL0     H 3929   3.053   0.462   3.295 -1.2197 -0.0624 -0.3457
   30MOL0     H 3930   2.997   0.706   3.311 -0.2846  0.4115 -0.7581
   30MOL0     H 3931   3.047   0.712   3.478  0.0258  1.5623 -0.9409
   30MOL0     H 3932   2.796   0.674   3.427 -1.1372 -1.5245  0.5120
   30MOL0     H 3933   2.835   0.510   3.384 -0.7573  0.5026  1.1056
   30MOL0     H 3934   2.955   0.512   3.614 -0.0260  0.1880 -1.6714
   30MOL0     H 3935   2.779   0.498   3.615  0.2636  0.4477  1.2033
   30MOL0     H 3936   2.951   0.739   3.677  2.0432 -3.2224 -0.6061
   30MOL0     H 3937   2.871   0.644   3.804 -4.7399  0.1953  1.7026
   30MOL0     H 3938   2.746   0.832   3.615  0.7071 -0.7047  0.3167
   30MOL0     H 3939   2.651   0.700   3.696 -0.0651  0.1869  2.4272
   30MOL0     H 3940   2.803   0.933   3.806  1.3148 -1.4758  0.2352
   30MOL0     H 3941   2.751   0.808   3.909  1.9258 -2.1853 -1.1213
   30MOL0     H 3942   3.488   0.619   3.590 -0.0107  1.0496  1.1659
   30MOL0     H 3943   3.730   0.685   3.565  0.3925  0.4848 -0.6179
   30MOL0     H 3944   4.040   0.908   3.258 -0.9169 -1.4696  0.5413
   30MOL0     H 3945   4.258   0.976   3.272 -0.9607 -0.6207  1.5251
   30MOL0     H 3946   5.791   1.646   4.373 -1.1824  1.6082 -2.9613
   30MOL0     H 3947   5.995   1.815   4.433  2.2343  1.8869 -0.6078
   30MOL0     H 3948   6.426   1.886   4.429 -0.9178 -2.2063 -2.6401
   30MOL0     H 3949   6.636   2.028   4.469  0.2298  0.2552 -0.8837
   30MOL0     H 3950   6.762   2.285   4.119 -1.1954 -2.3938 -1.3260
   30MOL0     H 3951   6.832   2.130   4.148 -1.2164 -0.4823  0.2354
   30MOL0     H 3952   6.949   2.399   4.184 -3.3313 -0.2702 -1.8085
   30MOL0     H 3953   6.954   2.317   4.341  0.1171  0.6858 -0.2512
   30MOL0     H 3954   7.053   2.183   4.084  0.6677  4.7351 -0.5837
   30MOL0     H 3955   7.067   2.113   4.247 -1.0707 -1.0632  0.1036
   30MOL0     H 3956   7.187   2.375   4.139  0.4028 -1.3339 -1.3388
   30MOL0     H 3957   7.220   2.296   4.299 -2.0802  1.2846  1.7500
   30MOL0     H 3958   7.472   2.124   3.986 -0.5335 -2.8145 -0.1481
   30MOL0     H 3959   6.569   2.210   4.080 -3.2783  0.8799 -0.6642
   30MOL0     H 3960   6.376   2.082   4.055  1.2541 -0.6131 -0.2543
   31MOL0     O 3961   6.191   6.635   6.545 -0.0178  0.3788  0.2593
   31MOL0     C 3962   6.186   6.676   6.663 -0.0474  0.5693  0.6174
   31MOL0     O 3963   6.282   6.755   6.718  0.0359  0.3994  1.0899
   31MOL0     C 3964   6.379   6.830   6.643  0.3002  0.3385 -0.7208
   31MOL0     C 3965   6.481   6.880   6.725 -0.1778 -0.1123 -1.0039
   31MOL0     C 3966   6.577   6.966   6.675  0.1671  0.4643  0.0867
   31MOL0     C 3967   6.559   7.013   6.536 -0.5817  0.1033 -0.5472
   31MOL0     O 3968   6.650   7.097   6.468 -0.0643  0.3382 -0.2251
   31MOL0     C 3969   6.734   7.190   6.541 -0.0638  0.6362  0.6508
   31MOL0     C 3970   6.643   7.304   6.594 -0.4909 -0.3158 -0.0357
   31MOL0     C 3971   6.573   7.386   6.491  0.1569 -0.3167 -0.1988
   31MOL0     C 3972   6.521   7.520   6.548  0.3803  0.4100 -0.8663
   31MOL0     C 3973   6.424   7.601   6.474 -0.2140 -0.2555  0.7107
   31MOL0     C 3974   6.473   7.660   6.345  0.2224  0.7413  0.5324
   31MOL0     C 3975   6.396   7.780   6.280 -0.3698 -0.3873 -0.7682
   31MOL0     C 3976   6.457   7.810   6.144  0.6214 -0.3110 -0.3815
   31MOL0     N 3977   6.388   7.917   6.069  0.1196  0.2418  0.6745
   31MOL0     C 3978   6.264   7.903   6.002 -0.7497  0.7074 -0.2014
   31MOL0     C 3979   6.230   8.030   5.966  0.0241  0.4911 -0.6428
   31MOL0     C 3980   6.105   8.077   5.897  0.0915 -0.4868 -0.4940
   31MOL0     C 3981   5.989   7.977   5.901  0.1566 -0.0164 -0.1238
   31MOL0     C 3982   5.905   7.974   6.025  0.4454 -0.3352 -1.1764
   31MOL0     C 3983   5.845   8.104   6.078 -0.6896 -0.9192  0.7093
   31MOL0     O 3984   5.768   8.076   6.187 -0.1620 -0.0346 -0.3970
   31MOL0     C 3985   5.641   8.033   6.175  0.3487 -0.4294  0.9278
   31MOL0     C 3986   5.576   7.995   6.055 -0.0998 -0.5313  0.3133
   31MOL0     C 3987   5.439   7.953   6.064 -0.0031 -1.1014  1.0694
   31MOL0     C 3988   5.369   7.954   6.189 -0.8374  0.0373 -0.9233
   31MOL0     C 3989   5.229   7.912   6.203  0.1377  0.6453 -0.2763
   31MOL0     O 3990   5.186   7.914   6.333 -0.1385  0.1172  0.2806
   31MOL0     C 3991   5.090   7.813   6.352  0.1513 -0.5316 -0.3435
   31MOL0     C 3992   5.130   7.682   6.363 -0.8127 -0.7993 -0.3098
   31MOL0     C 3993   5.040   7.580   6.374  0.5475  0.9686 -0.0376
   31MOL0     C 3994   4.901   7.599   6.371 -0.7488  0.1008 -0.5223
   31MOL0     O 3995   4.810   7.499   6.390 -0.1606  0.1904  0.3642
   31MOL0     C 3996   4.667   7.525   6.402 -0.4873 -0.0993  0.5411
   31MOL0     C 3997   4.584   7.399   6.424  0.4424  0.4770  0.7598
   31MOL0     C 3998   4.432   7.419   6.432  0.1928 -0.2668 -0.6111
   31MOL0     C 3999   4.363   7.473   6.303  0.5836 -0.1874  0.0117
   31MOL0     C 4000   4.213   7.489   6.331  0.0622  0.4131  0.9634
   31MOL0     C 4001   4.131   7.367   6.357  0.1890  0.3271  0.9690
   31MOL0     C 4002   3.980   7.391   6.363  0.3135 -0.3247 -1.0774
   31MOL0     C 4003   3.896   7.252   6.348 -0.3416 -0.5408  0.4903
   31MOL0    Cl 4004   3.962   7.108   6.438 -0.4367 -0.2342  0.2168
   31MOL0     C 4005   4.862   7.733   6.350 -0.4295 -0.0492  0.2685
   31MOL0     C 4006   4.954   7.839   6.338  0.2202 -0.1381 -0.0484
   31MOL0     O 4007   5.170   7.868   6.104 -0.5668 -0.1038  0.0867
   31MOL0     C 4008   5.447   7.981   6.308 -0.7213 -0.3094  0.9651
   31MOL0     C 4009   5.575   8.031   6.295 -0.7089  0.4033  0.7136
   31MOL0     N 4010   6.333   8.112   5.998  0.5960 -0.3127 -1.0826
   31MOL0     N 4011   6.424   8.048   6.060  0.2997 -0.0392 -0.0434
   31MOL0     C 4012   6.449   6.973   6.468 -0.6880 -0.0318  0.4733
   31MOL0     C 4013   6.360   6.871   6.506 -0.3248  0.1983  0.3008
   31MOL0     C 4014   6.067   6.651   6.740  0.6184 -0.8008  0.2940
   31MOL0     C 4015   6.045   6.715   6.860 -0.0491  0.1000 -0.4626
   31MOL0     C 4016   5.931   6.683   6.935 -0.3978  0.1141  0.2873
   31MOL0     C 4017   5.827   6.603   6.891  0.1532  0.6502  0.4065
   31MOL0     O 4018   5.703   6.578   6.941  0.3658  0.0972 -0.2346
   31MOL0     C 4019   5.662   6.625   7.069  0.1014 -0.8713 -0.8489
   31MOL0     C 4020   5.528   6.569   7.103 -0.2648  0.1881 -0.2665
   31MOL0     C 4021   5.480   6.638   7.231 -0.6886  0.2538 -0.0549
   31MOL0     C 4022   5.360   6.546   7.279  0.7007 -0.2147 -0.1498
   31MOL0     C 4023   5.273   6.616   7.379 -0.9909 -0.0643  0.4569
   31MOL0     C 4024   5.219   6.674   7.464  0.2956 -0.2279 -1.0374
   31MOL0     C 4025   5.840   6.560   6.761 -0.8105  0.5337  0.2472
   31MOL0     C 4026   5.956   6.581   6.683 -0.4213  1.6166 -0.0087
   31MOL0     H 4027   6.488   6.837   6.824 -1.6322  2.8337  0.4805
   31MOL0     H 4028   6.656   6.994   6.744 -0.5879  3.1481  0.0093
   31MOL0     H 4029   6.814   7.234   6.479 -0.6969  2.7427  1.2478
   31MOL0     H 4030   6.793   7.137   6.616  2.7998  0.0174 -1.8001
   31MOL0     H 4031   6.704   7.374   6.651 -0.2251 -0.9535  0.4765
   31MOL0     H 4032   6.571   7.267   6.669 -1.2844 -0.4056 -0.8230
   31MOL0     H 4033   6.483   7.331   6.463 -1.8687  2.2674  0.7762
   31MOL0     H 4034   6.630   7.401   6.399  0.2606  2.0129  0.1830
   31MOL0     H 4035   6.481   7.509   6.649  0.6682 -0.4408 -0.8357
   31MOL0     H 4036   6.617   7.571   6.556  1.9357 -2.2700 -1.2757
   31MOL0     H 4037   6.390   7.683   6.538 -0.1678 -0.6829  1.2933
   31MOL0     H 4038   6.339   7.542   6.436  0.5464  1.0882 -3.6037
   31MOL0     H 4039   6.483   7.579   6.273 -0.7027 -0.7213  1.9877
   31MOL0     H 4040   6.577   7.691   6.362  1.9283 -2.3891 -2.8023
   31MOL0     H 4041   6.289   7.763   6.262 -1.2975  2.9634  0.7328
   31MOL0     H 4042   6.400   7.867   6.346  0.0586  0.0290 -1.3414
   31MOL0     H 4043   6.451   7.721   6.081  1.0268 -0.4430 -0.2352
   31MOL0     H 4044   6.563   7.833   6.157  0.3717  0.0178  1.3529
   31MOL0     H 4045   6.202   7.816   5.982 -1.7131  2.0718 -4.0972
   31MOL0     H 4046   6.133   8.114   5.798  0.3308  1.2122  0.1666
   31MOL0     H 4047   6.072   8.170   5.946 -0.1092 -0.5948 -0.4244
   31MOL0     H 4048   6.024   7.876   5.878  0.3585  0.0834 -0.2667
   31MOL0     H 4049   5.931   8.015   5.816  1.9234  2.1545 -0.4586
   31MOL0     H 4050   5.832   7.894   6.009  0.6861 -0.7339 -0.3314
   31MOL0     H 4051   5.970   7.933   6.103 -0.3693  0.1293 -0.2408
   31MOL0     H 4052   5.794   8.172   6.010  0.1796 -0.4510  0.5063
   31MOL0     H 4053   5.928   8.169   6.108  0.5587 -2.3341  0.4360
   31MOL0     H 4054   5.624   7.991   5.958  3.5895  1.2005  1.8699
   31MOL0     H 4055   5.394   7.917   5.972  0.9458  1.4754 -0.5225
   31MOL0     H 4056   5.236   7.656   6.360 -0.0418  1.9419  0.1035
   31MOL0     H 4057   5.072   7.477   6.375  2.7846  1.6179  0.2676
   31MOL0     H 4058   4.631   7.569   6.309  0.8604 -1.0667 -0.4812
   31MOL0     H 4059   4.649   7.607   6.473  0.2173  1.6693 -1.2391
   31MOL0     H 4060   4.615   7.348   6.516 -1.1231 -2.2367 -0.0895
   31MOL0     H 4061   4.593   7.329   6.340  0.0643  0.8582  0.4008
   31MOL0     H 4062   4.416   7.499   6.505  1.0950  1.2442 -2.0017
   31MOL0     H 4063   4.372   7.328   6.446 -1.8827  0.5924 -3.1552
   31MOL0     H 4064   4.409   7.570   6.282  2.5106 -0.9720  0.4079
   31MOL0     H 4065   4.374   7.404   6.219  0.4232 -2.1263  1.5011
   31MOL0     H 4066   4.171   7.538   6.242  3.4647  3.1500  0.6261
   31MOL0     H 4067   4.191   7.555   6.415  0.8289  1.3078  0.4879
   31MOL0     H 4068   4.169   7.321   6.448  1.1213  1.6902  1.2927
   31MOL0     H 4069   4.153   7.296   6.276  1.0856  1.4503  0.1937
   31MOL0     H 4070   3.954   7.435   6.460 -2.5782 -2.9079 -0.5133
   31MOL0     H 4071   3.943   7.455   6.283  1.9604  1.3246 -0.5815
   31MOL0     H 4072   3.896   7.232   6.240  2.2136  1.9649 -0.0740
   31MOL0     H 4073   3.790   7.269   6.368  0.1942  1.4356  1.9454
   31MOL0     H 4074   4.755   7.750   6.355 -0.7507 -2.0574  1.6992
   31MOL0     H 4075   4.913   7.938   6.320  1.6164  0.4287 -0.2029
   31MOL0     H 4076   5.397   7.990   6.404 -1.5778  3.3073  0.3462
   31MOL0     H 4077   5.623   8.072   6.384 -1.3129 -0.0089  1.2430
   31MOL0     H 4078   6.431   7.002   6.365 -0.9081 -1.8022 -0.0198
   31MOL0     H 4079   6.274   6.834   6.451  0.2946 -0.0674 -0.5115
   31MOL0     H 4080   6.113   6.785   6.908 -1.5186 -0.1116  2.0886
   31MOL0     H 4081   5.910   6.736   7.028  0.2850 -0.4740  0.7899
   31MOL0     H 4082   5.659   6.734   7.067  0.1819 -0.8712 -0.9893
   31MOL0     H 4083   5.729   6.594   7.150 -0.0147 -2.6709 -1.3982
   31MOL0     H 4084   5.460   6.582   7.018  0.4868  1.1240 -0.7520
   31MOL0     H 4085   5.548   6.462   7.111  1.1926  0.3145 -1.6980
   31MOL0     H 4086   5.454   6.743   7.221  0.9727  0.7067  0.2239
   31MOL0     H 4087   5.550   6.618   7.312 -1.8444 -0.4803  0.7936
   31MOL0     H 4088   5.289   6.523   7.198  0.1053  1.4964 -0.1568
   31MOL0     H 4089   5.401   6.450   7.311 -0.1670 -1.1561 -1.6953
   31MOL0     H 4090   5.159   6.711   7.546 -0.3583 -2.2866 -0.5273
   31MOL0     H 4091   5.748   6.509   6.734 -1.9054  1.6558  1.6718
   31MOL0     H 4092   5.962   6.547   6.580  3.8689  0.5478  0.4070
   32MOL0     O 4093   3.125   6.237   9.798  0.5812 -0.2827 -0.2331
   32MOL0     C 4094   3.223   6.168   9.766 -0.4904  0.4684 -0.1665
   32MOL0     O 4095   3.226   6.058   9.679 -0.2868  0.3439 -0.3602
   32MOL0     C 4096   3.120   6.038   9.593  0.2968  0.0805 -0.0546
   32MOL0     C 4097   3.090   5.909   9.546 -0.3457  0.1202  0.5268
   32MOL0     C 4098   2.997   5.886   9.440  0.1621 -0.0780 -0.1246
   32MOL0     C 4099   2.925   5.995   9.388  0.3531 -0.2652  0.2539
   32MOL0     O 4100   2.807   5.961   9.321 -0.1103  0.4313 -0.2816
   32MOL0     C 4101   2.749   6.055   9.229 -0.1604 -0.5592  0.0598
   32MOL0     C 4102   2.607   6.048   9.281  1.3793 -0.2954 -0.2338
   32MOL0     C 4103   2.527   5.911   9.247 -0.4703 -0.0907 -0.0336
   32MOL0     C 4104   2.379   5.933   9.270 -0.2084  0.4123 -0.0914
   32MOL0     C 4105   2.305   5.793   9.264  0.1843 -0.2816  0.4779
   32MOL0     C 4106   2.164   5.794   9.320  0.1312  0.5191  0.6106
   32MOL0     C 4107   2.070   5.884   9.236  0.1226 -0.5779 -0.3587
   32MOL0     C 4108   1.929   5.847   9.252  0.6319 -0.6590  0.6448
   32MOL0     N 4109   1.871   5.868   9.384 -0.2725  0.2023  0.6869
   32MOL0     C 4110   1.813   5.977   9.428 -0.4092  0.5781  0.6542
   32MOL0     C 4111   1.738   5.943   9.531 -0.1389  0.4423 -0.1115
   32MOL0     C 4112   1.634   6.027   9.597  0.2374 -0.4262 -0.9714
   32MOL0     C 4113   1.502   6.022   9.532  0.6191  0.1145 -0.0630
   32MOL0     C 4114   1.397   6.124   9.592 -0.5604 -0.0885 -0.0837
   32MOL0     C 4115   1.281   6.132   9.488 -0.1111  0.2103 -0.6661
   32MOL0     O 4116   1.162   6.182   9.554 -0.2908  0.1825  0.3650
   32MOL0     C 4117   1.053   6.211   9.464 -0.6152  0.1761  0.1674
   32MOL0     C 4118   0.982   6.331   9.485  0.6274  0.5760 -0.0721
   32MOL0     C 4119   0.877   6.363   9.398  0.0335 -0.2010  0.1629
   32MOL0     C 4120   0.846   6.282   9.284  0.7167 -1.8733  0.4025
   32MOL0     C 4121   0.743   6.327   9.197  0.1100  0.3451  0.4358
   32MOL0     O 4122   0.673   6.428   9.231  0.6945 -0.5090 -0.2318
   32MOL0     C 4123   0.584   6.494   9.149  0.5852  0.2613  0.2411
   32MOL0     C 4124   0.615   6.521   9.019  0.0818 -0.0354  1.1001
   32MOL0     C 4125   0.526   6.585   8.931  0.3902 -0.2123 -0.7752
   32MOL0     C 4126   0.394   6.609   8.970  0.6374 -0.0199 -0.2037
   32MOL0     O 4127   0.308   6.654   8.876 -0.5927 -0.4632  0.9943
   32MOL0     C 4128   0.163   6.651   8.904  0.2338 -0.5300  0.5587
   32MOL0     C 4129   0.071   6.656   8.784 -0.1037  0.1888  0.2609
   32MOL0     C 4130  -0.062   6.705   8.839 -0.2178  0.5880  0.2337
   32MOL0     C 4131  -0.174   6.708   8.743  0.3657 -0.0976  0.1094
   32MOL0     C 4132  -0.306   6.753   8.816  0.3768 -0.0903  0.2150
   32MOL0     C 4133  -0.432   6.727   8.731  1.2850  0.3697 -0.5707
   32MOL0     C 4134  -0.557   6.759   8.810 -0.5993 -0.2082 -0.2039
   32MOL0     C 4135  -0.675   6.731   8.717 -0.6192 -0.1038 -0.2405
   32MOL0    Cl 4136  -0.837   6.803   8.778 -0.0045 -0.2371 -0.1580
   32MOL0     C 4137   0.367   6.588   9.111 -0.0956  0.3328 -0.4232
   32MOL0     C 4138   0.458   6.524   9.196  0.4984  0.4970 -0.3687
   32MOL0     O 4139   0.726   6.259   9.101  0.4118  0.0873  0.3972
   32MOL0     C 4140   0.932   6.166   9.261 -0.5053  0.0939 -0.1623
   32MOL0     C 4141   1.027   6.129   9.351 -0.9985  0.4177 -0.2989
   32MOL0     N 4142   1.762   5.811   9.561 -0.7748 -0.0410 -0.8995
   32MOL0     N 4143   1.838   5.769   9.468  0.3270 -0.7591 -0.1095
   32MOL0     C 4144   2.953   6.123   9.431  0.2270 -0.7891 -0.1945
   32MOL0     C 4145   3.051   6.146   9.530  0.2651  0.1113  0.5328
   32MOL0     C 4146   3.345   6.208   9.847  0.0866 -0.0412  0.1797
   32MOL0     C 4147   3.468   6.135   9.844  0.7594 -0.0825  0.1477
   32MOL0     C 4148   3.578   6.186   9.915 -0.2506  0.7792 -0.8595
   32MOL0     C 4149   3.581   6.306   9.986  0.0294 -0.4207  0.5560
   32MOL0     O 4150   3.700   6.334  10.044  0.0319  0.3639 -0.0059
   32MOL0     C 4151   3.700   6.466  10.120  0.0945 -0.2641  0.5614
   32MOL0     C 4152   3.836   6.477  10.193  0.1023 -0.0148 -0.6205
   32MOL0     C 4153   3.832   6.375  10.306 -0.0944  0.6350  0.1507
   32MOL0     C 4154   3.968   6.370  10.384  1.4679  0.0107 -0.5240
   32MOL0     C 4155   4.087   6.330  10.305  0.4688 -0.5017 -0.0044
   32MOL0     C 4156   4.167   6.299  10.219  0.3115 -0.1668 -0.2675
   32MOL0     C 4157   3.460   6.380   9.982 -0.5762  0.5164  0.0804
   32MOL0     C 4158   3.349   6.329   9.922 -0.3608 -1.0601  0.6490
   32MOL0     H 4159   3.149   5.822   9.571  0.3383  0.2364 -0.6409
   32MOL0     H 4160   2.975   5.785   9.408 -0.5180  0.0014  0.0658
   32MOL0     H 4161   2.762   6.035   9.122  2.7117  2.1581 -0.2534
   32MOL0     H 4162   2.785   6.158   9.245  0.0989 -0.3843 -1.5273
   32MOL0     H 4163   2.549   6.130   9.238 -0.2328 -0.7787  0.9005
   32MOL0     H 4164   2.606   6.068   9.389 -0.2171 -0.8622 -0.1044
   32MOL0     H 4165   2.557   5.832   9.316 -0.3532 -1.3459 -1.4774
   32MOL0     H 4166   2.544   5.888   9.141 -1.7559  0.6742 -0.4368
   32MOL0     H 4167   2.360   5.973   9.370  1.3760  0.8589  0.0531
   32MOL0     H 4168   2.342   6.011   9.202 -0.5539 -0.4734 -0.9334
   32MOL0     H 4169   2.358   5.715   9.319  2.3689  0.4583 -0.4473
   32MOL0     H 4170   2.295   5.765   9.159 -4.0159 -1.4382  1.0162
   32MOL0     H 4171   2.176   5.824   9.424  0.5437 -0.9565  1.0162
   32MOL0     H 4172   2.117   5.698   9.294 -0.1245  1.4951 -3.2571
   32MOL0     H 4173   2.095   5.983   9.277 -0.8980 -0.6306  0.4215
   32MOL0     H 4174   2.096   5.875   9.130 -2.2708 -3.1710 -0.8260
   32MOL0     H 4175   1.931   5.741   9.227  0.4825 -0.0495 -2.3314
   32MOL0     H 4176   1.885   5.902   9.169  2.6575  1.8830  1.1005
   32MOL0     H 4177   1.811   6.078   9.387 -1.5543 -0.2918 -1.6325
   32MOL0     H 4178   1.673   6.130   9.596 -1.6993  0.4188  1.1992
   32MOL0     H 4179   1.613   5.990   9.698 -0.3333  0.1871 -0.8532
   32MOL0     H 4180   1.475   5.917   9.545 -1.4012  0.9136  3.4159
   32MOL0     H 4181   1.526   6.043   9.428  2.7422  2.0004  0.7287
   32MOL0     H 4182   1.357   6.091   9.689  3.6648  1.6090  2.5078
   32MOL0     H 4183   1.446   6.220   9.611 -0.5036 -0.0838 -0.2617
   32MOL0     H 4184   1.261   6.028   9.463 -0.3925 -0.5167  2.1640
   32MOL0     H 4185   1.312   6.187   9.399 -1.7490 -0.5584 -1.7523
   32MOL0     H 4186   1.001   6.391   9.574 -1.0736  0.0102  0.7267
   32MOL0     H 4187   0.817   6.447   9.431 -0.3237 -1.8061  4.1138
   32MOL0     H 4188   0.714   6.493   8.984 -0.3141 -1.8495  1.3382
   32MOL0     H 4189   0.544   6.601   8.825  1.9907  1.0563 -0.3433
   32MOL0     H 4190   0.137   6.729   8.977  0.5248  1.3340 -1.2479
   32MOL0     H 4191   0.148   6.558   8.959 -1.2220 -0.0530  1.0122
   32MOL0     H 4192   0.075   6.552   8.748 -1.9900 -0.4976  1.8458
   32MOL0     H 4193   0.111   6.732   8.716 -0.4548  1.3303  1.2997
   32MOL0     H 4194  -0.043   6.804   8.880  1.0233  0.9855 -1.2065
   32MOL0     H 4195  -0.095   6.642   8.922 -2.2650 -0.5906 -1.3848
   32MOL0     H 4196  -0.165   6.782   8.663  1.5699  0.3923  0.6889
   32MOL0     H 4197  -0.187   6.609   8.696  0.4973 -1.8713  3.4889
   32MOL0     H 4198  -0.292   6.858   8.842  2.9500 -0.4212  0.3718
   32MOL0     H 4199  -0.315   6.688   8.904 -1.1746 -1.6736 -1.0373
   32MOL0     H 4200  -0.429   6.625   8.694 -0.0212  0.2107 -0.2840
   32MOL0     H 4201  -0.422   6.799   8.649  0.6501  0.9426 -0.1562
   32MOL0     H 4202  -0.566   6.692   8.896 -1.9751  0.8105  0.4711
   32MOL0     H 4203  -0.568   6.863   8.843  0.9196  0.4721 -1.6746
   32MOL0     H 4204  -0.697   6.627   8.690 -1.2707  0.3916 -1.7976
   32MOL0     H 4205  -0.653   6.774   8.618 -0.4354  0.8498  0.2070
   32MOL0     H 4206   0.273   6.618   9.155 -0.8124  0.6956 -2.1041
   32MOL0     H 4207   0.451   6.516   9.304  0.3759 -4.4344 -0.4892
   32MOL0     H 4208   0.918   6.101   9.175 -1.6409 -0.9591  0.7784
   32MOL0     H 4209   1.090   6.048   9.316 -1.7347  0.4354 -1.7305
   32MOL0     H 4210   2.904   6.216   9.405  2.0567  0.1884 -0.2577
   32MOL0     H 4211   3.054   6.241   9.581  0.3037 -0.6501  2.0087
   32MOL0     H 4212   3.465   6.041   9.789 -0.2247  0.6272 -1.0599
   32MOL0     H 4213   3.670   6.130   9.927 -0.2194  1.3719  2.2774
   32MOL0     H 4214   3.608   6.479  10.177 -1.2186 -0.0952 -1.4723
   32MOL0     H 4215   3.691   6.538  10.038 -3.1992  0.3470  1.3470
   32MOL0     H 4216   3.915   6.464  10.119 -0.4265  0.8517 -1.3638
   32MOL0     H 4217   3.842   6.577  10.237  1.5357  0.3715 -1.6197
   32MOL0     H 4218   3.818   6.276  10.261  1.2906 -0.7454  2.5812
   32MOL0     H 4219   3.759   6.406  10.381  0.7203  1.1175  0.7671
   32MOL0     H 4220   3.986   6.462  10.439 -3.1783  0.4507  0.6941
   32MOL0     H 4221   3.946   6.295  10.461  2.8129  1.3691  1.2406
   32MOL0     H 4222   4.237   6.284  10.139  0.8969  3.1931 -0.5735
   32MOL0     H 4223   3.456   6.482  10.017  0.1522  1.6696 -2.9184
   32MOL0     H 4224   3.261   6.391   9.938  1.3802  1.8841 -0.3545
   33MOL0     O 4225   7.178   4.287   4.831  0.2936  0.1681 -0.3154
   33MOL0     C 4226   7.188   4.329   4.713 -0.2060  0.5958 -0.2776
   33MOL0     O 4227   7.274   4.282   4.622  0.3589 -0.5833 -0.1045
   33MOL0     C 4228   7.352   4.174   4.644  0.2642  0.0851  0.3407
   33MOL0     C 4229   7.487   4.177   4.606 -0.1646  0.2212  0.0212
   33MOL0     C 4230   7.570   4.065   4.629  1.3064 -0.9137  0.0508
   33MOL0     C 4231   7.515   3.944   4.683 -0.3422  0.3356 -0.8554
   33MOL0     O 4232   7.589   3.821   4.695  0.0377 -0.2954  0.1057
   33MOL0     C 4233   7.734   3.831   4.710  0.1278 -0.1668  1.0394
   33MOL0     C 4234   7.773   3.701   4.783 -1.1090  0.0047 -0.4818
   33MOL0     C 4235   7.913   3.694   4.841 -0.0343  0.0736  0.8422
   33MOL0     C 4236   8.021   3.744   4.744  0.1599 -0.7311  0.0415
   33MOL0     C 4237   8.154   3.676   4.773 -0.2401 -0.8723 -0.2366
   33MOL0     C 4238   8.248   3.737   4.677 -0.7369 -0.0875 -0.3116
   33MOL0     C 4239   8.374   3.652   4.690 -0.5319 -0.3800  0.8304
   33MOL0     C 4240   8.488   3.702   4.596 -0.4005 -1.0035  0.6646
   33MOL0     N 4241   8.440   3.710   4.461 -0.3822 -0.1130  0.2648
   33MOL0     C 4242   8.380   3.607   4.399 -0.1072  0.0180  0.2244
   33MOL0     C 4243   8.326   3.651   4.280  1.0399 -0.7125 -0.8247
   33MOL0     C 4244   8.276   3.579   4.157 -0.0892  0.4896 -0.2301
   33MOL0     C 4245   8.122   3.583   4.141  0.6670 -0.3474  0.8201
   33MOL0     C 4246   8.060   3.493   4.032  0.9489 -0.1236 -0.2801
   33MOL0     C 4247   7.907   3.494   4.029  0.0123 -1.1465 -1.1332
   33MOL0     O 4248   7.861   3.408   3.929 -0.0505  0.5481  0.2188
   33MOL0     C 4249   7.728   3.382   3.910  0.2259 -0.9337  0.3686
   33MOL0     C 4250   7.702   3.288   3.806  0.5107  0.7707  0.1305
   33MOL0     C 4251   7.568   3.241   3.794  0.3306  0.6126 -0.1168
   33MOL0     C 4252   7.464   3.290   3.868 -0.2668 -0.4407 -0.3677
   33MOL0     C 4253   7.328   3.244   3.853  0.0047 -0.7726  0.0051
   33MOL0     O 4254   7.232   3.329   3.886  0.3601  0.0933  0.2007
   33MOL0     C 4255   7.102   3.280   3.866 -0.0767  0.6162  1.4748
   33MOL0     C 4256   7.029   3.253   3.981  0.0451  0.1320  0.1386
   33MOL0     C 4257   6.899   3.201   3.975 -0.4949 -0.1456  0.1200
   33MOL0     C 4258   6.845   3.161   3.851 -0.0303  0.2087  0.0179
   33MOL0     O 4259   6.724   3.088   3.861 -0.2846  0.0554 -0.5086
   33MOL0     C 4260   6.665   3.029   3.744 -0.2676 -0.2652  0.4583
   33MOL0     C 4261   6.603   3.120   3.637  0.0731 -0.0394  0.4497
   33MOL0     C 4262   6.563   3.040   3.517 -0.0097  0.0604 -0.6427
   33MOL0     C 4263   6.445   2.944   3.555  0.6135 -0.4567 -0.2883
   33MOL0     C 4264   6.366   2.896   3.428  0.4185 -0.7782  0.1237
   33MOL0     C 4265   6.244   2.812   3.476 -1.1477  0.0695 -0.1618
   33MOL0     C 4266   6.149   2.767   3.361 -0.6895 -0.5886 -0.0164
   33MOL0     C 4267   6.018   2.715   3.418  0.0373  0.2683 -0.1521
   33MOL0    Cl 4268   6.048   2.581   3.537  0.3348 -0.1924 -0.0753
   33MOL0     C 4269   6.913   3.193   3.733 -0.0542  0.1971  0.6438
   33MOL0     C 4270   7.042   3.250   3.744  0.8312  0.1378  1.1246
   33MOL0     O 4271   7.319   3.128   3.809 -0.4604 -0.0082  0.3280
   33MOL0     C 4272   7.493   3.392   3.965  1.0454  0.5393 -0.3998
   33MOL0     C 4273   7.622   3.440   3.985 -0.4214  0.5807 -0.2268
   33MOL0     N 4274   8.351   3.793   4.277  0.2610 -0.2801  0.3462
   33MOL0     N 4275   8.421   3.820   4.384 -0.3833 -0.5315 -0.3598
   33MOL0     C 4276   7.382   3.938   4.719  0.4676 -0.4628 -0.2444
   33MOL0     C 4277   7.303   4.052   4.691 -0.2202 -0.3936  0.3014
   33MOL0     C 4278   7.099   4.436   4.678 -0.5890 -0.5468 -0.5388
   33MOL0     C 4279   6.999   4.497   4.757 -0.3945  0.4130 -0.6068
   33MOL0     C 4280   6.908   4.593   4.720 -0.6587  0.4812  0.7459
   33MOL0     C 4281   6.914   4.630   4.583 -0.3165  1.1415  0.5620
   33MOL0     O 4282   6.807   4.710   4.551  0.3634  0.2617  0.5833
   33MOL0     C 4283   6.785   4.743   4.404  0.1956  0.0880 -1.2669
   33MOL0     C 4284   6.668   4.844   4.401  0.1971 -0.3382 -0.1672
   33MOL0     C 4285   6.704   4.991   4.424  0.6253  0.3520 -0.1863
   33MOL0     C 4286   6.836   5.031   4.359  0.1643 -0.7541  0.3783
   33MOL0     C 4287   6.838   5.176   4.358 -0.6707  0.7455  1.1227
   33MOL0     C 4288   6.853   5.294   4.365 -0.4829 -0.1127  0.5970
   33MOL0     C 4289   7.006   4.563   4.498  0.0803 -1.1176 -0.6342
   33MOL0     C 4290   7.103   4.475   4.543 -0.4685  0.0241  0.0233
   33MOL0     H 4291   7.519   4.270   4.560 -2.3006  1.1898  0.4032
   33MOL0     H 4292   7.669   4.065   4.586  0.4787  0.9732 -2.0320
   33MOL0     H 4293   7.761   3.919   4.768 -1.7209  1.3066 -0.2041
   33MOL0     H 4294   7.772   3.838   4.607 -2.2857  0.4561  0.1186
   33MOL0     H 4295   7.771   3.616   4.714 -0.1328  1.1895 -2.0463
   33MOL0     H 4296   7.701   3.683   4.863  0.1106 -0.0017  0.6559
   33MOL0     H 4297   7.937   3.597   4.886  0.7391  0.0427  0.3703
   33MOL0     H 4298   7.905   3.753   4.933 -0.8636 -0.4257  1.1013
   33MOL0     H 4299   7.998   3.710   4.643  2.8823  0.0636 -0.9209
   33MOL0     H 4300   8.025   3.853   4.739 -0.5373 -0.6245  1.2915
   33MOL0     H 4301   8.144   3.569   4.755 -0.3893 -1.1163  1.1965
   33MOL0     H 4302   8.184   3.689   4.877 -0.5839 -1.1540 -0.0977
   33MOL0     H 4303   8.272   3.841   4.701  3.1920 -0.8938 -0.1071
   33MOL0     H 4304   8.200   3.745   4.580 -0.6625  1.6864 -0.2226
   33MOL0     H 4305   8.413   3.643   4.791  1.1225 -4.0742  0.0102
   33MOL0     H 4306   8.351   3.548   4.665  1.0661 -0.6529  0.4217
   33MOL0     H 4307   8.560   3.621   4.611 -2.1638 -2.5070  1.5439
   33MOL0     H 4308   8.527   3.799   4.628 -1.5007 -0.6289  0.9291
   33MOL0     H 4309   8.382   3.502   4.429 -0.9756  0.3888  1.6780
   33MOL0     H 4310   8.315   3.477   4.165 -0.3526  0.4124  0.0838
   33MOL0     H 4311   8.329   3.613   4.068 -0.0571 -1.5673 -1.0489
   33MOL0     H 4312   8.100   3.687   4.114  1.4543 -0.4386 -0.2281
   33MOL0     H 4313   8.079   3.551   4.236 -2.1101 -0.6942 -0.4648
   33MOL0     H 4314   8.084   3.531   3.932 -2.1214 -1.2824 -1.5728
   33MOL0     H 4315   8.099   3.391   4.042  0.3245 -0.2791  0.7392
   33MOL0     H 4316   7.878   3.599   4.028  2.5795 -0.3906 -1.7181
   33MOL0     H 4317   7.875   3.453   4.125 -2.5899  1.1585 -0.8920
   33MOL0     H 4318   7.783   3.246   3.749  0.2827  1.0454 -0.4055
   33MOL0     H 4319   7.551   3.161   3.723 -0.1302 -0.6212  1.3197
   33MOL0     H 4320   7.071   3.268   4.080 -2.5481  0.1712  1.3057
   33MOL0     H 4321   6.843   3.197   4.067  2.4951 -0.3950  2.0864
   33MOL0     H 4322   6.588   2.969   3.795 -1.4855  0.5409 -0.3953
   33MOL0     H 4323   6.742   2.975   3.689  0.4494  3.4408 -2.5139
   33MOL0     H 4324   6.665   3.199   3.595 -1.2532  0.3897 -0.7695
   33MOL0     H 4325   6.514   3.167   3.679  0.0713 -0.4276  0.8990
   33MOL0     H 4326   6.644   2.980   3.475 -0.4696 -0.9329 -0.1359
   33MOL0     H 4327   6.511   3.111   3.451 -2.2650 -2.1585 -1.4402
   33MOL0     H 4328   6.482   2.851   3.600 -2.1785 -1.8192 -0.5629
   33MOL0     H 4329   6.381   2.993   3.628 -0.9031  3.1634 -3.6740
   33MOL0     H 4330   6.433   2.834   3.367  0.9664 -0.0670 -0.0174
   33MOL0     H 4331   6.335   2.981   3.365  0.8185  0.1007  1.0887
   33MOL0     H 4332   6.186   2.881   3.539 -1.0064 -0.3505  0.4333
   33MOL0     H 4333   6.283   2.737   3.545  0.9155  1.5198  0.3231
   33MOL0     H 4334   6.114   2.856   3.308 -0.6255  0.1444  1.1342
   33MOL0     H 4335   6.201   2.689   3.305  1.3940 -0.0835  1.1462
   33MOL0     H 4336   5.962   2.668   3.336 -1.7348 -0.9111  1.6439
   33MOL0     H 4337   5.962   2.797   3.465  0.3679 -1.2557  3.1986
   33MOL0     H 4338   6.876   3.154   3.638  3.8451 -2.2953 -0.0639
   33MOL0     H 4339   7.103   3.269   3.657  1.4348 -2.4112  0.9103
   33MOL0     H 4340   7.410   3.440   4.016  1.2582  1.3610 -0.8084
   33MOL0     H 4341   7.642   3.512   4.064  1.0982  0.0559 -0.1134
   33MOL0     H 4342   7.344   3.845   4.761  1.4896 -1.1342 -0.7404
   33MOL0     H 4343   7.195   4.040   4.691 -0.4913  1.5772 -0.6773
   33MOL0     H 4344   6.998   4.459   4.859 -0.6397  1.2624 -0.2916
   33MOL0     H 4345   6.830   4.629   4.786 -4.0258 -1.5696 -1.7793
   33MOL0     H 4346   6.779   4.653   4.343  3.2448 -1.8772  1.0524
   33MOL0     H 4347   6.881   4.788   4.376  1.5398 -1.0377  1.2297
   33MOL0     H 4348   6.608   4.832   4.309  0.0032 -2.1178  0.1555
   33MOL0     H 4349   6.610   4.818   4.490 -0.2697  5.1433  1.4854
   33MOL0     H 4350   6.715   5.003   4.532 -1.8753  1.0054  0.0693
   33MOL0     H 4351   6.613   5.048   4.404  1.5937  2.0065  0.0174
   33MOL0     H 4352   6.911   4.989   4.427  1.2992  2.1886  1.0730
   33MOL0     H 4353   6.837   4.991   4.257  1.9516 -1.4746  0.6462
   33MOL0     H 4354   6.881   5.396   4.378  2.5597 -0.7638 -0.1289
   33MOL0     H 4355   7.003   4.597   4.395 -0.9903 -2.9275 -1.2490
   33MOL0     H 4356   7.162   4.418   4.472 -1.1982 -1.6177  0.6827
   34MOL0     O 4357   9.954   1.956   9.650 -0.7718  0.4167  0.1208
   34MOL0     C 4358   9.994   2.007   9.546  0.1282 -0.0100  0.0096
   34MOL0     O 4359   9.925   2.111   9.485  0.6207  0.3284  0.1605
   34MOL0     C 4360   9.787   2.117   9.501 -1.2428  0.4446 -0.1981
   34MOL0     C 4361   9.727   2.248   9.505  0.8389  0.1995 -0.4465
   34MOL0     C 4362   9.588   2.255   9.521  0.6043  0.2362 -0.5283
   34MOL0     C 4363   9.512   2.141   9.523 -0.9430  0.3277 -0.9699
   34MOL0     O 4364   9.381   2.136   9.542  0.3245 -0.5563  0.5395
   34MOL0     C 4365   9.306   2.259   9.569 -1.0541  0.0306 -0.5355
   34MOL0     C 4366   9.166   2.217   9.609  0.8930  0.5483  0.4373
   34MOL0     C 4367   9.072   2.337   9.581  0.1962 -0.0639 -0.3927
   34MOL0     C 4368   8.932   2.297   9.618  0.3900 -0.1348 -0.4840
   34MOL0     C 4369   8.863   2.432   9.678 -0.8250  0.3218  0.1503
   34MOL0     C 4370   8.738   2.380   9.741 -0.6228 -0.2340  0.1983
   34MOL0     C 4371   8.628   2.495   9.757  0.1713  0.8414  0.0437
   34MOL0     C 4372   8.510   2.448   9.836  0.8711 -0.3380  0.4098
   34MOL0     N 4373   8.387   2.512   9.787 -0.6625  0.5123  0.3028
   34MOL0     C 4374   8.292   2.451   9.706 -0.1485  0.1487  0.2157
   34MOL0     C 4375   8.216   2.556   9.660 -0.5903 -0.4654  0.3631
   34MOL0     C 4376   8.086   2.532   9.586  0.1865  0.2168 -0.1466
   34MOL0     C 4377   7.968   2.595   9.661  0.3803 -0.6433  0.3245
   34MOL0     C 4378   7.841   2.501   9.661  0.5195  0.0310  1.0347
   34MOL0     C 4379   7.727   2.563   9.743  0.2065 -0.1368  0.1985
   34MOL0     O 4380   7.714   2.696   9.705  0.1068  0.2774  0.4837
   34MOL0     C 4381   7.613   2.762   9.765 -0.0087  0.8863  0.2274
   34MOL0     C 4382   7.642   2.892   9.804 -0.7485  0.5254  0.2152
   34MOL0     C 4383   7.543   2.975   9.859 -0.8269 -0.1690 -0.1936
   34MOL0     C 4384   7.413   2.929   9.885 -0.1637 -0.4542  0.0041
   34MOL0     C 4385   7.317   3.019   9.950  0.5612  0.9251  0.2134
   34MOL0     O 4386   7.362   3.103  10.041 -0.0218  0.3994 -0.3332
   34MOL0     C 4387   7.281   3.208  10.090  0.5774  0.4796 -0.9669
   34MOL0     C 4388   7.199   3.281  10.010  0.0501 -0.3063  0.1429
   34MOL0     C 4389   7.145   3.400  10.065 -0.3569  0.1225  0.0516
   34MOL0     C 4390   7.155   3.443  10.197  0.0319 -0.3944  0.0447
   34MOL0     O 4391   7.087   3.548  10.258  0.6027  0.8261  0.2235
   34MOL0     C 4392   7.015   3.640  10.181  0.3343  0.1859  0.0572
   34MOL0     C 4393   6.956   3.756  10.271 -0.3571 -0.0878 -0.0528
   34MOL0     C 4394   6.850   3.697  10.367  0.3230  0.3560 -0.1338
   34MOL0     C 4395   6.754   3.812  10.438 -0.6931  0.1121 -0.0639
   34MOL0     C 4396   6.644   3.748  10.529 -0.0829 -0.0260  0.3257
   34MOL0     C 4397   6.565   3.848  10.611 -0.9124  0.1402  0.1445
   34MOL0     C 4398   6.452   3.784  10.701 -0.2648  0.3341  0.0082
   34MOL0     C 4399   6.475   3.643  10.758 -0.6928 -0.6002  0.1037
   34MOL0    Cl 4400   6.344   3.577  10.856  0.5734  0.2806  0.0864
   34MOL0     C 4401   7.229   3.350  10.279  0.3340 -0.4944 -0.5483
   34MOL0     C 4402   7.291   3.239  10.222 -0.6122  0.2922 -0.4254
   34MOL0     O 4403   7.206   3.013   9.910 -0.4598  0.0470 -0.2774
   34MOL0     C 4404   7.370   2.799   9.838  0.0215 -0.4909 -0.3888
   34MOL0     C 4405   7.474   2.723   9.784  0.2796 -0.3434 -0.1541
   34MOL0     N 4406   8.263   2.670   9.710  0.3430 -0.3430  0.4019
   34MOL0     N 4407   8.364   2.644   9.787 -0.1598  0.0834  0.0232
   34MOL0     C 4408   9.572   2.015   9.513 -0.3334  0.6658 -0.1994
   34MOL0     C 4409   9.711   2.002   9.499 -0.4597  0.6861 -0.1357
   34MOL0     C 4410  10.128   1.977   9.494  0.3683  0.0077  0.4439
   34MOL0     C 4411  10.208   1.871   9.555  0.0600 -0.0367 -0.6949
   34MOL0     C 4412  10.339   1.852   9.522 -0.3124 -0.1752  0.2151
   34MOL0     C 4413  10.394   1.924   9.420 -0.7856  0.8552 -0.3086
   34MOL0     O 4414  10.526   1.905   9.404 -0.2648 -0.5403 -0.7025
   34MOL0     C 4415  10.602   1.967   9.299  0.4838  0.2088 -0.1245
   34MOL0     C 4416  10.752   1.919   9.311  0.1599 -0.4857 -0.2647
   34MOL0     C 4417  10.840   2.005   9.226 -0.8035  0.3486  0.1335
   34MOL0     C 4418  10.988   1.962   9.218  0.3350 -0.2650  0.5696
   34MOL0     C 4419  11.020   1.832   9.149  1.0328 -0.0536  0.4167
   34MOL0     C 4420  11.028   1.718   9.100  0.3420  0.6293  0.4811
   34MOL0     C 4421  10.321   2.021   9.351  0.4345  0.1062  0.0444
   34MOL0     C 4422  10.188   2.054   9.390 -0.1475  0.4836  0.2291
   34MOL0     H 4423   9.781   2.341   9.511 -1.5317  1.9623 -3.4329
   34MOL0     H 4424   9.554   2.358   9.528  0.4652  0.1086  0.8607
   34MOL0     H 4425   9.307   2.324   9.481  0.6836  0.8725  0.0580
   34MOL0     H 4426   9.354   2.305   9.656 -0.6493  0.6624 -1.0869
   34MOL0     H 4427   9.150   2.175   9.709 -3.6022  2.9117  1.0006
   34MOL0     H 4428   9.134   2.145   9.534 -0.4696  1.7629 -0.1977
   34MOL0     H 4429   9.074   2.363   9.474  1.2079  1.9833  0.0668
   34MOL0     H 4430   9.105   2.429   9.631 -0.2373 -0.0229 -0.1708
   34MOL0     H 4431   8.873   2.269   9.530 -0.8291  2.3743 -0.5697
   34MOL0     H 4432   8.934   2.227   9.702 -1.5602  2.6679  2.1215
   34MOL0     H 4433   8.830   2.502   9.601  0.1383 -0.1647 -0.7337
   34MOL0     H 4434   8.928   2.481   9.752  0.9459 -1.6774  0.0456
   34MOL0     H 4435   8.767   2.339   9.839 -0.1775 -0.3644  0.0123
   34MOL0     H 4436   8.704   2.294   9.683  1.1710 -1.3787  0.7532
   34MOL0     H 4437   8.667   2.582   9.810  0.3657 -0.1654  1.6275
   34MOL0     H 4438   8.615   2.524   9.653  2.1798 -0.8033 -0.7549
   34MOL0     H 4439   8.529   2.492   9.935 -0.4443  1.4997 -0.0917
   34MOL0     H 4440   8.495   2.341   9.821  1.7734 -0.1674 -2.0366
   34MOL0     H 4441   8.286   2.347   9.677 -1.1013  0.7190 -1.8825
   34MOL0     H 4442   8.061   2.437   9.538 -1.2225  1.6983 -2.5622
   34MOL0     H 4443   8.089   2.595   9.497  1.6755  0.9131  0.3629
   34MOL0     H 4444   7.950   2.693   9.615  1.2754 -2.1275 -3.6198
   34MOL0     H 4445   8.001   2.599   9.765  0.3371 -2.5585  0.4419
   34MOL0     H 4446   7.810   2.497   9.556  0.1858  0.0147  1.1342
   34MOL0     H 4447   7.860   2.402   9.705  0.2734  0.0972  1.2918
   34MOL0     H 4448   7.751   2.553   9.849  1.2563 -1.0793 -0.1088
   34MOL0     H 4449   7.639   2.498   9.741 -1.4778  1.6343  4.4069
   34MOL0     H 4450   7.743   2.931   9.798 -0.4227 -0.2353  0.5385
   34MOL0     H 4451   7.561   3.081   9.876 -1.3623  0.2478 -1.9411
   34MOL0     H 4452   7.188   3.256   9.905 -1.6578 -1.6346  0.5865
   34MOL0     H 4453   7.087   3.454   9.990 -3.3254 -1.9875  0.6522
   34MOL0     H 4454   6.938   3.579  10.133  0.7281  0.2453 -0.6664
   34MOL0     H 4455   7.078   3.681  10.102  1.2363  0.6546  0.9828
   34MOL0     H 4456   6.914   3.832  10.205 -0.7546  1.4776  1.9017
   34MOL0     H 4457   7.034   3.807  10.328  0.8855  0.7254 -2.3687
   34MOL0     H 4458   6.895   3.637  10.447  0.8526  1.6057  0.5404
   34MOL0     H 4459   6.784   3.634  10.308  1.5581  0.1311 -1.3318
   34MOL0     H 4460   6.804   3.882  10.506  0.7208 -0.8509 -0.0646
   34MOL0     H 4461   6.703   3.874  10.363 -2.7036  0.7241  1.7198
   34MOL0     H 4462   6.692   3.684  10.604  1.6063 -0.6325 -1.1983
   34MOL0     H 4463   6.565   3.693  10.477 -1.9494  3.3352 -0.6701
   34MOL0     H 4464   6.523   3.922  10.543 -2.8424 -1.0018  0.0309
   34MOL0     H 4465   6.632   3.892  10.686 -3.3384 -0.7151  3.0195
   34MOL0     H 4466   6.430   3.861  10.775  1.8488  0.7623  0.2560
   34MOL0     H 4467   6.361   3.777  10.641  0.6508 -1.6841 -1.2435
   34MOL0     H 4468   6.565   3.647  10.820 -0.0051 -0.6814 -0.8755
   34MOL0     H 4469   6.486   3.568  10.679 -0.4637 -1.9274  1.3417
   34MOL0     H 4470   7.249   3.369  10.384 -1.6392  1.2971 -0.4177
   34MOL0     H 4471   7.357   3.173  10.277 -0.8985 -1.2152 -1.8405
   34MOL0     H 4472   7.269   2.761   9.843 -0.0433 -0.5597 -1.7174
   34MOL0     H 4473   7.440   2.627   9.747 -1.7266  0.7155 -1.2486
   34MOL0     H 4474   9.503   1.932   9.509 -0.6721  0.9290  0.1813
   34MOL0     H 4475   9.758   1.905   9.487  0.2224  1.3624 -4.8598
   34MOL0     H 4476  10.155   1.820   9.635 -0.2559 -0.9918 -1.4922
   34MOL0     H 4477  10.392   1.774   9.577 -2.0937  0.1470  2.5754
   34MOL0     H 4478  10.597   2.076   9.307  1.5156  0.2026  0.9407
   34MOL0     H 4479  10.572   1.937   9.199  1.5690 -0.7798 -0.1836
   34MOL0     H 4480  10.787   1.938   9.412  0.5105  2.7858 -0.8958
   34MOL0     H 4481  10.771   1.817   9.275  0.2701 -0.0781 -1.4034
   34MOL0     H 4482  10.844   2.100   9.280 -1.3607 -0.7812  2.2434
   34MOL0     H 4483  10.800   2.011   9.124  0.3494 -0.5766 -0.3981
   34MOL0     H 4484  11.042   2.035   9.158 -1.0566 -1.6016 -2.5544
   34MOL0     H 4485  11.022   1.962   9.322 -0.5227  1.2526  0.8798
   34MOL0     H 4486  11.015   1.616   9.072  1.2927  0.2012  1.5297
   34MOL0     H 4487  10.370   2.067   9.266 -1.3756  1.7360 -0.1694
   34MOL0     H 4488  10.133   2.135   9.343  1.2286  1.1623 -0.2463
   35MOL0     O 4489   1.010   4.852   8.141 -0.1291  0.1845  0.2234
   35MOL0     C 4490   1.005   4.841   8.020  1.3080 -0.1503 -0.9256
   35MOL0     O 4491   0.884   4.832   7.953  0.1300  0.4272 -0.4342
   35MOL0     C 4492   0.758   4.857   8.005  0.1061  0.3895  0.6041
   35MOL0     C 4493   0.730   4.904   8.131 -0.1933  1.3354  0.2823
   35MOL0     C 4494   0.597   4.930   8.172  1.1552  0.2182  0.2636
   35MOL0     C 4495   0.485   4.890   8.091 -0.4681 -0.2754 -0.2480
   35MOL0     O 4496   0.362   4.910   8.148  0.4818  0.9660  0.3323
   35MOL0     C 4497   0.253   4.833   8.090 -0.0186  0.2335  0.4243
   35MOL0     C 4498   0.129   4.830   8.171 -1.3950  0.1733  0.0791
   35MOL0     C 4499   0.039   4.722   8.122  0.6056  0.0270 -0.5031
   35MOL0     C 4500  -0.093   4.730   8.200 -0.0590 -0.3453 -0.4476
   35MOL0     C 4501  -0.180   4.619   8.154  0.0186  0.3039  0.3100
   35MOL0     C 4502  -0.326   4.630   8.200  0.2201  0.0102  0.3142
   35MOL0     C 4503  -0.403   4.524   8.105 -0.9360 -0.1818 -0.6801
   35MOL0     C 4504  -0.544   4.491   8.152  0.7762 -0.2330  0.4379
   35MOL0     N 4505  -0.618   4.415   8.050  0.2415 -0.3995  0.3199
   35MOL0     C 4506  -0.675   4.293   8.077  0.4926 -0.0019 -0.1380
   35MOL0     C 4507  -0.757   4.259   7.969 -0.2219  0.9189 -1.0280
   35MOL0     C 4508  -0.844   4.130   7.956 -0.6460  0.1239 -1.1646
   35MOL0     C 4509  -0.937   4.110   8.071 -0.1182 -0.3108  0.2276
   35MOL0     C 4510  -1.039   3.990   8.049  0.2091  0.1224  0.1902
   35MOL0     C 4511  -1.142   4.010   7.935 -0.9682  0.1879 -0.1295
   35MOL0     O 4512  -1.222   4.130   7.951  0.7116 -0.4218  0.3567
   35MOL0     C 4513  -1.320   4.159   7.855 -0.4461  0.1178 -0.2969
   35MOL0     C 4514  -1.362   4.065   7.759 -0.1907 -0.2239  0.6502
   35MOL0     C 4515  -1.463   4.091   7.672  0.0977  0.2117 -0.2665
   35MOL0     C 4516  -1.529   4.217   7.673  0.0314  1.0110 -0.6830
   35MOL0     C 4517  -1.643   4.246   7.585 -1.2024 -0.1476 -0.9026
   35MOL0     O 4518  -1.718   4.348   7.629 -0.1707  0.4295  0.1951
   35MOL0     C 4519  -1.824   4.377   7.548 -0.5929  0.8484 -0.1229
   35MOL0     C 4520  -1.920   4.289   7.510 -0.6983 -0.0304 -0.5094
   35MOL0     C 4521  -2.018   4.330   7.425  1.2241  0.2318 -0.5164
   35MOL0     C 4522  -2.022   4.460   7.364 -0.7190  0.6378  0.0395
   35MOL0     O 4523  -2.118   4.500   7.280  0.6717 -0.5304 -0.4947
   35MOL0     C 4524  -2.254   4.493   7.324 -0.2977  0.7438  0.5144
   35MOL0     C 4525  -2.336   4.483   7.193  0.5274  0.2631  1.6208
   35MOL0     C 4526  -2.483   4.521   7.239 -1.2280 -0.3004  0.4835
   35MOL0     C 4527  -2.584   4.493   7.128  0.1001  0.2491  0.1392
   35MOL0     C 4528  -2.725   4.525   7.159 -0.0562 -1.0748  0.3474
   35MOL0     C 4529  -2.810   4.503   7.031  0.4871 -0.2674 -0.2522
   35MOL0     C 4530  -2.947   4.561   7.042  0.5569  0.3603 -0.0997
   35MOL0     C 4531  -3.036   4.533   6.923  0.6135  0.3133 -0.0840
   35MOL0    Cl 4532  -3.206   4.533   6.981  0.2692 -0.1371  0.4847
   35MOL0     C 4533  -1.914   4.536   7.397  0.2373  0.2334 -0.5050
   35MOL0     C 4534  -1.821   4.505   7.493 -0.8234 -0.1058 -0.2681
   35MOL0     O 4535  -1.640   4.198   7.473  0.6366 -0.7414 -0.2744
   35MOL0     C 4536  -1.485   4.312   7.771 -0.8732  0.1676  0.4771
   35MOL0     C 4537  -1.388   4.276   7.869 -0.2500 -0.0432  0.0817
   35MOL0     N 4538  -0.760   4.365   7.887  0.8213 -0.1566  0.1036
   35MOL0     N 4539  -0.669   4.452   7.928 -0.5976 -1.0766  0.5565
   35MOL0     C 4540   0.525   4.829   7.963  0.9528  0.5263  0.0537
   35MOL0     C 4541   0.657   4.812   7.923 -0.3883 -0.9308 -0.1706
   35MOL0     C 4542   1.127   4.844   7.952 -0.0394 -0.4141  0.8021
   35MOL0     C 4543   1.247   4.824   8.015 -0.4158  0.2362  0.3856
   35MOL0     C 4544   1.371   4.814   7.952 -0.4347  0.3919  0.3379
   35MOL0     C 4545   1.382   4.829   7.813  0.2157 -0.8118  0.1620
   35MOL0     O 4546   1.501   4.854   7.739 -0.5808 -0.3855 -0.0163
   35MOL0     C 4547   1.618   4.798   7.791  0.1869 -0.0185 -0.4083
   35MOL0     C 4548   1.727   4.787   7.690  1.0290 -0.3001  0.6454
   35MOL0     C 4549   1.863   4.722   7.741  0.1752 -0.1496  0.1093
   35MOL0     C 4550   1.964   4.725   7.629  0.0801  0.2143  0.6752
   35MOL0     C 4551   2.084   4.662   7.679  0.1434  0.3178  0.5532
   35MOL0     C 4552   2.183   4.591   7.697 -0.4132  0.2231 -0.4262
   35MOL0     C 4553   1.260   4.849   7.745  0.3043  0.2887  0.8656
   35MOL0     C 4554   1.133   4.848   7.810 -0.0626  0.4894 -0.1275
   35MOL0     H 4555   0.807   4.933   8.202 -0.0215  0.1686  0.5942
   35MOL0     H 4556   0.576   4.972   8.270  2.0118 -0.8446  0.9289
   35MOL0     H 4557   0.281   4.729   8.077 -1.9877 -0.0285 -2.6619
   35MOL0     H 4558   0.226   4.881   7.995 -2.0518  0.4777  1.0594
   35MOL0     H 4559   0.078   4.927   8.164  0.0460  1.0441  1.0512
   35MOL0     H 4560   0.147   4.816   8.278 -4.6568  0.2847  0.7468
   35MOL0     H 4561   0.093   4.629   8.143  0.2108  0.3410  2.2849
   35MOL0     H 4562   0.012   4.732   8.017 -2.2921  0.4633  0.1990
   35MOL0     H 4563  -0.090   4.723   8.310  0.3775  1.4891 -0.3220
   35MOL0     H 4564  -0.144   4.826   8.190 -1.9062 -1.1411  0.7875
   35MOL0     H 4565  -0.138   4.523   8.183 -1.9086 -0.1937  1.6129
   35MOL0     H 4566  -0.187   4.624   8.045  1.3735 -2.6889 -0.0097
   35MOL0     H 4567  -0.364   4.731   8.187 -0.9790  0.2261  4.0788
   35MOL0     H 4568  -0.332   4.605   8.307  0.2408  1.7927  0.7558
   35MOL0     H 4569  -0.409   4.550   7.999 -0.8754  0.3083 -0.5662
   35MOL0     H 4570  -0.345   4.431   8.112  0.8981  0.9015 -0.8626
   35MOL0     H 4571  -0.595   4.585   8.177 -1.3947 -1.5398  1.1411
   35MOL0     H 4572  -0.533   4.441   8.248  0.6674  1.1704  1.2020
   35MOL0     H 4573  -0.633   4.227   8.153  2.0623  0.0571 -0.9166
   35MOL0     H 4574  -0.772   4.048   7.962 -1.5861 -0.5893  1.2736
   35MOL0     H 4575  -0.908   4.125   7.868  1.1235  2.3037 -2.6994
   35MOL0     H 4576  -1.002   4.198   8.084  0.3646  0.4726 -2.1585
   35MOL0     H 4577  -0.880   4.107   8.164  0.2439  2.6185  0.2017
   35MOL0     H 4578  -0.985   3.896   8.036 -1.3963 -0.7817 -0.2545
   35MOL0     H 4579  -1.105   3.987   8.137 -1.1979  1.4228 -0.7551
   35MOL0     H 4580  -1.211   3.925   7.939 -1.6022  0.6228 -1.4948
   35MOL0     H 4581  -1.091   4.010   7.839  2.6281  1.0460  1.6049
   35MOL0     H 4582  -1.318   3.966   7.758  2.3438  0.8126 -0.7323
   35MOL0     H 4583  -1.505   4.014   7.609  1.7349  0.1530 -1.3598
   35MOL0     H 4584  -1.926   4.195   7.563 -0.8635  0.3005  0.0656
   35MOL0     H 4585  -2.102   4.263   7.408  1.5495 -0.3104 -0.0527
   35MOL0     H 4586  -2.282   4.582   7.382 -0.2837 -1.1164  3.5895
   35MOL0     H 4587  -2.274   4.406   7.387 -0.3816  0.5991  0.2888
   35MOL0     H 4588  -2.340   4.380   7.157 -0.0653  1.2756 -1.5284
   35MOL0     H 4589  -2.292   4.555   7.123 -1.2971  0.4554  0.6020
   35MOL0     H 4590  -2.479   4.629   7.261  3.6734  0.6646 -3.2721
   35MOL0     H 4591  -2.503   4.475   7.336  3.8627 -0.5272  1.7217
   35MOL0     H 4592  -2.542   4.536   7.037  2.2868  0.6958  1.2891
   35MOL0     H 4593  -2.591   4.385   7.111 -2.4728  0.3221  0.3543
   35MOL0     H 4594  -2.740   4.628   7.192 -2.4232 -0.6639 -1.6719
   35MOL0     H 4595  -2.762   4.468   7.246  2.3841  1.6068  3.3840
   35MOL0     H 4596  -2.824   4.396   7.010 -0.5416 -0.0561 -0.7412
   35MOL0     H 4597  -2.764   4.551   6.944  0.4309  0.9291  0.3605
   35MOL0     H 4598  -2.995   4.520   7.132  0.4719 -2.4993 -1.3532
   35MOL0     H 4599  -2.956   4.670   7.055 -1.5698  0.5359 -2.3645
   35MOL0     H 4600  -3.011   4.431   6.892 -0.1432  0.3119 -0.7230
   35MOL0     H 4601  -3.009   4.575   6.826 -0.5207  0.2309 -0.4510
   35MOL0     H 4602  -1.904   4.638   7.361 -0.6521 -0.1014 -1.8053
   35MOL0     H 4603  -1.736   4.569   7.517  0.3557 -2.6132  3.0849
   35MOL0     H 4604  -1.530   4.410   7.784  0.7687  0.9162  0.8850
   35MOL0     H 4605  -1.356   4.346   7.945 -1.7315 -0.6628  1.3254
   35MOL0     H 4606   0.448   4.797   7.893  3.2431  0.2443 -2.5243
   35MOL0     H 4607   0.689   4.761   7.833  0.7137 -1.1406  0.3276
   35MOL0     H 4608   1.259   4.808   8.122 -0.2973  0.2055  0.3681
   35MOL0     H 4609   1.462   4.807   8.011 -0.5862  0.3242  0.5656
   35MOL0     H 4610   1.595   4.698   7.828  1.1122  0.2465  0.9637
   35MOL0     H 4611   1.661   4.854   7.874 -0.0954  1.5273 -1.2670
   35MOL0     H 4612   1.691   4.732   7.602 -0.9762 -0.4961  1.5402
   35MOL0     H 4613   1.743   4.889   7.652 -0.2910 -0.6215 -0.9155
   35MOL0     H 4614   1.850   4.615   7.761  3.2694 -0.8891 -1.2199
   35MOL0     H 4615   1.906   4.765   7.832  0.5690  2.5798 -1.2569
   35MOL0     H 4616   1.935   4.674   7.537  0.5581 -0.3957  0.8640
   35MOL0     H 4617   1.979   4.833   7.613 -2.5739  1.1243  3.4108
   35MOL0     H 4618   2.262   4.520   7.708 -1.9888 -1.3607  1.5207
   35MOL0     H 4619   1.260   4.859   7.637 -2.2370 -0.0177  0.7771
   35MOL0     H 4620   1.044   4.846   7.748 -0.9697  1.4188  1.1167
   36MOL0     O 4621   9.259   2.217   0.284  0.0052 -0.2828 -0.2961
   36MOL0     C 4622   9.263   2.093   0.269  0.0803  0.2255  0.4057
   36MOL0     O 4623   9.359   2.013   0.307 -0.6277  0.0473 -0.1076
   36MOL0     C 4624   9.480   2.066   0.342 -0.6154  0.0089  0.3774
   36MOL0     C 4625   9.580   2.101   0.254 -0.2030  0.1289 -0.2871
   36MOL0     C 4626   9.707   2.144   0.286 -0.2747 -0.0734  0.3621
   36MOL0     C 4627   9.746   2.154   0.416  0.1741  0.4489  0.5421
   36MOL0     O 4628   9.874   2.211   0.429  0.1129  0.3036  0.2250
   36MOL0     C 4629   9.943   2.181   0.553 -0.1253  0.0547  0.6534
   36MOL0     C 4630  10.089   2.234   0.551 -0.9284  0.0969  0.1624
   36MOL0     C 4631  10.124   2.346   0.455 -0.1245 -0.7067  0.0023
   36MOL0     C 4632  10.257   2.407   0.499 -0.2163 -0.3802 -0.3306
   36MOL0     C 4633  10.288   2.530   0.418 -0.8381  0.7054  0.0086
   36MOL0     C 4634  10.421   2.586   0.458  0.3976  0.2245 -0.0609
   36MOL0     C 4635  10.465   2.684   0.358  0.7368 -0.3697 -0.2167
   36MOL0     C 4636  10.569   2.795   0.404  0.5089  0.7171  0.5281
   36MOL0     N 4637  10.518   2.880   0.510 -0.2498  0.1343 -0.2659
   36MOL0     C 4638  10.517   2.867   0.644 -0.5699 -0.1301 -0.1280
   36MOL0     C 4639  10.460   2.985   0.683  0.2810  0.2735  0.4588
   36MOL0     C 4640  10.432   3.038   0.819  0.1282  0.7036  1.1532
   36MOL0     C 4641  10.288   3.013   0.846  0.1177 -0.1427  0.6802
   36MOL0     C 4642  10.229   2.881   0.862  0.4244  0.1008  0.2233
   36MOL0     C 4643  10.089   2.872   0.903 -0.3864 -0.4345 -0.1898
   36MOL0     O 4644  10.058   2.735   0.922 -0.5176 -0.4382  0.1877
   36MOL0     C 4645   9.938   2.713   0.985 -0.7851  0.1669  0.0031
   36MOL0     C 4646   9.830   2.807   1.012 -0.7783 -0.2884  0.0943
   36MOL0     C 4647   9.704   2.769   1.069  0.6911 -0.2382 -0.2874
   36MOL0     C 4648   9.685   2.634   1.093  0.4644  0.1008 -0.0853
   36MOL0     C 4649   9.553   2.566   1.115 -0.3900 -0.4138  0.6862
   36MOL0     O 4650   9.548   2.435   1.101  0.0931 -0.2041 -0.0267
   36MOL0     C 4651   9.433   2.367   1.117  0.4562 -0.2308 -0.1683
   36MOL0     C 4652   9.318   2.385   1.033 -0.3860  0.6782 -0.4504
   36MOL0     C 4653   9.200   2.312   1.053  0.3161  0.4255  0.7636
   36MOL0     C 4654   9.188   2.235   1.168 -0.4497 -0.2968 -0.6513
   36MOL0     O 4655   9.072   2.167   1.197  0.1788  0.1736 -0.2019
   36MOL0     C 4656   9.090   2.058   1.289 -0.9300 -0.6590 -0.6555
   36MOL0     C 4657   8.945   2.016   1.314  0.1785  0.4971 -0.0385
   36MOL0     C 4658   8.936   1.893   1.415 -0.3494 -0.7523 -0.3904
   36MOL0     C 4659   8.810   1.820   1.411 -0.4270  0.2917 -0.1278
   36MOL0     C 4660   8.812   1.697   1.505 -0.4489  0.5535 -0.4172
   36MOL0     C 4661   8.875   1.574   1.434 -0.1893 -0.0710 -0.3206
   36MOL0     C 4662   8.873   1.446   1.524  0.3692 -0.7096  0.2796
   36MOL0     C 4663   8.970   1.458   1.649  0.3600 -0.1917  0.2683
   36MOL0    Cl 4664   9.132   1.514   1.602 -0.3343 -0.4402  0.1196
   36MOL0     C 4665   9.300   2.227   1.254  1.2772  0.4741  1.2795
   36MOL0     C 4666   9.422   2.289   1.227  0.3659  0.3222 -0.1954
   36MOL0     O 4667   9.458   2.637   1.139  0.2216 -0.4308 -0.2160
   36MOL0     C 4668   9.789   2.545   1.076  0.7464 -0.3077  0.1134
   36MOL0     C 4669   9.909   2.582   1.017 -0.2728 -0.6034 -0.3992
   36MOL0     N 4670  10.418   3.057   0.576  0.0915 -0.6553  0.6212
   36MOL0     N 4671  10.457   2.992   0.469  0.4521  0.0849 -0.0339
   36MOL0     C 4672   9.662   2.099   0.509 -0.1511 -0.4704  0.3079
   36MOL0     C 4673   9.531   2.061   0.477  0.6088  0.9020  0.0536
   36MOL0     C 4674   9.142   2.027   0.195  1.0454  0.3247 -0.1921
   36MOL0     C 4675   9.147   1.889   0.170 -0.0193  0.5996 -0.5224
   36MOL0     C 4676   9.046   1.820   0.113 -0.0792  1.0041  0.3633
   36MOL0     C 4677   8.934   1.892   0.061 -0.8677  0.8649  0.0704
   36MOL0     O 4678   8.831   1.843  -0.013  0.1860 -0.0525  0.3160
   36MOL0     C 4679   8.851   1.716  -0.088 -0.3826  0.5300  0.5875
   36MOL0     C 4680   8.721   1.694  -0.164  0.0577  0.6431 -0.0698
   36MOL0     C 4681   8.732   1.565  -0.243  0.2220  0.0189 -0.1055
   36MOL0     C 4682   8.604   1.522  -0.313  0.1255 -0.0618 -0.3143
   36MOL0     C 4683   8.563   1.628  -0.407  0.1966  0.1812  0.2625
   36MOL0     C 4684   8.522   1.715  -0.480 -1.1564  0.1958  0.7382
   36MOL0     C 4685   8.931   2.023   0.082 -0.2630  0.3202 -0.1565
   36MOL0     C 4686   9.033   2.091   0.153 -0.7396  0.0897  0.1127
   36MOL0     H 4687   9.558   2.075   0.151  2.4893 -2.0907 -0.4274
   36MOL0     H 4688   9.772   2.177   0.206 -0.6086  1.8997  0.8341
   36MOL0     H 4689   9.942   2.073   0.572  3.4475 -0.3405 -0.5139
   36MOL0     H 4690   9.886   2.234   0.629  0.3446 -1.0731  1.8400
   36MOL0     H 4691  10.156   2.150   0.529 -1.7154 -1.0659  1.9399
   36MOL0     H 4692  10.114   2.255   0.655  0.9728 -0.9039 -0.0457
   36MOL0     H 4693  10.048   2.424   0.451  0.3594 -0.1484  1.3262
   36MOL0     H 4694  10.138   2.308   0.353 -1.4447 -0.3681 -0.3234
   36MOL0     H 4695  10.260   2.440   0.603  4.1299 -0.4448 -0.2739
   36MOL0     H 4696  10.331   2.327   0.494  0.2716  0.0990 -1.0010
   36MOL0     H 4697  10.204   2.599   0.427 -1.9479 -0.1810 -2.6715
   36MOL0     H 4698  10.295   2.502   0.312  0.2430  1.3069 -0.1018
   36MOL0     H 4699  10.487   2.499   0.462 -1.3645 -1.4012 -2.9776
   36MOL0     H 4700  10.409   2.633   0.556  0.3256  0.9138 -0.3964
   36MOL0     H 4701  10.491   2.624   0.271 -0.5361 -0.8212 -0.3055
   36MOL0     H 4702  10.374   2.736   0.324 -0.0799 -1.2617  0.5552
   36MOL0     H 4703  10.589   2.859   0.317  3.4839 -0.3045  0.3379
   36MOL0     H 4704  10.661   2.745   0.433  0.3378  1.1956  1.9462
   36MOL0     H 4705  10.546   2.780   0.701  2.1699 -1.3572 -3.0935
   36MOL0     H 4706  10.471   3.140   0.816  0.7050  0.5688  3.0623
   36MOL0     H 4707  10.494   2.980   0.887 -1.4386 -0.6927  1.4810
   36MOL0     H 4708  10.235   3.059   0.761  3.4242 -0.5517 -1.8034
   36MOL0     H 4709  10.264   3.072   0.935  0.9271 -0.1336  0.8927
   36MOL0     H 4710  10.247   2.824   0.770 -0.7209  1.8005 -1.1153
   36MOL0     H 4711  10.280   2.837   0.948 -3.7213 -0.8104  2.4779
   36MOL0     H 4712  10.020   2.903   0.824 -2.5757 -1.6195  1.1663
   36MOL0     H 4713  10.081   2.926   0.998  1.2137  2.1546 -1.4184
   36MOL0     H 4714   9.855   2.909   0.985  0.6214 -1.0206 -1.6185
   36MOL0     H 4715   9.623   2.840   1.077  0.6045 -0.0372 -2.5456
   36MOL0     H 4716   9.339   2.445   0.946  1.8302  1.5638  0.6176
   36MOL0     H 4717   9.112   2.315   0.989 -0.0796  1.3560  1.3224
   36MOL0     H 4718   9.131   2.082   1.387  0.8166 -1.5303 -1.1460
   36MOL0     H 4719   9.146   1.973   1.249  0.5116 -0.0018 -0.0944
   36MOL0     H 4720   8.909   1.985   1.215  1.0506  0.7658 -0.4501
   36MOL0     H 4721   8.884   2.102   1.342 -2.2664 -1.0212 -0.4222
   36MOL0     H 4722   8.947   1.930   1.517 -3.0176 -0.3479 -0.1673
   36MOL0     H 4723   9.018   1.824   1.392 -1.3556 -1.7664 -1.0383
   36MOL0     H 4724   8.728   1.884   1.444 -2.5094 -0.6338 -3.0713
   36MOL0     H 4725   8.787   1.788   1.309 -2.0970 -1.3797  0.7082
   36MOL0     H 4726   8.706   1.675   1.515 -0.9314  0.7029 -3.9818
   36MOL0     H 4727   8.869   1.718   1.597 -2.1963  1.0352  0.5943
   36MOL0     H 4728   8.976   1.589   1.395  0.6577 -0.8420  1.4818
   36MOL0     H 4729   8.817   1.552   1.344  2.1455 -4.5820 -0.9900
   36MOL0     H 4730   8.770   1.436   1.562  0.1642  0.0456 -0.0723
   36MOL0     H 4731   8.898   1.366   1.454  2.5125  1.8263 -2.0492
   36MOL0     H 4732   8.970   1.354   1.684  3.0941 -1.2858 -2.4379
   36MOL0     H 4733   8.928   1.536   1.713 -2.4210 -0.4780 -1.0774
   36MOL0     H 4734   9.293   2.175   1.349 -0.0209 -1.2639  0.2847
   36MOL0     H 4735   9.505   2.297   1.296 -0.9594 -0.5304  1.5891
   36MOL0     H 4736   9.779   2.439   1.098  0.8118 -0.8208 -2.0803
   36MOL0     H 4737   9.990   2.511   1.004  0.5597  0.3330 -0.4792
   36MOL0     H 4738   9.687   2.103   0.615 -1.8533  1.8654  0.7025
   36MOL0     H 4739   9.475   2.033   0.566 -0.5307 -2.2146 -1.4767
   36MOL0     H 4740   9.238   1.841   0.204  2.4489  1.0312 -5.5457
   36MOL0     H 4741   9.035   1.714   0.092 -1.2941  0.7231  2.1520
   36MOL0     H 4742   8.880   1.640  -0.014  3.0996  1.7815  0.6535
   36MOL0     H 4743   8.939   1.728  -0.151 -0.0480 -0.2979  0.8833
   36MOL0     H 4744   8.637   1.686  -0.095  1.6011 -0.8071  1.7766
   36MOL0     H 4745   8.700   1.775  -0.235  0.6757 -1.2877 -2.6312
   36MOL0     H 4746   8.773   1.484  -0.182 -0.7055 -0.6474 -0.3450
   36MOL0     H 4747   8.809   1.584  -0.318  0.3787  2.9677  0.6622
   36MOL0     H 4748   8.637   1.435  -0.370 -1.3733 -1.3410  0.6826
   36MOL0     H 4749   8.520   1.499  -0.246  0.5827 -1.0830 -0.0813
   36MOL0     H 4750   8.494   1.804  -0.532  0.1062  1.0657  1.4871
   36MOL0     H 4751   8.855   2.088   0.040  1.1885  0.4677 -2.7833
   36MOL0     H 4752   9.024   2.197   0.173 -2.0765 -0.4166  2.6608
   37MOL0     O 4753   3.009   7.549   2.795 -0.4007 -0.5922  0.0829
   37MOL0     C 4754   3.084   7.453   2.815  0.3967  0.5409  0.9693
   37MOL0     O 4755   3.041   7.331   2.851 -0.0119 -0.2637  0.0316
   37MOL0     C 4756   2.907   7.317   2.891 -0.3742 -0.4270 -0.4221
   37MOL0     C 4757   2.795   7.322   2.803  0.2864 -0.2212  0.1556
   37MOL0     C 4758   2.664   7.305   2.858  0.4651  0.3209 -0.4998
   37MOL0     C 4759   2.649   7.283   2.998  0.0915  0.8721  0.4689
   37MOL0     O 4760   2.535   7.256   3.066  0.1505  0.2421 -0.8013
   37MOL0     C 4761   2.402   7.280   3.019  0.4030 -0.2071 -1.0300
   37MOL0     C 4762   2.294   7.220   3.108  0.9230 -0.2346  0.0043
   37MOL0     C 4763   2.158   7.284   3.063  0.3343 -0.0327 -0.5409
   37MOL0     C 4764   2.049   7.244   3.175 -0.9365  0.2998  0.8917
   37MOL0     C 4765   1.923   7.329   3.174 -0.0426  0.5494  0.1210
   37MOL0     C 4766   1.850   7.304   3.043 -0.4650  0.0273  0.2373
   37MOL0     C 4767   1.767   7.169   3.041 -1.1576 -0.0455  0.6934
   37MOL0     C 4768   1.643   7.177   2.953  0.5117 -0.2012  0.4860
   37MOL0     N 4769   1.687   7.201   2.810  0.1222  0.5807  0.1065
   37MOL0     C 4770   1.788   7.139   2.740 -0.0131  0.4805  0.5920
   37MOL0     C 4771   1.774   7.190   2.614  0.0328 -0.2505 -0.3062
   37MOL0     C 4772   1.846   7.158   2.483  0.0519  0.3409  0.2298
   37MOL0     C 4773   1.964   7.257   2.466 -0.0761 -0.4017 -0.0912
   37MOL0     C 4774   2.061   7.267   2.584  0.4453 -0.7463 -0.3618
   37MOL0     C 4775   2.165   7.375   2.563 -0.1102 -0.2078  0.1004
   37MOL0     O 4776   2.291   7.323   2.610  0.4364 -0.0581 -0.6262
   37MOL0     C 4777   2.395   7.393   2.573 -0.2349  0.0893 -0.9734
   37MOL0     C 4778   2.480   7.328   2.479  0.1167  1.1477  0.0336
   37MOL0     C 4779   2.582   7.403   2.422 -0.5954  0.4245 -0.0136
   37MOL0     C 4780   2.624   7.531   2.465  0.6293  0.5076 -0.3197
   37MOL0     C 4781   2.739   7.603   2.403 -0.0799  0.1616 -0.0923
   37MOL0     O 4782   2.777   7.733   2.451  0.3672 -0.1275 -0.9481
   37MOL0     C 4783   2.871   7.802   2.386 -0.0018 -0.3092  0.2079
   37MOL0     C 4784   2.927   7.907   2.454 -0.2072 -0.4120  0.6663
   37MOL0     C 4785   3.025   7.994   2.399 -0.3959  0.8254 -0.2968
   37MOL0     C 4786   3.061   7.979   2.270 -0.3348  0.4277  0.3169
   37MOL0     O 4787   3.171   8.042   2.209  0.5387 -0.6094  0.0121
   37MOL0     C 4788   3.174   8.175   2.228 -0.5669 -0.6407 -0.7895
   37MOL0     C 4789   3.091   8.266   2.134 -0.3611  0.5697  0.0165
   37MOL0     C 4790   3.093   8.213   1.992 -0.3304 -0.6120  0.4587
   37MOL0     C 4791   3.045   8.331   1.908 -0.6193 -0.8403  0.1741
   37MOL0     C 4792   3.020   8.280   1.763 -0.3843 -0.0270  0.1696
   37MOL0     C 4793   3.155   8.257   1.689  0.0594  0.6187 -0.5134
   37MOL0     C 4794   3.126   8.239   1.550  0.3701 -0.9362  0.4651
   37MOL0     C 4795   3.097   8.378   1.479 -0.6273 -0.2631  0.8659
   37MOL0    Cl 4796   3.105   8.354   1.301 -0.2050 -0.2951 -0.1141
   37MOL0     C 4797   3.006   7.879   2.193  1.1668  0.8972  0.3982
   37MOL0     C 4798   2.907   7.795   2.245 -0.2686 -0.0589 -0.0452
   37MOL0     O 4799   2.789   7.544   2.304 -0.6210 -0.4792 -0.7525
   37MOL0     C 4800   2.544   7.590   2.566 -0.2631 -0.1723 -0.2439
   37MOL0     C 4801   2.431   7.525   2.606 -0.3947 -0.8113 -0.5780
   37MOL0     N 4802   1.661   7.275   2.599  0.0330 -0.2786  0.1608
   37MOL0     N 4803   1.620   7.285   2.723 -0.9614 -0.2816  0.2014
   37MOL0     C 4804   2.762   7.270   3.076  0.5426 -0.7358 -0.0423
   37MOL0     C 4805   2.887   7.287   3.024  0.4029  0.2350 -0.3679
   37MOL0     C 4806   3.231   7.464   2.785  0.7039  0.4116 -0.5087
   37MOL0     C 4807   3.280   7.590   2.750 -0.7012 -0.0614  0.0763
   37MOL0     C 4808   3.418   7.597   2.716 -0.0310 -0.7487  0.3775
   37MOL0     C 4809   3.510   7.492   2.727 -0.6574 -0.3593 -1.0576
   37MOL0     O 4810   3.643   7.515   2.698  0.0877 -0.4776 -0.4246
   37MOL0     C 4811   3.739   7.404   2.686 -0.4970  0.1078 -1.0720
   37MOL0     C 4812   3.702   7.321   2.557  0.3083  0.4966 -0.9211
   37MOL0     C 4813   3.805   7.208   2.540 -0.1752 -0.3293  0.2719
   37MOL0     C 4814   3.929   7.260   2.471  0.0573  0.6751  0.3331
   37MOL0     C 4815   4.040   7.158   2.481  0.3095  0.2360 -0.4832
   37MOL0     C 4816   4.146   7.096   2.485  0.2904  0.1463  0.1806
   37MOL0     C 4817   3.457   7.377   2.775  0.1265  0.5120  0.6352
   37MOL0     C 4818   3.320   7.355   2.794  0.0239 -0.1720 -0.2560
   37MOL0     H 4819   2.813   7.342   2.698  0.5044  1.1638  0.4263
   37MOL0     H 4820   2.573   7.309   2.799 -0.3201 -0.0996  0.6437
   37MOL0     H 4821   2.380   7.239   2.919 -2.0407 -1.6280  0.0135
   37MOL0     H 4822   2.390   7.388   3.024  1.3531 -0.1558  1.7206
   37MOL0     H 4823   2.313   7.245   3.213  0.5030 -0.8872  0.2463
   37MOL0     H 4824   2.280   7.112   3.105 -1.8540 -0.0910  2.3738
   37MOL0     H 4825   2.122   7.256   2.964 -0.4450  0.2660 -0.3435
   37MOL0     H 4826   2.170   7.393   3.061 -4.5406  0.7257 -0.4273
   37MOL0     H 4827   2.025   7.138   3.175 -0.9314  0.2869  0.0537
   37MOL0     H 4828   2.100   7.263   3.270 -1.1316  0.4946  0.9588
   37MOL0     H 4829   1.936   7.437   3.182 -2.0001  0.7205  1.8111
   37MOL0     H 4830   1.869   7.299   3.265 -0.3977  0.8576  0.0153
   37MOL0     H 4831   1.919   7.300   2.959 -0.4131 -0.3049  0.2931
   37MOL0     H 4832   1.782   7.388   3.027 -2.2330 -1.2505  0.7415
   37MOL0     H 4833   1.828   7.081   3.020  1.0751  0.7157  3.2657
   37MOL0     H 4834   1.730   7.139   3.140 -1.0278 -1.0335  0.4526
   37MOL0     H 4835   1.579   7.259   2.985  0.4774  0.0308 -0.1686
   37MOL0     H 4836   1.585   7.085   2.947 -0.0608  0.2399 -1.5380
   37MOL0     H 4837   1.856   7.061   2.775  1.0512  1.6369  1.1610
   37MOL0     H 4838   1.783   7.180   2.397  0.8897 -0.0514 -0.4912
   37MOL0     H 4839   1.869   7.051   2.479 -0.2738  0.1381  2.2797
   37MOL0     H 4840   1.920   7.355   2.446  1.3562  0.2094 -0.3266
   37MOL0     H 4841   2.021   7.222   2.380  0.8653  0.7088  0.0574
   37MOL0     H 4842   2.014   7.283   2.681  0.9075 -5.0000  0.7813
   37MOL0     H 4843   2.100   7.165   2.592  0.2664 -0.6904  1.8127
   37MOL0     H 4844   2.148   7.464   2.624 -0.0707  0.2962 -0.6041
   37MOL0     H 4845   2.164   7.409   2.459  0.3968 -2.8109 -0.8312
   37MOL0     H 4846   2.456   7.222   2.468 -3.6830  1.5925  2.2595
   37MOL0     H 4847   2.648   7.351   2.352 -1.2517  2.5151 -2.3371
   37MOL0     H 4848   2.889   7.926   2.554 -1.8307 -0.9962  0.2037
   37MOL0     H 4849   3.072   8.065   2.468 -2.8427 -0.3337  2.8128
   37MOL0     H 4850   3.279   8.194   2.203 -0.2672 -0.8684  0.2290
   37MOL0     H 4851   3.170   8.207   2.332  0.4971 -0.2544 -0.8495
   37MOL0     H 4852   3.131   8.368   2.140  2.1256 -0.2483 -1.4449
   37MOL0     H 4853   2.988   8.274   2.170 -0.1065 -2.5745  1.7931
   37MOL0     H 4854   3.028   8.125   1.982  0.3499 -1.0425 -0.2401
   37MOL0     H 4855   3.196   8.197   1.960  0.1099  1.5827  0.5880
   37MOL0     H 4856   2.950   8.374   1.939  0.6616  2.5677 -0.1720
   37MOL0     H 4857   3.123   8.408   1.913 -1.3350 -0.1692  1.7641
   37MOL0     H 4858   2.972   8.360   1.706  1.2612  0.6934 -0.2653
   37MOL0     H 4859   2.956   8.192   1.765 -1.3547  0.6324 -0.5779
   37MOL0     H 4860   3.198   8.165   1.730 -1.9391 -0.4838 -0.7407
   37MOL0     H 4861   3.224   8.338   1.715  2.1200 -1.4367  0.7539
   37MOL0     H 4862   3.214   8.187   1.512  0.1874 -2.6337  2.2281
   37MOL0     H 4863   3.042   8.170   1.541  0.3690 -0.7036 -2.2725
   37MOL0     H 4864   3.171   8.453   1.506 -0.0853 -0.3394 -0.3496
   37MOL0     H 4865   2.995   8.413   1.499  0.4025  3.1816  0.6589
   37MOL0     H 4866   3.035   7.863   2.090 -1.3027 -1.8355 -0.0012
   37MOL0     H 4867   2.856   7.739   2.167  1.8116  0.3181 -1.7768
   37MOL0     H 4868   2.573   7.691   2.593  1.3079 -0.5822 -0.2536
   37MOL0     H 4869   2.366   7.583   2.671 -1.2826 -2.1917 -0.1949
   37MOL0     H 4870   2.751   7.258   3.183 -1.2173 -1.7893 -0.3014
   37MOL0     H 4871   2.959   7.278   3.104  0.6648 -0.7029 -0.6873
   37MOL0     H 4872   3.218   7.677   2.733  0.1059  0.5853  0.3296
   37MOL0     H 4873   3.456   7.690   2.675 -1.7328 -0.8973 -1.6973
   37MOL0     H 4874   3.748   7.336   2.771  2.8722  2.3264  0.5769
   37MOL0     H 4875   3.830   7.466   2.683 -1.2375  1.2944  0.1710
   37MOL0     H 4876   3.608   7.269   2.574  0.7044 -0.1957 -0.7945
   37MOL0     H 4877   3.690   7.390   2.473 -4.2745  3.1313  1.5479
   37MOL0     H 4878   3.762   7.125   2.484  1.2657 -2.2269  1.8178
   37MOL0     H 4879   3.840   7.176   2.639  1.1476 -0.6357 -0.2722
   37MOL0     H 4880   3.914   7.279   2.364  0.6600  1.1076  0.3156
   37MOL0     H 4881   3.964   7.354   2.516  1.8497 -1.1704  3.0870
   37MOL0     H 4882   4.238   7.041   2.480 -0.2998 -0.7644 -2.8984
   37MOL0     H 4883   3.518   7.287   2.782 -2.3712 -1.3559 -0.1814
   37MOL0     H 4884   3.287   7.257   2.828 -0.4520 -0.1191 -0.5627
   38MOL0     O 4885   6.804   5.795   8.484 -0.6607  0.0538 -0.1541
   38MOL0     C 4886   6.853   5.789   8.596  0.3827  1.1979 -0.0514
   38MOL0     O 4887   6.789   5.759   8.706  0.1921 -0.9525  0.1785
   38MOL0     C 4888   6.659   5.733   8.716  0.4031 -0.3940  0.3929
   38MOL0     C 4889   6.597   5.758   8.843 -0.3607  0.0415 -0.2543
   38MOL0     C 4890   6.453   5.747   8.857 -0.0003  0.6385 -0.1098
   38MOL0     C 4891   6.371   5.696   8.756  0.0340 -0.3339  0.1415
   38MOL0     O 4892   6.239   5.689   8.789 -0.1767 -0.0703  0.4188
   38MOL0     C 4893   6.137   5.670   8.691  0.0421 -0.3232 -0.3554
   38MOL0     C 4894   6.029   5.594   8.762  0.0276 -0.4243  0.0584
   38MOL0     C 4895   5.899   5.598   8.688  0.3333 -0.5851  0.1149
   38MOL0     C 4896   5.794   5.515   8.750 -0.8365  0.4638 -0.3734
   38MOL0     C 4897   5.660   5.514   8.685 -0.4893  0.2582  0.0204
   38MOL0     C 4898   5.665   5.447   8.546  0.8820 -0.8028  0.7048
   38MOL0     C 4899   5.519   5.394   8.505  0.7102  0.4695  0.7954
   38MOL0     C 4900   5.465   5.267   8.587 -0.7587 -0.7708 -0.1647
   38MOL0     N 4901   5.555   5.146   8.551  0.3801 -1.0372  0.5914
   38MOL0     C 4902   5.580   5.101   8.423 -0.0256 -0.5299 -0.6334
   38MOL0     C 4903   5.665   5.000   8.451  0.4980  0.3867  1.1011
   38MOL0     C 4904   5.715   4.897   8.347  0.7114 -0.1813 -0.0290
   38MOL0     C 4905   5.839   4.958   8.280 -0.1897  0.1421  0.0875
   38MOL0     C 4906   5.886   4.876   8.164 -0.0902  0.6155  0.2667
   38MOL0     C 4907   6.018   4.942   8.116  0.2759 -0.2513  0.4548
   38MOL0     O 4908   6.007   5.071   8.051  0.1709 -0.4118  0.7573
   38MOL0     C 4909   6.118   5.151   8.026 -0.1616 -0.1572 -0.0888
   38MOL0     C 4910   6.092   5.273   7.982 -0.1247 -0.2794 -0.4873
   38MOL0     C 4911   6.195   5.366   7.944  0.4575  0.0728 -0.2071
   38MOL0     C 4912   6.323   5.322   7.963 -0.9585 -0.3016  0.4378
   38MOL0     C 4913   6.436   5.411   7.929  1.2810 -0.1982  0.2159
   38MOL0     O 4914   6.564   5.361   7.942  0.5649  0.3956 -0.3531
   38MOL0     C 4915   6.662   5.414   7.867 -0.7102  0.0063 -0.7149
   38MOL0     C 4916   6.793   5.452   7.923  0.6295 -0.1526  0.4250
   38MOL0     C 4917   6.893   5.481   7.831 -0.2295 -0.5923  0.0158
   38MOL0     C 4918   6.875   5.485   7.689  0.0481  0.3549  1.4083
   38MOL0     O 4919   6.976   5.522   7.603 -0.3724 -0.0799 -0.1685
   38MOL0     C 4920   7.115   5.501   7.640 -0.5388  0.2827  0.0576
   38MOL0     C 4921   7.207   5.545   7.518 -0.8882 -0.5525 -0.2416
   38MOL0     C 4922   7.258   5.686   7.526 -0.3121 -0.0816 -0.4596
   38MOL0     C 4923   7.339   5.718   7.398  0.0096 -0.5451  0.1862
   38MOL0     C 4924   7.363   5.871   7.394  0.4237 -0.7269 -0.6719
   38MOL0     C 4925   7.422   5.924   7.262 -0.4971 -0.8290 -0.3628
   38MOL0     C 4926   7.560   5.870   7.238 -0.0191  0.2308  0.0423
   38MOL0     C 4927   7.608   5.934   7.108  0.1253  1.2655  0.0289
   38MOL0    Cl 4928   7.668   6.102   7.133  0.0639 -0.1193 -0.0813
   38MOL0     C 4929   6.746   5.465   7.643  0.3501  0.9995  0.3231
   38MOL0     C 4930   6.646   5.427   7.730  0.0034 -1.0440 -0.3690
   38MOL0     O 4931   6.402   5.526   7.922 -0.9081  1.2615  0.2344
   38MOL0     C 4932   6.353   5.190   8.004 -0.2854  0.0997  0.3738
   38MOL0     C 4933   6.248   5.107   8.035 -0.2458  0.7594  0.8817
   38MOL0     N 4934   5.692   4.987   8.588  0.3060  0.6170  0.4258
   38MOL0     N 4935   5.633   5.085   8.646 -0.3629 -0.7911 -0.4424
   38MOL0     C 4936   6.431   5.677   8.626  0.6878  0.1739  0.3690
   38MOL0     C 4937   6.574   5.687   8.619  0.9822  0.9895 -0.5252
   38MOL0     C 4938   7.004   5.777   8.610  1.2864  0.6689 -0.0598
   38MOL0     C 4939   7.061   5.771   8.738 -1.3977  0.3341 -0.1073
   38MOL0     C 4940   7.199   5.743   8.746 -0.3934 -0.4910  0.2329
   38MOL0     C 4941   7.281   5.728   8.633 -0.2011  0.4025 -0.2332
   38MOL0     O 4942   7.412   5.697   8.654  0.7108 -0.5655 -0.6553
   38MOL0     C 4943   7.488   5.635   8.549 -0.7152 -0.2454  0.1906
   38MOL0     C 4944   7.561   5.739   8.460  0.5157  1.2785  0.6378
   38MOL0     C 4945   7.586   5.679   8.316  0.2011 -0.0615 -0.3232
   38MOL0     C 4946   7.715   5.603   8.309  0.4261  0.1798  0.0746
   38MOL0     C 4947   7.736   5.600   8.162 -0.1994 -0.8517 -0.5284
   38MOL0     C 4948   7.758   5.595   8.050  0.0376  0.7233  0.2129
   38MOL0     C 4949   7.226   5.749   8.513  0.3773 -0.2451 -0.1004
   38MOL0     C 4950   7.086   5.772   8.500  0.3162  0.3248 -0.9343
   38MOL0     H 4951   6.659   5.794   8.924 -1.4892  0.6744  0.3551
   38MOL0     H 4952   6.422   5.758   8.960 -1.4703 -1.9244 -0.1890
   38MOL0     H 4953   6.175   5.617   8.604  1.9549 -1.0914  0.8718
   38MOL0     H 4954   6.093   5.765   8.662 -0.9109 -0.2151  1.2847
   38MOL0     H 4955   6.019   5.629   8.865 -1.0368  0.8108 -0.4293
   38MOL0     H 4956   6.067   5.492   8.756  1.1370  0.0511 -2.0952
   38MOL0     H 4957   5.905   5.575   8.582 -0.3845 -1.8618  0.3297
   38MOL0     H 4958   5.859   5.700   8.692 -1.0807 -1.1058 -0.2801
   38MOL0     H 4959   5.834   5.413   8.751 -0.5417  0.5795  0.7032
   38MOL0     H 4960   5.783   5.548   8.853 -1.7103 -0.9640  0.0338
   38MOL0     H 4961   5.618   5.614   8.667 -2.5152 -0.7673 -1.3108
   38MOL0     H 4962   5.582   5.469   8.746 -2.5056  1.4893 -1.5308
   38MOL0     H 4963   5.735   5.363   8.553  0.8424 -0.8193  0.9059
   38MOL0     H 4964   5.704   5.519   8.473  1.5495 -0.4593  1.3807
   38MOL0     H 4965   5.455   5.482   8.499  1.4738  0.9649 -1.7175
   38MOL0     H 4966   5.519   5.377   8.396 -4.5420  1.3097  0.4292
   38MOL0     H 4967   5.358   5.264   8.563 -1.5692  1.6667  2.6326
   38MOL0     H 4968   5.472   5.281   8.695 -0.6656 -1.3157 -0.0966
   38MOL0     H 4969   5.535   5.129   8.328 -0.3781 -0.5740 -0.4829
   38MOL0     H 4970   5.640   4.863   8.274  1.0788 -0.8065 -0.1276
   38MOL0     H 4971   5.745   4.810   8.406 -0.1575 -0.2201  0.3692
   38MOL0     H 4972   5.907   4.983   8.362  0.8131 -0.3329 -0.5694
   38MOL0     H 4973   5.806   5.053   8.239 -1.0297 -0.9638 -1.9688
   38MOL0     H 4974   5.916   4.772   8.184  0.6550  0.6982 -0.3665
   38MOL0     H 4975   5.812   4.880   8.084  0.2194  0.2090 -0.0462
   38MOL0     H 4976   6.053   4.870   8.042  2.0236 -0.7996  1.7450
   38MOL0     H 4977   6.090   4.957   8.197  2.0186  2.9291 -1.4610
   38MOL0     H 4978   5.991   5.312   7.982 -0.1239 -0.1891  1.6144
   38MOL0     H 4979   6.172   5.466   7.909  0.8701 -0.3951 -1.9009
   38MOL0     H 4980   6.807   5.444   8.031  1.2581 -1.7680  0.2493
   38MOL0     H 4981   6.993   5.500   7.870 -0.4978 -2.0786  1.5303
   38MOL0     H 4982   7.121   5.395   7.666 -0.8238  0.3593  0.4498
   38MOL0     H 4983   7.146   5.566   7.722  1.6451 -0.8049  0.1662
   38MOL0     H 4984   7.154   5.521   7.425  0.8706 -0.7612 -1.2291
   38MOL0     H 4985   7.298   5.484   7.524 -2.1201 -2.6284 -1.3449
   38MOL0     H 4986   7.320   5.692   7.615 -0.1551  2.4323 -0.6662
   38MOL0     H 4987   7.172   5.747   7.556 -0.9974 -2.1294  2.0955
   38MOL0     H 4988   7.434   5.665   7.405  1.1324  1.1628 -1.2836
   38MOL0     H 4989   7.283   5.693   7.307  1.5270 -1.7079 -0.4798
   38MOL0     H 4990   7.415   5.897   7.487 -1.4736 -1.4599  0.6645
   38MOL0     H 4991   7.270   5.928   7.403  1.6855  1.6166 -1.5578
   38MOL0     H 4992   7.434   6.032   7.269  2.1972 -1.1176  0.5412
   38MOL0     H 4993   7.353   5.904   7.180 -1.4941  0.8492  0.0212
   38MOL0     H 4994   7.631   5.906   7.314 -1.6762  1.3652  1.1270
   38MOL0     H 4995   7.558   5.761   7.235  0.4118  0.0815  2.6519
   38MOL0     H 4996   7.543   5.926   7.020  0.7842  0.7543 -0.4217
   38MOL0     H 4997   7.687   5.866   7.073 -2.0034 -0.5728 -1.5019
   38MOL0     H 4998   6.726   5.477   7.536  0.2011 -1.2397  0.0558
   38MOL0     H 4999   6.555   5.391   7.683 -1.5895  3.0419 -0.7664
   38MOL0     H 5000   6.454   5.150   8.008 -0.3219  0.0157  0.4517
   38MOL0     H 5001   6.275   5.019   8.091 -0.1526  0.6833  0.7172
   38MOL0     H 5002   6.372   5.656   8.537  2.8827 -0.5953 -0.9633
   38MOL0     H 5003   6.614   5.667   8.520  0.4900  0.3206 -0.5929
   38MOL0     H 5004   7.002   5.764   8.829 -1.1230 -0.0774  0.0402
   38MOL0     H 5005   7.252   5.724   8.839  0.1638 -0.7934 -0.1431
   38MOL0     H 5006   7.419   5.577   8.486 -0.3097 -0.5494  0.0248
   38MOL0     H 5007   7.569   5.580   8.597  2.0982  1.6978 -2.0260
   38MOL0     H 5008   7.480   5.812   8.450 -1.4641 -0.9689 -0.8892
   38MOL0     H 5009   7.658   5.769   8.500  1.9027 -0.2662 -1.3534
   38MOL0     H 5010   7.587   5.763   8.246  2.3292  0.8517  0.6967
   38MOL0     H 5011   7.501   5.626   8.273 -0.8632  1.0632  0.3173
   38MOL0     H 5012   7.795   5.647   8.369  1.7386 -3.4747  1.2499
   38MOL0     H 5013   7.701   5.497   8.334 -2.4654  0.9826  2.5397
   38MOL0     H 5014   7.788   5.601   7.948 -2.5561  2.7979 -0.5319
   38MOL0     H 5015   7.279   5.749   8.419 -0.2806 -0.8399 -0.4795
   38MOL0     H 5016   7.053   5.795   8.399  0.5630  0.9893 -0.8704
   39MOL0     O 5017   6.414   7.862   8.261 -0.6341 -0.5165  0.4181
   39MOL0     C 5018   6.465   7.810   8.363 -0.1796  0.5281 -0.0028
   39MOL0     O 5019   6.398   7.753   8.461  0.0138 -0.4810  0.4378
   39MOL0     C 5020   6.265   7.772   8.485  0.6998 -0.0375 -0.9479
   39MOL0     C 5021   6.189   7.677   8.552 -0.0222 -0.0349  0.1170
   39MOL0     C 5022   6.052   7.687   8.570 -0.2298  0.3019 -0.3602
   39MOL0     C 5023   5.982   7.805   8.533 -0.2879  0.1798  0.8113
   39MOL0     O 5024   5.846   7.815   8.551  0.2410 -0.6767 -0.0036
   39MOL0     C 5025   5.790   7.946   8.581  0.5465 -0.8311 -0.0543
   39MOL0     C 5026   5.654   7.935   8.652  0.7639 -0.9501  0.2455
   39MOL0     C 5027   5.659   7.845   8.780  0.3839  0.0803  0.5979
   39MOL0     C 5028   5.525   7.814   8.849 -0.1629  0.1168  0.1334
   39MOL0     C 5029   5.422   7.753   8.764  0.9898 -0.1805  0.6165
   39MOL0     C 5030   5.317   7.676   8.841  0.4949  0.4784 -0.5550
   39MOL0     C 5031   5.205   7.621   8.746  0.5555  0.3557  0.2119
   39MOL0     C 5032   5.256   7.518   8.649 -0.8874 -0.0757  0.9334
   39MOL0     N 5033   5.154   7.479   8.541  0.2589 -0.1413 -0.7627
   39MOL0     C 5034   5.024   7.433   8.560 -0.2948  0.2307  0.7170
   39MOL0     C 5035   4.981   7.408   8.431 -0.0176 -0.4748 -0.0945
   39MOL0     C 5036   4.833   7.374   8.402 -1.0602  0.5220 -0.0987
   39MOL0     C 5037   4.789   7.239   8.468  0.4168  0.1335 -0.5971
   39MOL0     C 5038   4.635   7.239   8.483 -0.8207  0.4618  0.8959
   39MOL0     C 5039   4.590   7.267   8.626  0.2751 -0.2755  0.3337
   39MOL0     O 5040   4.466   7.331   8.633 -0.0475 -0.3378 -0.1264
   39MOL0     C 5041   4.357   7.253   8.617 -0.3558 -0.2058 -0.0466
   39MOL0     C 5042   4.235   7.314   8.636  0.3521 -0.2835 -0.0943
   39MOL0     C 5043   4.115   7.251   8.615 -0.6719 -0.9873 -0.3476
   39MOL0     C 5044   4.110   7.119   8.583 -0.2330 -1.5802  0.6485
   39MOL0     C 5045   3.977   7.055   8.569 -0.5977  0.1709 -0.2899
   39MOL0     O 5046   3.865   7.127   8.579 -0.6471 -0.8210  0.0787
   39MOL0     C 5047   3.748   7.068   8.559  1.0385  0.5483 -0.1650
   39MOL0     C 5048   3.646   7.129   8.477  0.4398  0.0597 -0.3840
   39MOL0     C 5049   3.524   7.069   8.463  0.6721 -0.3433  0.0298
   39MOL0     C 5050   3.477   6.959   8.538 -0.2246  0.3205 -0.0389
   39MOL0     O 5051   3.356   6.903   8.516  1.4175 -0.5654  0.2603
   39MOL0     C 5052   3.284   6.881   8.640  0.0056 -0.1427 -0.2289
   39MOL0     C 5053   3.136   6.910   8.607  0.5699 -0.2400  0.0642
   39MOL0     C 5054   3.108   7.056   8.599 -0.1020  0.2574  0.8356
   39MOL0     C 5055   2.964   7.084   8.558 -0.6896  0.0195  0.1825
   39MOL0     C 5056   2.930   7.234   8.568  0.9628 -0.2753  0.0934
   39MOL0     C 5057   2.774   7.251   8.579 -0.9198 -0.0601 -0.0999
   39MOL0     C 5058   2.719   7.265   8.716 -0.3318  0.2418  0.0725
   39MOL0     C 5059   2.565   7.294   8.700  0.6031  0.3022 -0.2542
   39MOL0    Cl 5060   2.499   7.316   8.865  0.0629 -0.2225 -0.0996
   39MOL0     C 5061   3.574   6.905   8.618 -0.0565  0.2005 -0.9793
   39MOL0     C 5062   3.701   6.966   8.635  0.1461 -0.0251  0.5211
   39MOL0     O 5063   3.981   6.932   8.568  0.5020 -0.5006  0.1317
   39MOL0     C 5064   4.232   7.044   8.560 -1.2360  0.5643 -0.4012
   39MOL0     C 5065   4.359   7.106   8.597 -0.0297 -0.0124 -0.0716
   39MOL0     N 5066   5.084   7.433   8.340  0.0541 -1.1216 -0.1583
   39MOL0     N 5067   5.182   7.475   8.410  0.7851  0.0361  0.2541
   39MOL0     C 5068   6.058   7.898   8.474  0.0971 -0.6377  0.5402
   39MOL0     C 5069   6.194   7.886   8.448  0.3657  0.8517 -0.0640
   39MOL0     C 5070   6.611   7.815   8.387  0.9847  0.1385 -1.0465
   39MOL0     C 5071   6.686   7.926   8.343 -0.1846  0.1878  0.9622
   39MOL0     C 5072   6.833   7.914   8.355  0.1846  0.4784  0.8026
   39MOL0     C 5073   6.897   7.813   8.430  0.1870  0.3922  0.5223
   39MOL0     O 5074   7.034   7.818   8.438 -0.0770 -0.2665  0.1286
   39MOL0     C 5075   7.110   7.719   8.516 -0.1674 -0.2527  0.9003
   39MOL0     C 5076   7.256   7.715   8.477 -0.0219  0.0330 -0.9044
   39MOL0     C 5077   7.269   7.615   8.359  0.1552 -0.0486 -0.8835
   39MOL0     C 5078   7.410   7.566   8.340 -0.0603  0.0393 -0.2093
   39MOL0     C 5079   7.491   7.677   8.281  0.8746 -0.0588  0.2848
   39MOL0     C 5080   7.553   7.770   8.241  0.2970  0.1949 -0.2266
   39MOL0     C 5081   6.808   7.713   8.479 -0.0234  0.6142  0.9684
   39MOL0     C 5082   6.672   7.703   8.451  0.2568 -0.0438 -0.2444
   39MOL0     H 5083   6.235   7.584   8.585  0.4360  0.4951  1.0288
   39MOL0     H 5084   6.010   7.606   8.629  2.4870  0.3574  1.8848
   39MOL0     H 5085   5.787   8.007   8.491  0.7554 -0.1914  0.3655
   39MOL0     H 5086   5.853   7.996   8.655 -0.1474 -0.8593  0.5672
   39MOL0     H 5087   5.579   7.891   8.586 -0.8002 -0.2804  1.5276
   39MOL0     H 5088   5.629   8.038   8.680  0.2344 -1.2653  0.9396
   39MOL0     H 5089   5.738   7.881   8.846  0.2299  2.8001 -0.5694
   39MOL0     H 5090   5.693   7.747   8.746 -2.6021 -0.5195 -0.9957
   39MOL0     H 5091   5.558   7.743   8.925  0.7680 -0.1969 -0.5579
   39MOL0     H 5092   5.490   7.904   8.902 -1.1567 -1.9031  3.1686
   39MOL0     H 5093   5.461   7.701   8.676 -0.7831  2.4677 -1.9068
   39MOL0     H 5094   5.360   7.839   8.737 -0.3156  1.3692  6.8546
   39MOL0     H 5095   5.269   7.737   8.918 -0.1269 -0.3035 -0.3106
   39MOL0     H 5096   5.365   7.591   8.889 -1.3220  0.0237  0.5404
   39MOL0     H 5097   5.129   7.565   8.802  1.1399 -1.1392 -0.4279
   39MOL0     H 5098   5.153   7.705   8.701 -0.7538 -0.4457  0.1805
   39MOL0     H 5099   5.296   7.425   8.692 -0.6886 -1.6432 -2.3757
   39MOL0     H 5100   5.343   7.557   8.596  0.1813 -0.2952  2.4655
   39MOL0     H 5101   4.970   7.428   8.654 -3.9657 -0.4662 -1.2088
   39MOL0     H 5102   4.811   7.369   8.295 -1.8304 -1.5549  0.1163
   39MOL0     H 5103   4.780   7.462   8.439  0.1303  1.9822 -1.7022
   39MOL0     H 5104   4.836   7.215   8.564  2.2368 -0.4767 -1.5890
   39MOL0     H 5105   4.817   7.158   8.401  2.9843  0.3907  0.0719
   39MOL0     H 5106   4.590   7.314   8.417 -1.7390  0.7761  1.8604
   39MOL0     H 5107   4.594   7.141   8.458 -0.0964  0.0980  1.1021
   39MOL0     H 5108   4.668   7.328   8.672  0.7328  0.0025 -0.7958
   39MOL0     H 5109   4.589   7.173   8.682  2.9348 -1.6831 -1.7478
   39MOL0     H 5110   4.226   7.419   8.658  0.7733 -0.0565 -0.9671
   39MOL0     H 5111   4.026   7.313   8.623  1.5481  2.9014 -2.6191
   39MOL0     H 5112   3.668   7.225   8.430  0.8125  2.4615  4.1603
   39MOL0     H 5113   3.464   7.115   8.385 -2.5943 -0.5942  2.1783
   39MOL0     H 5114   3.330   6.935   8.724  3.3223  1.6912 -2.9895
   39MOL0     H 5115   3.278   6.774   8.662 -1.6055  0.0155  0.2822
   39MOL0     H 5116   3.079   6.866   8.689 -0.1983  0.6423  0.0197
   39MOL0     H 5117   3.104   6.855   8.518 -1.6377  0.3543  0.4206
   39MOL0     H 5118   3.180   7.095   8.527 -0.2648 -0.3503  0.3413
   39MOL0     H 5119   3.119   7.103   8.697 -2.1197 -0.4413  1.4380
   39MOL0     H 5120   2.940   7.048   8.457  0.8626  0.0347 -0.2204
   39MOL0     H 5121   2.906   7.031   8.634 -1.5050  0.6391  0.0072
   39MOL0     H 5122   2.967   7.278   8.475  2.2887 -0.3843  0.5543
   39MOL0     H 5123   2.984   7.281   8.651 -2.0048  3.7140  0.0829
   39MOL0     H 5124   2.714   7.181   8.520 -0.9528  1.2674 -1.7294
   39MOL0     H 5125   2.758   7.347   8.530  2.7799  1.7054  1.7657
   39MOL0     H 5126   2.746   7.179   8.779  0.7735  0.3020 -0.3061
   39MOL0     H 5127   2.767   7.350   8.764 -2.1317  0.5987  1.3687
   39MOL0     H 5128   2.515   7.214   8.646  0.5002  0.3516 -0.2320
   39MOL0     H 5129   2.550   7.378   8.631 -1.2123 -1.1127 -1.6760
   39MOL0     H 5130   3.560   6.805   8.658 -2.0354  1.3780  1.5779
   39MOL0     H 5131   3.776   6.920   8.699  0.6067 -0.0825 -0.0563
   39MOL0     H 5132   4.242   6.936   8.548 -1.1097  0.7195 -1.8420
   39MOL0     H 5133   4.455   7.057   8.585  0.2804  0.4438  0.4729
   39MOL0     H 5134   6.016   7.988   8.431 -0.3421 -1.6489 -1.2494
   39MOL0     H 5135   6.238   7.973   8.401  1.0007  1.6905  1.9547
   39MOL0     H 5136   6.647   8.006   8.281  0.9691 -1.6261 -2.3651
   39MOL0     H 5137   6.882   7.997   8.305 -0.0386 -0.6184 -1.3551
   39MOL0     H 5138   7.065   7.619   8.516  0.3315 -0.4922  1.7709
   39MOL0     H 5139   7.104   7.736   8.624  1.7019 -2.3698  1.4307
   39MOL0     H 5140   7.295   7.816   8.465  1.3288 -0.1725  1.1693
   39MOL0     H 5141   7.299   7.677   8.571  0.7749  1.2014 -0.7783
   39MOL0     H 5142   7.237   7.684   8.281  0.6373 -0.7438 -1.7172
   39MOL0     H 5143   7.203   7.528   8.366  0.3910 -0.1121  1.0812
   39MOL0     H 5144   7.444   7.513   8.429  1.8661  1.9854  0.3118
   39MOL0     H 5145   7.405   7.489   8.262 -0.8981 -0.9061  0.7509
   39MOL0     H 5146   7.601   7.856   8.197 -1.1481  1.6443  0.8887
   39MOL0     H 5147   6.854   7.640   8.546 -1.5194 -2.9309 -1.5224
   39MOL0     H 5148   6.618   7.616   8.488 -0.3574  0.3318 -0.2438
   40MOL0     O 5149   5.454   7.720   6.544  0.0259 -0.2532 -0.3649
   40MOL0     C 5150   5.515   7.786   6.626  0.3961  0.3148  0.0486
   40MOL0     O 5151   5.468   7.816   6.750  0.2034 -0.0765 -0.2124
   40MOL0     C 5152   5.339   7.772   6.779 -0.0824 -0.7682  0.1537
   40MOL0     C 5153   5.316   7.667   6.869 -0.3448  0.7164  0.6940
   40MOL0     C 5154   5.185   7.618   6.889  0.9112 -0.3449 -0.4250
   40MOL0     C 5155   5.075   7.683   6.836  0.0671 -0.5572  0.8824
   40MOL0     O 5156   4.957   7.635   6.861 -0.0186  0.1943 -0.4528
   40MOL0     C 5157   4.895   7.546   6.771  0.4075  0.1269  0.8799
   40MOL0     C 5158   4.751   7.524   6.822  0.5162  0.0631 -0.4208
   40MOL0     C 5159   4.745   7.471   6.967 -1.2100 -0.3662  0.2942
   40MOL0     C 5160   4.618   7.388   6.980  0.2787 -0.2034  0.2559
   40MOL0     C 5161   4.599   7.331   7.119 -0.3350 -1.0976 -0.5788
   40MOL0     C 5162   4.608   7.429   7.241 -0.0849 -0.2420 -0.3420
   40MOL0     C 5163   4.542   7.381   7.365  0.3085 -0.0901 -0.5440
   40MOL0     C 5164   4.398   7.432   7.386 -0.7722 -0.4892 -0.8043
   40MOL0     N 5165   4.286   7.353   7.326  0.1570 -0.5238 -0.4946
   40MOL0     C 5166   4.207   7.271   7.407  0.5734 -0.3178  0.8358
   40MOL0     C 5167   4.118   7.217   7.318  0.3951 -0.7532  0.6317
   40MOL0     C 5168   4.013   7.120   7.349 -0.2628 -0.2241 -0.2122
   40MOL0     C 5169   3.886   7.195   7.408 -0.3702  0.2815 -0.3149
   40MOL0     C 5170   3.802   7.089   7.482 -0.4964 -0.3991  0.5725
   40MOL0     C 5171   3.660   7.152   7.535 -0.3547  0.3509  0.0062
   40MOL0     O 5172   3.581   7.046   7.594 -0.5035  0.5207  0.0326
   40MOL0     C 5173   3.475   7.097   7.663  0.1990  0.7953 -0.7406
   40MOL0     C 5174   3.411   7.223   7.644  0.6065  0.2378 -0.0636
   40MOL0     C 5175   3.291   7.246   7.719 -0.8003  0.4545  0.0755
   40MOL0     C 5176   3.240   7.150   7.807  1.2305  0.8675  0.6348
   40MOL0     C 5177   3.113   7.186   7.874  0.0114  0.5642  0.6789
   40MOL0     O 5178   3.049   7.086   7.943  0.7170 -0.2079 -1.0245
   40MOL0     C 5179   2.940   7.104   8.029 -0.9388 -0.2352 -0.1339
   40MOL0     C 5180   2.839   7.015   8.022 -0.1367  0.5965  0.2943
   40MOL0     C 5181   2.727   7.030   8.104 -0.0489 -0.2949 -0.8672
   40MOL0     C 5182   2.720   7.145   8.195 -0.5874  0.8870  0.2256
   40MOL0     O 5183   2.608   7.192   8.268  0.0460  0.1114  0.2195
   40MOL0     C 5184   2.482   7.128   8.230 -0.1407  0.2613  0.1020
   40MOL0     C 5185   2.387   7.194   8.325 -0.3512  0.6234 -0.6780
   40MOL0     C 5186   2.373   7.344   8.290 -1.0232 -0.6012  0.0267
   40MOL0     C 5187   2.302   7.426   8.393  0.4434 -0.3217  0.5210
   40MOL0     C 5188   2.230   7.547   8.334  0.8231 -1.1568  0.7585
   40MOL0     C 5189   2.102   7.515   8.247 -1.5223  0.5816 -0.8032
   40MOL0     C 5190   2.016   7.645   8.235 -0.7904  0.0420 -0.4837
   40MOL0     C 5191   1.912   7.649   8.126 -0.0350  1.1175  0.4680
   40MOL0    Cl 5192   1.981   7.594   7.969 -0.5034  0.1159 -0.1211
   40MOL0     C 5193   2.826   7.230   8.201  0.5498  0.1030 -0.3332
   40MOL0     C 5194   2.938   7.201   8.129  0.2150  0.6129 -0.0716
   40MOL0     O 5195   3.085   7.304   7.880 -0.3649 -0.0953 -0.5644
   40MOL0     C 5196   3.296   7.024   7.813  0.0303 -0.2192 -0.5183
   40MOL0     C 5197   3.415   7.001   7.743 -0.0713 -0.2968  0.5063
   40MOL0     N 5198   4.138   7.276   7.188 -0.6383 -0.2977  0.1734
   40MOL0     N 5199   4.241   7.353   7.197  0.5541  0.2151  0.0389
   40MOL0     C 5200   5.092   7.780   6.744 -0.2108 -0.2248  0.2356
   40MOL0     C 5201   5.220   7.832   6.715 -0.8582 -1.1000 -0.1654
   40MOL0     C 5202   5.643   7.849   6.593 -0.6721 -0.6969  0.2823
   40MOL0     C 5203   5.712   7.805   6.479 -0.5682 -0.4788  0.3124
   40MOL0     C 5204   5.836   7.864   6.447 -0.2726 -1.1762  0.0561
   40MOL0     C 5205   5.906   7.950   6.532 -0.1392 -0.4151  0.0687
   40MOL0     O 5206   6.016   8.027   6.503  0.8093  0.3211 -0.0666
   40MOL0     C 5207   6.105   7.986   6.399 -0.1853  0.3875 -0.7300
   40MOL0     C 5208   6.229   8.075   6.415  0.2153  0.1803  0.1068
   40MOL0     C 5209   6.288   8.094   6.554  0.9797 -1.4628  0.3132
   40MOL0     C 5210   6.426   8.166   6.551 -0.2875  0.1570  0.3323
   40MOL0     C 5211   6.535   8.071   6.509  0.3283 -0.3475 -0.6154
   40MOL0     C 5212   6.611   7.992   6.454  0.3366  0.1877  0.1159
   40MOL0     C 5213   5.836   7.986   6.649  0.4279  0.4283 -0.1797
   40MOL0     C 5214   5.707   7.939   6.682  0.2819 -0.0391 -0.6354
   40MOL0     H 5215   5.396   7.617   6.922 -1.3145  0.7476  2.2382
   40MOL0     H 5216   5.168   7.530   6.951 -3.1206  0.1294 -0.5615
   40MOL0     H 5217   4.960   7.458   6.771 -0.1237 -0.4230  4.3249
   40MOL0     H 5218   4.881   7.601   6.677 -1.6531 -0.4637  0.7879
   40MOL0     H 5219   4.696   7.459   6.754  0.5495  0.5144 -0.8869
   40MOL0     H 5220   4.698   7.619   6.816 -0.7420 -0.5860 -0.0095
   40MOL0     H 5221   4.746   7.558   7.033 -0.4874 -1.4885  1.8335
   40MOL0     H 5222   4.836   7.416   6.991 -1.1111 -0.1677  0.3728
   40MOL0     H 5223   4.539   7.463   6.966 -0.4385 -0.7013  1.4657
   40MOL0     H 5224   4.611   7.307   6.908  0.8045 -0.5629  0.6036
   40MOL0     H 5225   4.683   7.265   7.144 -0.6440 -0.2988  3.1966
   40MOL0     H 5226   4.512   7.266   7.129 -0.3729 -1.1798 -1.4004
   40MOL0     H 5227   4.565   7.520   7.198  1.0573  0.4582 -0.0394
   40MOL0     H 5228   4.714   7.451   7.257  0.1615  0.1258 -2.2234
   40MOL0     H 5229   4.564   7.274   7.370 -1.2169 -0.5025 -1.8884
   40MOL0     H 5230   4.596   7.422   7.451  0.9464 -1.4921 -0.2453
   40MOL0     H 5231   4.389   7.535   7.350 -2.8895  0.1295  1.2236
   40MOL0     H 5232   4.384   7.441   7.494 -2.3885  2.2490 -1.1576
   40MOL0     H 5233   4.212   7.263   7.516 -1.5449 -0.8202  0.9402
   40MOL0     H 5234   4.062   7.063   7.428  2.1158  2.9827  0.8334
   40MOL0     H 5235   3.981   7.051   7.270 -2.3811 -0.1897  0.5538
   40MOL0     H 5236   3.827   7.238   7.326  0.0363  2.3322  0.4208
   40MOL0     H 5237   3.915   7.274   7.477 -0.1830 -1.9041  2.2328
   40MOL0     H 5238   3.780   7.002   7.419  1.1523  0.6371 -1.5741
   40MOL0     H 5239   3.861   7.059   7.569  1.2925 -2.2085 -1.1538
   40MOL0     H 5240   3.608   7.182   7.444 -0.7903 -0.0920  0.1061
   40MOL0     H 5241   3.685   7.233   7.605  1.3072 -0.0163 -0.1032
   40MOL0     H 5242   3.458   7.303   7.588  0.7774 -1.0189 -1.7958
   40MOL0     H 5243   3.245   7.343   7.702 -1.7990  0.1482  0.9180
   40MOL0     H 5244   2.842   6.928   7.957  2.3974 -0.3887  1.5850
   40MOL0     H 5245   2.640   6.968   8.086 -0.6001  0.8666 -2.4164
   40MOL0     H 5246   2.488   7.021   8.252 -2.5452  0.2222  0.8200
   40MOL0     H 5247   2.456   7.133   8.124 -1.0178  0.4951  0.3236
   40MOL0     H 5248   2.421   7.188   8.429 -0.9462 -0.1822 -0.5149
   40MOL0     H 5249   2.287   7.150   8.315 -0.7860  0.4417  3.1075
   40MOL0     H 5250   2.326   7.356   8.192 -2.0653 -3.5988  0.0738
   40MOL0     H 5251   2.471   7.394   8.288 -1.0358 -0.5817 -0.0811
   40MOL0     H 5252   2.232   7.366   8.451 -1.7958 -0.3426 -2.0131
   40MOL0     H 5253   2.381   7.463   8.459  1.3388 -2.3591  0.6424
   40MOL0     H 5254   2.302   7.611   8.283  1.7296 -0.9987  2.1676
   40MOL0     H 5255   2.193   7.600   8.422 -1.6199 -0.7819 -0.4146
   40MOL0     H 5256   2.050   7.430   8.292 -0.9470  0.8787  0.4975
   40MOL0     H 5257   2.141   7.480   8.151  0.6893 -1.8450  0.8250
   40MOL0     H 5258   1.966   7.664   8.330 -0.5797 -0.3283 -0.2992
   40MOL0     H 5259   2.088   7.727   8.222 -2.8334  2.1253  0.5831
   40MOL0     H 5260   1.877   7.753   8.125  0.2800  1.2223 -0.2047
   40MOL0     H 5261   1.825   7.597   8.164  0.3499  0.8874  1.0418
   40MOL0     H 5262   2.828   7.316   8.268  1.2039 -1.3155  1.5421
   40MOL0     H 5263   3.024   7.266   8.138  1.6248 -1.1032 -0.6538
   40MOL0     H 5264   3.243   6.951   7.874 -1.2253  0.5930 -0.6030
   40MOL0     H 5265   3.468   6.907   7.747  1.3631  0.5067  1.2737
   40MOL0     H 5266   5.002   7.818   6.697  0.0720 -0.9010 -0.8862
   40MOL0     H 5267   5.252   7.913   6.651  0.7970  0.4624  2.4593
   40MOL0     H 5268   5.675   7.742   6.399 -1.4979  0.8752 -0.3667
   40MOL0     H 5269   5.892   7.836   6.358  0.8279 -0.3757  0.4734
   40MOL0     H 5270   6.066   7.985   6.297 -0.9929 -0.4144 -0.4320
   40MOL0     H 5271   6.135   7.881   6.410 -0.5337  0.1649 -1.7708
   40MOL0     H 5272   6.309   8.042   6.347 -1.6755 -5.3730  0.0782
   40MOL0     H 5273   6.203   8.178   6.391  0.8043 -0.1553 -2.2266
   40MOL0     H 5274   6.295   7.992   6.592  3.2248 -1.3872  0.2528
   40MOL0     H 5275   6.214   8.144   6.617  1.9977 -3.2063  3.0581
   40MOL0     H 5276   6.426   8.256   6.489  2.8594  0.2992  0.3843
   40MOL0     H 5277   6.446   8.206   6.651 -0.6551  0.2972  0.3514
   40MOL0     H 5278   6.675   7.925   6.401  1.4300  2.3138 -1.4074
   40MOL0     H 5279   5.878   8.061   6.716  1.5152  2.5078 -2.9889
   40MOL0     H 5280   5.664   7.966   6.777  1.4977 -1.2936  0.3072
   41MOL0     O 5281   8.339   7.260   6.782 -0.2968  0.2323  0.2650
   41MOL0     C 5282   8.393   7.247   6.891  0.8253 -0.0152 -0.5031
   41MOL0     O 5283   8.329   7.215   7.008  0.3521 -0.0614 -0.8725
   41MOL0     C 5284   8.192   7.189   7.019  0.3753  0.2288 -0.5273
   41MOL0     C 5285   8.147   7.161   7.143  0.2013  0.2236 -0.2424
   41MOL0     C 5286   8.013   7.172   7.182 -0.0147 -0.5812  0.1334
   41MOL0     C 5287   7.916   7.203   7.084 -0.3280  0.6726 -0.0241
   41MOL0     O 5288   7.783   7.210   7.120  0.1316 -0.3418  1.0423
   41MOL0     C 5289   7.711   7.094   7.082 -0.0001 -0.1858  1.0110
   41MOL0     C 5290   7.575   7.098   7.160 -0.0936 -0.6563  0.4354
   41MOL0     C 5291   7.490   6.987   7.112  0.4848  0.2442  0.0751
   41MOL0     C 5292   7.363   6.969   7.198 -0.0556 -0.8569  0.1632
   41MOL0     C 5293   7.296   6.833   7.168  0.7353 -0.1314  0.0690
   41MOL0     C 5294   7.151   6.825   7.221  0.3394 -1.3576 -0.0888
   41MOL0     C 5295   7.103   6.674   7.233 -0.1105 -0.1414  0.2494
   41MOL0     C 5296   6.956   6.678   7.259 -0.0877  0.3987  1.4151
   41MOL0     N 5297   6.888   6.550   7.255 -0.9464 -0.3058  0.0655
   41MOL0     C 5298   6.767   6.526   7.193 -0.7721  0.2705 -0.3895
   41MOL0     C 5299   6.749   6.390   7.208 -0.2786  0.0839 -0.4894
   41MOL0     C 5300   6.636   6.317   7.142 -0.5064 -0.7831  0.3909
   41MOL0     C 5301   6.645   6.163   7.145 -0.3138 -0.0362 -0.3335
   41MOL0     C 5302   6.631   6.101   7.291  0.3137  0.2989 -0.0367
   41MOL0     C 5303   6.500   6.127   7.364  0.0711 -0.1366  0.0470
   41MOL0     O 5304   6.382   6.128   7.285  0.0050 -0.6031 -0.0186
   41MOL0     C 5305   6.325   6.017   7.227 -0.4888 -0.1048  0.3281
   41MOL0     C 5306   6.383   5.890   7.241 -0.5987 -0.3702 -0.6446
   41MOL0     C 5307   6.329   5.779   7.172  0.8941 -0.2428  0.1305
   41MOL0     C 5308   6.213   5.789   7.088  0.1653  0.0505  0.7727
   41MOL0     C 5309   6.169   5.678   7.004 -0.0767  0.1967  0.6303
   41MOL0     O 5310   6.243   5.560   7.012 -0.0938 -0.4114  0.4714
   41MOL0     C 5311   6.223   5.472   6.898 -0.1524 -0.4964  0.0018
   41MOL0     C 5312   6.108   5.390   6.881  0.2936 -0.2776 -0.6248
   41MOL0     C 5313   6.081   5.332   6.757 -1.0735  0.5727 -0.4331
   41MOL0     C 5314   6.179   5.349   6.653 -0.4299 -0.4884 -0.2205
   41MOL0     O 5315   6.160   5.278   6.537 -0.2570  0.0159 -0.0611
   41MOL0     C 5316   6.194   5.141   6.545  0.8322 -0.2427 -0.5879
   41MOL0     C 5317   6.092   5.055   6.466  0.1706  0.1869 -0.3373
   41MOL0     C 5318   5.951   5.078   6.523 -0.7958  0.6702 -0.7734
   41MOL0     C 5319   5.858   5.002   6.434  0.4436  0.0198 -0.7908
   41MOL0     C 5320   5.713   5.009   6.483  0.6951  0.2820  0.5032
   41MOL0     C 5321   5.613   4.960   6.373  0.1245  0.2242 -1.4516
   41MOL0     C 5322   5.466   5.002   6.416  0.1091  0.0148 -0.3913
   41MOL0     C 5323   5.395   4.904   6.507 -0.1733 -0.4741 -0.9493
   41MOL0    Cl 5324   5.248   4.971   6.565 -0.0229  0.2378 -0.2296
   41MOL0     C 5325   6.300   5.406   6.679 -0.0096  0.2155  0.0832
   41MOL0     C 5326   6.325   5.471   6.799 -0.3773  0.3746  0.0534
   41MOL0     O 5327   6.068   5.695   6.938 -0.0019 -0.3763 -0.1261
   41MOL0     C 5328   6.143   5.917   7.089  0.2141  0.4080  0.0659
   41MOL0     C 5329   6.204   6.024   7.163  0.8647  0.0463 -0.0826
   41MOL0     N 5330   6.852   6.339   7.286 -0.4194  0.1038 -0.0756
   41MOL0     N 5331   6.935   6.436   7.319 -0.3255 -0.4851 -0.0924
   41MOL0     C 5332   7.955   7.216   6.950 -0.0836  0.2316 -0.3118
   41MOL0     C 5333   8.094   7.212   6.919 -0.2846 -1.0448 -0.6514
   41MOL0     C 5334   8.544   7.260   6.895  0.3534 -0.9840 -0.5271
   41MOL0     C 5335   8.620   7.325   6.797 -0.4677 -0.4149 -0.7386
   41MOL0     C 5336   8.759   7.326   6.797  0.6886 -0.9382 -0.4319
   41MOL0     C 5337   8.835   7.277   6.900 -0.5221 -0.3508 -0.3855
   41MOL0     O 5338   8.971   7.283   6.876  0.1326 -0.1022 -0.0208
   41MOL0     C 5339   9.067   7.238   6.979  0.5615  0.6512  0.2940
   41MOL0     C 5340   9.101   7.093   6.982 -0.1661  0.4437 -0.6136
   41MOL0     C 5341   9.255   7.083   7.022  0.5907 -0.1877  0.1800
   41MOL0     C 5342   9.303   6.940   7.031 -0.0010 -1.1903  0.9544
   41MOL0     C 5343   9.445   6.924   7.061 -0.0238 -0.3872  0.5458
   41MOL0     C 5344   9.562   6.944   7.097 -0.4911  0.4650 -0.8625
   41MOL0     C 5345   8.757   7.213   7.006  0.3977 -1.4814 -0.1150
   41MOL0     C 5346   8.617   7.219   7.010 -0.1052  0.0119  0.4427
   41MOL0     H 5347   8.223   7.134   7.217  0.9354 -2.7924 -1.9069
   41MOL0     H 5348   7.983   7.159   7.285 -1.6790 -1.6357 -0.4576
   41MOL0     H 5349   7.760   6.998   7.102  1.7404  0.3704 -0.2614
   41MOL0     H 5350   7.695   7.103   6.974 -1.5802  2.5145  1.3859
   41MOL0     H 5351   7.525   7.195   7.152  1.2032  0.0690  0.8242
   41MOL0     H 5352   7.606   7.083   7.264  0.7138 -4.4033 -0.1779
   41MOL0     H 5353   7.556   6.901   7.108 -0.5903 -0.6658  1.1714
   41MOL0     H 5354   7.460   7.002   7.007  0.5479 -0.6055 -0.0696
   41MOL0     H 5355   7.397   6.970   7.302 -1.7543 -2.8283  0.8115
   41MOL0     H 5356   7.290   7.050   7.194  0.3559 -0.4635  0.5947
   41MOL0     H 5357   7.359   6.756   7.213 -0.5117 -1.7783 -0.9147
   41MOL0     H 5358   7.292   6.822   7.059 -0.6060  1.5208 -0.0999
   41MOL0     H 5359   7.087   6.885   7.157  1.2968 -1.5664 -1.2885
   41MOL0     H 5360   7.147   6.882   7.314  1.8835  1.6237 -1.6814
   41MOL0     H 5361   7.124   6.614   7.143  1.6027  0.1258  0.4409
   41MOL0     H 5362   7.159   6.632   7.317  1.8044  2.6057  0.4592
   41MOL0     H 5363   6.905   6.735   7.181  1.6857 -1.4072 -1.2585
   41MOL0     H 5364   6.941   6.726   7.356  1.1919  2.3359  0.7386
   41MOL0     H 5365   6.702   6.596   7.142 -0.0462 -0.5746 -2.5912
   41MOL0     H 5366   6.625   6.340   7.036 -0.8708  1.1733  0.8131
   41MOL0     H 5367   6.542   6.352   7.186 -0.0701 -1.2349  1.7143
   41MOL0     H 5368   6.738   6.128   7.099  0.4052  1.7610 -0.3290
   41MOL0     H 5369   6.569   6.121   7.078  1.1643  0.1915 -2.2336
   41MOL0     H 5370   6.654   5.995   7.279  1.6031  0.7787 -2.3440
   41MOL0     H 5371   6.712   6.132   7.358  1.0269 -1.5329  0.0158
   41MOL0     H 5372   6.500   6.227   7.408 -2.4412 -0.6136  1.2722
   41MOL0     H 5373   6.489   6.053   7.444 -2.9206 -0.9709 -1.0024
   41MOL0     H 5374   6.464   5.885   7.313  0.4242  0.4686 -1.6890
   41MOL0     H 5375   6.376   5.684   7.194  1.2558  0.0651  0.7166
   41MOL0     H 5376   6.035   5.383   6.961  1.1022 -0.0613  0.1555
   41MOL0     H 5377   5.988   5.284   6.730 -1.1621  1.6502 -2.2020
   41MOL0     H 5378   6.187   5.120   6.652  1.1522  0.8281 -0.3532
   41MOL0     H 5379   6.292   5.134   6.499  1.1759  1.9484 -0.2833
   41MOL0     H 5380   6.121   4.949   6.474 -0.6251 -0.1857 -1.9594
   41MOL0     H 5381   6.096   5.084   6.361 -0.1339 -0.5171 -0.5506
   41MOL0     H 5382   5.928   5.184   6.513  0.5572  1.2230  1.3534
   41MOL0     H 5383   5.938   5.066   6.630 -2.0175  2.5654 -0.6740
   41MOL0     H 5384   5.866   5.040   6.332 -0.7803  0.0468 -0.9012
   41MOL0     H 5385   5.866   4.893   6.436 -0.8982 -0.1323 -1.9321
   41MOL0     H 5386   5.690   5.109   6.520 -0.4161 -0.0643  0.7632
   41MOL0     H 5387   5.697   4.958   6.578 -0.1973  2.8101  1.7974
   41MOL0     H 5388   5.617   4.852   6.357 -0.6765  0.1410 -1.1431
   41MOL0     H 5389   5.639   4.999   6.274 -3.9679  0.2061 -2.7558
   41MOL0     H 5390   5.476   5.104   6.453  3.6247 -0.1331 -0.5965
   41MOL0     H 5391   5.406   4.996   6.325 -0.2385 -0.0975 -0.1555
   41MOL0     H 5392   5.462   4.876   6.589  0.7553  3.3310 -0.2037
   41MOL0     H 5393   5.361   4.815   6.453  1.8528 -2.4316  0.8022
   41MOL0     H 5394   6.382   5.399   6.609  0.1931 -0.5802  0.3948
   41MOL0     H 5395   6.413   5.531   6.816 -0.4402 -0.0658  2.2083
   41MOL0     H 5396   6.045   5.943   7.051 -0.2686  0.8412  1.5831
   41MOL0     H 5397   6.156   6.121   7.162 -2.3796 -1.3849  0.9502
   41MOL0     H 5398   7.884   7.235   6.870 -1.8373  1.1956  1.3743
   41MOL0     H 5399   8.120   7.229   6.815  0.3742 -0.3506 -0.3809
   41MOL0     H 5400   8.577   7.370   6.707  0.3811  1.3293 -0.3145
   41MOL0     H 5401   8.799   7.380   6.711  0.5747  0.6460  0.4617
   41MOL0     H 5402   9.038   7.272   7.079 -0.2102  0.7135  0.0560
   41MOL0     H 5403   9.157   7.297   6.957  1.8739 -1.7597 -1.3044
   41MOL0     H 5404   9.045   7.051   7.066 -0.3967  0.8709 -0.5498
   41MOL0     H 5405   9.068   7.049   6.887 -0.0123  0.0157 -0.4727
   41MOL0     H 5406   9.273   7.141   7.113 -0.6067 -1.4750  1.2848
   41MOL0     H 5407   9.300   7.137   6.938 -1.0732  0.0358 -0.6191
   41MOL0     H 5408   9.249   6.892   7.114 -1.0577 -1.8435 -0.0724
   41MOL0     H 5409   9.279   6.898   6.933 -2.7445  0.2458  0.9142
   41MOL0     H 5410   9.651   6.967   7.152 -0.4563  1.7195 -1.4121
   41MOL0     H 5411   8.796   7.170   7.098  1.1046 -2.5106 -0.8789
   41MOL0     H 5412   8.565   7.176   7.095  0.3546 -1.6504 -0.0842
   42MOL0     O 5413   9.699   4.668   7.602  1.2485  0.8756  0.4323
   42MOL0     C 5414   9.709   4.757   7.688 -0.2787  0.4651  0.2814
   42MOL0     O 5415   9.626   4.860   7.712 -0.2617 -0.6160  0.1439
   42MOL0     C 5416   9.517   4.871   7.632  0.7133  0.8501 -0.5197
   42MOL0     C 5417   9.520   4.955   7.531  0.4206 -0.3317  0.2742
   42MOL0     C 5418   9.407   4.988   7.463  0.2227  0.5406 -0.1675
   42MOL0     C 5419   9.285   4.920   7.494 -1.3661 -0.1422  0.6515
   42MOL0     O 5420   9.169   4.962   7.426  0.0363 -0.3871  0.2549
   42MOL0     C 5421   9.055   4.884   7.430 -0.5166  0.8654  0.0730
   42MOL0     C 5422   8.959   4.927   7.307 -0.1519 -0.1001  0.1604
   42MOL0     C 5423   9.010   4.896   7.165 -0.3995  0.4128 -0.4546
   42MOL0     C 5424   8.933   4.981   7.060  1.3842 -0.3266 -0.4882
   42MOL0     C 5425   8.779   4.948   7.067  0.3268 -0.3084 -0.4184
   42MOL0     C 5426   8.696   4.973   6.942  0.4100 -0.2634 -0.1242
   42MOL0     C 5427   8.550   4.947   6.965 -0.7155 -0.2206 -0.0176
   42MOL0     C 5428   8.452   5.034   6.894  1.3232 -0.9570  0.1750
   42MOL0     N 5429   8.312   4.992   6.918 -0.0988  0.6610 -0.3833
   42MOL0     C 5430   8.256   4.989   7.044  0.3395 -1.0215 -0.3129
   42MOL0     C 5431   8.140   4.924   7.039  0.3680  0.4483  0.0979
   42MOL0     C 5432   8.038   4.897   7.135 -0.1082 -0.9472 -1.0614
   42MOL0     C 5433   7.959   5.029   7.178 -0.8326  1.2168  0.5060
   42MOL0     C 5434   7.899   5.095   7.056  0.3062 -0.2473 -0.0183
   42MOL0     C 5435   7.876   5.246   7.085 -0.4118  0.1119  0.0124
   42MOL0     O 5436   8.002   5.316   7.090  0.3426  0.2781  0.0303
   42MOL0     C 5437   8.000   5.453   7.076 -0.3355 -0.3958  0.0003
   42MOL0     C 5438   7.892   5.529   7.033  0.3997 -0.2069 -0.2204
   42MOL0     C 5439   7.902   5.667   7.017 -0.2114 -0.1815 -0.5518
   42MOL0     C 5440   8.023   5.740   7.039 -0.7281  0.5942  0.6784
   42MOL0     C 5441   8.044   5.889   7.011  0.3833 -0.6999 -0.4211
   42MOL0     O 5442   8.153   5.953   7.082  0.0978  0.2530  0.0199
   42MOL0     C 5443   8.159   6.085   7.083  0.2712 -0.6585 -0.8495
   42MOL0     C 5444   8.049   6.156   7.125  0.5480 -0.5606  0.0079
   42MOL0     C 5445   8.041   6.295   7.112  0.3403 -0.2162  0.3488
   42MOL0     C 5446   8.162   6.368   7.095  0.7897 -0.5698  0.1965
   42MOL0     O 5447   8.145   6.510   7.093 -0.8494 -0.4272 -0.5070
   42MOL0     C 5448   8.260   6.588   7.108 -0.4285 -0.1625 -0.2283
   42MOL0     C 5449   8.235   6.745   7.109  0.1439 -0.3837 -0.3212
   42MOL0     C 5450   8.177   6.803   7.235  0.7994  0.0527 -0.5992
   42MOL0     C 5451   8.038   6.749   7.260  0.1920 -0.5418  0.6709
   42MOL0     C 5452   7.950   6.838   7.345 -0.2288  0.2079 -0.8479
   42MOL0     C 5453   7.848   6.752   7.419  1.1454  0.1895 -0.0190
   42MOL0     C 5454   7.741   6.703   7.330  0.3732  0.7226  0.9514
   42MOL0     C 5455   7.647   6.595   7.381 -0.4401  0.5927 -0.6696
   42MOL0    Cl 5456   7.592   6.616   7.557  0.4737 -0.8653  0.3048
   42MOL0     C 5457   8.280   6.303   7.071  0.0786 -0.3480 -0.6591
   42MOL0     C 5458   8.278   6.165   7.058  0.0152  0.4220 -0.7015
   42MOL0     O 5459   7.960   5.946   6.941  0.0364  0.5466 -0.3837
   42MOL0     C 5460   8.130   5.661   7.086 -0.3466 -0.1470  1.3554
   42MOL0     C 5461   8.122   5.521   7.106 -0.4354 -0.9198 -0.2276
   42MOL0     N 5462   8.129   4.883   6.903  0.1506 -0.0764 -0.2706
   42MOL0     N 5463   8.234   4.910   6.839 -0.3039  0.5084  0.0467
   42MOL0     C 5464   9.280   4.840   7.609 -0.7437 -0.0122  0.2975
   42MOL0     C 5465   9.402   4.811   7.672  0.4417 -0.0208  0.3999
   42MOL0     C 5466   9.826   4.736   7.778  0.7515 -0.0402  0.2130
   42MOL0     C 5467   9.894   4.622   7.784  0.6103  0.6910  0.2080
   42MOL0     C 5468   9.990   4.602   7.877 -0.3893  0.3787 -0.6000
   42MOL0     C 5469  10.031   4.706   7.962  0.1107 -0.3491  0.2438
   42MOL0     O 5470  10.131   4.707   8.053  0.6301 -0.1541  0.4897
   42MOL0     C 5471  10.238   4.616   8.038 -0.3344 -0.3577  0.0910
   42MOL0     C 5472  10.330   4.620   8.157  0.6797 -0.3980  0.2821
   42MOL0     C 5473  10.400   4.754   8.194  0.3844 -0.8530  0.4293
   42MOL0     C 5474  10.482   4.810   8.073 -0.2663  0.7617 -0.7944
   42MOL0     C 5475  10.565   4.924   8.128 -0.0916  0.2761  0.3295
   42MOL0     C 5476  10.628   5.020   8.171  0.9143  0.6283 -0.1933
   42MOL0     C 5477   9.955   4.824   7.954 -0.1019  0.3913  0.0264
   42MOL0     C 5478   9.845   4.840   7.875  0.0006  0.3072  0.0025
   42MOL0     H 5479   9.619   4.992   7.506  0.6057  1.0767  2.7444
   42MOL0     H 5480   9.412   5.064   7.385  2.5434  1.2296  0.5624
   42MOL0     H 5481   9.011   4.881   7.530  2.1308 -0.5070  1.2966
   42MOL0     H 5482   9.094   4.782   7.421  2.4907  2.1082 -3.1489
   42MOL0     H 5483   8.926   5.031   7.314  0.1671 -0.0631  1.3967
   42MOL0     H 5484   8.862   4.881   7.323  0.3137 -1.0174  0.4011
   42MOL0     H 5485   9.004   4.790   7.140  1.6906  0.4393 -1.2335
   42MOL0     H 5486   9.115   4.926   7.162 -0.4313  1.0332  2.0894
   42MOL0     H 5487   8.945   5.089   7.076 -1.3000 -0.0721  0.2942
   42MOL0     H 5488   8.979   4.946   6.967  0.6115  2.0645 -1.8712
   42MOL0     H 5489   8.735   5.008   7.148 -1.9066  1.0943 -2.5294
   42MOL0     H 5490   8.760   4.842   7.086 -0.0431 -0.7618 -2.9741
   42MOL0     H 5491   8.738   4.907   6.866  2.8457 -0.6137  1.4196
   42MOL0     H 5492   8.707   5.075   6.905 -4.5748  1.1495  1.4906
   42MOL0     H 5493   8.532   4.843   6.936  1.6008 -0.3219 -1.3495
   42MOL0     H 5494   8.526   4.959   7.071 -0.3916 -0.6079  0.1051
   42MOL0     H 5495   8.463   5.032   6.785 -1.2627 -3.4612 -0.1576
   42MOL0     H 5496   8.465   5.134   6.938  1.6693 -1.7895  2.0713
   42MOL0     H 5497   8.300   5.049   7.123  0.1347  0.4520 -1.2970
   42MOL0     H 5498   8.081   4.840   7.218 -0.1471 -1.4134 -1.3590
   42MOL0     H 5499   7.967   4.830   7.085 -0.7067 -0.3498 -1.0196
   42MOL0     H 5500   8.024   5.107   7.219  0.3663 -0.0696  1.1466
   42MOL0     H 5501   7.881   5.001   7.250 -1.6727 -3.9148 -1.8792
   42MOL0     H 5502   7.947   5.079   6.960  1.6512 -1.5565  0.8278
   42MOL0     H 5503   7.798   5.057   7.040 -0.0225  0.1998  0.9097
   42MOL0     H 5504   7.826   5.266   7.181  0.9492  3.9043  0.1019
   42MOL0     H 5505   7.815   5.287   7.004 -1.1770 -3.7320 -1.5230
   42MOL0     H 5506   7.792   5.500   7.004 -0.4528  1.6521  0.6981
   42MOL0     H 5507   7.814   5.724   6.990  0.0504  1.4025  1.6690
   42MOL0     H 5508   7.962   6.097   7.153  0.5293 -0.2070  0.7123
   42MOL0     H 5509   7.949   6.351   7.121  0.1386 -0.6128  0.7722
   42MOL0     H 5510   8.332   6.572   7.028 -0.1505 -1.5359  0.2709
   42MOL0     H 5511   8.303   6.567   7.207 -0.0041 -0.6817 -0.5207
   42MOL0     H 5512   8.154   6.766   7.038 -0.4542 -1.6405 -0.0393
   42MOL0     H 5513   8.328   6.796   7.082  0.7291 -0.8188  0.8239
   42MOL0     H 5514   8.177   6.913   7.235  0.5498  0.0651 -1.5212
   42MOL0     H 5515   8.248   6.776   7.314 -0.7444 -3.3471 -0.2214
   42MOL0     H 5516   7.989   6.746   7.163  1.8689  2.1993 -0.3700
   42MOL0     H 5517   8.057   6.646   7.294  0.5333 -2.1067 -3.6465
   42MOL0     H 5518   7.896   6.919   7.296 -2.6538  0.3277  1.7805
   42MOL0     H 5519   8.008   6.896   7.418  2.1547 -1.4458 -1.3067
   42MOL0     H 5520   7.802   6.815   7.495 -0.5559 -0.8381 -0.1570
   42MOL0     H 5521   7.899   6.672   7.473  0.9512 -1.1321 -1.6906
   42MOL0     H 5522   7.670   6.782   7.307 -1.1036 -0.6789  0.5595
   42MOL0     H 5523   7.788   6.682   7.234  1.9552  2.4842  1.2675
   42MOL0     H 5524   7.689   6.495   7.364  0.2669  0.8307 -0.3449
   42MOL0     H 5525   7.553   6.600   7.324  0.9873 -1.3302 -3.4058
   42MOL0     H 5526   8.376   6.349   7.053  1.7221 -3.6063 -1.0333
   42MOL0     H 5527   8.368   6.110   7.029 -0.7368 -0.9111 -0.5898
   42MOL0     H 5528   8.223   5.707   7.118  0.0742 -1.8004  2.6652
   42MOL0     H 5529   8.200   5.456   7.144  0.7289  0.2506 -0.5621
   42MOL0     H 5530   9.181   4.805   7.639 -3.0843  4.5056 -1.1940
   42MOL0     H 5531   9.419   4.745   7.756  0.9495  1.5269  1.5668
   42MOL0     H 5532   9.878   4.538   7.717  0.8836  1.8247 -1.3360
   42MOL0     H 5533  10.048   4.511   7.866  0.2399  0.9780 -2.6108
   42MOL0     H 5534  10.287   4.648   7.946  0.2396  1.5651  1.0046
   42MOL0     H 5535  10.202   4.514   8.020  1.3318 -0.7961 -0.9945
   42MOL0     H 5536  10.273   4.580   8.241  1.6217 -1.6903  0.3312
   42MOL0     H 5537  10.415   4.552   8.143 -0.4986 -1.9160  0.2945
   42MOL0     H 5538  10.480   4.737   8.267  1.3236  2.2948  0.2545
   42MOL0     H 5539  10.328   4.816   8.248  0.0836 -1.9979  1.4005
   42MOL0     H 5540  10.562   4.739   8.050 -0.3289  0.0569  1.0077
   42MOL0     H 5541  10.423   4.834   7.985 -0.2670 -0.3071 -1.0889
   42MOL0     H 5542  10.695   5.103   8.185  1.5009  0.6748 -2.8219
   42MOL0     H 5543   9.977   4.912   8.013  0.3191 -0.2546  0.8543
   42MOL0     H 5544   9.775   4.920   7.896  0.9523  0.8049  1.4054
   43MOL0     O 5545   1.404  11.165   0.491 -0.9043 -0.4131  0.0898
   43MOL0     C 5546   1.470  11.092   0.425  0.8005  0.1956  0.0729
   43MOL0     O 5547   1.415  10.979   0.357 -0.6135 -0.0162 -0.0192
   43MOL0     C 5548   1.282  10.978   0.337  0.3661  0.0107 -0.1873
   43MOL0     C 5549   1.215  10.864   0.382  0.1298 -0.1403 -0.4894
   43MOL0     C 5550   1.075  10.853   0.378 -0.5273 -0.0352  0.3035
   43MOL0     C 5551   0.999  10.949   0.324 -0.9819  0.8129  0.4435
   43MOL0     O 5552   0.864  10.932   0.310  0.4020  0.0524  0.3482
   43MOL0     C 5553   0.804  10.839   0.399  0.0551 -0.9672 -1.1245
   43MOL0     C 5554   0.651  10.867   0.404 -0.0496 -0.4067  0.1247
   43MOL0     C 5555   0.570  10.796   0.296 -0.4513  0.3971 -0.0977
   43MOL0     C 5556   0.416  10.818   0.302  0.2783 -0.2593  0.5131
   43MOL0     C 5557   0.348  10.759   0.182 -0.1579 -0.3332 -0.2233
   43MOL0     C 5558   0.199  10.793   0.188 -0.0157 -0.8125  0.1003
   43MOL0     C 5559   0.124  10.762   0.060 -0.0641 -0.0464 -0.0046
   43MOL0     C 5560  -0.015  10.824   0.045 -0.5338 -0.1304  0.5017
   43MOL0     N 5561  -0.109  10.727   0.102 -0.1267  0.3744 -1.3987
   43MOL0     C 5562  -0.135  10.606   0.042  0.5948  0.5289 -0.3103
   43MOL0     C 5563  -0.252  10.564   0.099  1.5485  0.6577 -0.4151
   43MOL0     C 5564  -0.322  10.431   0.054  0.9224 -0.2522  0.7562
   43MOL0     C 5565  -0.376  10.446  -0.094  0.3895  0.9776  0.3429
   43MOL0     C 5566  -0.446  10.577  -0.134 -0.1740  0.8190  0.0723
   43MOL0     C 5567  -0.596  10.573  -0.082 -0.1176  0.4878  0.5011
   43MOL0     O 5568  -0.685  10.485  -0.156 -0.9757 -0.2141  0.0259
   43MOL0     C 5569  -0.739  10.527  -0.270 -0.0698  0.3268  0.0682
   43MOL0     C 5570  -0.834  10.447  -0.331  0.0316 -0.0350  0.2280
   43MOL0     C 5571  -0.894  10.492  -0.451  0.2451  0.4800 -0.5271
   43MOL0     C 5572  -0.862  10.619  -0.510 -0.6930  0.3989  0.6498
   43MOL0     C 5573  -0.913  10.664  -0.641 -0.0058  0.5557 -0.6887
   43MOL0     O 5574  -0.930  10.799  -0.638  0.4881 -0.0868  0.2638
   43MOL0     C 5575  -1.005  10.859  -0.739 -0.3652 -0.0769 -0.7237
   43MOL0     C 5576  -0.996  10.831  -0.874 -0.7269 -0.1453 -0.0097
   43MOL0     C 5577  -1.066  10.908  -0.964  0.6526  0.1959 -0.3519
   43MOL0     C 5578  -1.150  11.014  -0.920 -0.5526 -0.2192  0.2898
   43MOL0     O 5579  -1.223  11.081  -1.016  0.1272  0.0771  0.0538
   43MOL0     C 5580  -1.340  11.150  -0.982  0.1614 -0.3074 -0.5786
   43MOL0     C 5581  -1.425  11.171  -1.108  0.0319  0.1380 -0.1270
   43MOL0     C 5582  -1.573  11.210  -1.078  0.4912  0.2493  0.4461
   43MOL0     C 5583  -1.668  11.218  -1.198 -0.1706  0.4668 -0.9017
   43MOL0     C 5584  -1.814  11.250  -1.149 -0.3394 -0.0570  0.0681
   43MOL0     C 5585  -1.885  11.290  -1.277 -0.1643 -0.9392 -0.3582
   43MOL0     C 5586  -2.035  11.278  -1.254  0.0570 -0.5558  0.1304
   43MOL0     C 5587  -2.106  11.295  -1.388 -0.1795 -0.0432 -0.2715
   43MOL0    Cl 5588  -2.277  11.308  -1.354  0.1474 -0.8878 -0.1151
   43MOL0     C 5589  -1.163  11.037  -0.784  0.7067 -0.5095  1.9768
   43MOL0     C 5590  -1.093  10.962  -0.692  0.6403 -0.3893 -0.0900
   43MOL0     O 5591  -0.947  10.583  -0.721 -0.1057  0.0649  0.2032
   43MOL0     C 5592  -0.777  10.700  -0.441 -0.0012 -0.8055  0.8592
   43MOL0     C 5593  -0.722  10.655  -0.324  0.0326 -0.6608  0.1313
   43MOL0     N 5594  -0.305  10.653   0.182  0.3258  0.5586 -0.2746
   43MOL0     N 5595  -0.216  10.752   0.192  0.0062  0.0071  0.1325
   43MOL0     C 5596   1.062  11.066   0.274  0.8585  0.3908  0.1849
   43MOL0     C 5597   1.202  11.080   0.279  0.4727  0.2810 -0.2828
   43MOL0     C 5598   1.614  11.118   0.401  0.4906  0.0638  0.3913
   43MOL0     C 5599   1.659  11.246   0.417 -0.2478 -0.6888 -0.6395
   43MOL0     C 5600   1.794  11.277   0.412 -0.1852  0.4791  0.5609
   43MOL0     C 5601   1.885  11.183   0.366  0.5648  0.4229  0.1588
   43MOL0     O 5602   2.012  11.234   0.352  0.0375 -0.4604  0.2810
   43MOL0     C 5603   2.096  11.161   0.254  0.1569 -0.8832  0.6162
   43MOL0     C 5604   2.227  11.239   0.218  0.7980  0.3087  0.8023
   43MOL0     C 5605   2.334  11.137   0.160  0.5078  0.0379 -0.0880
   43MOL0     C 5606   2.467  11.214   0.146  0.5921 -0.5837 -0.9851
   43MOL0     C 5607   2.566  11.144   0.059 -0.4910  0.0075  0.8459
   43MOL0     C 5608   2.636  11.079  -0.013  0.2084  0.1269 -0.0985
   43MOL0     C 5609   1.831  11.058   0.331  0.0998  1.3698  0.3481
   43MOL0     C 5610   1.698  11.020   0.364 -0.1945  0.4009 -0.2416
   43MOL0     H 5611   1.266  10.774   0.413 -1.7458 -1.0308  0.1927
   43MOL0     H 5612   1.039  10.760   0.420 -1.2146  0.7031  1.4156
   43MOL0     H 5613   0.841  10.846   0.502 -1.4448  0.3569 -0.6242
   43MOL0     H 5614   0.821  10.735   0.368 -0.3129 -0.8247 -1.8291
   43MOL0     H 5615   0.638  10.975   0.393  1.3846 -0.0686  1.4029
   43MOL0     H 5616   0.625  10.837   0.506  1.3297  0.9703  0.9146
   43MOL0     H 5617   0.585  10.689   0.314  0.0947  0.1750 -1.7180
   43MOL0     H 5618   0.612  10.823   0.199 -0.1569 -1.7999 -0.6315
   43MOL0     H 5619   0.376  10.779   0.396 -1.5233  3.4774  1.4727
   43MOL0     H 5620   0.405  10.926   0.317  1.0831 -0.2623  1.1866
   43MOL0     H 5621   0.370  10.653   0.193 -1.7123 -0.6834 -0.2318
   43MOL0     H 5622   0.406  10.799   0.098  0.2333 -3.0146 -1.3275
   43MOL0     H 5623   0.206  10.901   0.201  2.4752 -0.4899 -2.7882
   43MOL0     H 5624   0.151  10.753   0.278  2.2990 -3.1735  0.4033
   43MOL0     H 5625   0.175  10.806  -0.026 -2.4255 -1.6437 -2.3491
   43MOL0     H 5626   0.113  10.654   0.043 -0.0301 -0.1301  0.4905
   43MOL0     H 5627  -0.030  10.854  -0.060 -0.2786  0.3936  0.6114
   43MOL0     H 5628  -0.027  10.917   0.101 -0.8251  0.3105 -0.2665
   43MOL0     H 5629  -0.087  10.554  -0.040  0.7006 -0.4982  0.3805
   43MOL0     H 5630  -0.407  10.397   0.114  0.8794 -1.1831  0.1898
   43MOL0     H 5631  -0.246  10.353   0.047 -0.8097 -2.0089  0.8574
   43MOL0     H 5632  -0.439  10.359  -0.113 -0.2508  1.2931  0.9532
   43MOL0     H 5633  -0.291  10.438  -0.162  2.4440 -0.2093  2.8499
   43MOL0     H 5634  -0.403  10.668  -0.094 -0.9840  0.7328  1.1919
   43MOL0     H 5635  -0.445  10.573  -0.244  1.6417 -2.3085  0.0903
   43MOL0     H 5636  -0.625  10.678  -0.080  1.3642  0.9375 -0.0405
   43MOL0     H 5637  -0.593  10.525   0.016  1.2127 -0.4783  0.0203
   43MOL0     H 5638  -0.869  10.360  -0.276  1.4506 -1.2111 -0.6642
   43MOL0     H 5639  -0.969  10.432  -0.501  2.0332 -0.2319 -2.5038
   43MOL0     H 5640  -0.925  10.754  -0.903 -0.0373 -0.2627  1.8630
   43MOL0     H 5641  -1.045  10.902  -1.070 -0.9402  1.5502 -0.7801
   43MOL0     H 5642  -1.311  11.244  -0.933  0.2393 -1.0721  0.8877
   43MOL0     H 5643  -1.400  11.089  -0.914 -1.3740 -0.9376 -2.4051
   43MOL0     H 5644  -1.436  11.078  -1.165  4.5254  1.5997 -4.0891
   43MOL0     H 5645  -1.393  11.245  -1.182 -1.0782  0.9951  0.2311
   43MOL0     H 5646  -1.562  11.306  -1.027 -1.4066  0.1703  1.0681
   43MOL0     H 5647  -1.614  11.138  -1.007 -1.8835 -0.7156 -1.7308
   43MOL0     H 5648  -1.627  11.286  -1.274 -3.9291  1.5935 -2.1447
   43MOL0     H 5649  -1.665  11.123  -1.253  2.3379  0.6340 -1.2155
   43MOL0     H 5650  -1.811  11.330  -1.075 -2.4583 -1.8459  2.2611
   43MOL0     H 5651  -1.856  11.165  -1.095 -1.0646  0.7650  0.8254
   43MOL0     H 5652  -1.843  11.236  -1.363  1.2346 -0.4830  0.0146
   43MOL0     H 5653  -1.876  11.395  -1.306 -2.0442 -1.1231 -1.8481
   43MOL0     H 5654  -2.058  11.179  -1.213 -2.4431  0.2187  0.7486
   43MOL0     H 5655  -2.075  11.359  -1.192 -1.1006 -1.9726  1.3033
   43MOL0     H 5656  -2.066  11.214  -1.449  2.3518 -0.3102  1.6143
   43MOL0     H 5657  -2.075  11.390  -1.434 -0.7305 -0.0825 -0.7415
   43MOL0     H 5658  -1.235  11.116  -0.762  0.4532  0.2224 -0.9614
   43MOL0     H 5659  -1.104  10.975  -0.585  0.0111 -0.8160 -0.0947
   43MOL0     H 5660  -0.746  10.796  -0.483  2.7696 -2.4459 -1.1459
   43MOL0     H 5661  -0.658  10.729  -0.276 -1.3369 -1.1868  2.9385
   43MOL0     H 5662   0.991  11.139   0.236 -0.2393  0.5372  2.3442
   43MOL0     H 5663   1.257  11.169   0.251  1.8406  0.3270  2.2414
   43MOL0     H 5664   1.593  11.328   0.445 -0.4947 -0.7963 -0.9034
   43MOL0     H 5665   1.836  11.377   0.421 -1.4426  0.9085  1.9359
   43MOL0     H 5666   2.041  11.152   0.159  0.2892 -1.1654  0.5647
   43MOL0     H 5667   2.120  11.060   0.287  2.1292 -1.4518 -2.1880
   43MOL0     H 5668   2.206  11.327   0.157  2.0172 -0.4353 -0.7468
   43MOL0     H 5669   2.269  11.273   0.313 -1.4518 -0.6460  2.2382
   43MOL0     H 5670   2.299  11.091   0.068 -0.0889 -0.2933  0.3012
   43MOL0     H 5671   2.345  11.058   0.235 -2.4626  0.9549  1.4632
   43MOL0     H 5672   2.443  11.314   0.106 -2.3656  0.5878  3.0814
   43MOL0     H 5673   2.508  11.231   0.246 -1.2592  1.7655 -0.5231
   43MOL0     H 5674   2.687  11.027  -0.091  1.2974  0.5681  0.2992
   43MOL0     H 5675   1.890  10.978   0.286 -0.0241  0.2032  2.1408
   43MOL0     H 5676   1.672  10.915   0.355  1.4559 -0.3119  2.1723
   44MOL0     O 5677   8.652   4.067   3.463 -0.2210 -0.4530  0.2263
   44MOL0     C 5678   8.666   4.186   3.493 -0.5348 -0.4986 -0.2934
   44MOL0     O 5679   8.573   4.276   3.494 -0.2010 -0.5821 -0.2575
   44MOL0     C 5680   8.451   4.239   3.458  0.2420 -0.1746 -0.1196
   44MOL0     C 5681   8.407   4.213   3.325 -0.7445  0.4709 -0.7386
   44MOL0     C 5682   8.284   4.171   3.305 -0.4020  0.2761  0.4128
   44MOL0     C 5683   8.197   4.139   3.416  0.3999 -0.5721  0.6210
   44MOL0     O 5684   8.072   4.088   3.404  0.3395  0.0271 -0.3187
   44MOL0     C 5685   8.047   4.003   3.289  0.0890  1.0066 -0.1589
   44MOL0     C 5686   7.900   3.957   3.293 -0.5481  0.2746  0.0126
   44MOL0     C 5687   7.839   3.893   3.165  0.8289 -0.2472 -0.9565
   44MOL0     C 5688   7.688   3.868   3.194  0.5448 -0.0383 -0.1182
   44MOL0     C 5689   7.611   3.767   3.107  0.1757  0.5282  0.0099
   44MOL0     C 5690   7.465   3.758   3.148 -0.0587  0.6501  0.1103
   44MOL0     C 5691   7.391   3.618   3.124  0.4823 -0.6464  0.3386
   44MOL0     C 5692   7.442   3.565   2.985  0.4952  0.0511  0.5491
   44MOL0     N 5693   7.357   3.466   2.923  0.3539  1.0720 -0.2780
   44MOL0     C 5694   7.312   3.465   2.793 -0.1684  0.3793 -0.1600
   44MOL0     C 5695   7.249   3.344   2.796  0.4546 -0.3263 -0.0519
   44MOL0     C 5696   7.181   3.285   2.673  0.3266  0.0924  0.3714
   44MOL0     C 5697   7.088   3.370   2.589 -0.4583  0.1828 -0.4819
   44MOL0     C 5698   7.018   3.299   2.481  0.4320  0.3068  0.4517
   44MOL0     C 5699   6.963   3.158   2.517 -0.6623 -0.5691  0.8770
   44MOL0     O 5700   6.878   3.121   2.404  0.3745 -0.2076  0.3705
   44MOL0     C 5701   6.739   3.143   2.402  0.1406 -0.1564 -0.8730
   44MOL0     C 5702   6.671   3.084   2.302  0.4425  0.2964 -0.4279
   44MOL0     C 5703   6.531   3.102   2.299 -0.4759  1.6214  0.5051
   44MOL0     C 5704   6.458   3.181   2.386  0.0126  0.6242  0.6737
   44MOL0     C 5705   6.323   3.204   2.367  0.4563 -0.4649  0.2776
   44MOL0     O 5706   6.251   3.260   2.473 -0.0302  0.4309  0.2090
   44MOL0     C 5707   6.116   3.287   2.444 -0.6149 -0.8289  0.2156
   44MOL0     C 5708   6.025   3.180   2.411 -0.3910  0.2819  0.8469
   44MOL0     C 5709   5.889   3.207   2.370  0.2975  0.6074  0.0455
   44MOL0     C 5710   5.838   3.336   2.364  0.5504  0.1005  0.6224
   44MOL0     O 5711   5.714   3.357   2.313 -0.2850 -0.1749  0.3608
   44MOL0     C 5712   5.637   3.475   2.333 -0.7675 -0.1687  0.0969
   44MOL0     C 5713   5.502   3.454   2.261 -1.2249  0.2805 -0.1093
   44MOL0     C 5714   5.405   3.577   2.284 -0.3253  0.1695  0.1734
   44MOL0     C 5715   5.289   3.548   2.192  1.2681 -0.2691 -0.1359
   44MOL0     C 5716   5.160   3.633   2.221 -0.0915  0.4676 -0.7854
   44MOL0     C 5717   5.043   3.609   2.119 -0.0703 -0.2525  0.1111
   44MOL0     C 5718   4.935   3.715   2.140  0.7458 -0.5151  0.6300
   44MOL0     C 5719   4.943   3.815   2.023  1.0521  0.0673  0.2329
   44MOL0    Cl 5720   4.822   3.942   2.053  0.4676 -0.0312 -0.1052
   44MOL0     C 5721   5.918   3.436   2.414  0.0177 -0.4210  0.2824
   44MOL0     C 5722   6.050   3.412   2.451 -0.5085  0.1389  0.4668
   44MOL0     O 5723   6.271   3.166   2.259 -0.6616 -0.5347 -0.3035
   44MOL0     C 5724   6.526   3.231   2.493 -1.0128 -0.1798 -0.1678
   44MOL0     C 5725   6.669   3.223   2.498 -0.1717  0.5756 -0.1406
   44MOL0     N 5726   7.263   3.276   2.910  0.1252 -0.0775  0.2054
   44MOL0     N 5727   7.327   3.354   2.994 -0.3145  0.3141  0.5454
   44MOL0     C 5728   8.244   4.167   3.544  0.0379  0.6453  0.8003
   44MOL0     C 5729   8.374   4.214   3.570  0.2211  0.5917  0.2110
   44MOL0     C 5730   8.795   4.238   3.524  0.0053  1.1142 -0.6569
   44MOL0     C 5731   8.910   4.146   3.535  0.2763  0.2536  0.0251
   44MOL0     C 5732   9.040   4.200   3.563 -0.1829 -0.3910 -0.0572
   44MOL0     C 5733   9.067   4.338   3.580 -0.3648  0.4377  0.1544
   44MOL0     O 5734   9.194   4.382   3.618 -0.4139 -0.2003  0.3555
   44MOL0     C 5735   9.303   4.309   3.561 -0.1534  0.5229 -1.1735
   44MOL0     C 5736   9.296   4.343   3.409 -0.2013 -0.2675  0.3480
   44MOL0     C 5737   9.445   4.344   3.364  0.5752 -0.0175 -0.0849
   44MOL0     C 5738   9.448   4.420   3.228  0.1007  0.1777 -0.4156
   44MOL0     C 5739   9.398   4.346   3.109 -0.4316 -0.5316  0.6484
   44MOL0     C 5740   9.345   4.297   3.012  0.3361  0.1211 -0.8671
   44MOL0     C 5741   8.961   4.429   3.572  0.4681  0.4860 -0.9426
   44MOL0     C 5742   8.832   4.378   3.536  0.2951 -0.1180 -0.6654
   44MOL0     H 5743   8.474   4.236   3.243  0.4083  1.6687  0.4860
   44MOL0     H 5744   8.249   4.174   3.203  0.4659 -3.3145 -0.1051
   44MOL0     H 5745   8.109   3.915   3.311 -2.2130 -0.5232  0.5179
   44MOL0     H 5746   8.067   4.035   3.186 -0.8286 -2.1078 -1.4466
   44MOL0     H 5747   7.843   4.049   3.309 -0.9722 -0.1363  0.8819
   44MOL0     H 5748   7.876   3.886   3.372  0.3518 -0.1474 -0.0768
   44MOL0     H 5749   7.884   3.794   3.152 -1.1187 -1.0160 -2.2531
   44MOL0     H 5750   7.859   3.954   3.076  1.2885  3.0711  1.2045
   44MOL0     H 5751   7.674   3.835   3.298 -0.1854  2.1439  0.5310
   44MOL0     H 5752   7.633   3.962   3.190 -2.2500 -1.5027  0.8116
   44MOL0     H 5753   7.646   3.666   3.131 -2.2733 -0.4305 -0.1530
   44MOL0     H 5754   7.632   3.786   3.001  3.0685 -1.8461  0.0485
   44MOL0     H 5755   7.421   3.838   3.087  0.8256  0.2732 -1.0515
   44MOL0     H 5756   7.454   3.786   3.253  2.5912 -2.4969  1.3753
   44MOL0     H 5757   7.411   3.550   3.207  1.8767  1.7119  2.0508
   44MOL0     H 5758   7.285   3.640   3.106  0.7281 -1.5661 -3.0429
   44MOL0     H 5759   7.538   3.519   3.012  0.5848  1.0167  1.9913
   44MOL0     H 5760   7.459   3.654   2.924 -1.4350  0.2840  0.2856
   44MOL0     H 5761   7.327   3.538   2.714  0.1636 -1.6416 -2.0642
   44MOL0     H 5762   7.118   3.207   2.717 -1.3275  1.6561  0.9274
   44MOL0     H 5763   7.272   3.256   2.620  1.9332  1.5957  2.1725
   44MOL0     H 5764   7.153   3.446   2.545  1.8888 -1.4165  0.0366
   44MOL0     H 5765   7.016   3.416   2.658  2.1939 -0.5506  3.1003
   44MOL0     H 5766   6.933   3.352   2.437  0.1871 -0.4036  0.0571
   44MOL0     H 5767   7.090   3.285   2.401  0.6420 -1.3451  0.9008
   44MOL0     H 5768   6.898   3.169   2.603 -1.7443  0.8525 -0.0731
   44MOL0     H 5769   7.034   3.077   2.539  0.6485  0.6128  1.1568
   44MOL0     H 5770   6.723   3.023   2.230 -1.7871 -1.8596 -0.3329
   44MOL0     H 5771   6.481   3.045   2.221 -1.0675  0.8381  1.4344
   44MOL0     H 5772   6.056   3.076   2.408 -4.3885 -1.0327 -2.1509
   44MOL0     H 5773   5.833   3.124   2.329 -1.4918  2.0696 -0.5776
   44MOL0     H 5774   5.690   3.567   2.307 -0.7649  0.4677  2.1305
   44MOL0     H 5775   5.613   3.473   2.440  2.0866  0.5676  0.8571
   44MOL0     H 5776   5.455   3.360   2.293  0.2832  0.3062  2.4465
   44MOL0     H 5777   5.525   3.442   2.155  1.9493 -2.1983  0.6908
   44MOL0     H 5778   5.460   3.667   2.255 -0.1293 -0.1930 -0.5863
   44MOL0     H 5779   5.370   3.586   2.388  1.8701 -1.6729  1.1529
   44MOL0     H 5780   5.318   3.573   2.090 -0.3270 -0.1543 -0.5782
   44MOL0     H 5781   5.264   3.442   2.201  0.7735 -0.2533 -1.1673
   44MOL0     H 5782   5.191   3.737   2.205  2.2803  0.1193  1.0299
   44MOL0     H 5783   5.122   3.623   2.323 -2.0232 -1.6038 -1.6053
   44MOL0     H 5784   4.996   3.512   2.135 -0.0186  0.0100  2.0614
   44MOL0     H 5785   5.078   3.627   2.017  2.2466  0.9285  1.0272
   44MOL0     H 5786   4.836   3.671   2.149 -0.3232  1.8742  1.4083
   44MOL0     H 5787   4.958   3.766   2.234 -0.2388  0.4974  0.3475
   44MOL0     H 5788   4.923   3.768   1.926  1.9975  2.2792 -1.1096
   44MOL0     H 5789   5.043   3.857   2.019  1.7794 -1.7052 -1.4832
   44MOL0     H 5790   5.880   3.538   2.418  1.7248  0.2378  2.7433
   44MOL0     H 5791   6.105   3.491   2.500 -2.8992  0.6941  2.4669
   44MOL0     H 5792   6.485   3.301   2.565  2.7220  3.2697 -1.0114
   44MOL0     H 5793   6.715   3.274   2.582 -0.8024 -1.5086  1.5391
   44MOL0     H 5794   8.167   4.155   3.619 -1.4048  1.7259 -0.4368
   44MOL0     H 5795   8.409   4.227   3.672 -1.2255 -2.2125  1.1891
   44MOL0     H 5796   8.890   4.041   3.518 -0.5405  0.5068 -0.6716
   44MOL0     H 5797   9.119   4.127   3.579  0.0856 -0.3812 -1.2777
   44MOL0     H 5798   9.307   4.202   3.583  0.8037  0.9467  0.9113
   44MOL0     H 5799   9.400   4.336   3.603 -0.1196  0.2457 -1.0718
   44MOL0     H 5800   9.251   4.254   3.365  0.4337 -1.5832  2.2263
   44MOL0     H 5801   9.232   4.431   3.393 -0.9912 -0.6300  1.3346
   44MOL0     H 5802   9.484   4.242   3.358 -1.3682 -0.7059 -2.0587
   44MOL0     H 5803   9.499   4.410   3.433 -0.5342  1.8746 -0.9524
   44MOL0     H 5804   9.388   4.511   3.240  1.3198  1.1559 -1.3593
   44MOL0     H 5805   9.556   4.431   3.213  0.2551 -0.0167  0.5238
   44MOL0     H 5806   9.294   4.249   2.931 -2.1142  1.7015 -0.3480
   44MOL0     H 5807   8.977   4.531   3.605  3.9092 -0.4819  0.8097
   44MOL0     H 5808   8.745   4.442   3.533 -0.6915 -1.2679  1.2137
   45MOL0     O 5809   3.875   9.175   8.748  0.0061 -0.3535  0.6754
   45MOL0     C 5810   3.856   9.264   8.664 -0.3151 -0.2517  0.2478
   45MOL0     O 5811   3.728   9.288   8.604 -0.4938 -0.1099  0.9432
   45MOL0     C 5812   3.619   9.203   8.630 -0.1079 -0.1626 -0.1145
   45MOL0     C 5813   3.623   9.077   8.596 -0.0858  0.1466  0.2402
   45MOL0     C 5814   3.514   8.988   8.627  0.1504 -0.3345  0.1018
   45MOL0     C 5815   3.397   9.034   8.695  0.6162  0.0407 -0.3372
   45MOL0     O 5816   3.287   8.962   8.715  0.0371  0.5509  0.0856
   45MOL0     C 5817   3.313   8.817   8.707 -0.1037  0.1719 -0.2890
   45MOL0     C 5818   3.192   8.736   8.754  0.0896 -0.0379 -0.0519
   45MOL0     C 5819   3.073   8.749   8.649 -0.5779  0.0604 -0.4289
   45MOL0     C 5820   2.943   8.680   8.704 -0.5090 -1.1032  0.2102
   45MOL0     C 5821   2.817   8.713   8.614  0.7645 -1.2776  0.0864
   45MOL0     C 5822   2.687   8.669   8.688 -0.0961  0.1684  0.2866
   45MOL0     C 5823   2.561   8.720   8.615  0.4216 -0.0197  0.7314
   45MOL0     C 5824   2.438   8.679   8.694  0.5028 -0.4961  0.0267
   45MOL0     N 5825   2.428   8.746   8.829  1.0752 -0.1805  0.6269
   45MOL0     C 5826   2.358   8.867   8.850 -0.1736 -0.2522 -0.3072
   45MOL0     C 5827   2.354   8.873   8.988 -0.6539  0.0151  0.7251
   45MOL0     C 5828   2.272   8.961   9.071 -0.3789 -0.3408  0.5585
   45MOL0     C 5829   2.353   9.045   9.167 -0.5384 -0.6579  0.4827
   45MOL0     C 5830   2.343   9.010   9.312  0.8498  0.1307 -0.2729
   45MOL0     C 5831   2.207   9.037   9.366 -0.8077  0.5804  0.5921
   45MOL0     O 5832   2.181   9.176   9.374  0.5238  0.5394  1.1794
   45MOL0     C 5833   2.047   9.200   9.384  0.4927 -1.4294  0.3035
   45MOL0     C 5834   1.964   9.141   9.483  1.3223  0.1947  0.2503
   45MOL0     C 5835   1.827   9.186   9.492  1.0626  0.4445 -0.0525
   45MOL0     C 5836   1.772   9.290   9.418  0.2352  0.6352  0.5868
   45MOL0     C 5837   1.630   9.345   9.450 -0.4332  0.6650 -0.2902
   45MOL0     O 5838   1.562   9.300   9.560 -0.1493  0.2214  0.8765
   45MOL0     C 5839   1.443   9.371   9.592 -0.2103 -0.2585 -0.0414
   45MOL0     C 5840   1.420   9.506   9.611 -0.6794 -0.1770  0.1853
   45MOL0     C 5841   1.297   9.555   9.650  0.5561  0.5725  0.0355
   45MOL0     C 5842   1.196   9.468   9.691 -0.6843  0.3250 -0.4863
   45MOL0     O 5843   1.074   9.506   9.735  0.3980 -0.1024 -0.2304
   45MOL0     C 5844   1.065   9.635   9.803 -1.1132  0.3329 -0.1852
   45MOL0     C 5845   0.919   9.672   9.840  0.7360 -0.2427 -0.8703
   45MOL0     C 5846   0.876   9.594   9.957  0.9676 -0.5535 -0.7165
   45MOL0     C 5847   0.730   9.601   9.990  0.7198 -0.2900  0.1924
   45MOL0     C 5848   0.692   9.730  10.068 -0.2884  0.0128  0.4702
   45MOL0     C 5849   0.541   9.747  10.086 -0.7172 -0.4200  0.5570
   45MOL0     C 5850   0.458   9.775   9.966  0.9595  0.2771  0.1003
   45MOL0     C 5851   0.313   9.802  10.010  0.2815 -0.1456 -0.5234
   45MOL0    Cl 5852   0.223   9.873   9.877 -0.0273  0.0549 -0.4035
   45MOL0     C 5853   1.218   9.332   9.681 -0.0726 -0.1793  0.1067
   45MOL0     C 5854   1.344   9.281   9.629  0.2889  0.3056  0.8382
   45MOL0     O 5855   1.602   9.440   9.385 -0.0417 -0.6093  0.2459
   45MOL0     C 5856   1.857   9.348   9.319 -0.0208  0.2516  0.4552
   45MOL0     C 5857   1.991   9.307   9.306 -0.8102 -0.1157  0.0788
   45MOL0     N 5858   2.427   8.770   9.040  0.0097 -0.3885 -0.6842
   45MOL0     N 5859   2.483   8.709   8.941  0.3030 -0.0198 -0.8078
   45MOL0     C 5860   3.386   9.175   8.716 -0.0702 -0.4266  0.3031
   45MOL0     C 5861   3.502   9.253   8.690  0.3798 -0.0994 -0.3902
   45MOL0     C 5862   3.964   9.358   8.630 -0.2864  0.4767 -0.5534
   45MOL0     C 5863   3.940   9.465   8.543  0.0942  0.1242  0.1970
   45MOL0     C 5864   4.046   9.528   8.485  0.1094  0.0734  0.2990
   45MOL0     C 5865   4.176   9.509   8.524 -0.5316  0.6882  0.8357
   45MOL0     O 5866   4.290   9.567   8.468 -0.1366 -0.1171 -0.6883
   45MOL0     C 5867   4.278   9.650   8.360 -0.4345 -0.7918 -0.5439
   45MOL0     C 5868   4.413   9.716   8.325 -0.0182  0.3257  0.3595
   45MOL0     C 5869   4.509   9.603   8.263  0.1611 -0.1991 -0.9403
   45MOL0     C 5870   4.598   9.525   8.372 -0.2476  0.2482  0.0460
   45MOL0     C 5871   4.667   9.615   8.471 -0.1485  0.6187 -0.1052
   45MOL0     C 5872   4.742   9.682   8.540 -0.5943  0.6572 -0.3105
   45MOL0     C 5873   4.196   9.413   8.623 -0.1503  0.2238 -0.3449
   45MOL0     C 5874   4.092   9.337   8.677  0.7542 -0.9028  0.2160
   45MOL0     H 5875   3.718   9.035   8.564  0.7792  0.8175  1.8109
   45MOL0     H 5876   3.523   8.886   8.593  1.1569 -0.1213 -0.3020
   45MOL0     H 5877   3.395   8.786   8.772  0.8523  0.2767 -1.4283
   45MOL0     H 5878   3.341   8.797   8.604 -0.7749  4.8635 -1.6283
   45MOL0     H 5879   3.162   8.777   8.851 -1.2310  1.8054 -1.1771
   45MOL0     H 5880   3.210   8.630   8.771 -0.3812  0.3420  3.8171
   45MOL0     H 5881   3.102   8.678   8.571 -1.0774 -2.8276  1.8410
   45MOL0     H 5882   3.053   8.852   8.620  0.9065  0.3047 -0.6480
   45MOL0     H 5883   2.958   8.572   8.717  1.5292 -0.8916 -0.1378
   45MOL0     H 5884   2.926   8.710   8.808  0.5503 -2.5151  0.8276
   45MOL0     H 5885   2.819   8.660   8.518  1.8870 -3.1223  1.0650
   45MOL0     H 5886   2.807   8.819   8.591  1.1528 -1.7507 -2.6343
   45MOL0     H 5887   2.684   8.719   8.785  3.1358  2.6657 -0.7312
   45MOL0     H 5888   2.694   8.564   8.717 -1.3433  0.1856  0.7245
   45MOL0     H 5889   2.550   8.827   8.597 -2.9995 -0.1937  1.0412
   45MOL0     H 5890   2.566   8.680   8.513  3.4300 -0.6243  1.0370
   45MOL0     H 5891   2.456   8.572   8.711 -2.2145 -1.0743 -0.2085
   45MOL0     H 5892   2.342   8.689   8.643 -0.8259 -2.4859  1.9219
   45MOL0     H 5893   2.293   8.917   8.779 -1.8553 -2.2516 -0.2767
   45MOL0     H 5894   2.179   8.922   9.111  0.5043  0.5131  3.6805
   45MOL0     H 5895   2.236   9.037   9.001 -1.4363 -0.1284  1.3063
   45MOL0     H 5896   2.321   9.148   9.147  0.4999 -0.8421 -2.7345
   45MOL0     H 5897   2.457   9.039   9.134 -0.4920  1.2876  0.1251
   45MOL0     H 5898   2.365   8.904   9.327 -0.1007 -0.1313 -0.6856
   45MOL0     H 5899   2.413   9.074   9.368 -0.2564  1.4387 -0.3444
   45MOL0     H 5900   2.209   8.991   9.465 -0.9152 -0.4175  0.1462
   45MOL0     H 5901   2.130   8.991   9.303 -0.1477 -1.1411  0.9982
   45MOL0     H 5902   2.010   9.076   9.556  0.6439 -0.1873  0.3512
   45MOL0     H 5903   1.771   9.143   9.574  0.4858 -0.0996 -0.7244
   45MOL0     H 5904   1.503   9.570   9.587 -0.0502 -1.4967 -1.3742
   45MOL0     H 5905   1.277   9.661   9.659 -0.1335  0.2534  3.5022
   45MOL0     H 5906   1.099   9.710   9.732 -0.6981  0.0603 -0.2740
   45MOL0     H 5907   1.140   9.637   9.882 -1.5249 -1.4774  0.2982
   45MOL0     H 5908   0.847   9.650   9.760 -0.9481  0.0413  0.5127
   45MOL0     H 5909   0.911   9.778   9.863 -0.5713 -0.5832  0.3653
   45MOL0     H 5910   0.926   9.623  10.050  3.3515 -0.4183 -1.9712
   45MOL0     H 5911   0.903   9.491   9.935 -3.0059 -2.2381  1.2824
   45MOL0     H 5912   0.663   9.590   9.905  1.0133 -0.9919  0.0477
   45MOL0     H 5913   0.704   9.519  10.057  0.7404 -1.4969 -1.2278
   45MOL0     H 5914   0.742   9.817  10.025 -1.4059 -0.0348 -1.0070
   45MOL0     H 5915   0.727   9.708  10.169 -0.4591  0.5581  0.6551
   45MOL0     H 5916   0.526   9.824  10.161  1.3252 -2.7750  3.6120
   45MOL0     H 5917   0.494   9.656  10.126  0.7748 -1.1648  0.6810
   45MOL0     H 5918   0.495   9.866   9.918  1.0378  1.0999  1.6594
   45MOL0     H 5919   0.458   9.694   9.893 -0.0692  1.9775 -1.9090
   45MOL0     H 5920   0.314   9.872  10.094  3.3334 -2.1072  1.2496
   45MOL0     H 5921   0.262   9.708  10.032  1.7301 -0.9328 -0.3939
   45MOL0     H 5922   1.132   9.272   9.708 -0.7546  0.6333 -0.2503
   45MOL0     H 5923   1.357   9.174   9.618 -0.5036  0.4364 -2.1108
   45MOL0     H 5924   1.811   9.421   9.253  3.3782  1.0103 -1.3030
   45MOL0     H 5925   2.042   9.360   9.226 -0.1959 -0.8851 -0.0587
   45MOL0     H 5926   3.291   9.209   8.757  0.4440 -0.3887  1.5051
   45MOL0     H 5927   3.509   9.358   8.717 -2.4018  0.7927 -2.5942
   45MOL0     H 5928   3.844   9.486   8.497  0.4174 -0.2538 -0.6598
   45MOL0     H 5929   4.005   9.604   8.419 -2.1388  0.7063  2.2976
   45MOL0     H 5930   4.208   9.730   8.387  0.5432 -0.4085  0.9501
   45MOL0     H 5931   4.249   9.588   8.274  1.9015  1.9215 -3.5343
   45MOL0     H 5932   4.401   9.799   8.254  0.2959  1.2148  1.3263
   45MOL0     H 5933   4.449   9.765   8.416  0.9745 -1.9239  1.2374
   45MOL0     H 5934   4.568   9.652   8.186 -0.1367  1.8772  0.0700
   45MOL0     H 5935   4.451   9.525   8.213 -2.9371  0.3106  1.5228
   45MOL0     H 5936   4.531   9.454   8.422 -2.4285  0.8317 -1.9113
   45MOL0     H 5937   4.673   9.476   8.311 -1.6547 -1.1064 -0.6634
   45MOL0     H 5938   4.804   9.739   8.606 -2.3706  2.1069  0.1869
   45MOL0     H 5939   4.301   9.402   8.651 -0.5455  0.7447  1.4443
   45MOL0     H 5940   4.116   9.247   8.734 -0.4140 -0.8002  0.9054
   46MOL0     O 5941   2.104   7.951   8.377  0.2287 -0.0227 -0.7002
   46MOL0     C 5942   2.195   7.944   8.305 -0.0988  0.1811  0.9767
   46MOL0     O 5943   2.189   7.964   8.162 -1.1934  0.2694 -0.4520
   46MOL0     C 5944   2.075   8.006   8.098 -0.5358  0.5476 -0.0269
   46MOL0     C 5945   1.947   8.027   8.161 -0.1096 -0.2727  0.0123
   46MOL0     C 5946   1.840   8.072   8.083 -0.0290 -0.2003  0.4138
   46MOL0     C 5947   1.853   8.075   7.945 -0.4840 -0.1596  0.3276
   46MOL0     O 5948   1.748   8.104   7.854 -0.2174  0.3375 -0.7071
   46MOL0     C 5949   1.623   8.136   7.907 -0.0720 -0.2388  0.0091
   46MOL0     C 5950   1.534   8.178   7.790 -0.5338  0.2070  0.4056
   46MOL0     C 5951   1.383   8.202   7.833  0.4357 -0.1249  0.3653
   46MOL0     C 5952   1.308   8.251   7.706  0.1377 -0.5470  0.3943
   46MOL0     C 5953   1.164   8.296   7.741 -0.1139  0.6243  0.0967
   46MOL0     C 5954   1.096   8.339   7.613 -0.0697  0.4508 -0.0194
   46MOL0     C 5955   0.975   8.435   7.623 -0.1063 -0.6159 -0.0148
   46MOL0     C 5956   0.869   8.363   7.707  0.2453  0.8348 -0.1709
   46MOL0     N 5957   0.745   8.442   7.719  0.0301 -0.3988  0.6778
   46MOL0     C 5958   0.709   8.564   7.657 -0.3225  0.1697 -0.3716
   46MOL0     C 5959   0.586   8.584   7.705  0.0679 -0.3024 -0.2583
   46MOL0     C 5960   0.509   8.711   7.687 -0.1770 -0.6092 -0.5658
   46MOL0     C 5961   0.364   8.701   7.704  0.0708  0.6600 -0.3856
   46MOL0     C 5962   0.311   8.579   7.625 -0.1926  0.1273  0.4319
   46MOL0     C 5963   0.165   8.624   7.591  1.1173  0.4923  0.9333
   46MOL0     O 5964   0.091   8.661   7.704  0.4238 -1.5996 -0.4203
   46MOL0     C 5965  -0.048   8.695   7.690 -0.6416 -1.2488  0.1192
   46MOL0     C 5966  -0.117   8.702   7.568  0.1173 -0.4799 -0.1591
   46MOL0     C 5967  -0.255   8.727   7.576  0.7597 -0.3910 -0.0854
   46MOL0     C 5968  -0.321   8.756   7.697  0.1055  0.5207  0.2246
   46MOL0     C 5969  -0.469   8.792   7.698  0.3268  0.3974 -0.3868
   46MOL0     O 5970  -0.523   8.813   7.819  0.0731  0.7259  0.0214
   46MOL0     C 5971  -0.649   8.857   7.822  0.1358  0.4066 -0.1867
   46MOL0     C 5972  -0.756   8.786   7.886 -0.0548 -0.6054 -0.6172
   46MOL0     C 5973  -0.881   8.851   7.890  0.6155 -0.0687 -0.1917
   46MOL0     C 5974  -0.906   8.979   7.837  0.4092  0.0627 -0.4639
   46MOL0     O 5975  -1.041   9.017   7.841 -0.4187  0.3202  0.1066
   46MOL0     C 5976  -1.096   9.101   7.740 -0.2235  0.5913 -0.3804
   46MOL0     C 5977  -1.201   9.190   7.805  0.0347  0.2913 -0.0859
   46MOL0     C 5978  -1.138   9.305   7.888 -0.5069 -0.2320 -0.2014
   46MOL0     C 5979  -1.229   9.370   7.987  0.6426 -0.5214  0.3481
   46MOL0     C 5980  -1.156   9.464   8.079  0.7334 -0.9081  0.3566
   46MOL0     C 5981  -1.097   9.583   8.008 -0.0845  0.8030 -0.5996
   46MOL0     C 5982  -1.044   9.699   8.094  0.0961  0.5654  0.2239
   46MOL0     C 5983  -0.922   9.645   8.183  0.1287  0.7374 -0.3567
   46MOL0    Cl 5984  -0.807   9.766   8.223 -0.1594  0.3419 -0.0690
   46MOL0     C 5985  -0.804   9.056   7.787 -0.6963 -1.2681 -0.1786
   46MOL0     C 5986  -0.676   8.988   7.777 -0.8455  0.2350  0.1480
   46MOL0     O 5987  -0.523   8.811   7.592 -0.0017  0.3738 -0.2260
   46MOL0     C 5988  -0.245   8.754   7.815  0.4425 -0.0512  0.0670
   46MOL0     C 5989  -0.106   8.720   7.814  0.9771 -0.4395  0.1432
   46MOL0     N 5990   0.551   8.482   7.794  0.4231 -0.3345  0.9957
   46MOL0     N 5991   0.644   8.390   7.788  0.8691  0.8260  0.5965
   46MOL0     C 5992   1.974   8.036   7.883  0.0097 -1.5566  0.0886
   46MOL0     C 5993   2.085   8.004   7.961  0.5436  0.5639  0.5311
   46MOL0     C 5994   2.328   7.903   8.362  0.2101  0.5315 -0.0367
   46MOL0     C 5995   2.439   7.881   8.278  0.6922 -0.2906  0.2906
   46MOL0     C 5996   2.554   7.830   8.332  0.3319  0.2259  0.3815
   46MOL0     C 5997   2.574   7.801   8.473  0.3872 -0.0948  0.1427
   46MOL0     O 5998   2.690   7.756   8.534  0.2664 -0.1805  0.6372
   46MOL0     C 5999   2.796   7.726   8.446 -1.1397 -0.3913  0.4382
   46MOL0     C 6000   2.916   7.684   8.536  0.5880 -0.1254 -0.2420
   46MOL0     C 6001   2.928   7.767   8.665  0.1859 -0.4575 -0.4064
   46MOL0     C 6002   3.062   7.753   8.754  0.8506  0.9921  0.1491
   46MOL0     C 6003   3.179   7.836   8.695  0.3043 -0.0255 -0.1381
   46MOL0     C 6004   3.273   7.909   8.673  0.2130 -0.8840  0.1297
   46MOL0     C 6005   2.467   7.821   8.560  0.2374 -0.5647  0.0927
   46MOL0     C 6006   2.342   7.865   8.502  0.9391 -0.4552  0.6472
   46MOL0     H 6007   1.923   8.029   8.267 -1.4008 -2.7559 -0.1612
   46MOL0     H 6008   1.745   8.102   8.127 -0.1069  0.1233  0.0300
   46MOL0     H 6009   1.619   8.213   7.984 -3.7942  0.2730 -0.5258
   46MOL0     H 6010   1.577   8.042   7.939  0.3663 -0.1835  0.8191
   46MOL0     H 6011   1.543   8.100   7.713 -2.6162  1.0343 -0.7768
   46MOL0     H 6012   1.575   8.272   7.752 -0.3695 -0.5426 -1.4000
   46MOL0     H 6013   1.375   8.268   7.920 -0.3437 -0.4886  0.5762
   46MOL0     H 6014   1.335   8.110   7.869 -1.4183  1.3990  2.0296
   46MOL0     H 6015   1.357   8.331   7.651  1.8278 -0.4703  1.9243
   46MOL0     H 6016   1.299   8.173   7.630 -1.5592  1.3619 -1.5124
   46MOL0     H 6017   1.170   8.375   7.816  1.0111  0.6613 -0.0132
   46MOL0     H 6018   1.116   8.207   7.782  2.4598 -0.8172  0.1863
   46MOL0     H 6019   1.061   8.256   7.551 -1.1756  1.5871 -0.9863
   46MOL0     H 6020   1.174   8.383   7.551  1.2534 -0.8543  0.6653
   46MOL0     H 6021   0.991   8.536   7.662 -3.2577  0.3663 -0.9039
   46MOL0     H 6022   0.926   8.450   7.526 -2.9113  1.4032  1.5580
   46MOL0     H 6023   0.915   8.369   7.807 -0.3538  2.6576  0.0194
   46MOL0     H 6024   0.859   8.261   7.669  0.6626  1.2590 -1.4789
   46MOL0     H 6025   0.770   8.629   7.595 -0.8960  2.2687  1.1497
   46MOL0     H 6026   0.539   8.760   7.593  0.7637 -1.0361 -0.5006
   46MOL0     H 6027   0.547   8.783   7.760 -1.6061 -0.0787 -0.3160
   46MOL0     H 6028   0.305   8.790   7.679 -2.3153 -0.9892 -0.9981
   46MOL0     H 6029   0.339   8.681   7.809  2.4789 -0.5868 -0.0043
   46MOL0     H 6030   0.372   8.558   7.536  0.6671  0.0570  1.0333
   46MOL0     H 6031   0.309   8.487   7.684  3.5587 -1.5989 -1.6749
   46MOL0     H 6032   0.115   8.543   7.536 -0.2552  0.5363  2.0545
   46MOL0     H 6033   0.173   8.701   7.514  0.0266 -0.7464 -0.4961
   46MOL0     H 6034  -0.066   8.674   7.477 -1.8369 -0.5117 -1.2942
   46MOL0     H 6035  -0.307   8.724   7.481  0.5027  2.4551 -0.1361
   46MOL0     H 6036  -0.731   8.694   7.938  2.3650  0.8991  1.1102
   46MOL0     H 6037  -0.962   8.801   7.943  0.0881  1.1905  0.2470
   46MOL0     H 6038  -1.139   9.038   7.662 -0.3988 -0.9363  0.9096
   46MOL0     H 6039  -1.013   9.157   7.696  0.1295 -0.1699 -0.6932
   46MOL0     H 6040  -1.268   9.133   7.871 -1.8343  0.9965 -1.2962
   46MOL0     H 6041  -1.261   9.231   7.723  3.7312  0.7733 -2.8028
   46MOL0     H 6042  -1.099   9.383   7.822 -1.3001  1.6947  1.4834
   46MOL0     H 6043  -1.055   9.258   7.942  0.6834  1.6254 -0.3172
   46MOL0     H 6044  -1.312   9.421   7.938  1.7745  0.5078 -0.5713
   46MOL0     H 6045  -1.274   9.297   8.055  1.5453  0.1113  1.6819
   46MOL0     H 6046  -1.068   9.418   8.126  1.2012 -0.2531  0.1290
   46MOL0     H 6047  -1.225   9.489   8.160  1.1766  2.9444 -0.2727
   46MOL0     H 6048  -1.183   9.626   7.956 -1.0459 -1.5620 -1.0656
   46MOL0     H 6049  -1.022   9.560   7.932  0.9709  2.9501 -0.3087
   46MOL0     H 6050  -1.016   9.781   8.028 -1.3635  0.9610  0.0701
   46MOL0     H 6051  -1.122   9.735   8.161  1.0680  0.7021  1.3205
   46MOL0     H 6052  -0.881   9.565   8.122 -1.8468  0.6403 -1.6729
   46MOL0     H 6053  -0.962   9.608   8.277 -0.0440  0.2191 -0.6298
   46MOL0     H 6054  -0.808   9.158   7.750  0.6498 -0.7198  1.0743
   46MOL0     H 6055  -0.599   9.046   7.727 -0.5944 -0.8190 -0.7421
   46MOL0     H 6056  -0.278   8.760   7.918  0.5611  1.1191  0.0564
   46MOL0     H 6057  -0.043   8.723   7.902  0.7570  1.2299  0.2704
   46MOL0     H 6058   1.981   8.026   7.775  2.1052 -3.1086  0.3047
   46MOL0     H 6059   2.177   7.980   7.908  0.8620  1.6097  0.5810
   46MOL0     H 6060   2.446   7.909   8.174  1.0333  1.8594  0.8588
   46MOL0     H 6061   2.632   7.817   8.259  1.7166 -1.4612  2.0608
   46MOL0     H 6062   2.822   7.816   8.391 -3.7861 -0.0549 -0.3758
   46MOL0     H 6063   2.774   7.653   8.367 -1.1080  1.4271 -1.3224
   46MOL0     H 6064   2.891   7.580   8.558  0.5670  0.0352  0.5495
   46MOL0     H 6065   3.012   7.690   8.484 -0.5005 -0.3332 -2.3842
   46MOL0     H 6066   2.845   7.736   8.730 -2.0686  1.6947 -2.0680
   46MOL0     H 6067   2.928   7.874   8.645 -0.4692 -0.7823 -2.2902
   46MOL0     H 6068   3.049   7.774   8.860  3.4764  0.4641  0.6348
   46MOL0     H 6069   3.092   7.648   8.750 -1.9319 -0.0009  2.4074
   46MOL0     H 6070   3.364   7.962   8.653 -0.4143  0.0900 -0.2163
   46MOL0     H 6071   2.474   7.802   8.666  0.4087  2.7381  0.7702
   46MOL0     H 6072   2.260   7.890   8.568  1.3036 -0.4966  1.1209
   47MOL0     O 6073   9.338  10.394   7.126  0.3085 -0.6065 -0.2899
   47MOL0     C 6074   9.441  10.333   7.141 -0.3704 -0.5101 -0.6713
   47MOL0     O 6075   9.520  10.290   7.037  0.3205 -0.9915  0.4657
   47MOL0     C 6076   9.489  10.300   6.904 -0.0801  0.0398  1.2453
   47MOL0     C 6077   9.375  10.236   6.830 -0.5662 -0.4913  0.0158
   47MOL0     C 6078   9.357  10.238   6.690 -0.1287 -0.1637  0.0743
   47MOL0     C 6079   9.448  10.309   6.611 -0.7734 -0.1334  0.6286
   47MOL0     O 6080   9.434  10.309   6.477  0.3042 -0.2565 -0.0754
   47MOL0     C 6081   9.522  10.384   6.392  0.3634  0.3338  0.5130
   47MOL0     C 6082   9.492  10.537   6.388 -0.2686  0.2532 -0.7788
   47MOL0     C 6083   9.353  10.570   6.338  0.4917  1.0659  0.1588
   47MOL0     C 6084   9.341  10.723   6.309 -0.1782 -0.4458  0.8067
   47MOL0     C 6085   9.218  10.733   6.216 -0.1429  0.4831 -0.2001
   47MOL0     C 6086   9.154  10.874   6.229 -0.0873  0.3594  0.6766
   47MOL0     C 6087   9.022  10.894   6.147 -1.6583 -0.5351 -0.0005
   47MOL0     C 6088   8.945  11.009   6.191  0.7816 -0.2478  0.2015
   47MOL0     N 6089   8.810  11.021   6.121 -0.2021  1.1431  0.7346
   47MOL0     C 6090   8.720  11.112   6.168  0.4448 -0.0507  0.0751
   47MOL0     C 6091   8.618  11.112   6.078  0.9145  0.2092 -0.8137
   47MOL0     C 6092   8.500  11.208   6.078 -0.2733 -0.1526  0.0837
   47MOL0     C 6093   8.393  11.161   5.978 -0.1960 -0.2255  0.5831
   47MOL0     C 6094   8.268  11.248   5.976 -0.6097 -0.0162 -0.7018
   47MOL0     C 6095   8.175  11.203   6.085  0.3581 -0.4444  0.6481
   47MOL0     O 6096   8.058  11.285   6.088  0.4198  0.1843  0.6719
   47MOL0     C 6097   7.946  11.235   6.147 -0.2457  0.3908  0.5486
   47MOL0     C 6098   7.841  11.324   6.161  0.6260  0.8986 -0.1013
   47MOL0     C 6099   7.712  11.287   6.209 -0.4709  0.5986 -0.4592
   47MOL0     C 6100   7.690  11.153   6.243 -0.8144  1.3126  0.5036
   47MOL0     C 6101   7.554  11.108   6.295  0.6157  0.2788  0.2483
   47MOL0     O 6102   7.530  10.978   6.334 -0.3658 -0.1398  0.3286
   47MOL0     C 6103   7.399  10.940   6.358 -0.8164  0.4858 -0.4025
   47MOL0     C 6104   7.294  10.939   6.271 -0.0030 -0.0348 -0.6691
   47MOL0     C 6105   7.173  10.884   6.308  0.3538  0.5424  0.5635
   47MOL0     C 6106   7.155  10.838   6.443 -0.6977 -0.1371  0.1691
   47MOL0     O 6107   7.033  10.800   6.498  0.3687 -0.1903  0.3895
   47MOL0     C 6108   6.927  10.783   6.406 -0.2603  0.2540  0.8817
   47MOL0     C 6109   6.809  10.740   6.497 -0.3815 -0.5757 -0.3923
   47MOL0     C 6110   6.696  10.688   6.410  0.2927 -0.2508 -0.2684
   47MOL0     C 6111   6.561  10.687   6.489  0.2443  0.3477 -0.2855
   47MOL0     C 6112   6.439  10.656   6.410 -0.1979  0.7869  1.3236
   47MOL0     C 6113   6.319  10.683   6.490  0.3181  0.1504  0.4558
   47MOL0     C 6114   6.191  10.638   6.419 -0.0641 -0.2484  0.0910
   47MOL0     C 6115   6.077  10.636   6.515 -0.5161  0.3634 -0.6712
   47MOL0    Cl 6116   5.936  10.566   6.438  0.0230 -0.1041 -0.1116
   47MOL0     C 6117   7.259  10.825   6.532 -0.7278  0.5378 -0.4746
   47MOL0     C 6118   7.386  10.882   6.486  0.6741 -0.5114  0.4757
   47MOL0     O 6119   7.467  11.196   6.288  0.4447  0.2427 -0.0675
   47MOL0     C 6120   7.802  11.063   6.243  0.1618 -0.5615 -0.1622
   47MOL0     C 6121   7.932  11.102   6.199 -0.4192 -0.9960 -1.0052
   47MOL0     N 6122   8.653  11.015   5.989 -0.2198  0.7218 -0.0075
   47MOL0     N 6123   8.764  10.961   6.010  0.6554  0.3786  0.0330
   47MOL0     C 6124   9.569  10.362   6.679  0.4353 -0.5450  0.7999
   47MOL0     C 6125   9.581  10.352   6.818 -0.5397 -0.2511  0.3226
   47MOL0     C 6126   9.490  10.311   7.288 -0.4813 -0.0115 -0.2426
   47MOL0     C 6127   9.404  10.334   7.394 -0.1510  0.7654  0.0184
   47MOL0     C 6128   9.454  10.327   7.532  0.7450  0.8186 -0.0444
   47MOL0     C 6129   9.581  10.283   7.553  0.3861  0.9512  0.5400
   47MOL0     O 6130   9.604  10.278   7.689 -0.3340 -0.0606 -0.2300
   47MOL0     C 6131   9.726  10.229   7.738  0.5736  0.5406 -0.6698
   47MOL0     C 6132   9.713  10.207   7.893 -0.2009  0.6015  0.4262
   47MOL0     C 6133   9.857  10.226   7.951  0.5548 -0.4338  0.0021
   47MOL0     C 6134   9.965  10.129   7.891  0.5109  0.6760  0.1394
   47MOL0     C 6135  10.085  10.129   7.980 -0.2491 -0.2884  0.5601
   47MOL0     C 6136  10.183  10.114   8.050 -0.0241  0.8764  0.2485
   47MOL0     C 6137   9.665  10.244   7.446 -0.5145 -0.0144 -0.7933
   47MOL0     C 6138   9.616  10.270   7.315  0.0840  0.8158 -0.0875
   47MOL0     H 6139   9.305  10.178   6.889 -0.4346 -2.0546 -1.2844
   47MOL0     H 6140   9.285  10.180   6.634  1.0402  0.1177 -1.7980
   47MOL0     H 6141   9.513  10.338   6.293  1.2429  1.1200  0.0544
   47MOL0     H 6142   9.627  10.373   6.421 -0.5758 -4.1211  3.2482
   47MOL0     H 6143   9.566  10.591   6.329 -0.3999  0.1996 -0.9946
   47MOL0     H 6144   9.500  10.578   6.489 -3.8661  2.2521 -1.1115
   47MOL0     H 6145   9.286  10.540   6.419  3.4324  2.5264  3.4217
   47MOL0     H 6146   9.328  10.517   6.246  1.8524  2.8549 -1.3348
   47MOL0     H 6147   9.320  10.784   6.397  0.2286 -0.3081  0.8098
   47MOL0     H 6148   9.428  10.750   6.249 -1.5593  1.5775 -0.4152
   47MOL0     H 6149   9.147  10.661   6.256  1.3271 -1.6577 -1.2747
   47MOL0     H 6150   9.247  10.706   6.114  0.5210  0.3625  0.0124
   47MOL0     H 6151   9.230  10.945   6.195  0.2437 -0.7904 -1.1249
   47MOL0     H 6152   9.121  10.891   6.332 -0.4224 -0.3875  0.6956
   47MOL0     H 6153   9.053  10.892   6.042 -1.2893 -0.8344  0.1107
   47MOL0     H 6154   8.961  10.803   6.155  1.6595 -2.8770  0.6751
   47MOL0     H 6155   8.996  11.106   6.185  1.1662 -0.3820  1.1797
   47MOL0     H 6156   8.930  11.003   6.299 -2.8973  2.5314  0.0338
   47MOL0     H 6157   8.736  11.191   6.240 -1.1926  1.6050 -1.2713
   47MOL0     H 6158   8.549  11.302   6.054 -0.8158  0.2098  0.3806
   47MOL0     H 6159   8.448  11.206   6.174  0.2166  3.4888  0.5359
   47MOL0     H 6160   8.372  11.056   5.998  0.7360 -0.7360 -0.9851
   47MOL0     H 6161   8.448  11.161   5.884 -1.4177  0.5384 -0.1627
   47MOL0     H 6162   8.291  11.353   5.993 -0.4304 -0.4189  1.9773
   47MOL0     H 6163   8.219  11.226   5.881  1.3123 -1.2404 -1.4872
   47MOL0     H 6164   8.226  11.218   6.181 -2.1991 -0.3369  2.0697
   47MOL0     H 6165   8.151  11.098   6.066  1.7476 -0.6839  0.1018
   47MOL0     H 6166   7.852  11.429   6.135  2.2732  0.3634 -1.7710
   47MOL0     H 6167   7.628  11.355   6.208 -1.0351  0.1320  2.9449
   47MOL0     H 6168   7.314  10.986   6.176  1.2959 -1.6794 -1.2632
   47MOL0     H 6169   7.091  10.891   6.237  0.8156 -0.1718 -0.0688
   47MOL0     H 6170   6.949  10.694   6.346 -0.9824 -0.8784  2.2287
   47MOL0     H 6171   6.913  10.878   6.354 -0.9640  0.1861  0.9374
   47MOL0     H 6172   6.780  10.826   6.557  2.4903  1.4583 -1.6517
   47MOL0     H 6173   6.840  10.650   6.551  2.2091  0.2357 -0.3775
   47MOL0     H 6174   6.709  10.581   6.395 -2.5817 -1.1291  2.2921
   47MOL0     H 6175   6.686  10.765   6.333 -1.3058 -1.2789 -1.1392
   47MOL0     H 6176   6.580  10.616   6.569 -0.1916  3.1739  2.4939
   47MOL0     H 6177   6.545  10.787   6.530  2.4678  0.9045 -0.6609
   47MOL0     H 6178   6.442  10.549   6.388  0.0639  0.8573  1.0053
   47MOL0     H 6179   6.441  10.718   6.319 -1.7793 -0.2613  0.5081
   47MOL0     H 6180   6.308  10.791   6.489  1.3078  0.3529 -3.4507
   47MOL0     H 6181   6.331  10.633   6.587 -3.9181 -2.1667  0.0514
   47MOL0     H 6182   6.161  10.705   6.338 -2.9450 -0.8556  0.5525
   47MOL0     H 6183   6.212  10.541   6.373  4.5717 -0.9513  3.0685
   47MOL0     H 6184   6.052  10.737   6.550  0.4778 -0.5008  3.0283
   47MOL0     H 6185   6.103  10.579   6.605 -0.5204  0.7074 -0.4484
   47MOL0     H 6186   7.257  10.779   6.630  1.1650  3.1172  0.9185
   47MOL0     H 6187   7.471  10.874   6.553  0.1253  0.4654  1.3254
   47MOL0     H 6188   7.779  10.963   6.281  2.4709 -1.5707 -1.2321
   47MOL0     H 6189   8.019  11.036   6.202 -0.2245 -0.7473 -1.1494
   47MOL0     H 6190   9.650  10.390   6.612  0.1577 -1.9292 -0.1638
   47MOL0     H 6191   9.678  10.383   6.854 -2.1010  2.6855  2.4385
   47MOL0     H 6192   9.298  10.350   7.373 -0.2239  1.2415  0.7218
   47MOL0     H 6193   9.391  10.329   7.620  2.3822 -0.8925  1.2610
   47MOL0     H 6194   9.811  10.295   7.721  0.7406  0.0458 -1.8351
   47MOL0     H 6195   9.754  10.134   7.692  1.5521  1.8599 -2.9692
   47MOL0     H 6196   9.646  10.282   7.935  1.0271  1.3491  1.1019
   47MOL0     H 6197   9.666  10.111   7.915 -0.1972  0.1108 -1.4902
   47MOL0     H 6198   9.850  10.214   8.060 -0.0624 -1.4884 -0.1429
   47MOL0     H 6199   9.883  10.330   7.932 -0.5076  0.1438  1.5159
   47MOL0     H 6200   9.919  10.030   7.889 -0.5295  1.1526 -0.1217
   47MOL0     H 6201   9.999  10.155   7.791  0.0971 -0.7924 -0.3959
   47MOL0     H 6202  10.274  10.095   8.104 -0.9645  2.2136  2.4414
   47MOL0     H 6203   9.772  10.224   7.456 -0.0071  2.5130 -0.3686
   47MOL0     H 6204   9.688  10.252   7.236 -0.3844 -2.6425  0.1115
   48MOL0     O 6205   2.122   6.504   4.413  0.0770 -0.6187  0.3114
   48MOL0     C 6206   2.163   6.587   4.334 -0.6277 -0.6405 -0.5032
   48MOL0     O 6207   2.090   6.664   4.245  0.4414  0.5650 -0.0852
   48MOL0     C 6208   1.949   6.647   4.231  0.3010 -0.4230  0.7549
   48MOL0     C 6209   1.901   6.680   4.106 -0.6889  0.0177  0.8838
   48MOL0     C 6210   1.764   6.678   4.077 -0.8642 -0.0207  0.0746
   48MOL0     C 6211   1.671   6.639   4.180  0.8640 -0.3440  0.0241
   48MOL0     O 6212   1.529   6.646   4.179 -1.0165 -0.0205 -0.4190
   48MOL0     C 6213   1.475   6.719   4.070 -0.9990  0.8702  0.0217
   48MOL0     C 6214   1.340   6.776   4.092  0.4165  0.9047  0.3375
   48MOL0     C 6215   1.235   6.672   4.068  0.2943  0.6876  0.0942
   48MOL0     C 6216   1.099   6.729   4.092 -0.2243  0.4208 -0.1157
   48MOL0     C 6217   0.994   6.617   4.097 -0.6768  0.4037  0.1859
   48MOL0     C 6218   0.873   6.653   4.179  0.4262  0.5536 -0.4762
   48MOL0     C 6219   0.793   6.768   4.122  0.1961  0.1388 -0.3892
   48MOL0     C 6220   0.665   6.795   4.203 -0.5630 -0.0248 -0.4267
   48MOL0     N 6221   0.557   6.695   4.169  0.3395  0.2446 -0.4213
   48MOL0     C 6222   0.538   6.609   4.055  0.1579 -0.5964 -0.9151
   48MOL0     C 6223   0.422   6.545   4.088  0.0446  0.1945 -0.4636
   48MOL0     C 6224   0.351   6.440   3.996  0.1018 -0.5931 -0.5479
   48MOL0     C 6225   0.249   6.342   4.037  0.8382  0.7899  0.0619
   48MOL0     C 6226   0.213   6.241   3.923  0.1656 -0.7881 -0.3046
   48MOL0     C 6227   0.174   6.302   3.786  0.8043  0.4261  0.2094
   48MOL0     O 6228   0.117   6.198   3.708  0.3009 -0.9290 -0.0359
   48MOL0     C 6229  -0.016   6.167   3.707  0.2200  0.6326  0.5602
   48MOL0     C 6230  -0.118   6.235   3.770 -0.2109  0.4978  0.1567
   48MOL0     C 6231  -0.256   6.201   3.750 -0.3875  0.7238 -0.5671
   48MOL0     C 6232  -0.284   6.080   3.672 -0.5297  0.1999  0.7344
   48MOL0     C 6233  -0.430   6.038   3.656 -0.4673  0.4962 -0.6541
   48MOL0     O 6234  -0.445   5.910   3.610  0.5569 -0.1390  0.0181
   48MOL0     C 6235  -0.556   5.850   3.570  1.0237 -0.1716 -0.9301
   48MOL0     C 6236  -0.546   5.739   3.484 -0.4462  0.0910 -0.1231
   48MOL0     C 6237  -0.657   5.683   3.417  0.2612 -0.1591 -0.7674
   48MOL0     C 6238  -0.787   5.710   3.469 -0.1432 -0.5995 -0.1158
   48MOL0     O 6239  -0.903   5.649   3.436 -0.0937 -0.5194  0.4442
   48MOL0     C 6240  -0.900   5.545   3.331 -1.3860 -0.3177  0.2009
   48MOL0     C 6241  -1.032   5.472   3.333 -0.2591  0.1367  0.0901
   48MOL0     C 6242  -1.062   5.402   3.464  0.5743 -0.8160 -0.6627
   48MOL0     C 6243  -1.194   5.330   3.453  0.1138  0.7692 -0.0025
   48MOL0     C 6244  -1.257   5.296   3.594 -0.3381  0.1093  0.0404
   48MOL0     C 6245  -1.394   5.218   3.575 -1.0829  0.0575  0.4571
   48MOL0     C 6246  -1.453   5.167   3.708 -0.6695 -0.3265 -0.2276
   48MOL0     C 6247  -1.593   5.110   3.675 -0.0071 -0.5988  0.0270
   48MOL0    Cl 6248  -1.596   4.973   3.561 -0.2277  0.1755  0.0019
   48MOL0     C 6249  -0.796   5.817   3.561 -0.2601 -0.4188  0.4512
   48MOL0     C 6250  -0.681   5.891   3.597 -0.0297  0.0541 -0.0308
   48MOL0     O 6251  -0.518   6.119   3.685  0.1658  0.0981  0.1538
   48MOL0     C 6252  -0.178   6.017   3.591  1.0154  0.9405 -0.1760
   48MOL0     C 6253  -0.053   6.063   3.617 -0.1677 -0.0293 -0.6483
   48MOL0     N 6254   0.399   6.559   4.217  0.3280 -0.4329 -0.4357
   48MOL0     N 6255   0.469   6.652   4.259  0.2755 -0.5211  0.0545
   48MOL0     C 6256   1.716   6.607   4.304 -0.4725  0.6993 -0.7430
   48MOL0     C 6257   1.853   6.601   4.333 -0.4085  0.6098  0.9473
   48MOL0     C 6258   2.305   6.613   4.329 -0.4288 -0.0943  0.8773
   48MOL0     C 6259   2.385   6.574   4.435 -0.0284  0.0433  0.2162
   48MOL0     C 6260   2.521   6.597   4.440 -0.1857 -0.9117  0.0054
   48MOL0     C 6261   2.570   6.684   4.339  0.4012  0.7199 -0.0355
   48MOL0     O 6262   2.710   6.715   4.357  0.5803  0.0444  0.3554
   48MOL0     C 6263   2.753   6.841   4.301 -0.0278 -0.8889  0.0287
   48MOL0     C 6264   2.878   6.888   4.359  0.1637  0.4241 -0.1648
   48MOL0     C 6265   2.990   6.787   4.339  0.2887 -0.8319 -0.0490
   48MOL0     C 6266   3.125   6.839   4.398  0.6150  0.5787 -0.1040
   48MOL0     C 6267   3.195   6.932   4.312  0.0808  0.3110 -0.4881
   48MOL0     C 6268   3.285   7.004   4.269 -0.1657 -0.7328 -0.0113
   48MOL0     C 6269   2.493   6.737   4.234  0.2655 -0.5852 -0.2016
   48MOL0     C 6270   2.360   6.692   4.226 -0.6107  0.1296 -0.0662
   48MOL0     H 6271   1.959   6.719   4.022 -0.8146  1.5822  1.4780
   48MOL0     H 6272   1.733   6.705   3.977  0.2630  2.2173  0.2826
   48MOL0     H 6273   1.462   6.654   3.983  1.3371  0.0805  0.1807
   48MOL0     H 6274   1.543   6.801   4.045  0.0154  0.5150  1.4671
   48MOL0     H 6275   1.316   6.858   4.023 -0.8212  0.6706  0.4585
   48MOL0     H 6276   1.326   6.814   4.194  1.6716  0.3663  0.7269
   48MOL0     H 6277   1.261   6.582   4.124 -0.1578 -0.9826 -2.2127
   48MOL0     H 6278   1.237   6.643   3.963 -3.0105 -2.0352  0.5684
   48MOL0     H 6279   1.101   6.788   4.185 -0.9031 -0.1068  0.2418
   48MOL0     H 6280   1.077   6.798   4.010 -0.4920  1.5263  0.8649
   48MOL0     H 6281   1.034   6.526   4.142 -1.6514 -0.0705  0.1308
   48MOL0     H 6282   0.958   6.586   3.998  0.5758 -5.9398  1.3047
   48MOL0     H 6283   0.908   6.677   4.280  2.6617  2.0386 -1.5453
   48MOL0     H 6284   0.802   6.569   4.186  1.0610 -0.2921 -3.2157
   48MOL0     H 6285   0.854   6.857   4.141  0.2020 -0.2992  1.9454
   48MOL0     H 6286   0.766   6.756   4.017 -0.1564 -1.7401 -0.1276
   48MOL0     H 6287   0.623   6.889   4.168 -0.2883  0.4353  0.4756
   48MOL0     H 6288   0.682   6.799   4.311  0.1799 -0.7438 -0.5054
   48MOL0     H 6289   0.595   6.617   3.963 -0.8626  0.1456 -1.5119
   48MOL0     H 6290   0.429   6.382   3.947  0.8619 -0.7852  0.8258
   48MOL0     H 6291   0.306   6.501   3.918  0.4784  0.0748 -0.2486
   48MOL0     H 6292   0.162   6.397   4.073  0.5928 -0.1026  0.8831
   48MOL0     H 6293   0.291   6.288   4.123  3.5804  2.6238  0.0142
   48MOL0     H 6294   0.301   6.177   3.913  1.6772  0.5938  2.7572
   48MOL0     H 6295   0.131   6.182   3.965 -1.0057  0.5251 -0.6735
   48MOL0     H 6296   0.256   6.348   3.729  1.2601 -2.9375 -2.0954
   48MOL0     H 6297   0.111   6.391   3.792  1.5584  1.1844 -2.1694
   48MOL0     H 6298  -0.112   6.322   3.835 -0.7725  0.4880  0.2323
   48MOL0     H 6299  -0.332   6.259   3.802 -0.6838 -0.4205  0.3294
   48MOL0     H 6300  -0.445   5.718   3.449 -0.7445 -2.1927  0.2477
   48MOL0     H 6301  -0.636   5.611   3.339 -1.8753 -0.2855 -1.2837
   48MOL0     H 6302  -0.830   5.461   3.341 -0.5583  0.4590  1.0941
   48MOL0     H 6303  -0.884   5.602   3.239 -0.2921 -3.1263 -1.4838
   48MOL0     H 6304  -1.025   5.396   3.255 -1.5027  0.0741  0.0158
   48MOL0     H 6305  -1.108   5.543   3.300  1.3733  1.8377 -0.1634
   48MOL0     H 6306  -1.067   5.479   3.542  1.7945 -1.9004  0.5568
   48MOL0     H 6307  -0.978   5.339   3.495  0.3615 -0.7463  0.0781
   48MOL0     H 6308  -1.270   5.387   3.398  0.7609 -0.0759 -1.8415
   48MOL0     H 6309  -1.177   5.246   3.384  0.9845  2.3926 -1.8723
   48MOL0     H 6310  -1.268   5.392   3.645  2.1889  1.6179 -1.9871
   48MOL0     H 6311  -1.181   5.245   3.655  0.7116  1.3007 -0.2340
   48MOL0     H 6312  -1.378   5.127   3.516 -0.3600 -0.2810  1.1508
   48MOL0     H 6313  -1.465   5.279   3.518  0.5887  0.5382 -1.2131
   48MOL0     H 6314  -1.388   5.094   3.757  0.6149  0.2697 -1.0013
   48MOL0     H 6315  -1.457   5.246   3.783  0.3894 -2.2570  1.9758
   48MOL0     H 6316  -1.642   5.188   3.618  1.9401 -0.9816 -2.3574
   48MOL0     H 6317  -1.655   5.087   3.762  0.6350  0.3245  0.7554
   48MOL0     H 6318  -0.895   5.838   3.599 -0.6195 -0.9254 -0.1861
   48MOL0     H 6319  -0.693   5.986   3.647  0.7914 -0.1308  0.5448
   48MOL0     H 6320  -0.181   5.937   3.517  1.8640  0.7871 -0.0521
   48MOL0     H 6321   0.036   6.034   3.561 -0.0202  0.2021 -0.5332
   48MOL0     H 6322   1.647   6.578   4.383 -0.8255  1.9716 -0.5599
   48MOL0     H 6323   1.894   6.578   4.430 -0.0096 -0.9494  0.4350
   48MOL0     H 6324   2.333   6.519   4.513  0.4969  0.8012  1.1293
   48MOL0     H 6325   2.577   6.546   4.516 -1.7201 -1.0766  1.0758
   48MOL0     H 6326   2.681   6.922   4.312  0.9077  0.4085 -2.5491
   48MOL0     H 6327   2.777   6.839   4.194 -0.1000 -0.6124  0.0075
   48MOL0     H 6328   2.902   6.983   4.310  1.1237 -0.5799 -1.7442
   48MOL0     H 6329   2.873   6.912   4.466  0.9608 -2.0615  0.5002
   48MOL0     H 6330   2.999   6.763   4.233  0.9565 -1.0127  0.0476
   48MOL0     H 6331   2.960   6.694   4.390 -2.4511  0.3107  0.6242
   48MOL0     H 6332   3.103   6.902   4.485 -5.3164  0.2449 -0.9249
   48MOL0     H 6333   3.186   6.753   4.428 -0.4688 -1.4060 -3.0687
   48MOL0     H 6334   3.365   7.067   4.236  0.1316 -1.6426 -1.0919
   48MOL0     H 6335   2.537   6.795   4.154  1.3363  0.2557  0.9460
   48MOL0     H 6336   2.290   6.723   4.148 -1.6508  0.9927  1.1558
   49MOL0     O 6337   5.998   9.066   3.225 -0.1636 -0.5072  0.5108
   49MOL0     C 6338   5.963   9.011   3.329  0.1945  0.3173  0.4194
   49MOL0     O 6339   5.847   9.005   3.379 -0.3496 -0.8049  0.4859
   49MOL0     C 6340   5.733   9.050   3.311 -0.0329 -0.1040  0.2444
   49MOL0     C 6341   5.616   9.093   3.381 -0.1931 -0.3693 -0.7788
   49MOL0     C 6342   5.495   9.111   3.317 -0.3599 -0.9136  0.6972
   49MOL0     C 6343   5.478   9.093   3.178 -0.9177  0.7898 -0.0520
   49MOL0     O 6344   5.353   9.108   3.127  0.1972  0.0756  0.6923
   49MOL0     C 6345   5.360   9.179   2.999 -0.4461  0.4283 -0.4568
   49MOL0     C 6346   5.231   9.166   2.918 -0.4013 -0.3071  0.0059
   49MOL0     C 6347   5.108   9.235   2.977  0.0737  0.3964 -0.3092
   49MOL0     C 6348   4.989   9.210   2.883 -0.1120  0.9705 -0.3995
   49MOL0     C 6349   4.866   9.265   2.942 -0.0117 -0.9584  0.9381
   49MOL0     C 6350   4.783   9.188   3.052 -0.5566  0.5750 -0.4546
   49MOL0     C 6351   4.749   9.049   3.013  0.3094 -0.4714  0.2328
   49MOL0     C 6352   4.663   8.976   3.121 -0.0238 -0.1054 -0.4024
   49MOL0     N 6353   4.532   9.029   3.162 -0.5197  0.0614 -0.1649
   49MOL0     C 6354   4.423   9.026   3.079  0.2216  0.1712  0.3749
   49MOL0     C 6355   4.317   9.052   3.162  0.4904  0.3538  0.6145
   49MOL0     C 6356   4.168   9.071   3.119 -0.0698  0.3873 -0.6919
   49MOL0     C 6357   4.125   9.223   3.123 -0.0736  0.9115 -0.7591
   49MOL0     C 6358   4.164   9.302   3.255 -0.1604  0.0589 -0.0784
   49MOL0     C 6359   4.059   9.422   3.276 -0.1999 -0.5786  0.2032
   49MOL0     O 6360   3.924   9.378   3.279 -0.2018 -0.4611 -0.0479
   49MOL0     C 6361   3.836   9.474   3.299  0.5349 -0.5715  0.2974
   49MOL0     C 6362   3.719   9.424   3.368 -0.2111 -0.3851 -0.0794
   49MOL0     C 6363   3.609   9.500   3.391 -0.1427  0.8211  0.1023
   49MOL0     C 6364   3.606   9.631   3.346 -0.3329 -0.3740 -1.1848
   49MOL0     C 6365   3.478   9.713   3.357 -0.7729 -0.3272  0.4535
   49MOL0     O 6366   3.373   9.648   3.406  1.0663 -0.3311 -0.3950
   49MOL0     C 6367   3.254   9.714   3.423  0.2424 -0.1760 -0.8417
   49MOL0     C 6368   3.173   9.683   3.530  0.0298  0.3222 -0.2324
   49MOL0     C 6369   3.039   9.719   3.531  0.1227  0.3547 -0.7382
   49MOL0     C 6370   2.988   9.805   3.439 -0.0225 -0.0967 -0.1037
   49MOL0     O 6371   2.849   9.833   3.454 -0.3317  0.2782  0.1361
   49MOL0     C 6372   2.800   9.941   3.360 -0.3430 -0.5240  0.5769
   49MOL0     C 6373   2.651   9.966   3.366  0.1059  0.9681  0.5091
   49MOL0     C 6374   2.606  10.058   3.484 -1.2266  0.4550  0.0037
   49MOL0     C 6375   2.460  10.081   3.480  0.1253  0.4807 -0.3439
   49MOL0     C 6376   2.405  10.126   3.618 -0.4396  0.0743  0.1708
   49MOL0     C 6377   2.259  10.166   3.597 -0.4756  0.1468 -0.5227
   49MOL0     C 6378   2.180  10.155   3.727  0.1235  0.6381 -0.2466
   49MOL0     C 6379   2.227  10.249   3.838 -0.5599  0.2231 -0.1469
   49MOL0    Cl 6380   2.135  10.225   3.987 -0.5197 -0.0768 -0.0351
   49MOL0     C 6381   3.067   9.844   3.328 -0.8433  0.8465 -1.0240
   49MOL0     C 6382   3.194   9.789   3.317 -1.1447 -0.5396  0.5784
   49MOL0     O 6383   3.482   9.819   3.292  0.4533 -0.2521  0.4318
   49MOL0     C 6384   3.722   9.687   3.280 -0.5989 -0.0075 -1.2314
   49MOL0     C 6385   3.840   9.611   3.271 -0.4035  0.3351  0.1763
   49MOL0     N 6386   4.369   9.067   3.292 -0.2639 -0.3179 -0.8412
   49MOL0     N 6387   4.492   9.060   3.286 -0.1956 -0.3304 -0.0510
   49MOL0     C 6388   5.593   9.042   3.108  0.3588 -0.3770  0.5481
   49MOL0     C 6389   5.709   9.026   3.176  0.6365  0.0291  1.0216
   49MOL0     C 6390   6.077   8.963   3.410  0.0677  0.0145 -0.5769
   49MOL0     C 6391   6.211   8.946   3.368  1.1725  0.9005 -0.2870
   49MOL0     C 6392   6.316   8.892   3.449 -0.3422  0.0186  0.9493
   49MOL0     C 6393   6.280   8.846   3.574 -0.4457 -0.1787 -0.3460
   49MOL0     O 6394   6.373   8.774   3.643 -0.2461 -0.0028 -0.1793
   49MOL0     C 6395   6.322   8.661   3.719 -0.0341  0.5527  0.0680
   49MOL0     C 6396   6.426   8.557   3.725  0.2474 -0.3396  0.2524
   49MOL0     C 6397   6.557   8.610   3.777 -0.4066 -0.5539 -0.6096
   49MOL0     C 6398   6.674   8.619   3.674  0.3057  0.7690 -0.1492
   49MOL0     C 6399   6.793   8.648   3.752 -0.0633  0.7125 -0.0451
   49MOL0     C 6400   6.885   8.659   3.826 -0.0466  0.2733 -0.1153
   49MOL0     C 6401   6.150   8.868   3.621 -0.0403  1.0375  0.0987
   49MOL0     C 6402   6.049   8.922   3.541  0.5433  0.0366  0.5847
   49MOL0     H 6403   5.618   9.105   3.489 -2.0635 -2.6892 -0.4104
   49MOL0     H 6404   5.401   9.137   3.366 -1.3525 -0.3582 -1.3823
   49MOL0     H 6405   5.442   9.145   2.935 -0.5206  1.1788 -0.9626
   49MOL0     H 6406   5.379   9.286   3.009 -2.2163  0.6908  0.4488
   49MOL0     H 6407   5.209   9.062   2.896  3.7175 -0.8109 -2.7847
   49MOL0     H 6408   5.260   9.219   2.827  2.0117 -1.6244 -0.0682
   49MOL0     H 6409   5.117   9.344   2.983 -1.0791  0.4407  1.1507
   49MOL0     H 6410   5.100   9.202   3.081  2.7858 -0.2378 -0.2253
   49MOL0     H 6411   5.002   9.261   2.788  1.9619  2.7303  0.7499
   49MOL0     H 6412   4.974   9.104   2.859 -2.0917  0.5101  2.3097
   49MOL0     H 6413   4.805   9.276   2.852  1.1254  0.1653  0.2811
   49MOL0     H 6414   4.878   9.364   2.986  1.0183 -0.4675 -0.4125
   49MOL0     H 6415   4.692   9.246   3.072  0.1186  1.5997 -0.2451
   49MOL0     H 6416   4.836   9.182   3.148 -1.4632 -1.0877 -0.0221
   49MOL0     H 6417   4.695   9.045   2.919  1.3440 -0.6945 -0.3684
   49MOL0     H 6418   4.844   8.995   3.004  0.2576 -0.4716 -0.2901
   49MOL0     H 6419   4.726   8.975   3.211  0.5775 -0.1935 -0.8212
   49MOL0     H 6420   4.653   8.874   3.083 -0.9372  0.0995 -0.7305
   49MOL0     H 6421   4.418   9.009   2.972 -1.2587  1.9485  0.1186
   49MOL0     H 6422   4.112   9.009   3.189  1.8747  1.1883  1.7288
   49MOL0     H 6423   4.161   9.033   3.017  1.4984  0.9269 -1.0354
   49MOL0     H 6424   4.025   9.241   3.084  1.3205  1.4526 -4.5816
   49MOL0     H 6425   4.177   9.274   3.040 -0.5339 -0.5297 -1.9844
   49MOL0     H 6426   4.163   9.234   3.340 -2.1982  0.4417  0.2681
   49MOL0     H 6427   4.267   9.338   3.247 -0.1181 -0.2855 -1.2818
   49MOL0     H 6428   4.070   9.498   3.197  0.6878 -1.9000 -0.9909
   49MOL0     H 6429   4.097   9.469   3.367  0.5550  2.5032 -1.5386
   49MOL0     H 6430   3.724   9.318   3.390  1.6111 -0.7837 -1.9840
   49MOL0     H 6431   3.523   9.454   3.439  0.6815  0.8199  1.6531
   49MOL0     H 6432   3.204   9.625   3.616 -0.3728 -0.6776 -0.7395
   49MOL0     H 6433   2.975   9.679   3.609  0.9090  2.1081  0.8914
   49MOL0     H 6434   2.824   9.919   3.256  3.9415  0.7141  1.1214
   49MOL0     H 6435   2.853  10.035   3.379 -1.0989  0.1371 -0.5126
   49MOL0     H 6436   2.594   9.873   3.376  0.2833  1.1240  4.3589
   49MOL0     H 6437   2.634  10.024   3.275 -0.0302 -0.9262 -0.7259
   49MOL0     H 6438   2.667  10.149   3.486 -1.8640  0.8685  0.8771
   49MOL0     H 6439   2.631  10.005   3.576 -1.5927 -0.1505 -0.2406
   49MOL0     H 6440   2.437  10.148   3.397 -0.4014  0.0916 -0.5129
   49MOL0     H 6441   2.406   9.990   3.456 -0.8993  0.4307  1.8517
   49MOL0     H 6442   2.476  10.201   3.653 -0.5207 -0.2752  1.1280
   49MOL0     H 6443   2.405  10.044   3.691  2.0847 -0.0159  0.1878
   49MOL0     H 6444   2.212  10.102   3.521 -0.5079  0.2254 -0.5693
   49MOL0     H 6445   2.247  10.269   3.562 -1.8688 -0.4211 -1.8658
   49MOL0     H 6446   2.072  10.166   3.719 -0.0329  1.8463  2.5832
   49MOL0     H 6447   2.180  10.054   3.769 -2.4676  0.1813 -1.1674
   49MOL0     H 6448   2.213  10.355   3.817 -2.3726  0.5570  2.3133
   49MOL0     H 6449   2.335  10.245   3.858 -0.3395  1.6644 -0.9115
   49MOL0     H 6450   3.039   9.912   3.248  1.8174  0.6689 -2.2156
   49MOL0     H 6451   3.257   9.805   3.230 -0.5214  1.4170  1.3230
   49MOL0     H 6452   3.720   9.784   3.232  0.3086  1.6020  1.7469
   49MOL0     H 6453   3.926   9.649   3.217  0.6807 -3.4254 -1.0852
   49MOL0     H 6454   5.588   9.013   3.004  0.1932  2.6688 -0.3874
   49MOL0     H 6455   5.801   8.992   3.127  0.4872  1.2711 -0.1758
   49MOL0     H 6456   6.231   8.986   3.269 -3.9974  2.7526 -0.9210
   49MOL0     H 6457   6.421   8.897   3.422 -0.3126  0.8263  1.1807
   49MOL0     H 6458   6.230   8.616   3.679  1.0527 -0.5376 -1.2920
   49MOL0     H 6459   6.296   8.685   3.823 -0.6892  0.0653  0.0283
   49MOL0     H 6460   6.397   8.470   3.785 -0.8025 -0.0243  0.2262
   49MOL0     H 6461   6.438   8.527   3.620 -4.1992  0.4423 -0.6584
   49MOL0     H 6462   6.595   8.549   3.859  2.0322  0.1194 -1.1691
   49MOL0     H 6463   6.548   8.717   3.800  3.2703  0.7270 -4.0825
   49MOL0     H 6464   6.676   8.529   3.611 -0.2504 -0.0958  1.0344
   49MOL0     H 6465   6.645   8.706   3.614 -2.4393  1.0762  1.4748
   49MOL0     H 6466   6.963   8.683   3.896 -2.2617  0.2021  2.5631
   49MOL0     H 6467   6.136   8.825   3.720  1.5342 -0.8146 -0.4221
   49MOL0     H 6468   5.951   8.944   3.583 -0.7972 -2.5960 -0.9231
   50MOL0     O 6469   3.334   6.060   2.586 -0.1077 -0.8283  0.1266
   50MOL0     C 6470   3.322   6.031   2.471 -0.1419  0.8380 -0.2274
   50MOL0     O 6471   3.200   6.029   2.403  0.3152  0.6331 -0.0781
   50MOL0     C 6472   3.083   6.068   2.471  0.2777 -0.0014  0.4161
   50MOL0     C 6473   3.002   6.158   2.404  0.6880 -0.0565 -0.6765
   50MOL0     C 6474   2.878   6.196   2.448 -0.7589  0.7499 -0.1554
   50MOL0     C 6475   2.829   6.134   2.563 -0.7638 -0.1518  0.0034
   50MOL0     O 6476   2.719   6.171   2.627  0.5156  0.0855  0.1801
   50MOL0     C 6477   2.604   6.217   2.542 -0.6404  0.5132 -0.2607
   50MOL0     C 6478   2.478   6.213   2.639 -1.1825 -0.3613  0.7353
   50MOL0     C 6479   2.341   6.170   2.578 -0.5594  0.1746 -0.4769
   50MOL0     C 6480   2.292   6.280   2.483 -1.0914 -0.0391 -0.1588
   50MOL0     C 6481   2.150   6.240   2.440  0.8277  0.0913  0.9744
   50MOL0     C 6482   2.091   6.351   2.358  0.3175  0.3827 -0.0654
   50MOL0     C 6483   1.953   6.294   2.314 -0.5202 -0.4500 -0.7932
   50MOL0     C 6484   1.863   6.419   2.260 -0.5155  0.1419 -0.8005
   50MOL0     N 6485   1.725   6.373   2.229 -0.0457 -0.3553  0.5305
   50MOL0     C 6486   1.613   6.452   2.243  0.5335 -0.4414 -0.6134
   50MOL0     C 6487   1.515   6.387   2.175  0.4903  0.4475 -0.1774
   50MOL0     C 6488   1.374   6.436   2.169  0.0735  0.0806 -1.3911
   50MOL0     C 6489   1.295   6.426   2.037 -0.2318  0.4321 -0.5041
   50MOL0     C 6490   1.266   6.274   1.989  0.4046  0.1211  0.1452
   50MOL0     C 6491   1.177   6.261   1.864 -0.2395  0.5182 -0.9225
   50MOL0     O 6492   1.054   6.340   1.877  0.9132  0.0605  0.1452
   50MOL0     C 6493   0.949   6.320   1.781  0.4995  0.1537 -0.4255
   50MOL0     C 6494   0.947   6.214   1.692 -0.5059  0.2513  0.3126
   50MOL0     C 6495   0.846   6.184   1.600 -0.4872 -0.7307 -0.3121
   50MOL0     C 6496   0.742   6.279   1.602 -0.1570 -0.0436  0.1342
   50MOL0     C 6497   0.632   6.256   1.508 -0.4206 -0.5921 -0.7345
   50MOL0     O 6498   0.604   6.133   1.448  0.4327  0.3498 -0.4151
   50MOL0     C 6499   0.483   6.107   1.391 -0.3431 -0.2547  0.6755
   50MOL0     C 6500   0.482   6.045   1.268  0.8773 -0.8300  0.1296
   50MOL0     C 6501   0.354   6.018   1.209  0.1680  0.1545  0.1194
   50MOL0     C 6502   0.234   6.048   1.268  0.7776 -0.0828  0.1776
   50MOL0     O 6503   0.109   6.026   1.216 -0.7704 -0.2190 -0.2277
   50MOL0     C 6504   0.091   6.051   1.076 -0.5933  0.1422 -0.4907
   50MOL0     C 6505   0.083   6.198   1.049 -0.0040 -0.6625 -0.6108
   50MOL0     C 6506  -0.052   6.259   1.073  0.2825 -0.3023 -0.1581
   50MOL0     C 6507  -0.096   6.288   1.217  0.6070  0.0805 -0.3197
   50MOL0     C 6508  -0.231   6.358   1.205 -1.0780  0.5114  0.2095
   50MOL0     C 6509  -0.297   6.369   1.339  0.2333 -0.5055 -0.0829
   50MOL0     C 6510  -0.414   6.475   1.326  0.0930  0.7046  0.3711
   50MOL0     C 6511  -0.509   6.472   1.456  0.0693  0.4264  0.0839
   50MOL0    Cl 6512  -0.428   6.528   1.611  0.0151 -0.0031 -0.2109
   50MOL0     C 6513   0.245   6.089   1.403 -0.1020  0.2001 -0.3350
   50MOL0     C 6514   0.370   6.124   1.464  0.0062  0.1188  0.4117
   50MOL0     O 6515   0.568   6.359   1.485  0.0621  0.3959  0.1004
   50MOL0     C 6516   0.746   6.392   1.684 -0.6297  0.6842 -0.8814
   50MOL0     C 6517   0.848   6.411   1.780  0.0432  0.3094 -0.4417
   50MOL0     N 6518   1.567   6.262   2.128  0.3147 -0.8436 -0.3241
   50MOL0     N 6519   1.690   6.268   2.160  0.6943 -0.2291  0.0166
   50MOL0     C 6520   2.900   6.027   2.624  0.0489 -0.1846 -0.0343
   50MOL0     C 6521   3.026   5.990   2.566  0.0411 -0.3177 -0.8044
   50MOL0     C 6522   3.437   5.993   2.398 -0.5088 -0.3392  0.1934
   50MOL0     C 6523   3.429   5.973   2.259 -0.3323  0.4157 -0.1238
   50MOL0     C 6524   3.541   5.946   2.179 -0.3338  0.2868  0.0911
   50MOL0     C 6525   3.664   5.933   2.243 -0.3736  0.1993  0.0281
   50MOL0     O 6526   3.774   5.900   2.161 -0.0441 -0.6665 -0.1850
   50MOL0     C 6527   3.910   5.905   2.212  0.1149 -0.4996  0.5743
   50MOL0     C 6528   4.013   5.880   2.093  0.2332  0.0488  0.3668
   50MOL0     C 6529   4.037   6.008   2.006  0.1986  0.1112 -0.3040
   50MOL0     C 6530   3.904   6.047   1.920  0.3083  0.9531 -0.0933
   50MOL0     C 6531   3.917   6.177   1.850 -0.2882 -0.5149  0.2769
   50MOL0     C 6532   3.946   6.275   1.786 -0.1166 -0.8111  0.2607
   50MOL0     C 6533   3.679   5.948   2.379  0.7655 -1.0620  0.8090
   50MOL0     C 6534   3.567   5.978   2.457  0.2719  0.1012 -0.2123
   50MOL0     H 6535   3.039   6.202   2.312  1.0837  0.0798 -0.4571
   50MOL0     H 6536   2.817   6.274   2.404 -2.0202 -0.6400 -0.9773
   50MOL0     H 6537   2.588   6.142   2.464  2.2390  0.0295 -0.4847
   50MOL0     H 6538   2.622   6.317   2.501 -1.2942  0.4652 -0.6786
   50MOL0     H 6539   2.456   6.310   2.686 -1.0602  0.8867 -1.6169
   50MOL0     H 6540   2.480   6.141   2.722  0.1442  1.7663  2.6835
   50MOL0     H 6541   2.272   6.163   2.663 -1.0030  2.8113 -0.5272
   50MOL0     H 6542   2.367   6.075   2.530  0.2305 -0.0079  0.2855
   50MOL0     H 6543   2.285   6.375   2.536  0.0619  0.5859 -1.0598
   50MOL0     H 6544   2.367   6.297   2.404  0.8062 -0.6377  1.4243
   50MOL0     H 6545   2.080   6.213   2.520  2.8949 -1.3228  2.4366
   50MOL0     H 6546   2.157   6.148   2.381  0.6067 -0.3532  1.6298
   50MOL0     H 6547   2.161   6.385   2.282  2.8640  0.0174  1.9836
   50MOL0     H 6548   2.072   6.444   2.413  1.9507 -2.1459  5.5665
   50MOL0     H 6549   1.956   6.219   2.235 -4.5918  2.7460 -4.4874
   50MOL0     H 6550   1.898   6.252   2.399 -0.2878 -1.1170 -0.9676
   50MOL0     H 6551   1.912   6.478   2.181  1.5612  1.7964  1.5617
   50MOL0     H 6552   1.844   6.498   2.333 -1.2926  0.7908 -1.6759
   50MOL0     H 6553   1.596   6.548   2.292  1.3716 -1.2138  1.3081
   50MOL0     H 6554   1.379   6.542   2.198  1.6040 -1.0174  3.0731
   50MOL0     H 6555   1.322   6.386   2.251  0.3754  1.2757 -0.4339
   50MOL0     H 6556   1.359   6.468   1.958  1.2097  0.7235  0.7736
   50MOL0     H 6557   1.203   6.483   2.053  0.9042  2.8339 -1.8770
   50MOL0     H 6558   1.365   6.231   1.971 -0.4131 -2.2213  0.8190
   50MOL0     H 6559   1.211   6.223   2.069  0.2718  1.1090  0.7041
   50MOL0     H 6560   1.159   6.153   1.868  0.0256  0.5096  0.8827
   50MOL0     H 6561   1.241   6.287   1.779  0.2936  0.1644 -0.6413
   50MOL0     H 6562   1.030   6.146   1.701 -1.4039 -0.8196  0.6809
   50MOL0     H 6563   0.850   6.090   1.546  0.8265 -0.2995 -1.0070
   50MOL0     H 6564   0.573   6.009   1.220  1.3281  0.6973 -0.2147
   50MOL0     H 6565   0.353   5.975   1.110  0.0360  0.5783 -0.0650
   50MOL0     H 6566  -0.007   6.008   1.055 -1.3106  0.6871  1.5679
   50MOL0     H 6567   0.167   6.004   1.012  0.2324 -2.5468  2.2665
   50MOL0     H 6568   0.111   6.207   0.944  1.4557  0.7311 -0.1372
   50MOL0     H 6569   0.162   6.241   1.111 -1.1098 -0.7294  0.9108
   50MOL0     H 6570  -0.123   6.192   1.023  1.5321 -0.1353 -2.2564
   50MOL0     H 6571  -0.054   6.350   1.012 -1.2106 -1.1920 -1.5308
   50MOL0     H 6572  -0.105   6.194   1.272  0.7457  0.6057  0.6215
   50MOL0     H 6573  -0.021   6.342   1.276 -0.1125 -0.0536  0.7231
   50MOL0     H 6574  -0.297   6.317   1.128 -0.5422  2.7708 -1.5640
   50MOL0     H 6575  -0.205   6.457   1.168 -1.9994  0.9012  0.5667
   50MOL0     H 6576  -0.220   6.395   1.412  2.5135 -3.5253 -1.1781
   50MOL0     H 6577  -0.339   6.273   1.370 -0.2623 -0.3516 -0.2729
   50MOL0     H 6578  -0.360   6.569   1.315  2.3610 -0.7635 -2.2298
   50MOL0     H 6579  -0.479   6.452   1.241  1.9840  2.3475 -1.6297
   50MOL0     H 6580  -0.556   6.374   1.466 -0.9547  0.7723 -1.1347
   50MOL0     H 6581  -0.592   6.539   1.432  0.5487 -0.0003 -3.2658
   50MOL0     H 6582   0.149   6.112   1.447 -0.9976  0.9475 -2.5345
   50MOL0     H 6583   0.377   6.162   1.566 -2.0512  0.3173  0.5252
   50MOL0     H 6584   0.665   6.463   1.674  2.0306  4.0257 -0.7721
   50MOL0     H 6585   0.844   6.492   1.853  0.8712 -0.7819  0.8521
   50MOL0     H 6586   2.857   5.967   2.703 -3.3173  0.3953 -1.2675
   50MOL0     H 6587   3.082   5.904   2.602  2.9468  1.4119 -0.8963
   50MOL0     H 6588   3.331   5.970   2.212 -0.2969  1.3028 -0.2577
   50MOL0     H 6589   3.535   5.926   2.073  1.3413 -3.6927  0.5819
   50MOL0     H 6590   3.912   5.831   2.293 -0.1665 -1.1160  0.0283
   50MOL0     H 6591   3.929   6.004   2.255 -2.8771  1.3052 -1.8586
   50MOL0     H 6592   4.106   5.854   2.144  1.2464  1.4378 -0.6858
   50MOL0     H 6593   3.986   5.790   2.036  0.5738 -0.8474  1.5708
   50MOL0     H 6594   4.117   5.995   1.933 -0.3175 -1.1983 -0.6802
   50MOL0     H 6595   4.072   6.089   2.070 -1.0430  0.3943  0.0467
   50MOL0     H 6596   3.893   5.976   1.838 -0.6499  0.9078  0.0732
   50MOL0     H 6597   3.815   6.042   1.983  0.1935  1.6846 -0.1890
   50MOL0     H 6598   3.965   6.372   1.744  1.2024 -0.4438  1.6242
   50MOL0     H 6599   3.780   5.956   2.418  0.8462  0.2205  0.3688
   50MOL0     H 6600   3.582   6.009   2.560  0.9721  0.1075 -0.3134
   51MOL0     O 6601   0.201  10.530   4.391 -0.4607 -0.5596 -1.2576
   51MOL0     C 6602   0.099  10.523   4.326  0.4483 -0.3951  0.1394
   51MOL0     O 6603   0.087  10.543   4.193  0.3715 -0.5338 -0.3748
   51MOL0     C 6604   0.188  10.583   4.104 -0.8671  0.0328  0.7987
   51MOL0     C 6605   0.327  10.605   4.139 -1.0908 -0.4459 -0.3741
   51MOL0     C 6606   0.411  10.646   4.031  0.5193 -0.1181 -0.3673
   51MOL0     C 6607   0.372  10.660   3.899 -0.1100 -0.1561 -0.7082
   51MOL0     O 6608   0.473  10.694   3.810  0.5434 -0.3993  0.3504
   51MOL0     C 6609   0.432  10.766   3.686  0.1459  0.6227 -0.0263
   51MOL0     C 6610   0.555  10.831   3.629  0.3812 -0.0366 -0.9708
   51MOL0     C 6611   0.654  10.726   3.572  0.3868  0.0151  0.3973
   51MOL0     C 6612   0.793  10.781   3.553  0.2655  0.4838 -0.1493
   51MOL0     C 6613   0.875  10.693   3.468  0.1136 -0.3379  0.9081
   51MOL0     C 6614   1.023  10.750   3.461  0.0077  0.0799  0.2210
   51MOL0     C 6615   1.101  10.641   3.389  0.2915 -0.7739 -0.2159
   51MOL0     C 6616   1.257  10.659   3.406  0.0543 -0.0641 -0.1623
   51MOL0     N 6617   1.320  10.535   3.450  0.5578  1.0826  0.8946
   51MOL0     C 6618   1.286  10.461   3.561  0.0339 -0.6482  0.6680
   51MOL0     C 6619   1.368  10.350   3.553  0.0861  0.7216 -0.8352
   51MOL0     C 6620   1.368  10.216   3.624 -0.3176 -0.6715 -0.0538
   51MOL0     C 6621   1.229  10.158   3.667 -0.0624  0.3268  0.2320
   51MOL0     C 6622   1.151  10.137   3.537 -0.3063  0.2897  0.8546
   51MOL0     C 6623   1.047  10.033   3.553 -0.2005 -0.0020  0.2528
   51MOL0     O 6624   0.987   9.997   3.423 -0.5770  0.4287  0.1110
   51MOL0     C 6625   0.874   9.918   3.421 -0.2126  1.0907  0.0623
   51MOL0     C 6626   0.801   9.874   3.534 -0.1714  0.2422  0.3912
   51MOL0     C 6627   0.687   9.791   3.516  0.2948  0.0140  0.2964
   51MOL0     C 6628   0.631   9.768   3.385  0.6345  0.3535 -0.5003
   51MOL0     C 6629   0.506   9.688   3.372 -0.7997 -0.1977 -0.2962
   51MOL0     O 6630   0.502   9.618   3.258  0.4372  0.0949  0.6589
   51MOL0     C 6631   0.387   9.565   3.201  0.3394  0.5736 -0.0371
   51MOL0     C 6632   0.396   9.434   3.140 -0.1646  0.0649 -0.2294
   51MOL0     C 6633   0.280   9.379   3.081 -0.4181  0.1028 -0.3437
   51MOL0     C 6634   0.163   9.455   3.062  0.2597  0.0660 -1.1609
   51MOL0     O 6635   0.052   9.393   3.010  0.3263  0.0883  0.6006
   51MOL0     C 6636  -0.038   9.473   2.934  0.3468 -0.5754 -0.1348
   51MOL0     C 6637  -0.176   9.402   2.958 -0.1729  0.7009 -0.2135
   51MOL0     C 6638  -0.297   9.475   2.902  0.0741  0.2723 -0.1230
   51MOL0     C 6639  -0.422   9.387   2.925  0.3481  0.4874 -0.0495
   51MOL0     C 6640  -0.483   9.382   3.062  0.8319  0.4109 -0.4851
   51MOL0     C 6641  -0.622   9.297   3.058 -0.0519  1.1040 -0.3456
   51MOL0     C 6642  -0.627   9.221   3.188  0.0501  0.4694  0.0044
   51MOL0     C 6643  -0.767   9.142   3.196 -0.1675  0.9556  0.5114
   51MOL0    Cl 6644  -0.776   9.020   3.073  0.2240 -0.0408  0.3844
   51MOL0     C 6645   0.153   9.580   3.129 -0.7888 -0.2795 -0.7312
   51MOL0     C 6646   0.265   9.635   3.198 -0.2384 -0.1733 -0.3656
   51MOL0     O 6647   0.411   9.695   3.454 -0.1515  0.2750 -0.2860
   51MOL0     C 6648   0.697   9.826   3.280  0.4642  0.2184 -0.3646
   51MOL0     C 6649   0.816   9.895   3.292  0.1366 -0.6082 -0.2374
   51MOL0     N 6650   1.452  10.371   3.449 -0.7184  0.8092  0.2238
   51MOL0     N 6651   1.433  10.484   3.394 -0.0068  0.1911 -0.7460
   51MOL0     C 6652   0.239  10.643   3.868  0.9300 -0.5047  0.5784
   51MOL0     C 6653   0.147  10.611   3.971 -0.3090 -0.2923  0.5875
   51MOL0     C 6654  -0.022  10.483   4.402  0.1654 -0.4587  0.6435
   51MOL0     C 6655  -0.153  10.513   4.356 -0.7492 -0.0784 -0.4515
   51MOL0     C 6656  -0.266  10.462   4.421  0.2767  0.1708 -0.5984
   51MOL0     C 6657  -0.270  10.364   4.519 -0.0916 -0.2559  0.3522
   51MOL0     O 6658  -0.384  10.304   4.571  0.6741  0.6057 -0.6238
   51MOL0     C 6659  -0.399  10.310   4.711  0.3665 -0.2195  0.3115
   51MOL0     C 6660  -0.378  10.452   4.770  0.2923  0.4142 -0.2761
   51MOL0     C 6661  -0.401  10.480   4.924 -1.3777  0.5465  0.5449
   51MOL0     C 6662  -0.283  10.419   4.997  0.8488 -1.3247 -0.5744
   51MOL0     C 6663  -0.312  10.409   5.147 -0.5297  0.1722  0.8596
   51MOL0     C 6664  -0.350  10.382   5.258  0.4884 -0.2591  0.9547
   51MOL0     C 6665  -0.134  10.332   4.564  0.5570 -0.3297  0.8022
   51MOL0     C 6666  -0.012  10.400   4.511 -0.3788  0.3461  0.5662
   51MOL0     H 6667   0.368  10.610   4.239  1.0566  2.2788 -1.2492
   51MOL0     H 6668   0.512  10.666   4.067  0.2009  0.3733  0.2725
   51MOL0     H 6669   0.362  10.846   3.711 -0.1682  0.7243 -1.2137
   51MOL0     H 6670   0.396  10.700   3.607  1.1571  0.8146 -0.6546
   51MOL0     H 6671   0.603  10.901   3.698 -0.4661 -0.2030 -0.2006
   51MOL0     H 6672   0.531  10.900   3.547  0.4046  1.4136  0.1933
   51MOL0     H 6673   0.616  10.697   3.474  1.8307  1.9854 -0.8270
   51MOL0     H 6674   0.669  10.634   3.630  1.1202 -0.8737 -1.1458
   51MOL0     H 6675   0.768  10.873   3.500 -0.3751 -0.3474 -1.3572
   51MOL0     H 6676   0.835  10.812   3.649  0.5590 -1.2963  0.3428
   51MOL0     H 6677   0.822  10.672   3.375  0.3251  2.1173  0.1650
   51MOL0     H 6678   0.886  10.596   3.518  0.5902 -0.4846  0.5208
   51MOL0     H 6679   1.069  10.762   3.560  2.3179  0.5253 -0.8439
   51MOL0     H 6680   1.018  10.848   3.412  2.2043 -1.0427 -2.5401
   51MOL0     H 6681   1.074  10.544   3.429  0.5808 -0.8169 -0.1202
   51MOL0     H 6682   1.079  10.644   3.282 -0.6121  0.0300 -0.0230
   51MOL0     H 6683   1.280  10.736   3.480  0.9805  0.7780 -1.2941
   51MOL0     H 6684   1.301  10.694   3.313  0.8423  1.1446  0.6401
   51MOL0     H 6685   1.208  10.478   3.635  1.0426  2.5652  1.1441
   51MOL0     H 6686   1.430  10.229   3.713 -1.1950  0.3498  0.4288
   51MOL0     H 6687   1.407  10.139   3.557 -1.3115 -3.6851  2.5488
   51MOL0     H 6688   1.180  10.232   3.731  0.3685  1.6150 -0.8505
   51MOL0     H 6689   1.243  10.065   3.722  0.3653  0.0602 -0.3149
   51MOL0     H 6690   1.104  10.231   3.506 -1.4324 -0.4179  0.3250
   51MOL0     H 6691   1.214  10.102   3.455 -2.1601 -2.5852  0.4760
   51MOL0     H 6692   0.966  10.079   3.610  0.4051 -0.1410  1.2479
   51MOL0     H 6693   1.089   9.947   3.606 -1.4122 -1.0063 -0.3351
   51MOL0     H 6694   0.840   9.883   3.635 -2.7309 -0.8387  1.5771
   51MOL0     H 6695   0.628   9.756   3.600  2.5626 -0.6434  1.7176
   51MOL0     H 6696   0.482   9.370   3.157  0.2901 -0.0088 -2.4075
   51MOL0     H 6697   0.285   9.273   3.058  2.8109 -0.1994  1.0936
   51MOL0     H 6698   0.005   9.481   2.833  0.2367  1.9842 -0.0245
   51MOL0     H 6699  -0.039   9.578   2.965  4.9295 -0.2150 -0.5323
   51MOL0     H 6700  -0.196   9.392   3.065  1.3662  2.2893  0.2620
   51MOL0     H 6701  -0.170   9.306   2.906 -4.4243  0.6025 -0.9026
   51MOL0     H 6702  -0.281   9.478   2.794  4.0917 -0.2414  0.3209
   51MOL0     H 6703  -0.319   9.571   2.949 -0.0841  0.2310 -0.1086
   51MOL0     H 6704  -0.497   9.432   2.859  2.5752  0.1501 -3.0182
   51MOL0     H 6705  -0.399   9.286   2.889  1.7733  0.7092  0.1768
   51MOL0     H 6706  -0.513   9.482   3.094 -1.8067  0.3187 -2.2669
   51MOL0     H 6707  -0.407   9.344   3.130  1.0230 -1.2738 -1.5639
   51MOL0     H 6708  -0.629   9.228   2.973  0.9070  0.8447 -0.2270
   51MOL0     H 6709  -0.706   9.367   3.055 -0.5860  0.4647 -0.5481
   51MOL0     H 6710  -0.545   9.151   3.208 -1.2234 -0.7554  1.1556
   51MOL0     H 6711  -0.640   9.291   3.271 -0.5638  1.6896 -1.0934
   51MOL0     H 6712  -0.855   9.208   3.193 -0.3875  0.8315  2.7404
   51MOL0     H 6713  -0.772   9.084   3.288 -1.5671  0.3897  0.1194
   51MOL0     H 6714   0.063   9.642   3.127 -1.5845 -1.4187 -1.3842
   51MOL0     H 6715   0.252   9.730   3.248 -3.2579 -1.4109  1.4780
   51MOL0     H 6716   0.647   9.817   3.184  1.6026  2.0919 -1.1954
   51MOL0     H 6717   0.848   9.937   3.197 -3.6080 -1.8700 -2.2545
   51MOL0     H 6718   0.198  10.652   3.768  2.1723 -1.2298 -0.0242
   51MOL0     H 6719   0.048  10.592   3.930  0.3216  1.7182 -2.1256
   51MOL0     H 6720  -0.169  10.581   4.274  0.4439  0.9019  0.0907
   51MOL0     H 6721  -0.355  10.492   4.366 -1.5170 -0.8448  1.5733
   51MOL0     H 6722  -0.317  10.254   4.757  2.0202  2.8115  1.3543
   51MOL0     H 6723  -0.499  10.278   4.739  0.7225 -0.1885  1.6874
   51MOL0     H 6724  -0.278  10.490   4.746  0.6715  0.2505  0.9999
   51MOL0     H 6725  -0.446  10.516   4.712 -0.1721 -1.5255 -1.9951
   51MOL0     H 6726  -0.491  10.435   4.968 -0.1163  0.7808  3.6177
   51MOL0     H 6727  -0.411  10.587   4.942  0.8887  0.9243 -0.1273
   51MOL0     H 6728  -0.275  10.315   4.963  1.6737 -1.2281 -0.6976
   51MOL0     H 6729  -0.191  10.474   4.974 -0.1754  0.6202 -0.1641
   51MOL0     H 6730  -0.406  10.344   5.341  0.9202  0.0522  1.3965
   51MOL0     H 6731  -0.136  10.242   4.624 -1.4485 -2.0334 -1.5797
   51MOL0     H 6732   0.079  10.365   4.558  1.1704  2.3896 -0.7285
   52MOL0     O 6733   4.427   4.572   9.239 -0.1566 -0.7620  0.7189
   52MOL0     C 6734   4.486   4.469   9.204 -0.3920 -0.0916  1.0731
   52MOL0     O 6735   4.440   4.337   9.222  0.6221  0.9778 -0.2096
   52MOL0     C 6736   4.318   4.336   9.278 -0.8591 -0.0644  0.6025
   52MOL0     C 6737   4.214   4.386   9.209 -0.3636 -1.8903  0.1793
   52MOL0     C 6738   4.088   4.401   9.258  0.2104 -0.2484 -0.5090
   52MOL0     C 6739   4.061   4.346   9.387  0.2263 -0.5251 -0.0182
   52MOL0     O 6740   3.938   4.336   9.451 -0.4867 -0.0412 -0.0351
   52MOL0     C 6741   3.829   4.402   9.383  0.5471 -0.9363 -0.3088
   52MOL0     C 6742   3.694   4.391   9.448 -1.1834 -0.4764  0.1423
   52MOL0     C 6743   3.650   4.243   9.432  0.0032 -0.1567 -0.0924
   52MOL0     C 6744   3.707   4.137   9.534  0.4500 -0.4257  0.4425
   52MOL0     C 6745   3.658   3.999   9.495  0.5423  0.9661 -0.5698
   52MOL0     C 6746   3.515   3.967   9.490  0.1419  0.0473 -0.1637
   52MOL0     C 6747   3.433   4.014   9.607  0.0942 -0.0756  0.6757
   52MOL0     C 6748   3.479   3.953   9.737 -0.1472 -0.2430  0.2881
   52MOL0     N 6749   3.365   3.920   9.836  0.4262 -0.1065 -0.5006
   52MOL0     C 6750   3.295   4.019   9.887 -0.7967 -0.5329 -0.5892
   52MOL0     C 6751   3.192   3.962   9.949 -0.1276 -0.4175  0.0198
   52MOL0     C 6752   3.091   4.034  10.040 -0.4936  0.2255  0.3002
   52MOL0     C 6753   3.088   3.984  10.194 -0.2908  0.3320 -0.4814
   52MOL0     C 6754   3.067   3.832  10.219  0.3774  0.8499 -1.4000
   52MOL0     C 6755   3.069   3.810  10.379  0.5250 -0.2027 -0.1496
   52MOL0     O 6756   2.933   3.825  10.429 -0.0347 -0.1261 -0.2342
   52MOL0     C 6757   2.839   3.728  10.421 -0.1671 -0.4110 -0.1158
   52MOL0     C 6758   2.703   3.762  10.465 -0.0165  0.3360  0.3020
   52MOL0     C 6759   2.602   3.670  10.466  0.1297 -0.2355  0.1450
   52MOL0     C 6760   2.624   3.538  10.434 -0.1080  0.0572  0.2313
   52MOL0     C 6761   2.520   3.425  10.447  0.4088  0.6407 -0.3424
   52MOL0     O 6762   2.440   3.456  10.556 -0.6383 -0.4651  0.0502
   52MOL0     C 6763   2.338   3.372  10.585  0.1101  0.4982 -0.1368
   52MOL0     C 6764   2.335   3.234  10.570  0.2512  0.9049  0.4692
   52MOL0     C 6765   2.230   3.157  10.608  1.0200  0.6741 -0.0783
   52MOL0     C 6766   2.119   3.214  10.676  0.3577 -0.0510  0.2006
   52MOL0     O 6767   2.020   3.136  10.723  0.1096  0.0208 -0.1352
   52MOL0     C 6768   1.976   3.156  10.861  0.1039 -0.1678  0.5396
   52MOL0     C 6769   1.854   3.062  10.893 -0.4422 -0.6797 -0.0139
   52MOL0     C 6770   1.891   2.908  10.881  0.0328  0.2553  0.1355
   52MOL0     C 6771   1.778   2.802  10.888 -0.3681  0.0517  0.2316
   52MOL0     C 6772   1.826   2.658  10.927 -0.4558  0.2213  0.1501
   52MOL0     C 6773   1.711   2.559  10.938  0.7121  0.3228  0.0325
   52MOL0     C 6774   1.618   2.576  11.056 -0.3711 -0.3787 -0.1560
   52MOL0     C 6775   1.556   2.437  11.097  0.6691 -1.0696  0.1940
   52MOL0    Cl 6776   1.390   2.464  11.159 -0.0007  0.1098  0.2593
   52MOL0     C 6777   2.123   3.355  10.702 -0.4942  1.1407  0.5834
   52MOL0     C 6778   2.238   3.432  10.661 -0.3892 -0.1432 -0.3112
   52MOL0     O 6779   2.542   3.316  10.397 -0.3560  0.4309  0.5308
   52MOL0     C 6780   2.754   3.505  10.387  0.8656 -0.2451  0.1120
   52MOL0     C 6781   2.861   3.599  10.380  0.6971 -0.5390  0.2354
   52MOL0     N 6782   3.206   3.820   9.927 -0.1807  0.5663 -0.0337
   52MOL0     N 6783   3.314   3.797   9.861  1.0178  0.0416 -0.0884
   52MOL0     C 6784   4.166   4.287   9.456  0.4347 -0.3381 -0.6535
   52MOL0     C 6785   4.295   4.278   9.398  0.2578 -0.1335  0.2472
   52MOL0     C 6786   4.615   4.486   9.128  0.4705 -0.1253 -0.6118
   52MOL0     C 6787   4.679   4.378   9.065  0.8676 -0.1169  0.3869
   52MOL0     C 6788   4.791   4.394   8.990 -0.3459 -0.3387  1.0415
   52MOL0     C 6789   4.861   4.521   8.983 -0.7364 -0.0198  0.8913
   52MOL0     O 6790   4.972   4.531   8.911  0.0085 -0.3343  0.6977
   52MOL0     C 6791   5.027   4.661   8.885  0.9103  0.4671 -0.1317
   52MOL0     C 6792   5.153   4.646   8.797 -0.2750  0.0623  0.0045
   52MOL0     C 6793   5.250   4.767   8.784 -0.9321 -0.1660 -0.2011
   52MOL0     C 6794   5.359   4.761   8.672 -0.0936  0.5691  0.1486
   52MOL0     C 6795   5.442   4.637   8.695  0.2567  0.2638  0.5064
   52MOL0     C 6796   5.497   4.537   8.717 -0.7325  0.4983  0.2759
   52MOL0     C 6797   4.798   4.630   9.055 -0.7060 -0.2588  0.9527
   52MOL0     C 6798   4.680   4.608   9.121 -0.9893 -0.1032  0.3879
   52MOL0     H 6799   4.220   4.431   9.110 -2.2802 -1.0640  0.3874
   52MOL0     H 6800   4.007   4.443   9.197 -0.3133  1.1210  1.0518
   52MOL0     H 6801   3.822   4.380   9.276 -0.8071 -1.0282 -0.2093
   52MOL0     H 6802   3.867   4.504   9.392  2.6655 -1.5627 -1.4297
   52MOL0     H 6803   3.625   4.457   9.396 -1.6606 -1.2805 -0.2689
   52MOL0     H 6804   3.700   4.421   9.554  0.1745 -1.4611  0.3791
   52MOL0     H 6805   3.676   4.207   9.332  0.5000  1.2044 -0.4789
   52MOL0     H 6806   3.541   4.245   9.428  0.0207  0.9267 -0.4161
   52MOL0     H 6807   3.817   4.141   9.536  0.4842 -0.4724 -0.7333
   52MOL0     H 6808   3.666   4.153   9.634 -2.0909 -0.9042 -0.4479
   52MOL0     H 6809   3.695   3.931   9.573 -3.1067  0.4469  0.9338
   52MOL0     H 6810   3.708   3.983   9.399  2.2644  0.5841  0.3409
   52MOL0     H 6811   3.487   3.865   9.462 -2.5966  0.3173  1.2504
   52MOL0     H 6812   3.479   4.025   9.404  0.6410  2.2362  1.0147
   52MOL0     H 6813   3.435   4.123   9.613 -1.4325 -0.0629  1.5892
   52MOL0     H 6814   3.329   3.984   9.591  0.5241 -0.7657 -1.0210
   52MOL0     H 6815   3.540   4.036   9.776 -3.4378  3.7313 -2.1821
   52MOL0     H 6816   3.540   3.862   9.734  0.3562 -0.1335  3.6697
   52MOL0     H 6817   3.315   4.125   9.892  0.0525 -0.7317  0.6802
   52MOL0     H 6818   2.994   4.036   9.990  0.4901 -2.4151 -1.9873
   52MOL0     H 6819   3.131   4.135  10.036 -3.1297  1.2835 -3.0902
   52MOL0     H 6820   3.022   4.045  10.257 -0.4521 -2.0347  1.8182
   52MOL0     H 6821   3.193   4.001  10.218 -0.2812 -0.8486  0.3725
   52MOL0     H 6822   2.970   3.805  10.175 -0.2806  0.4105  0.2556
   52MOL0     H 6823   3.156   3.780  10.184  1.9096  1.7517  0.9106
   52MOL0     H 6824   3.131   3.886  10.427  2.5955 -2.1069  0.3602
   52MOL0     H 6825   3.114   3.715  10.410  3.0767  0.9140 -0.2152
   52MOL0     H 6826   2.681   3.867  10.484  1.9862  0.8211  0.0968
   52MOL0     H 6827   2.501   3.704  10.486  0.1485 -0.0200 -0.1337
   52MOL0     H 6828   2.416   3.177  10.525 -0.5136 -1.9605  2.4507
   52MOL0     H 6829   2.218   3.052  10.582 -1.5986  1.0809 -0.8624
   52MOL0     H 6830   1.927   3.253  10.876  0.9334  0.2181  0.7997
   52MOL0     H 6831   2.045   3.141  10.945 -1.9227 -0.0682  2.2946
   52MOL0     H 6832   1.784   3.088  10.812 -0.9144  0.4488  0.7286
   52MOL0     H 6833   1.809   3.080  10.991 -0.7797  1.1942 -0.4672
   52MOL0     H 6834   1.956   2.881  10.965 -1.3630 -2.2184  0.4957
   52MOL0     H 6835   1.955   2.886  10.795 -1.8168 -1.2253 -0.9287
   52MOL0     H 6836   1.704   2.838  10.960 -0.7475  1.9540 -1.0274
   52MOL0     H 6837   1.734   2.797  10.788  1.7447  0.7906 -0.8092
   52MOL0     H 6838   1.883   2.665  11.020 -1.4456  0.5161  0.7451
   52MOL0     H 6839   1.905   2.619  10.862 -2.7075 -1.7416 -1.6004
   52MOL0     H 6840   1.751   2.457  10.943  0.7026  0.3259  0.2008
   52MOL0     H 6841   1.638   2.560  10.857 -1.7608 -1.4613  2.0764
   52MOL0     H 6842   1.675   2.618  11.139 -2.2789  1.2969  0.3927
   52MOL0     H 6843   1.547   2.656  11.033  0.6823  1.2891  1.9904
   52MOL0     H 6844   1.630   2.393  11.165  1.5514  0.1091  0.0286
   52MOL0     H 6845   1.546   2.378  11.006  0.7284  1.3515 -1.4590
   52MOL0     H 6846   2.037   3.412  10.735 -0.5920  0.9098  0.7259
   52MOL0     H 6847   2.250   3.536  10.691  0.9841 -0.8837  1.9696
   52MOL0     H 6848   2.775   3.400  10.365  0.9392 -0.3596  0.7175
   52MOL0     H 6849   2.956   3.577  10.334  0.3485 -0.9940 -0.2826
   52MOL0     H 6850   4.154   4.231   9.548  1.7050 -0.8083 -0.7395
   52MOL0     H 6851   4.368   4.217   9.450 -1.1021  0.4729  3.0670
   52MOL0     H 6852   4.643   4.276   9.077  2.4877 -0.7759 -0.1683
   52MOL0     H 6853   4.844   4.309   8.949 -0.3852 -0.4316  1.1815
   52MOL0     H 6854   5.059   4.703   8.981  1.5273 -0.3805  0.0367
   52MOL0     H 6855   4.947   4.726   8.847 -0.9038 -0.6005  1.6104
   52MOL0     H 6856   5.206   4.553   8.820 -1.2656 -0.9414 -1.5575
   52MOL0     H 6857   5.103   4.631   8.700  1.5915 -0.1468 -0.9729
   52MOL0     H 6858   5.295   4.772   8.884  0.1224 -3.6319 -0.3689
   52MOL0     H 6859   5.186   4.851   8.757  0.9062  0.8532 -1.6119
   52MOL0     H 6860   5.309   4.758   8.575 -2.3696  0.4870  1.2688
   52MOL0     H 6861   5.428   4.846   8.676  1.2750 -0.4103 -1.1216
   52MOL0     H 6862   5.544   4.442   8.731 -0.6537  0.6764  1.3125
   52MOL0     H 6863   4.848   4.725   9.072  2.2485 -1.8075  1.4219
   52MOL0     H 6864   4.630   4.699   9.153  0.6430  0.3405  1.8009
   53MOL0     O 6865  10.996   7.907   7.025  0.5968  0.1835 -0.2556
   53MOL0     C 6866  11.068   7.833   6.961  0.1155 -0.0022 -0.5061
   53MOL0     O 6867  11.042   7.769   6.842 -0.0964 -0.2192 -0.9242
   53MOL0     C 6868  10.912   7.740   6.816  0.3393  0.3515  0.5776
   53MOL0     C 6869  10.844   7.645   6.890  0.1611 -0.0254  1.0106
   53MOL0     C 6870  10.707   7.622   6.875 -0.6449 -0.3074  0.2416
   53MOL0     C 6871  10.648   7.683   6.763  0.0180  0.4279  0.7887
   53MOL0     O 6872  10.522   7.649   6.715  0.3453 -0.2442  0.0417
   53MOL0     C 6873  10.459   7.522   6.744  0.0310  0.1531  0.3750
   53MOL0     C 6874  10.364   7.489   6.622 -0.0448  0.3868 -0.1775
   53MOL0     C 6875  10.220   7.551   6.636  1.0150 -0.1517 -0.4824
   53MOL0     C 6876  10.124   7.493   6.532 -0.4411 -0.5785  0.2615
   53MOL0     C 6877   9.996   7.574   6.524  0.0475 -0.9149 -0.2198
   53MOL0     C 6878   9.886   7.521   6.426 -0.8380 -0.5602  0.4396
   53MOL0     C 6879   9.803   7.633   6.361 -1.0475 -0.2586  0.8409
   53MOL0     C 6880   9.734   7.743   6.457 -0.5434 -0.1758  1.0902
   53MOL0     N 6881   9.641   7.830   6.375 -0.2575  0.5837  0.1396
   53MOL0     C 6882   9.504   7.799   6.373  0.2948 -0.4313  0.0456
   53MOL0     C 6883   9.445   7.914   6.346  0.3075 -0.3918 -0.5048
   53MOL0     C 6884   9.304   7.948   6.337  0.2422 -0.1993 -0.1861
   53MOL0     C 6885   9.263   7.996   6.196  0.3065 -0.3027 -0.0988
   53MOL0     C 6886   9.111   8.035   6.198 -0.5036 -0.0249  0.1116
   53MOL0     C 6887   9.016   7.917   6.171 -0.8432 -0.6492  0.0790
   53MOL0     O 6888   8.889   7.969   6.179  0.3083  0.5446 -1.0200
   53MOL0     C 6889   8.789   7.874   6.165 -0.2726 -0.2905  0.3794
   53MOL0     C 6890   8.677   7.942   6.127  0.0104  0.3404  0.3449
   53MOL0     C 6891   8.555   7.872   6.103  0.2532 -0.2964 -1.1781
   53MOL0     C 6892   8.545   7.738   6.140 -0.1903 -0.6651 -0.9091
   53MOL0     C 6893   8.411   7.674   6.161  1.1235 -0.4531  0.4095
   53MOL0     O 6894   8.296   7.740   6.121 -0.1767 -0.1222 -0.8310
   53MOL0     C 6895   8.170   7.685   6.119 -0.6661  0.2284 -0.4740
   53MOL0     C 6896   8.124   7.582   6.204 -0.7905 -0.0458  0.5004
   53MOL0     C 6897   7.995   7.534   6.195  1.0043  0.3022 -0.0154
   53MOL0     C 6898   7.899   7.588   6.105 -0.0937 -0.4248  0.0409
   53MOL0     O 6899   7.773   7.531   6.104 -0.1108  0.3350  0.4688
   53MOL0     C 6900   7.667   7.596   6.035  0.0722 -0.4404 -0.2677
   53MOL0     C 6901   7.530   7.565   6.108  0.1844 -0.8543  0.3140
   53MOL0     C 6902   7.420   7.623   6.026  0.3388 -0.4710 -0.0087
   53MOL0     C 6903   7.280   7.609   6.086  0.8969  0.9710  0.8357
   53MOL0     C 6904   7.254   7.646   6.239 -0.3941 -0.6939  0.4206
   53MOL0     C 6905   7.112   7.594   6.286  0.2725 -0.2065 -0.7877
   53MOL0     C 6906   7.079   7.625   6.436 -0.1740  0.3974  0.1961
   53MOL0     C 6907   6.945   7.571   6.465  0.0034  0.2992 -0.9355
   53MOL0    Cl 6908   6.917   7.564   6.646  0.3496  0.0218 -0.5034
   53MOL0     C 6909   7.940   7.689   6.021 -0.7554  0.2613 -0.0307
   53MOL0     C 6910   8.074   7.730   6.028  0.4842  0.2057 -0.7923
   53MOL0     O 6911   8.414   7.560   6.198  0.1007  0.0554  0.6293
   53MOL0     C 6912   8.664   7.671   6.183  0.6043 -0.7533 -0.1410
   53MOL0     C 6913   8.785   7.741   6.193 -0.1045 -0.2916  0.2043
   53MOL0     N 6914   9.539   8.010   6.326 -0.7346 -0.7917  0.6018
   53MOL0     N 6915   9.659   7.961   6.353  0.6358 -0.3430  1.2017
   53MOL0     C 6916  10.710   7.780   6.688 -0.1862  0.5500 -0.0985
   53MOL0     C 6917  10.844   7.807   6.712  0.0130 -0.3920  0.3100
   53MOL0     C 6918  11.202   7.810   7.024 -1.1794 -0.1722  0.4289
   53MOL0     C 6919  11.286   7.707   6.981 -0.3464 -0.1802  0.7527
   53MOL0     C 6920  11.423   7.698   7.027  0.1029  0.0191 -0.0217
   53MOL0     C 6921  11.477   7.803   7.097  0.0709  0.1656 -0.2718
   53MOL0     O 6922  11.607   7.804   7.135 -0.5095 -0.0210 -0.0532
   53MOL0     C 6923  11.706   7.743   7.051 -0.3441  0.3771  0.2115
   53MOL0     C 6924  11.847   7.809   7.057 -0.5147  0.0702  0.0387
   53MOL0     C 6925  11.927   7.743   7.166 -0.4521  0.1653 -0.1226
   53MOL0     C 6926  12.071   7.780   7.172  0.0398 -0.2239  0.8014
   53MOL0     C 6927  12.163   7.708   7.084 -0.0158  0.5473 -0.2241
   53MOL0     C 6928  12.221   7.634   7.008 -0.0342  0.1440 -0.0738
   53MOL0     C 6929  11.397   7.910   7.141 -0.2056 -0.5041  0.3458
   53MOL0     C 6930  11.260   7.910   7.107  0.3579 -0.6315  0.1916
   53MOL0     H 6931  10.903   7.589   6.962  0.6186 -1.6589 -0.5427
   53MOL0     H 6932  10.663   7.540   6.932  0.5434 -2.2834 -1.5463
   53MOL0     H 6933  10.404   7.528   6.838 -0.0915 -3.4864  0.6465
   53MOL0     H 6934  10.541   7.450   6.754  0.1562  0.3797  1.0745
   53MOL0     H 6935  10.358   7.381   6.610  1.3229  0.3587 -0.8779
   53MOL0     H 6936  10.407   7.533   6.531 -2.4746  2.0803 -0.5990
   53MOL0     H 6937  10.224   7.660   6.630 -0.1023 -0.1801 -2.3233
   53MOL0     H 6938  10.187   7.516   6.735  3.3154 -1.2702 -0.0416
   53MOL0     H 6939  10.166   7.480   6.432 -0.2657  0.2076  0.2272
   53MOL0     H 6940  10.092   7.394   6.567 -0.2582  0.0794  2.4628
   53MOL0     H 6941  10.022   7.677   6.500 -1.4337 -0.8771 -1.8630
   53MOL0     H 6942   9.952   7.570   6.624 -3.3677  0.4720 -1.4986
   53MOL0     H 6943   9.815   7.457   6.480 -1.5539  0.1244  0.3222
   53MOL0     H 6944   9.928   7.461   6.344  0.4043 -0.8649  1.2655
   53MOL0     H 6945   9.876   7.674   6.290 -1.4347  0.5737  0.9094
   53MOL0     H 6946   9.719   7.581   6.312 -1.1095  0.7837 -0.2184
   53MOL0     H 6947   9.801   7.809   6.512 -0.5358 -0.0871  0.9761
   53MOL0     H 6948   9.683   7.690   6.537  1.0648 -0.7869  1.7586
   53MOL0     H 6949   9.446   7.712   6.401 -0.1253 -0.6002 -1.2705
   53MOL0     H 6950   9.285   8.027   6.410  0.0180  1.6683 -2.1799
   53MOL0     H 6951   9.240   7.864   6.365 -3.1269  2.0801 -0.6125
   53MOL0     H 6952   9.277   7.919   6.119  2.0825  0.8503 -0.9861
   53MOL0     H 6953   9.327   8.079   6.166 -0.5110  1.1343  1.9408
   53MOL0     H 6954   9.093   8.087   6.292  1.0613  0.9830 -0.1034
   53MOL0     H 6955   9.095   8.117   6.127  0.8954  1.0162  0.9455
   53MOL0     H 6956   9.042   7.837   6.240 -0.5066 -1.6637 -1.1916
   53MOL0     H 6957   9.040   7.879   6.071  1.2596 -0.3884  0.4439
   53MOL0     H 6958   8.689   8.045   6.095  0.6581 -0.1210 -0.9693
   53MOL0     H 6959   8.469   7.930   6.070  1.8351  1.9832 -1.5705
   53MOL0     H 6960   8.188   7.528   6.273  2.9630  2.4939 -0.6551
   53MOL0     H 6961   7.969   7.451   6.260  1.0581  2.2834  2.7451
   53MOL0     H 6962   7.661   7.576   5.928 -0.8806 -2.2622  0.0874
   53MOL0     H 6963   7.684   7.704   6.045  0.3101 -0.5287  0.3133
   53MOL0     H 6964   7.527   7.612   6.206  0.3033  0.5124 -0.3211
   53MOL0     H 6965   7.528   7.455   6.110 -0.5455 -0.8932 -1.2589
   53MOL0     H 6966   7.419   7.586   5.923 -4.0570  1.4299 -0.9030
   53MOL0     H 6967   7.424   7.731   6.012 -1.5258  0.3873  4.2867
   53MOL0     H 6968   7.211   7.663   6.020  1.7921  0.0260 -0.9248
   53MOL0     H 6969   7.267   7.501   6.081  0.3897  1.0573  0.1868
   53MOL0     H 6970   7.271   7.754   6.242 -1.6821 -0.4245 -0.8527
   53MOL0     H 6971   7.329   7.599   6.304  0.5266 -1.4421 -1.1339
   53MOL0     H 6972   7.116   7.485   6.276 -1.3014 -0.4511  0.8788
   53MOL0     H 6973   7.042   7.639   6.214 -0.0998  0.1820 -0.1884
   53MOL0     H 6974   7.156   7.566   6.487 -0.5437 -1.4697 -1.3271
   53MOL0     H 6975   7.089   7.732   6.459 -0.2820  1.0260 -2.4581
   53MOL0     H 6976   6.941   7.466   6.434  1.0373  0.1083 -0.4384
   53MOL0     H 6977   6.864   7.621   6.410  0.8530  1.1492 -1.4401
   53MOL0     H 6978   7.885   7.720   5.932  0.6040 -1.8362 -1.6751
   53MOL0     H 6979   8.112   7.807   5.961 -1.9172  2.3067  0.0686
   53MOL0     H 6980   8.641   7.570   6.214 -1.3302 -0.4813 -0.5272
   53MOL0     H 6981   8.871   7.690   6.233  0.0886  1.5332  2.2901
   53MOL0     H 6982  10.656   7.842   6.617 -1.2282  1.0191  1.0510
   53MOL0     H 6983  10.893   7.882   6.652 -0.9601  0.7468  0.8968
   53MOL0     H 6984  11.247   7.632   6.912  0.0779  0.5241 -0.2770
   53MOL0     H 6985  11.482   7.607   7.020 -0.7942 -0.5391 -0.5078
   53MOL0     H 6986  11.671   7.758   6.948 -1.3369  1.1871  0.6427
   53MOL0     H 6987  11.716   7.634   7.053  0.5346  0.4544  0.2319
   53MOL0     H 6988  11.904   7.791   6.965  0.9741 -1.7771  1.2412
   53MOL0     H 6989  11.845   7.915   7.084  2.6965  1.1763 -3.2870
   53MOL0     H 6990  11.904   7.636   7.166  0.6886 -0.1073 -1.2513
   53MOL0     H 6991  11.887   7.788   7.258 -0.5308 -0.7566  0.3031
   53MOL0     H 6992  12.080   7.886   7.146 -1.1764 -0.8527 -2.7970
   53MOL0     H 6993  12.102   7.770   7.276  1.1717 -2.5065  0.3078
   53MOL0     H 6994  12.273   7.555   6.958 -0.1641 -0.1339  0.2286
   53MOL0     H 6995  11.451   7.993   7.185 -1.6464  1.2034 -0.9887
   53MOL0     H 6996  11.209   7.999   7.144 -2.8295 -2.5741  0.8296
   54MOL0     O 6997   2.425   7.938   5.980 -0.8717 -0.6212  0.5834
   54MOL0     C 6998   2.548   7.906   5.999 -0.6059  0.0254  0.0446
   54MOL0     O 6999   2.589   7.791   6.058  0.0011 -0.4189  0.5913
   54MOL0     C 7000   2.494   7.709   6.106 -0.1588  0.3285 -0.6459
   54MOL0     C 7001   2.492   7.673   6.246 -0.0196 -0.6648 -0.2002
   54MOL0     C 7002   2.391   7.599   6.303 -0.2625  0.3292  0.3382
   54MOL0     C 7003   2.299   7.527   6.215 -0.0111  0.2363 -0.5261
   54MOL0     O 7004   2.206   7.445   6.275 -1.0706 -0.1690  0.1607
   54MOL0     C 7005   2.149   7.342   6.186  0.1511  0.1012 -1.1533
   54MOL0     C 7006   2.075   7.244   6.277 -0.5940  0.4486  0.0701
   54MOL0     C 7007   1.940   7.306   6.316  0.6217  0.0152 -0.0393
   54MOL0     C 7008   1.851   7.214   6.405 -0.7723 -0.2400  0.8554
   54MOL0     C 7009   1.706   7.273   6.416  0.3122 -0.2738 -0.8650
   54MOL0     C 7010   1.605   7.161   6.406  0.5142  0.0174  0.0804
   54MOL0     C 7011   1.463   7.210   6.398  0.0937 -0.2498  0.6325
   54MOL0     C 7012   1.414   7.220   6.260  0.4083 -0.0854 -0.4112
   54MOL0     N 7013   1.277   7.271   6.246  0.0930  0.0979  0.0576
   54MOL0     C 7014   1.238   7.403   6.240 -0.2460 -0.0254 -0.6912
   54MOL0     C 7015   1.095   7.404   6.244 -1.5783  0.3300  0.0472
   54MOL0     C 7016   1.001   7.515   6.264  0.3462 -0.2765 -0.0484
   54MOL0     C 7017   0.852   7.484   6.211 -0.6238  0.6970  0.0260
   54MOL0     C 7018   0.771   7.387   6.299  0.2135 -0.2309 -0.0910
   54MOL0     C 7019   0.630   7.369   6.238 -0.4644  0.0296 -0.0060
   54MOL0     O 7020   0.571   7.497   6.264  0.1202  0.3219  0.5320
   54MOL0     C 7021   0.431   7.515   6.248 -0.0894 -0.4209  0.1370
   54MOL0     C 7022   0.358   7.622   6.309 -0.5638  0.6179 -0.0525
   54MOL0     C 7023   0.226   7.649   6.283  0.9332  0.1215 -0.0650
   54MOL0     C 7024   0.151   7.566   6.202 -0.0760  0.6913  0.0416
   54MOL0     C 7025   0.002   7.602   6.171 -0.3110  0.8680 -0.0030
   54MOL0     O 7026  -0.051   7.709   6.230  0.4782  0.4047 -0.1492
   54MOL0     C 7027  -0.181   7.730   6.243  0.0768 -0.1398  0.1894
   54MOL0     C 7028  -0.281   7.666   6.162 -0.2208 -1.3549 -0.3532
   54MOL0     C 7029  -0.415   7.715   6.165  0.2191  0.0722 -0.3280
   54MOL0     C 7030  -0.459   7.813   6.259 -0.0842  0.2667 -0.3626
   54MOL0     O 7031  -0.590   7.860   6.258 -0.7096  0.5379  0.2784
   54MOL0     C 7032  -0.696   7.769   6.243  0.4836 -0.3045  0.0017
   54MOL0     C 7033  -0.828   7.846   6.265 -0.6860 -0.1300 -0.0576
   54MOL0     C 7034  -0.859   7.875   6.410  0.1901 -0.2160 -0.0652
   54MOL0     C 7035  -0.956   7.992   6.441 -0.3175  1.1940  1.0251
   54MOL0     C 7036  -0.979   8.000   6.593  0.5052 -0.9979 -0.4760
   54MOL0     C 7037  -0.866   8.090   6.651 -0.8621  0.2761 -0.1610
   54MOL0     C 7038  -0.875   8.097   6.810 -0.3042  0.3327  0.2265
   54MOL0     C 7039  -0.755   8.035   6.890 -0.9920  0.2175  0.0899
   54MOL0    Cl 7040  -0.782   8.087   7.062 -0.0971 -0.1791  0.1331
   54MOL0     C 7041  -0.362   7.867   6.345 -0.0120 -0.0634 -0.1605
   54MOL0     C 7042  -0.226   7.825   6.339 -0.4365  0.2344  0.1344
   54MOL0     O 7043  -0.049   7.516   6.104  0.5046 -0.0081  0.2197
   54MOL0     C 7044   0.222   7.458   6.141  0.2117 -0.6257 -0.4698
   54MOL0     C 7045   0.356   7.422   6.171 -0.2946 -0.5756 -0.4039
   54MOL0     N 7046   1.057   7.269   6.252  0.1256  0.2055 -0.0666
   54MOL0     N 7047   1.159   7.195   6.247  0.4745  0.6395  0.1162
   54MOL0     C 7048   2.308   7.554   6.077 -0.5382  0.2127  0.3982
   54MOL0     C 7049   2.409   7.641   6.020 -0.0556  0.0269 -0.3208
   54MOL0     C 7050   2.648   8.013   5.994 -0.6974  1.1073 -0.5590
   54MOL0     C 7051   2.781   7.990   6.036 -0.0029  0.7353 -0.5213
   54MOL0     C 7052   2.868   8.093   6.029 -0.7847 -0.7142  0.2911
   54MOL0     C 7053   2.828   8.226   5.986 -0.3028 -0.2327  0.0559
   54MOL0     O 7054   2.928   8.318   5.973 -0.7326  0.0461 -0.0947
   54MOL0     C 7055   2.911   8.443   5.919  0.0078  0.2504  0.3787
   54MOL0     C 7056   3.031   8.534   5.927 -0.0984  0.5072  0.4823
   54MOL0     C 7057   3.159   8.467   5.872  0.4176  0.2194  0.3195
   54MOL0     C 7058   3.287   8.547   5.890  1.3474 -0.0879 -0.3072
   54MOL0     C 7059   3.407   8.479   5.846 -0.1948 -0.0250 -0.4350
   54MOL0     C 7060   3.514   8.419   5.844  0.0620 -0.1851 -0.7797
   54MOL0     C 7061   2.698   8.247   5.950  0.1498 -0.1726 -1.0881
   54MOL0     C 7062   2.607   8.141   5.950 -1.1103  0.4412  0.2241
   54MOL0     H 7063   2.566   7.727   6.304 -0.2952 -1.6368  1.0888
   54MOL0     H 7064   2.395   7.585   6.410  0.4507  2.2471  0.6019
   54MOL0     H 7065   2.225   7.274   6.147 -0.2970 -2.0434  1.4641
   54MOL0     H 7066   2.077   7.387   6.116 -2.7299  0.8738  2.0594
   54MOL0     H 7067   2.137   7.224   6.365 -1.7989  0.4345  0.9439
   54MOL0     H 7068   2.060   7.155   6.216  1.2053 -0.5866  1.0619
   54MOL0     H 7069   1.886   7.325   6.223  1.8281  1.1391 -0.5394
   54MOL0     H 7070   1.946   7.396   6.379  2.9919  1.7394 -2.5196
   54MOL0     H 7071   1.852   7.112   6.365  0.3862  1.3625 -3.8367
   54MOL0     H 7072   1.897   7.220   6.504  2.3286  2.6093 -0.5736
   54MOL0     H 7073   1.686   7.358   6.349  3.0445 -0.1888 -1.6729
   54MOL0     H 7074   1.706   7.316   6.517 -1.1096 -2.1393 -0.0054
   54MOL0     H 7075   1.620   7.080   6.478  1.9543 -2.9676 -3.2546
   54MOL0     H 7076   1.628   7.106   6.314  2.4393  2.2358 -0.8947
   54MOL0     H 7077   1.401   7.134   6.447 -1.7406  0.8555  0.1008
   54MOL0     H 7078   1.449   7.307   6.445  0.5290  1.4873 -2.5770
   54MOL0     H 7079   1.420   7.120   6.216 -0.9275 -0.6601  0.6450
   54MOL0     H 7080   1.472   7.294   6.204 -0.1017  2.6725  2.3906
   54MOL0     H 7081   1.293   7.496   6.250 -1.8807  0.9279 -0.0095
   54MOL0     H 7082   1.041   7.585   6.190  0.6940  0.1467  0.5334
   54MOL0     H 7083   0.997   7.550   6.368 -1.9969  1.5115 -0.6465
   54MOL0     H 7084   0.865   7.445   6.109  0.1584 -1.5451  0.9186
   54MOL0     H 7085   0.796   7.578   6.202  1.4074  1.8341 -2.0009
   54MOL0     H 7086   0.814   7.287   6.300 -1.7814 -1.1360 -0.1660
   54MOL0     H 7087   0.774   7.426   6.402  3.6475 -2.3113  0.7835
   54MOL0     H 7088   0.590   7.283   6.294 -1.4119  0.5301  0.1021
   54MOL0     H 7089   0.650   7.348   6.133  0.1958  0.4889  0.0201
   54MOL0     H 7090   0.407   7.690   6.378 -0.2684  0.1894  0.1599
   54MOL0     H 7091   0.180   7.736   6.330  0.1700  0.5629 -1.5582
   54MOL0     H 7092  -0.260   7.593   6.085 -0.8580  0.7555 -2.6248
   54MOL0     H 7093  -0.480   7.673   6.089  0.5704 -0.3729 -0.3854
   54MOL0     H 7094  -0.682   7.681   6.306 -0.7717 -3.3659 -3.5899
   54MOL0     H 7095  -0.712   7.739   6.139 -1.7793 -3.4294  1.1017
   54MOL0     H 7096  -0.905   7.789   6.213  1.1849 -1.6374 -1.3596
   54MOL0     H 7097  -0.815   7.944   6.219  0.9008  1.4644  3.3942
   54MOL0     H 7098  -0.763   7.906   6.451  0.9522 -3.0064  0.4440
   54MOL0     H 7099  -0.898   7.783   6.455 -0.6948  0.9343  1.6903
   54MOL0     H 7100  -0.931   8.086   6.392  2.4317 -1.0365 -2.3256
   54MOL0     H 7101  -1.052   7.973   6.394  0.0176  2.0422 -0.0485
   54MOL0     H 7102  -0.982   7.903   6.643 -0.9766 -0.0972  1.3008
   54MOL0     H 7103  -1.073   8.052   6.616 -1.0609 -3.3645 -1.1558
   54MOL0     H 7104  -0.879   8.188   6.604 -2.1415 -0.9254 -2.4673
   54MOL0     H 7105  -0.773   8.042   6.618 -2.1539 -1.4574 -1.3707
   54MOL0     H 7106  -0.885   8.197   6.852 -1.6628 -0.0237  0.8032
   54MOL0     H 7107  -0.962   8.038   6.841  0.6340 -1.1904  0.1113
   54MOL0     H 7108  -0.660   8.081   6.860 -0.3480 -0.6806  0.6984
   54MOL0     H 7109  -0.736   7.928   6.879  1.2607  0.4305  1.4589
   54MOL0     H 7110  -0.395   7.936   6.423 -0.2999 -0.1525 -0.2028
   54MOL0     H 7111  -0.150   7.870   6.402  1.4407 -0.1371 -1.7641
   54MOL0     H 7112   0.174   7.391   6.071 -2.2909 -0.9761  1.4373
   54MOL0     H 7113   0.402   7.340   6.117  0.7180 -0.4371  0.2273
   54MOL0     H 7114   2.248   7.503   6.002  0.7548 -0.9050  0.0829
   54MOL0     H 7115   2.410   7.660   5.914  0.5966 -2.8589 -0.9149
   54MOL0     H 7116   2.810   7.891   6.069 -2.2549  0.2240  0.1042
   54MOL0     H 7117   2.975   8.076   6.039 -0.6241 -0.2670 -0.5632
   54MOL0     H 7118   2.830   8.491   5.975 -1.4788 -1.4943 -0.1650
   54MOL0     H 7119   2.864   8.425   5.822 -0.1834 -0.4318  0.5898
   54MOL0     H 7120   3.008   8.622   5.867 -1.5615  0.3714  0.8146
   54MOL0     H 7121   3.057   8.570   6.026  2.5497  0.0608  0.0450
   54MOL0     H 7122   3.138   8.452   5.765  0.0523  1.2952  0.2252
   54MOL0     H 7123   3.178   8.374   5.925 -2.7384 -0.3811  0.5708
   54MOL0     H 7124   3.271   8.643   5.841 -0.0579 -0.0012  0.2670
   54MOL0     H 7125   3.297   8.578   5.995  0.2979 -1.6663  0.2943
   54MOL0     H 7126   3.602   8.358   5.834  1.4645  1.0363  2.5515
   54MOL0     H 7127   2.660   8.340   5.909 -3.3565 -1.7350 -1.8434
   54MOL0     H 7128   2.510   8.175   5.915 -0.2207  0.5898 -2.3115
   55MOL0     O 7129   4.222   2.171   1.091 -0.3370  0.7862 -1.0596
   55MOL0     C 7130   4.233   2.269   1.169  0.5556 -0.2060  0.0356
   55MOL0     O 7131   4.148   2.373   1.173 -0.6571  0.3921 -0.2257
   55MOL0     C 7132   4.049   2.377   1.079  0.0072  0.5721  0.1758
   55MOL0     C 7133   4.079   2.385   0.938 -0.3259 -0.4410  0.6911
   55MOL0     C 7134   3.978   2.371   0.846 -0.5188  0.0759 -0.5774
   55MOL0     C 7135   3.845   2.364   0.884  0.6026 -0.5730  0.7034
   55MOL0     O 7136   3.737   2.340   0.801  0.5090 -0.4014  0.8426
   55MOL0     C 7137   3.743   2.294   0.665  0.7572  0.2063  0.5001
   55MOL0     C 7138   3.608   2.285   0.604  0.2082  0.2478  0.3876
   55MOL0     C 7139   3.491   2.218   0.686 -0.4133  0.1589 -1.2427
   55MOL0     C 7140   3.369   2.200   0.597 -0.2642 -0.6378 -0.3991
   55MOL0     C 7141   3.235   2.180   0.668 -0.6667  0.0786  0.0125
   55MOL0     C 7142   3.130   2.148   0.565  1.0554  1.3365 -0.0367
   55MOL0     C 7143   2.995   2.133   0.633  0.4316 -0.0592  0.8960
   55MOL0     C 7144   2.882   2.118   0.541  0.4306 -0.2792 -0.3082
   55MOL0     N 7145   2.756   2.083   0.615  0.2055  0.0633  1.1917
   55MOL0     C 7146   2.657   2.168   0.656 -0.5565  0.9166 -0.0166
   55MOL0     C 7147   2.580   2.104   0.746  1.3683  0.5619 -0.2395
   55MOL0     C 7148   2.469   2.157   0.832  0.7413  0.5849 -0.6865
   55MOL0     C 7149   2.341   2.068   0.835  0.3279 -0.0955 -0.4158
   55MOL0     C 7150   2.223   2.145   0.898  0.0551  0.8105  0.2993
   55MOL0     C 7151   2.106   2.045   0.895  0.6406 -0.1939 -0.0060
   55MOL0     O 7152   1.986   2.111   0.942  0.2093 -0.3180 -0.0994
   55MOL0     C 7153   1.873   2.038   0.924  0.4316 -0.5522  0.4060
   55MOL0     C 7154   1.755   2.116   0.927 -0.2757  0.0852  0.0205
   55MOL0     C 7155   1.629   2.061   0.936 -0.1671 -0.0803 -0.1108
   55MOL0     C 7156   1.609   1.920   0.928  0.5453 -0.1560 -0.5700
   55MOL0     C 7157   1.480   1.866   0.912  0.7552 -0.5187 -0.7439
   55MOL0     O 7158   1.480   1.731   0.938 -0.3682  0.1867  0.2467
   55MOL0     C 7159   1.365   1.662   0.901 -0.4905 -0.1888  0.6008
   55MOL0     C 7160   1.247   1.676   0.972 -0.4333 -0.5232  0.5133
   55MOL0     C 7161   1.134   1.606   0.941 -0.0453 -0.2169  0.2404
   55MOL0     C 7162   1.136   1.530   0.817 -0.5180  0.1014  0.0839
   55MOL0     O 7163   1.030   1.456   0.783  0.3684 -0.4086 -0.0202
   55MOL0     C 7164   0.907   1.530   0.790  0.3293 -0.0842 -1.0229
   55MOL0     C 7165   0.798   1.438   0.731  1.0047 -0.4540 -0.6902
   55MOL0     C 7166   0.661   1.489   0.748  0.4461 -0.0886 -0.1410
   55MOL0     C 7167   0.559   1.383   0.701  0.2019  0.2878 -0.8799
   55MOL0     C 7168   0.411   1.429   0.730 -0.6051  0.4727  0.2980
   55MOL0     C 7169   0.314   1.308   0.705  0.5626 -0.5995  0.8726
   55MOL0     C 7170   0.170   1.359   0.718  0.0093  0.4539 -0.0750
   55MOL0     C 7171   0.067   1.256   0.666 -0.0557  0.2088  0.4230
   55MOL0    Cl 7172   0.092   1.106   0.760  0.1991 -0.1775 -0.2259
   55MOL0     C 7173   1.247   1.522   0.737 -0.0530 -0.6713  0.6479
   55MOL0     C 7174   1.369   1.579   0.784  0.2376 -0.0427 -0.4975
   55MOL0     O 7175   1.383   1.938   0.883 -0.3666 -0.2217 -0.0119
   55MOL0     C 7176   1.723   1.840   0.923 -0.2588 -0.6651  0.0727
   55MOL0     C 7177   1.849   1.902   0.912 -0.3734 -0.4889  0.1723
   55MOL0     N 7178   2.620   1.967   0.753  0.1712 -0.8408 -0.3011
   55MOL0     N 7179   2.720   1.957   0.672 -0.1701 -0.0145 -0.2653
   55MOL0     C 7180   3.820   2.373   1.017 -0.9967  0.1724  0.6674
   55MOL0     C 7181   3.917   2.387   1.111 -0.2676  0.7077  0.0369
   55MOL0     C 7182   4.352   2.288   1.247  0.5168 -0.6203  0.1648
   55MOL0     C 7183   4.352   2.389   1.347 -0.2106  0.8681 -0.6384
   55MOL0     C 7184   4.467   2.389   1.428 -0.3775 -0.5724  0.0982
   55MOL0     C 7185   4.575   2.309   1.405  0.2215 -0.2964  0.0255
   55MOL0     O 7186   4.688   2.315   1.480  0.1112  0.2082 -1.0670
   55MOL0     C 7187   4.701   2.393   1.600 -0.4236  0.9704  0.5179
   55MOL0     C 7188   4.841   2.372   1.666 -0.1805 -0.3092 -0.2447
   55MOL0     C 7189   4.894   2.507   1.718  0.2995 -0.2706  0.0901
   55MOL0     C 7190   5.046   2.487   1.756 -0.6016  0.6278 -0.1898
   55MOL0     C 7191   5.117   2.605   1.809  0.0265  0.8909 -0.5747
   55MOL0     C 7192   5.175   2.708   1.819  0.1705 -0.5228  0.4572
   55MOL0     C 7193   4.568   2.210   1.313 -0.7013  1.0025 -0.3367
   55MOL0     C 7194   4.462   2.200   1.223 -0.4822 -0.6930  0.3428
   55MOL0     H 7195   4.179   2.401   0.900 -1.0403  3.2475 -0.1082
   55MOL0     H 7196   3.998   2.354   0.740 -0.5411 -3.0846 -0.1657
   55MOL0     H 7197   3.788   2.195   0.654 -0.4571 -0.7672  3.3047
   55MOL0     H 7198   3.804   2.372   0.618  1.5117 -1.3771 -1.2647
   55MOL0     H 7199   3.631   2.244   0.505  1.9215  2.9454 -0.4433
   55MOL0     H 7200   3.569   2.386   0.589 -0.9626 -0.2400  0.0271
   55MOL0     H 7201   3.474   2.281   0.774 -1.2269  0.6035 -1.7113
   55MOL0     H 7202   3.525   2.120   0.720 -0.7223 -0.1727 -1.8739
   55MOL0     H 7203   3.357   2.292   0.538 -0.3771  0.8449  1.7928
   55MOL0     H 7204   3.398   2.126   0.522 -0.1779 -1.5417  0.5073
   55MOL0     H 7205   3.211   2.267   0.730 -0.0385  0.3186 -0.0739
   55MOL0     H 7206   3.249   2.090   0.729 -0.0232  0.8815  1.0872
   55MOL0     H 7207   3.144   2.053   0.512  2.3444  0.8600  1.0953
   55MOL0     H 7208   3.116   2.231   0.496  2.4693  1.6131 -0.0201
   55MOL0     H 7209   3.003   2.055   0.710 -1.6138 -0.8963  0.3407
   55MOL0     H 7210   2.977   2.225   0.690 -0.2498  0.1465  0.3652
   55MOL0     H 7211   2.898   2.044   0.463  0.1115 -1.3808  0.6405
   55MOL0     H 7212   2.863   2.212   0.488  2.7726  1.0845  1.0941
   55MOL0     H 7213   2.654   2.273   0.627 -0.6420  1.0249  0.3750
   55MOL0     H 7214   2.443   2.256   0.792  1.5047  0.8150 -0.6319
   55MOL0     H 7215   2.505   2.170   0.934  0.8983 -1.2830 -0.4657
   55MOL0     H 7216   2.356   1.975   0.890  0.3201 -0.7964 -1.5724
   55MOL0     H 7217   2.312   2.043   0.732 -2.2217  1.4446 -0.1663
   55MOL0     H 7218   2.231   2.181   1.001  1.6275  3.2186 -0.5753
   55MOL0     H 7219   2.206   2.235   0.837 -0.1592  1.2550  1.0004
   55MOL0     H 7220   2.130   1.960   0.960  1.7477  2.4796  3.4105
   55MOL0     H 7221   2.081   2.012   0.794 -1.6705  0.5939  0.2508
   55MOL0     H 7222   1.759   2.225   0.926  1.5538  0.0664 -1.6916
   55MOL0     H 7223   1.540   2.123   0.934 -1.2484 -1.5242  1.0807
   55MOL0     H 7224   1.248   1.737   1.062  1.3072 -1.5627  1.2612
   55MOL0     H 7225   1.052   1.625   1.009  0.5739  0.2193  0.8812
   55MOL0     H 7226   0.925   1.624   0.737  1.5861 -1.6278 -3.4901
   55MOL0     H 7227   0.868   1.549   0.891  0.5360 -4.8696  0.1755
   55MOL0     H 7228   0.804   1.337   0.772 -1.2128 -1.8777 -3.4603
   55MOL0     H 7229   0.813   1.436   0.622 -0.7194 -1.4617 -0.9436
   55MOL0     H 7230   0.637   1.588   0.710  0.9104  1.0615  2.3426
   55MOL0     H 7231   0.641   1.489   0.856 -1.4851  0.6345 -0.4699
   55MOL0     H 7232   0.570   1.364   0.593  1.6612  0.7903 -0.8475
   55MOL0     H 7233   0.574   1.292   0.760  0.6719  0.7950 -0.2100
   55MOL0     H 7234   0.386   1.515   0.666  2.2578  0.1556 -1.4233
   55MOL0     H 7235   0.391   1.463   0.832 -0.5405 -2.2781  1.3098
   55MOL0     H 7236   0.324   1.232   0.783 -0.3130  0.1933  1.7862
   55MOL0     H 7237   0.335   1.255   0.612  1.4151  1.3552 -0.1172
   55MOL0     H 7238   0.151   1.374   0.825  0.6646  0.1431  0.0864
   55MOL0     H 7239   0.165   1.457   0.669  0.2802  0.4847 -0.0421
   55MOL0     H 7240   0.077   1.234   0.560  0.8309  0.0180  0.5351
   55MOL0     H 7241  -0.027   1.308   0.689 -0.4199 -0.6666  0.9535
   55MOL0     H 7242   1.241   1.465   0.645 -2.9090  1.1151 -0.4091
   55MOL0     H 7243   1.455   1.577   0.718  0.4027 -1.5403 -0.2630
   55MOL0     H 7244   1.708   1.732   0.915  0.0844 -1.1265  3.9303
   55MOL0     H 7245   1.939   1.842   0.913  1.8639  2.6455 -0.6333
   55MOL0     H 7246   3.718   2.374   1.053 -2.0707  0.1528 -2.1350
   55MOL0     H 7247   3.885   2.396   1.215 -1.9236  1.0553 -0.4751
   55MOL0     H 7248   4.269   2.453   1.372 -2.3492 -1.8447 -0.2391
   55MOL0     H 7249   4.470   2.468   1.501  2.3858  0.0590 -0.5537
   55MOL0     H 7250   4.628   2.376   1.679 -0.7357 -1.2338 -0.1887
   55MOL0     H 7251   4.689   2.500   1.580  0.9042  1.2967  1.3495
   55MOL0     H 7252   4.839   2.299   1.748  0.9797 -0.7672 -0.5983
   55MOL0     H 7253   4.907   2.326   1.592 -0.8313  0.7777 -1.5391
   55MOL0     H 7254   4.836   2.530   1.808 -0.7740 -2.3586 -0.0272
   55MOL0     H 7255   4.886   2.578   1.634 -0.9934  1.4770  1.6004
   55MOL0     H 7256   5.048   2.411   1.835  0.1563  0.9943  0.1497
   55MOL0     H 7257   5.103   2.452   1.670  1.6013 -1.9252  2.1044
   55MOL0     H 7258   5.228   2.801   1.814 -1.0873  0.2098  0.1946
   55MOL0     H 7259   4.649   2.139   1.298 -0.7075  0.4483  1.9655
   55MOL0     H 7260   4.463   2.129   1.141  0.6082  0.0625 -0.3171
   56MOL0     O 7261   4.203   6.951   8.214  0.6734 -0.0264  0.0027
   56MOL0     C 7262   4.269   6.861   8.162 -1.4846  0.4025 -0.4045
   56MOL0     O 7263   4.222   6.742   8.132 -0.6572  0.2047  0.5744
   56MOL0     C 7264   4.120   6.686   8.198  0.3394  0.9320  0.4425
   56MOL0     C 7265   3.993   6.751   8.226 -0.6309  0.0786  0.2541
   56MOL0     C 7266   3.902   6.693   8.314  1.2107 -0.6191  0.4007
   56MOL0     C 7267   3.908   6.560   8.338  0.1943 -0.3245 -0.7607
   56MOL0     O 7268   3.818   6.486   8.411 -0.0424  0.4045  0.1030
   56MOL0     C 7269   3.682   6.534   8.418 -0.2119  0.2453  0.1850
   56MOL0     C 7270   3.578   6.442   8.479  0.8758 -1.0580  0.0098
   56MOL0     C 7271   3.449   6.528   8.472  0.7429  0.1283  0.5112
   56MOL0     C 7272   3.316   6.454   8.515  0.2021  0.5400  0.7168
   56MOL0     C 7273   3.188   6.536   8.495 -0.5900 -0.2647 -0.5334
   56MOL0     C 7274   3.070   6.457   8.431  0.5075 -0.1985 -0.3360
   56MOL0     C 7275   2.994   6.394   8.544  0.2011  0.6303 -0.0485
   56MOL0     C 7276   2.852   6.361   8.505  0.3592 -0.8531  0.4399
   56MOL0     N 7277   2.798   6.249   8.586 -0.5974  0.2434  0.1286
   56MOL0     C 7278   2.658   6.240   8.606 -0.2000 -0.0513 -0.8360
   56MOL0     C 7279   2.640   6.113   8.660 -0.5166 -0.3005 -0.1645
   56MOL0     C 7280   2.509   6.049   8.682  0.6674 -0.5065 -0.0275
   56MOL0     C 7281   2.526   5.955   8.805  0.2845  0.7107 -1.2735
   56MOL0     C 7282   2.408   5.858   8.835  0.1130 -0.4584  0.4783
   56MOL0     C 7283   2.268   5.929   8.840  0.0758  0.3055  0.0121
   56MOL0     O 7284   2.266   6.061   8.906 -0.0566  0.1302  0.1925
   56MOL0     C 7285   2.145   6.100   8.959  0.1972  0.6249 -0.4561
   56MOL0     C 7286   2.155   6.198   9.061  0.4527 -0.2497  0.4139
   56MOL0     C 7287   2.043   6.244   9.126  0.0942 -0.1147  0.3386
   56MOL0     C 7288   1.913   6.198   9.081  0.7056 -0.7677  0.0782
   56MOL0     C 7289   1.793   6.254   9.149 -0.2278  0.2313 -0.0779
   56MOL0     O 7290   1.679   6.191   9.115  0.9656 -0.2899 -0.7255
   56MOL0     C 7291   1.558   6.249   9.117 -0.0928  0.4969  0.1691
   56MOL0     C 7292   1.437   6.172   9.102 -0.1099 -0.3494 -0.2722
   56MOL0     C 7293   1.315   6.236   9.077  0.5581 -0.4236 -0.6466
   56MOL0     C 7294   1.304   6.373   9.075  0.5170  0.5284 -0.6099
   56MOL0     O 7295   1.177   6.429   9.069  0.2715  0.2272 -0.1886
   56MOL0     C 7296   1.159   6.561   9.117 -0.0653 -0.3624 -1.3803
   56MOL0     C 7297   1.004   6.582   9.109 -1.1500 -0.7565  0.1500
   56MOL0     C 7298   0.934   6.675   9.220  0.3535  0.3807 -0.5703
   56MOL0     C 7299   0.991   6.802   9.228  0.0995 -0.5287 -0.0497
   56MOL0     C 7300   0.936   6.881   9.350  0.3964 -0.0380  0.4924
   56MOL0     C 7301   0.790   6.926   9.322  0.1632 -0.3417  0.2755
   56MOL0     C 7302   0.698   6.908   9.447  0.2257  0.2017  0.7572
   56MOL0     C 7303   0.582   6.810   9.405 -0.0400 -0.8793 -0.4954
   56MOL0    Cl 7304   0.480   6.755   9.537  0.0854 -0.9172  0.1769
   56MOL0     C 7305   1.417   6.448   9.096  0.4422 -0.9871 -0.5850
   56MOL0     C 7306   1.538   6.392   9.117 -0.7850  0.4601  0.7140
   56MOL0     O 7307   1.800   6.349   9.221  0.0049 -0.0947 -0.4177
   56MOL0     C 7308   1.903   6.090   8.992  0.0572  0.5191  0.0537
   56MOL0     C 7309   2.018   6.041   8.935  0.7002 -0.4799  0.3423
   56MOL0     N 7310   2.772   6.055   8.658  0.2851  0.8512  0.5179
   56MOL0     N 7311   2.863   6.131   8.613  0.7253 -0.6797  0.0773
   56MOL0     C 7312   4.020   6.491   8.294  0.4595  0.2668  0.1243
   56MOL0     C 7313   4.128   6.547   8.238  0.4189 -0.2897  0.7848
   56MOL0     C 7314   4.411   6.898   8.125 -0.4975 -0.0724  1.5819
   56MOL0     C 7315   4.491   6.796   8.063 -0.5402  0.2057  0.9137
   56MOL0     C 7316   4.634   6.815   8.045  0.1333 -0.2072 -0.4980
   56MOL0     C 7317   4.689   6.937   8.083  0.1203  0.5538 -0.1716
   56MOL0     O 7318   4.824   6.953   8.063  0.7026  0.0876  0.4358
   56MOL0     C 7319   4.897   7.064   8.113 -0.5216 -0.3043 -0.3715
   56MOL0     C 7320   5.044   7.050   8.130 -1.4805 -0.5051 -0.3125
   56MOL0     C 7321   5.117   7.174   8.189 -0.2808 -0.0133  0.2316
   56MOL0     C 7322   5.272   7.148   8.188 -0.2044 -0.4318 -0.2905
   56MOL0     C 7323   5.335   7.135   8.051  0.4311  0.6634 -0.6322
   56MOL0     C 7324   5.407   7.095   7.956 -0.1743  0.5768  0.5999
   56MOL0     C 7325   4.614   7.035   8.151  0.4342 -0.1852  1.0357
   56MOL0     C 7326   4.471   7.021   8.170 -1.0709 -0.4300  0.8850
   56MOL0     H 7327   3.971   6.848   8.183 -0.0988 -1.0962 -2.9101
   56MOL0     H 7328   3.811   6.750   8.333  0.4500 -1.5303 -0.4162
   56MOL0     H 7329   3.646   6.555   8.317 -3.7712  0.6928  1.4097
   56MOL0     H 7330   3.684   6.626   8.478  3.9940 -1.0196  2.4683
   56MOL0     H 7331   3.597   6.419   8.585 -0.9423  0.8900  0.8446
   56MOL0     H 7332   3.576   6.353   8.416  0.0370 -1.0800  0.0515
   56MOL0     H 7333   3.440   6.561   8.368  0.9590  0.1392  0.4959
   56MOL0     H 7334   3.466   6.623   8.523 -0.5994  0.0599  1.1375
   56MOL0     H 7335   3.301   6.359   8.463 -2.5088 -0.1505  2.5217
   56MOL0     H 7336   3.322   6.423   8.620 -2.7795 -1.1267  0.5143
   56MOL0     H 7337   3.205   6.619   8.426  0.0743  1.2075  1.3108
   56MOL0     H 7338   3.149   6.585   8.585  0.6411  2.0734 -1.1932
   56MOL0     H 7339   3.107   6.386   8.357 -2.1675 -0.7148 -1.2765
   56MOL0     H 7340   3.009   6.533   8.382 -1.3422 -2.2328 -1.3866
   56MOL0     H 7341   3.058   6.311   8.574  0.6452  0.9473 -0.1162
   56MOL0     H 7342   2.981   6.462   8.629 -2.8953  0.2403 -0.0672
   56MOL0     H 7343   2.834   6.338   8.399  2.2791  1.0134 -0.3850
   56MOL0     H 7344   2.793   6.451   8.525 -0.6684 -0.1687 -4.3066
   56MOL0     H 7345   2.579   6.313   8.597  0.8496  1.1601 -0.5237
   56MOL0     H 7346   2.469   5.997   8.594 -0.3826  2.2331 -1.2936
   56MOL0     H 7347   2.439   6.132   8.690  1.4854  0.3949 -1.4924
   56MOL0     H 7348   2.563   6.008   8.893 -0.3619 -0.4340 -0.2873
   56MOL0     H 7349   2.619   5.900   8.789 -0.0927 -0.5728  0.6372
   56MOL0     H 7350   2.409   5.777   8.762  4.1676 -2.3888  2.3747
   56MOL0     H 7351   2.426   5.806   8.930  1.4758  0.6334  0.8499
   56MOL0     H 7352   2.209   5.866   8.908 -1.3924  2.2710  0.6673
   56MOL0     H 7353   2.232   5.934   8.737  1.8088  1.0839 -0.5915
   56MOL0     H 7354   2.255   6.230   9.088  0.3025 -0.7394  1.6154
   56MOL0     H 7355   2.059   6.309   9.211 -1.3079  0.3801  0.2526
   56MOL0     H 7356   1.449   6.064   9.107 -2.5740 -0.6182  1.4686
   56MOL0     H 7357   1.226   6.177   9.058 -0.7904  1.5859 -0.7834
   56MOL0     H 7358   1.210   6.637   9.058 -2.4805  3.0916  0.6007
   56MOL0     H 7359   1.193   6.567   9.221 -1.5222 -1.3494 -0.8057
   56MOL0     H 7360   0.956   6.484   9.103  1.6348 -2.2907  0.9349
   56MOL0     H 7361   0.981   6.608   9.006  1.5075  0.3970 -0.2431
   56MOL0     H 7362   0.918   6.625   9.316 -2.1518  0.5449 -0.8411
   56MOL0     H 7363   0.837   6.702   9.176 -0.0410  4.1540  2.1674
   56MOL0     H 7364   1.100   6.797   9.228  0.0747 -1.4320  0.7680
   56MOL0     H 7365   0.967   6.857   9.137 -1.2175 -0.7264  0.1604
   56MOL0     H 7366   1.002   6.968   9.358 -0.6203  0.9727 -1.4838
   56MOL0     H 7367   0.949   6.820   9.440 -1.9159 -1.1357  0.1701
   56MOL0     H 7368   0.746   6.883   9.232  0.6582 -1.7045  0.6658
   56MOL0     H 7369   0.805   7.033   9.304  1.7696 -0.7230 -0.9348
   56MOL0     H 7370   0.745   6.855   9.531 -1.5164 -0.6366  1.2435
   56MOL0     H 7371   0.668   7.006   9.485  2.0237  0.0836  2.6866
   56MOL0     H 7372   0.617   6.720   9.353  3.3992 -1.1751  1.9498
   56MOL0     H 7373   0.520   6.871   9.339  0.1371 -0.2256 -0.0673
   56MOL0     H 7374   1.404   6.552   9.067 -4.1474 -1.5621 -1.3155
   56MOL0     H 7375   1.624   6.457   9.121 -1.2822  1.5893 -2.7719
   56MOL0     H 7376   1.807   6.049   8.962  0.4940 -0.8758  0.4801
   56MOL0     H 7377   2.002   5.970   8.855  0.9728  1.2604 -1.3268
   56MOL0     H 7378   4.024   6.383   8.308  0.6282  0.2574 -0.0046
   56MOL0     H 7379   4.207   6.481   8.205  0.5013  1.4409 -3.0285
   56MOL0     H 7380   4.455   6.698   8.032  0.7247 -0.7311  2.3094
   56MOL0     H 7381   4.694   6.744   7.989 -2.1908  0.9637 -4.9255
   56MOL0     H 7382   4.860   7.080   8.214 -0.7225  0.7972 -0.6112
   56MOL0     H 7383   4.866   7.143   8.044 -0.3289 -0.9965 -1.2658
   56MOL0     H 7384   5.049   6.964   8.197 -1.7262 -0.6075 -0.4243
   56MOL0     H 7385   5.084   7.026   8.032  1.3129  1.5523  0.2239
   56MOL0     H 7386   5.084   7.188   8.293 -2.7262  0.8968 -0.6040
   56MOL0     H 7387   5.094   7.270   8.142  2.3625 -0.1345 -1.4644
   56MOL0     H 7388   5.309   7.226   8.255 -1.1623 -2.4831  2.8126
   56MOL0     H 7389   5.312   7.056   8.231  1.2222 -0.9161 -2.4857
   56MOL0     H 7390   5.473   7.048   7.886 -2.0484 -0.2054 -0.7450
   56MOL0     H 7391   4.653   7.126   8.194 -0.3081  0.8967 -0.4839
   56MOL0     H 7392   4.405   7.092   8.220 -2.1262  0.3782 -1.4763
   57MOL0     O 7393   6.591   7.222   9.893  0.4571 -0.4805  0.0393
   57MOL0     C 7394   6.545   7.335   9.870  0.4730  0.8413  0.6233
   57MOL0     O 7395   6.610   7.454   9.891  0.3665  0.1018 -0.4031
   57MOL0     C 7396   6.721   7.454   9.981  0.2369  0.5203  0.5139
   57MOL0     C 7397   6.855   7.489   9.956 -0.2771  0.5548 -0.3130
   57MOL0     C 7398   6.952   7.492  10.064  0.6965  1.2596 -0.3646
   57MOL0     C 7399   6.919   7.444  10.191  0.0644  0.3105 -0.3124
   57MOL0     O 7400   7.020   7.471  10.281 -0.4456  0.2210 -0.2813
   57MOL0     C 7401   6.995   7.449  10.421  0.0528  0.1702  0.6548
   57MOL0     C 7402   7.105   7.519  10.499 -0.4882  0.3562  0.2819
   57MOL0     C 7403   7.118   7.671  10.489  0.1292  0.2401 -0.4068
   57MOL0     C 7404   7.260   7.705  10.543  0.4050 -1.2757 -0.2313
   57MOL0     C 7405   7.268   7.862  10.567 -0.2388  0.1647 -0.9819
   57MOL0     C 7406   7.411   7.892  10.612 -0.7579  0.1394  0.0929
   57MOL0     C 7407   7.438   8.036  10.619  0.3082 -0.6374  0.8094
   57MOL0     C 7408   7.557   8.075  10.706  0.2633  0.4469 -0.5216
   57MOL0     N 7409   7.685   8.013  10.653  0.3443  0.6011  0.5328
   57MOL0     C 7410   7.783   8.075  10.580 -0.0921  0.3194 -0.2963
   57MOL0     C 7411   7.880   7.985  10.558  0.1070 -0.1355  0.0017
   57MOL0     C 7412   8.014   7.998  10.485  0.8571 -0.3240 -0.3295
   57MOL0     C 7413   8.070   7.873  10.419 -0.3302  0.2323 -1.1365
   57MOL0     C 7414   8.086   7.880  10.261  0.6945  0.2107 -0.1317
   57MOL0     C 7415   7.962   7.923  10.190  0.8934 -0.3299  0.7372
   57MOL0     O 7416   7.851   7.833  10.218 -0.0847 -0.0250 -0.3231
   57MOL0     C 7417   7.726   7.873  10.187 -0.1989  0.0355  0.2782
   57MOL0     C 7418   7.626   7.843  10.278  0.2346  0.6445 -0.2990
   57MOL0     C 7419   7.494   7.891  10.253 -1.0076  0.6223 -0.2689
   57MOL0     C 7420   7.470   7.975  10.151  0.0709 -0.2453  0.0015
   57MOL0     C 7421   7.336   8.019  10.117  0.0691  0.5223  0.0733
   57MOL0     O 7422   7.315   8.125  10.036 -0.5793 -0.0837 -0.0269
   57MOL0     C 7423   7.183   8.179  10.033  0.3455 -0.0259 -0.8910
   57MOL0     C 7424   7.088   8.161   9.935 -0.2105  0.0161  0.3091
   57MOL0     C 7425   6.960   8.219   9.934 -0.5118 -0.2670 -0.9827
   57MOL0     C 7426   6.919   8.286  10.051  0.0683  0.0781 -0.4723
   57MOL0     O 7427   6.792   8.334  10.074 -0.1202 -0.3666 -0.2709
   57MOL0     C 7428   6.683   8.325   9.980 -0.2442  1.1660 -0.2015
   57MOL0     C 7429   6.571   8.414  10.006  0.6757 -0.3149  0.0562
   57MOL0     C 7430   6.453   8.362   9.923 -0.0238  0.3779 -0.2573
   57MOL0     C 7431   6.479   8.361   9.774 -0.1705  0.1636  0.6289
   57MOL0     C 7432   6.344   8.358   9.695  0.0930 -0.3003 -0.5377
   57MOL0     C 7433   6.260   8.229   9.722 -0.4075 -0.1127 -0.4158
   57MOL0     C 7434   6.128   8.243   9.663  0.6996  0.4123  1.4231
   57MOL0     C 7435   6.065   8.112   9.612 -0.0964 -0.3854  0.5460
   57MOL0    Cl 7436   5.900   8.138   9.548  0.2042 -0.5524  0.0607
   57MOL0     C 7437   7.009   8.294  10.161 -0.1263  0.3126  0.0066
   57MOL0     C 7438   7.140   8.240  10.151  0.0801 -0.4964  0.3636
   57MOL0     O 7439   7.249   7.960  10.175  0.1526 -0.3992 -0.0978
   57MOL0     C 7440   7.573   8.000  10.054  0.6363 -0.2231 -0.4431
   57MOL0     C 7441   7.700   7.950  10.072  0.0493  0.7746  0.3673
   57MOL0     N 7442   7.830   7.865  10.611 -0.5709 -0.2527 -0.1915
   57MOL0     N 7443   7.720   7.884  10.680 -0.2221  0.0828 -0.1253
   57MOL0     C 7444   6.792   7.394  10.208 -0.5176  0.4027  0.1544
   57MOL0     C 7445   6.695   7.412  10.111  0.5028 -0.3409  0.4060
   57MOL0     C 7446   6.405   7.331   9.827 -0.4935 -0.4776 -0.4283
   57MOL0     C 7447   6.339   7.446   9.787 -0.6068  0.4395  0.0897
   57MOL0     C 7448   6.208   7.448   9.748  0.0171 -1.1963  1.2413
   57MOL0     C 7449   6.128   7.332   9.739  0.3057  0.6215 -0.5219
   57MOL0     O 7450   6.017   7.322   9.662  0.4344  0.5968 -0.8106
   57MOL0     C 7451   5.941   7.441   9.665  0.5849 -0.4793  0.3943
   57MOL0     C 7452   5.797   7.400   9.636  0.2614  0.8114 -0.3992
   57MOL0     C 7453   5.734   7.334   9.760  0.1244  0.2441 -0.1041
   57MOL0     C 7454   5.586   7.357   9.777  0.0870  0.4012 -0.1754
   57MOL0     C 7455   5.508   7.305   9.663 -0.0965  0.6770 -0.2118
   57MOL0     C 7456   5.446   7.260   9.570 -1.2315  0.2238  0.2833
   57MOL0     C 7457   6.195   7.213   9.771  0.7069 -0.6376  0.0454
   57MOL0     C 7458   6.329   7.215   9.821 -0.1063 -0.3514 -0.3470
   57MOL0     H 7459   6.898   7.517   9.860  4.1584 -1.0794  0.9854
   57MOL0     H 7460   7.050   7.534  10.043  0.2829  2.7205  0.4789
   57MOL0     H 7461   6.994   7.342  10.444  1.2517 -0.9065 -3.3855
   57MOL0     H 7462   6.901   7.501  10.441 -1.6622 -1.9556 -1.3185
   57MOL0     H 7463   7.200   7.469  10.478  1.3018  3.3531  0.6693
   57MOL0     H 7464   7.090   7.499  10.605  2.7025  0.8081  0.9222
   57MOL0     H 7465   7.040   7.719  10.549  1.7154  0.3526  1.6776
   57MOL0     H 7466   7.107   7.696  10.383  1.9778 -1.3911 -1.0506
   57MOL0     H 7467   7.281   7.659  10.641  2.3581 -1.5674 -0.7456
   57MOL0     H 7468   7.341   7.669  10.480  1.7130 -1.4983  1.4847
   57MOL0     H 7469   7.207   7.885  10.655  1.3894  0.0298  0.2376
   57MOL0     H 7470   7.234   7.915  10.478 -3.9780  0.7399  0.6132
   57MOL0     H 7471   7.480   7.844  10.541  0.1708  1.3963  0.1256
   57MOL0     H 7472   7.416   7.857  10.715 -4.3154  2.5152  1.2434
   57MOL0     H 7473   7.464   8.081  10.522  3.3274  2.6684  2.8550
   57MOL0     H 7474   7.345   8.078  10.659 -0.1784 -0.8584 -0.0639
   57MOL0     H 7475   7.538   8.032  10.805  0.6273 -1.1745 -1.1297
   57MOL0     H 7476   7.567   8.183  10.723 -1.6345  0.7283 -0.9026
   57MOL0     H 7477   7.790   8.175  10.539 -2.8006  0.1061 -1.5339
   57MOL0     H 7478   8.083   8.039  10.559  1.3322  0.2505 -1.0755
   57MOL0     H 7479   8.001   8.074  10.408  0.1600 -0.8169 -0.7098
   57MOL0     H 7480   8.007   7.784  10.427  0.8331 -0.7065 -1.9254
   57MOL0     H 7481   8.160   7.861  10.479 -1.3025 -2.4479 -0.0593
   57MOL0     H 7482   8.159   7.958  10.237 -1.7379  1.7892 -3.0853
   57MOL0     H 7483   8.120   7.784  10.220 -1.6346  0.0396 -1.8172
   57MOL0     H 7484   7.983   7.914  10.083  0.0321 -0.6232  0.5869
   57MOL0     H 7485   7.933   8.026  10.213 -1.2197 -0.4778 -0.9576
   57MOL0     H 7486   7.647   7.782  10.365  0.8076  0.3316 -0.6533
   57MOL0     H 7487   7.416   7.861  10.322 -1.0084  1.9277  0.3361
   57MOL0     H 7488   7.125   8.108   9.848 -1.7461  0.0141 -0.3648
   57MOL0     H 7489   6.886   8.207   9.856 -2.3186 -1.6044  0.8541
   57MOL0     H 7490   6.644   8.223   9.990 -0.2171  1.2928  1.3513
   57MOL0     H 7491   6.712   8.340   9.875  0.9176  0.1342 -0.0568
   57MOL0     H 7492   6.597   8.518   9.985 -1.0788  0.4504  1.4559
   57MOL0     H 7493   6.544   8.419  10.112  0.4347  0.6347 -0.0426
   57MOL0     H 7494   6.374   8.434   9.947  1.0044  1.3510  0.3028
   57MOL0     H 7495   6.425   8.263   9.958 -1.6410  1.7479  2.7590
   57MOL0     H 7496   6.529   8.454   9.746  0.1985  0.2663  1.5950
   57MOL0     H 7497   6.545   8.276   9.751 -0.1590  0.2550  0.3209
   57MOL0     H 7498   6.364   8.381   9.590  1.2022  1.8013  0.0599
   57MOL0     H 7499   6.281   8.435   9.740 -2.1274  0.4226 -4.4190
   57MOL0     H 7500   6.245   8.209   9.828  1.0513 -3.0534 -0.6635
   57MOL0     H 7501   6.314   8.146   9.677  0.1674 -0.8160  1.4811
   57MOL0     H 7502   6.059   8.278   9.741  1.6414  0.1864  2.3885
   57MOL0     H 7503   6.139   8.314   9.581  3.6399 -0.8572  0.5949
   57MOL0     H 7504   6.079   8.035   9.688  1.7031 -0.1023  0.5544
   57MOL0     H 7505   6.118   8.060   9.531 -2.3331 -0.3193 -1.0428
   57MOL0     H 7506   6.954   8.338  10.243 -0.8121  0.3870 -0.4829
   57MOL0     H 7507   7.209   8.255  10.233  2.1431  2.8238 -1.7186
   57MOL0     H 7508   7.562   8.068   9.971  2.6880  0.9589  0.1767
   57MOL0     H 7509   7.766   7.980   9.991 -2.1893  1.8672 -1.1804
   57MOL0     H 7510   6.768   7.344  10.301 -1.6361  0.3991 -0.1161
   57MOL0     H 7511   6.595   7.386  10.146 -0.5269  0.7742 -1.5156
   57MOL0     H 7512   6.393   7.540   9.791  2.4443 -1.2367  1.4042
   57MOL0     H 7513   6.162   7.541   9.715  0.8229 -1.2733 -0.1708
   57MOL0     H 7514   5.973   7.503   9.581 -0.6830 -0.5821 -0.1998
   57MOL0     H 7515   5.958   7.512   9.747  0.2343  0.3700 -0.2564
   57MOL0     H 7516   5.732   7.484   9.609 -0.2544  0.2811 -0.8378
   57MOL0     H 7517   5.800   7.331   9.551 -1.0513 -0.6927  0.7027
   57MOL0     H 7518   5.792   7.353   9.851 -3.4411 -0.5638  2.5266
   57MOL0     H 7519   5.753   7.229   9.739 -1.4928 -0.0901 -0.0050
   57MOL0     H 7520   5.545   7.310   9.867 -0.5965  0.0112 -0.6782
   57MOL0     H 7521   5.574   7.465   9.784  3.5978  1.1009 -2.5327
   57MOL0     H 7522   5.402   7.221   9.480 -0.3694  1.5640 -0.7686
   57MOL0     H 7523   6.149   7.118   9.747  1.6418 -1.0734 -0.0672
   57MOL0     H 7524   6.364   7.113   9.834  0.7014  0.0245  0.4987
   58MOL0     O 7525   8.538   3.900   5.959 -0.2302 -0.3758  0.1826
   58MOL0     C 7526   8.481   3.994   5.902 -0.5552 -0.4036 -0.1134
   58MOL0     O 7527   8.347   4.006   5.879 -0.6857  0.5908 -0.8906
   58MOL0     C 7528   8.257   3.903   5.922 -0.3408  0.4516 -0.1488
   58MOL0     C 7529   8.251   3.845   6.057 -0.3732 -0.4610  0.0854
   58MOL0     C 7530   8.143   3.772   6.113 -0.1005  0.1164  0.3159
   58MOL0     C 7531   8.044   3.742   6.018  0.2766 -0.4455  1.3074
   58MOL0     O 7532   7.933   3.687   6.082 -0.0108  0.1058 -0.1937
   58MOL0     C 7533   7.803   3.693   6.012  0.2463  0.1422  0.4189
   58MOL0     C 7534   7.710   3.646   6.123  0.6953 -0.3007  0.4159
   58MOL0     C 7535   7.571   3.691   6.074  0.6536  0.3461  0.2074
   58MOL0     C 7536   7.472   3.619   6.166  0.1631 -0.3781  0.2167
   58MOL0     C 7537   7.326   3.664   6.125 -0.3487 -0.0923  0.0567
   58MOL0     C 7538   7.225   3.594   6.210  0.2943  0.3838  0.0232
   58MOL0     C 7539   7.078   3.625   6.172  0.1248  0.1557 -0.1020
   58MOL0     C 7540   7.041   3.580   6.026  0.7887 -0.1981 -0.1129
   58MOL0     N 7541   6.895   3.578   5.986 -0.2314  0.3694 -0.1360
   58MOL0     C 7542   6.819   3.688   5.958  0.1251 -0.1690 -0.3175
   58MOL0     C 7543   6.714   3.645   5.885  0.4766  0.2548 -0.0146
   58MOL0     C 7544   6.605   3.730   5.831 -0.1196  0.1115  0.4493
   58MOL0     C 7545   6.599   3.719   5.677 -0.8133 -0.0426 -1.0210
   58MOL0     C 7546   6.493   3.811   5.617 -0.2439  0.4675 -1.0398
   58MOL0     C 7547   6.462   3.766   5.475  0.7574 -0.7668  1.1150
   58MOL0     O 7548   6.358   3.660   5.467 -0.2714  0.8720  0.2611
   58MOL0     C 7549   6.323   3.605   5.348  0.0530 -0.2645  0.3442
   58MOL0     C 7550   6.193   3.565   5.330  0.1344 -0.0936 -0.1630
   58MOL0     C 7551   6.149   3.522   5.209  0.7735  0.0883  0.4545
   58MOL0     C 7552   6.237   3.486   5.103  0.2013 -0.2864 -0.0701
   58MOL0     C 7553   6.204   3.415   4.985  0.1856 -0.2865 -0.0874
   58MOL0     O 7554   6.082   3.352   4.988 -0.5087  0.0506 -0.1206
   58MOL0     C 7555   6.023   3.320   4.869  0.4273 -0.0330 -0.1442
   58MOL0     C 7556   6.020   3.193   4.825  0.8171 -0.1667  0.2973
   58MOL0     C 7557   5.930   3.155   4.725 -0.5549 -0.8606  0.2532
   58MOL0     C 7558   5.836   3.243   4.674 -0.1160  0.5984 -0.7051
   58MOL0     O 7559   5.740   3.183   4.589 -0.0098 -0.0981  0.7323
   58MOL0     C 7560   5.607   3.239   4.584  0.4901  0.0348 -0.8049
   58MOL0     C 7561   5.509   3.161   4.501  0.5314  0.2867  0.1289
   58MOL0     C 7562   5.501   3.011   4.534  0.3818 -0.2812 -0.7180
   58MOL0     C 7563   5.379   2.936   4.470 -1.2213 -0.7674 -1.2105
   58MOL0     C 7564   5.350   2.986   4.328  0.6826  0.1907 -0.8830
   58MOL0     C 7565   5.248   2.906   4.253 -0.0757 -0.6215 -0.4436
   58MOL0     C 7566   5.234   2.759   4.278  0.2919 -0.5061 -0.5142
   58MOL0     C 7567   5.132   2.694   4.188  0.2695  0.2465  0.6358
   58MOL0    Cl 7568   4.963   2.729   4.261  0.4754  0.5959 -0.6905
   58MOL0     C 7569   5.833   3.373   4.717  0.3658  1.0321 -0.5256
   58MOL0     C 7570   5.931   3.409   4.806 -0.2711  0.8910  0.1138
   58MOL0     O 7571   6.286   3.400   4.897 -0.0140 -0.6061  0.3870
   58MOL0     C 7572   6.376   3.517   5.128 -0.0011 -0.3064  0.0824
   58MOL0     C 7573   6.418   3.584   5.244 -0.0154  0.6202 -0.0970
   58MOL0     N 7574   6.724   3.511   5.872 -0.2580 -0.5295 -0.5063
   58MOL0     N 7575   6.834   3.469   5.926 -0.4867 -0.4997  0.0171
   58MOL0     C 7576   8.051   3.782   5.876  0.4868 -0.1354  0.9132
   58MOL0     C 7577   8.161   3.854   5.834  0.4874  0.1510  0.1955
   58MOL0     C 7578   8.569   4.113   5.862 -0.8474  1.0980  0.2160
   58MOL0     C 7579   8.522   4.241   5.829  0.4782  0.5029  0.2433
   58MOL0     C 7580   8.613   4.337   5.786  0.2393  0.0304  0.1942
   58MOL0     C 7581   8.743   4.316   5.774 -0.4024  1.2680 -0.4053
   58MOL0     O 7582   8.826   4.416   5.727  0.3447  0.3662 -0.2614
   58MOL0     C 7583   8.928   4.450   5.823  0.0234  0.1110  0.4562
   58MOL0     C 7584   9.052   4.493   5.749 -0.0680 -0.5876 -0.5324
   58MOL0     C 7585   9.137   4.368   5.719 -0.2843 -0.2458 -1.0442
   58MOL0     C 7586   9.289   4.408   5.704  0.2366 -0.2246  0.1287
   58MOL0     C 7587   9.358   4.415   5.837  0.4122  0.2862  0.0006
   58MOL0     C 7588   9.417   4.432   5.938 -0.7270 -0.1628  0.1915
   58MOL0     C 7589   8.795   4.188   5.805  0.4277 -0.1413  0.0017
   58MOL0     C 7590   8.708   4.088   5.860 -0.0221  0.1553  1.2981
   58MOL0     H 7591   8.321   3.875   6.135 -0.2385 -0.1149 -0.1680
   58MOL0     H 7592   8.136   3.735   6.214 -0.6011 -2.6266 -0.6280
   58MOL0     H 7593   7.799   3.623   5.929  0.8125 -0.6256  1.0259
   58MOL0     H 7594   7.784   3.795   5.978 -0.6834 -0.0165  0.4180
   58MOL0     H 7595   7.728   3.694   6.220 -3.6518  1.9954  0.3560
   58MOL0     H 7596   7.711   3.537   6.131 -1.3786 -0.2987  1.4332
   58MOL0     H 7597   7.551   3.664   5.970  0.0202 -1.5650  0.7881
   58MOL0     H 7598   7.550   3.796   6.098 -2.7045 -0.5459  1.7220
   58MOL0     H 7599   7.488   3.515   6.140  0.2844  0.0520 -1.5193
   58MOL0     H 7600   7.488   3.639   6.273  2.1580 -1.4044  0.1569
   58MOL0     H 7601   7.317   3.643   6.018  0.1616  0.7067 -0.1564
   58MOL0     H 7602   7.328   3.773   6.141  1.7887  0.0869 -1.0371
   58MOL0     H 7603   7.238   3.623   6.314  1.1129  2.4546 -0.5975
   58MOL0     H 7604   7.231   3.485   6.209  1.2750  0.3479  2.4781
   58MOL0     H 7605   7.003   3.582   6.238  0.1962  2.0955  1.3215
   58MOL0     H 7606   7.061   3.733   6.180  0.0357  0.1007  0.4681
   58MOL0     H 7607   7.072   3.475   6.027  0.2152 -0.4397 -2.6894
   58MOL0     H 7608   7.095   3.626   5.944  1.4499  0.4053  0.6412
   58MOL0     H 7609   6.841   3.794   5.969 -0.1886 -0.3266  3.2889
   58MOL0     H 7610   6.619   3.833   5.866 -1.0593  0.3871  0.0531
   58MOL0     H 7611   6.507   3.694   5.864 -0.2914  0.0923 -0.0729
   58MOL0     H 7612   6.575   3.616   5.651 -1.5749  0.0100 -0.5586
   58MOL0     H 7613   6.695   3.755   5.639 -0.5128 -1.0841 -1.2722
   58MOL0     H 7614   6.404   3.803   5.680  0.2747 -1.3524 -0.4690
   58MOL0     H 7615   6.541   3.908   5.628  1.8515 -0.7855  2.1448
   58MOL0     H 7616   6.554   3.758   5.416  2.2405  4.4590  2.2180
   58MOL0     H 7617   6.425   3.860   5.433  4.6610  0.0556 -0.9515
   58MOL0     H 7618   6.124   3.569   5.415 -3.5818  2.4998 -2.9707
   58MOL0     H 7619   6.042   3.508   5.195  1.2631 -1.8916 -1.9490
   58MOL0     H 7620   6.090   3.116   4.858  0.9079 -0.7797 -1.2270
   58MOL0     H 7621   5.928   3.052   4.691 -1.2807 -0.0580 -2.3764
   58MOL0     H 7622   5.605   3.341   4.544 -3.5303  0.1506 -0.7797
   58MOL0     H 7623   5.558   3.253   4.681 -2.3919 -1.0873 -1.9880
   58MOL0     H 7624   5.540   3.164   4.396 -0.3678 -2.7093 -0.3062
   58MOL0     H 7625   5.414   3.212   4.522 -0.0427 -1.4250  2.0489
   58MOL0     H 7626   5.474   3.013   4.640 -1.2449 -0.6035 -1.0996
   58MOL0     H 7627   5.601   2.970   4.515  2.1007  2.3518  1.9468
   58MOL0     H 7628   5.412   2.832   4.464 -1.7903 -0.9359 -1.4605
   58MOL0     H 7629   5.293   2.944   4.537 -0.5597 -0.1041 -0.4073
   58MOL0     H 7630   5.436   2.980   4.261 -0.1286 -0.2422 -1.9244
   58MOL0     H 7631   5.328   3.092   4.339 -3.5969 -0.6941  1.0793
   58MOL0     H 7632   5.263   2.914   4.145 -1.7262 -0.8537 -0.7176
   58MOL0     H 7633   5.153   2.955   4.280  0.7106 -0.6760  2.9101
   58MOL0     H 7634   5.333   2.715   4.270  1.0643  1.3494 -1.7600
   58MOL0     H 7635   5.200   2.742   4.381  2.9444 -0.2326  0.4859
   58MOL0     H 7636   5.149   2.586   4.180  0.0696  0.3686 -3.5834
   58MOL0     H 7637   5.144   2.732   4.086 -1.6067  2.5029  1.1734
   58MOL0     H 7638   5.754   3.444   4.696 -0.1723  0.7482  0.4883
   58MOL0     H 7639   5.934   3.514   4.836 -1.7319  0.2164  2.9301
   58MOL0     H 7640   6.457   3.485   5.063 -0.6249 -2.3515  0.2312
   58MOL0     H 7641   6.523   3.605   5.265  0.8442 -3.6785  0.9794
   58MOL0     H 7642   7.968   3.764   5.808  0.2885 -1.1479  1.4057
   58MOL0     H 7643   8.170   3.897   5.735  3.9623  3.7628  1.7852
   58MOL0     H 7644   8.418   4.268   5.847 -0.2021 -1.1227 -1.0069
   58MOL0     H 7645   8.566   4.429   5.751  0.1513 -0.4870 -1.0948
   58MOL0     H 7646   8.948   4.369   5.894  3.4823 -1.1464 -1.7363
   58MOL0     H 7647   8.884   4.531   5.882 -0.0558  0.3420  0.0815
   58MOL0     H 7648   9.032   4.546   5.655 -0.7805  0.6826  0.3042
   58MOL0     H 7649   9.101   4.573   5.806 -2.6162  2.6236 -2.4987
   58MOL0     H 7650   9.105   4.313   5.630  0.1725  0.5683 -1.7223
   58MOL0     H 7651   9.133   4.292   5.798 -0.2137  2.0075  1.2579
   58MOL0     H 7652   9.346   4.332   5.650 -1.4255  1.5155 -4.5192
   58MOL0     H 7653   9.291   4.504   5.653 -0.4651 -0.7588 -0.9364
   58MOL0     H 7654   9.470   4.467   6.025 -0.6444 -0.8176  0.4146
   58MOL0     H 7655   8.900   4.160   5.806 -0.4563 -4.0993  1.8904
   58MOL0     H 7656   8.762   3.997   5.883  1.4410 -0.4113 -3.3085
   59MOL0     O 7657   7.082   0.766   1.003 -0.1897 -0.2767  0.1810
   59MOL0     C 7658   7.142   0.661   1.007 -0.9136 -0.0755 -0.4850
   59MOL0     O 7659   7.110   0.543   0.947  0.3140  0.1463 -0.2035
   59MOL0     C 7660   6.991   0.542   0.887  0.0273  0.5675  0.0083
   59MOL0     C 7661   6.976   0.504   0.754  0.0801  0.9360 -0.1455
   59MOL0     C 7662   6.853   0.495   0.688  1.1854 -0.5735  0.2517
   59MOL0     C 7663   6.738   0.533   0.757 -0.3848  0.0521  0.1296
   59MOL0     O 7664   6.622   0.517   0.692  0.7424 -0.2898  0.4249
   59MOL0     C 7665   6.493   0.541   0.764 -0.4846  0.6094  0.3344
   59MOL0     C 7666   6.384   0.545   0.657 -0.4170  0.3531  0.2522
   59MOL0     C 7667   6.377   0.683   0.583  1.0128  0.5991  0.5616
   59MOL0     C 7668   6.271   0.670   0.473 -0.7253 -0.1629 -0.4393
   59MOL0     C 7669   6.252   0.806   0.403 -0.5552 -0.5612 -0.2800
   59MOL0     C 7670   6.125   0.870   0.439 -1.0742  0.1523 -0.0043
   59MOL0     C 7671   6.129   1.023   0.441 -0.1304 -0.1124  0.1320
   59MOL0     C 7672   5.998   1.074   0.485  0.7028 -0.6261  0.5792
   59MOL0     N 7673   5.884   1.053   0.393  0.1293 -0.6585  0.3666
   59MOL0     C 7674   5.759   0.991   0.418 -0.6640 -0.1884  0.3024
   59MOL0     C 7675   5.692   0.999   0.297  1.4534 -0.1506  0.1094
   59MOL0     C 7676   5.545   0.973   0.271 -0.1990  0.4893  0.0089
   59MOL0     C 7677   5.485   0.871   0.355  0.7198 -0.0645 -0.1997
   59MOL0     C 7678   5.347   0.823   0.298 -0.3255  0.0222  0.2118
   59MOL0     C 7679   5.231   0.927   0.311  0.0700  0.2144 -0.8103
   59MOL0     O 7680   5.107   0.859   0.293  0.5444  0.3553 -0.1565
   59MOL0     C 7681   4.995   0.920   0.338 -0.2026  0.3877 -0.6730
   59MOL0     C 7682   4.977   1.055   0.369 -0.9770  0.4296  1.0266
   59MOL0     C 7683   4.857   1.110   0.406 -0.8148 -0.0338 -0.4334
   59MOL0     C 7684   4.745   1.028   0.397 -0.1282  0.2576 -0.0724
   59MOL0     C 7685   4.619   1.086   0.400  0.6782  0.1285  0.0314
   59MOL0     O 7686   4.515   1.004   0.356  0.5835 -0.2640 -0.5339
   59MOL0     C 7687   4.380   1.035   0.339 -0.9304  0.1360  0.4159
   59MOL0     C 7688   4.315   1.151   0.391 -0.2767 -0.0468 -0.0833
   59MOL0     C 7689   4.181   1.176   0.357 -0.5509 -0.3826 -0.2899
   59MOL0     C 7690   4.124   1.084   0.268 -0.1882  0.5058  0.5268
   59MOL0     O 7691   3.987   1.089   0.246  0.4750 -0.9375  0.0318
   59MOL0     C 7692   3.904   1.209   0.235 -0.2647 -0.5219 -0.1125
   59MOL0     C 7693   3.837   1.237   0.099  0.2122 -0.3002 -0.0086
   59MOL0     C 7694   3.728   1.133   0.063 -0.3824 -0.3599 -0.3223
   59MOL0     C 7695   3.648   1.183  -0.059  0.5190  0.2178  0.6154
   59MOL0     C 7696   3.510   1.118  -0.085 -0.5422 -0.0741 -0.2957
   59MOL0     C 7697   3.449   1.150  -0.212  0.4388 -0.3121  0.6841
   59MOL0     C 7698   3.391   1.290  -0.203 -0.1880 -0.2183  0.7821
   59MOL0     C 7699   3.290   1.314  -0.308  1.5642 -0.9201 -0.3606
   59MOL0    Cl 7700   3.172   1.176  -0.338 -0.1992  0.0811  0.2367
   59MOL0     C 7701   4.190   0.973   0.213  0.7018 -0.4252  0.1232
   59MOL0     C 7702   4.320   0.953   0.241  0.2549  1.2413 -0.2797
   59MOL0     O 7703   4.605   1.207   0.427 -0.6674  0.3964  0.1974
   59MOL0     C 7704   4.760   0.897   0.375 -0.4350  0.6220 -0.5855
   59MOL0     C 7705   4.880   0.840   0.351  0.4333  0.0515 -0.4658
   59MOL0     N 7706   5.778   1.033   0.202 -0.3036 -0.4831 -0.1846
   59MOL0     N 7707   5.892   1.068   0.259 -1.0134  1.1827 -0.0995
   59MOL0     C 7708   6.756   0.570   0.895  0.1773  0.1164 -0.0254
   59MOL0     C 7709   6.876   0.565   0.961 -1.7284 -0.4813 -0.8824
   59MOL0     C 7710   7.273   0.652   1.070 -0.1478  0.0989 -0.0532
   59MOL0     C 7711   7.344   0.531   1.070  0.2956 -0.5313  0.1761
   59MOL0     C 7712   7.467   0.516   1.141 -0.2311  0.2485  0.4662
   59MOL0     C 7713   7.523   0.627   1.202 -0.0159  0.4146  0.2645
   59MOL0     O 7714   7.633   0.601   1.273 -0.1606 -0.9947  0.0990
   59MOL0     C 7715   7.688   0.710   1.348  0.1116 -0.3324 -0.0599
   59MOL0     C 7716   7.836   0.699   1.374  0.2391  0.3882  0.3293
   59MOL0     C 7717   7.863   0.643   1.516  0.1306  0.4289 -0.1761
   59MOL0     C 7718   7.849   0.740   1.626 -0.1125  0.3231  0.8573
   59MOL0     C 7719   7.877   0.684   1.758 -0.0551  0.9206  0.9535
   59MOL0     C 7720   7.908   0.628   1.861 -0.2174 -0.9555  0.8619
   59MOL0     C 7721   7.454   0.749   1.192  0.4102 -0.0630 -0.7797
   59MOL0     C 7722   7.335   0.765   1.128 -0.0218 -0.1914  0.6130
   59MOL0     H 7723   7.065   0.474   0.700  0.3367  0.1029  0.6962
   59MOL0     H 7724   6.845   0.457   0.587 -0.2107  2.2849 -0.8337
   59MOL0     H 7725   6.497   0.636   0.818  0.7706 -0.1000  1.5574
   59MOL0     H 7726   6.467   0.449   0.818  0.6416 -0.0995 -0.3077
   59MOL0     H 7727   6.282   0.541   0.694 -0.1294  1.4880  1.1976
   59MOL0     H 7728   6.397   0.467   0.580  4.2532  2.5898 -1.5926
   59MOL0     H 7729   6.466   0.717   0.529  0.0142  1.0469 -0.8571
   59MOL0     H 7730   6.348   0.759   0.656 -0.4774 -0.4616  1.1277
   59MOL0     H 7731   6.308   0.596   0.401  0.4734  0.4683 -0.4900
   59MOL0     H 7732   6.176   0.636   0.515 -1.1491  0.5866 -0.7811
   59MOL0     H 7733   6.243   0.790   0.295 -7.1392 -0.9670 -0.1031
   59MOL0     H 7734   6.341   0.865   0.427 -1.5761  0.4607  1.1996
   59MOL0     H 7735   6.089   0.842   0.539  0.7745 -0.9078  0.4082
   59MOL0     H 7736   6.052   0.828   0.369  0.2613  0.2710 -1.5184
   59MOL0     H 7737   6.210   1.058   0.506  0.2790 -3.4053  1.6163
   59MOL0     H 7738   6.156   1.062   0.342 -0.3183 -1.1050 -0.3176
   59MOL0     H 7739   6.000   1.183   0.492  3.2602 -0.5393 -0.4349
   59MOL0     H 7740   5.972   1.042   0.586  0.3727  0.1045  0.7381
   59MOL0     H 7741   5.711   0.964   0.512  0.8790 -1.6480  0.7250
   59MOL0     H 7742   5.539   0.957   0.162 -0.9642  0.5237  0.0401
   59MOL0     H 7743   5.489   1.067   0.270 -1.8061 -0.3764  2.1087
   59MOL0     H 7744   5.481   0.902   0.459 -1.7872  0.8235 -0.4884
   59MOL0     H 7745   5.553   0.786   0.348 -0.2562 -0.8398 -0.4635
   59MOL0     H 7746   5.357   0.802   0.192 -2.3681  1.0136 -0.2256
   59MOL0     H 7747   5.323   0.727   0.346  0.0919  0.7656  2.0076
   59MOL0     H 7748   5.249   1.008   0.239 -0.5509  0.3003 -0.8731
   59MOL0     H 7749   5.234   0.969   0.412 -0.4932  2.5572 -1.6989
   59MOL0     H 7750   5.062   1.122   0.357  0.4162 -1.2113  1.3510
   59MOL0     H 7751   4.860   1.218   0.413  1.2869 -0.1608  2.9440
   59MOL0     H 7752   4.354   1.223   0.462  0.6700 -0.8871  0.2670
   59MOL0     H 7753   4.120   1.257   0.396 -0.2612 -1.0257  1.6474
   59MOL0     H 7754   3.961   1.302   0.243 -0.7282  0.1715 -3.4505
   59MOL0     H 7755   3.831   1.220   0.315 -0.6066  2.5239 -0.7333
   59MOL0     H 7756   3.920   1.246   0.028 -1.4677  3.0261 -1.7659
   59MOL0     H 7757   3.804   1.341   0.102  0.9515 -0.0851  0.8190
   59MOL0     H 7758   3.664   1.120   0.150 -0.5598 -1.3921 -0.5943
   59MOL0     H 7759   3.778   1.039   0.035  0.9920  0.3503 -0.3479
   59MOL0     H 7760   3.641   1.292  -0.070  1.7128  0.3236  0.7475
   59MOL0     H 7761   3.716   1.165  -0.143  0.3180  2.2319 -0.0353
   59MOL0     H 7762   3.445   1.137   0.001 -0.6788 -0.4009 -0.3248
   59MOL0     H 7763   3.530   1.011  -0.071  0.6670  0.0814 -0.7167
   59MOL0     H 7764   3.376   1.071  -0.227  0.4352 -0.3194  0.7407
   59MOL0     H 7765   3.522   1.150  -0.294 -0.1584  2.1138  0.0741
   59MOL0     H 7766   3.341   1.312  -0.108 -0.8051  1.4473  0.1198
   59MOL0     H 7767   3.466   1.369  -0.211 -1.6906  1.2402  0.4142
   59MOL0     H 7768   3.329   1.348  -0.405  1.0217 -0.0829 -0.2918
   59MOL0     H 7769   3.232   1.400  -0.276  0.7029 -1.7898  0.4881
   59MOL0     H 7770   4.148   0.913   0.133  1.0020  1.4288 -1.5168
   59MOL0     H 7771   4.375   0.880   0.182  0.0421  2.0158 -1.4888
   59MOL0     H 7772   4.674   0.831   0.380  0.3560 -0.4023 -0.2872
   59MOL0     H 7773   4.881   0.735   0.324 -3.3051 -0.8870  2.1156
   59MOL0     H 7774   6.665   0.580   0.953  0.3601 -0.6847  0.4212
   59MOL0     H 7775   6.892   0.566   1.068 -0.5570 -2.2520 -1.0049
   59MOL0     H 7776   7.298   0.453   1.010  0.7258 -1.4401  0.9975
   59MOL0     H 7777   7.529   0.427   1.136  1.9773  1.7506 -1.7317
   59MOL0     H 7778   7.625   0.711   1.438  1.5141  0.8393  0.9704
   59MOL0     H 7779   7.677   0.806   1.297  2.1544 -1.0450 -2.0178
   59MOL0     H 7780   7.880   0.632   1.300  1.0480  1.1909  0.0713
   59MOL0     H 7781   7.882   0.798   1.370  3.0447 -0.8483 -0.9074
   59MOL0     H 7782   7.965   0.603   1.512  1.0060  2.5146 -0.1033
   59MOL0     H 7783   7.800   0.557   1.539  2.6848 -1.8842 -1.1971
   59MOL0     H 7784   7.931   0.810   1.606  0.8156 -0.0798  2.9832
   59MOL0     H 7785   7.746   0.776   1.627 -0.4035 -0.4962  0.9178
   59MOL0     H 7786   7.927   0.588   1.958 -0.9005  0.7746  1.7606
   59MOL0     H 7787   7.483   0.841   1.242 -0.1362 -1.1572  1.6778
   59MOL0     H 7788   7.297   0.867   1.135  1.7416  0.3779  4.9555
   60MOL0     O 7789   6.555   9.438   5.588  0.0074 -0.4053  0.5967
   60MOL0     C 7790   6.652   9.390   5.527  0.3439  0.1766  0.1457
   60MOL0     O 7791   6.641   9.276   5.449 -0.2071  0.5402 -0.0392
   60MOL0     C 7792   6.517   9.218   5.445 -0.3629 -0.0817  0.9169
   60MOL0     C 7793   6.467   9.129   5.535  0.0923  0.5983 -0.0592
   60MOL0     C 7794   6.341   9.079   5.526  0.5706  0.4026 -0.0764
   60MOL0     C 7795   6.250   9.128   5.427 -0.0680  0.1002 -0.2405
   60MOL0     O 7796   6.121   9.075   5.429 -0.3033 -1.2914  0.0776
   60MOL0     C 7797   6.034   9.058   5.307  0.1696 -0.4291  0.1784
   60MOL0     C 7798   5.882   9.045   5.344 -0.3652  0.0138  0.1647
   60MOL0     C 7799   5.840   8.928   5.428 -0.6354 -0.0462  0.8326
   60MOL0     C 7800   5.691   8.928   5.428  0.1437  0.0774 -0.6298
   60MOL0     C 7801   5.639   8.826   5.532  0.3759 -0.5344 -0.6529
   60MOL0     C 7802   5.486   8.823   5.528 -0.8454  0.0351  0.1631
   60MOL0     C 7803   5.424   8.746   5.640 -0.7642  0.5966  0.4837
   60MOL0     C 7804   5.308   8.674   5.588  0.0717  0.2857  0.0665
   60MOL0     N 7805   5.188   8.759   5.549  0.7767  0.1674  0.0612
   60MOL0     C 7806   5.108   8.846   5.631 -0.7962 -0.1933  0.2475
   60MOL0     C 7807   5.028   8.909   5.548 -1.0248 -1.0687  0.4074
   60MOL0     C 7808   4.949   9.028   5.580  0.4858  0.1701 -0.2526
   60MOL0     C 7809   4.862   9.010   5.703  0.3842  0.5377 -0.5375
   60MOL0     C 7810   4.738   8.918   5.656  0.6098  0.0170 -1.1912
   60MOL0     C 7811   4.641   8.901   5.777 -0.4510 -0.0257 -0.1397
   60MOL0     O 7812   4.511   8.869   5.721 -0.0433  0.0861 -0.1452
   60MOL0     C 7813   4.410   8.861   5.813 -0.8055  0.5043  0.2112
   60MOL0     C 7814   4.298   8.786   5.770 -0.0249 -0.5691  0.4725
   60MOL0     C 7815   4.197   8.766   5.860  0.3090 -0.9354  0.3405
   60MOL0     C 7816   4.191   8.823   5.984  0.7228  0.8041  0.3120
   60MOL0     C 7817   4.081   8.787   6.083  0.5472 -0.3323  0.3492
   60MOL0     O 7818   4.010   8.673   6.049 -0.0468 -0.5660 -0.3510
   60MOL0     C 7819   3.910   8.618   6.125  0.7591 -0.3230 -0.7017
   60MOL0     C 7820   3.913   8.638   6.269 -0.0696  0.1664 -0.4013
   60MOL0     C 7821   3.805   8.593   6.344  0.6511  1.0121  0.0949
   60MOL0     C 7822   3.699   8.529   6.279  0.4405  0.5676 -0.5882
   60MOL0     O 7823   3.592   8.485   6.354 -0.3315  0.3781 -0.1805
   60MOL0     C 7824   3.510   8.383   6.312  1.0126  0.6920  0.5967
   60MOL0     C 7825   3.368   8.449   6.289  0.2691 -0.6796 -0.2658
   60MOL0     C 7826   3.256   8.351   6.247  0.4082  0.1205  0.0120
   60MOL0     C 7827   3.233   8.257   6.362  0.1531 -0.4158 -0.0676
   60MOL0     C 7828   3.103   8.185   6.346 -0.3180  0.2730 -0.0676
   60MOL0     C 7829   2.987   8.268   6.396 -0.2626 -0.5506 -0.0584
   60MOL0     C 7830   2.865   8.178   6.407 -0.0158 -0.0750 -1.0829
   60MOL0     C 7831   2.860   8.068   6.517 -0.5939  0.6495  0.0135
   60MOL0    Cl 7832   2.705   7.987   6.507  0.0615  0.1997 -0.3463
   60MOL0     C 7833   3.690   8.518   6.137  0.6628  0.1089  0.1786
   60MOL0     C 7834   3.803   8.559   6.069 -0.1400  0.3528  0.2335
   60MOL0     O 7835   4.058   8.871   6.169  0.5920  0.2239 -0.0476
   60MOL0     C 7836   4.304   8.895   6.030  0.5990  0.1043 -0.5203
   60MOL0     C 7837   4.412   8.911   5.948  0.2202 -0.4013 -0.5558
   60MOL0     N 7838   5.068   8.885   5.420 -0.3722 -0.5340 -0.6045
   60MOL0     N 7839   5.165   8.800   5.419  0.0362  0.0475 -0.6313
   60MOL0     C 7840   6.290   9.230   5.341  0.0911  1.2700  0.4806
   60MOL0     C 7841   6.429   9.268   5.346 -0.0287  0.6578 -0.3634
   60MOL0     C 7842   6.779   9.460   5.544 -1.1867 -0.7984 -0.6528
   60MOL0     C 7843   6.894   9.413   5.487 -0.0849 -0.6250 -0.2798
   60MOL0     C 7844   7.009   9.484   5.512 -0.5396  0.2343  0.5947
   60MOL0     C 7845   7.026   9.600   5.581 -0.4915 -0.5006  0.2961
   60MOL0     O 7846   7.143   9.668   5.612 -0.6447 -0.3842 -0.5059
   60MOL0     C 7847   7.256   9.582   5.646  0.7829 -0.3446 -0.3231
   60MOL0     C 7848   7.243   9.573   5.795  0.2557  0.1879  0.5018
   60MOL0     C 7849   7.234   9.706   5.874 -0.3399  0.4367 -0.2704
   60MOL0     C 7850   7.358   9.802   5.844 -0.2366 -1.3314 -0.2446
   60MOL0     C 7851   7.487   9.739   5.896  0.5164 -0.1853  0.3814
   60MOL0     C 7852   7.594   9.684   5.917  0.0820 -0.2546  0.0919
   60MOL0     C 7853   6.909   9.648   5.639 -0.5915  0.7117 -0.5843
   60MOL0     C 7854   6.788   9.581   5.619  0.4389  0.0056 -0.1079
   60MOL0     H 7855   6.529   9.084   5.612 -0.5216 -1.1511 -0.5357
   60MOL0     H 7856   6.294   9.015   5.601  1.3168 -0.0474  0.0090
   60MOL0     H 7857   6.063   8.968   5.253 -1.0430 -0.7559  0.0510
   60MOL0     H 7858   6.043   9.140   5.235  1.5650 -0.3599  0.4146
   60MOL0     H 7859   5.817   9.055   5.257  1.0151  0.0554 -0.8954
   60MOL0     H 7860   5.856   9.132   5.404  0.8314  0.6130 -0.1419
   60MOL0     H 7861   5.879   8.931   5.530 -1.4633  0.7337  1.1340
   60MOL0     H 7862   5.862   8.832   5.379 -1.3277  0.6742 -0.9458
   60MOL0     H 7863   5.662   9.026   5.465 -1.1269  0.4890 -2.5604
   60MOL0     H 7864   5.648   8.923   5.328  1.3556  1.0022 -1.2201
   60MOL0     H 7865   5.680   8.861   5.627  1.8992  0.4398 -1.6315
   60MOL0     H 7866   5.684   8.726   5.525 -0.2177 -0.8004 -0.7487
   60MOL0     H 7867   5.460   8.790   5.427 -1.2836  2.8894 -0.7513
   60MOL0     H 7868   5.454   8.927   5.537  2.8999  1.3148  0.4186
   60MOL0     H 7869   5.482   8.654   5.656  2.5605  2.2303 -1.2246
   60MOL0     H 7870   5.404   8.797   5.735  0.0303  0.2886  0.8233
   60MOL0     H 7871   5.282   8.592   5.656  3.2058 -1.1150 -0.2612
   60MOL0     H 7872   5.336   8.621   5.496 -4.2810  0.0984 -1.3987
   60MOL0     H 7873   5.111   8.847   5.739 -0.7821  0.3502  0.2447
   60MOL0     H 7874   4.902   9.060   5.487  2.6768 -1.1434 -1.8958
   60MOL0     H 7875   5.028   9.100   5.602  2.6750 -2.3133  0.4243
   60MOL0     H 7876   4.827   9.105   5.745 -1.7185 -0.2511 -0.3686
   60MOL0     H 7877   4.920   8.962   5.783  1.1063  0.6766 -0.9742
   60MOL0     H 7878   4.674   8.949   5.573 -2.7461 -0.9359  0.8476
   60MOL0     H 7879   4.786   8.820   5.641  1.5957  0.4506 -0.9624
   60MOL0     H 7880   4.637   8.989   5.842  1.8118 -1.4169  2.0789
   60MOL0     H 7881   4.679   8.821   5.841  0.0599  2.0012  2.2595
   60MOL0     H 7882   4.297   8.741   5.671 -1.2914  1.0945 -0.3299
   60MOL0     H 7883   4.118   8.702   5.821  0.9044 -0.4239 -1.8390
   60MOL0     H 7884   3.986   8.698   6.322 -1.9318  0.9813  1.3844
   60MOL0     H 7885   3.801   8.586   6.452 -3.2802 -3.0478 -0.0070
   60MOL0     H 7886   3.499   8.304   6.387  1.6014  0.8958  0.9003
   60MOL0     H 7887   3.549   8.339   6.221  0.4745  0.4565  0.4740
   60MOL0     H 7888   3.372   8.526   6.211 -0.7829  0.5641  0.8517
   60MOL0     H 7889   3.332   8.494   6.381 -0.5584  0.9024 -1.3202
   60MOL0     H 7890   3.273   8.308   6.147  0.5943  1.0919 -0.3839
   60MOL0     H 7891   3.160   8.398   6.227  0.3458  0.2811  0.6717
   60MOL0     H 7892   3.318   8.188   6.371  1.2209  0.8164 -0.5367
   60MOL0     H 7893   3.238   8.313   6.456 -0.4368 -2.3072  1.1570
   60MOL0     H 7894   3.105   8.090   6.401  1.2363  0.2637 -0.0791
   60MOL0     H 7895   3.096   8.144   6.245 -1.9094  0.5637 -0.0972
   60MOL0     H 7896   2.971   8.364   6.346 -3.2891  0.8461  3.1814
   60MOL0     H 7897   3.017   8.300   6.496  1.6999 -2.7939  0.1743
   60MOL0     H 7898   2.785   8.251   6.421  1.7327  1.6744  0.4940
   60MOL0     H 7899   2.869   8.129   6.309  2.3577 -1.6683 -0.2793
   60MOL0     H 7900   2.871   8.108   6.618  1.1623 -1.5219  0.7556
   60MOL0     H 7901   2.946   8.002   6.503 -0.3359  1.3982 -2.5738
   60MOL0     H 7902   3.593   8.490   6.097  0.8961 -0.4544 -0.0162
   60MOL0     H 7903   3.800   8.562   5.961 -0.6950 -3.6087 -0.0195
   60MOL0     H 7904   4.320   8.949   6.123  1.9561 -0.5511 -0.3483
   60MOL0     H 7905   4.494   8.962   5.997  0.4098  2.2358 -3.3125
   60MOL0     H 7906   6.225   9.261   5.260 -1.5047 -0.6394  0.9477
   60MOL0     H 7907   6.470   9.335   5.271 -0.1239  2.5802  1.2224
   60MOL0     H 7908   6.889   9.326   5.423 -1.4932 -0.9711  0.2738
   60MOL0     H 7909   7.093   9.439   5.461 -0.5497  1.0647 -0.1752
   60MOL0     H 7910   7.354   9.625   5.623  0.9041  0.1561  1.0766
   60MOL0     H 7911   7.257   9.485   5.594 -0.8677 -0.5490 -0.0251
   60MOL0     H 7912   7.151   9.518   5.818  1.6401 -2.8413 -0.6602
   60MOL0     H 7913   7.320   9.506   5.835  1.6192  0.9979 -0.6869
   60MOL0     H 7914   7.236   9.674   5.979  1.6700  0.5086 -0.2476
   60MOL0     H 7915   7.144   9.763   5.848  0.5950  1.2358 -1.9182
   60MOL0     H 7916   7.369   9.831   5.739 -2.0113 -1.1335 -0.4067
   60MOL0     H 7917   7.339   9.900   5.889  1.4623 -0.8077 -0.5851
   60MOL0     H 7918   7.681   9.627   5.942 -0.1715  0.7557  3.8961
   60MOL0     H 7919   6.904   9.733   5.706 -1.4773  0.4679 -0.3304
   60MOL0     H 7920   6.699   9.628   5.661  0.1033  0.3699 -1.1957
   61MOL0     O 7921   5.754   5.208   6.932  0.0800  0.1185 -0.0042
   61MOL0     C 7922   5.643   5.185   6.896  0.2324  0.7190  0.7222
   61MOL0     O 7923   5.558   5.270   6.827 -0.4368  0.1142  0.6488
   61MOL0     C 7924   5.608   5.398   6.812  0.6383  0.5130 -0.1904
   61MOL0     C 7925   5.528   5.506   6.853 -0.0466  0.4095 -0.3303
   61MOL0     C 7926   5.567   5.639   6.843  0.6799  0.4113  0.1153
   61MOL0     C 7927   5.687   5.670   6.779 -0.2002  0.5707 -0.0766
   61MOL0     O 7928   5.700   5.802   6.764 -0.6159 -0.0619 -0.3385
   61MOL0     C 7929   5.824   5.847   6.815  0.7084 -0.3630 -0.2826
   61MOL0     C 7930   5.834   6.000   6.805 -0.0394  0.3760  0.2687
   61MOL0     C 7931   5.734   6.071   6.894 -0.4339 -0.2805 -0.0591
   61MOL0     C 7932   5.697   6.208   6.833  0.5413  0.4455 -0.7236
   61MOL0     C 7933   5.568   6.269   6.897  0.3746  0.3552 -0.5879
   61MOL0     C 7934   5.435   6.208   6.856 -0.1326 -0.4501 -0.5405
   61MOL0     C 7935   5.313   6.282   6.897  0.8273  0.6515 -0.9112
   61MOL0     C 7936   5.263   6.387   6.808 -0.5230 -0.0153 -0.8096
   61MOL0     N 7937   5.153   6.459   6.871  0.0671 -0.1694 -0.7754
   61MOL0     C 7938   5.021   6.454   6.834 -0.7242  0.8170  0.3205
   61MOL0     C 7939   4.960   6.564   6.882 -0.0927 -0.2721  0.1933
   61MOL0     C 7940   4.815   6.607   6.860  0.3815  0.7631  0.3420
   61MOL0     C 7941   4.720   6.507   6.932 -1.1200 -0.3265 -0.1667
   61MOL0     C 7942   4.574   6.547   6.917 -0.1153  1.3210 -0.4649
   61MOL0     C 7943   4.482   6.472   7.016  0.4132  0.1338 -0.4718
   61MOL0     O 7944   4.346   6.502   6.972  0.2037  0.2523  0.4761
   61MOL0     C 7945   4.236   6.457   7.037  0.2316 -0.3654  0.3395
   61MOL0     C 7946   4.237   6.372   7.147  0.5900  0.2464 -0.5571
   61MOL0     C 7947   4.114   6.326   7.217 -0.3498  0.2717  0.9769
   61MOL0     C 7948   3.991   6.371   7.170 -0.6500  0.3181 -0.1188
   61MOL0     C 7949   3.868   6.347   7.246  0.4727  0.6165 -1.0412
   61MOL0     O 7950   3.753   6.421   7.222 -0.8095 -0.4096 -0.3791
   61MOL0     C 7951   3.640   6.366   7.270 -0.1165 -0.4267 -0.3354
   61MOL0     C 7952   3.604   6.352   7.405  0.2796 -0.3467  0.1399
   61MOL0     C 7953   3.488   6.292   7.448 -0.0955  0.0433 -0.1548
   61MOL0     C 7954   3.416   6.223   7.347 -0.3355  0.7431 -0.8192
   61MOL0     O 7955   3.305   6.145   7.385 -0.4053 -0.5720  0.2257
   61MOL0     C 7956   3.207   6.230   7.446 -0.1917  0.0823  0.3398
   61MOL0     C 7957   3.064   6.165   7.436  0.0790  0.6983  0.0173
   61MOL0     C 7958   3.028   6.058   7.549  0.2744 -0.0634 -0.4394
   61MOL0     C 7959   2.976   6.127   7.676 -0.2870  0.1406  0.1763
   61MOL0     C 7960   2.891   6.031   7.764  0.5547 -0.2739 -0.1939
   61MOL0     C 7961   2.965   5.907   7.807  0.3899  0.5060 -0.1568
   61MOL0     C 7962   2.855   5.798   7.852  0.7048 -0.3299  0.9348
   61MOL0     C 7963   2.916   5.661   7.895  0.5843  0.7414 -1.2058
   61MOL0    Cl 7964   3.036   5.666   8.028  0.6070  0.1886 -0.3770
   61MOL0     C 7965   3.448   6.237   7.213 -0.1501  0.4052  0.1130
   61MOL0     C 7966   3.558   6.310   7.173 -0.6494  0.1824 -0.1205
   61MOL0     O 7967   3.872   6.258   7.331  0.1730  0.3735  0.1720
   61MOL0     C 7968   3.995   6.460   7.059  0.0423 -0.1460  0.2341
   61MOL0     C 7969   4.110   6.497   6.988  1.1846  0.9158 -0.0388
   61MOL0     N 7970   5.052   6.628   6.961  0.1008  0.9861 -0.7411
   61MOL0     N 7971   5.171   6.570   6.948 -0.4388  0.3009 -0.0824
   61MOL0     C 7972   5.764   5.563   6.741  0.0142 -0.3515 -0.3261
   61MOL0     C 7973   5.729   5.431   6.755  0.1894 -0.2910 -0.0355
   61MOL0     C 7974   5.596   5.048   6.904 -0.7079  0.1768  0.6100
   61MOL0     C 7975   5.680   4.933   6.906 -1.2281  0.5879  0.3569
   61MOL0     C 7976   5.632   4.799   6.889  0.4466 -1.1106 -0.2697
   61MOL0     C 7977   5.495   4.789   6.858  0.0514 -0.6297 -0.5570
   61MOL0     O 7978   5.435   4.666   6.833 -0.0988 -0.6405 -0.1161
   61MOL0     C 7979   5.521   4.557   6.824  0.2877  0.4772 -0.2968
   61MOL0     C 7980   5.440   4.430   6.806  0.4238  0.4342 -0.1458
   61MOL0     C 7981   5.333   4.433   6.690 -0.3981  0.1889  0.5975
   61MOL0     C 7982   5.243   4.306   6.680 -0.4394  0.0162  0.9831
   61MOL0     C 7983   5.308   4.174   6.696  0.1574 -0.7102  0.3526
   61MOL0     C 7984   5.367   4.070   6.700  0.3002 -0.1406 -0.8370
   61MOL0     C 7985   5.407   4.896   6.857  0.1044  0.0236  0.1825
   61MOL0     C 7986   5.456   5.024   6.893 -0.3694  0.0783 -0.8567
   61MOL0     H 7987   5.427   5.484   6.886 -0.1647  2.0122  0.4964
   61MOL0     H 7988   5.499   5.715   6.880  0.2749  1.0620 -1.8585
   61MOL0     H 7989   5.898   5.792   6.756  1.1929 -1.8796  1.6601
   61MOL0     H 7990   5.832   5.812   6.918  0.6602 -2.0439 -0.8254
   61MOL0     H 7991   5.826   6.027   6.700 -0.7799  1.4828  0.5837
   61MOL0     H 7992   5.935   6.033   6.830  0.2632 -0.9597  0.9053
   61MOL0     H 7993   5.781   6.103   6.987 -0.7056 -2.1983  0.7653
   61MOL0     H 7994   5.642   6.012   6.901 -1.5218  1.0111 -2.3674
   61MOL0     H 7995   5.773   6.286   6.842  1.8699 -0.8376 -0.4707
   61MOL0     H 7996   5.674   6.189   6.728 -0.4218 -0.4259 -0.3653
   61MOL0     H 7997   5.563   6.372   6.861  0.9105 -0.2323 -2.4375
   61MOL0     H 7998   5.575   6.278   7.006 -2.4769 -0.0840 -0.2847
   61MOL0     H 7999   5.432   6.107   6.897 -2.7678  0.9019  3.0523
   61MOL0     H 8000   5.440   6.209   6.746  1.9021  0.3049 -0.4972
   61MOL0     H 8001   5.237   6.207   6.921  0.9892 -0.2260 -2.9415
   61MOL0     H 8002   5.341   6.326   6.994  0.6853 -0.0299 -0.5571
   61MOL0     H 8003   5.239   6.332   6.717  0.9247 -1.1851 -0.5186
   61MOL0     H 8004   5.341   6.459   6.780 -1.9908  1.6839 -0.7180
   61MOL0     H 8005   4.980   6.380   6.765 -2.7143 -0.9055  3.1521
   61MOL0     H 8006   4.794   6.606   6.753  1.3288  1.7430  0.1310
   61MOL0     H 8007   4.803   6.707   6.902 -1.4786  1.1159 -0.9102
   61MOL0     H 8008   4.746   6.494   7.038  3.2027  2.2223 -0.6865
   61MOL0     H 8009   4.745   6.411   6.887  5.6395  0.6231  0.5997
   61MOL0     H 8010   4.558   6.654   6.933 -0.5734  1.2190 -0.2181
   61MOL0     H 8011   4.547   6.519   6.815  1.5662  0.3937 -0.6982
   61MOL0     H 8012   4.509   6.509   7.116  0.5376 -0.1346 -0.4046
   61MOL0     H 8013   4.497   6.364   7.021 -2.5928 -0.3379  0.4136
   61MOL0     H 8014   4.328   6.339   7.196  1.8438  0.6862 -2.4805
   61MOL0     H 8015   4.132   6.273   7.311  0.1155  1.1262  1.3834
   61MOL0     H 8016   3.667   6.399   7.481 -3.8545 -0.4576  4.0272
   61MOL0     H 8017   3.470   6.281   7.554  1.4321 -3.8141 -0.1367
   61MOL0     H 8018   3.201   6.326   7.394  1.4335  0.5132  0.8726
   61MOL0     H 8019   3.238   6.254   7.548  1.7505 -1.7205  0.2604
   61MOL0     H 8020   3.075   6.107   7.343  4.0587 -1.0425  1.3787
   61MOL0     H 8021   2.996   6.250   7.424  1.0284  1.3634 -0.9051
   61MOL0     H 8022   3.112   5.993   7.575  1.0379  0.2258 -2.0944
   61MOL0     H 8023   2.956   5.990   7.503 -1.5709  1.8385 -0.4819
   61MOL0     H 8024   3.065   6.169   7.724  0.2731 -0.1950 -0.5497
   61MOL0     H 8025   2.919   6.212   7.638  0.1104  0.6786  0.7681
   61MOL0     H 8026   2.798   6.002   7.714  0.1053 -0.9144  0.9712
   61MOL0     H 8027   2.859   6.087   7.853  1.0255  1.5187 -1.0997
   61MOL0     H 8028   3.026   5.930   7.895  2.7889  1.3626 -1.9525
   61MOL0     H 8029   3.026   5.863   7.728  1.2411  3.1179 -1.0370
   61MOL0     H 8030   2.784   5.831   7.929 -0.3725 -0.2795 -0.0527
   61MOL0     H 8031   2.789   5.781   7.766 -0.5941  0.5869  1.7163
   61MOL0     H 8032   2.972   5.627   7.807  0.9126  0.7507 -0.9999
   61MOL0     H 8033   2.837   5.595   7.932 -0.2307  2.2926 -0.0930
   61MOL0     H 8034   3.392   6.176   7.143 -0.3808 -1.2921  1.6938
   61MOL0     H 8035   3.593   6.317   7.070 -1.0949 -0.9838 -0.3714
   61MOL0     H 8036   3.897   6.488   7.022  1.5250  2.5108 -2.0852
   61MOL0     H 8037   4.100   6.548   6.893 -1.6349 -1.7760 -1.3641
   61MOL0     H 8038   5.865   5.576   6.702  0.5182  0.7384  1.2600
   61MOL0     H 8039   5.792   5.352   6.715  0.1031 -0.0254 -0.7019
   61MOL0     H 8040   5.788   4.946   6.896 -1.5181  1.5423 -2.2762
   61MOL0     H 8041   5.699   4.715   6.875 -0.5572 -1.4614 -3.9741
   61MOL0     H 8042   5.570   4.542   6.921 -1.1617 -2.7736  0.0932
   61MOL0     H 8043   5.597   4.568   6.747  1.7513  1.1755  1.1859
   61MOL0     H 8044   5.512   4.353   6.775 -1.2983 -0.8653 -1.0796
   61MOL0     H 8045   5.385   4.393   6.893  0.7460 -3.5704 -1.4181
   61MOL0     H 8046   5.381   4.454   6.594 -1.5965 -0.6985 -0.2284
   61MOL0     H 8047   5.258   4.512   6.701 -2.1038 -1.1171 -1.0422
   61MOL0     H 8048   5.156   4.302   6.746 -2.2972 -0.5062 -1.3830
   61MOL0     H 8049   5.216   4.293   6.575  1.7468  1.6129  0.1451
   61MOL0     H 8050   5.423   3.979   6.697  0.8278  0.1772 -0.7576
   61MOL0     H 8051   5.302   4.874   6.840  0.2131 -0.9513  0.6847
   61MOL0     H 8052   5.396   5.115   6.894  1.8839  1.6484 -0.9022
   62MOL0     O 8053   4.120   2.110   4.355 -0.0835 -0.0271  0.3834
   62MOL0     C 8054   4.131   2.158   4.466 -0.0228 -0.5396 -0.5113
   62MOL0     O 8055   4.031   2.223   4.538 -0.5987  0.0311  0.2667
   62MOL0     C 8056   3.899   2.244   4.496 -0.3590 -0.5208 -0.7948
   62MOL0     C 8057   3.835   2.175   4.396 -0.6907 -0.1353 -0.5672
   62MOL0     C 8058   3.699   2.184   4.371 -0.8603 -0.8847  0.0876
   62MOL0     C 8059   3.630   2.281   4.433  0.1499 -0.0657 -0.0691
   62MOL0     O 8060   3.496   2.302   4.398 -0.4615  0.0169 -0.0542
   62MOL0     C 8061   3.464   2.334   4.259  0.0071  0.7871 -0.3762
   62MOL0     C 8062   3.314   2.327   4.239  0.1561 -0.3290  0.4942
   62MOL0     C 8063   3.277   2.353   4.088  0.0974  0.4189 -0.0974
   62MOL0     C 8064   3.132   2.366   4.042  0.9872 -0.1303  0.1982
   62MOL0     C 8065   3.125   2.387   3.888 -0.9350  0.0531  0.6497
   62MOL0     C 8066   2.980   2.381   3.823  0.4492  0.3043 -0.0213
   62MOL0     C 8067   2.897   2.501   3.884 -0.5443  0.2671  0.0787
   62MOL0     C 8068   2.777   2.528   3.793  0.2621 -0.1559  0.6762
   62MOL0     N 8069   2.806   2.565   3.650  0.1117  0.1149 -0.6918
   62MOL0     C 8070   2.750   2.485   3.544  0.4812  0.3394  0.1002
   62MOL0     C 8071   2.768   2.565   3.439  0.6113 -0.5595  0.0290
   62MOL0     C 8072   2.734   2.517   3.295 -0.6002  0.1095  0.8321
   62MOL0     C 8073   2.585   2.508   3.276 -0.0180 -0.3957  0.3534
   62MOL0     C 8074   2.543   2.366   3.231 -0.2645 -0.1496 -0.3196
   62MOL0     C 8075   2.398   2.342   3.219  0.0471 -0.2745  0.2691
   62MOL0     O 8076   2.337   2.374   3.341 -0.2670 -0.6952 -0.0201
   62MOL0     C 8077   2.369   2.310   3.458  0.1678  0.0788  1.5303
   62MOL0     C 8078   2.347   2.375   3.581  0.3424  0.6038 -0.0137
   62MOL0     C 8079   2.389   2.314   3.694  0.2175  0.1384 -1.1240
   62MOL0     C 8080   2.450   2.185   3.707  0.3162  0.6461  0.3558
   62MOL0     C 8081   2.489   2.130   3.841  0.7750  1.1391  0.4099
   62MOL0     O 8082   2.519   2.228   3.929  0.3208  0.2929 -0.0831
   62MOL0     C 8083   2.522   2.208   4.067 -0.7569  0.0516  0.9635
   62MOL0     C 8084   2.467   2.104   4.144 -0.0608  0.4961 -0.5909
   62MOL0     C 8085   2.493   2.094   4.286 -0.4664  0.2025 -0.3573
   62MOL0     C 8086   2.563   2.196   4.348  1.0865 -0.0353 -0.5227
   62MOL0     O 8087   2.570   2.193   4.484  0.1441  0.0207 -0.0071
   62MOL0     C 8088   2.658   2.280   4.560 -0.5857 -0.1921 -0.3380
   62MOL0     C 8089   2.694   2.209   4.692 -0.0426  0.7391  0.1517
   62MOL0     C 8090   2.583   2.186   4.793 -0.0111 -0.2525 -0.5466
   62MOL0     C 8091   2.637   2.129   4.921 -0.5338 -0.2781 -0.2636
   62MOL0     C 8092   2.533   2.147   5.033 -0.7951  0.2715 -0.0991
   62MOL0     C 8093   2.392   2.075   4.998 -0.0036 -0.0821 -0.0195
   62MOL0     C 8094   2.308   2.075   5.127 -0.6440  0.4391 -0.0350
   62MOL0     C 8095   2.162   2.065   5.097 -0.5460  0.1165 -0.0369
   62MOL0    Cl 8096   2.082   2.086   5.256  0.1932  0.5524 -0.5547
   62MOL0     C 8097   2.611   2.302   4.276  0.7314 -1.0650 -0.0724
   62MOL0     C 8098   2.583   2.313   4.140  0.2202  0.4228  0.9225
   62MOL0     O 8099   2.492   2.011   3.859  0.8409  0.2670 -0.5105
   62MOL0     C 8100   2.446   2.115   3.579 -0.0924  0.5023 -0.7441
   62MOL0     C 8101   2.410   2.177   3.457  0.2857  0.9491  0.1780
   62MOL0     N 8102   2.835   2.683   3.477 -0.1772 -0.7572  0.1504
   62MOL0     N 8103   2.858   2.682   3.598  0.4516 -0.1141 -0.2127
   62MOL0     C 8104   3.691   2.366   4.522  0.1095  0.2419 -0.2846
   62MOL0     C 8105   3.820   2.343   4.562  0.0201  0.1204 -0.3708
   62MOL0     C 8106   4.245   2.135   4.547  0.0947  0.3904  0.5675
   62MOL0     C 8107   4.233   2.120   4.686 -0.0607  0.2902 -0.1437
   62MOL0     C 8108   4.351   2.086   4.759  1.1646 -0.4470 -0.8238
   62MOL0     C 8109   4.476   2.065   4.696 -0.6236  0.6179  0.3106
   62MOL0     O 8110   4.580   2.020   4.767  0.0518  0.2822 -0.0587
   62MOL0     C 8111   4.598   2.102   4.892  0.3774 -0.2663  0.0448
   62MOL0     C 8112   4.701   2.031   4.975 -0.3106 -0.7589 -0.1721
   62MOL0     C 8113   4.845   2.061   4.912  0.3096  0.0528  0.0085
   62MOL0     C 8114   4.951   2.005   5.009  0.0379  0.3839 -0.4306
   62MOL0     C 8115   5.088   2.051   4.990 -0.2364 -1.0382 -0.4292
   62MOL0     C 8116   5.202   2.083   4.983 -0.0849 -0.3569  0.0501
   62MOL0     C 8117   4.484   2.093   4.562  0.6292 -0.0941  0.6831
   62MOL0     C 8118   4.368   2.127   4.488  0.8706 -0.1247 -1.1790
   62MOL0     H 8119   3.884   2.102   4.332  1.6257  2.6625 -2.2579
   62MOL0     H 8120   3.655   2.123   4.293  0.2181  0.4473 -1.6312
   62MOL0     H 8121   3.505   2.257   4.193 -0.6629  0.6818 -0.6753
   62MOL0     H 8122   3.514   2.428   4.233  1.7909 -0.1257 -0.3931
   62MOL0     H 8123   3.263   2.389   4.313 -0.3322 -1.1714  0.8773
   62MOL0     H 8124   3.285   2.225   4.264 -1.0819  0.3484  2.0020
   62MOL0     H 8125   3.318   2.263   4.041 -1.7207 -1.3231  1.4055
   62MOL0     H 8126   3.334   2.437   4.049  2.7022 -2.8137 -4.1454
   62MOL0     H 8127   3.091   2.269   4.072  3.6569 -1.2214  0.5394
   62MOL0     H 8128   3.080   2.446   4.097 -2.0225 -2.7966  1.6329
   62MOL0     H 8129   3.185   2.305   3.847  0.3537  0.9033  0.7694
   62MOL0     H 8130   3.173   2.481   3.857 -3.3268  1.0879 -0.0869
   62MOL0     H 8131   2.939   2.281   3.840  0.9351  0.2184  0.6983
   62MOL0     H 8132   2.999   2.395   3.716 -1.1164 -0.7330 -0.4766
   62MOL0     H 8133   2.861   2.483   3.986 -0.1281  0.1956  0.2165
   62MOL0     H 8134   2.961   2.590   3.890 -0.3992  0.3694 -2.1036
   62MOL0     H 8135   2.721   2.608   3.842  0.3741 -0.0442  0.6243
   62MOL0     H 8136   2.719   2.435   3.798 -0.8117  0.0559 -3.7670
   62MOL0     H 8137   2.706   2.387   3.526  1.0419 -0.2503  1.7689
   62MOL0     H 8138   2.780   2.419   3.284  0.7158  0.8895 -1.2594
   62MOL0     H 8139   2.778   2.580   3.217  1.1049 -0.0207  1.6461
   62MOL0     H 8140   2.566   2.576   3.193  0.2648 -1.6154 -0.7468
   62MOL0     H 8141   2.526   2.548   3.359  1.2409 -0.0921  1.1324
   62MOL0     H 8142   2.579   2.343   3.130 -0.4020  0.3608 -0.4851
   62MOL0     H 8143   2.591   2.288   3.291 -0.8839 -0.7784 -0.6266
   62MOL0     H 8144   2.371   2.241   3.188 -0.0143 -0.1346 -0.1414
   62MOL0     H 8145   2.360   2.412   3.143  1.5914  1.1741  0.7623
   62MOL0     H 8146   2.310   2.476   3.566  1.6977  1.0603 -0.3975
   62MOL0     H 8147   2.363   2.358   3.790 -0.2505 -3.3248  0.4806
   62MOL0     H 8148   2.409   2.030   4.090 -0.0236  0.2130 -0.2478
   62MOL0     H 8149   2.455   2.010   4.345  0.5587  0.3668  0.5656
   62MOL0     H 8150   2.604   2.373   4.579 -0.8418 -0.2604 -0.7235
   62MOL0     H 8151   2.755   2.299   4.513  0.6472  0.8180  2.3832
   62MOL0     H 8152   2.757   2.280   4.747  0.1334  0.4500  0.3250
   62MOL0     H 8153   2.762   2.124   4.677 -0.2417  0.5256  0.4416
   62MOL0     H 8154   2.499   2.129   4.751  0.2044 -1.4538  0.6295
   62MOL0     H 8155   2.549   2.285   4.825 -0.3700 -0.1183 -1.3212
   62MOL0     H 8156   2.650   2.021   4.910  1.9295  0.0724 -1.5812
   62MOL0     H 8157   2.722   2.187   4.958 -1.1636 -0.4445  1.5357
   62MOL0     H 8158   2.508   2.250   5.058 -0.0858  0.1864  1.0444
   62MOL0     H 8159   2.571   2.107   5.128 -0.5700  2.9194  1.0217
   62MOL0     H 8160   2.390   1.971   4.966  0.1099  0.3086 -1.3670
   62MOL0     H 8161   2.336   2.128   4.920 -0.8523 -1.6713 -0.5272
   62MOL0     H 8162   2.339   1.994   5.195  2.1999 -0.8791 -2.6595
   62MOL0     H 8163   2.318   2.170   5.180 -2.3226  1.3583 -1.2903
   62MOL0     H 8164   2.143   1.971   5.044  0.3893 -0.1781  0.1412
   62MOL0     H 8165   2.144   2.155   5.038  1.7267  1.5179  1.2883
   62MOL0     H 8166   2.659   2.392   4.314  0.3661 -1.3002  0.9715
   62MOL0     H 8167   2.622   2.395   4.080  0.1806 -0.3816 -0.2493
   62MOL0     H 8168   2.474   2.010   3.583  4.8529  1.6166 -0.0781
   62MOL0     H 8169   2.411   2.120   3.365  0.0660  0.7617  0.2918
   62MOL0     H 8170   3.637   2.444   4.575 -2.7035 -0.8229 -1.3808
   62MOL0     H 8171   3.868   2.407   4.636  4.3251 -0.1551 -2.6196
   62MOL0     H 8172   4.140   2.124   4.741 -0.9398 -2.5304 -1.2272
   62MOL0     H 8173   4.325   2.071   4.864  2.3019 -1.2102 -0.6276
   62MOL0     H 8174   4.506   2.107   4.951  1.4948  0.6800  1.8001
   62MOL0     H 8175   4.622   2.207   4.872 -0.4633  0.0478  0.6155
   62MOL0     H 8176   4.705   2.074   5.075  2.3531  1.9289 -1.2708
   62MOL0     H 8177   4.686   1.923   4.968 -0.9719 -0.6367 -0.7066
   62MOL0     H 8178   4.862   2.168   4.902 -0.0037  0.1795  0.7336
   62MOL0     H 8179   4.852   2.011   4.815 -4.0675  0.4635 -0.7079
   62MOL0     H 8180   4.913   2.033   5.107  1.2977  0.9305 -0.0768
   62MOL0     H 8181   4.972   1.898   4.999  0.2093  0.4458 -0.7263
   62MOL0     H 8182   5.304   2.115   4.976 -0.7423  1.5961 -1.4359
   62MOL0     H 8183   4.580   2.103   4.511  1.0236 -0.7489  1.2843
   62MOL0     H 8184   4.369   2.148   4.381 -0.7788 -0.3280 -1.2597
   63MOL0     O 8185   9.345   1.813   7.461  0.2143 -0.5737 -1.2092
   63MOL0     C 8186   9.366   1.924   7.417  0.8378 -1.4137  0.4058
   63MOL0     O 8187   9.264   2.020   7.383  0.1554  0.3166  0.3273
   63MOL0     C 8188   9.139   1.999   7.441  0.0795 -0.3751  0.0458
   63MOL0     C 8189   9.084   2.086   7.536  0.2559 -0.0515  0.3400
   63MOL0     C 8190   8.956   2.055   7.588  0.0563  0.3707  0.1670
   63MOL0     C 8191   8.884   1.945   7.539 -0.2859  0.5231 -0.6541
   63MOL0     O 8192   8.749   1.921   7.568 -0.2913 -0.2407 -0.1638
   63MOL0     C 8193   8.663   2.033   7.534  0.0463  0.1650  0.7559
   63MOL0     C 8194   8.524   1.996   7.574 -0.1084 -0.8891 -0.3939
   63MOL0     C 8195   8.461   1.868   7.537 -0.3398  1.0491  0.7490
   63MOL0     C 8196   8.312   1.896   7.509 -0.5650 -0.4244 -0.6701
   63MOL0     C 8197   8.218   1.768   7.507  0.2048 -0.8260  0.1241
   63MOL0     C 8198   8.075   1.817   7.528 -0.0048  0.2695  0.2906
   63MOL0     C 8199   7.977   1.702   7.518 -0.2465 -0.3585  0.1962
   63MOL0     C 8200   7.841   1.759   7.557 -0.2445  0.3381 -1.0088
   63MOL0     N 8201   7.743   1.656   7.588  0.2909  0.3254 -0.9439
   63MOL0     C 8202   7.751   1.574   7.698 -0.2535  0.0543  0.3485
   63MOL0     C 8203   7.658   1.476   7.683  0.2668  0.1246  0.2665
   63MOL0     C 8204   7.615   1.384   7.781  0.1764 -0.3839 -0.0128
   63MOL0     C 8205   7.477   1.424   7.830  0.7468 -0.0482 -0.0331
   63MOL0     C 8206   7.476   1.483   7.967  0.5955 -0.3782  0.3344
   63MOL0     C 8207   7.326   1.505   8.001 -1.3956  0.1642 -0.0035
   63MOL0     O 8208   7.260   1.375   8.029 -0.2363  0.1378  0.0776
   63MOL0     C 8209   7.128   1.367   8.042 -0.1369 -0.9391 -0.4996
   63MOL0     C 8210   7.073   1.252   8.097  0.4242 -0.4847  0.0083
   63MOL0     C 8211   6.932   1.237   8.104 -0.9059  0.3114  0.1519
   63MOL0     C 8212   6.844   1.337   8.062 -1.4517 -0.9605  0.5595
   63MOL0     C 8213   6.706   1.311   8.051 -0.2694  0.0958 -0.0498
   63MOL0     O 8214   6.642   1.248   8.155 -0.1840  0.2832  0.2735
   63MOL0     C 8215   6.505   1.224   8.138 -0.7218 -0.0202 -0.0179
   63MOL0     C 8216   6.412   1.325   8.138 -0.3148  0.5604  0.4528
   63MOL0     C 8217   6.272   1.289   8.132  0.0316 -0.2722  0.1868
   63MOL0     C 8218   6.223   1.156   8.114  0.1624 -0.9196 -0.1225
   63MOL0     O 8219   6.097   1.120   8.109 -0.1865 -0.0774 -0.0710
   63MOL0     C 8220   5.998   1.220   8.098 -0.0414 -1.1380  0.4441
   63MOL0     C 8221   5.863   1.157   8.042 -0.0170  0.3619 -0.0708
   63MOL0     C 8222   5.753   1.259   8.075 -0.0698 -0.3772 -0.0704
   63MOL0     C 8223   5.614   1.203   8.060 -0.1942 -0.1855 -0.3610
   63MOL0     C 8224   5.508   1.286   8.128  0.3447 -0.9629 -0.6116
   63MOL0     C 8225   5.386   1.213   8.164  0.1947 -0.0996 -0.9080
   63MOL0     C 8226   5.284   1.308   8.219  0.0491  0.3028  0.3031
   63MOL0     C 8227   5.198   1.388   8.124  0.1685  0.0873  0.9228
   63MOL0    Cl 8228   5.107   1.299   8.003  0.1273  0.0705 -0.4150
   63MOL0     C 8229   6.328   1.060   8.104  0.4474  0.1112  0.7790
   63MOL0     C 8230   6.462   1.087   8.117 -0.3299 -0.0638 -0.2946
   63MOL0     O 8231   6.646   1.351   7.953 -1.1608  0.1693  0.1505
   63MOL0     C 8232   6.892   1.460   8.015  0.1277 -0.9575 -0.4114
   63MOL0     C 8233   7.037   1.471   7.997 -0.0503  0.4160  0.4760
   63MOL0     N 8234   7.591   1.508   7.568  0.4740 -0.3732 -0.0518
   63MOL0     N 8235   7.644   1.608   7.508  0.3586 -0.6989  0.1595
   63MOL0     C 8236   8.940   1.867   7.433  0.3373 -0.0976 -0.5583
   63MOL0     C 8237   9.066   1.893   7.381 -0.1061 -1.4399  0.3712
   63MOL0     C 8238   9.509   1.963   7.393 -0.4163  0.2654 -0.0553
   63MOL0     C 8239   9.548   2.095   7.383  0.1062 -0.2661  0.2118
   63MOL0     C 8240   9.680   2.135   7.365  0.1463 -0.0301  0.1143
   63MOL0     C 8241   9.785   2.045   7.359 -1.1766 -0.1781  0.3598
   63MOL0     O 8242   9.906   2.109   7.340  1.0346  0.1631  0.3182
   63MOL0     C 8243  10.029   2.027   7.329  0.3156  0.1887 -0.3414
   63MOL0     C 8244  10.169   2.106   7.354 -0.3519  0.1694 -0.3446
   63MOL0     C 8245  10.229   2.169   7.222 -0.5357  0.4129  0.2844
   63MOL0     C 8246  10.383   2.183   7.223 -0.0748  0.3526 -0.0647
   63MOL0     C 8247  10.457   2.055   7.202  0.0851 -1.2324 -0.7166
   63MOL0     C 8248  10.518   1.954   7.199 -0.0572  0.8762  0.6292
   63MOL0     C 8249   9.746   1.912   7.361 -1.1294 -0.3379 -0.6201
   63MOL0     C 8250   9.614   1.870   7.384  0.1328  0.3530  0.5539
   63MOL0     H 8251   9.141   2.170   7.573  1.1234 -1.0646  1.3644
   63MOL0     H 8252   8.893   2.116   7.651 -2.2355 -2.7809  1.1532
   63MOL0     H 8253   8.673   2.040   7.426 -0.3739 -0.1682  0.6934
   63MOL0     H 8254   8.683   2.121   7.596 -1.0882 -0.1438  1.6061
   63MOL0     H 8255   8.457   2.073   7.537  1.2391  0.2371 -0.5852
   63MOL0     H 8256   8.513   1.993   7.683  3.6159  0.1355  0.1494
   63MOL0     H 8257   8.464   1.792   7.616 -0.7418  0.0419 -0.1855
   63MOL0     H 8258   8.498   1.827   7.442 -1.5515  1.9777 -0.1561
   63MOL0     H 8259   8.273   1.960   7.590 -1.6436 -0.9260 -0.7726
   63MOL0     H 8260   8.307   1.962   7.422 -1.4044 -0.9367 -1.0253
   63MOL0     H 8261   8.255   1.714   7.595 -1.2940  1.6485  2.4323
   63MOL0     H 8262   8.226   1.717   7.411 -0.9334  0.9948 -1.0033
   63MOL0     H 8263   8.046   1.885   7.448  0.1605 -1.2083 -1.0702
   63MOL0     H 8264   8.054   1.858   7.628 -0.3094  0.5532  0.1104
   63MOL0     H 8265   7.972   1.661   7.417 -1.5862  0.6033 -0.1472
   63MOL0     H 8266   8.019   1.630   7.589  0.2637  1.2918  1.6573
   63MOL0     H 8267   7.796   1.819   7.477  0.8012  1.8160 -0.5222
   63MOL0     H 8268   7.850   1.816   7.650  0.9973 -1.3735 -0.0411
   63MOL0     H 8269   7.824   1.587   7.777  0.3417  4.1886 -0.6674
   63MOL0     H 8270   7.688   1.391   7.862 -0.9744  0.1798  1.0182
   63MOL0     H 8271   7.620   1.282   7.743  2.8037 -0.9918  1.6653
   63MOL0     H 8272   7.410   1.338   7.845  0.8454  0.3184  3.3822
   63MOL0     H 8273   7.434   1.491   7.755  2.0977 -0.4936 -1.2414
   63MOL0     H 8274   7.529   1.414   8.035 -1.5341 -1.3454  1.0963
   63MOL0     H 8275   7.516   1.585   7.960 -2.9896  1.0844 -1.0406
   63MOL0     H 8276   7.282   1.548   7.911  1.3267 -0.9088 -1.9841
   63MOL0     H 8277   7.327   1.569   8.090  1.7030  0.7084 -0.3233
   63MOL0     H 8278   7.141   1.178   8.139 -0.6883 -1.6889 -0.2469
   63MOL0     H 8279   6.881   1.146   8.133 -2.1194  0.0024 -2.6588
   63MOL0     H 8280   6.441   1.429   8.150  0.8144  0.3205 -0.0050
   63MOL0     H 8281   6.210   1.377   8.140  0.4087 -0.1281  1.8728
   63MOL0     H 8282   6.029   1.294   8.024  3.9651 -2.1792  0.8729
   63MOL0     H 8283   5.976   1.259   8.197 -2.9735 -0.9147 -0.1973
   63MOL0     H 8284   5.838   1.069   8.103  0.2519  0.6092  0.4066
   63MOL0     H 8285   5.862   1.136   7.935  0.2202 -1.4619  0.2387
   63MOL0     H 8286   5.764   1.357   8.026  0.5662  1.2832  3.1387
   63MOL0     H 8287   5.760   1.278   8.182 -2.2689 -3.1232  0.6784
   63MOL0     H 8288   5.588   1.194   7.954 -1.8226  0.3251 -0.0358
   63MOL0     H 8289   5.624   1.107   8.113 -2.5188 -0.1264  0.2950
   63MOL0     H 8290   5.489   1.371   8.063  0.0731  1.0754  1.9753
   63MOL0     H 8291   5.547   1.326   8.222 -0.6728  0.9647 -0.9731
   63MOL0     H 8292   5.395   1.139   8.244 -3.3949 -2.8360 -2.7621
   63MOL0     H 8293   5.347   1.166   8.073 -0.1552  1.4968 -1.6212
   63MOL0     H 8294   5.208   1.241   8.261  1.9428 -2.4378 -0.3998
   63MOL0     H 8295   5.322   1.375   8.297  0.4802  2.8192 -1.9303
   63MOL0     H 8296   5.255   1.458   8.061 -1.1889 -1.0062 -1.6967
   63MOL0     H 8297   5.131   1.452   8.181 -1.1470  0.1913 -0.6633
   63MOL0     H 8298   6.291   0.958   8.098 -2.8464  1.2984 -1.6586
   63MOL0     H 8299   6.544   1.015   8.118 -1.6055 -1.5727 -0.6220
   63MOL0     H 8300   6.826   1.545   7.998  0.8340  0.1284  1.9539
   63MOL0     H 8301   7.060   1.569   7.957  0.2236 -0.4760 -1.6770
   63MOL0     H 8302   8.879   1.794   7.380  0.1878 -1.1524  1.0254
   63MOL0     H 8303   9.111   1.844   7.294 -1.0403 -0.8914 -0.4441
   63MOL0     H 8304   9.477   2.176   7.394  0.2387 -0.2280  0.8923
   63MOL0     H 8305   9.706   2.241   7.363  0.0730  0.0781  2.4901
   63MOL0     H 8306  10.036   1.979   7.232  0.6512  1.0972 -0.7798
   63MOL0     H 8307  10.029   1.939   7.394  2.6173  0.6071  0.3360
   63MOL0     H 8308  10.157   2.177   7.436  0.0791 -1.4166  1.1555
   63MOL0     H 8309  10.245   2.035   7.388  0.0083  0.9472  0.5133
   63MOL0     H 8310  10.185   2.269   7.215 -0.2287  0.8520  3.2612
   63MOL0     H 8311  10.198   2.109   7.135  1.6615  1.1260 -1.0651
   63MOL0     H 8312  10.421   2.252   7.147  3.0219 -1.7918 -0.6533
   63MOL0     H 8313  10.422   2.226   7.316 -0.5937 -0.6447  0.6353
   63MOL0     H 8314  10.566   1.859   7.205 -2.9247 -0.7550 -0.1116
   63MOL0     H 8315   9.818   1.836   7.331 -0.9016 -0.4534  0.1799
   63MOL0     H 8316   9.596   1.763   7.396  2.3971 -0.4146 -2.0822
   64MOL0     O 8317   5.697   2.946   5.566  0.1507  0.7209  0.1498
   64MOL0     C 8318   5.642   3.038   5.627 -0.2380 -0.0578  0.3276
   64MOL0     O 8319   5.520   3.083   5.609  0.0463 -0.1700  0.3904
   64MOL0     C 8320   5.434   3.026   5.518  1.3146  0.8587  0.8473
   64MOL0     C 8321   5.299   2.988   5.563 -1.6878  0.1607  1.1459
   64MOL0     C 8322   5.214   2.947   5.460  0.9477  0.2136  0.3388
   64MOL0     C 8323   5.253   2.941   5.327  0.4346  0.4997 -0.0653
   64MOL0     O 8324   5.156   2.887   5.248  0.1894 -0.0528 -0.0217
   64MOL0     C 8325   5.169   2.901   5.105  0.3386  0.1438  0.6628
   64MOL0     C 8326   5.073   2.815   5.033  0.6664 -0.2333  0.5901
   64MOL0     C 8327   4.933   2.852   5.084  0.5360  1.0516  0.0163
   64MOL0     C 8328   4.822   2.771   5.007 -0.3548  0.0096  0.0622
   64MOL0     C 8329   4.684   2.831   5.022  0.3801  0.3110  0.0534
   64MOL0     C 8330   4.591   2.753   4.934 -0.3358  0.8036  0.3956
   64MOL0     C 8331   4.446   2.795   4.921  0.7001 -0.0564  0.3042
   64MOL0     C 8332   4.401   2.859   5.049 -0.6463  0.6235 -0.8384
   64MOL0     N 8333   4.257   2.881   5.031 -0.5958 -0.6340 -0.5097
   64MOL0     C 8334   4.159   2.793   4.984  0.1813 -0.2995 -0.2859
   64MOL0     C 8335   4.048   2.868   4.967 -0.8712  0.0161 -0.5363
   64MOL0     C 8336   3.920   2.823   4.923 -0.3316 -0.5379 -0.7187
   64MOL0     C 8337   3.855   2.916   4.815  0.3785 -0.7929 -0.9564
   64MOL0     C 8338   3.792   3.044   4.878  0.5149  0.1200 -0.6067
   64MOL0     C 8339   3.786   3.150   4.772 -0.2883  1.3475  0.1280
   64MOL0     O 8340   3.723   3.105   4.652  0.4072  0.3165  0.1607
   64MOL0     C 8341   3.585   3.105   4.651 -0.0237 -0.4235 -0.6567
   64MOL0     C 8342   3.492   3.154   4.751 -0.7281  1.0034  0.2745
   64MOL0     C 8343   3.353   3.149   4.749 -0.1983  0.3473 -0.6516
   64MOL0     C 8344   3.297   3.107   4.623  0.0127 -0.5058  0.1515
   64MOL0     C 8345   3.151   3.133   4.605 -0.2765 -0.2503 -0.0967
   64MOL0     O 8346   3.104   3.111   4.477 -0.0363 -0.6613  0.0925
   64MOL0     C 8347   2.969   3.140   4.461 -0.3445 -0.9921  0.5019
   64MOL0     C 8348   2.934   3.228   4.356  0.1083 -0.1627 -0.3247
   64MOL0     C 8349   2.799   3.258   4.326  0.1408  0.4421 -0.9430
   64MOL0     C 8350   2.702   3.195   4.406  0.4711  0.0458 -0.0141
   64MOL0     O 8351   2.565   3.224   4.388  0.3228  0.0126  0.0238
   64MOL0     C 8352   2.524   3.336   4.316  0.6874 -0.9594  0.1593
   64MOL0     C 8353   2.372   3.342   4.313 -0.5206 -0.5223  0.3985
   64MOL0     C 8354   2.311   3.441   4.410 -0.4707 -0.1620 -0.1057
   64MOL0     C 8355   2.171   3.477   4.361 -0.5072  0.3532  0.4642
   64MOL0     C 8356   2.080   3.547   4.464 -0.2337  0.1000 -0.0543
   64MOL0     C 8357   1.933   3.569   4.415 -0.5044 -0.3587 -0.0325
   64MOL0     C 8358   1.855   3.666   4.513 -0.8087  0.4736  0.5644
   64MOL0     C 8359   1.707   3.636   4.494  0.8458 -0.6116 -1.0577
   64MOL0    Cl 8360   1.658   3.693   4.332  0.4370 -0.5730 -0.1605
   64MOL0     C 8361   2.737   3.098   4.499 -0.5124 -0.4509 -0.6201
   64MOL0     C 8362   2.869   3.068   4.530  0.8826 -0.1127  1.0020
   64MOL0     O 8363   3.079   3.157   4.698 -0.0946  0.5792  0.2689
   64MOL0     C 8364   3.378   3.056   4.521 -0.3666  0.2136  0.1282
   64MOL0     C 8365   3.516   3.058   4.537 -0.3285  0.3730  0.2923
   64MOL0     N 8366   4.073   2.991   5.030  0.1649 -0.1707  0.1603
   64MOL0     N 8367   4.197   3.004   5.059 -0.0459 -0.2035  0.0169
   64MOL0     C 8368   5.389   2.978   5.292  0.2994  0.1598 -0.3235
   64MOL0     C 8369   5.471   3.029   5.388 -0.2458 -0.0605  0.3252
   64MOL0     C 8370   5.719   3.101   5.737 -0.1120 -0.3650  0.8372
   64MOL0     C 8371   5.829   3.040   5.796  0.2603  0.2018 -0.8382
   64MOL0     C 8372   5.907   3.101   5.897 -0.1909  0.0209  0.7757
   64MOL0     C 8373   5.877   3.234   5.934  0.1654  0.3126 -1.1196
   64MOL0     O 8374   5.942   3.294   6.035 -0.4820 -0.4050  0.2850
   64MOL0     C 8375   5.942   3.220   6.163  0.1421  0.4161  0.0619
   64MOL0     C 8376   6.027   3.291   6.268  0.6283  0.0027  0.1838
   64MOL0     C 8377   6.177   3.289   6.219 -0.4556 -0.1989  0.4336
   64MOL0     C 8378   6.266   3.384   6.300 -0.3690 -0.1101 -0.3232
   64MOL0     C 8379   6.306   3.316   6.418 -0.7194  0.3405 -0.0597
   64MOL0     C 8380   6.350   3.271   6.520 -1.0915  1.3606 -0.3993
   64MOL0     C 8381   5.772   3.302   5.875  0.5877  0.4626 -0.9125
   64MOL0     C 8382   5.693   3.235   5.781 -0.7912  0.1565  0.6115
   64MOL0     H 8383   5.287   3.000   5.670  2.7663 -0.5632  1.9453
   64MOL0     H 8384   5.115   2.908   5.480  0.1933  1.9690  0.2482
   64MOL0     H 8385   5.273   2.875   5.084  0.0729 -1.1827  0.9161
   64MOL0     H 8386   5.155   3.007   5.082  2.9206  0.0451 -1.9627
   64MOL0     H 8387   5.110   2.714   5.050  2.1241  0.4344  1.5184
   64MOL0     H 8388   5.085   2.844   4.928  1.3685 -3.1169 -0.2203
   64MOL0     H 8389   4.916   2.959   5.068 -0.7252  1.1591  1.8176
   64MOL0     H 8390   4.918   2.845   5.192  0.0660  1.4175 -0.0219
   64MOL0     H 8391   4.842   2.779   4.899 -1.7106 -2.6448 -0.4696
   64MOL0     H 8392   4.832   2.665   5.031  2.0125  0.6887  2.6285
   64MOL0     H 8393   4.684   2.933   4.983 -4.4071  0.4819  0.0013
   64MOL0     H 8394   4.657   2.836   5.128 -1.2424  1.6650 -0.3850
   64MOL0     H 8395   4.596   2.651   4.975 -1.8327  0.1547 -0.9315
   64MOL0     H 8396   4.629   2.742   4.832 -0.8697 -1.3398  0.3704
   64MOL0     H 8397   4.422   2.863   4.839  1.5715  0.6872  0.6456
   64MOL0     H 8398   4.387   2.705   4.903 -0.2008  0.6540 -0.3549
   64MOL0     H 8399   4.456   2.943   5.091 -2.4157  1.3545  0.1048
   64MOL0     H 8400   4.408   2.786   5.130 -1.5903  0.8332 -0.5625
   64MOL0     H 8401   4.160   2.689   4.952  1.4508 -0.6559  0.8141
   64MOL0     H 8402   3.854   2.820   5.010  1.0479 -4.3153  0.3965
   64MOL0     H 8403   3.934   2.721   4.885 -1.9710 -0.1133 -2.6644
   64MOL0     H 8404   3.770   2.868   4.765 -1.7744  0.7739  0.9445
   64MOL0     H 8405   3.937   2.950   4.751 -0.4415  0.3635 -1.4296
   64MOL0     H 8406   3.694   3.020   4.920  1.3580 -0.0517  1.4107
   64MOL0     H 8407   3.849   3.074   4.967  0.9209  0.9245 -1.1249
   64MOL0     H 8408   3.888   3.176   4.744 -0.0767 -0.7111 -1.2528
   64MOL0     H 8409   3.744   3.245   4.807  0.0751  1.5795 -0.0549
   64MOL0     H 8410   3.535   3.190   4.845 -0.1747 -0.5168  0.6299
   64MOL0     H 8411   3.305   3.190   4.837  1.8325 -0.5142  0.9469
   64MOL0     H 8412   3.011   3.285   4.306 -0.7372 -1.1774 -2.9281
   64MOL0     H 8413   2.775   3.330   4.248 -2.3042  0.3568 -0.3348
   64MOL0     H 8414   2.563   3.332   4.214  0.4472  1.1904 -0.0705
   64MOL0     H 8415   2.572   3.424   4.361  2.1984 -1.9368  0.5583
   64MOL0     H 8416   2.332   3.242   4.334  0.8989 -0.9449  1.2173
   64MOL0     H 8417   2.338   3.371   4.213  0.6207  1.4007  0.5191
   64MOL0     H 8418   2.367   3.535   4.405  0.7419 -0.8399  0.4865
   64MOL0     H 8419   2.300   3.409   4.513 -2.4346  1.1970  0.1545
   64MOL0     H 8420   2.176   3.538   4.270  1.5380  2.6382  1.9911
   64MOL0     H 8421   2.128   3.378   4.342  1.3703 -0.2195 -1.3003
   64MOL0     H 8422   2.116   3.647   4.486 -2.7033  0.9212  0.5561
   64MOL0     H 8423   2.097   3.497   4.560  2.7330  0.4732 -0.2779
   64MOL0     H 8424   1.883   3.472   4.419 -2.3498  0.3412 -2.9040
   64MOL0     H 8425   1.931   3.611   4.314  1.2837 -0.2946 -0.0744
   64MOL0     H 8426   1.886   3.647   4.617 -0.7268 -0.1758  0.4291
   64MOL0     H 8427   1.877   3.772   4.498  0.2287  0.4756  1.8321
   64MOL0     H 8428   1.653   3.700   4.565  3.2851  1.3739 -0.8009
   64MOL0     H 8429   1.685   3.531   4.515 -1.2318  0.0746  0.4738
   64MOL0     H 8430   2.655   3.049   4.550  1.5835 -1.2380  2.2505
   64MOL0     H 8431   2.889   2.995   4.607 -0.1296 -1.8070 -0.2944
   64MOL0     H 8432   3.328   3.013   4.434 -4.1123  3.7716  0.2132
   64MOL0     H 8433   3.573   3.038   4.447 -1.0309  0.0969 -0.0974
   64MOL0     H 8434   5.426   2.959   5.192 -2.1381 -0.3204 -1.2158
   64MOL0     H 8435   5.571   3.062   5.361 -0.6627  1.2619  0.2761
   64MOL0     H 8436   5.837   2.933   5.785  1.1884  0.4144 -2.4950
   64MOL0     H 8437   5.986   3.039   5.938  1.0765  0.6332 -0.6254
   64MOL0     H 8438   5.972   3.116   6.154  0.7800  0.0751  4.1803
   64MOL0     H 8439   5.840   3.229   6.202 -0.0026  2.1124 -0.6097
   64MOL0     H 8440   5.976   3.385   6.290 -0.7740 -0.5023 -0.7805
   64MOL0     H 8441   6.031   3.235   6.362  1.3852 -0.2400  0.0094
   64MOL0     H 8442   6.178   3.335   6.119 -0.5693 -0.8106  0.1414
   64MOL0     H 8443   6.214   3.186   6.213  0.7953  0.2786 -0.4993
   64MOL0     H 8444   6.358   3.393   6.242  0.3286  3.7464  1.0650
   64MOL0     H 8445   6.212   3.479   6.311  0.0607  0.1189 -0.1709
   64MOL0     H 8446   6.385   3.232   6.613 -3.2442 -0.2569 -0.1828
   64MOL0     H 8447   5.735   3.396   5.914 -2.4741 -1.4327  1.1426
   64MOL0     H 8448   5.616   3.296   5.734 -2.0382 -0.9952  1.1060
   65MOL0     O 8449   6.695   0.607   5.207  0.1204 -0.2077 -0.3242
   65MOL0     C 8450   6.657   0.692   5.292 -0.7592  0.8848  0.3692
   65MOL0     O 8451   6.525   0.720   5.329  0.3418 -0.3038  0.2941
   65MOL0     C 8452   6.423   0.632   5.305  0.1930 -0.4496  0.0813
   65MOL0     C 8453   6.288   0.675   5.329  0.2519 -0.1334  0.4235
   65MOL0     C 8454   6.177   0.602   5.323  0.4353 -0.1446  0.8569
   65MOL0     C 8455   6.189   0.470   5.281 -0.0320  0.4520 -0.7440
   65MOL0     O 8456   6.086   0.385   5.268  0.2745  0.6046 -0.4143
   65MOL0     C 8457   5.953   0.444   5.272  0.3151 -0.1673 -0.0633
   65MOL0     C 8458   5.850   0.338   5.264  0.3611 -0.7414  0.2336
   65MOL0     C 8459   5.716   0.364   5.336  0.5177  0.5704  0.0499
   65MOL0     C 8460   5.646   0.481   5.274 -0.5156 -0.2658  0.6180
   65MOL0     C 8461   5.515   0.495   5.341 -0.0049  0.0078  0.2172
   65MOL0     C 8462   5.437   0.619   5.286  0.3387  0.5307 -0.3226
   65MOL0     C 8463   5.293   0.621   5.341  0.2200  0.3611 -0.1753
   65MOL0     C 8464   5.212   0.753   5.311  0.1670 -0.2575  0.2265
   65MOL0     N 8465   5.086   0.779   5.388  0.0019 -0.1073  0.0993
   65MOL0     C 8466   5.010   0.895   5.379 -0.8491  0.0943  0.0499
   65MOL0     C 8467   4.913   0.867   5.476  0.2683  0.2125 -0.0664
   65MOL0     C 8468   4.808   0.970   5.518 -0.5594 -0.7210 -0.4616
   65MOL0     C 8469   4.673   0.898   5.541  0.2811 -0.6460  0.1980
   65MOL0     C 8470   4.557   1.002   5.567  0.7192  0.4844 -0.5314
   65MOL0     C 8471   4.416   0.949   5.540  0.1918  0.5100  0.5835
   65MOL0     O 8472   4.340   1.066   5.563  0.4646 -0.1424 -0.2106
   65MOL0     C 8473   4.201   1.054   5.544 -0.1932  0.0293 -0.3558
   65MOL0     C 8474   4.121   1.172   5.556 -0.2473  0.7649 -0.0535
   65MOL0     C 8475   3.987   1.172   5.527  0.0153  0.0605 -0.4004
   65MOL0     C 8476   3.916   1.059   5.481  0.1927 -0.0477 -0.6675
   65MOL0     C 8477   3.766   1.057   5.445  0.3494 -0.8505 -0.7825
   65MOL0     O 8478   3.737   0.968   5.345 -0.1788  0.4532  1.2307
   65MOL0     C 8479   3.617   0.985   5.278 -0.7428  0.4973  0.2411
   65MOL0     C 8480   3.529   1.098   5.294 -0.0491 -0.7638  0.6936
   65MOL0     C 8481   3.406   1.086   5.227 -0.1146 -0.0117  0.7201
   65MOL0     C 8482   3.378   0.990   5.127 -0.3636 -0.4488 -0.6533
   65MOL0     O 8483   3.257   0.987   5.061 -0.4435  0.0870  0.1520
   65MOL0     C 8484   3.172   0.881   5.096 -0.0187 -0.1834 -0.3772
   65MOL0     C 8485   3.034   0.944   5.100 -0.8294  0.7331 -0.4859
   65MOL0     C 8486   2.936   0.835   5.122 -0.0097 -1.2294  0.7658
   65MOL0     C 8487   2.792   0.886   5.131  1.2815  0.1857  0.7109
   65MOL0     C 8488   2.739   0.965   5.007 -0.0278  1.0254 -0.0879
   65MOL0     C 8489   2.582   0.988   5.013 -0.4212 -1.3156 -0.1547
   65MOL0     C 8490   2.530   1.058   5.145  0.4029  1.0269 -1.2076
   65MOL0     C 8491   2.598   1.198   5.177  0.1244 -0.1034 -0.0351
   65MOL0    Cl 8492   2.527   1.265   5.328  0.2955 -0.1510 -0.2988
   65MOL0     C 8493   3.470   0.891   5.106  0.0375 -0.8575 -0.0701
   65MOL0     C 8494   3.597   0.886   5.180  0.3363 -0.0499 -0.3787
   65MOL0     O 8495   3.682   1.123   5.514 -0.0737  0.0888  0.3200
   65MOL0     C 8496   3.993   0.943   5.460  0.3926 -0.1484 -1.0983
   65MOL0     C 8497   4.129   0.939   5.503 -0.6220  0.6730 -0.2258
   65MOL0     N 8498   4.933   0.737   5.533  0.0331 -0.1069  0.4183
   65MOL0     N 8499   5.045   0.693   5.480 -0.4578  0.0477  0.0810
   65MOL0     C 8500   6.318   0.420   5.247 -0.0448  0.3975  0.6859
   65MOL0     C 8501   6.433   0.499   5.262  0.1020 -0.2881 -0.1825
   65MOL0     C 8502   6.760   0.780   5.348  0.4332 -0.5464  0.3238
   65MOL0     C 8503   6.882   0.806   5.284 -0.3337  0.8479 -0.7457
   65MOL0     C 8504   6.966   0.909   5.326 -0.4779 -0.1676 -0.6350
   65MOL0     C 8505   6.940   0.976   5.447  0.2038  0.6316  1.0328
   65MOL0     O 8506   7.022   1.066   5.503  0.1825 -0.5146  0.0819
   65MOL0     C 8507   7.159   1.079   5.467  0.7716 -0.7728  0.2679
   65MOL0     C 8508   7.230   1.158   5.571  0.2002 -0.4536 -0.3719
   65MOL0     C 8509   7.365   1.206   5.527  0.4306 -0.6450 -0.1146
   65MOL0     C 8510   7.435   1.247   5.650  0.1551 -0.2733 -0.7210
   65MOL0     C 8511   7.524   1.360   5.635  0.1497  0.4795 -0.3996
   65MOL0     C 8512   7.602   1.451   5.630  0.8694 -0.2148  0.1268
   65MOL0     C 8513   6.822   0.943   5.520 -0.5082 -0.5044  0.0297
   65MOL0     C 8514   6.735   0.854   5.467  0.6546  1.0321 -0.3603
   65MOL0     H 8515   6.271   0.780   5.349  0.0592 -0.1001  0.0827
   65MOL0     H 8516   6.085   0.652   5.351  0.6629  1.8660 -1.6229
   65MOL0     H 8517   5.931   0.520   5.197 -0.5566  0.2942  0.6496
   65MOL0     H 8518   5.949   0.489   5.372  1.4494  0.8964 -0.4719
   65MOL0     H 8519   5.881   0.240   5.302  1.9735 -0.6936 -0.8498
   65MOL0     H 8520   5.828   0.328   5.158 -2.5943  3.4123  0.2081
   65MOL0     H 8521   5.727   0.378   5.444 -2.7188  0.6951  0.4677
   65MOL0     H 8522   5.654   0.275   5.323 -2.4809  2.4826  0.2771
   65MOL0     H 8523   5.710   0.570   5.278  0.8620 -1.2514  1.1806
   65MOL0     H 8524   5.629   0.470   5.167 -0.7138 -0.0515  0.6268
   65MOL0     H 8525   5.535   0.509   5.448  0.7356 -3.9711  0.7395
   65MOL0     H 8526   5.450   0.408   5.336 -2.2826  1.6345 -0.2118
   65MOL0     H 8527   5.419   0.606   5.178 -0.8744 -0.3846 -0.0331
   65MOL0     H 8528   5.486   0.714   5.308 -1.1762  0.7964  2.3100
   65MOL0     H 8529   5.243   0.528   5.314 -1.3084  0.6256  1.5382
   65MOL0     H 8530   5.295   0.624   5.450  1.5201  0.3028 -0.1745
   65MOL0     H 8531   5.196   0.760   5.203 -3.0803  2.4905  0.7087
   65MOL0     H 8532   5.281   0.836   5.329 -1.0537  1.0565 -0.9040
   65MOL0     H 8533   5.029   0.986   5.323  2.1682 -1.1748 -1.2128
   65MOL0     H 8534   4.802   1.051   5.445 -0.8906  0.1291  0.4849
   65MOL0     H 8535   4.854   1.006   5.610  0.4114 -5.8162  1.4191
   65MOL0     H 8536   4.681   0.835   5.631  0.6398  2.0338  2.1737
   65MOL0     H 8537   4.663   0.834   5.453 -0.8929 -0.7233  0.3789
   65MOL0     H 8538   4.562   1.037   5.670 -0.4926  1.2438 -0.7078
   65MOL0     H 8539   4.569   1.092   5.506 -0.7307  0.5371 -0.7745
   65MOL0     H 8540   4.385   0.864   5.602 -0.1265 -1.9706 -2.6936
   65MOL0     H 8541   4.401   0.910   5.439  1.2709  0.9054  0.2600
   65MOL0     H 8542   4.183   1.259   5.576  0.7348 -0.2544  1.6633
   65MOL0     H 8543   3.934   1.264   5.551  2.0793  0.9815  0.8910
   65MOL0     H 8544   3.541   1.188   5.354 -3.2087  1.1105 -1.1738
   65MOL0     H 8545   3.321   1.148   5.255 -1.5490 -1.1946 -0.8387
   65MOL0     H 8546   3.195   0.838   5.194 -2.2827  1.3739  0.9472
   65MOL0     H 8547   3.170   0.803   5.020 -3.0858  1.0389 -1.6837
   65MOL0     H 8548   3.009   0.992   5.005 -1.9442  0.5541 -0.2907
   65MOL0     H 8549   3.040   1.011   5.187  0.1846  0.9506 -0.7035
   65MOL0     H 8550   2.957   0.780   5.214 -0.3376 -1.0046  0.9753
   65MOL0     H 8551   2.932   0.767   5.036  0.7433  2.5197 -2.5316
   65MOL0     H 8552   2.739   0.791   5.132  0.7897  0.4252 -0.7614
   65MOL0     H 8553   2.775   0.942   5.224 -0.7152  1.3295 -0.2640
   65MOL0     H 8554   2.770   0.905   4.920  1.1590  1.3098  0.1119
   65MOL0     H 8555   2.800   1.054   4.992  1.1810 -0.0868 -2.3673
   65MOL0     H 8556   2.528   0.893   5.017 -2.1998 -0.3290 -0.1164
   65MOL0     H 8557   2.551   1.043   4.924 -1.3391  1.7340  1.8841
   65MOL0     H 8558   2.422   1.074   5.143  0.2702  0.5813  0.5516
   65MOL0     H 8559   2.559   0.990   5.225 -3.2303  1.3512  0.5654
   65MOL0     H 8560   2.584   1.268   5.094  3.4226 -1.0554 -1.5704
   65MOL0     H 8561   2.703   1.177   5.199  0.9318  2.3940 -1.1196
   65MOL0     H 8562   3.448   0.808   5.039  0.9436 -0.9375 -0.2779
   65MOL0     H 8563   3.663   0.803   5.161  0.6539  0.4525 -1.5081
   65MOL0     H 8564   3.945   0.852   5.425 -2.3184  1.2726 -1.4111
   65MOL0     H 8565   4.178   0.845   5.479 -1.4212  0.2940 -0.4039
   65MOL0     H 8566   6.325   0.324   5.198 -0.7482  0.7510 -0.1378
   65MOL0     H 8567   6.524   0.447   5.232  1.9231  2.3570  0.3654
   65MOL0     H 8568   6.913   0.743   5.201  2.3037  2.3601 -1.0225
   65MOL0     H 8569   7.063   0.918   5.277 -1.1516 -3.0764 -2.8043
   65MOL0     H 8570   7.167   1.126   5.368 -2.0298 -0.9764 -0.1240
   65MOL0     H 8571   7.208   0.981   5.463  0.8468 -0.7348  0.2519
   65MOL0     H 8572   7.175   1.249   5.596  0.0549 -0.4571 -0.6694
   65MOL0     H 8573   7.229   1.100   5.664 -2.1070  0.2758  0.1198
   65MOL0     H 8574   7.351   1.290   5.459  1.6267  1.1563  1.7520
   65MOL0     H 8575   7.433   1.134   5.480 -0.0468 -1.6944  0.7595
   65MOL0     H 8576   7.364   1.273   5.729  0.9833  0.3067 -0.1502
   65MOL0     H 8577   7.496   1.167   5.695 -2.2196 -0.9379  1.5724
   65MOL0     H 8578   7.667   1.536   5.640 -3.0059  2.8873  1.4519
   65MOL0     H 8579   6.788   1.007   5.602 -0.4134 -0.1110 -0.2361
   65MOL0     H 8580   6.638   0.846   5.514  1.2340  0.4540  0.7670
   66MOL0     O 8581   1.591   9.814   3.764 -0.0241 -0.1712  0.0966
   66MOL0     C 8582   1.522   9.879   3.842 -0.0282 -0.0133 -0.4603
   66MOL0     O 8583   1.392   9.850   3.864 -0.3801  0.3856  0.0535
   66MOL0     C 8584   1.333   9.758   3.779 -1.1557 -1.1134  0.0113
   66MOL0     C 8585   1.265   9.649   3.820  0.3095  0.0792 -0.2446
   66MOL0     C 8586   1.193   9.569   3.731  0.2920 -0.6438  0.3815
   66MOL0     C 8587   1.187   9.609   3.596  0.5281  0.4226 -0.1684
   66MOL0     O 8588   1.112   9.531   3.508  0.3285  0.3372 -0.5595
   66MOL0     C 8589   0.979   9.507   3.549  0.0757  0.4847 -0.3457
   66MOL0     C 8590   0.895   9.428   3.448 -0.0118 -0.9539 -0.5410
   66MOL0     C 8591   0.756   9.416   3.500 -0.3635  0.4900  0.3467
   66MOL0     C 8592   0.665   9.317   3.421 -0.0748  0.7585 -0.4113
   66MOL0     C 8593   0.524   9.327   3.477  0.9079  0.4037  0.0147
   66MOL0     C 8594   0.436   9.214   3.430 -0.5850  0.0585  0.9215
   66MOL0     C 8595   0.311   9.202   3.524 -0.7736 -1.1443  0.1075
   66MOL0     C 8596   0.195   9.119   3.470 -0.8820  0.3460  0.1823
   66MOL0     N 8597   0.211   8.978   3.496 -0.3692  0.5823 -0.4471
   66MOL0     C 8598   0.168   8.908   3.604  0.3149  0.3667  0.5684
   66MOL0     C 8599   0.232   8.786   3.582 -0.4237 -0.3689 -0.3818
   66MOL0     C 8600   0.239   8.668   3.682 -0.4276 -0.8085  0.3932
   66MOL0     C 8601   0.131   8.678   3.788 -0.5153 -0.0619 -0.2347
   66MOL0     C 8602   0.077   8.544   3.836  0.9078  0.2411 -0.0437
   66MOL0     C 8603   0.170   8.462   3.931  1.0797  0.0134 -1.6354
   66MOL0     O 8604   0.272   8.392   3.860 -0.8421  0.6318 -0.1680
   66MOL0     C 8605   0.364   8.317   3.932 -0.1088 -0.0460  0.4512
   66MOL0     C 8606   0.365   8.301   4.071  0.1122 -0.2759  0.3826
   66MOL0     C 8607   0.457   8.229   4.137  0.9915 -0.5505  0.0273
   66MOL0     C 8608   0.548   8.156   4.062  0.0775 -0.5891  0.2970
   66MOL0     C 8609   0.660   8.090   4.125  0.5158 -0.5794 -0.6413
   66MOL0     O 8610   0.676   8.124   4.258  0.4307 -0.3432  0.5328
   66MOL0     C 8611   0.789   8.079   4.321  0.3093 -0.3763  0.9731
   66MOL0     C 8612   0.922   8.094   4.281 -0.2697  0.4258  0.0775
   66MOL0     C 8613   1.024   8.058   4.366 -0.3598 -0.2622 -0.8687
   66MOL0     C 8614   1.002   8.005   4.496  0.3832 -0.7175  0.2166
   66MOL0     O 8615   1.103   7.962   4.574 -0.1189  0.6079 -0.6350
   66MOL0     C 8616   1.088   7.922   4.708  0.4990  0.6639  0.6874
   66MOL0     C 8617   1.230   7.936   4.773 -0.2289  0.5769  0.4824
   66MOL0     C 8618   1.235   7.866   4.916  0.0074 -0.5897 -0.4005
   66MOL0     C 8619   1.372   7.902   4.990 -0.0236 -0.2449  0.2421
   66MOL0     C 8620   1.365   7.864   5.140 -0.3909 -0.2807 -0.8364
   66MOL0     C 8621   1.330   7.711   5.154  0.0052  0.2324  0.2680
   66MOL0     C 8622   1.337   7.646   5.292 -0.1617  0.0203  0.3849
   66MOL0     C 8623   1.222   7.547   5.325 -0.0602  0.5670  0.2170
   66MOL0    Cl 8624   1.062   7.634   5.316 -0.0126 -0.1135 -0.2401
   66MOL0     C 8625   0.872   7.986   4.528  0.2712  0.8846 -0.4870
   66MOL0     C 8626   0.763   8.025   4.442 -0.3931  0.1750 -0.0862
   66MOL0     O 8627   0.719   8.005   4.070  0.1641  0.5392  0.0341
   66MOL0     C 8628   0.553   8.166   3.915 -0.2371 -0.5706 -0.2728
   66MOL0     C 8629   0.452   8.240   3.849 -0.6609 -0.4912 -0.0219
   66MOL0     N 8630   0.312   8.793   3.474 -0.3834 -0.2148  0.1002
   66MOL0     N 8631   0.293   8.903   3.417 -0.3220 -0.0997 -0.6255
   66MOL0     C 8632   1.265   9.710   3.543 -0.1545  0.0805  0.8255
   66MOL0     C 8633   1.333   9.790   3.635 -0.1339 -0.4013 -1.0909
   66MOL0     C 8634   1.568   9.999   3.907 -0.3917  0.4315  1.0361
   66MOL0     C 8635   1.491  10.071   3.996 -0.1003 -0.1600 -0.1355
   66MOL0     C 8636   1.555  10.164   4.074 -0.5465  0.3864  0.3043
   66MOL0     C 8637   1.683  10.215   4.042  0.3832  0.4920  0.1388
   66MOL0     O 8638   1.747  10.317   4.103  0.5511 -0.2017 -0.3531
   66MOL0     C 8639   1.696  10.360   4.233 -0.1961 -0.1825  0.0492
   66MOL0     C 8640   1.791  10.456   4.293 -1.0568 -0.1033 -0.2544
   66MOL0     C 8641   1.745  10.497   4.440  0.2027 -0.1500  0.9231
   66MOL0     C 8642   1.801  10.634   4.489 -0.2011 -0.4080 -0.3966
   66MOL0     C 8643   1.940  10.615   4.532 -0.2589  0.9406  0.7208
   66MOL0     C 8644   2.058  10.605   4.570  0.3295 -0.9462  0.2683
   66MOL0     C 8645   1.746  10.156   3.933  0.2365  0.2961 -0.8151
   66MOL0     C 8646   1.692  10.043   3.867  0.2216 -0.3030 -0.0314
   66MOL0     H 8647   1.263   9.615   3.923  0.1667  1.1047  0.0988
   66MOL0     H 8648   1.150   9.477   3.769 -0.6785 -1.0034 -1.4290
   66MOL0     H 8649   0.921   9.600   3.552 -0.0340  0.5874 -3.2298
   66MOL0     H 8650   0.991   9.457   3.645  0.9575 -0.6198 -1.0008
   66MOL0     H 8651   0.944   9.332   3.431 -1.3240 -1.3915 -2.0389
   66MOL0     H 8652   0.897   9.475   3.349 -3.1115  0.9746  0.1747
   66MOL0     H 8653   0.715   9.518   3.506  1.6176  1.3549  0.0058
   66MOL0     H 8654   0.760   9.381   3.603 -1.6426  0.4021  0.3772
   66MOL0     H 8655   0.675   9.349   3.317 -0.2097  1.2959 -0.2648
   66MOL0     H 8656   0.698   9.215   3.439 -0.0081  0.8156 -0.2006
   66MOL0     H 8657   0.490   9.425   3.441 -0.1330 -0.0343 -0.2380
   66MOL0     H 8658   0.514   9.313   3.585 -3.4797 -1.7409 -0.4310
   66MOL0     H 8659   0.503   9.128   3.439 -0.1309  0.3494  0.3988
   66MOL0     H 8660   0.411   9.215   3.323 -0.3918 -1.1637  0.8410
   66MOL0     H 8661   0.361   9.165   3.613  1.9672 -0.6263 -1.1122
   66MOL0     H 8662   0.286   9.308   3.538  1.0602 -0.8895  1.7142
   66MOL0     H 8663   0.173   9.134   3.364 -2.2527 -2.2131  0.0251
   66MOL0     H 8664   0.103   9.148   3.520 -2.9158 -0.0795 -2.9872
   66MOL0     H 8665   0.115   8.947   3.690  0.5983  2.6282 -0.2148
   66MOL0     H 8666   0.339   8.669   3.728 -0.3214  1.0594  0.2073
   66MOL0     H 8667   0.233   8.578   3.621  0.5111 -1.5198  1.3107
   66MOL0     H 8668   0.041   8.728   3.750 -0.0178 -1.6091 -3.8810
   66MOL0     H 8669   0.168   8.731   3.876  2.5918  0.2624 -1.5996
   66MOL0     H 8670  -0.012   8.570   3.894  1.8378  1.4430  0.8853
   66MOL0     H 8671   0.049   8.492   3.744  2.1962  0.9207 -0.8397
   66MOL0     H 8672   0.095   8.395   3.972  0.4144  1.7691  0.1917
   66MOL0     H 8673   0.195   8.526   4.016  0.9834  0.7796 -2.1711
   66MOL0     H 8674   0.296   8.361   4.129  2.1859  3.8123 -0.9594
   66MOL0     H 8675   0.452   8.218   4.245  1.3398 -0.3011  0.0723
   66MOL0     H 8676   0.936   8.134   4.181 -3.6859  3.0063  0.4143
   66MOL0     H 8677   1.131   8.063   4.352  0.4706 -3.4769  2.6786
   66MOL0     H 8678   1.056   7.818   4.719  2.6574  0.1502  3.1205
   66MOL0     H 8679   1.018   7.984   4.765  0.8770 -0.0624  2.0033
   66MOL0     H 8680   1.254   8.042   4.790  1.7972  0.0898  0.8910
   66MOL0     H 8681   1.310   7.895   4.710  0.1690  0.2919  1.1695
   66MOL0     H 8682   1.247   7.758   4.902  1.6377 -0.3665 -1.0509
   66MOL0     H 8683   1.154   7.896   4.982 -1.0728 -1.4808 -1.2843
   66MOL0     H 8684   1.452   7.839   4.948  0.2500  0.0761  0.2746
   66MOL0     H 8685   1.400   8.007   4.979  1.5649 -0.8639 -2.6097
   66MOL0     H 8686   1.291   7.930   5.187  1.9370  2.0464 -0.1966
   66MOL0     H 8687   1.463   7.892   5.178  0.3016 -1.0994 -1.9543
   66MOL0     H 8688   1.414   7.661   5.105  2.0431  1.2836  2.5140
   66MOL0     H 8689   1.241   7.678   5.100  0.5663 -1.6406  0.4173
   66MOL0     H 8690   1.435   7.598   5.295  0.0140  0.3039 -0.5828
   66MOL0     H 8691   1.335   7.731   5.362 -3.2632 -0.3764  0.9525
   66MOL0     H 8692   1.228   7.499   5.423 -0.9064 -0.5493 -0.2705
   66MOL0     H 8693   1.223   7.463   5.256 -1.9036 -1.0184  2.0153
   66MOL0     H 8694   0.843   7.937   4.620  3.5633  0.3140  0.3860
   66MOL0     H 8695   0.660   8.010   4.473 -0.2062 -0.9430  0.0626
   66MOL0     H 8696   0.636   8.121   3.862 -0.1122 -1.3028  0.5219
   66MOL0     H 8697   0.444   8.250   3.742  0.6791  0.6135 -0.0469
   66MOL0     H 8698   1.277   9.720   3.435  2.1030 -1.0068  0.9134
   66MOL0     H 8699   1.377   9.880   3.593 -2.5220  1.5296  0.2445
   66MOL0     H 8700   1.385  10.051   4.012 -0.2987  0.3387 -0.7777
   66MOL0     H 8701   1.498  10.223   4.145  0.4666  0.9962  0.6464
   66MOL0     H 8702   1.694  10.269   4.294  2.2528 -1.1643 -1.1476
   66MOL0     H 8703   1.591  10.388   4.222 -1.1735 -2.4589  2.5543
   66MOL0     H 8704   1.891  10.415   4.311 -1.2739 -1.2392 -1.4733
   66MOL0     H 8705   1.801  10.548   4.235 -1.6138  0.2185  0.1453
   66MOL0     H 8706   1.777  10.413   4.503 -1.4566 -2.9726 -1.7408
   66MOL0     H 8707   1.638  10.518   4.441  0.3389  0.6193  0.1349
   66MOL0     H 8708   1.800  10.711   4.412 -0.1534  0.8953  0.8490
   66MOL0     H 8709   1.741  10.676   4.571  0.5862  1.4655 -0.7199
   66MOL0     H 8710   2.164  10.593   4.582  0.3726  1.0710  2.4338
   66MOL0     H 8711   1.840  10.204   3.906 -1.2592  2.6015 -2.3001
   66MOL0     H 8712   1.748  10.000   3.784 -0.2136 -0.1717 -0.4009
   67MOL0     O 8713   0.239   8.548   7.254  0.9028 -0.0400 -0.3733
   67MOL0     C 8714   0.308   8.619   7.199 -0.0609 -0.3028 -0.0475
   67MOL0     O 8715   0.260   8.729   7.140  0.1389 -0.3521 -0.4899
   67MOL0     C 8716   0.124   8.750   7.111 -0.2775  0.0089 -0.3527
   67MOL0     C 8717   0.028   8.650   7.088 -0.0729  0.8778 -0.1219
   67MOL0     C 8718  -0.109   8.677   7.069 -0.4537 -0.1625 -0.2753
   67MOL0     C 8719  -0.148   8.811   7.075 -0.2325 -0.3705  0.3027
   67MOL0     O 8720  -0.277   8.864   7.075  0.7544  0.1712  0.5331
   67MOL0     C 8721  -0.377   8.764   7.040  0.1144 -0.2454 -0.2466
   67MOL0     C 8722  -0.520   8.825   7.036  0.7115  0.9694 -0.2092
   67MOL0     C 8723  -0.537   8.929   6.922  0.2843  0.4019 -0.4417
   67MOL0     C 8724  -0.552   8.866   6.782  0.3807 -0.0534 -0.0888
   67MOL0     C 8725  -0.552   8.971   6.673  0.1266 -0.2121  0.1262
   67MOL0     C 8726  -0.632   8.934   6.547  0.7344  0.1399  0.6424
   67MOL0     C 8727  -0.606   9.052   6.449 -0.0467 -0.3076 -0.3345
   67MOL0     C 8728  -0.680   9.038   6.320 -1.3326  0.4406 -0.2957
   67MOL0     N 8729  -0.816   9.046   6.342  1.1928  0.1924 -0.2027
   67MOL0     C 8730  -0.898   9.160   6.336  0.0101  0.6844  0.3194
   67MOL0     C 8731  -1.024   9.115   6.343  0.6436 -0.1697  0.6393
   67MOL0     C 8732  -1.135   9.206   6.344 -0.2199  0.6877 -0.0264
   67MOL0     C 8733  -1.125   9.320   6.238 -1.0017  0.3880  0.0805
   67MOL0     C 8734  -1.241   9.408   6.269  0.2678  0.5137 -1.2028
   67MOL0     C 8735  -1.375   9.337   6.258  1.1742 -0.2705 -0.2308
   67MOL0     O 8736  -1.484   9.439   6.222 -0.0944  0.5795  0.6633
   67MOL0     C 8737  -1.613   9.404   6.227  0.4730 -0.7432 -0.0349
   67MOL0     C 8738  -1.665   9.273   6.246  0.7416 -0.6633 -0.3262
   67MOL0     C 8739  -1.809   9.258   6.245  0.3813 -0.7566 -0.0950
   67MOL0     C 8740  -1.896   9.366   6.224  0.3554 -0.4359  0.1563
   67MOL0     C 8741  -2.035   9.355   6.219  0.2492 -0.7697  0.1436
   67MOL0     O 8742  -2.114   9.468   6.181  0.3581  0.2557  0.0553
   67MOL0     C 8743  -2.250   9.461   6.205 -0.0310 -0.0797  0.1849
   67MOL0     C 8744  -2.299   9.450   6.339 -0.4743  0.1169  0.2180
   67MOL0     C 8745  -2.439   9.439   6.350 -0.2055  0.0440 -0.4777
   67MOL0     C 8746  -2.525   9.423   6.239  0.6481  0.1611  0.4235
   67MOL0     O 8747  -2.660   9.415   6.268 -0.2446  0.5606  0.1727
   67MOL0     C 8748  -2.751   9.434   6.159 -0.1808 -0.1435 -0.0186
   67MOL0     C 8749  -2.895   9.435   6.209  0.8796  0.5099 -0.5699
   67MOL0     C 8750  -2.982   9.503   6.102 -0.2310 -0.1254  0.1772
   67MOL0     C 8751  -3.116   9.517   6.154  0.7589  0.5714 -0.3557
   67MOL0     C 8752  -3.217   9.570   6.048  0.1916  0.5013 -0.4369
   67MOL0     C 8753  -3.277   9.458   5.958  0.2064 -0.2479 -0.0661
   67MOL0     C 8754  -3.386   9.360   6.024  0.0421  0.0393  0.6016
   67MOL0     C 8755  -3.439   9.249   5.929 -0.3122  0.3013  0.0090
   67MOL0    Cl 8756  -3.590   9.301   5.846 -0.0318  0.0021 -0.0996
   67MOL0     C 8757  -2.478   9.447   6.118  0.4480 -0.8117 -0.0478
   67MOL0     C 8758  -2.338   9.461   6.100 -0.2836  0.6339 -0.6825
   67MOL0     O 8759  -2.087   9.259   6.276  0.6089  0.6415  0.2835
   67MOL0     C 8760  -1.842   9.488   6.188 -0.0721  0.3196  0.0398
   67MOL0     C 8761  -1.704   9.508   6.194  1.2767 -0.0006 -0.2700
   67MOL0     N 8762  -1.022   8.977   6.355 -0.2335  0.1352  0.5209
   67MOL0     N 8763  -0.901   8.941   6.361 -0.3357 -0.4509  0.8242
   67MOL0     C 8764  -0.049   8.916   7.087  0.4768 -0.2056  0.2165
   67MOL0     C 8765   0.087   8.886   7.110 -0.0319 -0.0621 -0.1602
   67MOL0     C 8766   0.458   8.609   7.211 -0.2242  0.3589 -0.0037
   67MOL0     C 8767   0.536   8.702   7.135  0.0136 -0.0370 -0.3787
   67MOL0     C 8768   0.675   8.698   7.157  0.3982  0.1742 -0.3992
   67MOL0     C 8769   0.735   8.600   7.239 -0.0486 -0.1881 -0.3489
   67MOL0     O 8770   0.870   8.578   7.251 -0.2089 -0.2360  0.8940
   67MOL0     C 8771   0.961   8.663   7.180  0.5647  0.0547  0.0686
   67MOL0     C 8772   1.098   8.622   7.199 -0.2998  0.6089 -0.3846
   67MOL0     C 8773   1.157   8.636   7.339  0.1157  0.0774 -0.0098
   67MOL0     C 8774   1.314   8.627   7.342  0.2258  0.1845  0.1931
   67MOL0     C 8775   1.379   8.620   7.472  0.5910  1.0250  0.1554
   67MOL0     C 8776   1.423   8.587   7.583  0.0825 -0.7883 -0.6126
   67MOL0     C 8777   0.657   8.511   7.309  0.6290  0.3535  0.1561
   67MOL0     C 8778   0.519   8.518   7.299 -0.4425 -0.7923 -0.5320
   67MOL0     H 8779   0.059   8.546   7.096  4.4108  2.0257 -0.0123
   67MOL0     H 8780  -0.176   8.594   7.051  0.3595 -0.1176 -4.3213
   67MOL0     H 8781  -0.367   8.679   7.108 -1.4372 -1.1852 -1.1534
   67MOL0     H 8782  -0.357   8.727   6.939  0.8312 -0.7099  0.0575
   67MOL0     H 8783  -0.544   8.873   7.132 -0.6838 -1.3140  0.6650
   67MOL0     H 8784  -0.602   8.755   7.014 -1.4582  3.9412 -2.4932
   67MOL0     H 8785  -0.467   9.011   6.935 -1.6336  1.6934  3.4334
   67MOL0     H 8786  -0.637   8.974   6.931 -1.0813 -2.4171 -0.2632
   67MOL0     H 8787  -0.464   8.804   6.763 -0.0659 -0.7821  0.1778
   67MOL0     H 8788  -0.637   8.797   6.783  0.3989 -0.0912  1.2457
   67MOL0     H 8789  -0.450   8.986   6.634  0.0603 -0.3906 -0.1186
   67MOL0     H 8790  -0.585   9.066   6.714  3.5051 -0.0617  2.9905
   67MOL0     H 8791  -0.736   8.919   6.578  1.5178 -3.1208  2.0723
   67MOL0     H 8792  -0.612   8.834   6.508 -0.6551  0.9984 -2.5437
   67MOL0     H 8793  -0.640   9.142   6.502  1.1018 -0.8182  1.3597
   67MOL0     H 8794  -0.501   9.074   6.431 -0.5953  3.1302 -0.1825
   67MOL0     H 8795  -0.663   8.944   6.266 -3.6921 -0.1387 -0.1114
   67MOL0     H 8796  -0.641   9.107   6.244 -1.1256  0.2418 -0.3747
   67MOL0     H 8797  -0.860   9.261   6.324  0.0061  0.5232 -1.4163
   67MOL0     H 8798  -1.128   9.256   6.441  2.0223  0.4624 -0.0317
   67MOL0     H 8799  -1.223   9.141   6.331  1.8486 -1.8609 -2.5830
   67MOL0     H 8800  -1.124   9.282   6.135  0.6454 -0.4883  0.3803
   67MOL0     H 8801  -1.034   9.379   6.252  0.9352 -2.7267  1.7398
   67MOL0     H 8802  -1.226   9.458   6.366 -1.5170 -1.2476  0.0564
   67MOL0     H 8803  -1.245   9.487   6.193  0.6117  1.6645 -0.0586
   67MOL0     H 8804  -1.404   9.299   6.356  1.8502 -2.4764 -0.8337
   67MOL0     H 8805  -1.380   9.258   6.182 -2.1076 -2.0268  1.6184
   67MOL0     H 8806  -1.602   9.185   6.261  0.6460 -0.5227  1.0951
   67MOL0     H 8807  -1.839   9.160   6.281  1.2765 -0.9534  0.1474
   67MOL0     H 8808  -2.232   9.458   6.424 -0.2211  1.6844 -0.0942
   67MOL0     H 8809  -2.494   9.423   6.442  0.3873  1.1865  0.0897
   67MOL0     H 8810  -2.742   9.353   6.087  0.8602  0.4490 -0.5756
   67MOL0     H 8811  -2.738   9.525   6.100 -0.5156 -0.6739 -0.9300
   67MOL0     H 8812  -2.889   9.492   6.302 -0.1916  2.6965 -1.7599
   67MOL0     H 8813  -2.917   9.333   6.239  0.3990  0.5470 -0.7840
   67MOL0     H 8814  -2.975   9.445   6.009  0.8353  3.0454 -1.8847
   67MOL0     H 8815  -2.940   9.601   6.080  0.3160 -0.3180  0.3223
   67MOL0     H 8816  -3.147   9.420   6.194 -1.5403  2.1585  2.1655
   67MOL0     H 8817  -3.107   9.586   6.239 -2.8655 -0.4365  1.0207
   67MOL0     H 8818  -3.160   9.642   5.990  2.9083  0.1164  1.5555
   67MOL0     H 8819  -3.300   9.618   6.100  1.9105  2.7255  0.3919
   67MOL0     H 8820  -3.200   9.393   5.916 -0.2089  0.8870 -2.7990
   67MOL0     H 8821  -3.331   9.509   5.877 -2.5195 -1.5950  0.7865
   67MOL0     H 8822  -3.341   9.309   6.110 -0.9598 -2.2191 -0.1477
   67MOL0     H 8823  -3.470   9.423   6.054 -0.1650  0.8763 -1.5510
   67MOL0     H 8824  -3.453   9.167   6.000  1.2385  0.4873  0.5848
   67MOL0     H 8825  -3.368   9.221   5.851 -1.4855  2.4092 -1.9093
   67MOL0     H 8826  -2.545   9.464   6.034 -0.5664 -0.1894  0.8635
   67MOL0     H 8827  -2.308   9.477   5.997  2.3967  1.9312  0.2056
   67MOL0     H 8828  -1.907   9.575   6.187 -0.8486 -0.1811 -2.6222
   67MOL0     H 8829  -1.659   9.605   6.178  0.1508  0.3755 -1.2863
   67MOL0     H 8830  -0.091   9.016   7.093 -2.7790 -1.3934 -0.6040
   67MOL0     H 8831   0.159   8.965   7.130  3.2356 -2.3606 -1.9324
   67MOL0     H 8832   0.492   8.776   7.070 -0.2151 -1.1921 -1.5807
   67MOL0     H 8833   0.736   8.758   7.090  2.0385 -1.6922 -0.6594
   67MOL0     H 8834   0.958   8.766   7.217  2.1432  0.9493 -2.0992
   67MOL0     H 8835   0.935   8.655   7.074  1.3715  3.0100 -0.4540
   67MOL0     H 8836   1.115   8.522   7.158 -1.6165 -0.5955  1.8360
   67MOL0     H 8837   1.162   8.684   7.135  0.1217  0.7132  0.1340
   67MOL0     H 8838   1.109   8.563   7.405 -1.5095  1.2343  0.1713
   67MOL0     H 8839   1.127   8.736   7.374 -2.6097  0.5580 -3.2208
   67MOL0     H 8840   1.338   8.528   7.302 -0.8620 -0.2354  0.5471
   67MOL0     H 8841   1.365   8.699   7.277 -1.0123 -0.0377 -1.0896
   67MOL0     H 8842   1.471   8.559   7.675 -0.5567  0.9213  0.2915
   67MOL0     H 8843   0.689   8.426   7.368 -2.3773  0.4193  2.0957
   67MOL0     H 8844   0.464   8.457   7.369 -1.7543  0.2681 -0.5962
   68MOL0     O 8845   0.388   1.752  11.220  0.2544 -0.1583  0.4053
   68MOL0     C 8846   0.464   1.762  11.318  0.7508 -0.0254  0.0474
   68MOL0     O 8847   0.460   1.678  11.429  0.1088 -0.5875  0.8373
   68MOL0     C 8848   0.353   1.595  11.461  0.3585 -0.4072 -0.3826
   68MOL0     C 8849   0.221   1.595  11.396 -0.8282  0.1496 -0.4545
   68MOL0     C 8850   0.125   1.492  11.424 -0.5055 -0.3958  0.3534
   68MOL0     C 8851   0.157   1.386  11.507  0.1879 -0.0278 -1.0332
   68MOL0     O 8852   0.056   1.298  11.539  0.2030  0.4763  0.5686
   68MOL0     C 8853  -0.078   1.342  11.559  1.0144  0.7399 -0.2345
   68MOL0     C 8854  -0.172   1.283  11.453  0.5870  0.8178  0.1784
   68MOL0     C 8855  -0.322   1.317  11.470 -0.6589 -0.7751 -0.1558
   68MOL0     C 8856  -0.424   1.244  11.383  0.6160  0.5218  0.4340
   68MOL0     C 8857  -0.571   1.289  11.402 -0.0760 -0.9254 -1.0412
   68MOL0     C 8858  -0.608   1.276  11.549  0.0913  0.0263  0.5459
   68MOL0     C 8859  -0.751   1.236  11.561  0.4502  0.7298  0.0792
   68MOL0     C 8860  -0.786   1.188  11.710  0.0691  0.4072  0.7210
   68MOL0     N 8861  -0.931   1.193  11.749 -0.5394  0.2965  0.3368
   68MOL0     C 8862  -0.984   1.086  11.816  0.0457  0.0485  0.1926
   68MOL0     C 8863  -1.121   1.100  11.799 -0.5501 -0.4779  0.9165
   68MOL0     C 8864  -1.236   1.026  11.855  0.5793  0.2245 -0.6958
   68MOL0     C 8865  -1.364   1.103  11.851 -0.3075  0.2558 -0.3949
   68MOL0     C 8866  -1.486   1.012  11.872 -0.0893 -0.3243  0.5215
   68MOL0     C 8867  -1.585   1.097  11.954  0.1965  0.7392 -0.0542
   68MOL0     O 8868  -1.689   1.021  12.005  1.0862  0.3438 -0.2871
   68MOL0     C 8869  -1.802   1.003  11.931 -0.1485  0.1890 -0.2184
   68MOL0     C 8870  -1.830   1.006  11.803 -0.2389  0.5503 -0.0069
   68MOL0     C 8871  -1.963   0.996  11.747 -1.0639  0.2807  0.4389
   68MOL0     C 8872  -2.062   0.949  11.841 -0.4111 -0.5680 -0.5509
   68MOL0     C 8873  -2.191   0.896  11.799 -0.0337 -0.0737  1.0781
   68MOL0     O 8874  -2.281   0.850  11.892 -0.5562 -0.3073  0.7139
   68MOL0     C 8875  -2.409   0.824  11.864  0.2155 -0.1607  0.3678
   68MOL0     C 8876  -2.466   0.713  11.916  0.3091  0.0067  0.7510
   68MOL0     C 8877  -2.602   0.695  11.904 -0.3735 -0.0904  0.1276
   68MOL0     C 8878  -2.686   0.789  11.837 -0.1971  0.6229  0.0769
   68MOL0     O 8879  -2.817   0.758  11.839 -0.4843 -0.1611  0.1584
   68MOL0     C 8880  -2.892   0.750  11.719 -0.8833  0.1583 -0.3490
   68MOL0     C 8881  -3.002   0.641  11.729  0.4584  0.0289 -0.2104
   68MOL0     C 8882  -3.078   0.617  11.597 -0.4966 -0.4343  0.4104
   68MOL0     C 8883  -3.192   0.516  11.619 -1.8841 -0.6915  0.2152
   68MOL0     C 8884  -3.273   0.535  11.486  0.0416 -0.1828  0.1946
   68MOL0     C 8885  -3.392   0.437  11.494  0.0990  0.3289  0.4441
   68MOL0     C 8886  -3.471   0.438  11.355 -0.2881  0.0622 -0.5631
   68MOL0     C 8887  -3.621   0.420  11.388  0.6524 -0.4119 -0.9014
   68MOL0    Cl 8888  -3.647   0.275  11.496 -0.1966  0.3791 -0.4236
   68MOL0     C 8889  -2.628   0.901  11.787 -0.2479 -0.4659  0.0752
   68MOL0     C 8890  -2.490   0.916  11.796  0.1893 -0.2322  0.4151
   68MOL0     O 8891  -2.211   0.890  11.678 -0.7503  0.4787  0.1913
   68MOL0     C 8892  -2.029   0.939  11.977  0.4280 -0.4186 -0.5489
   68MOL0     C 8893  -1.897   0.972  12.021  0.9108  0.7562 -0.0687
   68MOL0     N 8894  -1.137   1.217  11.718 -0.6959 -0.5104  0.5600
   68MOL0     N 8895  -1.023   1.277  11.697  0.1325 -0.1657  0.9057
   68MOL0     C 8896   0.288   1.377  11.560  0.4794  0.0954 -0.1087
   68MOL0     C 8897   0.381   1.477  11.537  0.2294 -0.8952 -0.7949
   68MOL0     C 8898   0.565   1.869  11.317  0.6161 -0.0660  0.0596
   68MOL0     C 8899   0.656   1.881  11.424  0.3488 -0.2356  0.1632
   68MOL0     C 8900   0.757   1.977  11.433  0.2522  0.3382 -0.4248
   68MOL0     C 8901   0.754   2.075  11.329  0.2538  0.4391  0.8286
   68MOL0     O 8902   0.826   2.192  11.330 -0.1763  0.4824 -0.0979
   68MOL0     C 8903   0.918   2.217  11.443 -0.2990 -0.4519 -0.2466
   68MOL0     C 8904   0.976   2.354  11.426  0.8754 -0.4021 -0.9178
   68MOL0     C 8905   1.062   2.378  11.304 -0.4067  0.7394  0.5643
   68MOL0     C 8906   1.000   2.427  11.175  0.3703 -0.6953 -0.2077
   68MOL0     C 8907   0.921   2.553  11.180  0.3656  0.9762 -0.4208
   68MOL0     C 8908   0.858   2.656  11.180  0.1887  0.4269 -0.2113
   68MOL0     C 8909   0.657   2.069  11.222  0.6963  0.1066  0.0876
   68MOL0     C 8910   0.562   1.966  11.216 -0.4645  0.0962  0.2299
   68MOL0     H 8911   0.192   1.669  11.322 -0.5300 -0.6068 -1.3460
   68MOL0     H 8912   0.027   1.502  11.379 -0.3922 -0.7682  0.0233
   68MOL0     H 8913  -0.082   1.450  11.578  2.3590  0.6807  0.4910
   68MOL0     H 8914  -0.106   1.290  11.651 -0.2735 -0.2690 -1.1683
   68MOL0     H 8915  -0.154   1.176  11.458  2.6744  1.0867 -0.4828
   68MOL0     H 8916  -0.150   1.312  11.349 -0.8908 -0.7006 -0.6065
   68MOL0     H 8917  -0.330   1.425  11.452 -0.1285 -1.0587 -2.2323
   68MOL0     H 8918  -0.339   1.293  11.576 -1.5311 -1.7326 -0.5010
   68MOL0     H 8919  -0.384   1.253  11.282  1.7024 -1.1352  0.6688
   68MOL0     H 8920  -0.417   1.137  11.404 -0.7045  0.0287 -1.3956
   68MOL0     H 8921  -0.646   1.240  11.339 -2.0771 -1.1819  1.3719
   68MOL0     H 8922  -0.578   1.393  11.371  2.0916 -1.4049 -3.4832
   68MOL0     H 8923  -0.589   1.361  11.616 -0.4757 -0.5252  1.4364
   68MOL0     H 8924  -0.559   1.183  11.582  0.1573 -0.5539 -1.0959
   68MOL0     H 8925  -0.812   1.321  11.530 -0.7895 -0.6197 -1.3408
   68MOL0     H 8926  -0.777   1.154  11.492 -2.5609  0.1793  1.6834
   68MOL0     H 8927  -0.716   1.233  11.782  0.4428 -0.9979  1.2612
   68MOL0     H 8928  -0.759   1.082  11.713 -3.0240 -0.4894  0.5644
   68MOL0     H 8929  -0.940   1.001  11.867 -3.1686  0.1736  3.5762
   68MOL0     H 8930  -1.205   0.995  11.956  1.3860 -0.6751 -1.2006
   68MOL0     H 8931  -1.249   0.929  11.807 -1.5334 -0.4651  1.1453
   68MOL0     H 8932  -1.371   1.170  11.765 -2.6078 -0.4554 -0.8344
   68MOL0     H 8933  -1.356   1.177  11.932  2.1079 -1.7958  1.3874
   68MOL0     H 8934  -1.520   0.990  11.770  2.4742  2.8357 -1.1941
   68MOL0     H 8935  -1.465   0.919  11.926 -4.1198 -0.3304  2.4402
   68MOL0     H 8936  -1.626   1.182  11.899  0.3516  1.0846  0.3580
   68MOL0     H 8937  -1.547   1.136  12.049 -2.4316  2.5707  0.3450
   68MOL0     H 8938  -1.753   1.034  11.731  0.3034 -0.9615 -0.0398
   68MOL0     H 8939  -1.991   1.007  11.643  3.4675  1.5957 -0.8889
   68MOL0     H 8940  -2.404   0.638  11.964  1.5081  1.7965  2.0969
   68MOL0     H 8941  -2.649   0.607  11.946 -0.6315  0.0334  0.1066
   68MOL0     H 8942  -2.820   0.724  11.641 -3.9019 -1.0545 -2.9377
   68MOL0     H 8943  -2.931   0.847  11.689  0.1023  0.5152 -0.5140
   68MOL0     H 8944  -3.077   0.674  11.802 -0.0033  0.8813 -1.0555
   68MOL0     H 8945  -2.956   0.545  11.754 -1.1530 -1.1032 -1.3353
   68MOL0     H 8946  -3.008   0.582  11.521 -0.9782 -1.5994  0.4817
   68MOL0     H 8947  -3.111   0.714  11.560  3.5965  0.0463 -2.7136
   68MOL0     H 8948  -3.151   0.415  11.619 -2.2692 -0.8597 -0.6699
   68MOL0     H 8949  -3.262   0.522  11.702 -3.9835 -1.8260 -1.3797
   68MOL0     H 8950  -3.209   0.517  11.399  0.8638 -1.1546  0.9653
   68MOL0     H 8951  -3.307   0.638  11.474  0.7059  0.1104  0.6925
   68MOL0     H 8952  -3.457   0.470  11.576  0.6832  0.5192  0.8354
   68MOL0     H 8953  -3.346   0.339  11.512 -1.1941 -0.2268  0.9012
   68MOL0     H 8954  -3.457   0.535  11.306  0.3609  1.1827  1.6710
   68MOL0     H 8955  -3.444   0.352  11.294 -2.3544 -1.5382  0.6659
   68MOL0     H 8956  -3.693   0.419  11.305  2.3811 -1.1793 -2.4515
   68MOL0     H 8957  -3.645   0.505  11.453  1.2155 -1.4878  0.7646
   68MOL0     H 8958  -2.690   0.969  11.730 -2.0987 -2.3645 -0.3159
   68MOL0     H 8959  -2.436   0.995  11.745 -0.9574  0.0371 -0.4195
   68MOL0     H 8960  -2.107   0.903  12.043  0.0082  1.1065 -0.1535
   68MOL0     H 8961  -1.876   0.978  12.127 -1.6427 -0.2418  0.5731
   68MOL0     H 8962   0.318   1.288  11.615  4.1446  1.3998  0.2326
   68MOL0     H 8963   0.473   1.472  11.594 -1.7208 -0.8459  2.5544
   68MOL0     H 8964   0.657   1.816  11.511  2.4536  0.1467  0.4566
   68MOL0     H 8965   0.832   1.962  11.509 -0.0811 -2.8920 -0.6165
   68MOL0     H 8966   0.996   2.142  11.430  3.9987  3.0450  2.4850
   68MOL0     H 8967   0.864   2.198  11.536 -1.2787 -0.2150 -0.7559
   68MOL0     H 8968   0.886   2.414  11.406  1.0877 -0.2675 -1.5000
   68MOL0     H 8969   1.023   2.382  11.521 -0.1213 -0.9874 -0.2366
   68MOL0     H 8970   1.112   2.283  11.285 -0.5131  0.7605  0.1534
   68MOL0     H 8971   1.140   2.448  11.333  1.0694 -0.6794  0.1437
   68MOL0     H 8972   1.088   2.438  11.111 -0.9483 -0.7637 -2.1067
   68MOL0     H 8973   0.939   2.350  11.127 -0.6310  0.2974 -0.5813
   68MOL0     H 8974   0.798   2.745  11.184 -5.7474 -2.9728 -0.7582
   68MOL0     H 8975   0.672   2.143  11.144  3.3668 -0.6214 -0.1992
   68MOL0     H 8976   0.488   1.957  11.137 -1.1115  0.2896  0.7971
   69MOL0     O 8977   1.087   8.912   0.878  0.1898  0.0375 -0.7265
   69MOL0     C 8978   1.130   8.937   0.760  0.0285  0.1009  0.2446
   69MOL0     O 8979   1.055   8.948   0.647 -0.1006  0.2071  0.0186
   69MOL0     C 8980   0.921   8.933   0.658 -0.3785 -0.0063 -0.3042
   69MOL0     C 8981   0.868   8.820   0.602  0.8392  0.5603  0.4836
   69MOL0     C 8982   0.728   8.810   0.595 -0.2619 -0.5141 -0.1178
   69MOL0     C 8983   0.651   8.905   0.669 -0.1062  0.3090 -0.3754
   69MOL0     O 8984   0.516   8.876   0.677 -0.2654 -0.1105 -0.0848
   69MOL0     C 8985   0.470   8.892   0.817 -0.0370  0.7580  0.1884
   69MOL0     C 8986   0.373   8.773   0.855 -0.3466  0.4602 -0.7145
   69MOL0     C 8987   0.244   8.769   0.780  0.4699 -0.5944  0.6280
   69MOL0     C 8988   0.153   8.651   0.810  0.1417 -0.6500 -1.0649
   69MOL0     C 8989   0.034   8.656   0.717 -0.7697 -0.2247 -1.7574
   69MOL0     C 8990  -0.041   8.522   0.713  0.0137  0.0123 -0.3048
   69MOL0     C 8991  -0.102   8.492   0.852 -0.4029 -0.2757  0.2344
   69MOL0     C 8992  -0.215   8.394   0.856  0.6924 -0.1396 -0.6184
   69MOL0     N 8993  -0.336   8.445   0.791 -0.0680 -0.4377  0.8736
   69MOL0     C 8994  -0.375   8.431   0.659  0.4253 -0.5003 -0.2302
   69MOL0     C 8995  -0.509   8.446   0.664  0.5458 -0.8172 -0.8790
   69MOL0     C 8996  -0.609   8.437   0.545 -0.7054 -0.0746  0.2618
   69MOL0     C 8997  -0.623   8.571   0.479  0.0588 -0.8607  0.2017
   69MOL0     C 8998  -0.698   8.596   0.341 -0.7444  0.7610  0.3542
   69MOL0     C 8999  -0.831   8.532   0.316 -0.4708  0.5736 -0.0829
   69MOL0     O 9000  -0.861   8.579   0.188  0.3744 -0.4786  0.6049
   69MOL0     C 9001  -0.997   8.600   0.166  0.0611 -0.4726  0.0693
   69MOL0     C 9002  -1.102   8.530   0.224  0.3570 -0.9175  0.3240
   69MOL0     C 9003  -1.233   8.568   0.186  0.0668  0.1133  0.1239
   69MOL0     C 9004  -1.261   8.673   0.100 -0.5159  0.3989 -0.1096
   69MOL0     C 9005  -1.395   8.724   0.064 -0.0525 -0.7233  0.0566
   69MOL0     O 9006  -1.398   8.848   0.003 -0.7757  0.8706  0.0545
   69MOL0     C 9007  -1.528   8.881  -0.037 -0.3511  0.3303 -0.0455
   69MOL0     C 9008  -1.590   8.987   0.031 -0.1074 -0.2494  0.8951
   69MOL0     C 9009  -1.718   9.019  -0.006 -0.6477 -0.4147 -0.5836
   69MOL0     C 9010  -1.789   8.944  -0.095  1.0796  0.7294  0.2690
   69MOL0     O 9011  -1.920   8.957  -0.124 -0.0119  0.2486  0.3041
   69MOL0     C 9012  -2.002   9.044  -0.049 -1.1041 -0.4232  0.2108
   69MOL0     C 9013  -2.145   9.021  -0.083  0.5765 -0.3609  0.3012
   69MOL0     C 9014  -2.166   9.080  -0.228  0.2363  0.1074 -0.0306
   69MOL0     C 9015  -2.296   9.033  -0.297  0.3671 -0.5276  0.1811
   69MOL0     C 9016  -2.423   9.043  -0.209 -0.1152  0.8294 -0.8445
   69MOL0     C 9017  -2.548   9.025  -0.297 -0.2681  0.0542 -0.0496
   69MOL0     C 9018  -2.677   9.014  -0.207  0.3933  0.8347 -0.3341
   69MOL0     C 9019  -2.793   8.964  -0.302  0.0771 -0.9687  0.3421
   69MOL0    Cl 9020  -2.966   8.946  -0.234 -0.3773 -0.1898  0.0091
   69MOL0     C 9021  -1.724   8.842  -0.164  0.7391  0.2496  0.0290
   69MOL0     C 9022  -1.593   8.810  -0.136 -0.9278  0.5787  0.4254
   69MOL0     O 9023  -1.485   8.655   0.096  0.4205 -0.6403  0.4497
   69MOL0     C 9024  -1.151   8.734   0.044  0.3204 -0.7629 -0.3020
   69MOL0     C 9025  -1.028   8.695   0.071  0.2935 -0.1748 -0.0067
   69MOL0     N 9026  -0.549   8.475   0.796 -0.0169  0.4380  0.0465
   69MOL0     N 9027  -0.442   8.478   0.871  0.3351  0.3908 -0.6765
   69MOL0     C 9028   0.706   9.022   0.721  0.2153  0.5157 -0.7387
   69MOL0     C 9029   0.843   9.035   0.718  0.1905  0.3208  0.5968
   69MOL0     C 9030   1.272   8.957   0.737  0.6243  0.1426  0.1109
   69MOL0     C 9031   1.329   8.954   0.614 -0.1697  0.6945  0.3367
   69MOL0     C 9032   1.466   8.957   0.590 -1.0014  0.7023 -0.5148
   69MOL0     C 9033   1.551   8.960   0.701 -0.5945 -0.7409  0.3897
   69MOL0     O 9034   1.686   8.967   0.684  0.6365  0.0137  0.0857
   69MOL0     C 9035   1.756   8.926   0.566  0.3303 -0.4816  0.3733
   69MOL0     C 9036   1.907   8.911   0.590  0.5558  0.0242 -0.0866
   69MOL0     C 9037   1.975   9.049   0.604  0.7449  0.2673  0.2394
   69MOL0     C 9038   2.024   9.114   0.472 -0.4053  0.6043  0.0519
   69MOL0     C 9039   2.166   9.071   0.464 -0.6021  0.5581  0.6491
   69MOL0     C 9040   2.287   9.054   0.452 -0.1452 -0.1078 -0.1505
   69MOL0     C 9041   1.501   8.970   0.825  0.6641  0.2012 -0.1101
   69MOL0     C 9042   1.363   8.970   0.846 -0.1492  0.6699  0.1539
   69MOL0     H 9043   0.937   8.757   0.548  1.6940  3.7653 -2.5095
   69MOL0     H 9044   0.676   8.730   0.545 -0.9781 -0.2144  0.1308
   69MOL0     H 9045   0.417   8.986   0.832 -1.0508  0.3703 -0.8006
   69MOL0     H 9046   0.558   8.890   0.883  0.7902 -0.5801 -0.8926
   69MOL0     H 9047   0.352   8.784   0.962 -0.6120  1.1584 -0.8373
   69MOL0     H 9048   0.425   8.679   0.831 -1.9457 -0.6728  0.0487
   69MOL0     H 9049   0.277   8.770   0.676  1.9407 -0.0351  1.0756
   69MOL0     H 9050   0.204   8.869   0.795  3.8214  0.5955  2.8922
   69MOL0     H 9051   0.208   8.559   0.789  0.7935 -0.0846 -1.8982
   69MOL0     H 9052   0.125   8.647   0.915 -2.4493 -1.1701 -1.7036
   69MOL0     H 9053   0.082   8.684   0.623  1.4706  1.7740 -0.1294
   69MOL0     H 9054  -0.026   8.742   0.744  0.5010  0.0369  0.5344
   69MOL0     H 9055   0.022   8.436   0.688  0.2816  0.2183 -0.3455
   69MOL0     H 9056  -0.111   8.538   0.631  2.7989  0.5464 -2.7421
   69MOL0     H 9057  -0.030   8.446   0.920 -0.2097  0.1755  0.3450
   69MOL0     H 9058  -0.131   8.582   0.908  1.2892 -0.7390  1.9963
   69MOL0     H 9059  -0.236   8.378   0.962 -1.4572  1.4031 -0.7368
   69MOL0     H 9060  -0.182   8.297   0.818  0.7084 -0.5686  0.4529
   69MOL0     H 9061  -0.309   8.397   0.579 -0.2107 -1.6231 -0.3028
   69MOL0     H 9062  -0.705   8.393   0.573  0.4358 -2.5670  0.4968
   69MOL0     H 9063  -0.559   8.376   0.469 -0.4599 -0.5318  0.7868
   69MOL0     H 9064  -0.520   8.605   0.466  0.6536 -2.5318  0.4117
   69MOL0     H 9065  -0.661   8.642   0.554 -2.4235  0.4844 -2.1567
   69MOL0     H 9066  -0.716   8.703   0.327 -0.3574  0.6132 -1.5981
   69MOL0     H 9067  -0.625   8.573   0.262 -1.1403 -0.9200  0.4387
   69MOL0     H 9068  -0.907   8.558   0.390  0.9686  1.4912  1.1571
   69MOL0     H 9069  -0.815   8.426   0.294 -1.0713  0.8044 -1.8111
   69MOL0     H 9070  -1.093   8.447   0.293  0.0406 -1.9752 -0.8579
   69MOL0     H 9071  -1.325   8.518   0.215 -1.7178  3.3996  0.6717
   69MOL0     H 9072  -1.525   9.039   0.101 -2.4601 -1.7980  4.5585
   69MOL0     H 9073  -1.761   9.107   0.041  2.7106  0.3357  1.4624
   69MOL0     H 9074  -1.974   9.149  -0.059 -0.0663 -0.8455 -1.9014
   69MOL0     H 9075  -1.992   9.022   0.058  1.8841  0.0646  0.1107
   69MOL0     H 9076  -2.209   9.072  -0.011  1.1936 -2.2304  2.2799
   69MOL0     H 9077  -2.163   8.913  -0.075 -0.0427 -0.1289  2.4533
   69MOL0     H 9078  -2.084   9.046  -0.293 -1.9954 -1.0233 -2.4451
   69MOL0     H 9079  -2.167   9.189  -0.226 -0.0010  0.1355  2.8601
   69MOL0     H 9080  -2.320   9.083  -0.391 -1.0931 -2.4548 -0.5446
   69MOL0     H 9081  -2.277   8.927  -0.317  1.4203 -0.0089 -1.6715
   69MOL0     H 9082  -2.426   9.141  -0.161 -2.4293  0.2520  0.3597
   69MOL0     H 9083  -2.409   8.968  -0.130 -0.1941  0.4837 -1.1547
   69MOL0     H 9084  -2.538   8.930  -0.351  2.3047  1.2698 -1.9440
   69MOL0     H 9085  -2.556   9.108  -0.368  3.0421 -0.9761 -1.8867
   69MOL0     H 9086  -2.667   8.967  -0.109  0.5453  0.3657 -0.5725
   69MOL0     H 9087  -2.706   9.116  -0.178 -0.3413  0.2231  1.1989
   69MOL0     H 9088  -2.756   8.869  -0.342  1.1350 -1.0100  1.3639
   69MOL0     H 9089  -2.805   9.032  -0.387  0.5020 -2.7291 -1.2027
   69MOL0     H 9090  -1.789   8.787  -0.231  2.5135 -2.3576  0.3346
   69MOL0     H 9091  -1.553   8.721  -0.183  0.9832  1.6271 -0.0255
   69MOL0     H 9092  -1.163   8.813  -0.030 -0.3677 -0.0021  0.5919
   69MOL0     H 9093  -0.941   8.732   0.018  2.4690 -1.0265  2.7146
   69MOL0     H 9094   0.629   9.086   0.763  0.6653 -0.2872  1.4387
   69MOL0     H 9095   0.884   9.122   0.768 -1.3108  0.8419  0.9793
   69MOL0     H 9096   1.260   8.947   0.531 -2.0426  0.8122  1.8163
   69MOL0     H 9097   1.512   8.957   0.492  0.3943 -1.9834  0.0436
   69MOL0     H 9098   1.731   8.981   0.475 -1.1122 -0.5048  0.7306
   69MOL0     H 9099   1.721   8.824   0.544 -1.3734 -0.5115  2.8115
   69MOL0     H 9100   1.912   8.859   0.686  1.8002  2.1397  1.0796
   69MOL0     H 9101   1.946   8.846   0.511 -0.5784 -1.4393  0.5046
   69MOL0     H 9102   2.054   9.040   0.679 -2.7403 -2.4028  4.0457
   69MOL0     H 9103   1.899   9.118   0.642  1.0330  0.2838  0.7905
   69MOL0     H 9104   1.973   9.075   0.384  0.7608 -0.1682 -0.3053
   69MOL0     H 9105   2.009   9.222   0.487  0.2462  0.6818  0.2173
   69MOL0     H 9106   2.391   9.054   0.424  0.1941  2.0251  0.8926
   69MOL0     H 9107   1.566   8.958   0.911 -1.0837 -2.4003  0.9584
   69MOL0     H 9108   1.318   8.971   0.945 -2.4904 -0.5029 -0.8330
   70MOL0     O 9109  10.994   4.126   1.994 -0.2690 -0.7845 -0.7428
   70MOL0     C 9110  11.049   4.204   1.916 -0.4780  0.1979 -0.3128
   70MOL0     O 9111  10.983   4.282   1.817  0.3483  0.6375 -0.5512
   70MOL0     C 9112  10.845   4.302   1.831 -0.7499  0.3697  0.0692
   70MOL0     C 9113  10.787   4.347   1.945  0.8783  0.4200 -0.1650
   70MOL0     C 9114  10.650   4.366   1.950 -0.3957 -0.2700  1.0401
   70MOL0     C 9115  10.576   4.337   1.835  0.1191  0.2559 -0.5176
   70MOL0     O 9116  10.438   4.338   1.836 -0.5225 -0.1121 -0.7434
   70MOL0     C 9117  10.390   4.470   1.801 -0.9566  0.0306 -0.2538
   70MOL0     C 9118  10.240   4.460   1.805 -0.2562  0.4671  0.8677
   70MOL0     C 9119  10.175   4.569   1.721 -0.0705 -0.0470  0.1308
   70MOL0     C 9120  10.022   4.538   1.703  0.1046 -0.5825  0.0464
   70MOL0     C 9121   9.964   4.624   1.586 -0.4292  0.2573 -1.1225
   70MOL0     C 9122   9.930   4.765   1.636 -0.2091 -0.3575  0.2016
   70MOL0     C 9123   9.889   4.838   1.512 -0.4504 -0.3141  0.3728
   70MOL0     C 9124   9.943   4.981   1.523  0.4451 -0.1409 -0.2776
   70MOL0     N 9125   9.861   5.055   1.618  0.2025 -0.4145  0.2908
   70MOL0     C 9126   9.786   5.166   1.569 -0.3343 -0.5279  0.2665
   70MOL0     C 9127   9.758   5.241   1.677  0.5915  0.1368  0.1713
   70MOL0     C 9128   9.691   5.379   1.680 -0.0873  0.4118  0.6467
   70MOL0     C 9129   9.682   5.427   1.825  0.1663  0.1911 -0.3432
   70MOL0     C 9130   9.626   5.571   1.821  0.2917  0.6113  0.1521
   70MOL0     C 9131   9.625   5.648   1.955  0.2143 -0.3737  0.4567
   70MOL0     O 9132   9.560   5.776   1.932 -0.0768 -0.0844  0.0585
   70MOL0     C 9133   9.423   5.780   1.942  0.3179  1.0418 -0.0653
   70MOL0     C 9134   9.367   5.906   1.960  0.3423  0.3812  0.6141
   70MOL0     C 9135   9.233   5.922   1.980  0.6859 -0.0368 -0.4089
   70MOL0     C 9136   9.143   5.813   1.973 -0.2929 -0.2603 -0.0039
   70MOL0     C 9137   8.998   5.841   2.005 -0.7793  0.7379  0.5773
   70MOL0     O 9138   8.952   5.971   2.003  0.2419 -0.0413  0.7806
   70MOL0     C 9139   8.823   5.984   2.040  0.5768  0.0821 -0.5424
   70MOL0     C 9140   8.714   5.994   1.956 -0.5144  0.0030 -0.5080
   70MOL0     C 9141   8.591   6.008   1.997 -0.2047  0.4926 -0.0573
   70MOL0     C 9142   8.557   6.008   2.131 -0.2781 -0.0677 -0.2959
   70MOL0     O 9143   8.436   5.997   2.191 -0.2949  0.2760  0.3832
   70MOL0     C 9144   8.320   6.015   2.103 -0.1464  0.0080 -0.6497
   70MOL0     C 9145   8.207   6.012   2.202  0.3235 -0.3357  0.7862
   70MOL0     C 9146   8.067   6.027   2.138 -0.0209  0.0240  0.3449
   70MOL0     C 9147   7.964   6.033   2.246  0.1917  0.4286  0.1644
   70MOL0     C 9148   7.821   6.047   2.198  0.6598  0.5039 -0.2244
   70MOL0     C 9149   7.718   6.026   2.311  0.0226 -1.1389  0.1729
   70MOL0     C 9150   7.583   6.058   2.240  0.0948  0.8858  0.5185
   70MOL0     C 9151   7.465   6.083   2.332  0.6669  0.0076  0.1193
   70MOL0    Cl 9152   7.425   5.945   2.439  0.0539 -0.3486  0.1714
   70MOL0     C 9153   8.665   6.008   2.218 -0.2935  0.3078  0.2760
   70MOL0     C 9154   8.804   5.994   2.177  0.6372  0.4318 -0.7007
   70MOL0     O 9155   8.929   5.740   2.022 -0.6478  0.2176 -0.1253
   70MOL0     C 9156   9.198   5.684   1.952  0.1846 -0.3463  0.4655
   70MOL0     C 9157   9.339   5.669   1.944  0.2805 -0.5515 -0.2408
   70MOL0     N 9158   9.798   5.166   1.785 -0.5791 -0.2301 -0.1483
   70MOL0     N 9159   9.873   5.063   1.753 -0.0652  0.0686 -0.1450
   70MOL0     C 9160  10.636   4.286   1.718  0.1746  0.1264  0.0688
   70MOL0     C 9161  10.771   4.272   1.713  0.7347 -0.0422 -0.3831
   70MOL0     C 9162  11.189   4.224   1.934  0.0670  0.1764  0.0344
   70MOL0     C 9163  11.271   4.121   1.975 -0.2723 -0.2193 -0.9301
   70MOL0     C 9164  11.410   4.138   2.004 -0.3527  0.0181 -0.2652
   70MOL0     C 9165  11.474   4.256   1.973  0.7272  0.2834 -0.4074
   70MOL0     O 9166  11.612   4.258   1.976 -0.0366 -0.1664 -0.2480
   70MOL0     C 9167  11.672   4.259   1.846  0.3803 -1.2675  0.7018
   70MOL0     C 9168  11.826   4.264   1.857  0.7260 -0.0515  0.5871
   70MOL0     C 9169  11.881   4.244   1.716  0.6222 -0.0738 -0.7618
   70MOL0     C 9170  11.904   4.379   1.632 -0.7841 -0.2372 -0.7560
   70MOL0     C 9171  11.779   4.441   1.576  0.0016 -0.6150  0.5605
   70MOL0     C 9172  11.689   4.511   1.532 -0.4398 -0.2017 -0.1300
   70MOL0     C 9173  11.393   4.363   1.924  0.2980 -0.1666  0.6640
   70MOL0     C 9174  11.252   4.346   1.903 -0.9531  0.6340 -0.9583
   70MOL0     H 9175  10.842   4.383   2.031 -0.6363  1.6169  0.3557
   70MOL0     H 9176  10.584   4.394   2.033 -1.6027 -2.4148  0.8656
   70MOL0     H 9177  10.435   4.498   1.706 -0.3268  0.6003  0.1987
   70MOL0     H 9178  10.423   4.545   1.874 -2.5037  0.2420  0.2799
   70MOL0     H 9179  10.205   4.457   1.908 -2.0428  1.5714  0.3295
   70MOL0     H 9180  10.215   4.363   1.761 -2.8476  1.5667 -0.2629
   70MOL0     H 9181  10.229   4.583   1.627 -0.0969 -1.0554 -0.0409
   70MOL0     H 9182  10.182   4.670   1.763  5.0200 -0.6471  1.3301
   70MOL0     H 9183   9.996   4.434   1.683 -1.7839 -0.2033  0.3539
   70MOL0     H 9184   9.973   4.582   1.790 -1.7944 -0.7724 -0.8779
   70MOL0     H 9185   9.869   4.588   1.547 -0.4641 -0.7539 -0.1553
   70MOL0     H 9186  10.031   4.625   1.499  0.2149  1.5523 -0.6368
   70MOL0     H 9187  10.006   4.812   1.698  0.1939 -0.6223 -0.0893
   70MOL0     H 9188   9.844   4.761   1.704 -0.8938  1.5991 -0.4536
   70MOL0     H 9189   9.936   4.795   1.423 -0.8008  0.0045  0.0272
   70MOL0     H 9190   9.781   4.844   1.495 -0.3655  1.2403  0.2550
   70MOL0     H 9191   9.940   5.029   1.424  2.3800  0.3695 -0.1338
   70MOL0     H 9192  10.050   4.984   1.544  0.5483 -0.4103 -0.7555
   70MOL0     H 9193   9.783   5.210   1.470  0.1250 -0.1909  0.3977
   70MOL0     H 9194   9.591   5.374   1.637  0.3810 -0.2520 -0.4184
   70MOL0     H 9195   9.755   5.442   1.617 -0.1406 -0.6425 -0.5097
   70MOL0     H 9196   9.781   5.437   1.872 -0.0345 -0.3619  0.2037
   70MOL0     H 9197   9.611   5.364   1.880  2.9408 -3.3578 -0.4230
   70MOL0     H 9198   9.693   5.632   1.760  1.4653  0.7147  1.5140
   70MOL0     H 9199   9.526   5.565   1.776 -0.0986  2.6374  0.6538
   70MOL0     H 9200   9.724   5.671   1.995  2.1357 -1.9855 -2.9035
   70MOL0     H 9201   9.569   5.587   2.026 -0.3934  0.4451  0.6924
   70MOL0     H 9202   9.432   5.992   1.947 -1.8862  1.6737 -4.5090
   70MOL0     H 9203   9.192   6.021   2.000 -0.2656 -0.5319  0.2112
   70MOL0     H 9204   8.740   5.988   1.850 -0.9706 -3.4530 -0.5205
   70MOL0     H 9205   8.515   5.996   1.920  0.8377  2.4748 -1.4838
   70MOL0     H 9206   8.324   5.931   2.033  3.8327  0.7330 -1.5173
   70MOL0     H 9207   8.334   6.112   2.054 -4.0809  0.4591 -1.2151
   70MOL0     H 9208   8.228   6.095   2.269  0.0163  1.3614 -1.1225
   70MOL0     H 9209   8.211   5.921   2.263  1.9052 -1.2860 -0.6491
   70MOL0     H 9210   8.048   5.941   2.072  3.1815  1.2945 -2.5150
   70MOL0     H 9211   8.065   6.118   2.078  0.9221  0.3614  0.8081
   70MOL0     H 9212   7.985   5.945   2.306 -0.4757 -0.7086 -1.1957
   70MOL0     H 9213   7.988   6.115   2.315  1.1556  0.5018 -0.2469
   70MOL0     H 9214   7.812   5.968   2.123  2.3718  0.5226 -0.4943
   70MOL0     H 9215   7.816   6.147   2.154 -2.0487  0.7857  0.5449
   70MOL0     H 9216   7.727   6.099   2.392 -1.1654 -3.1350  2.2109
   70MOL0     H 9217   7.728   5.924   2.348  0.4448 -0.8861  0.7716
   70MOL0     H 9218   7.607   6.149   2.185  2.2459 -0.6038 -1.2059
   70MOL0     H 9219   7.555   5.982   2.166 -2.2502  1.4484  0.7515
   70MOL0     H 9220   7.380   6.125   2.278  2.3419  3.7211  0.0954
   70MOL0     H 9221   7.498   6.171   2.388  0.3766  1.5763 -2.0880
   70MOL0     H 9222   8.645   5.999   2.325  0.7727  0.3037  0.4782
   70MOL0     H 9223   8.877   5.979   2.256 -1.1829 -6.1803  0.3686
   70MOL0     H 9224   9.131   5.599   1.947  0.1420 -0.3144  0.4886
   70MOL0     H 9225   9.383   5.572   1.922  2.6865 -0.1364  2.2678
   70MOL0     H 9226  10.572   4.281   1.630 -1.8387  1.2516  1.3947
   70MOL0     H 9227  10.828   4.244   1.626 -1.8846 -1.5804 -1.7401
   70MOL0     H 9228  11.222   4.024   1.977 -0.0869 -0.3146 -1.0029
   70MOL0     H 9229  11.476   4.054   2.023 -0.4464  0.2784  1.3670
   70MOL0     H 9230  11.646   4.352   1.793  3.4947 -0.6728  0.0259
   70MOL0     H 9231  11.645   4.177   1.779  3.4266  0.6911 -3.4073
   70MOL0     H 9232  11.859   4.357   1.902 -1.6660  0.6300  1.0496
   70MOL0     H 9233  11.849   4.183   1.928 -1.1594 -0.9229  0.2681
   70MOL0     H 9234  11.819   4.175   1.657  0.1846  0.4746 -0.9530
   70MOL0     H 9235  11.979   4.200   1.738  1.7511  2.5239 -0.2826
   70MOL0     H 9236  11.952   4.458   1.689 -3.0626  0.2689  0.6064
   70MOL0     H 9237  11.971   4.357   1.548  1.7794 -0.3797  1.2289
   70MOL0     H 9238  11.603   4.558   1.489  0.7495 -0.6542 -3.2365
   70MOL0     H 9239  11.429   4.458   1.884 -0.5916  0.7845  2.0201
   70MOL0     H 9240  11.196   4.431   1.866 -0.7373  1.2778  0.1500
   71MOL0     O 9241   6.725   8.505   7.094 -0.3158 -0.1729 -1.1499
   71MOL0     C 9242   6.796   8.409   7.093 -0.1766 -0.6672  1.1727
   71MOL0     O 9243   6.758   8.282   7.090 -0.2332  0.4831 -0.7813
   71MOL0     C 9244   6.629   8.245   7.064 -0.6241 -0.8327 -0.7455
   71MOL0     C 9245   6.609   8.104   7.050  0.3792  0.4790  0.5866
   71MOL0     C 9246   6.482   8.058   7.025 -0.3730 -0.5177 -0.1322
   71MOL0     C 9247   6.368   8.141   7.013  0.5429 -0.1147 -0.0553
   71MOL0     O 9248   6.248   8.081   6.997  0.5168  1.2440 -0.7467
   71MOL0     C 9249   6.129   8.154   7.041 -0.6596 -0.9257  0.0165
   71MOL0     C 9250   6.015   8.056   7.030 -0.7726 -0.3375  0.1764
   71MOL0     C 9251   6.027   7.931   7.116 -0.2468 -0.3026 -0.4224
   71MOL0     C 9252   5.910   7.832   7.105  0.4708 -0.1256 -0.1424
   71MOL0     C 9253   5.790   7.880   7.193  0.0274 -0.4396  0.0268
   71MOL0     C 9254   5.681   7.764   7.189  0.3735  0.0857  0.9474
   71MOL0     C 9255   5.562   7.817   7.271 -0.0318  0.5347 -0.5927
   71MOL0     C 9256   5.426   7.745   7.255 -0.4081 -0.0071 -0.2052
   71MOL0     N 9257   5.435   7.607   7.302  0.6445 -0.3347 -0.9799
   71MOL0     C 9258   5.448   7.572   7.435 -0.1965  0.3305  0.3826
   71MOL0     C 9259   5.468   7.441   7.424  0.0609  1.0098 -0.6971
   71MOL0     C 9260   5.451   7.349   7.550  0.6455 -0.5730 -0.2593
   71MOL0     C 9261   5.393   7.212   7.515 -0.3447  0.4579  0.5060
   71MOL0     C 9262   5.312   7.145   7.621 -0.0073 -0.3680 -0.2455
   71MOL0     C 9263   5.314   7.000   7.603 -0.7487 -0.0008  0.3695
   71MOL0     O 9264   5.208   6.952   7.681  0.1505  0.0901 -0.8705
   71MOL0     C 9265   5.075   6.946   7.633 -0.9362  0.5161  0.2469
   71MOL0     C 9266   5.020   6.992   7.507  0.0843  0.4212  0.0326
   71MOL0     C 9267   4.883   6.984   7.477 -0.5418 -0.2305 -0.4717
   71MOL0     C 9268   4.797   6.950   7.582  1.0685  0.0344 -1.2816
   71MOL0     C 9269   4.652   6.976   7.561 -0.3154  0.0357  0.1175
   71MOL0     O 9270   4.574   6.972   7.671 -0.0826  0.6145  0.3900
   71MOL0     C 9271   4.432   6.957   7.672 -0.5221 -0.5893 -0.4180
   71MOL0     C 9272   4.363   6.903   7.565  0.0321 -0.1343  0.3995
   71MOL0     C 9273   4.224   6.873   7.579  0.1691 -0.0968 -0.2358
   71MOL0     C 9274   4.161   6.897   7.696 -0.4157 -0.1399  0.3932
   71MOL0     O 9275   4.025   6.872   7.698  0.2139 -0.7160 -0.5096
   71MOL0     C 9276   3.968   6.845   7.827  0.7300  0.0659  0.3261
   71MOL0     C 9277   3.819   6.828   7.807  0.1939  0.1421 -0.2429
   71MOL0     C 9278   3.762   6.768   7.940  0.0878 -0.1183  0.5200
   71MOL0     C 9279   3.612   6.742   7.943  0.3082 -0.1300  0.0204
   71MOL0     C 9280   3.561   6.728   8.086 -0.0457  0.1993 -0.9029
   71MOL0     C 9281   3.431   6.795   8.122 -1.1616 -0.2533 -0.1623
   71MOL0     C 9282   3.314   6.706   8.084 -0.0449 -0.9078  0.2977
   71MOL0     C 9283   3.180   6.762   8.131 -0.0230 -0.3396 -0.4174
   71MOL0    Cl 9284   3.050   6.666   8.054 -0.5669 -0.2064  0.2827
   71MOL0     C 9285   4.221   6.955   7.810 -0.2550  0.2791 -0.7977
   71MOL0     C 9286   4.359   6.982   7.795 -0.3264 -0.1144  1.2976
   71MOL0     O 9287   4.611   6.990   7.448 -0.2832 -0.4766  0.0186
   71MOL0     C 9288   4.843   6.916   7.709 -0.1380 -0.0896  0.4848
   71MOL0     C 9289   4.983   6.909   7.734 -0.5686  0.3239 -0.1155
   71MOL0     N 9290   5.490   7.400   7.294 -0.2671  0.1886 -0.0328
   71MOL0     N 9291   5.462   7.501   7.222  0.2662  0.4528 -0.0948
   71MOL0     C 9292   6.391   8.273   7.035  0.1585 -0.5923 -0.2102
   71MOL0     C 9293   6.511   8.329   7.068 -0.5559 -0.1372  0.4479
   71MOL0     C 9294   6.945   8.430   7.088  0.6570  0.3338  0.1791
   71MOL0     C 9295   7.034   8.323   7.105  0.1693 -0.3254 -1.3400
   71MOL0     C 9296   7.176   8.344   7.105 -0.8416 -1.1007 -0.4416
   71MOL0     C 9297   7.225   8.477   7.086 -0.3578  0.1255 -0.1284
   71MOL0     O 9298   7.357   8.511   7.089  0.5059  0.5739  0.1871
   71MOL0     C 9299   7.439   8.440   7.189  0.0234 -0.6205  0.1956
   71MOL0     C 9300   7.590   8.473   7.192  0.2725 -0.3770  0.1590
   71MOL0     C 9301   7.668   8.419   7.063  0.4732  0.4988 -0.1195
   71MOL0     C 9302   7.811   8.459   7.051 -0.5106  0.2875  0.7136
   71MOL0     C 9303   7.905   8.436   7.160 -0.6611 -0.0531  0.3082
   71MOL0     C 9304   7.985   8.426   7.252 -0.2988  0.1061 -0.1364
   71MOL0     C 9305   7.137   8.580   7.080 -0.2643 -0.1390  0.0078
   71MOL0     C 9306   6.993   8.561   7.079 -0.3565  0.3384  0.5496
   71MOL0     H 9307   6.691   8.032   7.058  0.7657  0.6235 -1.4978
   71MOL0     H 9308   6.463   7.951   7.024  0.5142 -0.7057  1.3186
   71MOL0     H 9309   6.120   8.238   6.971  2.5294 -0.6801 -0.2376
   71MOL0     H 9310   6.142   8.193   7.142  1.7161  1.5543 -1.1159
   71MOL0     H 9311   6.029   8.023   6.927 -1.0177  1.5998 -0.5089
   71MOL0     H 9312   5.918   8.103   7.048 -1.6058 -1.8588 -0.1770
   71MOL0     H 9313   6.032   7.956   7.222  0.5681 -0.4141 -0.4282
   71MOL0     H 9314   6.118   7.874   7.091 -0.9334 -1.4505 -0.3870
   71MOL0     H 9315   5.875   7.818   7.002 -1.4661 -0.7890  0.5620
   71MOL0     H 9316   5.938   7.735   7.146 -0.4787  0.2887  1.5882
   71MOL0     H 9317   5.751   7.976   7.157  0.2651  0.3769  1.8067
   71MOL0     H 9318   5.816   7.901   7.297 -0.3046 -0.5106  0.1233
   71MOL0     H 9319   5.722   7.673   7.233  3.5627  0.5038 -0.8888
   71MOL0     H 9320   5.647   7.754   7.086 -0.2304 -0.4016  1.1893
   71MOL0     H 9321   5.598   7.832   7.373 -0.8803 -0.5620 -0.1152
   71MOL0     H 9322   5.546   7.919   7.235  1.6051  2.1286  2.7431
   71MOL0     H 9323   5.401   7.751   7.149  2.7744  3.9172 -0.9637
   71MOL0     H 9324   5.346   7.802   7.303 -1.0364 -0.4296 -0.7506
   71MOL0     H 9325   5.416   7.624   7.525 -1.2649 -0.6961  0.6185
   71MOL0     H 9326   5.383   7.399   7.620  1.3851  1.0173 -0.6408
   71MOL0     H 9327   5.547   7.329   7.598  0.2587  0.8173  1.1795
   71MOL0     H 9328   5.473   7.143   7.489  0.5462  0.6921  2.5108
   71MOL0     H 9329   5.341   7.216   7.419  2.2350 -0.3893 -1.0348
   71MOL0     H 9330   5.339   7.173   7.723  0.0668  0.0435 -0.3750
   71MOL0     H 9331   5.211   7.184   7.603  0.8147  1.4390 -1.1960
   71MOL0     H 9332   5.414   6.970   7.634 -0.4972  0.3267 -0.1111
   71MOL0     H 9333   5.296   6.990   7.495  1.7536  0.2269 -0.1266
   71MOL0     H 9334   5.087   7.036   7.434 -0.6623 -0.4237 -1.2023
   71MOL0     H 9335   4.847   7.020   7.381  1.0980  0.2075 -0.9507
   71MOL0     H 9336   4.415   6.882   7.472  1.0795  0.3743  0.8508
   71MOL0     H 9337   4.176   6.839   7.488 -1.4337  0.2279  0.4637
   71MOL0     H 9338   3.975   6.937   7.887  1.6664  2.6899 -3.4047
   71MOL0     H 9339   4.011   6.756   7.873  2.3707  0.1452 -0.9477
   71MOL0     H 9340   3.810   6.754   7.727  0.7383  2.1040 -2.2157
   71MOL0     H 9341   3.765   6.921   7.787  0.2513 -0.0238 -1.1916
   71MOL0     H 9342   3.785   6.846   8.013  0.2063 -1.7669  2.3370
   71MOL0     H 9343   3.823   6.682   7.972 -0.1436 -0.4804 -0.0028
   71MOL0     H 9344   3.562   6.833   7.910  1.7277  1.5513  2.2643
   71MOL0     H 9345   3.595   6.653   7.881  2.3761 -0.2009 -0.5207
   71MOL0     H 9346   3.634   6.771   8.155 -0.0364 -1.1796 -0.0268
   71MOL0     H 9347   3.548   6.623   8.111  1.1712  0.3795  0.6183
   71MOL0     H 9348   3.423   6.894   8.076 -0.5260 -1.1363 -2.2951
   71MOL0     H 9349   3.435   6.800   8.231  0.9778 -1.9667 -0.0853
   71MOL0     H 9350   3.313   6.691   7.976  2.3466  2.7055 -0.3966
   71MOL0     H 9351   3.330   6.608   8.131  0.5805 -2.6616 -3.2521
   71MOL0     H 9352   3.172   6.869   8.110 -0.2860  0.0225  1.3585
   71MOL0     H 9353   3.186   6.751   8.239  2.1726  0.5737 -0.3855
   71MOL0     H 9354   4.169   6.991   7.898 -0.7872  0.4836 -1.1922
   71MOL0     H 9355   4.416   7.034   7.871  1.3765 -1.6219  1.1415
   71MOL0     H 9356   4.789   6.892   7.799  0.1997  0.3625  0.8155
   71MOL0     H 9357   5.012   6.913   7.838 -0.3785  1.6502 -0.1986
   71MOL0     H 9358   6.302   8.334   7.046 -1.2097 -2.0596 -2.2244
   71MOL0     H 9359   6.505   8.434   7.096 -0.4235  0.0755 -0.2798
   71MOL0     H 9360   7.001   8.220   7.118  2.4208 -1.1680 -1.8233
   71MOL0     H 9361   7.246   8.262   7.114  0.6858  0.1169 -0.7294
   71MOL0     H 9362   7.423   8.332   7.188 -0.9277 -0.4966  0.8413
   71MOL0     H 9363   7.402   8.478   7.284  0.0963  2.1765 -0.7850
   71MOL0     H 9364   7.608   8.581   7.189  2.6832 -0.7214 -0.0949
   71MOL0     H 9365   7.619   8.430   7.289 -2.6312 -1.6703  0.5406
   71MOL0     H 9366   7.617   8.459   6.975 -1.3524 -2.8603 -0.7706
   71MOL0     H 9367   7.654   8.311   7.064  2.9331  0.1243  0.3124
   71MOL0     H 9368   7.845   8.407   6.960 -1.1933  0.9873  0.0440
   71MOL0     H 9369   7.824   8.566   7.031  0.3766 -0.1922 -1.7358
   71MOL0     H 9370   8.074   8.418   7.310 -0.1536 -0.2327 -0.4054
   71MOL0     H 9371   7.169   8.683   7.063  2.2693 -1.0650 -1.3600
   71MOL0     H 9372   6.928   8.648   7.079 -0.8079  0.0231 -0.6856
   72MOL0     O 9373   5.525   0.686  10.658 -0.3909 -0.1201  0.1740
   72MOL0     C 9374   5.559   0.788  10.600  0.5442  0.0633 -0.2624
   72MOL0     O 9375   5.474   0.883  10.545 -0.5127  0.3623 -0.0760
   72MOL0     C 9376   5.347   0.880  10.579 -0.2777  0.0139  0.1792
   72MOL0     C 9377   5.302   0.934  10.700  0.1560 -0.4442 -0.1857
   72MOL0     C 9378   5.174   0.893  10.748 -0.1893 -0.6789 -0.5022
   72MOL0     C 9379   5.087   0.813  10.668 -0.4063 -0.8050  0.4191
   72MOL0     O 9380   4.958   0.785  10.702  0.5290  0.0596  1.0028
   72MOL0     C 9381   4.914   0.803  10.838  0.5612 -0.5776 -0.2289
   72MOL0     C 9382   4.773   0.760  10.860  0.1337  0.9889 -0.3942
   72MOL0     C 9383   4.676   0.838  10.780  0.4011  0.0593 -0.5513
   72MOL0     C 9384   4.548   0.756  10.768  0.0644  0.2347  0.3463
   72MOL0     C 9385   4.412   0.846  10.736 -0.5128 -0.1720  0.4925
   72MOL0     C 9386   4.300   0.745  10.704  0.3200 -0.0556  0.0283
   72MOL0     C 9387   4.178   0.805  10.644 -0.0944 -0.8448  0.1526
   72MOL0     C 9388   4.058   0.711  10.614 -0.3773  0.8793 -0.1784
   72MOL0     N 9389   3.935   0.758  10.663 -0.1788 -0.0888 -0.2108
   72MOL0     C 9390   3.874   0.867  10.614  0.2221 -0.1630 -0.3296
   72MOL0     C 9391   3.764   0.876  10.699  0.5684 -0.3757 -0.0038
   72MOL0     C 9392   3.659   0.988  10.699  0.7159 -0.5835 -0.3561
   72MOL0     C 9393   3.511   0.929  10.712  0.0998 -0.7380  0.8943
   72MOL0     C 9394   3.467   0.855  10.582 -0.1895  0.1505 -0.3256
   72MOL0     C 9395   3.344   0.778  10.619  0.4679 -0.5695 -0.7327
   72MOL0     O 9396   3.280   0.724  10.505 -0.4976  0.2073  0.0555
   72MOL0     C 9397   3.171   0.641  10.528 -0.2183  1.0781  0.3308
   72MOL0     C 9398   3.120   0.575  10.413 -1.4841 -0.0090 -1.0201
   72MOL0     C 9399   2.996   0.507  10.421  0.2072 -0.2831  0.5791
   72MOL0     C 9400   2.924   0.510  10.544 -0.3564  0.0854  1.0192
   72MOL0     C 9401   2.785   0.453  10.558  0.0068  0.2556  0.1954
   72MOL0     O 9402   2.750   0.374  10.455  0.4608 -0.1965  0.5233
   72MOL0     C 9403   2.636   0.298  10.456  0.3923 -0.0473 -0.0598
   72MOL0     C 9404   2.632   0.187  10.538 -0.2622 -0.5151  0.2227
   72MOL0     C 9405   2.512   0.119  10.548 -0.0909  0.4831  0.0657
   72MOL0     C 9406   2.398   0.150  10.472 -0.4150 -0.6929 -0.2043
   72MOL0     O 9407   2.286   0.075  10.490  0.0788 -0.4284  0.0957
   72MOL0     C 9408   2.167   0.101  10.410 -0.0725 -0.4508  0.5970
   72MOL0     C 9409   2.059   0.015  10.487 -0.3566 -0.0339  1.1637
   72MOL0     C 9410   1.927   0.028  10.414  0.6047 -0.5485  0.6190
   72MOL0     C 9411   1.808  -0.031  10.485  0.0100  0.4110  0.8924
   72MOL0     C 9412   1.676  -0.008  10.416  0.0002 -0.2867 -0.0458
   72MOL0     C 9413   1.639   0.137  10.424 -0.5908  0.1681  0.6593
   72MOL0     C 9414   1.491   0.163  10.415  0.3491 -0.0681 -0.2170
   72MOL0     C 9415   1.464   0.317  10.398 -0.3605 -0.2368  0.0663
   72MOL0    Cl 9416   1.522   0.380  10.243  0.1272  0.5345 -0.3065
   72MOL0     C 9417   2.400   0.264  10.389  0.3813 -0.1908  0.6936
   72MOL0     C 9418   2.515   0.334  10.384 -1.0622 -0.9086 -0.8798
   72MOL0     O 9419   2.719   0.479  10.660  0.0753  0.0844  0.2145
   72MOL0     C 9420   2.986   0.562  10.654 -0.2586  0.7487  0.0457
   72MOL0     C 9421   3.101   0.622  10.646 -0.0193  0.0268 -0.4880
   72MOL0     N 9422   3.762   0.771  10.787  0.2955  0.1387  0.4720
   72MOL0     N 9423   3.870   0.706  10.768  0.6061 -0.2516  0.7055
   72MOL0     C 9424   5.134   0.776  10.543  0.8886  0.3749 -0.3192
   72MOL0     C 9425   5.257   0.808  10.494  0.2555 -0.2913  0.2125
   72MOL0     C 9426   5.705   0.808  10.584 -0.2411 -0.5050 -0.1044
   72MOL0     C 9427   5.805   0.750  10.661  1.3649  0.1580  0.0051
   72MOL0     C 9428   5.941   0.784  10.648  0.9229  0.0217  0.7786
   72MOL0     C 9429   5.990   0.869  10.541  0.7361 -0.1689  0.0456
   72MOL0     O 9430   6.124   0.898  10.529  0.5136  0.1516  0.0828
   72MOL0     C 9431   6.176   0.882  10.396  0.2417 -1.1326  0.1998
   72MOL0     C 9432   6.180   0.733  10.351 -0.1594 -0.0911 -0.3481
   72MOL0     C 9433   6.262   0.635  10.447  0.0793  0.2067 -0.3241
   72MOL0     C 9434   6.266   0.491  10.404  0.1134  0.0842  0.0741
   72MOL0     C 9435   6.155   0.409  10.448  0.2583 -0.0822  0.8514
   72MOL0     C 9436   6.068   0.336  10.491 -0.2378 -0.4044 -0.1552
   72MOL0     C 9437   5.888   0.924  10.461  1.0024 -0.9378 -0.0925
   72MOL0     C 9438   5.750   0.897  10.487 -0.4513 -0.0820 -0.2254
   72MOL0     H 9439   5.361   1.005  10.757 -0.7216  0.3971 -0.3061
   72MOL0     H 9440   5.146   0.933  10.845  0.7046 -3.0757  0.8301
   72MOL0     H 9441   4.925   0.909  10.860  0.6102 -0.4512 -0.8472
   72MOL0     H 9442   4.972   0.736  10.902  2.2014 -0.7228 -1.8099
   72MOL0     H 9443   4.751   0.767  10.967  3.9145 -3.8440  1.0245
   72MOL0     H 9444   4.770   0.656  10.826 -0.2064  0.5084  1.0585
   72MOL0     H 9445   4.717   0.855  10.680 -0.7079 -0.3256 -1.0814
   72MOL0     H 9446   4.656   0.934  10.830  2.2649 -0.2350  0.8542
   72MOL0     H 9447   4.561   0.683  10.687  0.4459  3.1310 -2.3944
   72MOL0     H 9448   4.533   0.704  10.864 -2.4385  5.1475  2.9652
   72MOL0     H 9449   4.439   0.910  10.651 -0.1834  0.4061  1.0275
   72MOL0     H 9450   4.391   0.911  10.822  0.2046  1.1356 -0.2835
   72MOL0     H 9451   4.268   0.703  10.800  0.8754  0.6592  0.5435
   72MOL0     H 9452   4.349   0.678  10.633 -0.3118  1.7384 -2.1980
   72MOL0     H 9453   4.140   0.885  10.709  0.9892  0.8337 -1.1926
   72MOL0     H 9454   4.215   0.841  10.548  1.8971  1.0525  1.5101
   72MOL0     H 9455   4.079   0.612  10.655  1.9993  1.2439 -0.3682
   72MOL0     H 9456   4.049   0.692  10.506  1.7724 -1.8436  0.0056
   72MOL0     H 9457   3.906   0.935  10.536 -0.2035  0.6662  0.2057
   72MOL0     H 9458   3.666   1.047  10.607 -0.5839 -2.6893 -1.9011
   72MOL0     H 9459   3.683   1.062  10.776 -0.5192  0.2118 -0.7051
   72MOL0     H 9460   3.448   1.016  10.735  1.0259 -0.1864  1.4301
   72MOL0     H 9461   3.500   0.878  10.808  0.1845 -1.7623  0.3664
   72MOL0     H 9462   3.456   0.924  10.498  2.0165 -1.5075 -2.1017
   72MOL0     H 9463   3.547   0.792  10.541 -0.9253 -0.9632 -0.1118
   72MOL0     H 9464   3.270   0.843  10.666  2.1545  0.6614  0.3128
   72MOL0     H 9465   3.368   0.698  10.689 -0.2331  0.6391  0.9363
   72MOL0     H 9466   3.157   0.568  10.311 -2.7141 -1.3774 -1.4025
   72MOL0     H 9467   2.942   0.469  10.335  0.2683  3.3206 -1.2266
   72MOL0     H 9468   2.712   0.158  10.606 -1.6711 -1.9516  1.3417
   72MOL0     H 9469   2.496   0.034  10.613  0.0733  0.1125 -0.3676
   72MOL0     H 9470   2.194   0.064  10.311  2.4646  0.4937  0.8701
   72MOL0     H 9471   2.137   0.205  10.401 -1.7324 -1.0128 -0.8953
   72MOL0     H 9472   2.044   0.044  10.592 -0.7896 -1.8791  1.6507
   72MOL0     H 9473   2.092  -0.090  10.489  1.3202  0.3886 -0.8442
   72MOL0     H 9474   1.928  -0.008  10.311 -2.4679  0.7111  0.0470
   72MOL0     H 9475   1.913   0.137  10.415  0.3088 -0.4809 -2.5819
   72MOL0     H 9476   1.829  -0.138  10.482 -3.7066 -0.4545 -0.1993
   72MOL0     H 9477   1.805  -0.008  10.592  0.4193 -0.2972  1.0628
   72MOL0     H 9478   1.598  -0.056  10.476  0.1835  0.7112  1.0415
   72MOL0     H 9479   1.673  -0.048  10.315 -0.5633 -0.9295  0.2160
   72MOL0     H 9480   1.687   0.186  10.338 -2.6340  0.1229 -0.5562
   72MOL0     H 9481   1.674   0.188  10.514  2.5589  0.7343 -0.7361
   72MOL0     H 9482   1.461   0.110  10.324 -1.3292  0.5665 -0.0763
   72MOL0     H 9483   1.438   0.119  10.500 -1.6603  0.4501 -1.1450
   72MOL0     H 9484   1.512   0.369  10.482  1.4254 -0.7069 -0.6349
   72MOL0     H 9485   1.356   0.330  10.412 -0.9222  1.9482 -4.6125
   72MOL0     H 9486   2.310   0.295  10.337 -0.4919 -1.6182  1.3007
   72MOL0     H 9487   2.511   0.426  10.328 -1.2102  1.5570  2.8131
   72MOL0     H 9488   2.927   0.571  10.745 -0.7693 -3.1951  0.3059
   72MOL0     H 9489   3.128   0.673  10.738 -1.5203  0.4150 -0.2320
   72MOL0     H 9490   5.060   0.722  10.485 -0.3025 -0.0145  1.4936
   72MOL0     H 9491   5.280   0.777  10.393 -0.1674 -1.4219  0.4521
   72MOL0     H 9492   5.757   0.683  10.732 -2.6053  1.4740 -1.1785
   72MOL0     H 9493   6.016   0.730  10.705  0.2265 -1.9606 -0.0950
   72MOL0     H 9494   6.276   0.926  10.397 -1.1134  2.2531  0.5497
   72MOL0     H 9495   6.121   0.932  10.316  1.8440 -2.2416 -1.6879
   72MOL0     H 9496   6.075   0.700  10.343 -1.0078  1.6024  2.5130
   72MOL0     H 9497   6.228   0.734  10.252 -1.3242  1.2795 -0.9331
   72MOL0     H 9498   6.212   0.633  10.545  0.2652  1.1045 -0.1933
   72MOL0     H 9499   6.365   0.673  10.453 -0.0403  0.4495  0.4350
   72MOL0     H 9500   6.277   0.486  10.295  1.4014 -6.0861  0.0859
   72MOL0     H 9501   6.354   0.443  10.447  0.7489 -0.3094 -1.5826
   72MOL0     H 9502   5.984   0.290  10.539 -0.4544 -1.4592 -1.4810
   72MOL0     H 9503   5.912   0.999  10.386  2.1594  0.7941  1.8866
   72MOL0     H 9504   5.683   0.952  10.421 -3.0154 -2.0442  0.5955
   73MOL0     O 9505   9.073   9.559   5.082 -0.0619  0.1101  0.5083
   73MOL0     C 9506   9.023   9.634   5.161  0.4446  0.4764 -0.8462
   73MOL0     O 9507   8.891   9.654   5.170  0.4698 -0.7377 -0.2762
   73MOL0     C 9508   8.799   9.609   5.086 -0.4439  0.3160  0.5253
   73MOL0     C 9509   8.716   9.700   5.011 -0.5253 -1.3020  0.1939
   73MOL0     C 9510   8.637   9.651   4.914 -0.3293  0.1266 -0.0283
   73MOL0     C 9511   8.624   9.511   4.890 -0.1130  0.2832 -0.1103
   73MOL0     O 9512   8.536   9.480   4.784 -0.6504 -0.1621 -0.8887
   73MOL0     C 9513   8.530   9.346   4.739 -0.2107  0.4009 -0.2738
   73MOL0     C 9514   8.436   9.331   4.622  0.7105  0.4649  0.3351
   73MOL0     C 9515   8.291   9.381   4.658 -0.1550 -0.3581 -0.3080
   73MOL0     C 9516   8.196   9.325   4.545 -0.0225  0.0421  0.2072
   73MOL0     C 9517   8.049   9.376   4.540 -0.5792  0.9312  0.3091
   73MOL0     C 9518   7.976   9.331   4.666 -0.6929  0.2177 -0.4707
   73MOL0     C 9519   7.830   9.355   4.668  0.2914  0.1425 -0.2262
   73MOL0     C 9520   7.750   9.227   4.636  0.9803  0.1197  0.8611
   73MOL0     N 9521   7.616   9.265   4.588 -0.5635 -0.2107  0.4018
   73MOL0     C 9522   7.521   9.323   4.664  0.2446 -0.1840  0.6665
   73MOL0     C 9523   7.421   9.365   4.578  1.3228  0.8779 -0.4864
   73MOL0     C 9524   7.283   9.417   4.616  0.0440  0.5948 -0.8886
   73MOL0     C 9525   7.181   9.305   4.633 -0.7807  0.3140 -0.2189
   73MOL0     C 9526   7.054   9.378   4.671  0.8628 -0.9256  0.4680
   73MOL0     C 9527   6.938   9.289   4.723  0.4408  0.0749  0.2426
   73MOL0     O 9528   6.917   9.179   4.637  0.2461 -0.6050 -0.8397
   73MOL0     C 9529   6.786   9.144   4.606 -1.2534 -0.4268  0.0950
   73MOL0     C 9530   6.765   9.048   4.507  0.6799  0.4579 -0.0636
   73MOL0     C 9531   6.634   9.008   4.476 -0.9530 -0.0094 -0.0352
   73MOL0     C 9532   6.522   9.067   4.545  0.2583 -0.3893  0.4426
   73MOL0     C 9533   6.386   9.031   4.509 -0.1950 -0.1294  0.3112
   73MOL0     O 9534   6.296   9.113   4.553 -0.4220 -0.0412 -0.0414
   73MOL0     C 9535   6.166   9.100   4.526 -0.0351 -0.0990 -0.1432
   73MOL0     C 9536   6.077   9.133   4.627 -0.5186 -0.1019  0.1042
   73MOL0     C 9537   5.947   9.155   4.601 -0.1089  0.7245 -0.3556
   73MOL0     C 9538   5.899   9.129   4.470 -0.0495  0.5749 -0.3638
   73MOL0     O 9539   5.766   9.158   4.446  0.1991  0.1807 -0.5249
   73MOL0     C 9540   5.690   9.046   4.391  0.2119 -0.2582 -0.2997
   73MOL0     C 9541   5.535   9.059   4.381 -0.3675  0.3655  0.2785
   73MOL0     C 9542   5.457   9.059   4.519  0.5561 -0.3095 -0.3195
   73MOL0     C 9543   5.485   9.187   4.610 -0.0844  0.2538  0.9849
   73MOL0     C 9544   5.378   9.182   4.718  1.0270  0.1056  0.4924
   73MOL0     C 9545   5.254   9.255   4.650 -0.0960 -0.1323  0.2527
   73MOL0     C 9546   5.154   9.253   4.768  0.6110 -0.2349  0.1034
   73MOL0     C 9547   5.010   9.280   4.716 -1.0819  0.2800 -0.5730
   73MOL0    Cl 9548   4.980   9.442   4.673  0.8510  0.2825  0.0941
   73MOL0     C 9549   5.987   9.083   4.370  0.3544  0.4514  0.2196
   73MOL0     C 9550   6.124   9.081   4.395  0.3370 -0.6967 -0.3330
   73MOL0     O 9551   6.357   8.926   4.456 -0.5984 -0.2233  0.1436
   73MOL0     C 9552   6.543   9.162   4.647 -0.0481 -0.5091  0.6833
   73MOL0     C 9553   6.675   9.204   4.678  0.2043  0.4695 -0.7453
   73MOL0     N 9554   7.469   9.336   4.454 -0.5446  0.5980 -0.3067
   73MOL0     N 9555   7.578   9.263   4.460 -0.6342 -0.4327  0.0415
   73MOL0     C 9556   8.701   9.424   4.972  0.2030 -0.0956  0.1491
   73MOL0     C 9557   8.791   9.468   5.067 -0.7500 -0.0819 -0.0045
   73MOL0     C 9558   9.124   9.693   5.249  0.7709 -0.0356  0.4666
   73MOL0     C 9559   9.248   9.630   5.277 -0.3781 -0.7342 -1.0623
   73MOL0     C 9560   9.337   9.685   5.365 -0.4639  1.0854 -0.8385
   73MOL0     C 9561   9.310   9.809   5.423 -0.1959 -0.8460  0.3879
   73MOL0     O 9562   9.408   9.857   5.507  0.5974  0.3784  0.6141
   73MOL0     C 9563   9.392   9.998   5.555  1.1468  1.5897 -0.0978
   73MOL0     C 9564   9.492  10.023   5.668  0.0214  0.8621  0.1617
   73MOL0     C 9565   9.647  10.025   5.624 -0.0552  0.2467  0.8393
   73MOL0     C 9566   9.714   9.891   5.661  0.0170  0.6434 -0.8322
   73MOL0     C 9567   9.855   9.905   5.625 -0.2301 -0.5096  0.4061
   73MOL0     C 9568   9.969   9.924   5.578  0.4561  0.2760 -0.8036
   73MOL0     C 9569   9.194   9.879   5.397 -0.9970  0.9159 -0.3175
   73MOL0     C 9570   9.102   9.815   5.307 -0.3891  0.0185 -0.2030
   73MOL0     H 9571   8.709   9.807   5.029 -0.6575 -1.3739  0.5713
   73MOL0     H 9572   8.579   9.729   4.866 -0.1894  0.0001 -0.4082
   73MOL0     H 9573   8.504   9.277   4.819 -1.5424  1.9647  0.7051
   73MOL0     H 9574   8.628   9.312   4.702  0.8765 -0.1768  2.8600
   73MOL0     H 9575   8.428   9.223   4.612  1.7281  0.4812 -0.7139
   73MOL0     H 9576   8.466   9.381   4.530 -0.3099 -0.4586 -0.5214
   73MOL0     H 9577   8.283   9.490   4.653 -2.7523 -0.4608  0.1468
   73MOL0     H 9578   8.259   9.337   4.753  1.0820 -0.4744  0.0667
   73MOL0     H 9579   8.231   9.354   4.445 -1.8775  0.9176 -0.2238
   73MOL0     H 9580   8.203   9.216   4.546  1.4801  0.1116  1.6466
   73MOL0     H 9581   8.009   9.350   4.441  4.6098  0.2420 -1.9455
   73MOL0     H 9582   8.051   9.485   4.536 -1.3549  0.9195 -1.7978
   73MOL0     H 9583   8.011   9.387   4.754  1.7010  0.1499 -1.3193
   73MOL0     H 9584   7.979   9.223   4.682 -0.9118  0.5870  2.8213
   73MOL0     H 9585   7.798   9.401   4.762 -0.4933 -0.4326 -0.1944
   73MOL0     H 9586   7.807   9.418   4.582 -1.6364 -0.9220 -0.5515
   73MOL0     H 9587   7.744   9.171   4.729  0.9550  3.2014  2.8307
   73MOL0     H 9588   7.799   9.172   4.555 -0.9890  0.6981 -0.8078
   73MOL0     H 9589   7.510   9.322   4.772 -1.1238  0.1031  0.5547
   73MOL0     H 9590   7.258   9.489   4.537  2.4386  2.5582  0.0029
   73MOL0     H 9591   7.284   9.476   4.708  0.6462  0.5253 -0.8448
   73MOL0     H 9592   7.230   9.242   4.707  2.2590  0.3209 -2.0817
   73MOL0     H 9593   7.165   9.256   4.537 -0.1994  0.6416 -0.4868
   73MOL0     H 9594   7.067   9.465   4.735 -2.2843  1.8656 -2.2879
   73MOL0     H 9595   7.016   9.416   4.576  1.7412 -1.0878  0.0410
   73MOL0     H 9596   6.855   9.360   4.731 -1.7662 -2.2810 -0.4476
   73MOL0     H 9597   6.953   9.247   4.823  0.4406 -0.7350 -0.0858
   73MOL0     H 9598   6.845   9.015   4.441  0.1832  1.3479 -1.1403
   73MOL0     H 9599   6.625   8.933   4.398 -0.1776  0.8143 -0.9456
   73MOL0     H 9600   6.117   9.149   4.727  1.8278 -0.9708 -0.6271
   73MOL0     H 9601   5.887   9.182   4.688 -2.6802 -1.0932 -1.4537
   73MOL0     H 9602   5.705   8.960   4.457 -0.1611  0.8600  1.3217
   73MOL0     H 9603   5.720   9.023   4.288 -2.2838  0.9452 -1.3640
   73MOL0     H 9604   5.496   8.974   4.325  0.0628  0.2187  0.1968
   73MOL0     H 9605   5.520   9.153   4.327 -0.4054  0.4202  0.3833
   73MOL0     H 9606   5.484   8.971   4.579 -0.4145  0.2811  1.0376
   73MOL0     H 9607   5.351   9.048   4.495 -0.0004  0.9466  1.3768
   73MOL0     H 9608   5.581   9.181   4.661  0.4909 -3.6560 -0.2672
   73MOL0     H 9609   5.465   9.280   4.554  0.7942  1.1757  2.1566
   73MOL0     H 9610   5.408   9.235   4.808 -1.7696 -0.4231  1.8312
   73MOL0     H 9611   5.355   9.075   4.726  2.6601 -0.7156 -3.2661
   73MOL0     H 9612   5.212   9.197   4.567  0.1214  1.4044 -0.9831
   73MOL0     H 9613   5.261   9.358   4.613  1.3036  0.3809  1.8394
   73MOL0     H 9614   5.154   9.154   4.814  2.5932 -1.2127 -1.8043
   73MOL0     H 9615   5.172   9.333   4.840 -1.2419  0.5031 -0.2115
   73MOL0     H 9616   4.944   9.258   4.800 -2.5649  2.0138 -1.2205
   73MOL0     H 9617   4.982   9.220   4.629 -0.5594  0.4073 -0.8370
   73MOL0     H 9618   5.947   9.061   4.271 -1.6673  2.2413  0.5599
   73MOL0     H 9619   6.196   9.071   4.314  1.7529 -0.9043  0.9081
   73MOL0     H 9620   6.456   9.215   4.683 -0.4217  0.8002 -1.9196
   73MOL0     H 9621   6.674   9.272   4.762 -1.2622 -0.0036 -0.3485
   73MOL0     H 9622   8.696   9.315   4.965 -1.2301 -0.1561  1.4618
   73MOL0     H 9623   8.857   9.401   5.120 -0.4358  0.0711 -0.1972
   73MOL0     H 9624   9.271   9.535   5.229 -1.0055 -0.3692 -2.0968
   73MOL0     H 9625   9.437   9.644   5.373 -0.9085  0.0772 -0.2668
   73MOL0     H 9626   9.294  10.025   5.596  0.4829 -2.8681  1.7467
   73MOL0     H 9627   9.417  10.066   5.472 -0.2872  2.9290  0.5062
   73MOL0     H 9628   9.472  10.119   5.716  0.0717  0.5923  0.7357
   73MOL0     H 9629   9.475   9.953   5.751 -1.5066  2.1652  0.9971
   73MOL0     H 9630   9.702  10.105   5.673  0.7382 -0.3031  0.8564
   73MOL0     H 9631   9.664  10.050   5.519  0.8276 -3.0609  0.0645
   73MOL0     H 9632   9.709   9.875   5.769  1.2613 -0.0687 -0.8592
   73MOL0     H 9633   9.670   9.807   5.604  3.2460 -0.0082 -2.5925
   73MOL0     H 9634  10.067   9.932   5.535  0.4938  0.6727 -0.6394
   73MOL0     H 9635   9.159   9.973   5.440 -0.7903  0.1759  1.5616
   73MOL0     H 9636   9.019   9.882   5.289 -0.6939 -0.4637 -0.6259
   74MOL0     O 9637   8.569   5.996   2.562  0.0003  0.4153  0.2112
   74MOL0     C 9638   8.604   5.883   2.534  0.0284  0.1596 -0.0792
   74MOL0     O 9639   8.523   5.778   2.517 -0.2645  0.6262 -0.9024
   74MOL0     C 9640   8.388   5.778   2.532  0.7809  0.1330  0.0432
   74MOL0     C 9641   8.329   5.653   2.533 -0.5365  0.1940 -0.0977
   74MOL0     C 9642   8.186   5.636   2.546 -0.0396 -0.5504 -0.3933
   74MOL0     C 9643   8.104   5.745   2.559 -0.0220 -0.0538 -0.7690
   74MOL0     O 9644   7.971   5.724   2.583  0.0281 -0.6398 -0.2321
   74MOL0     C 9645   7.890   5.834   2.615 -0.0833 -0.0200 -0.0018
   74MOL0     C 9646   7.740   5.803   2.632  0.3470 -0.1653 -0.4656
   74MOL0     C 9647   7.697   5.750   2.767  0.7217  0.9383  0.1662
   74MOL0     C 9648   7.561   5.785   2.821  0.4511 -0.1781 -0.9547
   74MOL0     C 9649   7.550   5.755   2.969  0.9661  0.2823 -0.5640
   74MOL0     C 9650   7.437   5.833   3.021  0.2434 -0.6945  0.2272
   74MOL0     C 9651   7.426   5.821   3.177 -0.2180 -0.4496  0.9918
   74MOL0     C 9652   7.313   5.907   3.229  0.7450  0.0253  0.3016
   74MOL0     N 9653   7.184   5.849   3.168 -0.3352  0.9087 -0.2758
   74MOL0     C 9654   7.128   5.903   3.053 -0.1717  0.0275 -0.8235
   74MOL0     C 9655   7.024   5.821   3.019  0.5553 -0.4053 -0.6603
   74MOL0     C 9656   6.950   5.836   2.888 -1.3491 -0.6854  0.5503
   74MOL0     C 9657   6.798   5.841   2.915  0.4996  0.1854  0.1829
   74MOL0     C 9658   6.717   5.810   2.793 -0.4676  0.5137  0.0972
   74MOL0     C 9659   6.575   5.855   2.798  0.5603 -0.3288  0.4033
   74MOL0     O 9660   6.561   5.996   2.803 -0.1358  0.4642 -0.4311
   74MOL0     C 9661   6.432   6.038   2.827  0.6571 -0.0337 -0.0165
   74MOL0     C 9662   6.412   6.177   2.834 -0.4875  0.1413 -0.5867
   74MOL0     C 9663   6.295   6.233   2.870 -0.0170 -0.0976 -0.0697
   74MOL0     C 9664   6.191   6.149   2.914 -0.6935 -0.4587 -0.3327
   74MOL0     C 9665   6.061   6.206   2.966  0.1478 -0.1519 -1.0175
   74MOL0     O 9666   5.959   6.123   2.995  0.4099 -0.1539  0.0742
   74MOL0     C 9667   5.831   6.176   2.989  0.1363 -0.1747  0.4745
   74MOL0     C 9668   5.734   6.086   3.044  0.0867 -0.0742  0.2039
   74MOL0     C 9669   5.596   6.114   3.041  0.0773  0.5444  0.0285
   74MOL0     C 9670   5.553   6.236   2.990  0.1487  0.1498  0.5258
   74MOL0     O 9671   5.421   6.277   2.982 -0.4223 -0.0592 -0.7432
   74MOL0     C 9672   5.323   6.190   3.044 -0.1005 -0.2947 -0.1977
   74MOL0     C 9673   5.195   6.262   3.023  0.6126 -0.4421  0.9713
   74MOL0     C 9674   5.061   6.194   3.075  0.4530  0.9481  0.1443
   74MOL0     C 9675   4.939   6.278   3.051 -0.9303  0.6191  0.1312
   74MOL0     C 9676   4.810   6.197   3.054 -0.0897  0.3637 -0.2036
   74MOL0     C 9677   4.687   6.276   3.094 -0.4176 -0.4276 -0.7233
   74MOL0     C 9678   4.665   6.384   2.986 -0.0637 -0.4424  0.1650
   74MOL0     C 9679   4.524   6.450   3.010 -0.5737 -0.3570 -0.5375
   74MOL0    Cl 9680   4.499   6.590   2.907  0.7223  0.0419 -0.2741
   74MOL0     C 9681   5.643   6.325   2.931 -0.0120 -0.0105 -0.2587
   74MOL0     C 9682   5.785   6.295   2.930 -0.5377  1.2060  0.1098
   74MOL0     O 9683   6.061   6.328   2.970 -0.2304 -0.3647  0.2933
   74MOL0     C 9684   6.209   6.007   2.909  0.3924  0.2066  0.1530
   74MOL0     C 9685   6.323   5.953   2.867 -0.1190 -1.0097 -0.5529
   74MOL0     N 9686   7.030   5.713   3.108 -0.2728  0.4974  0.1856
   74MOL0     N 9687   7.119   5.728   3.198 -0.6979  0.2172  0.7628
   74MOL0     C 9688   8.170   5.872   2.566  0.2194  0.2143  0.7780
   74MOL0     C 9689   8.308   5.896   2.549  0.3441 -0.4588  0.0369
   74MOL0     C 9690   8.752   5.857   2.522  0.1174 -0.2271  0.1850
   74MOL0     C 9691   8.803   5.727   2.495 -0.9603 -0.9451  0.1519
   74MOL0     C 9692   8.943   5.710   2.469 -0.1088 -0.5831 -0.8366
   74MOL0     C 9693   9.037   5.813   2.471  0.0413 -0.3788  0.1261
   74MOL0     O 9694   9.172   5.790   2.459  0.2805  0.1992 -0.5446
   74MOL0     C 9695   9.219   5.755   2.328 -0.4039 -0.4235 -0.5751
   74MOL0     C 9696   9.336   5.652   2.329  0.4101  0.0679 -0.1471
   74MOL0     C 9697   9.478   5.715   2.334  0.0370  0.9897  0.0900
   74MOL0     C 9698   9.519   5.723   2.483 -0.5803 -0.1314  0.1023
   74MOL0     C 9699   9.636   5.807   2.507  0.3041  0.4837 -0.3151
   74MOL0     C 9700   9.728   5.882   2.538 -0.3934  0.5707 -0.0650
   74MOL0     C 9701   8.981   5.939   2.510  0.9150 -0.1028  0.7391
   74MOL0     C 9702   8.843   5.959   2.532  0.0680 -0.6604  0.0954
   74MOL0     H 9703   8.393   5.566   2.533  0.2110  0.7358 -0.3151
   74MOL0     H 9704   8.148   5.535   2.534 -0.1773 -0.5005 -0.3839
   74MOL0     H 9705   7.920   5.915   2.548  4.1838 -0.2389  1.3810
   74MOL0     H 9706   7.931   5.873   2.708  0.2589  1.3533 -0.7115
   74MOL0     H 9707   7.714   5.742   2.545  1.6131  1.6672 -2.2143
   74MOL0     H 9708   7.676   5.892   2.624  2.4603  1.4267 -0.4533
   74MOL0     H 9709   7.771   5.793   2.835  1.5101  0.8219 -0.5899
   74MOL0     H 9710   7.707   5.641   2.777 -2.4931  0.4729 -0.5449
   74MOL0     H 9711   7.545   5.892   2.810  0.8283  0.1329  1.0500
   74MOL0     H 9712   7.488   5.728   2.763 -0.2200 -1.4884  1.0645
   74MOL0     H 9713   7.641   5.786   3.020  0.7520 -0.4568  0.3124
   74MOL0     H 9714   7.546   5.646   2.983 -0.7567 -0.1791 -3.6584
   74MOL0     H 9715   7.346   5.799   2.970  2.2302 -3.6310 -1.6546
   74MOL0     H 9716   7.456   5.938   3.001  0.3294 -1.0949 -2.0661
   74MOL0     H 9717   7.416   5.721   3.218  2.3136 -0.7391  1.0468
   74MOL0     H 9718   7.514   5.876   3.213  0.4613  0.3029 -1.5895
   74MOL0     H 9719   7.316   6.013   3.203 -1.2816  1.0805  3.7043
   74MOL0     H 9720   7.302   5.905   3.338 -2.0328 -1.6033  0.0914
   74MOL0     H 9721   7.151   6.001   3.012  2.2204  0.3140  0.9777
   74MOL0     H 9722   6.981   5.752   2.825  0.0128  0.5750 -0.5347
   74MOL0     H 9723   6.979   5.927   2.835  0.3634 -2.4458 -1.7341
   74MOL0     H 9724   6.767   5.940   2.949 -2.9752 -0.8510  0.3294
   74MOL0     H 9725   6.772   5.770   2.995  0.4142 -2.3606 -1.9517
   74MOL0     H 9726   6.770   5.864   2.714  0.3337 -2.1635 -1.3461
   74MOL0     H 9727   6.730   5.707   2.757 -3.3933  0.5316 -1.2397
   74MOL0     H 9728   6.538   5.814   2.893 -0.4821 -0.0744  0.1169
   74MOL0     H 9729   6.522   5.814   2.711 -0.4516  0.9842  0.3755
   74MOL0     H 9730   6.487   6.237   2.785 -0.4835 -1.4221 -2.6437
   74MOL0     H 9731   6.286   6.341   2.859  1.5966  0.1825  1.0563
   74MOL0     H 9732   5.765   5.993   3.092 -0.7198  0.5257  2.0014
   74MOL0     H 9733   5.530   6.036   3.078  1.2565 -1.1267 -1.2110
   74MOL0     H 9734   5.350   6.180   3.149 -1.4126  0.8809  0.2832
   74MOL0     H 9735   5.314   6.091   2.998 -2.8420  0.7500 -2.1831
   74MOL0     H 9736   5.182   6.264   2.914  4.8079 -2.8548  0.1961
   74MOL0     H 9737   5.200   6.362   3.067 -2.1972  1.2991 -2.1965
   74MOL0     H 9738   5.068   6.173   3.182 -1.9808  1.1096  0.3764
   74MOL0     H 9739   5.047   6.097   3.025 -0.3533  0.5735  1.0847
   74MOL0     H 9740   4.948   6.344   3.138 -0.3514 -0.4923  0.9457
   74MOL0     H 9741   4.946   6.335   2.958 -0.0206 -1.0260 -0.8537
   74MOL0     H 9742   4.823   6.127   3.137 -1.4744 -0.1751 -0.4288
   74MOL0     H 9743   4.798   6.146   2.957 -0.7338  0.7683 -0.3357
   74MOL0     H 9744   4.705   6.305   3.198  1.8947 -1.8952 -0.6313
   74MOL0     H 9745   4.605   6.204   3.099  1.9140 -3.2421  0.9027
   74MOL0     H 9746   4.734   6.468   2.988 -1.8995  1.1811 -0.7376
   74MOL0     H 9747   4.664   6.333   2.889  0.5327 -0.4727  0.1733
   74MOL0     H 9748   4.524   6.473   3.117 -0.7383 -2.0797 -0.1420
   74MOL0     H 9749   4.440   6.383   2.992  1.2018 -2.2261 -2.4947
   74MOL0     H 9750   5.620   6.421   2.885  2.0296  1.6395  1.8926
   74MOL0     H 9751   5.848   6.374   2.890  2.3390  0.3338  2.5573
   74MOL0     H 9752   6.131   5.935   2.931  1.4284 -0.4969  1.7423
   74MOL0     H 9753   6.328   5.845   2.868  2.0972 -0.9650  0.3723
   74MOL0     H 9754   8.117   5.964   2.589 -0.0621 -0.2332  2.0528
   74MOL0     H 9755   8.345   5.998   2.554 -2.4395  0.6469  0.0600
   74MOL0     H 9756   8.729   5.649   2.506  0.2129 -1.7650  3.4993
   74MOL0     H 9757   8.965   5.611   2.428 -0.3525 -1.1828  0.4254
   74MOL0     H 9758   9.253   5.849   2.284  0.9371 -1.9479 -3.0536
   74MOL0     H 9759   9.132   5.723   2.270 -2.0967  0.1920  1.4861
   74MOL0     H 9760   9.338   5.580   2.411 -1.8292 -0.7787 -0.7778
   74MOL0     H 9761   9.329   5.602   2.232 -1.5826  0.7479 -0.3948
   74MOL0     H 9762   9.486   5.816   2.291  1.2777  1.0743  0.4768
   74MOL0     H 9763   9.547   5.646   2.285 -0.8373  0.6000 -0.6033
   74MOL0     H 9764   9.435   5.757   2.544  0.8171  3.3387  0.3297
   74MOL0     H 9765   9.551   5.625   2.519 -3.0714 -1.6381 -1.4691
   74MOL0     H 9766   9.809   5.952   2.544 -0.2618  0.3264  1.3577
   74MOL0     H 9767   9.056   6.017   2.507  0.9598 -0.1681 -1.2498
   74MOL0     H 9768   8.815   6.060   2.559  0.0173 -0.2487 -1.4376
   75MOL0     O 9769   8.726   8.002   7.711 -0.0913 -0.5669  0.2880
   75MOL0     C 9770   8.820   7.922   7.708  0.7448  0.1941 -1.5622
   75MOL0     O 9771   8.907   7.906   7.606 -0.8190 -0.1193 -0.0639
   75MOL0     C 9772   8.868   7.964   7.485  0.0235  0.3523 -0.9767
   75MOL0     C 9773   8.759   7.912   7.425 -0.0796  0.4841  0.5957
   75MOL0     C 9774   8.706   7.967   7.306  0.7143 -0.5219 -0.5418
   75MOL0     C 9775   8.777   8.071   7.251 -0.0138 -0.9240  1.0667
   75MOL0     O 9776   8.741   8.126   7.131 -0.0969 -0.5105 -0.4184
   75MOL0     C 9777   8.664   8.248   7.146 -0.3942 -0.4571 -0.2362
   75MOL0     C 9778   8.517   8.226   7.159  0.3188  0.4575 -0.0858
   75MOL0     C 9779   8.452   8.163   7.033  0.0244  0.5214 -0.5923
   75MOL0     C 9780   8.306   8.170   7.025  0.9665  0.1592  0.1493
   75MOL0     C 9781   8.233   8.064   6.936 -0.5072  0.1777  0.2363
   75MOL0     C 9782   8.085   8.067   6.941  0.5200  0.1828 -0.1646
   75MOL0     C 9783   8.028   8.014   6.810  0.3013 -0.4512  0.8393
   75MOL0     C 9784   7.874   7.979   6.817 -1.1698 -0.8306 -0.1707
   75MOL0     N 9785   7.784   8.091   6.808 -0.0587 -0.7607  0.0127
   75MOL0     C 9786   7.647   8.104   6.844 -0.0797  0.4127 -0.2129
   75MOL0     C 9787   7.593   8.213   6.788  0.0355 -0.0168 -0.6067
   75MOL0     C 9788   7.459   8.273   6.822  0.3496  0.2412  0.1704
   75MOL0     C 9789   7.324   8.200   6.780 -0.3411 -0.3229  0.0191
   75MOL0     C 9790   7.266   8.266   6.653 -0.3177 -0.6832  0.0886
   75MOL0     C 9791   7.348   8.214   6.530  0.5435 -0.2865  0.8451
   75MOL0     O 9792   7.294   8.231   6.399 -0.0985 -0.3206 -0.7033
   75MOL0     C 9793   7.195   8.152   6.348  0.4277  0.3670 -0.2726
   75MOL0     C 9794   7.120   8.055   6.414  0.4091  0.4541  0.5006
   75MOL0     C 9795   7.020   7.981   6.354 -0.2717  0.2438 -0.0070
   75MOL0     C 9796   6.997   7.993   6.217 -0.3329  0.3494  0.1899
   75MOL0     C 9797   6.905   7.905   6.152 -0.7923 -0.4262  1.0149
   75MOL0     O 9798   6.916   7.892   6.019 -0.4854 -0.1127  0.3857
   75MOL0     C 9799   6.817   7.812   5.953 -0.4032  0.0048  0.8290
   75MOL0     C 9800   6.859   7.682   5.909 -0.3558 -1.2718 -0.3012
   75MOL0     C 9801   6.769   7.594   5.846 -0.0785  0.0869  0.0435
   75MOL0     C 9802   6.636   7.635   5.823 -1.3845  0.1031  1.3377
   75MOL0     O 9803   6.544   7.572   5.750 -0.0123 -0.2113 -0.4466
   75MOL0     C 9804   6.522   7.439   5.793  0.6562  0.5132  0.1897
   75MOL0     C 9805   6.454   7.355   5.679 -0.3949 -0.6167 -0.4397
   75MOL0     C 9806   6.555   7.328   5.564  0.3518  0.2370 -0.4388
   75MOL0     C 9807   6.491   7.237   5.457  0.2951 -0.0143  1.2227
   75MOL0     C 9808   6.595   7.142   5.402  0.8285 -0.0107 -0.1019
   75MOL0     C 9809   6.558   7.090   5.265 -0.3652 -1.3250 -0.4051
   75MOL0     C 9810   6.684   7.016   5.208 -0.7581  0.3508  0.4418
   75MOL0     C 9811   6.732   6.896   5.286  0.3443  0.7853 -0.1072
   75MOL0    Cl 9812   6.601   6.777   5.313  0.1819  0.0349  0.0248
   75MOL0     C 9813   6.609   7.768   5.841  0.3169  0.3806  0.4380
   75MOL0     C 9814   6.692   7.851   5.916 -0.6462 -0.0995  0.3104
   75MOL0     O 9815   6.832   7.841   6.222  0.0329  0.2919  0.6675
   75MOL0     C 9816   7.063   8.093   6.149 -0.7651  1.0078  0.2727
   75MOL0     C 9817   7.165   8.171   6.218  1.0229  0.4426  1.0186
   75MOL0     N 9818   7.695   8.269   6.719  0.6362  0.5644 -0.3811
   75MOL0     N 9819   7.804   8.194   6.724  0.4581  0.0504  0.4804
   75MOL0     C 9820   8.899   8.118   7.303  0.1726  0.6935  0.5001
   75MOL0     C 9821   8.945   8.057   7.419  0.6693 -0.6235  1.0705
   75MOL0     C 9822   8.833   7.825   7.827 -0.5005  0.3348  0.3000
   75MOL0     C 9823   8.738   7.800   7.924  0.6691  0.0530 -0.1957
   75MOL0     C 9824   8.777   7.718   8.031 -0.2874  0.3125 -0.0689
   75MOL0     C 9825   8.907   7.667   8.041  1.1102 -0.1620  0.4888
   75MOL0     O 9826   8.926   7.597   8.159  0.1109  0.3235  0.2187
   75MOL0     C 9827   9.029   7.640   8.247 -0.5821 -0.1719  0.5270
   75MOL0     C 9828   9.039   7.551   8.374 -0.1289 -0.1491 -0.7349
   75MOL0     C 9829   9.047   7.405   8.333  0.2950 -0.7070 -0.5019
   75MOL0     C 9830   9.180   7.359   8.258  0.8061  0.4372 -1.2257
   75MOL0     C 9831   9.209   7.216   8.274 -0.8186  0.0728 -0.0725
   75MOL0     C 9832   9.233   7.097   8.283  0.3366 -0.8965 -0.5043
   75MOL0     C 9833   8.991   7.672   7.939  0.1539 -0.0441  0.2451
   75MOL0     C 9834   8.954   7.751   7.831  0.3353  0.1042 -0.0825
   75MOL0     H 9835   8.695   7.839   7.474  0.8032 -0.6337  0.1213
   75MOL0     H 9836   8.616   7.929   7.258  1.4197 -1.8146 -0.8710
   75MOL0     H 9837   8.670   8.306   7.054 -1.2108  0.3664  0.2028
   75MOL0     H 9838   8.704   8.312   7.226  0.8153  1.4420 -2.2461
   75MOL0     H 9839   8.459   8.316   7.183 -0.2620  0.7012 -2.1467
   75MOL0     H 9840   8.502   8.164   7.247  1.7205 -0.6924 -0.6179
   75MOL0     H 9841   8.494   8.062   7.036  0.5744  0.7662  0.2864
   75MOL0     H 9842   8.490   8.207   6.940  0.2089 -1.6067 -1.5809
   75MOL0     H 9843   8.272   8.154   7.128 -0.1241  2.6231  0.2454
   75MOL0     H 9844   8.271   8.271   7.004  1.4607  0.4672  0.7596
   75MOL0     H 9845   8.262   7.965   6.973  0.8014  0.8424  1.0639
   75MOL0     H 9846   8.273   8.065   6.834 -1.0521 -1.6779 -0.0274
   75MOL0     H 9847   8.047   8.168   6.961  1.1214  0.4903 -0.5418
   75MOL0     H 9848   8.055   7.998   7.019  0.1917  0.1003 -0.3649
   75MOL0     H 9849   8.040   8.084   6.727 -1.1926 -0.4298  0.6060
   75MOL0     H 9850   8.081   7.922   6.786  0.8870 -0.4464  2.0351
   75MOL0     H 9851   7.856   7.932   6.915  0.0287 -0.3134  0.3087
   75MOL0     H 9852   7.849   7.905   6.741 -0.5588 -1.6172  0.3734
   75MOL0     H 9853   7.598   8.043   6.920 -0.1034  2.4605  1.5276
   75MOL0     H 9854   7.453   8.376   6.785  0.8765  0.1272 -0.2358
   75MOL0     H 9855   7.466   8.276   6.931  1.5719 -1.7858  0.1801
   75MOL0     H 9856   7.245   8.225   6.852 -1.2571  1.4395 -1.5089
   75MOL0     H 9857   7.341   8.092   6.777 -0.5258 -0.3348 -0.9738
   75MOL0     H 9858   7.161   8.240   6.640 -0.8054  0.4994  1.3692
   75MOL0     H 9859   7.272   8.375   6.657 -1.3449 -0.5973 -0.4832
   75MOL0     H 9860   7.379   8.112   6.552 -0.5578 -0.6120  0.9239
   75MOL0     H 9861   7.428   8.285   6.507  0.5965 -0.2978  0.9939
   75MOL0     H 9862   7.114   8.041   6.522  1.0592 -0.1004  0.4767
   75MOL0     H 9863   6.964   7.918   6.422 -0.8439 -1.1392 -1.6725
   75MOL0     H 9864   6.965   7.663   5.918 -0.5395 -1.7460  1.1466
   75MOL0     H 9865   6.808   7.502   5.806  0.6569 -0.4301  1.8406
   75MOL0     H 9866   6.460   7.428   5.883  0.0678  1.4019 -0.0894
   75MOL0     H 9867   6.617   7.390   5.815  2.8520  3.5147 -1.8591
   75MOL0     H 9868   6.367   7.406   5.639  0.5273  1.2039 -0.2205
   75MOL0     H 9869   6.426   7.256   5.716  1.7242 -1.8525 -1.8920
   75MOL0     H 9870   6.632   7.264   5.608  0.5634  0.2624 -0.7674
   75MOL0     H 9871   6.608   7.419   5.534  0.7903 -0.1729 -0.9134
   75MOL0     H 9872   6.415   7.180   5.511  0.3661 -1.4296 -0.1220
   75MOL0     H 9873   6.438   7.288   5.375  0.2837 -0.8787  0.6778
   75MOL0     H 9874   6.624   7.070   5.479  2.1044  1.9589  1.3933
   75MOL0     H 9875   6.681   7.207   5.380 -1.7051  3.4688 -0.5079
   75MOL0     H 9876   6.537   7.173   5.197 -2.6296 -0.7861  0.8594
   75MOL0     H 9877   6.464   7.035   5.268 -1.5323  0.5371  2.9468
   75MOL0     H 9878   6.668   6.986   5.104  0.4859  1.1525  0.0007
   75MOL0     H 9879   6.758   7.096   5.206 -0.4553  0.0578 -0.5738
   75MOL0     H 9880   6.761   6.926   5.387 -1.5049  1.5210  0.2438
   75MOL0     H 9881   6.801   6.843   5.219 -1.8849 -1.4257 -0.8183
   75MOL0     H 9882   6.514   7.806   5.806 -0.3384 -1.8474 -0.3581
   75MOL0     H 9883   6.660   7.954   5.935 -0.9984 -0.1542  0.0224
   75MOL0     H 9884   7.056   8.102   6.041  0.7220  0.8638  0.1379
   75MOL0     H 9885   7.214   8.250   6.162  1.6823 -0.8750 -0.3409
   75MOL0     H 9886   8.943   8.203   7.252  1.0433  0.2680  0.5219
   75MOL0     H 9887   9.044   8.078   7.459  0.3647 -0.0454  1.5443
   75MOL0     H 9888   8.637   7.840   7.928 -0.2609 -2.2582  1.6007
   75MOL0     H 9889   8.706   7.693   8.109  0.1759  1.3319  0.7149
   75MOL0     H 9890   9.023   7.748   8.264 -0.5422  0.0937 -1.0798
   75MOL0     H 9891   9.121   7.622   8.191  0.0806  1.7727  0.9042
   75MOL0     H 9892   9.125   7.582   8.435 -2.5899  1.8114  1.9981
   75MOL0     H 9893   8.946   7.565   8.429 -0.6012 -1.1740 -1.2467
   75MOL0     H 9894   8.955   7.384   8.277 -0.9055  1.2507  0.6269
   75MOL0     H 9895   9.032   7.363   8.433 -1.8035  2.8626  0.8627
   75MOL0     H 9896   9.173   7.380   8.151 -0.8682 -1.8867 -1.6182
   75MOL0     H 9897   9.259   7.421   8.303  0.1932 -0.8473  1.8867
   75MOL0     H 9898   9.252   6.992   8.279  0.4700 -0.9679  1.4854
   75MOL0     H 9899   9.085   7.619   7.948 -0.8093 -1.5040  3.6655
   75MOL0     H 9900   9.023   7.746   7.748 -0.3666  1.4965 -0.7834
   76MOL0     O 9901   9.404   5.984   3.917 -0.1610  0.7830  0.0300
   76MOL0     C 9902   9.345   6.032   3.818  0.3981 -0.7254 -0.4929
   76MOL0     O 9903   9.399   6.123   3.729  0.0091  0.2684 -0.3734
   76MOL0     C 9904   9.511   6.189   3.775  0.0773  0.6255  0.4553
   76MOL0     C 9905   9.505   6.320   3.800 -0.6621  0.7083  0.7407
   76MOL0     C 9906   9.612   6.398   3.843  0.2563  0.3339 -0.6646
   76MOL0     C 9907   9.733   6.338   3.868 -0.6418  0.1573  0.2241
   76MOL0     O 9908   9.823   6.425   3.920  0.2850 -0.4599 -0.1012
   76MOL0     C 9909   9.954   6.390   3.915 -0.0165  0.1777 -0.3944
   76MOL0     C 9910  10.038   6.499   3.985  0.1130 -0.9095  0.7302
   76MOL0     C 9911  10.182   6.485   3.949 -0.8411  0.2164  0.0030
   76MOL0     C 9912  10.280   6.565   4.044  0.4354 -0.2259  0.0826
   76MOL0     C 9913  10.426   6.565   4.005 -0.4774  0.3528 -0.6851
   76MOL0     C 9914  10.501   6.657   4.104  0.1038 -0.2382 -0.1386
   76MOL0     C 9915  10.647   6.670   4.057  0.5889  0.3229 -1.1495
   76MOL0     C 9916  10.754   6.547   4.081  0.6308 -0.9529  0.3473
   76MOL0     N 9917  10.891   6.576   4.041 -0.9407 -0.0573 -0.2539
   76MOL0     C 9918  10.988   6.625   4.133  0.0629 -0.2566 -0.5451
   76MOL0     C 9919  11.108   6.596   4.069 -0.0489  0.0261 -0.1032
   76MOL0     C 9920  11.242   6.634   4.120 -0.3382 -0.6389  0.7694
   76MOL0     C 9921  11.248   6.773   4.179 -0.1521 -0.6117  1.0396
   76MOL0     C 9922  11.258   6.879   4.066 -0.1848  0.0559  0.2203
   76MOL0     C 9923  11.131   6.925   4.003  0.4921  0.3065  0.1781
   76MOL0     O 9924  11.031   6.965   4.105 -0.4517 -0.0939 -0.3404
   76MOL0     C 9925  10.899   6.999   4.064 -0.3110 -0.3265 -0.3711
   76MOL0     C 9926  10.798   6.994   4.164 -1.0070 -0.0824  0.3012
   76MOL0     C 9927  10.669   7.031   4.128  0.3521  0.6353  1.2920
   76MOL0     C 9928  10.627   7.045   3.994 -0.3841 -0.3023  0.1719
   76MOL0     C 9929  10.485   7.048   3.949 -0.1096 -0.4119  0.7523
   76MOL0     O 9930  10.399   7.039   4.053 -0.0072 -0.0337 -0.2735
   76MOL0     C 9931  10.264   7.074   4.050  0.3499  0.4188 -0.4448
   76MOL0     C 9932  10.182   7.078   3.936 -0.9014 -0.2052 -0.3107
   76MOL0     C 9933  10.049   7.129   3.947  0.0004 -0.0607 -0.2667
   76MOL0     C 9934  10.004   7.176   4.072 -0.2015 -0.2970 -0.2789
   76MOL0     O 9935   9.878   7.231   4.079  0.4252  0.1526 -0.2687
   76MOL0     C 9936   9.834   7.272   4.221 -0.5566 -0.0816 -0.5248
   76MOL0     C 9937   9.708   7.350   4.217  0.4686  0.4087 -0.4600
   76MOL0     C 9938   9.577   7.269   4.251  0.8306 -0.1122  0.4178
   76MOL0     C 9939   9.523   7.177   4.148  0.5797  0.6490 -0.0541
   76MOL0     C 9940   9.376   7.120   4.177 -0.1606 -0.6845  0.3652
   76MOL0     C 9941   9.321   7.046   4.052  0.2285 -0.0869  0.5353
   76MOL0     C 9942   9.193   6.962   4.069  1.1471  0.2226  0.1464
   76MOL0     C 9943   9.189   6.850   4.179  0.9561 -0.1330 -0.1796
   76MOL0    Cl 9944   9.053   6.740   4.131  0.3871 -0.0732 -0.3485
   76MOL0     C 9945  10.091   7.161   4.183  0.2667 -0.6290 -0.0039
   76MOL0     C 9946  10.210   7.102   4.173  0.3295 -0.3148  0.5647
   76MOL0     O 9947  10.459   7.066   3.831  0.0121 -0.1241 -0.0112
   76MOL0     C 9948  10.727   7.061   3.901 -0.2355 -0.1520  0.7663
   76MOL0     C 9949  10.868   7.038   3.930 -0.1022  1.0903 -0.3375
   76MOL0     N 9950  11.078   6.533   3.951 -0.8701  0.0082 -0.1485
   76MOL0     N 9951  10.947   6.535   3.929 -0.1193 -0.0293  0.7936
   76MOL0     C 9952   9.749   6.201   3.838  0.2478  0.0744 -0.9356
   76MOL0     C 9953   9.640   6.126   3.779  0.1355 -0.6076 -1.1954
   76MOL0     C 9954   9.206   5.972   3.797 -0.4722  0.5178 -0.3968
   76MOL0     C 9955   9.131   6.024   3.698 -0.3340  0.3817  0.8365
   76MOL0     C 9956   8.994   5.992   3.697 -0.1059 -0.9852 -0.4746
   76MOL0     C 9957   8.938   5.899   3.786  0.2072 -0.4085  0.6332
   76MOL0     O 9958   8.806   5.857   3.782  0.3530 -0.6943  0.4801
   76MOL0     C 9959   8.729   5.848   3.662  0.1402  0.8796 -0.0687
   76MOL0     C 9960   8.718   5.701   3.610  0.6182 -0.1732  0.3757
   76MOL0     C 9961   8.652   5.605   3.708 -0.1558  0.0947 -0.5533
   76MOL0     C 9962   8.500   5.630   3.736 -0.0255  0.0425  0.0955
   76MOL0     C 9963   8.427   5.633   3.613  0.1814  0.3417 -0.3785
   76MOL0     C 9964   8.375   5.635   3.507  0.9533  0.1645  0.3940
   76MOL0     C 9965   9.023   5.839   3.874  0.9632 -0.3060  0.0120
   76MOL0     C 9966   9.155   5.869   3.881 -0.3270 -0.3939  0.0612
   76MOL0     H 9967   9.405   6.361   3.788 -0.4642  0.4373 -3.0090
   76MOL0     H 9968   9.595   6.505   3.848  0.6764  0.3916 -0.3352
   76MOL0     H 9969   9.971   6.384   3.807 -0.2312 -0.8543 -0.3862
   76MOL0     H 9970   9.974   6.294   3.964 -1.9207 -0.5951 -1.0497
   76MOL0     H 9971  10.020   6.494   4.092  1.6392  1.2144  1.1520
   76MOL0     H 9972   9.999   6.597   3.955  1.7679 -0.6995 -0.9568
   76MOL0     H 9973  10.193   6.500   3.842 -2.9958  0.4700 -0.2251
   76MOL0     H 9974  10.201   6.378   3.963 -2.5505  0.0993  2.0580
   76MOL0     H 9975  10.241   6.667   4.039 -0.2820 -0.4562  0.8003
   76MOL0     H 9976  10.253   6.529   4.143 -1.6129  0.0830 -0.3178
   76MOL0     H 9977  10.448   6.602   3.904 -1.1518  0.5130 -0.7795
   76MOL0     H 9978  10.463   6.462   4.009 -0.3396  0.2921 -2.5311
   76MOL0     H 9979  10.505   6.613   4.204 -1.8455 -1.2213 -0.4514
   76MOL0     H 9980  10.457   6.757   4.113  0.2799  0.0300 -1.8396
   76MOL0     H 9981  10.642   6.712   3.956 -1.9865  2.2133 -0.3410
   76MOL0     H 9982  10.690   6.753   4.114 -0.8759  0.5519 -0.3242
   76MOL0     H 9983  10.709   6.463   4.027  1.9348 -1.2972 -0.2296
   76MOL0     H 9984  10.755   6.519   4.186  1.7697 -0.3640  0.5120
   76MOL0     H 9985  10.974   6.665   4.232 -0.8127  0.1080 -0.8019
   76MOL0     H 9986  11.307   6.617   4.034 -1.1046 -0.9233  0.2359
   76MOL0     H 9987  11.259   6.551   4.190  2.1809 -0.3219  0.6113
   76MOL0     H 9988  11.334   6.784   4.246 -0.7897 -0.5385  1.8700
   76MOL0     H 9989  11.164   6.801   4.244  0.6500  0.3099  1.7111
   76MOL0     H 9990  11.287   6.974   4.112 -0.2214 -0.1719  0.7149
   76MOL0     H 9991  11.332   6.843   3.993  0.1012 -0.2720  0.6631
   76MOL0     H 9992  11.084   6.849   3.941 -0.1391  1.1672 -0.4089
   76MOL0     H 9993  11.162   7.009   3.940  0.7028 -0.2653 -0.4857
   76MOL0     H 9994  10.833   6.971   4.264 -0.9455 -1.8590 -0.0845
   76MOL0     H 9995  10.583   7.023   4.193 -0.8354 -1.7130 -0.4449
   76MOL0     H 9996  10.218   7.053   3.836 -0.5115  2.9391 -1.0510
   76MOL0     H 9997   9.982   7.126   3.862 -0.1933 -0.6411 -0.1018
   76MOL0     H 9998   9.905   7.341   4.267  0.9040 -0.0523 -2.6430
   76MOL0     H 9999   9.815   7.191   4.291 -1.3314  2.0963  1.9135
   76MOL0     H10000   9.695   7.402   4.122  0.5507  1.4742  0.0890
   76MOL0     H10001   9.697   7.432   4.289  0.2495  0.4823 -0.5767
   76MOL0     H10002   9.496   7.341   4.267  1.6435  1.4984 -2.0085
   76MOL0     H10003   9.590   7.213   4.343  2.9022 -0.8310 -0.2548
   76MOL0     H10004   9.515   7.235   4.056 -0.6228  0.9542  0.2254
   76MOL0     H10005   9.596   7.098   4.125 -0.5832  0.3979 -3.3737
   76MOL0     H10006   9.310   7.201   4.209 -1.4544 -0.1113 -3.2971
   76MOL0     H10007   9.379   7.046   4.257 -2.1528 -2.3645 -1.0123
   76MOL0     H10008   9.399   6.984   4.006  3.5045  3.0893  1.4119
   76MOL0     H10009   9.292   7.121   3.978 -0.2290 -0.6487  0.1264
   76MOL0     H10010   9.104   7.027   4.071  0.6542 -0.4460  0.4651
   76MOL0     H10011   9.195   6.913   3.971 -1.0916  0.2934 -0.0087
   76MOL0     H10012   9.176   6.895   4.278  0.6924 -0.8834  0.1401
   76MOL0     H10013   9.292   6.814   4.171  2.1070  2.8047  0.1634
   76MOL0     H10014  10.057   7.184   4.284  1.2611  1.3846 -0.0688
   76MOL0     H10015  10.264   7.076   4.263 -0.3598 -2.2674  0.4597
   76MOL0     H10016  10.703   7.085   3.798 -1.0307  2.4448  1.4917
   76MOL0     H10017  10.948   7.036   3.856 -1.2900  1.0192 -1.6610
   76MOL0     H10018   9.846   6.151   3.846 -1.4172 -3.4487 -0.8850
   76MOL0     H10019   9.637   6.023   3.745 -2.3938 -0.2398 -2.3266
   76MOL0     H10020   9.154   6.101   3.625 -1.7029  1.3285  1.3695
   76MOL0     H10021   8.928   6.044   3.628 -0.9919 -3.3631 -1.5439
   76MOL0     H10022   8.771   5.910   3.581 -1.5864 -0.3112 -1.9763
   76MOL0     H10023   8.631   5.896   3.671  0.6018  1.8183  0.0809
   76MOL0     H10024   8.661   5.711   3.517  2.9268  1.0163 -1.0067
   76MOL0     H10025   8.818   5.666   3.584 -0.2080 -1.5144 -1.1701
   76MOL0     H10026   8.701   5.594   3.805 -2.3932 -0.3767  0.6017
   76MOL0     H10027   8.657   5.503   3.670  2.6276 -0.0501  0.0080
   76MOL0     H10028   8.451   5.556   3.800 -1.3354  1.2673  0.5343
   76MOL0     H10029   8.495   5.730   3.779 -1.7234 -0.3895  0.9971
   76MOL0     H10030   8.330   5.641   3.410 -3.1807 -1.9769  1.9020
   76MOL0     H10031   8.984   5.766   3.944 -1.4969  2.5921  1.9523
   76MOL0     H10032   9.199   5.818   3.966 -1.2622 -3.2609 -1.0790
   77MOL0     O10033   0.659   5.134   6.434 -0.7611  0.2322 -0.1050
   77MOL0     C10034   0.697   5.254   6.435 -0.2728 -0.0950 -0.5654
   77MOL0     O10035   0.801   5.312   6.503  0.5390 -0.6012 -0.4612
   77MOL0     C10036   0.881   5.219   6.561  0.1922  0.4083  0.4435
   77MOL0     C10037   0.827   5.148   6.665 -0.5454  0.3912  0.5559
   77MOL0     C10038   0.909   5.055   6.729 -0.5559  0.0690 -0.1363
   77MOL0     C10039   1.038   5.012   6.684  0.0157  0.3569 -0.0425
   77MOL0     O10040   1.110   4.914   6.744 -0.8525  0.3302 -0.7783
   77MOL0     C10041   1.066   4.841   6.861  0.2039 -0.4223 -0.2171
   77MOL0     C10042   1.079   4.918   6.996  0.2644  0.9537 -0.1724
   77MOL0     C10043   1.010   4.845   7.124 -0.5989 -0.5230  0.3117
   77MOL0     C10044   0.960   4.957   7.224 -0.6763  0.2689  0.5292
   77MOL0     C10045   0.948   4.917   7.363 -0.1283  0.1763 -0.2550
   77MOL0     C10046   0.843   4.803   7.379  0.1802 -0.6575 -0.6519
   77MOL0     C10047   0.850   4.748   7.518 -0.3654  0.3518  0.2317
   77MOL0     C10048   0.742   4.645   7.564 -0.5506  0.6781 -0.4441
   77MOL0     N10049   0.606   4.671   7.557 -0.1857  0.6364  0.4635
   77MOL0     C10050   0.511   4.611   7.642 -0.5716  0.0695 -0.0204
   77MOL0     C10051   0.397   4.670   7.607  1.0892 -0.2506 -0.1721
   77MOL0     C10052   0.269   4.637   7.688 -0.2194  0.1599 -0.3020
   77MOL0     C10053   0.153   4.603   7.604  0.8700  0.6378  0.4154
   77MOL0     C10054   0.026   4.553   7.676 -0.5399  0.2975 -0.0949
   77MOL0     C10055  -0.070   4.659   7.734 -0.3617 -0.3088 -0.0338
   77MOL0     O10056  -0.178   4.581   7.793 -0.3983 -0.2530 -0.2648
   77MOL0     C10057  -0.297   4.562   7.721  0.9645 -0.6459 -0.0501
   77MOL0     C10058  -0.329   4.636   7.603 -0.1718 -0.2392  0.1497
   77MOL0     C10059  -0.441   4.597   7.522 -0.0340 -0.0252  0.0999
   77MOL0     C10060  -0.520   4.484   7.556 -1.5444 -0.1896  0.3271
   77MOL0     C10061  -0.637   4.445   7.484 -0.3011 -0.0223  1.0071
   77MOL0     O10062  -0.677   4.531   7.376  0.1963 -0.1089 -0.5090
   77MOL0     C10063  -0.775   4.487   7.284 -0.7990  0.2725 -0.9599
   77MOL0     C10064  -0.908   4.531   7.279 -0.1372 -0.6510 -0.0887
   77MOL0     C10065  -0.998   4.480   7.190 -1.0465 -0.9155  0.1313
   77MOL0     C10066  -0.952   4.386   7.093  0.0331 -0.6183 -0.7518
   77MOL0     O10067  -1.044   4.337   7.010  0.1836  0.3274 -0.0477
   77MOL0     C10068  -1.017   4.204   6.963 -0.2520  1.3676  0.4374
   77MOL0     C10069  -1.141   4.120   6.926  0.0554  0.0167 -1.1762
   77MOL0     C10070  -1.213   4.162   6.798 -0.0252 -0.6973  0.4419
   77MOL0     C10071  -1.353   4.086   6.803  0.5823 -0.6027  0.0983
   77MOL0     C10072  -1.456   4.128   6.694 -0.0487  0.6983 -0.0661
   77MOL0     C10073  -1.604   4.079   6.714 -0.0955  0.1390 -0.0222
   77MOL0     C10074  -1.695   4.129   6.605 -0.6590  0.1546  1.1241
   77MOL0     C10075  -1.843   4.098   6.640  0.9168 -0.2803  0.3299
   77MOL0    Cl10076  -1.936   4.149   6.500  0.0285  0.2416  0.2811
   77MOL0     C10077  -0.818   4.341   7.099  0.1723  0.1059 -0.0014
   77MOL0     C10078  -0.733   4.394   7.194 -0.0509 -0.0460  0.2806
   77MOL0     O10079  -0.691   4.341   7.509  0.2666  0.2362 -0.4100
   77MOL0     C10080  -0.478   4.411   7.666 -0.2541  0.7321  0.1642
   77MOL0     C10081  -0.374   4.447   7.748 -0.1091  0.3194  0.4921
   77MOL0     N10082   0.412   4.761   7.511  0.2949 -0.5093  0.0440
   77MOL0     N10083   0.540   4.758   7.472 -0.3206 -0.8490 -0.2501
   77MOL0     C10084   1.093   5.078   6.576 -0.7559 -0.1839 -0.2288
   77MOL0     C10085   1.017   5.190   6.521  0.2122  0.4474  0.2895
   77MOL0     C10086   0.614   5.338   6.341 -0.5952  0.0362 -1.1508
   77MOL0     C10087   0.618   5.482   6.351  0.0854 -0.2776  0.6722
   77MOL0     C10088   0.536   5.555   6.261 -0.5929 -0.3240  0.7575
   77MOL0     C10089   0.444   5.500   6.176  0.7083 -0.1966 -0.1335
   77MOL0     O10090   0.359   5.585   6.111  0.5277  0.6617  0.0478
   77MOL0     C10091   0.273   5.536   6.010  0.5207  0.4683 -0.4916
   77MOL0     C10092   0.218   5.643   5.926 -0.5498  0.4455 -0.1723
   77MOL0     C10093   0.151   5.763   6.008  0.3885 -0.0041  0.6067
   77MOL0     C10094   0.082   5.876   5.925 -0.3136 -0.1675  0.0897
   77MOL0     C10095   0.187   5.949   5.866  0.5439 -0.1975  1.2861
   77MOL0     C10096   0.268   6.019   5.812 -0.0006 -0.3632 -1.0340
   77MOL0     C10097   0.453   5.362   6.158 -0.4243  0.0439 -0.0045
   77MOL0     C10098   0.538   5.283   6.238  0.4570 -0.5741  0.0882
   77MOL0     H10099   0.727   5.159   6.706 -0.8121 -1.6132  0.5305
   77MOL0     H10100   0.863   5.018   6.820  0.6308  1.8305  1.2569
   77MOL0     H10101   1.134   4.756   6.873  2.2393  1.2816  0.8831
   77MOL0     H10102   0.971   4.791   6.839  0.5381 -1.6597  1.0662
   77MOL0     H10103   1.022   5.009   6.977 -0.3835  0.4034 -0.9434
   77MOL0     H10104   1.182   4.946   7.021  1.0266 -0.1917 -1.8007
   77MOL0     H10105   1.080   4.772   7.166 -1.7845 -1.2108  1.1532
   77MOL0     H10106   0.913   4.797   7.108 -1.7275  0.7537  2.7450
   77MOL0     H10107   1.040   5.032   7.230  3.5861 -3.7894 -0.0229
   77MOL0     H10108   0.869   5.006   7.188  0.3227 -0.3495 -3.1930
   77MOL0     H10109   0.916   5.002   7.424  0.4784  0.2552 -0.0325
   77MOL0     H10110   1.043   4.877   7.400 -0.5993 -0.5570  0.2000
   77MOL0     H10111   0.859   4.722   7.307 -2.6299 -1.2670 -0.7167
   77MOL0     H10112   0.748   4.848   7.349 -0.4770 -2.0621 -0.7893
   77MOL0     H10113   0.948   4.706   7.542  0.1734  1.3493 -0.1781
   77MOL0     H10114   0.835   4.837   7.579 -2.1879  2.1633 -2.6131
   77MOL0     H10115   0.771   4.635   7.669  1.5015  2.5163 -0.7649
   77MOL0     H10116   0.759   4.550   7.511  0.9926 -0.2605  1.6028
   77MOL0     H10117   0.529   4.540   7.722 -1.2984 -1.3407 -1.0635
   77MOL0     H10118   0.241   4.725   7.747 -0.8153 -0.8722  1.0053
   77MOL0     H10119   0.294   4.555   7.756 -1.3521 -0.9182 -1.1480
   77MOL0     H10120   0.175   4.531   7.524 -2.9608 -1.4157  0.9434
   77MOL0     H10121   0.125   4.694   7.549 -1.2121 -0.1351  0.0937
   77MOL0     H10122  -0.029   4.489   7.606  2.0873 -0.5956 -1.4611
   77MOL0     H10123   0.053   4.483   7.755 -3.2224 -1.1020 -0.2835
   77MOL0     H10124  -0.099   4.735   7.661  0.6410  1.2275  1.0967
   77MOL0     H10125  -0.007   4.720   7.800  0.8021 -1.2810 -0.2146
   77MOL0     H10126  -0.283   4.728   7.569  0.1805 -0.4727 -0.0067
   77MOL0     H10127  -0.458   4.656   7.433  0.6150 -1.1708 -0.8152
   77MOL0     H10128  -0.938   4.600   7.357 -0.9615 -2.3112  1.1136
   77MOL0     H10129  -1.102   4.508   7.179 -1.1631 -1.6932 -0.9491
   77MOL0     H10130  -0.973   4.152   7.049 -0.4953  0.7402  0.1950
   77MOL0     H10131  -0.949   4.194   6.878 -0.0820  0.3307  0.6703
   77MOL0     H10132  -1.207   4.140   7.011  0.0615 -2.4957 -0.5060
   77MOL0     H10133  -1.114   4.014   6.923 -2.7046 -0.7290 -2.3217
   77MOL0     H10134  -1.170   4.125   6.704  2.1601 -0.1993  1.1881
   77MOL0     H10135  -1.224   4.271   6.793  1.0098 -0.6401 -1.6923
   77MOL0     H10136  -1.324   3.981   6.795 -0.2555 -0.8080 -0.3898
   77MOL0     H10137  -1.404   4.105   6.898  4.2299  0.0014  2.0992
   77MOL0     H10138  -1.418   4.085   6.600 -2.3585 -3.4451  0.6609
   77MOL0     H10139  -1.469   4.237   6.688 -0.3262  0.5980 -1.9108
   77MOL0     H10140  -1.622   4.118   6.814  2.8645 -2.2553  1.6392
   77MOL0     H10141  -1.605   3.970   6.725 -0.4030  0.3383  2.4045
   77MOL0     H10142  -1.685   4.237   6.594  0.2003  0.1679  1.8587
   77MOL0     H10143  -1.664   4.073   6.517 -0.2749 -0.0403  1.3782
   77MOL0     H10144  -1.885   4.161   6.718  1.1249 -2.0920  1.9927
   77MOL0     H10145  -1.859   3.993   6.668  2.6045 -1.3584 -2.3138
   77MOL0     H10146  -0.775   4.258   7.045  0.3632 -0.2755  0.7191
   77MOL0     H10147  -0.630   4.359   7.195  0.0132  0.1363  0.1470
   77MOL0     H10148  -0.533   4.323   7.697  0.1342 -0.4150 -2.1362
   77MOL0     H10149  -0.336   4.397   7.837  2.1549 -1.5868 -1.4215
   77MOL0     H10150   1.191   5.047   6.541 -1.5510 -3.0355 -0.1573
   77MOL0     H10151   1.059   5.246   6.438  0.6706 -1.9834 -1.2073
   77MOL0     H10152   0.685   5.530   6.421  0.4360  0.2297  0.0062
   77MOL0     H10153   0.548   5.663   6.267  0.3816 -0.3803 -0.0688
   77MOL0     H10154   0.186   5.487   6.054 -1.5322  4.1586 -0.0457
   77MOL0     H10155   0.324   5.472   5.937 -0.5699  0.4000 -1.2256
   77MOL0     H10156   0.302   5.687   5.872 -0.5198  1.4055  0.6131
   77MOL0     H10157   0.142   5.607   5.856  1.5545 -0.1395 -2.2542
   77MOL0     H10158   0.234   5.811   6.060  0.8042 -1.3707  1.2387
   77MOL0     H10159   0.073   5.726   6.074  0.1252  1.3932  1.1217
   77MOL0     H10160   0.004   5.839   5.859  0.9660 -0.9915 -1.0113
   77MOL0     H10161   0.025   5.940   5.993  0.7451  1.0355 -0.1067
   77MOL0     H10162   0.334   6.080   5.755 -0.2928 -0.7867 -1.8435
   77MOL0     H10163   0.386   5.312   6.089  0.6584 -0.3994 -0.7692
   77MOL0     H10164   0.527   5.176   6.224  0.1094 -0.5233 -0.0649
   78MOL0     O10165   3.822   6.599   7.456  0.6477  0.3545  0.1375
   78MOL0     C10166   3.784   6.688   7.381 -0.0661  0.2331 -0.1596
   78MOL0     O10167   3.660   6.742   7.370 -0.0006  0.1108 -0.2129
   78MOL0     C10168   3.547   6.692   7.441 -0.4734 -0.2236  0.2830
   78MOL0     C10169   3.531   6.719   7.573 -0.4514  0.3451  0.6654
   78MOL0     C10170   3.419   6.679   7.638 -0.2858 -1.1361 -0.4850
   78MOL0     C10171   3.301   6.645   7.574  0.1111  0.0041  0.0888
   78MOL0     O10172   3.189   6.617   7.654  0.9146 -0.3693 -0.0782
   78MOL0     C10173   3.059   6.640   7.598 -0.8888 -0.5096 -0.1990
   78MOL0     C10174   2.958   6.609   7.695  0.4651 -0.0531  0.3709
   78MOL0     C10175   2.816   6.636   7.634 -0.0765 -0.2558  0.2594
   78MOL0     C10176   2.704   6.646   7.733 -0.1393  0.0069 -0.4014
   78MOL0     C10177   2.571   6.665   7.665 -0.7118 -0.1224  0.2537
   78MOL0     C10178   2.468   6.738   7.754  0.3806 -0.1618 -0.6173
   78MOL0     C10179   2.427   6.663   7.882  1.3684  0.1087 -0.3074
   78MOL0     C10180   2.309   6.744   7.949  0.2197  0.6180  0.0734
   78MOL0     N10181   2.194   6.660   7.991  0.5796  0.4387 -0.2710
   78MOL0     C10182   2.091   6.701   8.068  0.9618 -0.2609  0.6835
   78MOL0     C10183   2.001   6.600   8.077  0.7193  0.5080  0.0063
   78MOL0     C10184   1.871   6.609   8.148 -0.0850  0.2169  0.5676
   78MOL0     C10185   1.784   6.490   8.123  0.3641  0.3594 -0.3781
   78MOL0     C10186   1.659   6.512   8.203  0.0558 -0.3678  0.1924
   78MOL0     C10187   1.571   6.396   8.197  0.1403  0.5095  0.7268
   78MOL0     O10188   1.449   6.420   8.274  0.0395  0.0770  0.9214
   78MOL0     C10189   1.343   6.333   8.249 -0.3135 -0.2718 -0.3330
   78MOL0     C10190   1.234   6.360   8.326 -1.2494  0.2176 -0.1007
   78MOL0     C10191   1.124   6.280   8.312 -0.2306  0.4056  0.1243
   78MOL0     C10192   1.113   6.170   8.220 -0.5930  0.0219 -0.3838
   78MOL0     C10193   0.990   6.096   8.187 -0.5897  0.1554 -0.4887
   78MOL0     O10194   0.910   6.069   8.293  0.0951  0.6469  0.0420
   78MOL0     C10195   0.814   5.974   8.291  0.3960 -0.6315  0.5548
   78MOL0     C10196   0.680   5.999   8.322  0.2278 -0.2921 -0.2046
   78MOL0     C10197   0.588   5.890   8.315 -0.0326 -0.3017 -0.3304
   78MOL0     C10198   0.627   5.766   8.268 -0.0727 -0.9432 -0.2419
   78MOL0     O10199   0.532   5.665   8.279 -0.3392 -0.0297  0.4099
   78MOL0     C10200   0.575   5.526   8.264  0.0661 -0.3874  0.1387
   78MOL0     C10201   0.450   5.427   8.274 -0.7689 -0.1326 -0.1610
   78MOL0     C10202   0.375   5.436   8.407  0.2722 -0.4645 -0.0282
   78MOL0     C10203   0.228   5.382   8.388 -0.2232 -1.0382  0.1737
   78MOL0     C10204   0.150   5.414   8.518 -0.2661  0.3742 -0.2650
   78MOL0     C10205  -0.003   5.402   8.483  0.3331  0.5705  0.3796
   78MOL0     C10206  -0.052   5.272   8.415  0.0554  0.4188  0.2145
   78MOL0     C10207  -0.206   5.279   8.403 -0.4263  0.0040 -0.7495
   78MOL0    Cl10208  -0.252   5.140   8.308  0.0149  0.1850 -0.0650
   78MOL0     C10209   0.764   5.743   8.224  0.2698  0.0469 -0.0121
   78MOL0     C10210   0.854   5.846   8.246  1.0439 -0.7962  0.1673
   78MOL0     O10211   0.978   6.052   8.078 -0.0466 -0.1843 -0.0206
   78MOL0     C10212   1.232   6.129   8.160 -0.6313 -0.0937 -0.6533
   78MOL0     C10213   1.342   6.212   8.172 -0.1280 -0.5611 -0.2030
   78MOL0     N10214   2.044   6.503   7.991  0.1496 -0.7157 -0.7911
   78MOL0     N10215   2.156   6.530   7.958 -0.3864 -0.1657 -0.3995
   78MOL0     C10216   3.309   6.618   7.433 -0.0169 -0.4451 -0.4610
   78MOL0     C10217   3.431   6.646   7.364  0.2041  0.1336 -0.2765
   78MOL0     C10218   3.879   6.745   7.276  0.6418  0.1044  0.3687
   78MOL0     C10219   3.832   6.826   7.171  0.2975  0.0054 -0.3223
   78MOL0     C10220   3.925   6.864   7.067 -0.6330 -0.0756 -0.4110
   78MOL0     C10221   4.064   6.845   7.078 -0.4051  0.4704 -0.1229
   78MOL0     O10222   4.144   6.909   6.985 -0.0910  0.5470  0.1168
   78MOL0     C10223   4.280   6.883   6.991 -0.3966  0.4530 -0.0004
   78MOL0     C10224   4.350   6.954   7.103 -0.4305  0.3533  0.0259
   78MOL0     C10225   4.489   6.883   7.134  0.5773 -0.2736  0.4338
   78MOL0     C10226   4.593   6.910   7.022  0.2483 -0.2665  0.7512
   78MOL0     C10227   4.732   6.881   7.073  1.5580 -0.2290 -0.3073
   78MOL0     C10228   4.846   6.847   7.110 -0.2211  0.1329  0.1117
   78MOL0     C10229   4.108   6.772   7.190  0.2229 -0.3770 -0.4781
   78MOL0     C10230   4.012   6.718   7.280 -0.1621 -0.3932 -0.4315
   78MOL0     H10231   3.610   6.759   7.636 -1.5096 -0.2565  2.4809
   78MOL0     H10232   3.424   6.676   7.746 -0.2179  0.1666 -0.4442
   78MOL0     H10233   3.056   6.581   7.506 -0.9492 -0.9040  0.0529
   78MOL0     H10234   3.053   6.746   7.571  0.4288 -0.5244 -0.6167
   78MOL0     H10235   2.977   6.675   7.781 -2.2903 -0.9569  1.8113
   78MOL0     H10236   2.967   6.504   7.725  3.4110 -0.1781 -0.6374
   78MOL0     H10237   2.799   6.545   7.576 -2.0262 -0.1702  0.6429
   78MOL0     H10238   2.819   6.718   7.562  0.3429 -0.2650  0.2637
   78MOL0     H10239   2.699   6.552   7.789 -1.4751  1.5268  2.2351
   78MOL0     H10240   2.725   6.720   7.811  0.5785 -1.9825  1.4050
   78MOL0     H10241   2.535   6.568   7.627  1.1364 -0.7738  0.0965
   78MOL0     H10242   2.589   6.731   7.579  0.8029  0.1853  0.7973
   78MOL0     H10243   2.384   6.763   7.688 -2.3496 -2.5597  1.6088
   78MOL0     H10244   2.526   6.825   7.786  1.8273 -0.4901 -2.2787
   78MOL0     H10245   2.390   6.569   7.841 -2.8815 -0.0337  3.1284
   78MOL0     H10246   2.520   6.653   7.938  1.7098  1.9714 -0.4559
   78MOL0     H10247   2.285   6.834   7.892  0.0153  1.4590  1.4346
   78MOL0     H10248   2.356   6.776   8.043 -0.5514 -1.9441  1.4273
   78MOL0     H10249   2.086   6.800   8.112 -0.0206 -0.6847  1.5746
   78MOL0     H10250   1.812   6.693   8.109 -0.9717 -0.1197  1.1658
   78MOL0     H10251   1.890   6.639   8.251  2.0159  2.0900 -0.2857
   78MOL0     H10252   1.837   6.398   8.151  0.9346 -0.0188 -2.5316
   78MOL0     H10253   1.753   6.483   8.019  1.8294 -3.5484 -0.7199
   78MOL0     H10254   1.685   6.532   8.307 -0.7938 -1.1029  0.5641
   78MOL0     H10255   1.612   6.604   8.167  1.0584  0.0214 -0.1524
   78MOL0     H10256   1.626   6.314   8.243 -1.6250 -2.4836 -2.1362
   78MOL0     H10257   1.552   6.360   8.096 -1.0994 -0.5204  1.2997
   78MOL0     H10258   1.239   6.445   8.394 -0.0817 -0.1541  0.2974
   78MOL0     H10259   1.037   6.322   8.362 -0.8463 -1.8222  1.0553
   78MOL0     H10260   0.650   6.101   8.345  0.3814 -0.2127 -0.3597
   78MOL0     H10261   0.484   5.903   8.342  0.0056  0.0665 -0.3566
   78MOL0     H10262   0.651   5.495   8.337  1.4635 -0.3966 -1.2729
   78MOL0     H10263   0.622   5.515   8.166 -2.0076  1.2102 -1.1079
   78MOL0     H10264   0.490   5.325   8.269 -2.8937 -0.9685 -1.1081
   78MOL0     H10265   0.390   5.440   8.184  0.2305  0.6076 -0.7464
   78MOL0     H10266   0.380   5.537   8.448 -0.1242  0.4761 -2.1408
   78MOL0     H10267   0.422   5.366   8.477 -1.9753 -0.6148  1.4429
   78MOL0     H10268   0.182   5.437   8.305  2.7861  0.8665 -0.3706
   78MOL0     H10269   0.226   5.282   8.345  3.5696  0.2993 -3.8561
   78MOL0     H10270   0.184   5.513   8.548  1.7511  0.7347 -3.2366
   78MOL0     H10271   0.180   5.346   8.598  1.3304  2.6831  1.2041
   78MOL0     H10272  -0.026   5.487   8.417 -1.4259  0.8061  1.2190
   78MOL0     H10273  -0.064   5.420   8.572 -0.1029  0.1387  0.1728
   78MOL0     H10274  -0.004   5.263   8.317  0.1678  2.2451  0.0680
   78MOL0     H10275  -0.033   5.178   8.467 -3.3399 -0.6383 -0.1758
   78MOL0     H10276  -0.236   5.364   8.341  0.6452 -0.4005 -1.8540
   78MOL0     H10277  -0.248   5.286   8.504  1.9013 -0.8839  0.3567
   78MOL0     H10278   0.807   5.649   8.189  1.7525  0.5394  0.4038
   78MOL0     H10279   0.959   5.831   8.226  0.9567 -0.4231 -0.6298
   78MOL0     H10280   1.233   6.036   8.103  1.2578 -1.9015  2.1059
   78MOL0     H10281   1.437   6.187   8.124 -0.4262 -0.8209 -0.6681
   78MOL0     H10282   3.229   6.585   7.367 -0.4839 -0.1914 -0.0336
   78MOL0     H10283   3.444   6.620   7.260  0.9221  1.8318 -0.6570
   78MOL0     H10284   3.727   6.853   7.174 -0.0312 -1.2770  1.7737
   78MOL0     H10285   3.906   6.917   6.974  2.8817  2.3818  0.0978
   78MOL0     H10286   4.337   6.910   6.901 -1.1121 -0.2677 -0.6868
   78MOL0     H10287   4.293   6.775   6.999 -0.8569  0.4469  0.7625
   78MOL0     H10288   4.369   7.059   7.080  0.3359  0.7392  2.1616
   78MOL0     H10289   4.296   6.950   7.198  0.8539  0.0778  0.7748
   78MOL0     H10290   4.468   6.777   7.147 -3.0269  0.2656  0.0617
   78MOL0     H10291   4.528   6.919   7.230 -3.7460 -0.4080  2.4693
   78MOL0     H10292   4.565   6.858   6.930 -0.3917  0.3890  0.5752
   78MOL0     H10293   4.599   7.013   6.985  0.4230 -1.2625 -2.3166
   78MOL0     H10294   4.943   6.817   7.146 -0.2384  0.8493  0.7867
   78MOL0     H10295   4.210   6.755   7.222 -0.2685  0.1344  1.4737
   78MOL0     H10296   4.060   6.650   7.350  3.2686  1.2380 -1.0242
   79MOL0     O10297   4.285   9.195   4.591 -0.2965  0.2631  0.0041
   79MOL0     C10298   4.308   9.181   4.707  0.0964  0.3388 -0.1326
   79MOL0     O10299   4.209   9.180   4.797  0.0374  0.7701 -0.7650
   79MOL0     C10300   4.088   9.236   4.772 -0.0025 -0.8157 -0.5012
   79MOL0     C10301   3.974   9.195   4.847 -0.5425  0.3284  0.0518
   79MOL0     C10302   3.851   9.249   4.830  0.4214  0.4407 -0.4039
   79MOL0     C10303   3.828   9.345   4.729 -0.2356  0.0053 -0.3012
   79MOL0     O10304   3.702   9.399   4.722 -0.1412  0.1765 -0.2150
   79MOL0     C10305   3.590   9.350   4.793  0.2729  0.0370  0.0967
   79MOL0     C10306   3.472   9.427   4.738 -0.2079 -0.4441 -0.4677
   79MOL0     C10307   3.355   9.358   4.793  0.3573  0.4961  0.6848
   79MOL0     C10308   3.209   9.435   4.772 -0.0977  0.6051 -0.1027
   79MOL0     C10309   3.125   9.366   4.883  0.0801  0.3587  0.3217
   79MOL0     C10310   2.973   9.394   4.866  0.1736  0.4565 -1.0537
   79MOL0     C10311   2.897   9.355   4.989  0.0357 -0.1806 -0.3857
   79MOL0     C10312   2.761   9.415   4.995  0.5891  0.2536 -0.3269
   79MOL0     N10313   2.683   9.407   4.865 -0.3441 -0.2100 -0.2414
   79MOL0     C10314   2.604   9.309   4.814  0.9060  0.0860 -0.2980
   79MOL0     C10315   2.561   9.352   4.699  0.0406 -0.6159  0.2913
   79MOL0     C10316   2.481   9.280   4.598 -0.4889 -0.4444 -0.4141
   79MOL0     C10317   2.328   9.315   4.605  0.0666  0.7864  0.2996
   79MOL0     C10318   2.251   9.275   4.737  0.2047  0.1574  0.5355
   79MOL0     C10319   2.280   9.131   4.773 -0.6100 -0.1945  0.3173
   79MOL0     O10320   2.261   9.116   4.911 -0.4255  0.1466 -0.2324
   79MOL0     C10321   2.139   9.054   4.948 -0.5807 -0.1621  0.2646
   79MOL0     C10322   2.145   8.940   5.023 -0.2469  0.1435 -0.1274
   79MOL0     C10323   2.033   8.875   5.083 -0.0514 -0.7371  0.5088
   79MOL0     C10324   1.903   8.930   5.063  0.6008  0.8494  0.3690
   79MOL0     C10325   1.787   8.873   5.126  1.0387 -0.3403  0.5223
   79MOL0     O10326   1.658   8.912   5.081 -0.1501  1.1809 -0.1824
   79MOL0     C10327   1.536   8.869   5.141  0.4805 -0.2544 -0.3303
   79MOL0     C10328   1.512   8.772   5.251 -0.5628 -0.5199  0.6183
   79MOL0     C10329   1.385   8.743   5.288  0.5676  0.7219 -0.1876
   79MOL0     C10330   1.277   8.804   5.222 -0.2004 -0.0691 -0.3174
   79MOL0     O10331   1.153   8.785   5.251 -0.1967  0.2707  0.3140
   79MOL0     C10332   1.126   8.727   5.372  0.2978  0.7681 -1.1364
   79MOL0     C10333   0.974   8.732   5.404 -1.0973 -0.0440  0.0071
   79MOL0     C10334   0.878   8.667   5.300 -0.3498  0.6834 -0.5294
   79MOL0     C10335   0.913   8.520   5.265 -0.0107 -0.8456  0.0807
   79MOL0     C10336   0.796   8.438   5.240  0.4367  0.0748 -0.3351
   79MOL0     C10337   0.722   8.397   5.372  0.4759  0.4855  0.1017
   79MOL0     C10338   0.596   8.310   5.322 -0.2075  0.2585  0.3451
   79MOL0     C10339   0.545   8.242   5.443  0.2560  0.7038 -0.2149
   79MOL0    Cl10340   0.376   8.173   5.438  0.1861  0.0185 -0.0841
   79MOL0     C10341   1.297   8.885   5.115  0.6369  0.9329  0.0311
   79MOL0     C10342   1.429   8.925   5.080  0.4232  0.1764 -0.6242
   79MOL0     O10343   1.799   8.786   5.208 -0.5826 -0.0897 -0.3155
   79MOL0     C10344   1.894   9.033   4.971  0.2882  0.1326  0.5723
   79MOL0     C10345   2.007   9.098   4.917 -0.0792  0.7121 -0.1874
   79MOL0     N10346   2.610   9.480   4.680 -0.6675  0.0522 -0.6924
   79MOL0     N10347   2.687   9.514   4.777  0.3589  0.4273  0.0724
   79MOL0     C10348   3.934   9.388   4.652 -0.4076  0.3419  0.1229
   79MOL0     C10349   4.067   9.335   4.683  0.4828  0.3105 -0.1486
   79MOL0     C10350   4.447   9.156   4.750 -0.0548  0.5556  0.7742
   79MOL0     C10351   4.548   9.117   4.654  0.9431  0.3499 -0.3532
   79MOL0     C10352   4.675   9.075   4.697  0.3248 -0.1542 -0.7065
   79MOL0     C10353   4.711   9.061   4.839 -0.2370 -0.0788  1.0842
   79MOL0     O10354   4.831   9.004   4.874  0.3898  0.5921 -0.0765
   79MOL0     C10355   4.854   8.979   5.015  0.2104  0.3797 -0.5527
   79MOL0     C10356   4.999   8.970   5.040  0.0352 -0.2912  0.1088
   79MOL0     C10357   5.069   8.863   4.948  0.0692 -0.5067 -0.8367
   79MOL0     C10358   5.196   8.822   5.020 -0.0336  0.9133 -0.3600
   79MOL0     C10359   5.255   8.704   4.960  0.6403  0.1381 -0.4029
   79MOL0     C10360   5.318   8.606   4.918 -0.3228 -0.9409 -0.4898
   79MOL0     C10361   4.610   9.104   4.925 -0.1060 -0.0498  0.5257
   79MOL0     C10362   4.483   9.149   4.886  0.3369 -1.0231  0.5758
   79MOL0     H10363   3.989   9.117   4.920 -2.0361  0.6750  0.7844
   79MOL0     H10364   3.769   9.206   4.886  0.0810 -0.1070 -1.2922
   79MOL0     H10365   3.583   9.354   4.902 -1.3371 -0.2515  0.0355
   79MOL0     H10366   3.582   9.245   4.765 -0.5164 -0.0991  0.7680
   79MOL0     H10367   3.481   9.435   4.630  1.2962 -1.4237 -0.4365
   79MOL0     H10368   3.476   9.528   4.781 -1.2490 -0.7999  0.5173
   79MOL0     H10369   3.366   9.346   4.901 -2.3129  0.3290  0.9956
   79MOL0     H10370   3.354   9.261   4.742  1.9339 -0.0734  1.6870
   79MOL0     H10371   3.205   9.542   4.797  0.2020  0.4626  0.6065
   79MOL0     H10372   3.153   9.427   4.679 -2.7893 -1.6168  1.5469
   79MOL0     H10373   3.163   9.407   4.977 -1.9290 -2.7995  2.6996
   79MOL0     H10374   3.135   9.257   4.881  2.9367  0.4886  1.6875
   79MOL0     H10375   2.929   9.333   4.786  2.7539 -0.7798 -1.6303
   79MOL0     H10376   2.957   9.500   4.844 -0.2999  0.3361 -1.3042
   79MOL0     H10377   2.896   9.246   4.994 -0.6014 -0.1380  0.6037
   79MOL0     H10378   2.948   9.375   5.084  2.2088 -3.4637 -0.7056
   79MOL0     H10379   2.788   9.520   5.013  3.0970  0.0562 -2.3402
   79MOL0     H10380   2.698   9.385   5.080 -3.2763  5.1493 -1.0010
   79MOL0     H10381   2.581   9.212   4.855  0.5787  0.0537 -0.5490
   79MOL0     H10382   2.501   9.172   4.595 -2.2650 -0.7897 -1.4599
   79MOL0     H10383   2.523   9.326   4.508  2.1210  2.4875  2.0737
   79MOL0     H10384   2.281   9.267   4.518  0.3141 -1.6332  1.4157
   79MOL0     H10385   2.332   9.424   4.591  3.4056  0.5913 -1.0640
   79MOL0     H10386   2.292   9.342   4.813 -0.1334 -0.4135  1.2323
   79MOL0     H10387   2.147   9.310   4.736  0.2545  0.3870 -1.5477
   79MOL0     H10388   2.384   9.106   4.750 -0.6630 -1.6949  1.5582
   79MOL0     H10389   2.207   9.069   4.719 -0.2481 -0.4260  0.0946
   79MOL0     H10390   2.238   8.884   5.030 -1.6145 -3.0207 -3.6596
   79MOL0     H10391   2.047   8.792   5.151 -0.6478 -0.5778  0.8275
   79MOL0     H10392   1.591   8.723   5.306 -1.1060  0.1541  2.0414
   79MOL0     H10393   1.376   8.675   5.373  0.5751  0.8943 -0.0485
   79MOL0     H10394   1.174   8.789   5.448 -2.8806  1.4912  0.4571
   79MOL0     H10395   1.154   8.622   5.384 -0.2944  0.6405 -0.8080
   79MOL0     H10396   0.951   8.838   5.416  2.8971  0.6586  4.4613
   79MOL0     H10397   0.951   8.688   5.502 -0.6914 -1.7305 -0.6192
   79MOL0     H10398   0.881   8.721   5.205 -1.3313  0.1175 -0.8955
   79MOL0     H10399   0.778   8.665   5.346 -0.5591  3.2709 -0.7363
   79MOL0     H10400   0.986   8.521   5.184  2.3114 -1.3806  2.0646
   79MOL0     H10401   0.960   8.467   5.349  0.0119  0.7968  1.1515
   79MOL0     H10402   0.824   8.343   5.195  0.9983 -0.5998  1.3745
   79MOL0     H10403   0.726   8.490   5.173 -2.5072 -1.7940  1.0967
   79MOL0     H10404   0.686   8.487   5.424 -0.4414  0.5374 -0.6134
   79MOL0     H10405   0.788   8.340   5.439  2.1338  1.4158 -0.6770
   79MOL0     H10406   0.519   8.373   5.278  2.0528  1.1750 -2.6640
   79MOL0     H10407   0.620   8.235   5.246  1.2941  2.2457 -1.2590
   79MOL0     H10408   0.544   8.325   5.514  0.8322  2.0412 -1.7130
   79MOL0     H10409   0.609   8.168   5.492 -0.7907 -0.2930 -0.3044
   79MOL0     H10410   1.215   8.932   5.063  0.2208  0.1518 -0.0313
   79MOL0     H10411   1.447   9.000   5.003  0.2395  1.3271  0.4184
   79MOL0     H10412   1.792   9.056   4.944 -0.4339 -2.6943  0.5930
   79MOL0     H10413   2.009   9.191   4.862  2.8925  0.6390 -0.3917
   79MOL0     H10414   3.918   9.456   4.568  1.5990  0.7955  0.0587
   79MOL0     H10415   4.143   9.388   4.626  0.2784  1.8404  0.9274
   79MOL0     H10416   4.522   9.100   4.550 -4.2229  1.6944  0.4325
   79MOL0     H10417   4.740   9.029   4.622 -0.5931 -0.4928 -1.3150
   79MOL0     H10418   4.793   8.896   5.050  0.8869  1.0469  2.4579
   79MOL0     H10419   4.821   9.060   5.080  0.7395  0.2323 -0.0982
   79MOL0     H10420   5.040   9.071   5.025 -3.0319  1.1079  0.4174
   79MOL0     H10421   5.009   8.938   5.144 -1.6681 -1.2770  0.0040
   79MOL0     H10422   5.087   8.895   4.845  0.7088 -0.6944 -0.7863
   79MOL0     H10423   5.005   8.774   4.948  0.4741 -0.9192  2.5322
   79MOL0     H10424   5.259   8.911   5.023 -0.3747  1.1289  0.7661
   79MOL0     H10425   5.174   8.798   5.124  2.4695  0.4945  0.1249
   79MOL0     H10426   5.375   8.518   4.893  1.8657  0.7128 -1.6060
   79MOL0     H10427   4.627   9.110   5.032 -0.1275 -0.8254  0.5840
   79MOL0     H10428   4.419   9.184   4.967  0.6478 -1.6254  1.0883
   80MOL0     O10429  10.065  11.201   2.113  0.7070  0.0415  0.0823
   80MOL0     C10430  10.086  11.273   2.016 -0.5700  0.4208  0.2542
   80MOL0     O10431  10.067  11.240   1.885 -0.3120  0.1751  0.1448
   80MOL0     C10432   9.998  11.124   1.856  0.0431 -0.8680 -0.3681
   80MOL0     C10433   9.886  11.073   1.923  0.7430  0.2135 -0.3595
   80MOL0     C10434   9.810  10.964   1.871 -0.8346  0.4505 -0.2444
   80MOL0     C10435   9.856  10.905   1.751  0.3073  0.1003  0.0915
   80MOL0     O10436   9.807  10.795   1.698  0.6667 -0.4604  0.2247
   80MOL0     C10437   9.667  10.771   1.711 -0.7898 -0.0577 -0.1247
   80MOL0     C10438   9.628  10.664   1.604 -0.7745 -0.5254  0.0299
   80MOL0     C10439   9.662  10.699   1.461 -0.1435  0.2654 -0.2462
   80MOL0     C10440   9.813  10.673   1.428 -0.1872  0.0590  0.5477
   80MOL0     C10441   9.829  10.667   1.271  0.2010  0.3584 -0.1562
   80MOL0     C10442   9.978  10.662   1.226  1.1625  0.3733  0.2035
   80MOL0     C10443  10.052  10.533   1.264 -0.1844  0.4670 -1.3770
   80MOL0     C10444  10.196  10.537   1.201  0.4801 -0.0010 -0.0228
   80MOL0     N10445  10.263  10.404   1.229  0.8889  0.1108 -0.4441
   80MOL0     C10446  10.256  10.298   1.144  1.1476  0.0210  0.0744
   80MOL0     C10447  10.270  10.193   1.231  1.5318 -0.6079  0.3610
   80MOL0     C10448  10.258  10.050   1.182  0.0168  0.1511 -0.3635
   80MOL0     C10449  10.207   9.956   1.288  0.2030  0.2230  0.4284
   80MOL0     C10450  10.070   9.984   1.352 -0.3414  0.9327 -0.5553
   80MOL0     C10451   9.957  10.011   1.253 -0.4986 -0.1511 -0.7956
   80MOL0     O10452   9.942   9.900   1.165 -0.4514  0.5937 -0.2417
   80MOL0     C10453   9.834   9.906   1.077 -0.4877 -1.1835 -0.0125
   80MOL0     C10454   9.819   9.793   1.004 -0.2344  1.1897  0.4048
   80MOL0     C10455   9.733   9.784   0.892  0.1285 -0.5933  0.2885
   80MOL0     C10456   9.639   9.889   0.878  0.1903 -0.3081 -0.4908
   80MOL0     C10457   9.531   9.881   0.775  0.3928 -0.2280  0.2765
   80MOL0     O10458   9.453   9.992   0.750 -0.3113 -0.2692 -0.1927
   80MOL0     C10459   9.353   9.979   0.662  0.1663  0.6776  0.1212
   80MOL0     C10460   9.383  10.013   0.524  0.3974  0.4500 -1.0111
   80MOL0     C10461   9.278  10.012   0.433  1.0561 -0.4916  0.1421
   80MOL0     C10462   9.147   9.983   0.461  0.4140  0.3780 -0.6910
   80MOL0     O10463   9.048   9.974   0.365  0.0868 -0.5006 -0.1988
   80MOL0     C10464   8.910   9.975   0.406  0.3135  0.1980 -0.2254
   80MOL0     C10465   8.831   9.995   0.279  0.3946 -0.0906 -0.2574
   80MOL0     C10466   8.682   9.991   0.298  0.6336  0.7282  0.0199
   80MOL0     C10467   8.606  10.030   0.185  0.4048 -0.4490  0.9019
   80MOL0     C10468   8.456  10.052   0.201  0.1603  0.1750 -0.0743
   80MOL0     C10469   8.396  10.122   0.074 -0.7141  0.4909  0.3365
   80MOL0     C10470   8.251  10.162   0.109  0.6952 -0.4958 -0.1192
   80MOL0     C10471   8.183  10.211  -0.012  0.2690 -0.9960 -0.2290
   80MOL0    Cl10472   8.023  10.286   0.049  0.0963 -0.2215  0.5120
   80MOL0     C10473   9.120   9.942   0.596  0.0854 -0.0854  0.1100
   80MOL0     C10474   9.220   9.941   0.695 -0.5021 -0.1132 -0.5161
   80MOL0     O10475   9.518   9.776   0.710 -0.0804  0.4831  0.3624
   80MOL0     C10476   9.636  10.002   0.961 -0.7225  0.0249 -0.1394
   80MOL0     C10477   9.742  10.013   1.053  0.1824 -0.4910 -0.3726
   80MOL0     N10478  10.280  10.239   1.363  0.2691  0.6199 -0.2450
   80MOL0     N10479  10.280  10.366   1.364  0.0472 -0.1416  1.0703
   80MOL0     C10480   9.967  10.960   1.688  0.5962  0.4372  0.1348
   80MOL0     C10481  10.037  11.065   1.734 -0.2858  0.3936  0.2097
   80MOL0     C10482  10.176  11.389   2.021 -0.0513  0.7054 -0.9501
   80MOL0     C10483  10.227  11.453   1.901 -0.2023  0.8874 -0.3868
   80MOL0     C10484  10.309  11.561   1.913 -0.1879 -0.7110 -0.1421
   80MOL0     C10485  10.323  11.626   2.029  0.5066  0.2751 -0.5696
   80MOL0     O10486  10.377  11.750   2.050 -0.0741  0.2910 -0.0446
   80MOL0     C10487  10.422  11.818   1.929 -0.2517  0.5800  0.2753
   80MOL0     C10488  10.477  11.955   1.955 -0.3899  0.1231 -0.4978
   80MOL0     C10489  10.376  12.045   2.020  0.0513  0.5313 -0.4961
   80MOL0     C10490  10.406  12.197   2.007 -0.1544 -0.2072  0.7293
   80MOL0     C10491  10.534  12.237   2.041 -0.5426 -0.2158  0.0378
   80MOL0     C10492  10.641  12.285   2.081 -0.1160  0.0134  0.2949
   80MOL0     C10493  10.272  11.568   2.142  0.3272  0.0797  0.5910
   80MOL0     C10494  10.214  11.437   2.141  0.2780 -0.8853 -0.3165
   80MOL0     H10495   9.848  11.120   2.013 -0.8449 -1.3127 -0.1849
   80MOL0     H10496   9.721  10.925   1.920 -1.4147  1.6664 -0.3062
   80MOL0     H10497   9.609  10.860   1.687 -1.1960 -0.2831  0.0153
   80MOL0     H10498   9.651  10.730   1.811  1.0848  1.4683  0.8772
   80MOL0     H10499   9.521  10.646   1.615 -0.6316 -2.8783 -1.5199
   80MOL0     H10500   9.689  10.577   1.631  1.2998  0.3025 -1.7156
   80MOL0     H10501   9.629  10.803   1.450 -1.5475  0.1170  1.8705
   80MOL0     H10502   9.601  10.632   1.400 -0.0057 -0.2388  0.1576
   80MOL0     H10503   9.872  10.752   1.474  1.4770 -1.4298  1.0997
   80MOL0     H10504   9.853  10.578   1.465 -1.9368 -0.5306  1.0406
   80MOL0     H10505   9.794  10.762   1.230  2.9018  2.6660  2.4118
   80MOL0     H10506   9.786  10.572   1.238  3.3121 -0.9616 -0.7882
   80MOL0     H10507  10.029  10.749   1.269 -0.8707  0.3221  2.9917
   80MOL0     H10508   9.976  10.658   1.116 -1.9154 -2.6488  0.2050
   80MOL0     H10509  10.059  10.523   1.373  3.1553  0.2877 -1.5014
   80MOL0     H10510   9.998  10.451   1.216  0.8030 -2.0538  1.4760
   80MOL0     H10511  10.253  10.619   1.245  0.2613  1.1054 -1.7112
   80MOL0     H10512  10.192  10.553   1.092  0.7657  0.9402  0.0996
   80MOL0     H10513  10.238  10.293   1.037  1.2415  1.9040 -0.0515
   80MOL0     H10514  10.359  10.021   1.151  1.1400 -0.0771  3.0303
   80MOL0     H10515  10.194  10.047   1.094  0.5896 -0.7163 -0.7605
   80MOL0     H10516  10.273   9.935   1.373  0.7241 -1.3361 -0.3263
   80MOL0     H10517  10.204   9.858   1.240  2.4230  0.0968  0.4603
   80MOL0     H10518  10.048   9.890   1.405  0.7385  1.8504  1.6198
   80MOL0     H10519  10.085  10.062   1.427  1.8385 -0.1173  0.1891
   80MOL0     H10520   9.975  10.101   1.193 -0.3163  0.3801  0.0448
   80MOL0     H10521   9.863  10.023   1.308 -1.1761 -1.1101 -1.7203
   80MOL0     H10522   9.893   9.716   1.023 -0.7245  0.7024  0.3954
   80MOL0     H10523   9.723   9.700   0.824  0.9992 -0.3483 -0.1533
   80MOL0     H10524   9.479  10.050   0.491 -1.5152  6.2719 -1.2367
   80MOL0     H10525   9.290  10.037   0.328  0.9404 -0.7696  0.0617
   80MOL0     H10526   8.887  10.057   0.473  0.8911 -1.1469  1.7137
   80MOL0     H10527   8.884   9.878   0.449 -0.3785  1.0991  1.4567
   80MOL0     H10528   8.861   9.909   0.219  0.2033 -0.2384 -0.1419
   80MOL0     H10529   8.866  10.089   0.234 -0.3816  0.0264 -0.6400
   80MOL0     H10530   8.655  10.051   0.385  0.9820 -2.2113  2.3133
   80MOL0     H10531   8.662   9.889   0.331 -0.7899  1.0591  0.2574
   80MOL0     H10532   8.647  10.127   0.155  2.8999 -1.8790 -0.7058
   80MOL0     H10533   8.631   9.963   0.102  0.1639 -1.0651  1.3240
   80MOL0     H10534   8.445  10.105   0.296  3.2635 -1.5916  1.4586
   80MOL0     H10535   8.408   9.954   0.209  1.8504 -0.6085  1.2077
   80MOL0     H10536   8.397  10.047  -0.005  1.7602  0.8325 -0.0388
   80MOL0     H10537   8.455  10.208   0.041 -0.2793 -0.0966 -0.4437
   80MOL0     H10538   8.190  10.089   0.164  0.7033 -0.9596 -0.7152
   80MOL0     H10539   8.271  10.244   0.179  0.3076  1.2999 -2.0049
   80MOL0     H10540   8.179  10.129  -0.084  4.5499 -2.2538  0.6530
   80MOL0     H10541   8.261  10.277  -0.051 -0.4653 -0.3874 -0.6930
   80MOL0     H10542   9.024   9.921   0.641 -0.2072  1.7943  0.4571
   80MOL0     H10543   9.194   9.923   0.799  1.1089  2.7014  0.4818
   80MOL0     H10544   9.574  10.088   0.938  2.5984  1.8893 -3.2785
   80MOL0     H10545   9.751  10.098   1.120 -0.3727 -1.9776  1.7029
   80MOL0     H10546  10.004  10.902   1.604 -0.1468 -0.5191  0.4477
   80MOL0     H10547  10.123  11.091   1.673  2.3243 -1.5301  2.7201
   80MOL0     H10548  10.206  11.399   1.809 -2.3400 -3.4832  2.2912
   80MOL0     H10549  10.322  11.621   1.824  0.2860 -1.1987 -0.4095
   80MOL0     H10550  10.345  11.826   1.851 -0.4865  0.4445  0.4925
   80MOL0     H10551  10.494  11.751   1.881 -0.5352  0.4290  0.0549
   80MOL0     H10552  10.572  11.956   2.010 -0.8996  0.1106  0.4083
   80MOL0     H10553  10.511  11.990   1.857  3.4999 -0.6926  0.4053
   80MOL0     H10554  10.365  12.018   2.126 -1.7563 -1.2567 -1.0829
   80MOL0     H10555  10.281  12.008   1.982  1.9787 -2.0177 -3.2514
   80MOL0     H10556  10.382  12.227   1.905 -1.6094 -1.2547  0.7267
   80MOL0     H10557  10.331  12.244   2.072 -1.3362  1.1025 -1.4467
   80MOL0     H10558  10.725  12.338   2.122 -0.0381  2.1917 -2.3593
   80MOL0     H10559  10.283  11.623   2.235 -2.0255  1.6488  0.0116
   80MOL0     H10560  10.176  11.393   2.232 -1.8665 -3.5887 -2.3366
   81MOL0     O10561   2.881   6.288   1.533  0.0192  0.3276 -0.4646
   81MOL0     C10562   2.888   6.366   1.626  0.9282 -0.8262 -0.3151
   81MOL0     O10563   2.791   6.383   1.727 -0.3451  0.5435  0.4233
   81MOL0     C10564   2.669   6.320   1.715  0.7336 -0.1444 -0.1831
   81MOL0     C10565   2.577   6.367   1.624  0.8114 -0.1259  0.3393
   81MOL0     C10566   2.450   6.314   1.615 -1.2402  0.6725  0.0535
   81MOL0     C10567   2.413   6.202   1.695 -0.0785 -0.0564  0.3713
   81MOL0     O10568   2.279   6.163   1.691 -0.6785 -0.2386 -0.2969
   81MOL0     C10569   2.180   6.208   1.596 -0.0744 -0.5401  0.0553
   81MOL0     C10570   2.047   6.127   1.619 -0.0366  0.1584 -0.4739
   81MOL0     C10571   1.964   6.183   1.733 -0.0243 -0.6308  0.0741
   81MOL0     C10572   1.876   6.083   1.790  0.0122  0.3210 -0.3895
   81MOL0     C10573   1.754   6.048   1.708  0.1242 -0.3802 -0.1702
   81MOL0     C10574   1.664   5.944   1.764  1.0295  0.2224  0.3466
   81MOL0     C10575   1.540   5.912   1.676  0.1080 -0.0294 -0.0601
   81MOL0     C10576   1.416   6.013   1.704  0.2491  0.6799 -0.0610
   81MOL0     N10577   1.302   5.957   1.639  1.0742  0.9399  0.4058
   81MOL0     C10578   1.277   5.948   1.500 -0.6526 -0.3249  0.3465
   81MOL0     C10579   1.157   5.873   1.498  0.4067 -0.4907 -1.1938
   81MOL0     C10580   1.073   5.844   1.381  1.7504  0.2574  0.6374
   81MOL0     C10581   0.923   5.820   1.412  0.9202 -0.2569 -0.5111
   81MOL0     C10582   0.851   5.745   1.294 -0.7560 -0.6558 -0.1366
   81MOL0     C10583   0.707   5.699   1.323  0.4802  0.5922 -0.1406
   81MOL0     O10584   0.657   5.591   1.242 -0.2221  0.1333  0.3823
   81MOL0     C10585   0.560   5.617   1.144 -0.3739 -0.2066 -0.1454
   81MOL0     C10586   0.549   5.736   1.064  0.4816 -0.3238  0.0794
   81MOL0     C10587   0.447   5.742   0.966  0.0792  0.2975 -0.3517
   81MOL0     C10588   0.345   5.650   0.959  0.6798 -0.1713 -0.2596
   81MOL0     C10589   0.219   5.675   0.877  0.2042  0.6182 -0.6266
   81MOL0     O10590   0.118   5.582   0.887  0.6769  0.4520  0.5141
   81MOL0     C10591   0.000   5.612   0.823  0.6359  0.4919  0.4287
   81MOL0     C10592   0.002   5.632   0.679 -0.4300  0.4807 -0.5520
   81MOL0     C10593  -0.125   5.662   0.611 -0.3756 -0.3944 -0.2758
   81MOL0     C10594  -0.245   5.679   0.684  0.3779  0.3213  0.6929
   81MOL0     O10595  -0.362   5.690   0.615  0.0812 -0.8958 -0.0489
   81MOL0     C10596  -0.486   5.711   0.684  0.1515  0.2092  0.8367
   81MOL0     C10597  -0.600   5.724   0.576 -0.3609 -0.2841  0.1740
   81MOL0     C10598  -0.622   5.869   0.531  0.3868  0.0924 -0.3962
   81MOL0     C10599  -0.516   5.941   0.451  0.4667  0.2957  0.2704
   81MOL0     C10600  -0.518   5.894   0.298  0.4274  0.0294 -0.3698
   81MOL0     C10601  -0.410   5.961   0.210 -0.5098 -0.0219 -0.5417
   81MOL0     C10602  -0.267   5.949   0.274  0.6463 -0.5483  0.6222
   81MOL0     C10603  -0.160   5.988   0.164  0.8277 -0.2078 -0.4072
   81MOL0    Cl10604  -0.006   5.976   0.231 -0.3658  0.1539  0.8335
   81MOL0     C10605  -0.236   5.664   0.823  0.6775 -0.6844 -0.4626
   81MOL0     C10606  -0.123   5.619   0.895  0.1123  0.3119  0.1228
   81MOL0     O10607   0.217   5.775   0.806 -0.4460 -0.2255  0.3982
   81MOL0     C10608   0.354   5.528   1.035 -0.0555 -0.0054  0.1875
   81MOL0     C10609   0.461   5.516   1.125  0.6286 -0.0758 -0.2176
   81MOL0     N10610   1.126   5.831   1.632  0.2552 -0.0240 -0.4810
   81MOL0     N10611   1.210   5.894   1.711  0.1890 -0.3088 -0.1692
   81MOL0     C10612   2.514   6.141   1.775 -0.0986  0.3427 -0.0717
   81MOL0     C10613   2.641   6.203   1.793  0.5553 -0.6932 -0.1960
   81MOL0     C10614   3.010   6.450   1.637  0.4998 -0.2341 -0.3616
   81MOL0     C10615   3.021   6.535   1.743 -0.5789 -0.7312 -0.9964
   81MOL0     C10616   3.142   6.588   1.776 -0.5153  0.1437 -0.9022
   81MOL0     C10617   3.249   6.572   1.697 -0.4514  0.2707  0.4534
   81MOL0     O10618   3.360   6.625   1.743 -0.9984 -0.9663 -0.2326
   81MOL0     C10619   3.461   6.645   1.629  0.0135  0.2679  0.9894
   81MOL0     C10620   3.556   6.521   1.591 -0.6673 -0.1592 -0.0150
   81MOL0     C10621   3.630   6.564   1.458 -0.1353  0.0341  0.5347
   81MOL0     C10622   3.741   6.461   1.418 -0.4662 -0.6257  0.2491
   81MOL0     C10623   3.825   6.509   1.314 -0.4114 -0.0785  0.0785
   81MOL0     C10624   3.893   6.567   1.228 -0.5039 -0.3818  0.2658
   81MOL0     C10625   3.231   6.504   1.567  0.6903 -0.4204 -1.2951
   81MOL0     C10626   3.111   6.444   1.540 -0.4045  0.0815  0.2808
   81MOL0     H10627   2.602   6.458   1.571  1.5919 -0.8723 -0.6260
   81MOL0     H10628   2.385   6.372   1.552 -1.6682  1.3757  1.1063
   81MOL0     H10629   2.212   6.196   1.492  0.0968 -0.5987  0.1139
   81MOL0     H10630   2.152   6.313   1.604  0.2311 -0.4436 -0.1327
   81MOL0     H10631   2.074   6.024   1.644  2.8772  0.9302 -0.0878
   81MOL0     H10632   1.993   6.124   1.523  1.4491  3.5621 -1.5831
   81MOL0     H10633   1.907   6.270   1.698  1.6698  0.7046  0.5297
   81MOL0     H10634   2.032   6.217   1.810 -0.4172  0.8066 -0.1892
   81MOL0     H10635   1.930   5.989   1.806  0.8212  0.7496 -0.5790
   81MOL0     H10636   1.847   6.110   1.892 -3.2410 -0.5327 -0.9834
   81MOL0     H10637   1.802   6.012   1.616 -0.4421 -0.3972 -0.4649
   81MOL0     H10638   1.710   6.146   1.689  2.5210  0.7812 -0.1572
   81MOL0     H10639   1.633   5.974   1.865  1.3579 -0.4680  0.6646
   81MOL0     H10640   1.719   5.849   1.759  0.2763 -0.2059  0.0294
   81MOL0     H10641   1.569   5.903   1.571 -1.5011  2.1221 -0.7479
   81MOL0     H10642   1.510   5.809   1.699  0.9897 -0.5555 -1.1643
   81MOL0     H10643   1.446   6.108   1.657 -0.5648  0.7198 -0.5122
   81MOL0     H10644   1.403   6.015   1.813 -0.9850  0.6725 -0.2001
   81MOL0     H10645   1.332   6.007   1.428 -2.2557  1.0316  0.1755
   81MOL0     H10646   1.111   5.745   1.352 -0.4207 -0.0475 -1.4739
   81MOL0     H10647   1.081   5.909   1.294 -0.9992 -0.1383  0.0051
   81MOL0     H10648   0.875   5.914   1.440  1.9405  0.4567 -1.1076
   81MOL0     H10649   0.917   5.753   1.498 -2.2458 -1.5617 -1.5929
   81MOL0     H10650   0.846   5.821   1.215  2.3789  1.2955  1.3361
   81MOL0     H10651   0.919   5.662   1.271  2.3792  1.5438  0.5267
   81MOL0     H10652   0.640   5.786   1.321  1.3817  1.2908 -1.3391
   81MOL0     H10653   0.690   5.654   1.422 -2.7611  0.8630 -0.4590
   81MOL0     H10654   0.610   5.824   1.085  0.8978 -0.5654 -0.0987
   81MOL0     H10655   0.437   5.831   0.904  1.2173  0.2104 -0.6715
   81MOL0     H10656   0.103   5.624   0.641  0.2662  0.6354  1.1724
   81MOL0     H10657  -0.121   5.675   0.503 -0.9114  1.1292 -0.1348
   81MOL0     H10658  -0.488   5.785   0.765 -1.5190  0.3664  0.6762
   81MOL0     H10659  -0.528   5.622   0.730  2.5501 -0.7604  1.2888
   81MOL0     H10660  -0.700   5.701   0.616 -0.6770  3.0454  1.6274
   81MOL0     H10661  -0.579   5.656   0.493 -0.9422  1.6478 -1.6268
   81MOL0     H10662  -0.623   5.928   0.624  1.7111  0.3206 -0.5078
   81MOL0     H10663  -0.720   5.876   0.482  1.5276  1.7920 -2.6201
   81MOL0     H10664  -0.525   6.050   0.450  2.1380  0.4791 -0.7857
   81MOL0     H10665  -0.421   5.927   0.503  0.6532  0.8054  0.0779
   81MOL0     H10666  -0.619   5.905   0.257  0.8696  1.6327 -1.1286
   81MOL0     H10667  -0.502   5.786   0.298 -0.8781 -0.2405 -2.8383
   81MOL0     H10668  -0.440   6.066   0.202  0.1962  0.4203  1.7501
   81MOL0     H10669  -0.417   5.915   0.111  0.3822 -2.1425  0.3166
   81MOL0     H10670  -0.261   6.025   0.353 -0.0370  0.5291 -0.3263
   81MOL0     H10671  -0.244   5.849   0.312  1.7341 -0.1897  0.9224
   81MOL0     H10672  -0.190   6.084   0.119 -0.1365 -0.4672 -0.3478
   81MOL0     H10673  -0.165   5.915   0.083  0.6917 -2.1559  1.3000
   81MOL0     H10674  -0.320   5.680   0.890 -0.5821  2.3994 -2.5852
   81MOL0     H10675  -0.117   5.602   1.002  0.8137 -1.8338 -0.2041
   81MOL0     H10676   0.283   5.449   1.016 -0.7801  0.7975 -0.5667
   81MOL0     H10677   0.486   5.428   1.184  3.4734  0.0502 -1.0749
   81MOL0     H10678   2.484   6.063   1.844 -2.9129  1.7364  0.4211
   81MOL0     H10679   2.722   6.169   1.857  0.3169  0.6284  0.8437
   81MOL0     H10680   2.933   6.568   1.797 -0.0673  2.4401 -1.8727
   81MOL0     H10681   3.161   6.640   1.870 -0.7740 -2.1267  0.5023
   81MOL0     H10682   3.522   6.730   1.661 -1.0838  1.8989 -1.0012
   81MOL0     H10683   3.423   6.694   1.539  2.4986 -0.0629 -0.3372
   81MOL0     H10684   3.631   6.499   1.667  0.9890  3.2910 -0.4502
   81MOL0     H10685   3.499   6.428   1.578 -0.4666 -0.0877 -1.6529
   81MOL0     H10686   3.678   6.662   1.453  1.0744 -0.5945 -0.7602
   81MOL0     H10687   3.556   6.553   1.378 -0.7934 -0.3954  1.1882
   81MOL0     H10688   3.804   6.429   1.502 -2.1578 -2.5736  0.8377
   81MOL0     H10689   3.688   6.370   1.389 -0.8303 -0.2812 -0.1738
   81MOL0     H10690   3.949   6.610   1.147  1.5256 -2.0169  0.7176
   81MOL0     H10691   3.310   6.478   1.497 -0.2256  0.3457 -2.6400
   81MOL0     H10692   3.105   6.380   1.452 -1.4326  0.4017  0.1064
   82MOL0     O10693   4.654   7.118   5.592  0.0207 -0.0020  0.4971
   82MOL0     C10694   4.712   7.128   5.701  0.1582  0.3905  0.2969
   82MOL0     O10695   4.656   7.132   5.830 -0.1154  0.5079  0.5406
   82MOL0     C10696   4.518   7.146   5.855 -0.6814  0.2170 -0.3047
   82MOL0     C10697   4.467   7.237   5.946 -0.2443 -0.2138 -0.0779
   82MOL0     C10698   4.329   7.237   5.963  0.0547 -0.0382  1.0159
   82MOL0     C10699   4.241   7.152   5.896 -0.2407  0.9152  0.0271
   82MOL0     O10700   4.109   7.150   5.944  0.1332  0.0253 -0.2761
   82MOL0     C10701   4.009   7.095   5.860  0.0462  0.2078  0.0437
   82MOL0     C10702   3.871   7.154   5.867  0.1417 -0.1250  0.1688
   82MOL0     C10703   3.877   7.307   5.882  0.1062 -0.2729 -0.3738
   82MOL0     C10704   3.729   7.367   5.867 -0.3869  1.0515 -0.8202
   82MOL0     C10705   3.735   7.511   5.891  0.1646  0.5389 -0.1326
   82MOL0     C10706   3.611   7.590   5.852  0.2587 -0.2255 -0.4399
   82MOL0     C10707   3.471   7.538   5.902 -0.4174 -0.8657  1.1108
   82MOL0     C10708   3.430   7.581   6.043  0.2493 -0.3970 -0.1752
   82MOL0     N10709   3.475   7.480   6.137  0.9510  0.0556  0.5031
   82MOL0     C10710   3.443   7.351   6.125 -0.1735 -0.4466 -0.9609
   82MOL0     C10711   3.522   7.293   6.220  0.4849  0.4477  0.3884
   82MOL0     C10712   3.541   7.146   6.260  0.1329 -0.3509  0.1796
   82MOL0     C10713   3.411   7.095   6.339  0.0256  0.4101  0.1077
   82MOL0     C10714   3.409   7.132   6.488  0.1591 -0.5409 -0.0202
   82MOL0     C10715   3.291   7.079   6.562 -0.8659 -0.1978 -0.0837
   82MOL0     O10716   3.165   7.145   6.525  0.0169  0.2913 -0.0390
   82MOL0     C10717   3.053   7.122   6.613 -0.6187 -0.3040 -0.3864
   82MOL0     C10718   2.937   7.197   6.587 -0.6287 -0.1737  0.6334
   82MOL0     C10719   2.828   7.182   6.663 -0.5556  0.5219 -0.6375
   82MOL0     C10720   2.818   7.072   6.755 -0.3090 -0.5563 -0.7933
   82MOL0     C10721   2.690   7.044   6.826  0.2501  0.8299 -0.4908
   82MOL0     O10722   2.581   7.112   6.796  0.8443  0.7265 -0.3318
   82MOL0     C10723   2.457   7.069   6.837 -0.3502 -0.3210 -0.5215
   82MOL0     C10724   2.375   7.170   6.897  0.7540  0.4942  0.1609
   82MOL0     C10725   2.239   7.137   6.934  0.4614  0.4825  0.2665
   82MOL0     C10726   2.192   7.003   6.921 -0.0787 -0.5943 -0.4260
   82MOL0     O10727   2.069   6.972   6.955  0.5488 -0.3097  0.0887
   82MOL0     C10728   2.019   6.838   6.926  0.0615 -0.6559  0.1813
   82MOL0     C10729   1.874   6.814   6.954 -0.3320  0.4725 -0.0544
   82MOL0     C10730   1.861   6.826   7.107  0.2910  0.3566 -0.2894
   82MOL0     C10731   1.729   6.782   7.170  0.8746  0.2529 -0.1251
   82MOL0     C10732   1.740   6.805   7.319  0.7063 -0.3116 -0.4225
   82MOL0     C10733   1.618   6.784   7.402 -0.6302 -0.4240 -0.1405
   82MOL0     C10734   1.500   6.884   7.364 -0.0305 -0.3348  0.2585
   82MOL0     C10735   1.370   6.894   7.451  0.4802  0.3792 -0.4500
   82MOL0    Cl10736   1.324   6.745   7.541  0.1686 -0.0223  0.0030
   82MOL0     C10737   2.278   6.905   6.868  0.8522 -0.4796 -0.5499
   82MOL0     C10738   2.405   6.942   6.825 -0.1933  0.2151  0.0413
   82MOL0     O10739   2.695   6.942   6.894  0.0773  0.1781  0.1673
   82MOL0     C10740   2.936   6.989   6.775  0.5499 -0.0199 -0.3405
   82MOL0     C10741   3.048   7.016   6.701 -0.1833  0.2285  0.2236
   82MOL0     N10742   3.574   7.404   6.304 -0.2121  1.1009  0.0990
   82MOL0     N10743   3.555   7.511   6.243 -0.0716  0.7143  0.3093
   82MOL0     C10744   4.291   7.053   5.816 -0.6279 -0.5884  0.0488
   82MOL0     C10745   4.428   7.056   5.790 -0.5910 -0.3969 -0.2778
   82MOL0     C10746   4.859   7.144   5.689  0.1314  0.3567  0.0816
   82MOL0     C10747   4.943   7.161   5.807 -1.1675 -0.1206  0.3168
   82MOL0     C10748   5.079   7.175   5.791  0.1402 -0.4604 -0.4255
   82MOL0     C10749   5.136   7.187   5.665 -0.7612 -0.3721  0.1615
   82MOL0     O10750   5.276   7.215   5.647  0.3054  0.1841  0.3396
   82MOL0     C10751   5.374   7.156   5.737 -0.3831 -0.6037 -0.0221
   82MOL0     C10752   5.512   7.176   5.672  1.1508 -0.0085  0.4443
   82MOL0     C10753   5.625   7.111   5.754  0.1374 -0.2867  0.4046
   82MOL0     C10754   5.667   7.193   5.874 -0.1178 -0.7805  0.4166
   82MOL0     C10755   5.755   7.108   5.956  0.2559  0.2805  0.3157
   82MOL0     C10756   5.799   7.016   6.010 -0.7790  0.1671  0.4525
   82MOL0     C10757   5.058   7.160   5.552 -0.1980  0.9589 -0.3454
   82MOL0     C10758   4.924   7.149   5.563 -0.2014  0.1150 -0.5010
   82MOL0     H10759   4.539   7.302   5.996 -1.0806  1.0666 -0.4812
   82MOL0     H10760   4.286   7.306   6.035 -1.8509 -1.9941  1.8879
   82MOL0     H10761   4.010   6.987   5.875  1.5477  0.3786  1.4013
   82MOL0     H10762   4.039   7.118   5.757 -2.2483 -1.1420 -1.0294
   82MOL0     H10763   3.814   7.115   5.952  0.8498  0.2930  0.8426
   82MOL0     H10764   3.815   7.135   5.775 -1.1285  1.7677  0.4806
   82MOL0     H10765   3.945   7.340   5.803  1.3170 -1.0843  0.2944
   82MOL0     H10766   3.924   7.341   5.974  3.0390  0.3066 -1.9548
   82MOL0     H10767   3.688   7.355   5.766  0.0492 -2.0736 -0.7194
   82MOL0     H10768   3.660   7.323   5.939 -0.8366  3.4100  0.3125
   82MOL0     H10769   3.820   7.547   5.833 -0.6452  0.8482 -1.1462
   82MOL0     H10770   3.749   7.524   5.999  1.2366  1.1391 -0.3292
   82MOL0     H10771   3.599   7.605   5.744 -3.4310 -0.5570 -0.1979
   82MOL0     H10772   3.626   7.686   5.901  2.1575 -0.7362  0.0485
   82MOL0     H10773   3.400   7.583   5.831  2.6961 -1.0023 -2.4588
   82MOL0     H10774   3.456   7.431   5.885 -0.9268 -0.9583  2.0603
   82MOL0     H10775   3.323   7.599   6.052  0.0130 -0.3432 -2.5218
   82MOL0     H10776   3.469   7.681   6.066  1.9307 -0.4738 -2.3667
   82MOL0     H10777   3.387   7.291   6.055 -1.1261  1.2880 -1.7614
   82MOL0     H10778   3.634   7.141   6.318  1.3211 -0.8957 -1.6672
   82MOL0     H10779   3.559   7.096   6.164  0.1934  0.0996 -0.0437
   82MOL0     H10780   3.404   6.987   6.329 -0.5719  0.2369  2.0254
   82MOL0     H10781   3.331   7.148   6.286  0.6639  0.6387 -0.6544
   82MOL0     H10782   3.492   7.082   6.539  0.3861 -0.0955  0.0522
   82MOL0     H10783   3.419   7.241   6.487 -1.4258 -0.3611 -1.2258
   82MOL0     H10784   3.304   7.068   6.670  1.5732 -2.2780 -0.4821
   82MOL0     H10785   3.279   6.973   6.536  2.0125 -0.5470 -0.4119
   82MOL0     H10786   2.952   7.268   6.507 -1.0125  1.0899  1.6509
   82MOL0     H10787   2.751   7.258   6.661 -0.4172  1.0615  3.8569
   82MOL0     H10788   2.416   7.270   6.906  1.8517 -0.0746  1.8776
   82MOL0     H10789   2.171   7.208   6.979 -0.0503  0.7119 -0.8322
   82MOL0     H10790   2.073   6.770   6.991  0.5616  0.1554  0.6247
   82MOL0     H10791   2.021   6.818   6.818 -1.6646 -1.5855  0.2840
   82MOL0     H10792   1.825   6.726   6.911 -0.3526  0.4514  0.0115
   82MOL0     H10793   1.816   6.895   6.910 -0.5038  1.2102  1.4678
   82MOL0     H10794   1.877   6.929   7.140  0.7106 -0.1883  1.3276
   82MOL0     H10795   1.936   6.764   7.159  0.4869 -1.4269 -2.5094
   82MOL0     H10796   1.645   6.839   7.130  1.1595 -0.2592 -1.5163
   82MOL0     H10797   1.707   6.678   7.143 -0.5384  1.2024 -3.0674
   82MOL0     H10798   1.777   6.906   7.337  0.6783 -0.1994 -0.9696
   82MOL0     H10799   1.822   6.740   7.349  1.9282  1.9215  1.3920
   82MOL0     H10800   1.640   6.814   7.505  0.0058  1.9677 -0.9072
   82MOL0     H10801   1.576   6.684   7.410 -3.9162  0.7690 -0.7244
   82MOL0     H10802   1.536   6.985   7.344 -1.2081 -0.3636 -2.4994
   82MOL0     H10803   1.466   6.852   7.264 -0.4254 -1.2724  0.6816
   82MOL0     H10804   1.286   6.930   7.390  0.7005 -1.1321 -1.6978
   82MOL0     H10805   1.396   6.971   7.525  1.5700 -0.4064  0.0071
   82MOL0     H10806   2.234   6.810   6.840 -1.7003  0.5164 -0.1982
   82MOL0     H10807   2.464   6.867   6.773 -1.9452 -0.0813 -1.6099
   82MOL0     H10808   2.922   6.902   6.838 -2.3771  1.0864  0.7319
   82MOL0     H10809   3.135   6.951   6.709 -0.6237 -0.2490  1.4331
   82MOL0     H10810   4.231   6.986   5.756  0.1870  1.0578 -2.8725
   82MOL0     H10811   4.471   6.986   5.718 -1.5760 -2.9272  1.4417
   82MOL0     H10812   4.917   7.168   5.912  0.6150  2.1053  0.6928
   82MOL0     H10813   5.133   7.160   5.884  2.0633 -3.3988 -1.8685
   82MOL0     H10814   5.352   7.049   5.737 -0.4182 -0.6398 -1.8042
   82MOL0     H10815   5.367   7.207   5.834 -4.2037  0.6420 -0.7537
   82MOL0     H10816   5.517   7.134   5.571  1.7664  1.4774 -0.1703
   82MOL0     H10817   5.517   7.285   5.665  0.3388 -0.0277 -0.8013
   82MOL0     H10818   5.713   7.102   5.689  0.5138  0.1218  0.8463
   82MOL0     H10819   5.591   7.016   5.794  1.9290 -2.2134 -2.2592
   82MOL0     H10820   5.715   7.287   5.849 -2.4947  0.8868  1.7351
   82MOL0     H10821   5.579   7.223   5.931 -1.4683  3.6902 -3.4739
   82MOL0     H10822   5.836   6.926   6.056  2.3130 -0.0624 -2.1485
   82MOL0     H10823   5.109   7.143   5.457 -2.4003 -0.9010 -1.2825
   82MOL0     H10824   4.865   7.137   5.473  1.1380 -0.7934 -1.2863
   83MOL0     O10825   0.235   0.068   3.222  0.5268  0.0007 -0.6063
   83MOL0     C10826   0.281   0.060   3.339 -0.4834 -0.4177  0.7273
   83MOL0     O10827   0.396   0.119   3.374  0.0304  0.3015  0.3134
   83MOL0     C10828   0.457   0.198   3.275  0.1307 -0.1658 -0.8163
   83MOL0     C10829   0.501   0.157   3.145  0.3880  0.1109 -0.1640
   83MOL0     C10830   0.570   0.250   3.069 -0.4544  1.0037 -0.2516
   83MOL0     C10831   0.597   0.388   3.100  0.7775  0.2741  0.0796
   83MOL0     O10832   0.657   0.455   2.992 -0.5888 -0.1010  0.1068
   83MOL0     C10833   0.665   0.606   2.993 -0.0868  0.6708  0.0018
   83MOL0     C10834   0.741   0.653   2.865 -0.1545  0.0769 -0.8367
   83MOL0     C10835   0.670   0.604   2.742 -0.7524 -0.1965  0.0819
   83MOL0     C10836   0.552   0.681   2.692 -0.0472 -0.1788 -0.3348
   83MOL0     C10837   0.468   0.601   2.590 -0.1831 -0.6685  0.3945
   83MOL0     C10838   0.360   0.706   2.527 -0.1512  0.0376 -0.6599
   83MOL0     C10839   0.250   0.626   2.455  0.4131  0.3341 -0.3863
   83MOL0     C10840   0.119   0.703   2.399 -0.0156 -0.3297 -0.2989
   83MOL0     N10841   0.010   0.705   2.493 -0.7332  0.9194 -0.4619
   83MOL0     C10842  -0.066   0.594   2.519  0.6760 -0.4679  0.0018
   83MOL0     C10843  -0.142   0.635   2.616 -0.0800 -0.2021 -0.1593
   83MOL0     C10844  -0.241   0.555   2.693  1.3978 -0.3102 -0.2533
   83MOL0     C10845  -0.378   0.595   2.648 -0.6306 -0.0999  0.3951
   83MOL0     C10846  -0.482   0.537   2.749 -0.4447  0.1816 -0.1537
   83MOL0     C10847  -0.615   0.588   2.723  0.4154  0.7034 -0.8466
   83MOL0     O10848  -0.689   0.528   2.826 -0.3146  0.4685  0.4800
   83MOL0     C10849  -0.817   0.571   2.832  0.6183  0.3587 -0.2201
   83MOL0     C10850  -0.911   0.478   2.785 -0.1606 -0.3415 -0.0386
   83MOL0     C10851  -1.042   0.508   2.759  0.3761 -0.4564 -0.9023
   83MOL0     C10852  -1.093   0.629   2.805  0.1632 -0.0011  1.0836
   83MOL0     C10853  -1.236   0.663   2.789 -0.0480 -0.1531  0.2069
   83MOL0     O10854  -1.306   0.575   2.709 -0.1463 -0.3253  0.5604
   83MOL0     C10855  -1.438   0.605   2.673 -0.4520 -0.6092 -0.5814
   83MOL0     C10856  -1.507   0.499   2.636  0.4071  1.0079 -0.0858
   83MOL0     C10857  -1.626   0.503   2.564  1.1045 -0.0544  0.5915
   83MOL0     C10858  -1.691   0.627   2.546 -0.3033  0.3976  0.3460
   83MOL0     O10859  -1.817   0.627   2.481  0.0001  0.0382  0.9950
   83MOL0     C10860  -1.807   0.583   2.342  0.0717  0.1298 -0.4844
   83MOL0     C10861  -1.939   0.602   2.267  0.3036 -0.6382 -0.1080
   83MOL0     C10862  -1.918   0.581   2.112  0.5746  0.6397 -0.5653
   83MOL0     C10863  -2.058   0.607   2.042 -0.3129 -0.8067 -0.6884
   83MOL0     C10864  -2.099   0.487   1.956 -0.6658 -0.6246  0.4365
   83MOL0     C10865  -2.246   0.482   1.923  0.3960 -0.4902  0.4330
   83MOL0     C10866  -2.303   0.604   1.839 -0.5082 -0.5613 -0.2804
   83MOL0     C10867  -2.256   0.601   1.692  0.2887 -0.3171 -0.3356
   83MOL0    Cl10868  -2.351   0.704   1.577 -0.2607 -0.0444  0.0874
   83MOL0     C10869  -1.624   0.738   2.596 -0.3545  0.0719  0.1064
   83MOL0     C10870  -1.497   0.732   2.656  0.2036 -0.1767 -0.2912
   83MOL0     O10871  -1.275   0.771   2.829  0.7173  0.3853 -0.3583
   83MOL0     C10872  -1.003   0.723   2.852 -0.4831 -0.3665  0.2697
   83MOL0     C10873  -0.864   0.696   2.868  0.1801  0.9843  0.3128
   83MOL0     N10874  -0.129   0.780   2.640 -0.5182  0.3298  0.1833
   83MOL0     N10875  -0.031   0.811   2.567 -0.2312 -0.5654 -0.0276
   83MOL0     C10876   0.538   0.430   3.217  0.0001  0.0564 -0.1385
   83MOL0     C10877   0.485   0.333   3.304  0.1170 -0.6311 -0.0039
   83MOL0     C10878   0.206  -0.019   3.430 -0.3888  0.8318  0.0640
   83MOL0     C10879   0.264  -0.053   3.550  0.1713 -0.1188 -0.2421
   83MOL0     C10880   0.199  -0.141   3.641 -0.0750 -0.4728  0.5400
   83MOL0     C10881   0.080  -0.198   3.604 -0.3439  0.7320 -0.3718
   83MOL0     O10882   0.043  -0.292   3.697 -0.7288  0.3277  0.5825
   83MOL0     C10883  -0.080  -0.365   3.681  0.4633  0.4520  0.5727
   83MOL0     C10884  -0.192  -0.290   3.742  0.3826  0.1302  0.7459
   83MOL0     C10885  -0.165  -0.288   3.893  0.7751 -0.5780  0.2647
   83MOL0     C10886  -0.288  -0.225   3.970 -0.2251  0.1590  0.5443
   83MOL0     C10887  -0.303  -0.083   3.937 -0.0762 -0.4763  0.6700
   83MOL0     C10888  -0.330   0.029   3.907 -0.7771 -0.3422 -0.2413
   83MOL0     C10889   0.013  -0.152   3.489 -0.7873  0.7300 -1.4665
   83MOL0     C10890   0.069  -0.057   3.407 -0.5559  0.2413  0.4758
   83MOL0     H10891   0.494   0.055   3.108 -1.3268  0.2097 -0.1942
   83MOL0     H10892   0.604   0.201   2.979 -4.8113 -3.2388 -0.0085
   83MOL0     H10893   0.707   0.638   3.089  1.5337  2.4612 -1.2242
   83MOL0     H10894   0.560   0.638   2.994 -0.2436  0.2331 -1.2399
   83MOL0     H10895   0.842   0.612   2.875 -0.6113 -1.4319 -1.9479
   83MOL0     H10896   0.757   0.760   2.874  1.9067 -0.3155  1.4782
   83MOL0     H10897   0.642   0.501   2.767  0.7255 -0.3395  1.2851
   83MOL0     H10898   0.746   0.604   2.663  0.8355  0.1030  1.5481
   83MOL0     H10899   0.494   0.710   2.780  0.9927  1.7584 -0.2319
   83MOL0     H10900   0.591   0.775   2.651 -1.5613  1.2619  1.3412
   83MOL0     H10901   0.421   0.519   2.644  1.9701 -0.7624  2.2523
   83MOL0     H10902   0.540   0.560   2.519  0.9697 -0.3221  1.3327
   83MOL0     H10903   0.402   0.784   2.463 -0.0497  0.8015  0.3146
   83MOL0     H10904   0.317   0.765   2.608  0.6165  1.6879 -1.4136
   83MOL0     H10905   0.290   0.568   2.371  2.7287 -1.5772  1.8800
   83MOL0     H10906   0.213   0.546   2.520 -0.0527  0.8951  0.0485
   83MOL0     H10907   0.092   0.659   2.302  2.2297  1.5704 -1.9056
   83MOL0     H10908   0.140   0.808   2.378  0.1643 -0.4783 -0.8843
   83MOL0     H10909  -0.065   0.490   2.488 -1.5591 -0.4989 -0.0674
   83MOL0     H10910  -0.233   0.578   2.799  1.5212 -0.3024 -0.2646
   83MOL0     H10911  -0.227   0.447   2.688 -0.9942 -0.6363 -1.4329
   83MOL0     H10912  -0.395   0.565   2.545  1.0030 -0.9312  0.3383
   83MOL0     H10913  -0.392   0.704   2.656 -0.3246 -0.0200 -0.1364
   83MOL0     H10914  -0.482   0.428   2.741  1.5768  0.1399 -0.1569
   83MOL0     H10915  -0.453   0.568   2.850  2.2758 -0.0818 -0.7726
   83MOL0     H10916  -0.660   0.564   2.626 -0.5039 -0.2830 -0.2073
   83MOL0     H10917  -0.631   0.696   2.716 -1.9026  0.4676 -0.1876
   83MOL0     H10918  -0.855   0.387   2.764 -0.7779 -0.2763 -2.2608
   83MOL0     H10919  -1.105   0.439   2.704 -0.1185 -1.0677  0.3782
   83MOL0     H10920  -1.462   0.404   2.663 -1.2195  0.0486 -0.5891
   83MOL0     H10921  -1.677   0.420   2.517  0.8238  0.1279  0.5744
   83MOL0     H10922  -1.776   0.479   2.334 -0.4515  0.0221 -1.3061
   83MOL0     H10923  -1.737   0.651   2.291 -0.3141  2.0974  1.4806
   83MOL0     H10924  -1.982   0.698   2.296 -1.3620 -1.5949  0.7023
   83MOL0     H10925  -2.016   0.529   2.295  0.6298 -1.4789 -1.3088
   83MOL0     H10926  -1.892   0.477   2.090  0.4009 -0.0942  2.2987
   83MOL0     H10927  -1.835   0.638   2.070  1.0040 -0.2413 -0.9405
   83MOL0     H10928  -2.136   0.611   2.119 -0.3534 -3.7725 -0.4405
   83MOL0     H10929  -2.066   0.702   1.989  2.5336  0.1901  0.5013
   83MOL0     H10930  -2.088   0.397   2.017 -2.6601 -0.2539  1.4434
   83MOL0     H10931  -2.037   0.492   1.866 -0.7986 -0.1098  0.3679
   83MOL0     H10932  -2.303   0.478   2.017 -0.9253 -1.4798 -0.3605
   83MOL0     H10933  -2.263   0.389   1.868 -0.6866  2.0482 -4.0495
   83MOL0     H10934  -2.412   0.605   1.834 -0.4891  1.0690 -0.7759
   83MOL0     H10935  -2.272   0.698   1.884 -4.0738  0.7875 -0.3531
   83MOL0     H10936  -2.257   0.501   1.649  1.4088  0.0660 -1.2926
   83MOL0     H10937  -2.154   0.639   1.682 -0.2929  0.8430 -2.4549
   83MOL0     H10938  -1.673   0.835   2.592  2.8178  1.7788 -0.2820
   83MOL0     H10939  -1.451   0.827   2.683 -0.2321  0.0129 -0.2055
   83MOL0     H10940  -1.023   0.826   2.879  1.4630 -0.0756  0.7423
   83MOL0     H10941  -0.796   0.765   2.917 -0.5063  1.5825  0.4456
   83MOL0     H10942   0.546   0.534   3.248 -1.1780  0.1829 -0.2005
   83MOL0     H10943   0.472   0.362   3.408  2.5368  1.6799 -0.2588
   83MOL0     H10944   0.361  -0.015   3.581  0.8392  0.0578 -2.4119
   83MOL0     H10945   0.253  -0.168   3.731  0.9130  2.5542  0.9740
   83MOL0     H10946  -0.068  -0.469   3.714 -0.4649 -0.1984 -0.9735
   83MOL0     H10947  -0.105  -0.380   3.575 -2.8073  4.0417  0.6449
   83MOL0     H10948  -0.212  -0.190   3.704 -2.6028 -1.6515 -3.1336
   83MOL0     H10949  -0.288  -0.340   3.724 -0.3765  1.9839 -0.6637
   83MOL0     H10950  -0.077  -0.231   3.927 -0.8825  1.1121  1.9884
   83MOL0     H10951  -0.146  -0.388   3.931 -2.4341 -0.7031  1.7950
   83MOL0     H10952  -0.377  -0.278   3.935 -0.0452  1.3069 -1.8207
   83MOL0     H10953  -0.267  -0.241   4.076  2.4860 -3.0491 -0.3038
   83MOL0     H10954  -0.344   0.120   3.851  3.8264 -1.6334 -4.0649
   83MOL0     H10955  -0.084  -0.186   3.454 -0.2398 -1.0911 -1.3138
   83MOL0     H10956   0.027  -0.033   3.309 -2.0247 -4.1276 -0.1755
   84MOL0     O10957   0.784   2.292   4.085  0.2651 -0.6843 -0.0646
   84MOL0     C10958   0.793   2.414   4.074  0.2037 -0.1304 -0.0986
   84MOL0     O10959   0.708   2.509   4.122 -0.1506  0.1260  0.0613
   84MOL0     C10960   0.592   2.478   4.184 -1.0082 -0.8788 -0.2210
   84MOL0     C10961   0.514   2.368   4.146 -0.6279  0.2984  0.2117
   84MOL0     C10962   0.397   2.331   4.216  0.0035  0.5111  0.1379
   84MOL0     C10963   0.353   2.407   4.330  0.1856  0.1162  0.4117
   84MOL0     O10964   0.237   2.374   4.391  0.5276 -0.0786  0.5188
   84MOL0     C10965   0.237   2.371   4.537 -0.4594  0.7875 -0.6253
   84MOL0     C10966   0.164   2.257   4.595  0.1960  0.6266 -0.1110
   84MOL0     C10967   0.253   2.130   4.593 -0.0685 -0.6822 -0.7099
   84MOL0     C10968   0.174   2.006   4.626  0.8321  0.3912 -0.1558
   84MOL0     C10969   0.251   1.872   4.653 -0.7165 -0.6302  0.2420
   84MOL0     C10970   0.179   1.749   4.702  0.3818  0.3914 -0.4692
   84MOL0     C10971   0.108   1.673   4.589  0.1349 -0.4140 -0.7284
   84MOL0     C10972   0.047   1.544   4.639 -0.4087  0.4805  0.1206
   84MOL0     N10973  -0.067   1.503   4.555 -0.4567  0.8926  0.5494
   84MOL0     C10974  -0.155   1.579   4.492  0.4537 -0.2246  0.4305
   84MOL0     C10975  -0.210   1.509   4.396 -0.4573 -0.8456 -0.2724
   84MOL0     C10976  -0.315   1.553   4.293  0.3473 -1.0637 -0.2814
   84MOL0     C10977  -0.253   1.580   4.159  0.2165  0.8016  0.4144
   84MOL0     C10978  -0.199   1.729   4.145  0.2892  0.1597  0.3310
   84MOL0     C10979  -0.304   1.819   4.088 -1.1049  0.3572 -0.4812
   84MOL0     O10980  -0.425   1.818   4.159  0.5507 -0.1786  0.1528
   84MOL0     C10981  -0.538   1.843   4.084 -0.2636 -0.2624  0.6068
   84MOL0     C10982  -0.637   1.748   4.058 -0.2272  0.4146 -1.2539
   84MOL0     C10983  -0.749   1.774   3.984 -0.1709  0.0436 -0.0245
   84MOL0     C10984  -0.766   1.897   3.924  0.3890  0.8394 -0.5369
   84MOL0     C10985  -0.892   1.923   3.856 -0.1564  0.4726  0.5400
   84MOL0     O10986  -0.989   1.832   3.868  0.4227 -0.1459  0.7063
   84MOL0     C10987  -1.119   1.844   3.818 -0.1025  0.2989  0.3452
   84MOL0     C10988  -1.156   1.916   3.703 -0.9123 -0.7282  0.0530
   84MOL0     C10989  -1.289   1.909   3.657  0.4886  0.4527  0.0215
   84MOL0     C10990  -1.375   1.822   3.715  1.5843  0.0888  0.2417
   84MOL0     O10991  -1.502   1.810   3.661  0.0289 -0.3401 -0.6508
   84MOL0     C10992  -1.613   1.749   3.724 -0.1647  0.7810  0.0644
   84MOL0     C10993  -1.670   1.841   3.833  0.8304 -0.1626  0.7148
   84MOL0     C10994  -1.814   1.797   3.860  0.1260  0.0867 -0.2197
   84MOL0     C10995  -1.875   1.880   3.978  0.5782  0.3492 -0.2181
   84MOL0     C10996  -2.004   1.808   4.032 -1.3418  0.7295  0.1495
   84MOL0     C10997  -2.107   1.790   3.920 -0.4999  0.4565 -0.6689
   84MOL0     C10998  -2.245   1.748   3.972 -0.6773 -0.6063  0.0519
   84MOL0     C10999  -2.342   1.764   3.867 -0.3258  0.2230  0.5688
   84MOL0    Cl11000  -2.504   1.690   3.929 -0.1087  0.1967  0.2308
   84MOL0     C11001  -1.338   1.752   3.828  0.0994 -0.1991 -0.2495
   84MOL0     C11002  -1.211   1.762   3.882 -0.6942 -0.2232 -0.1380
   84MOL0     O11003  -0.898   2.034   3.798  0.0645  0.2696 -0.3256
   84MOL0     C11004  -0.664   1.987   3.930 -0.3834  0.0099 -0.1380
   84MOL0     C11005  -0.549   1.961   4.013 -0.0950 -0.0516 -0.3430
   84MOL0     N11006  -0.159   1.380   4.408  0.1711 -0.3571 -0.5988
   84MOL0     N11007  -0.067   1.375   4.498  0.0544  0.3072  0.4453
   84MOL0     C11008   0.431   2.511   4.369  0.2066 -0.2359 -0.4439
   84MOL0     C11009   0.553   2.535   4.306  0.3389  0.9780  0.0319
   84MOL0     C11010   0.913   2.467   4.014  0.9237 -0.8203 -0.2011
   84MOL0     C11011   0.927   2.601   3.972  0.0592 -0.6488  0.2435
   84MOL0     C11012   1.049   2.640   3.906  0.0985 -0.0861  0.3556
   84MOL0     C11013   1.162   2.563   3.898  0.0564  0.1175  0.2698
   84MOL0     O11014   1.287   2.594   3.847  0.2789 -0.0627 -0.1882
   84MOL0     C11015   1.309   2.715   3.776  0.1673 -0.4623 -0.3522
   84MOL0     C11016   1.273   2.696   3.628  0.6877 -0.0919 -0.1771
   84MOL0     C11017   1.303   2.819   3.543  0.0391  0.7112  0.2148
   84MOL0     C11018   1.211   2.938   3.577  0.8396 -0.0210  0.6954
   84MOL0     C11019   1.209   3.042   3.471  0.0773 -0.3225 -0.0228
   84MOL0     C11020   1.212   3.131   3.390  0.4701  0.0178  0.9563
   84MOL0     C11021   1.149   2.433   3.944 -0.1145  0.4203 -1.2293
   84MOL0     C11022   1.026   2.376   3.993  0.2425 -0.6739  0.3028
   84MOL0     H11023   0.546   2.316   4.056 -2.9624 -1.5825  0.3678
   84MOL0     H11024   0.339   2.246   4.181  0.6858  0.4099 -0.7684
   84MOL0     H11025   0.195   2.469   4.563 -0.1912  0.2975  1.8190
   84MOL0     H11026   0.337   2.368   4.580 -0.1885 -0.6863 -1.2905
   84MOL0     H11027   0.070   2.238   4.544 -0.1216 -0.7831  0.9332
   84MOL0     H11028   0.147   2.269   4.702 -1.8639  1.7825 -0.5194
   84MOL0     H11029   0.340   2.129   4.659 -0.0950 -0.4551 -0.6702
   84MOL0     H11030   0.292   2.111   4.492 -1.2355  0.1630 -1.3417
   84MOL0     H11031   0.103   2.017   4.708  0.8155 -1.6272  0.1451
   84MOL0     H11032   0.117   1.996   4.533 -0.9123 -0.8204  0.9831
   84MOL0     H11033   0.324   1.896   4.731  0.9239 -0.3284 -1.2954
   84MOL0     H11034   0.306   1.849   4.560  0.3868  2.1539  0.1191
   84MOL0     H11035   0.108   1.775   4.781  1.0921  0.1723  0.2485
   84MOL0     H11036   0.259   1.683   4.736  1.1880  1.7569  0.3960
   84MOL0     H11037   0.036   1.733   4.533  1.4161  1.0613 -0.8635
   84MOL0     H11038   0.190   1.650   4.520  0.5844  0.9105 -0.6668
   84MOL0     H11039   0.003   1.559   4.738 -2.6608 -2.4365 -0.2836
   84MOL0     H11040   0.121   1.465   4.659 -2.5240 -1.1416  2.1336
   84MOL0     H11041  -0.176   1.686   4.497 -0.3007 -0.1366 -2.4372
   84MOL0     H11042  -0.376   1.637   4.326  1.7172 -0.3303  0.4766
   84MOL0     H11043  -0.372   1.460   4.288  1.9833 -2.1463  0.3287
   84MOL0     H11044  -0.324   1.566   4.077  1.5086 -3.7798 -0.1998
   84MOL0     H11045  -0.175   1.503   4.156 -1.0006 -0.4585 -0.7676
   84MOL0     H11046  -0.165   1.765   4.243  0.0540  0.8428  0.1723
   84MOL0     H11047  -0.116   1.731   4.074  0.6411  1.4102  0.7387
   84MOL0     H11048  -0.327   1.799   3.983  0.8883  1.2407 -1.1453
   84MOL0     H11049  -0.275   1.923   4.103  2.0182 -0.4011 -0.5943
   84MOL0     H11050  -0.618   1.648   4.095  0.2254  1.0696  0.3585
   84MOL0     H11051  -0.809   1.685   3.970 -1.1427  0.6841 -0.0102
   84MOL0     H11052  -1.091   1.989   3.655 -2.6817 -0.0031 -1.3334
   84MOL0     H11053  -1.318   1.976   3.577 -3.4935 -1.3198 -0.2836
   84MOL0     H11054  -1.591   1.647   3.758 -1.9500 -0.0102 -1.0712
   84MOL0     H11055  -1.683   1.731   3.643  0.4396 -4.6432  0.3367
   84MOL0     H11056  -1.662   1.941   3.790  1.2967 -0.0075  1.1566
   84MOL0     H11057  -1.615   1.833   3.927 -2.9716 -0.1734  3.1560
   84MOL0     H11058  -1.803   1.694   3.895  0.2175  0.3287  0.4893
   84MOL0     H11059  -1.868   1.796   3.765 -0.2044 -0.0570 -0.0296
   84MOL0     H11060  -1.805   1.887   4.061  0.9208 -1.3765 -0.3298
   84MOL0     H11061  -1.904   1.983   3.953  0.3888  0.1426 -0.8747
   84MOL0     H11062  -2.036   1.867   4.118  1.3601  1.2469  0.9007
   84MOL0     H11063  -1.994   1.704   4.065 -0.6540  0.2186 -1.5813
   84MOL0     H11064  -2.067   1.713   3.853  2.2223 -0.4412  1.7449
   84MOL0     H11065  -2.114   1.887   3.871  0.9424  1.9684  1.8772
   84MOL0     H11066  -2.241   1.642   3.998 -4.2469 -2.2388 -4.5835
   84MOL0     H11067  -2.265   1.813   4.057  1.8381  1.7003 -0.9524
   84MOL0     H11068  -2.296   1.711   3.783  0.5164 -0.7597  1.6250
   84MOL0     H11069  -2.338   1.868   3.834  3.7572  0.2272  0.5312
   84MOL0     H11070  -1.406   1.688   3.884 -2.5655  2.2692 -0.3928
   84MOL0     H11071  -1.182   1.690   3.957 -0.3160 -1.2306 -1.2220
   84MOL0     H11072  -0.679   2.083   3.880 -0.0562  1.2278  1.9856
   84MOL0     H11073  -0.470   2.035   4.014 -1.4639  1.5007  1.7225
   84MOL0     H11074   0.411   2.566   4.460 -2.3629 -2.1936  0.2929
   84MOL0     H11075   0.632   2.604   4.335  0.7315  0.7165 -0.3977
   84MOL0     H11076   0.860   2.680   4.003  0.4807 -0.5204  0.8449
   84MOL0     H11077   1.059   2.745   3.878 -0.4714  0.0485  0.6429
   84MOL0     H11078   1.411   2.750   3.792 -0.2075 -0.1091  1.4494
   84MOL0     H11079   1.241   2.793   3.812  0.0910 -0.6135 -0.1686
   84MOL0     H11080   1.327   2.610   3.588  0.4786 -1.9641  3.2775
   84MOL0     H11081   1.167   2.677   3.606  1.1661 -0.5428 -2.3754
   84MOL0     H11082   1.288   2.792   3.438  2.0903 -1.0698  0.2999
   84MOL0     H11083   1.408   2.843   3.562  0.0531  0.7872  0.0449
   84MOL0     H11084   1.110   2.903   3.602  1.4973 -1.1532  1.8701
   84MOL0     H11085   1.247   2.994   3.664  0.3857 -0.1510  0.9732
   84MOL0     H11086   1.218   3.220   3.330 -2.3120  0.2081  0.8130
   84MOL0     H11087   1.242   2.377   3.941 -0.2079  0.1326  0.5061
   84MOL0     H11088   1.018   2.271   4.022 -0.0218 -0.6333  0.3815
   85MOL0     O11089   7.011   8.073   6.777  0.2306 -0.0392 -0.1576
   85MOL0     C11090   6.895   8.050   6.761  0.6835  0.6507  0.5506
   85MOL0     O11091   6.799   8.140   6.708 -0.2242 -0.0112  0.2647
   85MOL0     C11092   6.852   8.249   6.644  0.2270  0.8719 -1.1891
   85MOL0     C11093   6.852   8.250   6.505  0.3927  0.1437 -0.5008
   85MOL0     C11094   6.924   8.350   6.432 -0.5178  0.5029  0.2638
   85MOL0     C11095   6.989   8.461   6.510 -0.0267  0.1424 -0.2917
   85MOL0     O11096   7.064   8.562   6.454 -0.3688  0.2446 -0.4180
   85MOL0     C11097   7.111   8.530   6.322  0.5913 -0.3523  0.3639
   85MOL0     C11098   7.157   8.662   6.245 -0.1327  0.9033  0.3470
   85MOL0     C11099   7.180   8.641   6.103  0.0328 -0.4155  0.3377
   85MOL0     C11100   7.302   8.553   6.071  0.0334 -0.5833 -0.5494
   85MOL0     C11101   7.343   8.570   5.925 -0.4725 -0.2154 -0.2260
   85MOL0     C11102   7.237   8.550   5.820  0.3324  0.3354  0.1187
   85MOL0     C11103   7.281   8.541   5.672 -1.4869 -0.8762  0.2365
   85MOL0     C11104   7.346   8.668   5.636 -0.1416  0.2034 -0.9031
   85MOL0     N11105   7.368   8.683   5.492  0.5561  0.9904  0.6389
   85MOL0     C11106   7.276   8.751   5.411  0.1596  0.0582  0.9073
   85MOL0     C11107   7.306   8.706   5.284 -0.0653 -0.3156 -0.4612
   85MOL0     C11108   7.239   8.739   5.154 -0.4318 -0.4548  0.0590
   85MOL0     C11109   7.095   8.704   5.154  0.5969  0.0567  0.0702
   85MOL0     C11110   7.033   8.731   5.012  0.3175  0.2003  0.8834
   85MOL0     C11111   6.886   8.682   5.008 -0.1223 -0.3379  0.0789
   85MOL0     O11112   6.877   8.545   5.047  0.0567 -0.3486 -0.5677
   85MOL0     C11113   6.772   8.464   5.019  0.3542 -0.3415  0.4858
   85MOL0     C11114   6.796   8.324   4.997 -0.6413  0.2473 -0.0679
   85MOL0     C11115   6.706   8.245   4.935 -0.3438  0.1284  0.2054
   85MOL0     C11116   6.593   8.300   4.872 -0.1841 -0.5205  0.6470
   85MOL0     C11117   6.522   8.213   4.776 -0.4253 -0.3126  0.3804
   85MOL0     O11118   6.415   8.267   4.727 -0.5855 -0.0528 -0.3220
   85MOL0     C11119   6.338   8.193   4.643 -0.1651 -0.0971  0.0466
   85MOL0     C11120   6.234   8.117   4.700 -0.5308 -0.4079  0.2836
   85MOL0     C11121   6.145   8.044   4.620  0.7408 -0.6523  0.1478
   85MOL0     C11122   6.177   8.030   4.487 -0.1715 -0.1002  0.3729
   85MOL0     O11123   6.113   7.926   4.417  1.1566  0.2197 -0.6589
   85MOL0     C11124   5.976   7.946   4.373  0.1452 -0.5744  0.3547
   85MOL0     C11125   5.894   7.845   4.443 -0.5777  0.2528  0.1926
   85MOL0     C11126   5.754   7.844   4.391  0.9255  0.1547  0.8629
   85MOL0     C11127   5.657   7.748   4.473  0.5826  0.5443 -0.6269
   85MOL0     C11128   5.517   7.722   4.409 -0.7584 -0.0717 -0.8107
   85MOL0     C11129   5.422   7.641   4.502 -0.5032  0.3296  0.4216
   85MOL0     C11130   5.275   7.645   4.452  0.8747  0.4664  1.3137
   85MOL0     C11131   5.203   7.772   4.476  0.9913 -0.0615  0.2717
   85MOL0    Cl11132   5.196   7.836   4.647 -0.2585  0.1330  0.0267
   85MOL0     C11133   6.270   8.118   4.431  0.0633  0.4767 -0.2284
   85MOL0     C11134   6.348   8.201   4.507  0.0785  0.0857  0.0728
   85MOL0     O11135   6.556   8.093   4.762  0.3983  0.4728  0.0893
   85MOL0     C11136   6.567   8.437   4.899 -0.6208  0.6444 -0.1066
   85MOL0     C11137   6.653   8.521   4.975 -0.2535  0.0419 -0.8074
   85MOL0     N11138   7.417   8.634   5.289 -0.1518 -0.7302  0.3240
   85MOL0     N11139   7.446   8.601   5.416 -0.7657  0.2330  0.6461
   85MOL0     C11140   6.976   8.460   6.652  0.5480  0.1262  0.1182
   85MOL0     C11141   6.915   8.356   6.717 -0.3067  1.1820 -0.4630
   85MOL0     C11142   6.837   7.922   6.808  0.4773  0.8147  0.1647
   85MOL0     C11143   6.714   7.865   6.768  0.7142  0.2205 -0.4923
   85MOL0     C11144   6.654   7.753   6.826  0.2753  0.2914  0.3099
   85MOL0     C11145   6.719   7.681   6.921 -0.4145  0.4250  0.0848
   85MOL0     O11146   6.674   7.574   6.995 -0.0442 -0.0708 -0.5497
   85MOL0     C11147   6.562   7.505   6.947 -0.0195 -0.0051 -0.8063
   85MOL0     C11148   6.430   7.552   7.014 -0.5373  0.4222  0.9525
   85MOL0     C11149   6.455   7.549   7.173 -0.4133  0.1061  0.4206
   85MOL0     C11150   6.335   7.609   7.252 -0.1498  0.1639 -0.4836
   85MOL0     C11151   6.379   7.639   7.391 -0.5320  0.9478  0.4158
   85MOL0     C11152   6.393   7.673   7.505 -0.7113  0.9438 -0.2060
   85MOL0     C11153   6.845   7.730   6.961  0.3311 -0.7490 -0.6941
   85MOL0     C11154   6.899   7.850   6.908 -0.4410  0.2902 -0.5550
   85MOL0     H11155   6.820   8.163   6.449  1.4866 -0.5480 -0.0884
   85MOL0     H11156   6.933   8.333   6.325 -0.3305 -0.2286  0.3873
   85MOL0     H11157   7.028   8.499   6.259  1.0531  0.3823 -0.6183
   85MOL0     H11158   7.189   8.453   6.317  0.1872 -0.6981 -1.1703
   85MOL0     H11159   7.254   8.702   6.278  0.6805 -1.5169  1.1651
   85MOL0     H11160   7.076   8.734   6.259 -0.3765  0.4645  1.3169
   85MOL0     H11161   7.190   8.740   6.057 -3.5053  0.0781  0.2993
   85MOL0     H11162   7.090   8.600   6.056 -0.0238  0.7966 -0.6629
   85MOL0     H11163   7.388   8.596   6.123  0.3951  1.6449 -2.8050
   85MOL0     H11164   7.279   8.450   6.101 -0.9584 -0.3186 -0.3525
   85MOL0     H11165   7.435   8.511   5.916  1.1350  1.8577  1.3949
   85MOL0     H11166   7.372   8.674   5.910 -0.1327  0.0847  2.1082
   85MOL0     H11167   7.161   8.627   5.828 -3.7113 -3.3234  0.6442
   85MOL0     H11168   7.196   8.451   5.843  0.6014 -0.5435 -2.7977
   85MOL0     H11169   7.348   8.456   5.657  2.4729  2.0678 -0.1345
   85MOL0     H11170   7.191   8.529   5.610 -0.9421 -0.4537 -0.6474
   85MOL0     H11171   7.446   8.679   5.679 -0.3252 -0.3764 -0.3152
   85MOL0     H11172   7.285   8.751   5.673 -1.1062 -0.1095 -1.7609
   85MOL0     H11173   7.190   8.810   5.438 -0.8114 -1.7821  2.0106
   85MOL0     H11174   7.294   8.693   5.071  1.5771 -0.3614  1.2551
   85MOL0     H11175   7.242   8.847   5.136 -1.2017 -0.6791 -1.6688
   85MOL0     H11176   7.040   8.756   5.234  1.2036  0.3680  0.2916
   85MOL0     H11177   7.091   8.596   5.166  1.0642  0.0615  0.2966
   85MOL0     H11178   7.034   8.839   4.994 -0.1139  0.4034  2.0154
   85MOL0     H11179   7.089   8.670   4.940  0.1108  1.8340 -0.7426
   85MOL0     H11180   6.859   8.687   4.902  0.1259  0.8372  0.0565
   85MOL0     H11181   6.820   8.747   5.065  0.2439 -1.0058  1.3060
   85MOL0     H11182   6.887   8.275   5.031 -0.8003 -0.3144 -0.4461
   85MOL0     H11183   6.724   8.140   4.919  0.9261  0.8014 -3.6916
   85MOL0     H11184   6.202   8.121   4.804 -1.8937  0.0643 -0.1307
   85MOL0     H11185   6.071   7.984   4.672 -0.7420  2.1044  1.4099
   85MOL0     H11186   5.957   7.928   4.267 -0.6596  0.6088  0.2854
   85MOL0     H11187   5.931   8.042   4.400 -0.2688 -1.1902  1.9562
   85MOL0     H11188   5.891   7.859   4.552 -0.8974 -3.8589  0.8893
   85MOL0     H11189   5.938   7.745   4.440 -0.9126  0.0929  0.4762
   85MOL0     H11190   5.766   7.818   4.285  1.2537  0.3415  0.8555
   85MOL0     H11191   5.707   7.943   4.389 -1.6228 -0.9640  0.5581
   85MOL0     H11192   5.705   7.650   4.484 -1.5709 -0.3811  1.4664
   85MOL0     H11193   5.640   7.799   4.569  0.2513  0.9450 -0.8961
   85MOL0     H11194   5.527   7.668   4.315  2.9056  0.2977 -0.8012
   85MOL0     H11195   5.479   7.820   4.377 -1.1684  0.4589  1.1160
   85MOL0     H11196   5.437   7.679   4.603 -0.2457 -0.1722  0.5754
   85MOL0     H11197   5.458   7.537   4.496  0.9391  0.6550  2.5035
   85MOL0     H11198   5.275   7.613   4.348  1.7245  1.9677  0.8268
   85MOL0     H11199   5.223   7.568   4.510  1.2074  0.3592  1.4764
   85MOL0     H11200   5.100   7.755   4.444 -0.6633  3.7780  2.8623
   85MOL0     H11201   5.237   7.853   4.411 -1.1831 -0.3127 -1.3032
   85MOL0     H11202   6.278   8.118   4.323 -0.6318  0.4238 -0.2808
   85MOL0     H11203   6.419   8.273   4.469  1.4708 -0.9090  0.6808
   85MOL0     H11204   6.482   8.482   4.849 -0.6391  0.5837 -0.1301
   85MOL0     H11205   6.619   8.622   4.994 -1.7644 -0.9417  2.5149
   85MOL0     H11206   7.015   8.532   6.723  1.4252  0.8172 -1.0349
   85MOL0     H11207   6.931   8.344   6.823 -0.6357  2.5541 -0.2427
   85MOL0     H11208   6.654   7.933   6.708  2.1559  2.4875  0.4806
   85MOL0     H11209   6.549   7.739   6.801 -0.1031  1.3214  1.2640
   85MOL0     H11210   6.566   7.402   6.983 -0.3141 -0.0067 -0.7744
   85MOL0     H11211   6.563   7.503   6.837 -0.8444  0.8492 -0.8443
   85MOL0     H11212   6.400   7.647   6.970  1.1121 -0.4765 -2.4112
   85MOL0     H11213   6.340   7.499   6.982 -1.2218  2.0874  0.0207
   85MOL0     H11214   6.554   7.591   7.193  0.4910 -1.7237  0.0065
   85MOL0     H11215   6.463   7.444   7.204 -0.2505 -0.4696 -1.4418
   85MOL0     H11216   6.307   7.698   7.196 -0.3844 -0.4276 -1.3352
   85MOL0     H11217   6.246   7.546   7.264 -1.5875  2.2887  0.5399
   85MOL0     H11218   6.410   7.692   7.609  0.9556  0.9721 -0.4629
   85MOL0     H11219   6.896   7.663   7.029 -0.6971 -0.4837  0.3543
   85MOL0     H11220   7.001   7.879   6.931 -0.9855  0.4531  1.8850
   86MOL0     O11221   3.941  10.755   7.812  0.2940 -0.5901  0.6567
   86MOL0     C11222   3.907  10.832   7.722 -0.3591  0.1919 -0.8170
   86MOL0     O11223   3.779  10.854   7.678 -0.0046  0.1633 -0.4619
   86MOL0     C11224   3.668  10.780   7.705  0.2970  0.1860  0.0791
   86MOL0     C11225   3.673  10.642   7.739 -0.1443 -0.1753  0.2870
   86MOL0     C11226   3.555  10.577   7.773  0.5171 -0.2184  0.3045
   86MOL0     C11227   3.428  10.648   7.763 -0.2317  0.0686  0.2225
   86MOL0     O11228   3.320  10.573   7.798 -0.1214  0.2954 -0.2877
   86MOL0     C11229   3.199  10.635   7.831  0.3209  0.1008 -0.2888
   86MOL0     C11230   3.105  10.529   7.877  0.5986 -0.2006  0.3665
   86MOL0     C11231   2.967  10.592   7.901 -0.4736  0.9375 -0.5598
   86MOL0     C11232   2.876  10.482   7.962 -0.2316 -0.8253  0.5922
   86MOL0     C11233   2.762  10.541   8.048  0.4108  0.1065  1.2699
   86MOL0     C11234   2.657  10.440   8.103 -0.3377 -0.7169  0.8689
   86MOL0     C11235   2.589  10.502   8.220  0.3063 -0.2861  0.3411
   86MOL0     C11236   2.456  10.434   8.258 -0.4373  0.4295  0.8752
   86MOL0     N11237   2.354  10.483   8.171 -0.1479 -0.3171  0.2258
   86MOL0     C11238   2.295  10.607   8.176 -0.2773 -0.5462  0.8277
   86MOL0     C11239   2.203  10.611   8.080  0.2279  1.2727 -0.2582
   86MOL0     C11240   2.104  10.722   8.056 -0.4963 -0.0748 -0.7592
   86MOL0     C11241   2.033  10.704   7.921  0.1406  0.7298  0.6710
   86MOL0     C11242   1.914  10.801   7.905 -0.3781  0.2401  0.0950
   86MOL0     C11243   1.786  10.737   7.953 -0.0480 -0.2046  0.7672
   86MOL0     O11244   1.679  10.829   7.947 -0.0680 -0.2507  0.6344
   86MOL0     C11245   1.548  10.798   7.965  0.3569  1.1483 -0.0166
   86MOL0     C11246   1.442  10.884   7.945 -0.0409 -0.5793 -0.0015
   86MOL0     C11247   1.308  10.847   7.963 -0.4735 -0.6851 -0.9296
   86MOL0     C11248   1.275  10.720   7.997  0.4111 -0.1207  0.3334
   86MOL0     C11249   1.131  10.678   8.016 -0.3049 -1.1086 -0.5179
   86MOL0     O11250   1.037  10.771   8.050  0.2617  0.3811  0.1770
   86MOL0     C11251   0.905  10.745   8.079 -0.0386 -0.0884  0.5908
   86MOL0     C11252   0.852  10.842   8.156 -0.4364 -0.0829 -0.4948
   86MOL0     C11253   0.725  10.836   8.210 -0.0404 -0.2134 -0.4905
   86MOL0     C11254   0.634  10.739   8.171 -0.2265  0.2082  0.1317
   86MOL0     O11255   0.516  10.739   8.237  0.6421 -0.9447 -0.9876
   86MOL0     C11256   0.438  10.629   8.226  0.0574  1.1670 -0.3573
   86MOL0     C11257   0.327  10.628   8.332  0.0674  0.4637  0.2404
   86MOL0     C11258   0.257  10.491   8.336 -0.1549  0.0844  0.8374
   86MOL0     C11259   0.169  10.479   8.457  0.0223  0.8425 -1.1265
   86MOL0     C11260   0.077  10.355   8.452  0.6107  0.3390 -0.3408
   86MOL0     C11261  -0.021  10.348   8.575  0.2577  0.3266  0.1322
   86MOL0     C11262  -0.107  10.220   8.568  0.1022  0.7105 -0.1483
   86MOL0     C11263  -0.197  10.196   8.691  0.2153 -0.1412 -0.1035
   86MOL0    Cl11264  -0.347  10.294   8.676  0.6196 -0.1478 -0.4383
   86MOL0     C11265   0.682  10.631   8.090  0.2600 -0.6434 -0.4703
   86MOL0     C11266   0.824  10.628   8.052  0.2844 -0.5371  0.4367
   86MOL0     O11267   1.104  10.561   7.991  0.0569 -0.2577  0.0192
   86MOL0     C11268   1.372  10.625   8.012 -0.0484 -0.0055  0.4650
   86MOL0     C11269   1.507  10.664   7.984  0.9851  0.6077  0.0659
   86MOL0     N11270   2.227  10.495   7.998 -0.0042  0.1545 -0.2686
   86MOL0     N11271   2.315  10.423   8.053 -0.1525  0.1280 -0.4988
   86MOL0     C11272   3.423  10.782   7.728 -0.0215 -0.0881  0.3254
   86MOL0     C11273   3.539  10.849   7.689 -0.6186 -0.3967  0.0067
   86MOL0     C11274   4.013  10.919   7.672  0.1052  0.9773  0.1530
   86MOL0     C11275   4.151  10.877   7.670 -0.1389 -0.6213 -0.2227
   86MOL0     C11276   4.250  10.969   7.648  0.8219  0.0814 -0.0395
   86MOL0     C11277   4.219  11.106   7.640  0.4350  0.3119  0.4397
   86MOL0     O11278   4.319  11.201   7.625 -0.3939  0.4339  0.6421
   86MOL0     C11279   4.459  11.162   7.621 -0.1607  0.4830 -0.4456
   86MOL0     C11280   4.525  11.179   7.764  0.4181  0.2394  0.7173
   86MOL0     C11281   4.679  11.176   7.752 -0.4339 -0.2463 -0.6406
   86MOL0     C11282   4.746  11.310   7.778 -0.8751  0.6250  0.4946
   86MOL0     C11283   4.886  11.283   7.816 -0.3573  0.2874  0.9571
   86MOL0     C11284   5.005  11.267   7.840 -0.5015  0.4252 -0.5511
   86MOL0     C11285   4.087  11.139   7.635 -0.5886  0.0825 -1.2932
   86MOL0     C11286   3.983  11.047   7.654 -0.2116 -0.3825 -0.3563
   86MOL0     H11287   3.768  10.592   7.753  1.3912  2.0821 -1.2357
   86MOL0     H11288   3.574  10.475   7.805  4.4777 -0.8080 -3.1984
   86MOL0     H11289   3.165  10.683   7.738 -1.1440 -0.3533 -0.0188
   86MOL0     H11290   3.208  10.710   7.911 -0.4312  0.6905 -0.7397
   86MOL0     H11291   3.142  10.486   7.970  1.2185  0.1225  0.2707
   86MOL0     H11292   3.106  10.451   7.799  1.8504 -1.1038  1.2454
   86MOL0     H11293   2.917  10.630   7.812 -1.3958 -2.6606 -1.7707
   86MOL0     H11294   2.981  10.666   7.980  1.4212 -1.1467  1.2167
   86MOL0     H11295   2.832  10.414   7.888  1.6690  0.2442 -1.6185
   86MOL0     H11296   2.944  10.423   8.024  3.5252 -0.2297 -2.6258
   86MOL0     H11297   2.713  10.621   7.991  2.1333  2.2256  2.5731
   86MOL0     H11298   2.805  10.592   8.135  1.0942  0.1371  0.9215
   86MOL0     H11299   2.707  10.350   8.139 -2.1638 -1.4188  1.7983
   86MOL0     H11300   2.591  10.411   8.021 -0.5104  0.9949  0.3535
   86MOL0     H11301   2.657  10.488   8.304  0.3250 -1.1156  0.1899
   86MOL0     H11302   2.565  10.608   8.206 -0.5173 -0.1794  2.1698
   86MOL0     H11303   2.417  10.460   8.357 -1.7837  1.4195  0.1154
   86MOL0     H11304   2.465  10.325   8.249  1.5861  0.6896 -1.2081
   86MOL0     H11305   2.304  10.696   8.239 -1.4261  0.6825 -0.6765
   86MOL0     H11306   2.153  10.820   8.052  0.2293 -0.4058 -0.1389
   86MOL0     H11307   2.028  10.720   8.135  0.1296  1.1427 -0.1075
   86MOL0     H11308   2.010  10.598   7.905 -0.3948  0.9488 -0.0548
   86MOL0     H11309   2.103  10.737   7.844 -1.7835 -1.1601 -2.0821
   86MOL0     H11310   1.941  10.887   7.968  0.9159 -2.6214  3.7874
   86MOL0     H11311   1.905  10.836   7.802 -1.4355 -0.5155 -0.0820
   86MOL0     H11312   1.798  10.701   8.055  0.7688 -0.4032  0.6090
   86MOL0     H11313   1.767  10.657   7.880 -0.9426 -0.7491  1.5750
   86MOL0     H11314   1.467  10.988   7.927 -0.9533 -0.3210  0.1977
   86MOL0     H11315   1.232  10.921   7.940  0.3468  0.1398 -1.0527
   86MOL0     H11316   0.914  10.926   8.185 -0.5169 -0.5958  1.2587
   86MOL0     H11317   0.687  10.899   8.291  1.4043 -2.2395  1.9030
   86MOL0     H11318   0.494  10.537   8.246 -1.3838  1.0032  3.8414
   86MOL0     H11319   0.382  10.619   8.133 -0.8485  1.6587  0.1209
   86MOL0     H11320   0.244  10.699   8.320 -0.2142 -0.1374 -1.8943
   86MOL0     H11321   0.377  10.644   8.427 -0.2216  1.5470  0.2199
   86MOL0     H11322   0.331  10.410   8.342  0.7918  0.8972  0.5237
   86MOL0     H11323   0.197  10.489   8.245 -0.9979  3.0811  1.2114
   86MOL0     H11324   0.236  10.483   8.544 -0.7571 -0.1814 -0.4530
   86MOL0     H11325   0.106  10.567   8.468 -0.2246  0.4118  1.7869
   86MOL0     H11326   0.143  10.270   8.466  0.5321  0.6096  2.0981
   86MOL0     H11327   0.032  10.359   8.352  1.1371  1.8887 -0.5470
   86MOL0     H11328  -0.085  10.436   8.570  0.0235  0.2776  1.9491
   86MOL0     H11329   0.052  10.334   8.655  0.5645 -1.0066 -0.3406
   86MOL0     H11330  -0.163  10.226   8.475 -1.3850  0.1419  0.6676
   86MOL0     H11331  -0.039  10.134   8.566  3.5699  3.2191  0.5233
   86MOL0     H11332  -0.157  10.230   8.787 -1.1104 -0.5808  0.6386
   86MOL0     H11333  -0.220  10.090   8.702  1.8133 -0.6985 -1.6991
   86MOL0     H11334   0.608  10.556   8.062 -1.5263  0.3234  1.4151
   86MOL0     H11335   0.854  10.538   8.000 -0.5892  0.5962 -2.1775
   86MOL0     H11336   1.359  10.521   8.041  2.7884 -1.0082 -1.3457
   86MOL0     H11337   1.580  10.584   7.981  1.4567  1.0568 -0.7535
   86MOL0     H11338   3.322  10.822   7.728 -0.6551 -1.6058  0.0976
   86MOL0     H11339   3.536  10.953   7.660 -0.1867 -0.1768  0.7213
   86MOL0     H11340   4.182  10.774   7.684  1.5696  0.0305  1.1971
   86MOL0     H11341   4.353  10.937   7.632  0.3591 -1.0635 -0.9030
   86MOL0     H11342   4.505  11.240   7.560  1.4141  0.0084  0.0775
   86MOL0     H11343   4.502  11.071   7.578  2.2246  0.7782  1.1015
   86MOL0     H11344   4.490  11.271   7.812  2.5357  3.0118 -2.5132
   86MOL0     H11345   4.501  11.091   7.825  0.7589  0.3935  1.0767
   86MOL0     H11346   4.730  11.149   7.658  2.7098 -1.1372  1.1622
   86MOL0     H11347   4.710  11.101   7.826 -0.2097  0.1514 -0.3302
   86MOL0     H11348   4.735  11.361   7.681 -2.3949 -0.9755 -0.2370
   86MOL0     H11349   4.699  11.369   7.857 -1.3778  2.1727 -0.8965
   86MOL0     H11350   5.104  11.253   7.879 -0.9445  1.6863  1.1532
   86MOL0     H11351   4.065  11.242   7.609 -0.6041  0.6680  0.8326
   86MOL0     H11352   3.881  11.082   7.642 -0.0727 -0.1147 -0.7793
   87MOL0     O11353   7.399   5.773  10.399  0.2903  0.2022 -0.4546
   87MOL0     C11354   7.498   5.850  10.411 -0.0919  0.5038  0.8104
   87MOL0     O11355   7.490   5.981  10.441 -0.2085  0.2786  0.3267
   87MOL0     C11356   7.365   6.028  10.452  0.3311  0.4694 -0.1099
   87MOL0     C11357   7.310   6.041  10.573  0.4821 -0.3560 -0.2723
   87MOL0     C11358   7.187   6.100  10.597 -0.3090 -0.0168 -0.7554
   87MOL0     C11359   7.113   6.140  10.485 -0.1966  0.3498 -0.0958
   87MOL0     O11360   6.990   6.209  10.492  0.4301 -0.4248  0.0282
   87MOL0     C11361   6.951   6.257  10.620  0.1575 -0.3921 -0.5557
   87MOL0     C11362   6.805   6.298  10.589  0.1141  0.3342 -0.1340
   87MOL0     C11363   6.719   6.325  10.717  0.4560 -1.0419  0.2360
   87MOL0     C11364   6.573   6.333  10.683 -0.6111 -0.4680  0.6128
   87MOL0     C11365   6.474   6.344  10.806 -0.0081  0.5297 -0.0436
   87MOL0     C11366   6.333   6.341  10.757  0.9231 -1.0040  0.0412
   87MOL0     C11367   6.233   6.342  10.875  0.2539 -0.3076  0.2669
   87MOL0     C11368   6.086   6.332  10.817 -0.5630 -0.8485 -0.7030
   87MOL0     N11369   5.978   6.347  10.912  0.6777 -0.1679  0.0152
   87MOL0     C11370   5.849   6.399  10.874 -0.6066  0.7004  0.9155
   87MOL0     C11371   5.775   6.359  10.973 -0.1169 -0.1949 -0.9741
   87MOL0     C11372   5.628   6.401  10.995 -0.0240  0.2435  0.7238
   87MOL0     C11373   5.541   6.280  11.020  0.5027  0.0628  1.0222
   87MOL0     C11374   5.392   6.335  11.052  0.2595  0.6608  0.1357
   87MOL0     C11375   5.287   6.230  11.085 -0.7974 -0.8285  1.0267
   87MOL0     O11376   5.189   6.296  11.164 -0.4354  0.7797 -0.7196
   87MOL0     C11377   5.056   6.281  11.131 -0.0929 -0.8704  0.3619
   87MOL0     C11378   5.004   6.155  11.111  0.6128  0.3788  0.4432
   87MOL0     C11379   4.870   6.134  11.074  0.3351 -0.0983 -0.1869
   87MOL0     C11380   4.781   6.237  11.061 -0.0582  0.3362  0.2107
   87MOL0     C11381   4.634   6.223  11.022  0.8601 -0.2249  1.1118
   87MOL0     O11382   4.604   6.089  10.997  0.2778  0.0911 -0.1993
   87MOL0     C11383   4.476   6.044  10.987  0.6038  1.1369 -0.5483
   87MOL0     C11384   4.383   6.066  11.084  0.9497  0.0616 -0.1650
   87MOL0     C11385   4.254   6.016  11.078  0.3126  0.3672 -0.7988
   87MOL0     C11386   4.221   5.929  10.976  1.1776  0.3184  0.0093
   87MOL0     O11387   4.100   5.862  10.972  0.2232  0.2796  0.1692
   87MOL0     C11388   3.982   5.929  10.920  0.6706 -0.3794 -0.1448
   87MOL0     C11389   4.010   5.957  10.763 -0.1302  0.1696 -0.3625
   87MOL0     C11390   3.883   5.971  10.682  0.7888 -0.1084  0.1583
   87MOL0     C11391   3.892   5.964  10.530 -0.6729 -1.1039 -0.2995
   87MOL0     C11392   3.761   5.968  10.464 -0.8215  0.5427 -0.3896
   87MOL0     C11393   3.730   5.819  10.432  0.3395 -0.6063 -0.3142
   87MOL0     C11394   3.582   5.797  10.380 -0.0128  0.3208  0.0150
   87MOL0     C11395   3.472   5.774  10.488  0.3614  0.6942  0.5332
   87MOL0    Cl11396   3.512   5.623  10.573  0.5712 -0.2408 -0.1751
   87MOL0     C11397   4.313   5.898  10.881 -0.7707 -0.0789 -0.3309
   87MOL0     C11398   4.446   5.955  10.882 -0.8967  0.1740  0.7876
   87MOL0     O11399   4.561   6.319  11.007 -0.6776  0.2337  0.0930
   87MOL0     C11400   4.834   6.362  11.077  0.5502 -0.9640  0.7803
   87MOL0     C11401   4.970   6.389  11.104  0.1348  0.3505  0.1349
   87MOL0     N11402   5.857   6.294  11.071  0.2533  0.5103  0.0661
   87MOL0     N11403   5.977   6.283  11.031 -0.4146  0.2946 -0.5825
   87MOL0     C11404   7.161   6.124  10.356 -0.4766 -0.2003  0.1892
   87MOL0     C11405   7.293   6.078  10.336  0.4814 -0.4356 -0.7010
   87MOL0     C11406   7.632   5.796  10.382 -0.6195  0.1512 -0.3197
   87MOL0     C11407   7.740   5.891  10.367 -0.7930  0.7435  0.1084
   87MOL0     C11408   7.862   5.831  10.337 -0.5366 -0.0037 -0.5878
   87MOL0     C11409   7.890   5.692  10.318  1.3588  0.4588 -0.1036
   87MOL0     O11410   8.006   5.640  10.292 -0.1827  0.2963  0.2652
   87MOL0     C11411   8.100   5.729  10.224 -0.1967  0.3174  0.5686
   87MOL0     C11412   8.205   5.642  10.142  0.3872  0.0929 -0.7271
   87MOL0     C11413   8.280   5.541  10.231  0.0031  0.1898  0.3249
   87MOL0     C11414   8.396   5.609  10.319 -0.6545  0.2322  0.5955
   87MOL0     C11415   8.496   5.508  10.357 -0.7333 -0.1831  0.2175
   87MOL0     C11416   8.594   5.442  10.357 -0.8738 -0.7223  0.1683
   87MOL0     C11417   7.779   5.607  10.329  0.2037  0.3722 -0.9047
   87MOL0     C11418   7.655   5.655  10.369  0.1172 -0.0632 -0.1678
   87MOL0     H11419   7.367   6.003  10.657 -1.4513 -2.9394 -0.0172
   87MOL0     H11420   7.149   6.094  10.698 -0.6344  1.0026 -0.8068
   87MOL0     H11421   7.019   6.334  10.658  1.0458 -0.7728 -1.3443
   87MOL0     H11422   6.943   6.182  10.699 -2.1195 -0.1772 -0.5241
   87MOL0     H11423   6.764   6.222  10.522  2.1292 -1.3884  0.4839
   87MOL0     H11424   6.818   6.397  10.544  3.7151  1.5801  3.0781
   87MOL0     H11425   6.752   6.409  10.778 -0.6963  0.0957 -0.6360
   87MOL0     H11426   6.724   6.232  10.775 -0.9834 -1.9166 -0.9513
   87MOL0     H11427   6.560   6.416  10.613 -0.4995 -0.1359  0.9807
   87MOL0     H11428   6.551   6.245  10.622  1.5716 -1.6099  1.3818
   87MOL0     H11429   6.493   6.437  10.860 -1.1939  0.3246  0.7673
   87MOL0     H11430   6.496   6.259  10.871  0.3036 -1.6602 -2.8570
   87MOL0     H11431   6.310   6.257  10.691 -1.3102 -0.8442  0.5136
   87MOL0     H11432   6.323   6.423  10.685  3.6958  0.5554  1.2664
   87MOL0     H11433   6.254   6.251  10.931  0.0868 -0.4056  0.1683
   87MOL0     H11434   6.252   6.431  10.936  0.2892  0.6395 -1.0813
   87MOL0     H11435   6.065   6.237  10.767 -2.5838  0.4695 -2.5956
   87MOL0     H11436   6.080   6.414  10.745  1.2135  0.4468  0.5411
   87MOL0     H11437   5.827   6.448  10.779  0.4493  0.7290  0.6726
   87MOL0     H11438   5.586   6.460  10.913  0.7342  2.2048  1.7084
   87MOL0     H11439   5.619   6.473  11.076 -0.6749  0.4493  0.4783
   87MOL0     H11440   5.591   6.225  11.101  0.0002  1.0364  2.0107
   87MOL0     H11441   5.545   6.222  10.927 -3.5628 -0.7652  1.2007
   87MOL0     H11442   5.397   6.406  11.135  0.8387 -0.9592  1.5262
   87MOL0     H11443   5.348   6.389  10.967 -2.5171  1.2478  1.8205
   87MOL0     H11444   5.337   6.150  11.141 -0.9830  0.5160  3.2397
   87MOL0     H11445   5.249   6.202  10.987 -1.7835  4.9226 -0.5617
   87MOL0     H11446   5.081   6.080  11.127  2.7432  1.7642 -2.4507
   87MOL0     H11447   4.827   6.035  11.075 -0.8528  0.4070  0.3616
   87MOL0     H11448   4.414   6.119  11.173 -3.6858  2.5576  0.2704
   87MOL0     H11449   4.186   6.040  11.159 -0.0507 -0.0903 -0.9616
   87MOL0     H11450   3.960   6.024  10.970  3.4785  1.0861 -1.4365
   87MOL0     H11451   3.897   5.866  10.946 -0.7655  1.4676 -0.1903
   87MOL0     H11452   4.074   5.883  10.714 -0.3856  1.3603 -2.6213
   87MOL0     H11453   4.059   6.054  10.748 -0.3303  0.6657  1.8342
   87MOL0     H11454   3.830   6.064  10.703  0.6657 -0.1664  0.1127
   87MOL0     H11455   3.819   5.890  10.718  1.0228 -0.6639 -0.6301
   87MOL0     H11456   3.951   6.047  10.491  0.3535 -1.4560  0.4507
   87MOL0     H11457   3.956   5.879  10.502 -0.0728 -0.5863 -0.5264
   87MOL0     H11458   3.755   6.027  10.372 -1.3442  2.5842  0.8822
   87MOL0     H11459   3.680   6.010  10.524 -0.9226 -0.0859 -0.0705
   87MOL0     H11460   3.739   5.764  10.526 -0.1242  0.7390  0.5321
   87MOL0     H11461   3.806   5.768  10.372 -0.2637 -0.9621 -0.7982
   87MOL0     H11462   3.557   5.882  10.315  0.4655  0.9300  0.6179
   87MOL0     H11463   3.588   5.706  10.320  2.5402 -0.0582  0.7120
   87MOL0     H11464   3.370   5.769  10.449 -0.1508 -0.4344  1.9389
   87MOL0     H11465   3.486   5.854  10.561  1.8176  0.4524  0.5633
   87MOL0     H11466   4.290   5.825  10.804  1.5276  1.9866 -3.2723
   87MOL0     H11467   4.524   5.921  10.816 -0.9392  0.0177  0.8158
   87MOL0     H11468   4.767   6.447  11.076 -0.8556 -1.9733  2.6828
   87MOL0     H11469   4.999   6.490  11.127  2.4811 -0.3074  0.3095
   87MOL0     H11470   7.092   6.138  10.274 -0.7390 -0.5280  0.3511
   87MOL0     H11471   7.323   6.074  10.232  2.3578 -1.5535 -0.1560
   87MOL0     H11472   7.722   5.998  10.372  0.5935  0.9551  1.0530
   87MOL0     H11473   7.945   5.900  10.325 -2.3376  2.3217 -0.2249
   87MOL0     H11474   8.150   5.801  10.289 -0.7274  1.4037 -0.1785
   87MOL0     H11475   8.041   5.781  10.148  1.0762 -0.2201 -0.8450
   87MOL0     H11476   8.153   5.577  10.071 -1.7713  0.1446  0.7354
   87MOL0     H11477   8.267   5.706  10.079 -0.2407 -1.4218 -2.9995
   87MOL0     H11478   8.324   5.468  10.163  1.5809  0.8606  0.5633
   87MOL0     H11479   8.201   5.493  10.289  0.5715 -1.4610 -0.2241
   87MOL0     H11480   8.446   5.693  10.270  0.0104 -1.0853 -1.1008
   87MOL0     H11481   8.347   5.641  10.411 -0.0016 -1.8580  1.7285
   87MOL0     H11482   8.673   5.370  10.346 -1.6701 -1.3133 -2.1784
   87MOL0     H11483   7.776   5.507  10.288 -2.0943  0.6560 -1.5824
   87MOL0     H11484   7.570   5.588  10.385 -0.2948  0.6236  0.6522
   88MOL0     O11485   7.823  10.378   9.543  0.3448 -1.1021  0.1342
   88MOL0     C11486   7.866  10.407   9.429 -0.3765  0.2361 -0.7284
   88MOL0     O11487   7.790  10.399   9.313 -0.4119  0.0029  0.3598
   88MOL0     C11488   7.663  10.345   9.323  0.3687  0.6241  0.5418
   88MOL0     C11489   7.637  10.211   9.361  0.5248  0.1252 -0.1474
   88MOL0     C11490   7.509  10.167   9.372  0.5900 -0.3612  0.5020
   88MOL0     C11491   7.398  10.242   9.339  0.1230 -0.3454  0.0000
   88MOL0     O11492   7.281  10.186   9.360  0.4393 -0.0532  0.2544
   88MOL0     C11493   7.173  10.272   9.372  0.6123  0.2443 -0.2839
   88MOL0     C11494   7.055  10.175   9.407  0.5234  0.5935  0.1482
   88MOL0     C11495   6.926  10.251   9.424  0.2368 -0.4634 -0.0842
   88MOL0     C11496   6.800  10.177   9.449 -0.6138 -0.0921 -0.5303
   88MOL0     C11497   6.676  10.264   9.467  0.3280 -0.5050 -0.6075
   88MOL0     C11498   6.556  10.190   9.407  0.4671  0.3560  0.0573
   88MOL0     C11499   6.415  10.241   9.446  0.2026  0.5676  0.0522
   88MOL0     C11500   6.303  10.166   9.380 -0.1882 -0.3276  0.2801
   88MOL0     N11501   6.163  10.214   9.393 -0.2294 -0.3561  0.6806
   88MOL0     C11502   6.121  10.337   9.370 -0.5260  0.4166 -0.3281
   88MOL0     C11503   5.998  10.362   9.425  0.6974 -0.1111 -0.5667
   88MOL0     C11504   5.925  10.491   9.420 -0.7519  0.2119 -0.1218
   88MOL0     C11505   5.776  10.473   9.418 -0.3789 -0.6786 -0.5770
   88MOL0     C11506   5.709  10.410   9.299 -0.7969 -0.0326  0.7272
   88MOL0     C11507   5.557  10.421   9.313 -0.5032 -0.3085  0.1774
   88MOL0     O11508   5.502  10.363   9.192 -0.4292 -0.5790 -0.0561
   88MOL0     C11509   5.366  10.351   9.187 -0.2081  0.0100 -0.2670
   88MOL0     C11510   5.275  10.401   9.277  0.3943  0.2381 -0.1397
   88MOL0     C11511   5.139  10.384   9.249  0.8662  0.5497 -0.3612
   88MOL0     C11512   5.086  10.308   9.139  0.5826  0.1161 -0.1274
   88MOL0     C11513   4.942  10.294   9.113  0.7444  1.0313  1.3600
   88MOL0     O11514   4.912  10.191   9.022 -0.4310  0.8749  0.0410
   88MOL0     C11515   4.777  10.165   8.976 -0.2032 -0.3114  0.5998
   88MOL0     C11516   4.768  10.137   8.836  0.1721  0.0695 -0.0592
   88MOL0     C11517   4.650  10.107   8.775  0.7540 -0.8206 -0.4944
   88MOL0     C11518   4.528  10.100   8.843  0.0448 -0.3579  0.1302
   88MOL0     O11519   4.405  10.078   8.784 -0.1789 -0.1722 -0.3082
   88MOL0     C11520   4.406   9.983   8.673  0.7441 -0.6399  0.0381
   88MOL0     C11521   4.269   9.998   8.597 -0.5005 -1.0936 -0.3667
   88MOL0     C11522   4.169   9.912   8.667  0.1819  0.0697 -0.0062
   88MOL0     C11523   4.024   9.919   8.614  0.0956  0.2379 -0.1779
   88MOL0     C11524   3.937   9.823   8.706 -0.7571 -0.2238  0.1377
   88MOL0     C11525   3.821   9.772   8.642 -0.2057  1.0534  0.6432
   88MOL0     C11526   3.765   9.667   8.750 -0.4283  0.5377  0.6488
   88MOL0     C11527   3.635   9.600   8.705  1.0163  0.0472  0.4395
   88MOL0    Cl11528   3.515   9.731   8.692 -0.0522  0.2338 -0.1254
   88MOL0     C11529   4.534  10.144   8.978 -0.3606  0.8358  0.4018
   88MOL0     C11530   4.652  10.167   9.049  0.3338  0.3501  0.5566
   88MOL0     O11531   4.860  10.364   9.169  0.1636  0.4660  0.7867
   88MOL0     C11532   5.182  10.260   9.050 -0.1430 -0.2233  0.3223
   88MOL0     C11533   5.319  10.282   9.074  1.1089  0.2606 -0.1304
   88MOL0     N11534   5.963  10.243   9.479 -0.3537 -0.4206  0.5744
   88MOL0     N11535   6.056  10.157   9.458  0.3097  0.7637 -1.1395
   88MOL0     C11536   7.413  10.374   9.302 -0.2050 -0.4840  0.2806
   88MOL0     C11537   7.545  10.419   9.292 -0.1015  0.0047  0.0305
   88MOL0     C11538   8.013  10.452   9.414  1.1499 -0.1125 -0.0559
   88MOL0     C11539   8.081  10.488   9.534 -0.3293  0.1981  0.3671
   88MOL0     C11540   8.212  10.538   9.527  0.2865 -0.0106  0.0412
   88MOL0     C11541   8.284  10.531   9.409  0.6966  0.0776  0.3970
   88MOL0     O11542   8.416  10.567   9.406  0.2660  0.2419 -0.1671
   88MOL0     C11543   8.494  10.552   9.517 -0.2057  0.4490  0.4571
   88MOL0     C11544   8.642  10.549   9.481 -0.3594  0.8389  0.3905
   88MOL0     C11545   8.699  10.695   9.462 -0.1226  0.2972 -0.2360
   88MOL0     C11546   8.842  10.696   9.402 -0.3136 -0.6896  0.1350
   88MOL0     C11547   8.839  10.641   9.267 -0.6171 -0.6928  0.5815
   88MOL0     C11548   8.827  10.605   9.154 -0.3021 -0.6910 -0.2236
   88MOL0     C11549   8.217  10.484   9.293  0.8479  1.1085  0.3513
   88MOL0     C11550   8.085  10.439   9.297  0.0320 -0.2512 -0.5642
   88MOL0     H11551   7.706  10.140   9.406 -1.4443  0.1551  3.2360
   88MOL0     H11552   7.496  10.063   9.402 -1.2533 -1.1080 -2.4652
   88MOL0     H11553   7.142  10.327   9.283  0.1606  0.8855  0.2516
   88MOL0     H11554   7.192  10.348   9.449 -0.6870  1.9831 -1.5866
   88MOL0     H11555   7.077  10.116   9.496  0.3399 -0.4540 -0.4821
   88MOL0     H11556   7.035  10.106   9.324 -0.4278  1.5377 -0.4317
   88MOL0     H11557   6.917  10.309   9.331 -2.8052  0.1926  0.5029
   88MOL0     H11558   6.945  10.313   9.511  1.5805 -2.3344  1.0133
   88MOL0     H11559   6.791  10.118   9.358  1.5914 -0.2694 -0.7062
   88MOL0     H11560   6.825  10.107   9.529  2.0015  2.0372  0.7286
   88MOL0     H11561   6.685  10.360   9.415  1.3438 -0.3539 -0.1883
   88MOL0     H11562   6.665  10.294   9.572  0.2468 -0.9787 -0.4789
   88MOL0     H11563   6.547  10.087   9.441 -2.9147 -0.3344 -2.4285
   88MOL0     H11564   6.563  10.189   9.297 -0.5430 -3.6864 -0.1241
   88MOL0     H11565   6.406  10.231   9.554 -0.3709  2.7421  0.2576
   88MOL0     H11566   6.403  10.345   9.416 -2.4800 -0.2716 -2.2950
   88MOL0     H11567   6.306  10.062   9.415 -1.4377 -0.1890  0.8684
   88MOL0     H11568   6.316  10.168   9.272 -4.2602 -0.8843 -0.3639
   88MOL0     H11569   6.183  10.409   9.318  2.1279 -2.7990 -1.9380
   88MOL0     H11570   5.953  10.553   9.335 -0.0909  1.7936  1.1845
   88MOL0     H11571   5.963  10.543   9.509  1.2755 -1.0288 -0.1926
   88MOL0     H11572   5.733  10.571   9.441  0.8271 -0.3739  0.4663
   88MOL0     H11573   5.760  10.410   9.506 -4.2271 -0.6089 -1.0519
   88MOL0     H11574   5.738  10.465   9.209 -1.2976 -2.5338 -1.0863
   88MOL0     H11575   5.744  10.307   9.284 -0.1899  0.4943 -2.0208
   88MOL0     H11576   5.528  10.526   9.322 -0.2639 -0.2395  0.1541
   88MOL0     H11577   5.512  10.372   9.400 -1.8852 -0.0041 -0.3451
   88MOL0     H11578   5.313  10.454   9.364 -1.4376  1.1987  0.1299
   88MOL0     H11579   5.061  10.426   9.312 -0.7456  1.9687 -3.1423
   88MOL0     H11580   4.860  10.126   8.778 -0.0403  0.4630 -0.4726
   88MOL0     H11581   4.647  10.088   8.668 -0.6546  1.1212 -0.8495
   88MOL0     H11582   4.425   9.880   8.704  2.6258 -1.1804 -2.6054
   88MOL0     H11583   4.480  10.015   8.599  1.6583 -0.0953  1.1511
   88MOL0     H11584   4.285   9.978   8.491  3.5820  1.4701 -0.4477
   88MOL0     H11585   4.227  10.098   8.607 -0.8290 -0.8204 -3.5156
   88MOL0     H11586   4.163   9.936   8.774 -2.4541  0.4464 -0.1810
   88MOL0     H11587   4.202   9.809   8.651 -1.9639 -0.6742 -0.0511
   88MOL0     H11588   3.978  10.018   8.614 -0.5250 -0.0399 -0.8901
   88MOL0     H11589   4.027   9.880   8.512 -2.5214  0.5773 -0.4502
   88MOL0     H11590   3.909   9.878   8.797 -1.2057  0.2877 -0.3041
   88MOL0     H11591   4.005   9.743   8.736 -0.5607  0.1060  0.5900
   88MOL0     H11592   3.834   9.719   8.548 -0.4376  2.1361 -0.0162
   88MOL0     H11593   3.755   9.857   8.622 -0.5142  0.2542 -2.0753
   88MOL0     H11594   3.842   9.593   8.772 -1.5506 -0.3083  1.8693
   88MOL0     H11595   3.745   9.726   8.840 -0.1233  0.8745  0.5023
   88MOL0     H11596   3.605   9.531   8.785  0.3782  0.7572  0.8250
   88MOL0     H11597   3.654   9.557   8.606 -2.8279  2.1810 -1.4713
   88MOL0     H11598   4.440  10.138   9.032  0.6629 -0.6513  2.1551
   88MOL0     H11599   4.641  10.192   9.153 -1.8168 -0.1691  0.5067
   88MOL0     H11600   5.151  10.200   8.965 -0.6202  2.7082 -1.7072
   88MOL0     H11601   5.385  10.235   9.002 -2.2003 -0.3958 -2.9863
   88MOL0     H11602   7.332  10.433   9.262 -0.8221 -2.7908 -2.1616
   88MOL0     H11603   7.569  10.516   9.250  1.9186  0.0256  1.0829
   88MOL0     H11604   8.036  10.479   9.633  1.5278 -1.4412  1.1322
   88MOL0     H11605   8.257  10.576   9.619 -1.4986  0.5251  0.7433
   88MOL0     H11606   8.471  10.456   9.565 -1.5939  1.1847  1.3133
   88MOL0     H11607   8.479  10.637   9.584  2.0132 -0.3346  2.0652
   88MOL0     H11608   8.696  10.507   9.567 -2.8144  0.1453  1.6747
   88MOL0     H11609   8.665  10.484   9.395  1.0824  0.4945  1.0056
   88MOL0     H11610   8.697  10.741   9.561  0.7428  1.7065 -0.8517
   88MOL0     H11611   8.624  10.744   9.400 -0.1716 -0.8865 -1.1558
   88MOL0     H11612   8.887  10.796   9.400 -0.6430 -0.4646  1.9679
   88MOL0     H11613   8.905  10.634   9.465  0.2024 -0.6714 -0.3548
   88MOL0     H11614   8.805  10.571   9.054  0.9545  0.0156 -0.7505
   88MOL0     H11615   8.272  10.481   9.199 -0.8822 -1.2269 -0.6882
   88MOL0     H11616   8.028  10.408   9.211 -0.9442 -1.3005  0.4176
   89MOL0     O11617   9.383   2.697   2.816 -0.4755  0.6917 -0.5794
   89MOL0     C11618   9.436   2.799   2.778 -0.2305  0.3035 -0.4467
   89MOL0     O11619   9.369   2.914   2.739 -0.2283  0.1093 -0.7439
   89MOL0     C11620   9.238   2.916   2.752  0.0036  1.0249  0.0906
   89MOL0     C11621   9.159   2.938   2.639 -0.1483 -0.4399 -0.0955
   89MOL0     C11622   9.021   2.936   2.652 -0.4836  0.4905  0.6859
   89MOL0     C11623   8.953   2.917   2.767 -0.2840 -0.3686 -0.1416
   89MOL0     O11624   8.818   2.914   2.754 -0.3790  0.2373 -0.2084
   89MOL0     C11625   8.732   2.861   2.849  0.9357  0.3248  0.5311
   89MOL0     C11626   8.592   2.929   2.827  0.0394  0.4911  1.4135
   89MOL0     C11627   8.537   2.923   2.675 -1.3997 -0.6933 -0.4255
   89MOL0     C11628   8.395   2.982   2.664 -0.1872 -0.5492 -0.5780
   89MOL0     C11629   8.294   2.877   2.695 -0.0778  0.4983  0.3178
   89MOL0     C11630   8.149   2.933   2.704 -0.7700  0.0567  0.0151
   89MOL0     C11631   8.061   2.814   2.756 -0.3389 -0.1493  0.5248
   89MOL0     C11632   8.039   2.697   2.662 -0.1631 -0.1755 -0.0476
   89MOL0     N11633   8.037   2.740   2.520 -0.5893 -0.3565 -0.0345
   89MOL0     C11634   7.951   2.822   2.459  0.3434 -0.6593  1.1791
   89MOL0     C11635   7.988   2.822   2.332  0.1461 -0.1804  0.2576
   89MOL0     C11636   7.931   2.910   2.227 -0.1880  0.1384 -0.4997
   89MOL0     C11637   7.782   2.885   2.214  0.0226  0.4785  0.0489
   89MOL0     C11638   7.755   2.741   2.174 -0.4861  0.9359 -0.2227
   89MOL0     C11639   7.613   2.703   2.206  0.1857 -0.2513 -0.0446
   89MOL0     O11640   7.528   2.734   2.089  0.2159  0.3642  0.0966
   89MOL0     C11641   7.394   2.716   2.110 -0.9515 -0.7780 -0.7755
   89MOL0     C11642   7.326   2.709   1.990 -0.3310 -0.1479 -0.2392
   89MOL0     C11643   7.181   2.702   1.995  0.6647 -0.8771  1.0072
   89MOL0     C11644   7.111   2.707   2.110  0.9267  0.5241  0.3949
   89MOL0     C11645   6.962   2.693   2.101  0.5602  0.6550 -0.1446
   89MOL0     O11646   6.901   2.705   1.979 -0.6555 -0.2303 -0.3451
   89MOL0     C11647   6.765   2.713   1.971 -0.6652 -0.2055 -0.1537
   89MOL0     C11648   6.693   2.604   1.920 -0.4047 -0.6227 -0.8334
   89MOL0     C11649   6.554   2.622   1.916  0.5093 -0.1615  0.0508
   89MOL0     C11650   6.485   2.746   1.953  0.4888 -0.0648 -0.4785
   89MOL0     O11651   6.351   2.759   1.935  0.6958  0.3049 -0.0932
   89MOL0     C11652   6.279   2.880   1.951  1.0697 -0.6652  0.2253
   89MOL0     C11653   6.132   2.843   1.913  0.3953  0.3010 -0.3915
   89MOL0     C11654   6.042   2.971   1.938  0.0897  0.6177 -0.8649
   89MOL0     C11655   5.894   2.933   1.936  0.2265 -0.0735  0.2571
   89MOL0     C11656   5.823   3.057   1.897  0.1617 -0.5461  0.0723
   89MOL0     C11657   5.669   3.039   1.913 -0.2221 -0.3975 -0.0108
   89MOL0     C11658   5.592   3.170   1.888  0.4595  0.4205 -0.3639
   89MOL0     C11659   5.447   3.154   1.908 -0.6143  0.3982  0.2247
   89MOL0    Cl11660   5.390   3.145   2.085 -0.0606  0.2676 -0.0240
   89MOL0     C11661   6.571   2.854   1.982 -0.7499  0.2408 -0.1127
   89MOL0     C11662   6.704   2.831   2.004 -0.3547  0.7083 -0.2310
   89MOL0     O11663   6.910   2.661   2.207  0.1384 -0.1768 -0.3860
   89MOL0     C11664   7.180   2.711   2.238  0.9580 -0.1417 -0.3826
   89MOL0     C11665   7.322   2.713   2.234 -0.1617 -0.8435  0.7830
   89MOL0     N11666   8.087   2.729   2.308  0.2120  0.6165  0.3629
   89MOL0     N11667   8.122   2.690   2.427 -0.0740  0.1235  0.1273
   89MOL0     C11668   9.032   2.889   2.879 -0.0235  0.0879 -0.8326
   89MOL0     C11669   9.175   2.889   2.875  0.5221  0.2937 -0.1970
   89MOL0     C11670   9.581   2.789   2.750  0.8618  0.1491  0.0165
   89MOL0     C11671   9.660   2.683   2.806 -0.6300 -0.4037  0.0522
   89MOL0     C11672   9.806   2.696   2.806  0.8558  0.4390  0.8124
   89MOL0     C11673   9.870   2.803   2.732 -0.4915 -0.4760 -0.6561
   89MOL0     O11674  10.006   2.837   2.733 -0.2400 -0.3040  0.1231
   89MOL0     C11675  10.104   2.744   2.789  0.0002  0.2935 -0.9171
   89MOL0     C11676  10.129   2.618   2.700  0.3936 -1.0379  0.6940
   89MOL0     C11677  10.220   2.519   2.768 -0.0437 -0.1193 -0.0714
   89MOL0     C11678  10.364   2.573   2.752 -0.1961  0.5518 -0.1190
   89MOL0     C11679  10.465   2.476   2.795  0.1098  0.7375 -0.3633
   89MOL0     C11680  10.551   2.395   2.829  0.3816  0.2085  0.7757
   89MOL0     C11681   9.790   2.900   2.678  0.9611 -0.2281  0.7128
   89MOL0     C11682   9.649   2.894   2.687 -0.2036 -0.3018 -0.4980
   89MOL0     H11683   9.217   2.958   2.549  2.7748 -3.0780  1.0364
   89MOL0     H11684   8.972   2.948   2.556 -1.4033 -0.1490  1.0602
   89MOL0     H11685   8.776   2.884   2.946  1.5391 -0.5654  0.4773
   89MOL0     H11686   8.714   2.756   2.824  1.6044  0.6699 -1.6978
   89MOL0     H11687   8.606   3.036   2.843 -1.8289  1.3051 -1.6197
   89MOL0     H11688   8.519   2.884   2.895  0.2695 -1.6794  0.3075
   89MOL0     H11689   8.541   2.819   2.642 -1.1159 -0.1148 -2.3016
   89MOL0     H11690   8.613   2.970   2.612  0.4019  0.0576  2.1340
   89MOL0     H11691   8.377   3.056   2.742  0.2652 -1.0913  0.0614
   89MOL0     H11692   8.375   3.015   2.562  2.5047  0.0440 -0.9967
   89MOL0     H11693   8.328   2.830   2.788  1.0455 -0.0498 -0.3525
   89MOL0     H11694   8.287   2.794   2.624 -0.7365  1.0381 -0.2560
   89MOL0     H11695   8.118   2.981   2.611  2.2620 -1.5764 -2.0006
   89MOL0     H11696   8.143   3.006   2.786 -0.5372 -0.4598  0.5029
   89MOL0     H11697   8.087   2.774   2.854 -2.3171 -2.4776  0.1881
   89MOL0     H11698   7.966   2.865   2.778 -0.1614  0.1882  0.5176
   89MOL0     H11699   7.938   2.660   2.683 -0.7282  2.3147  2.1403
   89MOL0     H11700   8.113   2.617   2.675 -2.5734 -2.9386 -2.0184
   89MOL0     H11701   7.878   2.880   2.515 -2.7330 -1.3797 -1.8106
   89MOL0     H11702   7.992   2.893   2.138  0.0655  2.3733 -0.8154
   89MOL0     H11703   7.952   3.013   2.257 -2.5716  0.1121  1.5751
   89MOL0     H11704   7.731   2.942   2.137 -1.4302 -2.0182 -0.9374
   89MOL0     H11705   7.734   2.916   2.308  0.5313 -2.0199  1.2030
   89MOL0     H11706   7.780   2.721   2.069  3.0074  0.6901  0.5220
   89MOL0     H11707   7.818   2.680   2.239  0.6426  0.8339 -1.3611
   89MOL0     H11708   7.577   2.764   2.289  1.2110  0.1173  0.1373
   89MOL0     H11709   7.606   2.598   2.237 -2.1091 -0.2919 -0.5276
   89MOL0     H11710   7.374   2.710   1.893  0.8077 -1.2647  0.2876
   89MOL0     H11711   7.137   2.697   1.896  0.2454  0.3558  1.1109
   89MOL0     H11712   6.737   2.513   1.880 -1.0558 -2.3871  2.1163
   89MOL0     H11713   6.487   2.539   1.895  0.3522  0.1790 -0.8559
   89MOL0     H11714   6.311   2.954   1.877 -3.6868  0.8082 -0.7236
   89MOL0     H11715   6.290   2.928   2.049 -2.3942  1.3634 -0.2116
   89MOL0     H11716   6.082   2.769   1.976 -3.4624  3.4642  0.6544
   89MOL0     H11717   6.123   2.792   1.816  0.0730  0.1987 -0.3108
   89MOL0     H11718   6.068   3.050   1.866 -1.6641  3.3355  1.3012
   89MOL0     H11719   6.064   3.010   2.037  1.5601  0.7141 -1.2089
   89MOL0     H11720   5.882   2.853   1.862 -0.7425 -1.2680  1.6619
   89MOL0     H11721   5.849   2.893   2.027 -0.3895 -1.9154 -0.7935
   89MOL0     H11722   5.855   3.083   1.795 -0.2322  1.8506  0.5021
   89MOL0     H11723   5.857   3.142   1.957 -1.4614  0.9491 -1.0214
   89MOL0     H11724   5.656   3.007   2.017 -3.0710  1.8659  0.4810
   89MOL0     H11725   5.633   2.957   1.850 -1.0300 -0.7095  0.8284
   89MOL0     H11726   5.633   3.246   1.955  1.7470  0.9572 -1.7223
   89MOL0     H11727   5.607   3.203   1.785 -1.2905  3.7997  0.2835
   89MOL0     H11728   5.416   3.062   1.858 -0.2723  1.0503 -1.2470
   89MOL0     H11729   5.386   3.229   1.856 -3.3406 -1.1796  0.9962
   89MOL0     H11730   6.530   2.951   2.007 -1.1036  0.5103 -1.6160
   89MOL0     H11731   6.774   2.907   2.038  0.0118  0.0452  0.5217
   89MOL0     H11732   7.123   2.703   2.330 -0.3753  0.3710 -1.1365
   89MOL0     H11733   7.382   2.716   2.325 -0.4303  0.9904  0.9350
   89MOL0     H11734   8.988   2.861   2.974 -1.0365  0.5636 -1.1420
   89MOL0     H11735   9.243   2.866   2.956  0.5119  2.9622  0.6626
   89MOL0     H11736   9.614   2.597   2.853  0.2802  0.0296  1.8062
   89MOL0     H11737   9.873   2.630   2.860  3.2028  3.7589  2.3177
   89MOL0     H11738  10.062   2.712   2.885 -0.7684  2.9140 -0.2983
   89MOL0     H11739  10.195   2.802   2.802 -0.7355  2.6523 -4.7507
   89MOL0     H11740  10.038   2.557   2.702 -1.3633  1.3957  2.6879
   89MOL0     H11741  10.165   2.645   2.601 -0.4242 -0.2920  0.5804
   89MOL0     H11742  10.205   2.419   2.725 -1.5921  0.1820 -0.3000
   89MOL0     H11743  10.198   2.488   2.871  1.4838  0.5514  0.4884
   89MOL0     H11744  10.388   2.604   2.650 -1.6911  4.2378  0.5082
   89MOL0     H11745  10.377   2.651   2.827  0.3478  0.4998 -0.1565
   89MOL0     H11746  10.625   2.326   2.864  1.3780  1.8751  2.1433
   89MOL0     H11747   9.840   2.983   2.629 -1.5182  0.6203 -0.5452
   89MOL0     H11748   9.600   2.986   2.657  1.2457  0.7204  0.1165
   90MOL0     O11749   2.192   8.183   9.698  0.2039 -0.0167 -0.0500
   90MOL0     C11750   2.164   8.064   9.712 -0.7392 -0.0635  0.2542
   90MOL0     O11751   2.038   8.005   9.712 -0.5250 -0.4615  0.5021
   90MOL0     C11752   1.941   8.098   9.695 -0.0912 -0.6184 -0.2556
   90MOL0     C11753   1.910   8.150   9.570 -0.5163 -0.2030 -0.1426
   90MOL0     C11754   1.809   8.242   9.554  0.3649  0.0064 -0.7826
   90MOL0     C11755   1.732   8.284   9.655  0.5866  0.0825  0.7682
   90MOL0     O11756   1.628   8.368   9.620 -0.4426  0.0178  0.2764
   90MOL0     C11757   1.522   8.388   9.713  0.2117  0.1999  0.1790
   90MOL0     C11758   1.430   8.487   9.634  0.0403 -0.5492 -0.9449
   90MOL0     C11759   1.302   8.509   9.712 -0.0241 -0.6248 -0.9776
   90MOL0     C11760   1.202   8.601   9.649  0.1470  0.4150 -0.2204
   90MOL0     C11761   1.057   8.575   9.701 -0.4570  0.2799  0.4234
   90MOL0     C11762   1.050   8.601   9.849  0.7793 -0.2975 -0.9980
   90MOL0     C11763   0.918   8.557   9.910  0.2200  0.2148  0.1311
   90MOL0     C11764   0.891   8.610  10.047  0.8491 -1.0216 -1.1435
   90MOL0     N11765   0.752   8.588  10.093  0.1361 -0.3808  0.2958
   90MOL0     C11766   0.709   8.490  10.171  0.1755  0.9643  0.0919
   90MOL0     C11767   0.579   8.524  10.192  0.0666  0.7148 -0.3089
   90MOL0     C11768   0.480   8.438  10.279  0.1915  0.2533 -0.4613
   90MOL0     C11769   0.368   8.523  10.347 -0.1337  0.3169 -0.2836
   90MOL0     C11770   0.308   8.453  10.472 -0.1173  0.5932  0.2690
   90MOL0     C11771   0.188   8.519  10.533 -0.3421 -0.4808  0.6573
   90MOL0     O11772   0.089   8.555  10.436 -0.0913 -0.4676 -0.2021
   90MOL0     C11773  -0.015   8.628  10.478 -0.1915  0.6887  0.2334
   90MOL0     C11774  -0.051   8.649  10.605  0.6080  0.5645 -0.6816
   90MOL0     C11775  -0.133   8.760  10.635 -0.2476  0.1555  0.2190
   90MOL0     C11776  -0.198   8.834  10.528  0.2421  0.0632 -0.4111
   90MOL0     C11777  -0.273   8.959  10.538 -0.2756 -0.5323 -0.0144
   90MOL0     O11778  -0.347   9.011  10.440  0.8513  0.4868 -1.4194
   90MOL0     C11779  -0.396   9.138  10.455  0.1915  0.3055  0.2420
   90MOL0     C11780  -0.317   9.251  10.492  0.7346 -0.1822  0.2709
   90MOL0     C11781  -0.377   9.381  10.499 -0.6007  0.3588 -0.0311
   90MOL0     C11782  -0.511   9.388  10.489 -0.5279  0.1833  0.3521
   90MOL0     O11783  -0.580   9.501  10.520 -0.7800 -0.2482 -0.0213
   90MOL0     C11784  -0.544   9.617  10.449 -0.8825 -0.1027 -0.5857
   90MOL0     C11785  -0.426   9.697  10.512  0.3882  0.3212 -0.5645
   90MOL0     C11786  -0.434   9.713  10.663 -0.0229  0.8560  0.1739
   90MOL0     C11787  -0.533   9.812  10.718 -0.5336 -0.2189 -0.4480
   90MOL0     C11788  -0.494   9.829  10.869  0.5214  0.5248  0.9455
   90MOL0     C11789  -0.590   9.895  10.968  0.0748 -0.4767 -0.0091
   90MOL0     C11790  -0.540  10.036  10.994  0.4652 -0.6358 -0.2367
   90MOL0     C11791  -0.617  10.095  11.124 -0.1333 -0.1303  0.0151
   90MOL0    Cl11792  -0.551  10.051  11.284 -0.1575  0.1910 -0.4584
   90MOL0     C11793  -0.588   9.281  10.435 -0.6691  1.1267 -0.3398
   90MOL0     C11794  -0.526   9.159  10.409 -0.4074 -0.4530  0.1935
   90MOL0     O11795  -0.254   9.011  10.648 -0.0475  0.1603 -0.0261
   90MOL0     C11796  -0.172   8.790  10.402  0.2788 -0.0433  0.5413
   90MOL0     C11797  -0.090   8.688  10.376  0.6306  0.4719  0.2991
   90MOL0     N11798   0.546   8.646  10.135  0.1381  0.0005 -0.4763
   90MOL0     N11799   0.652   8.675  10.063  0.6415  0.0114  0.0522
   90MOL0     C11800   1.756   8.229   9.782  0.3393 -0.5935  0.6883
   90MOL0     C11801   1.857   8.134   9.800 -0.6959  0.3583  0.1917
   90MOL0     C11802   2.280   7.970   9.725 -1.1648  0.7370 -0.1250
   90MOL0     C11803   2.416   8.019   9.711 -0.1316  0.1836 -0.2446
   90MOL0     C11804   2.527   7.939   9.741 -0.4076  0.1972 -0.9347
   90MOL0     C11805   2.512   7.810   9.783 -0.0713  0.2214 -0.5615
   90MOL0     O11806   2.608   7.714   9.797 -0.9015  0.2799  0.6867
   90MOL0     C11807   2.687   7.753   9.909  0.1128  0.4666 -0.3968
   90MOL0     C11808   2.633   7.710  10.038  0.2763  1.0457  0.6297
   90MOL0     C11809   2.581   7.564  10.034 -0.3381  0.6041 -0.2621
   90MOL0     C11810   2.693   7.452  10.017 -0.4043 -0.0124 -0.3831
   90MOL0     C11811   2.617   7.330  10.010 -1.2544 -0.1637  0.0827
   90MOL0     C11812   2.554   7.230   9.989  0.5563  0.4229  1.1550
   90MOL0     C11813   2.381   7.755   9.786 -0.5011  0.2385  0.0523
   90MOL0     C11814   2.269   7.831   9.752  0.1077  0.2815 -0.1600
   90MOL0     H11815   1.964   8.108   9.485 -2.7724 -0.1110 -1.7235
   90MOL0     H11816   1.799   8.290   9.457  0.0183  0.7379 -0.3860
   90MOL0     H11817   1.557   8.433   9.807  1.4859  0.6808 -0.5074
   90MOL0     H11818   1.473   8.292   9.732 -0.7367  0.8172  0.9862
   90MOL0     H11819   1.404   8.465   9.530 -1.4553  1.2698 -1.0184
   90MOL0     H11820   1.493   8.575   9.622  1.4843 -1.1572  1.4339
   90MOL0     H11821   1.339   8.551   9.806 -0.7038 -0.0469 -0.9567
   90MOL0     H11822   1.255   8.412   9.732 -2.1632  0.6788  0.9642
   90MOL0     H11823   1.216   8.709   9.661  0.1092  0.5556 -1.3062
   90MOL0     H11824   1.192   8.575   9.543  1.3592  0.4644 -0.3614
   90MOL0     H11825   1.026   8.474   9.674  2.3603 -0.3988 -0.6073
   90MOL0     H11826   0.985   8.635   9.645  0.0361 -1.7414 -2.5681
   90MOL0     H11827   1.074   8.705   9.874  0.5500 -0.3540 -0.5202
   90MOL0     H11828   1.125   8.549   9.909 -1.2497 -0.1252  1.9794
   90MOL0     H11829   0.846   8.590   9.834 -0.2439 -2.6319 -0.7756
   90MOL0     H11830   0.909   8.448   9.908  1.1972  0.1218  0.0714
   90MOL0     H11831   0.915   8.717  10.044  0.4525 -0.9445 -3.3674
   90MOL0     H11832   0.956   8.565  10.123  0.4953  1.1151  0.5335
   90MOL0     H11833   0.750   8.402  10.219 -0.3113  1.0355  0.6458
   90MOL0     H11834   0.539   8.399  10.363 -0.9770  1.7990  1.1335
   90MOL0     H11835   0.430   8.359  10.223  0.1764  1.2752 -1.9308
   90MOL0     H11836   0.302   8.532  10.261  0.1742 -0.1325 -0.5704
   90MOL0     H11837   0.409   8.620  10.377 -0.9417  1.2205 -1.9538
   90MOL0     H11838   0.290   8.346  10.454 -0.3838  0.6927 -0.0556
   90MOL0     H11839   0.393   8.458  10.540  3.9083  1.2291 -4.2225
   90MOL0     H11840   0.205   8.617  10.578 -1.7513  1.4797 -2.7102
   90MOL0     H11841   0.144   8.463  10.616  0.8125 -1.9276  0.3385
   90MOL0     H11842  -0.009   8.591  10.686  0.7758  2.4411  0.6266
   90MOL0     H11843  -0.151   8.780  10.740 -1.5898 -3.5957  0.8860
   90MOL0     H11844  -0.210   9.233  10.497  0.5730 -3.6455 -3.7052
   90MOL0     H11845  -0.313   9.466  10.521  0.8555 -0.6592 -0.1815
   90MOL0     H11846  -0.624   9.691  10.444 -2.0665 -1.3861 -1.2905
   90MOL0     H11847  -0.511   9.588  10.348 -0.0805 -2.3727  0.2508
   90MOL0     H11848  -0.433   9.793  10.461 -1.6424  0.4056 -0.2157
   90MOL0     H11849  -0.329   9.652  10.487 -0.2615 -0.1517 -2.4144
   90MOL0     H11850  -0.336   9.756  10.685 -0.1071  0.3299  1.6509
   90MOL0     H11851  -0.454   9.613  10.703  0.6924  1.0118  0.9328
   90MOL0     H11852  -0.522   9.897  10.649 -0.8526  0.0993 -0.1113
   90MOL0     H11853  -0.636   9.776  10.713 -0.2249 -1.0735 -0.8101
   90MOL0     H11854  -0.396   9.877  10.873  1.0087 -0.5266  3.6041
   90MOL0     H11855  -0.480   9.730  10.912 -0.0571 -0.4275 -0.9462
   90MOL0     H11856  -0.588   9.843  11.064 -0.5430 -0.0742  0.2213
   90MOL0     H11857  -0.693   9.900  10.931 -0.1970  1.5435  0.8909
   90MOL0     H11858  -0.435  10.032  11.024  0.7504  2.2835 -0.5976
   90MOL0     H11859  -0.531  10.107  10.912  1.6156  0.4860  0.8086
   90MOL0     H11860  -0.722  10.067  11.116  0.2580 -1.2374 -1.6064
   90MOL0     H11861  -0.613  10.205  11.116 -1.2448 -0.1459 -1.1987
   90MOL0     H11862  -0.693   9.285  10.409 -1.0824  1.6171  1.2683
   90MOL0     H11863  -0.589   9.082  10.365  0.3621 -1.0832  0.1711
   90MOL0     H11864  -0.220   8.849  10.324 -2.0001  0.4332  2.1806
   90MOL0     H11865  -0.074   8.658  10.273 -1.5484 -0.5606  0.2062
   90MOL0     H11866   1.676   8.247   9.852 -0.7886 -4.1096  0.5151
   90MOL0     H11867   1.869   8.095   9.901  2.1537  0.9698  0.1495
   90MOL0     H11868   2.439   8.120   9.677 -0.3625 -0.2009 -1.6217
   90MOL0     H11869   2.628   7.978   9.731  0.4511 -1.6655 -0.0443
   90MOL0     H11870   2.694   7.862   9.919 -1.3493  0.5173  0.2664
   90MOL0     H11871   2.789   7.714   9.894  0.6007  0.9695  1.4118
   90MOL0     H11872   2.716   7.707  10.109  0.7201  0.5554  0.0961
   90MOL0     H11873   2.555   7.770  10.086 -1.1717 -2.1415  2.5802
   90MOL0     H11874   2.514   7.547   9.949  2.0709 -2.7894 -1.6860
   90MOL0     H11875   2.530   7.552  10.130 -1.0575 -0.2588 -0.7327
   90MOL0     H11876   2.747   7.467   9.923  2.7088  0.4125  1.3286
   90MOL0     H11877   2.756   7.444  10.107  1.4753  1.9069 -1.4392
   90MOL0     H11878   2.496   7.141   9.973  0.6350  0.2831  1.6240
   90MOL0     H11879   2.363   7.649   9.797  1.5304 -0.2775 -1.0182
   90MOL0     H11880   2.171   7.784   9.760 -0.4796  1.7037  2.1046
   91MOL0     O11881   1.306   3.224   3.879  0.2845  0.2588 -0.1255
   91MOL0     C11882   1.377   3.125   3.873  0.7413  0.5630  0.2599
   91MOL0     O11883   1.364   3.008   3.946  0.1794 -0.6065 -0.4277
   91MOL0     C11884   1.253   2.987   4.035  0.3565 -0.2193 -0.4100
   91MOL0     C11885   1.135   3.065   4.061 -1.3849 -0.5358 -0.4248
   91MOL0     C11886   1.030   3.013   4.138 -0.4200 -0.2119 -0.1070
   91MOL0     C11887   1.045   2.896   4.209  0.0508 -0.0834 -0.6275
   91MOL0     O11888   0.944   2.865   4.303  0.0178 -0.5911  0.1151
   91MOL0     C11889   0.948   2.733   4.364 -0.4444  1.0200  0.1846
   91MOL0     C11890   0.849   2.735   4.480 -0.4731 -0.3259 -0.6684
   91MOL0     C11891   0.825   2.598   4.532 -0.0011 -0.3562 -0.0596
   91MOL0     C11892   0.852   2.570   4.680 -0.2854 -0.3165  0.7787
   91MOL0     C11893   0.768   2.463   4.741 -0.5546  0.0402 -0.4913
   91MOL0     C11894   0.622   2.513   4.757  0.3524 -0.0394  0.8686
   91MOL0     C11895   0.563   2.434   4.871  0.9045  0.4969 -0.6489
   91MOL0     C11896   0.541   2.287   4.832 -0.6956 -0.3956  0.2687
   91MOL0     N11897   0.473   2.220   4.938  0.2832  0.2905  0.5726
   91MOL0     C11898   0.531   2.202   5.057  0.0398  0.2961  0.1315
   91MOL0     C11899   0.437   2.147   5.142  0.3397 -0.2719  1.3377
   91MOL0     C11900   0.461   2.135   5.294  0.6106 -0.5817  0.3629
   91MOL0     C11901   0.342   2.185   5.373 -0.1010  0.5097  0.9905
   91MOL0     C11902   0.218   2.095   5.356  1.0650 -0.1031 -0.2058
   91MOL0     C11903   0.116   2.107   5.471 -0.2122 -0.4371 -0.1214
   91MOL0     O11904   0.074   2.246   5.475 -0.9360  0.6454 -0.4702
   91MOL0     C11905  -0.032   2.277   5.559 -0.3325 -0.3305  0.3291
   91MOL0     C11906  -0.087   2.203   5.666 -0.8074 -1.2792 -0.1777
   91MOL0     C11907  -0.183   2.259   5.754 -0.5197 -0.5398 -0.0080
   91MOL0     C11908  -0.219   2.400   5.745 -0.4863  0.3425  1.0950
   91MOL0     C11909  -0.309   2.457   5.853  1.1888  0.5842 -0.6621
   91MOL0     O11910  -0.360   2.364   5.943  0.5008 -0.4863  0.9231
   91MOL0     C11911  -0.444   2.398   6.039  0.3820 -0.5949  1.1870
   91MOL0     C11912  -0.527   2.293   6.065 -0.6928 -0.1965  0.3299
   91MOL0     C11913  -0.626   2.305   6.168 -0.7609  0.3198 -0.1284
   91MOL0     C11914  -0.630   2.415   6.257  0.6260 -1.0763  0.4514
   91MOL0     O11915  -0.729   2.441   6.353 -0.2461  0.4892  0.6414
   91MOL0     C11916  -0.858   2.373   6.340  0.6103  0.7303 -0.2658
   91MOL0     C11917  -0.979   2.458   6.393 -0.2367  0.5582 -0.1380
   91MOL0     C11918  -1.123   2.410   6.367 -0.6128  0.8651  0.2846
   91MOL0     C11919  -1.126   2.264   6.318 -0.5025  0.3775 -0.1925
   91MOL0     C11920  -1.274   2.219   6.318  0.0401 -0.2311  0.1380
   91MOL0     C11921  -1.347   2.262   6.190 -0.7686 -0.2810  0.5572
   91MOL0     C11922  -1.488   2.198   6.187 -0.2092 -0.9964  0.0467
   91MOL0     C11923  -1.585   2.267   6.292 -0.0932  0.8751  0.8087
   91MOL0    Cl11924  -1.746   2.176   6.316 -0.1320  0.1197 -0.0656
   91MOL0     C11925  -0.545   2.523   6.233  0.6833  0.4560  0.3181
   91MOL0     C11926  -0.448   2.510   6.125 -0.1993  0.5710 -0.6471
   91MOL0     O11927  -0.336   2.573   5.850 -0.2698 -0.7303 -1.0824
   91MOL0     C11928  -0.158   2.473   5.630 -0.1736  0.5917 -0.8388
   91MOL0     C11929  -0.074   2.410   5.535 -0.3365  0.7487 -0.1935
   91MOL0     N11930   0.330   2.116   5.058 -0.3743  0.1251 -0.5260
   91MOL0     N11931   0.357   2.158   4.943  0.3179  0.3105 -0.2494
   91MOL0     C11932   1.163   2.817   4.177  0.8066  0.1259  0.3350
   91MOL0     C11933   1.266   2.866   4.099 -0.7780  0.1327 -0.4975
   91MOL0     C11934   1.486   3.130   3.772  0.1246  0.4720  0.3485
   91MOL0     C11935   1.614   3.060   3.787 -0.4034  0.5908 -0.5345
   91MOL0     C11936   1.717   3.074   3.691  0.2754  0.0567 -0.6995
   91MOL0     C11937   1.701   3.157   3.581  0.0334 -0.0226  0.4735
   91MOL0     O11938   1.792   3.175   3.478  0.0938 -0.6382  0.4563
   91MOL0     C11939   1.914   3.096   3.470  0.2388  0.7579  1.0923
   91MOL0     C11940   1.984   3.106   3.339 -0.1798 -0.0134  0.6446
   91MOL0     C11941   1.989   3.248   3.292  0.2057 -0.6597 -0.5337
   91MOL0     C11942   2.076   3.271   3.168 -0.7881 -0.1907 -1.2040
   91MOL0     C11943   2.215   3.260   3.213 -0.2080 -0.1723 -0.0698
   91MOL0     C11944   2.334   3.248   3.239 -0.2818  0.7711  0.5069
   91MOL0     C11945   1.580   3.231   3.572  0.5121 -0.5017 -0.3928
   91MOL0     C11946   1.480   3.214   3.664 -0.2793  0.3675 -0.5184
   91MOL0     H11947   1.129   3.166   4.021  1.6712 -0.2299 -0.3400
   91MOL0     H11948   0.936   3.063   4.159 -1.1046 -1.4358 -0.1556
   91MOL0     H11949   1.048   2.715   4.404  0.2742  1.3800 -1.3444
   91MOL0     H11950   0.927   2.649   4.297  1.0247  0.4668  0.3794
   91MOL0     H11951   0.761   2.792   4.447 -0.0716 -1.2092 -3.4730
   91MOL0     H11952   0.895   2.782   4.567  0.9178 -0.2431 -1.4143
   91MOL0     H11953   0.874   2.520   4.474  0.5231  0.3145 -0.5443
   91MOL0     H11954   0.717   2.583   4.527  0.3024 -2.2731 -2.3697
   91MOL0     H11955   0.958   2.548   4.700  0.3428  0.9442 -0.8677
   91MOL0     H11956   0.837   2.664   4.734 -0.5945  0.3693 -0.4495
   91MOL0     H11957   0.804   2.447   4.843  1.3430  2.0151 -0.7659
   91MOL0     H11958   0.773   2.372   4.681  3.0304 -0.9860  1.1441
   91MOL0     H11959   0.568   2.507   4.662  1.4076 -0.1246  0.2617
   91MOL0     H11960   0.622   2.618   4.788  0.8878  0.2301 -0.0322
   91MOL0     H11961   0.624   2.434   4.961  3.3143  2.8184 -2.1284
   91MOL0     H11962   0.464   2.473   4.896  0.0243 -0.9449 -1.6844
   91MOL0     H11963   0.631   2.227   4.819 -1.0402 -0.7740 -0.4264
   91MOL0     H11964   0.477   2.291   4.744 -1.8070  2.3120  1.0918
   91MOL0     H11965   0.629   2.242   5.081  0.4588  0.2263 -1.4013
   91MOL0     H11966   0.548   2.197   5.317 -0.3083  0.2472  1.8141
   91MOL0     H11967   0.492   2.035   5.327  1.2055 -0.5985 -0.2304
   91MOL0     H11968   0.315   2.289   5.353 -0.4034  0.3466  0.5366
   91MOL0     H11969   0.361   2.170   5.480  0.2498  1.4415  1.0608
   91MOL0     H11970   0.158   2.134   5.273 -0.1290  2.7624  1.8536
   91MOL0     H11971   0.232   1.987   5.343 -2.3627 -0.3855 -3.0371
   91MOL0     H11972   0.153   2.066   5.566 -0.0894 -0.4714 -0.1846
   91MOL0     H11973   0.031   2.047   5.436  1.1508 -1.3086 -2.0342
   91MOL0     H11974  -0.054   2.101   5.687  1.8194 -0.3394  0.6678
   91MOL0     H11975  -0.220   2.207   5.842 -2.5785 -1.9868 -1.6284
   91MOL0     H11976  -0.528   2.204   6.003 -1.4845  1.0218 -1.4849
   91MOL0     H11977  -0.692   2.218   6.164 -1.5162  0.8866 -0.2931
   91MOL0     H11978  -0.859   2.272   6.384 -0.1524  0.4221 -0.9596
   91MOL0     H11979  -0.883   2.344   6.238 -1.5360  1.4547  0.0050
   91MOL0     H11980  -0.981   2.560   6.354  0.2997  0.7939  0.4188
   91MOL0     H11981  -0.959   2.454   6.501 -1.1336 -1.2370 -0.0083
   91MOL0     H11982  -1.156   2.474   6.284 -0.5453  0.1952 -0.2684
   91MOL0     H11983  -1.198   2.427   6.445 -1.9850 -0.6025 -0.6322
   91MOL0     H11984  -1.083   2.246   6.219 -1.1020 -1.2857 -0.1827
   91MOL0     H11985  -1.081   2.205   6.398  1.1032 -2.0699 -2.7137
   91MOL0     H11986  -1.325   2.266   6.403  1.8055  0.1945  1.0096
   91MOL0     H11987  -1.276   2.110   6.327 -0.3616 -0.2302  0.1051
   91MOL0     H11988  -1.290   2.220   6.106  1.3059 -0.8091  2.1620
   91MOL0     H11989  -1.364   2.370   6.187 -3.9135 -0.5984  2.2906
   91MOL0     H11990  -1.521   2.210   6.084  0.4280 -0.9462 -0.1539
   91MOL0     H11991  -1.494   2.090   6.202  0.2524 -1.6785 -3.6837
   91MOL0     H11992  -1.604   2.374   6.275 -4.5791  0.2804  0.7947
   91MOL0     H11993  -1.546   2.255   6.394 -0.9702 -1.8578  0.9077
   91MOL0     H11994  -0.558   2.618   6.283  0.7385 -0.4430  2.1398
   91MOL0     H11995  -0.379   2.591   6.100  2.6511 -2.1190 -2.3685
   91MOL0     H11996  -0.191   2.575   5.611  0.6931  0.7479 -1.5858
   91MOL0     H11997  -0.038   2.470   5.452 -0.1750 -0.8260 -1.3021
   91MOL0     H11998   1.160   2.712   4.203 -2.9603 -0.7198 -2.6644
   91MOL0     H11999   1.357   2.807   4.088 -0.2474  1.2576 -2.8764
   91MOL0     H12000   1.629   2.990   3.869 -1.4232  1.1627  0.1537
   91MOL0     H12001   1.802   3.006   3.701 -0.5797 -0.8056  1.1502
   91MOL0     H12002   1.875   2.993   3.473  0.7757  0.2638 -3.1034
   91MOL0     H12003   1.989   3.109   3.549  1.9289 -1.7559  0.0294
   91MOL0     H12004   2.081   3.055   3.339 -1.1223 -2.0896 -2.5964
   91MOL0     H12005   1.925   3.050   3.267 -1.6095 -0.4862  2.1284
   91MOL0     H12006   2.011   3.312   3.378 -4.6766  0.4762  0.1642
   91MOL0     H12007   1.890   3.280   3.261  1.8261  1.1112 -4.5371
   91MOL0     H12008   2.053   3.198   3.089  1.2273 -0.8518 -1.2372
   91MOL0     H12009   2.063   3.372   3.126 -0.8940 -1.4180 -4.4624
   91MOL0     H12010   2.439   3.230   3.255 -0.5122  1.5962  3.4711
   91MOL0     H12011   1.561   3.302   3.491 -1.6918  0.9036  1.2250
   91MOL0     H12012   1.388   3.272   3.665  0.0127  1.0372  3.6818
   92MOL0     O12013  10.776   6.075   6.330  0.7068 -0.4149 -0.0116
   92MOL0     C12014  10.873   6.142   6.360 -0.4506  0.1377  0.8229
   92MOL0     O12015  10.870   6.277   6.393 -0.3866  0.4893  0.1411
   92MOL0     C12016  10.751   6.337   6.388  1.1982  0.7079  0.1262
   92MOL0     C12017  10.718   6.431   6.289 -0.2810  0.6137 -0.5405
   92MOL0     C12018  10.588   6.492   6.292 -0.2838 -0.1550  0.6067
   92MOL0     C12019  10.498   6.469   6.391 -0.3993 -0.7783  0.8985
   92MOL0     O12020  10.371   6.514   6.380  0.2939 -0.2878 -0.2680
   92MOL0     C12021  10.291   6.529   6.498  0.7886 -0.2248  0.8802
   92MOL0     C12022  10.147   6.517   6.450  0.7586  1.0778 -0.6334
   92MOL0     C12023  10.094   6.368   6.458  0.0348 -0.3274  0.6540
   92MOL0     C12024   9.964   6.345   6.382  0.6506  0.1865  0.3814
   92MOL0     C12025   9.847   6.412   6.450  0.4709  0.1597 -0.9510
   92MOL0     C12026   9.719   6.392   6.364 -0.2321  0.3911 -0.6501
   92MOL0     C12027   9.601   6.393   6.468  0.0668  0.0271 -0.1136
   92MOL0     C12028   9.463   6.405   6.387  0.4496  0.6130  0.4564
   92MOL0     N12029   9.444   6.541   6.327  0.8256  0.2500  0.2293
   92MOL0     C12030   9.462   6.577   6.197  0.4956  0.8972  0.1169
   92MOL0     C12031   9.412   6.703   6.181 -0.3168 -0.5901  0.3132
   92MOL0     C12032   9.396   6.782   6.053 -0.3082 -0.3314 -0.0742
   92MOL0     C12033   9.271   6.751   5.983  0.6622  0.0794  0.1817
   92MOL0     C12034   9.242   6.858   5.872  0.4383  0.5482  0.0884
   92MOL0     C12035   9.105   6.839   5.810  0.2322  0.2916 -0.7110
   92MOL0     O12036   9.065   6.952   5.732 -0.1344 -0.3437  0.3085
   92MOL0     C12037   8.928   6.970   5.702 -0.1877  0.4748 -0.4247
   92MOL0     C12038   8.831   6.876   5.735 -0.0134 -0.1421 -0.0354
   92MOL0     C12039   8.700   6.895   5.696 -0.1958  0.1231 -0.6655
   92MOL0     C12040   8.650   7.003   5.632 -0.0252  0.2302 -0.8520
   92MOL0     C12041   8.512   7.006   5.594 -0.3521  0.7284  0.1914
   92MOL0     O12042   8.481   7.112   5.507  0.8442  0.5213 -0.1312
   92MOL0     C12043   8.359   7.129   5.461 -0.1256 -0.2260 -0.4890
   92MOL0     C12044   8.324   7.080   5.336  0.3083  0.2921 -0.3916
   92MOL0     C12045   8.189   7.098   5.297  0.9448  0.3552  0.7232
   92MOL0     C12046   8.093   7.170   5.377  0.9555 -0.5045  0.3176
   92MOL0     O12047   7.965   7.195   5.327  0.5147 -0.2326 -0.2367
   92MOL0     C12048   7.974   7.257   5.202  0.5980 -0.5363  0.3693
   92MOL0     C12049   7.843   7.337   5.176 -0.2948  0.3894  0.0920
   92MOL0     C12050   7.734   7.233   5.182 -0.2446  0.3212 -0.6299
   92MOL0     C12051   7.606   7.298   5.138  0.7422  0.1623 -0.5704
   92MOL0     C12052   7.483   7.226   5.200  0.4650 -0.2871 -0.5021
   92MOL0     C12053   7.350   7.300   5.166 -0.4465  0.3352  0.3642
   92MOL0     C12054   7.252   7.253   5.259 -0.2666 -0.5045  0.0305
   92MOL0     C12055   7.115   7.300   5.221  0.5826  0.0428  0.6227
   92MOL0    Cl12056   7.005   7.216   5.329 -0.1512  0.0612  0.0263
   92MOL0     C12057   8.133   7.206   5.506 -0.5083  1.1879  0.0168
   92MOL0     C12058   8.265   7.195   5.540  0.0429  0.2557  0.5942
   92MOL0     O12059   8.433   6.929   5.643 -0.0437  0.1332 -0.1417
   92MOL0     C12060   8.743   7.106   5.607  0.1045  0.0144 -0.5314
   92MOL0     C12061   8.880   7.087   5.645  0.3753 -0.2137  0.5113
   92MOL0     N12062   9.379   6.752   6.311  0.0871 -0.2277 -0.0470
   92MOL0     N12063   9.386   6.650   6.391  0.1753  0.1942 -0.9468
   92MOL0     C12064  10.539   6.390   6.502 -0.5382  1.1843 -0.7746
   92MOL0     C12065  10.662   6.328   6.500  0.8060  0.1898 -0.1134
   92MOL0     C12066  11.005   6.072   6.359  0.0689 -1.1695 -0.0952
   92MOL0     C12067  11.029   5.969   6.276  0.3452 -0.4198 -1.1268
   92MOL0     C12068  11.155   5.919   6.258  0.5411  0.7230  0.0250
   92MOL0     C12069  11.266   5.960   6.340 -0.7370  0.1822 -0.4346
   92MOL0     O12070  11.380   5.890   6.332 -0.1388 -0.5815 -0.2584
   92MOL0     C12071  11.488   5.918   6.424 -0.7419  0.6888  0.2468
   92MOL0     C12072  11.570   5.790   6.444  0.0331 -0.4537 -0.4769
   92MOL0     C12073  11.534   5.702   6.559 -0.4770 -0.6344  0.1534
   92MOL0     C12074  11.381   5.677   6.570  0.1387  0.3871 -0.1309
   92MOL0     C12075  11.339   5.604   6.447  0.6280  0.5564  0.4224
   92MOL0     C12076  11.299   5.541   6.349 -0.5109 -0.2179  0.1082
   92MOL0     C12077  11.240   6.074   6.426 -0.8975 -0.6186 -0.7952
   92MOL0     C12078  11.111   6.124   6.436  0.3437 -0.4945 -0.3381
   92MOL0     H12079  10.791   6.450   6.210  0.5101 -0.1217 -0.0006
   92MOL0     H12080  10.559   6.563   6.216  0.7368 -0.5360 -0.1593
   92MOL0     H12081  10.316   6.624   6.548 -2.3695  0.4728  1.3269
   92MOL0     H12082  10.305   6.449   6.571 -0.4640  0.1226  1.5271
   92MOL0     H12083  10.143   6.544   6.344 -0.3876 -1.3999 -1.2973
   92MOL0     H12084  10.075   6.569   6.515  0.2580  0.5319 -0.7410
   92MOL0     H12085  10.077   6.328   6.559 -1.5430  0.4714  0.7442
   92MOL0     H12086  10.179   6.320   6.409  1.6400  2.4519  0.5379
   92MOL0     H12087   9.972   6.397   6.286 -0.9160 -1.2208 -0.5584
   92MOL0     H12088   9.958   6.240   6.353  0.3125  0.4120 -0.3923
   92MOL0     H12089   9.846   6.521   6.458 -1.4198  0.0543  1.1702
   92MOL0     H12090   9.835   6.368   6.549  1.9669 -2.0233 -1.6505
   92MOL0     H12091   9.725   6.295   6.314  0.9979 -1.0102  2.0092
   92MOL0     H12092   9.708   6.462   6.280 -3.0567 -0.1006 -0.7867
   92MOL0     H12093   9.608   6.297   6.520  0.4995 -0.9095 -1.8176
   92MOL0     H12094   9.606   6.475   6.541  0.0052 -1.2339  1.3462
   92MOL0     H12095   9.379   6.386   6.453  0.4461  2.6382  1.1071
   92MOL0     H12096   9.472   6.328   6.310 -0.1009  0.0424  0.9607
   92MOL0     H12097   9.496   6.523   6.109  0.6536  1.1138  0.0446
   92MOL0     H12098   9.479   6.778   5.982 -0.4729  1.2918 -0.4088
   92MOL0     H12099   9.372   6.885   6.080 -0.8087  0.0487 -1.8235
   92MOL0     H12100   9.183   6.746   6.048  0.9618  5.4888  1.4869
   92MOL0     H12101   9.282   6.651   5.941  2.7159 -0.2234  1.2850
   92MOL0     H12102   9.242   6.958   5.915  1.5111  1.1418 -1.2431
   92MOL0     H12103   9.305   6.863   5.783 -2.2676  3.0215 -1.8765
   92MOL0     H12104   9.031   6.833   5.891  1.6788 -2.4391  0.5667
   92MOL0     H12105   9.104   6.749   5.748  2.4620 -0.4355  0.2046
   92MOL0     H12106   8.860   6.787   5.789  1.6108 -0.1736 -0.9020
   92MOL0     H12107   8.635   6.812   5.722  2.8525 -3.0494 -2.2482
   92MOL0     H12108   8.387   7.020   5.270  0.4733 -0.5805  0.5161
   92MOL0     H12109   8.148   7.062   5.204  1.5019  1.3821  0.0645
   92MOL0     H12110   7.988   7.182   5.123 -1.1998 -1.4067  0.8254
   92MOL0     H12111   8.051   7.335   5.203  1.6698 -1.5649  0.6381
   92MOL0     H12112   7.843   7.381   5.076 -2.0961 -1.2858 -0.7013
   92MOL0     H12113   7.827   7.413   5.253 -2.6913  0.7364 -0.6592
   92MOL0     H12114   7.717   7.195   5.283 -1.0930  1.5594 -0.2924
   92MOL0     H12115   7.760   7.151   5.114 -3.3950 -0.7831 -0.6822
   92MOL0     H12116   7.610   7.406   5.156  2.7083  0.1223 -0.5758
   92MOL0     H12117   7.583   7.287   5.031 -3.0593 -2.6857  0.3426
   92MOL0     H12118   7.504   7.209   5.306 -2.0027  2.3627  0.5516
   92MOL0     H12119   7.479   7.124   5.161  1.9592  0.4783 -2.8897
   92MOL0     H12120   7.321   7.277   5.063  1.4427 -1.5698  0.1810
   92MOL0     H12121   7.371   7.407   5.173  5.3750 -0.3562 -1.4096
   92MOL0     H12122   7.251   7.143   5.250  2.0104 -0.5639  0.0480
   92MOL0     H12123   7.273   7.278   5.363 -1.8249 -1.5592  0.6485
   92MOL0     H12124   7.093   7.265   5.120  1.2780  0.4022  0.3393
   92MOL0     H12125   7.098   7.408   5.217  3.7367  0.6042 -0.6539
   92MOL0     H12126   8.053   7.241   5.570 -1.8155 -3.1765  1.1699
   92MOL0     H12127   8.283   7.245   5.635  1.9104  0.7349  0.0318
   92MOL0     H12128   8.709   7.200   5.564 -3.4977 -0.3546  1.1238
   92MOL0     H12129   8.948   7.170   5.624 -1.7427  1.8760  1.4086
   92MOL0     H12130  10.483   6.365   6.591  0.8120 -0.4366 -0.3442
   92MOL0     H12131  10.688   6.266   6.585  1.3489  2.1125  1.1618
   92MOL0     H12132  10.951   5.940   6.206  0.9326 -1.7038 -1.2759
   92MOL0     H12133  11.158   5.839   6.186 -0.3908 -0.6581  1.4624
   92MOL0     H12134  11.454   5.958   6.520  0.2013  3.1083 -0.3517
   92MOL0     H12135  11.550   5.986   6.364 -0.9979  1.9571  1.3785
   92MOL0     H12136  11.567   5.729   6.353 -2.5146 -1.5997  0.2689
   92MOL0     H12137  11.677   5.812   6.450  0.1770 -0.2759 -2.7810
   92MOL0     H12138  11.579   5.735   6.653  1.2632 -3.4425  0.4200
   92MOL0     H12139  11.581   5.605   6.537  0.0540 -0.0416 -1.4522
   92MOL0     H12140  11.352   5.631   6.665  0.3207  2.4589  0.9791
   92MOL0     H12141  11.330   5.773   6.563 -0.1036  0.2453 -0.3046
   92MOL0     H12142  11.266   5.496   6.258 -0.0547  0.7564 -0.5534
   92MOL0     H12143  11.324   6.114   6.482  0.0682 -1.9990 -1.2245
   92MOL0     H12144  11.089   6.206   6.503 -0.3405 -0.7435 -0.2539
   93MOL0     O12145   9.513   7.123  10.766  0.1840 -0.3493 -0.4625
   93MOL0     C12146   9.544   7.050  10.863 -0.1520  0.1793 -0.4722
   93MOL0     O12147   9.467   7.013  10.969 -0.5740  0.3583 -0.5123
   93MOL0     C12148   9.355   7.078  10.989  0.6829  0.3315  0.3973
   93MOL0     C12149   9.242   7.082  10.898 -0.4429 -1.3285  0.1315
   93MOL0     C12150   9.125   7.126  10.955 -0.4455 -0.4603  0.4555
   93MOL0     C12151   9.120   7.184  11.086  0.5721  0.3108 -0.1004
   93MOL0     O12152   8.997   7.221  11.143 -0.8666  0.3310 -0.2389
   93MOL0     C12153   8.875   7.189  11.092  1.0629 -0.0591  0.4863
   93MOL0     C12154   8.773   7.177  11.206  0.1973 -0.0331 -0.1744
   93MOL0     C12155   8.737   7.315  11.252 -0.2909 -0.1994  0.2116
   93MOL0     C12156   8.693   7.322  11.398 -0.7219  0.2412 -0.2526
   93MOL0     C12157   8.630   7.459  11.432  0.5545  0.0859 -0.3623
   93MOL0     C12158   8.590   7.473  11.588 -0.2837 -0.6013  0.7710
   93MOL0     C12159   8.494   7.590  11.613 -0.2332 -0.1866  0.0564
   93MOL0     C12160   8.475   7.612  11.769 -0.5374  0.2989 -0.4374
   93MOL0     N12161   8.417   7.740  11.792 -0.5715  0.3367  0.1373
   93MOL0     C12162   8.290   7.767  11.822  0.1239 -0.0284  0.4478
   93MOL0     C12163   8.282   7.907  11.817  0.0051  0.8106  0.2380
   93MOL0     C12164   8.161   7.983  11.849  0.0642  0.5785  0.2201
   93MOL0     C12165   8.045   7.947  11.747 -0.0369  0.3363  0.3717
   93MOL0     C12166   7.908   7.983  11.802  1.0475  0.4736 -0.9627
   93MOL0     C12167   7.786   7.932  11.723 -0.3116 -0.0027 -0.7458
   93MOL0     O12168   7.670   7.996  11.782 -0.7079 -0.3597 -0.0247
   93MOL0     C12169   7.550   7.960  11.732 -0.2424  0.8331 -0.7936
   93MOL0     C12170   7.459   7.919  11.820  0.4793  0.3007 -0.4506
   93MOL0     C12171   7.324   7.894  11.794  0.7220  0.0157  0.1462
   93MOL0     C12172   7.276   7.902  11.657 -0.6869  0.2654  0.1747
   93MOL0     C12173   7.141   7.879  11.615 -0.4019 -0.1737 -0.1870
   93MOL0     O12174   7.116   7.907  11.490 -0.2164 -0.0660  0.2825
   93MOL0     C12175   6.979   7.894  11.447 -0.2483 -0.4985 -0.5286
   93MOL0     C12176   6.913   7.772  11.439  0.1501 -0.1302  0.1807
   93MOL0     C12177   6.779   7.765  11.383 -0.2204  0.3501 -0.2963
   93MOL0     C12178   6.709   7.875  11.346 -0.4001 -0.8125  0.0047
   93MOL0     O12179   6.580   7.863  11.311  0.0622  0.7568 -0.3954
   93MOL0     C12180   6.487   7.971  11.312  0.4323 -0.5167  0.1482
   93MOL0     C12181   6.475   8.026  11.453 -0.2818  0.2714  0.1284
   93MOL0     C12182   6.335   8.044  11.502 -0.0972 -0.2323  0.5142
   93MOL0     C12183   6.342   8.125  11.631  0.2031  0.2061 -0.0584
   93MOL0     C12184   6.217   8.184  11.691  0.6229 -0.6173 -0.2901
   93MOL0     C12185   6.172   8.322  11.615  0.4643 -0.8107 -0.1936
   93MOL0     C12186   6.059   8.406  11.682 -0.0492 -0.3006 -0.0549
   93MOL0     C12187   5.936   8.327  11.717 -0.3207  0.6104 -0.2165
   93MOL0    Cl12188   5.860   8.262  11.566 -0.1510 -0.1430  0.1503
   93MOL0     C12189   6.773   8.003  11.360  0.5875  0.1957 -0.2230
   93MOL0     C12190   6.908   8.006  11.408  0.3788 -0.0045  0.0713
   93MOL0     O12191   7.056   7.840  11.697  0.1929 -0.5386  0.2336
   93MOL0     C12192   7.381   7.936  11.562 -0.1546 -0.2299 -0.1553
   93MOL0     C12193   7.520   7.960  11.604 -0.0888  0.4620  0.2763
   93MOL0     N12194   8.401   7.957  11.774 -0.8291 -0.0171 -0.3697
   93MOL0     N12195   8.485   7.858  11.769 -1.1953 -0.2529  0.8189
   93MOL0     C12196   9.233   7.208  11.155 -0.6003  0.1423  0.3584
   93MOL0     C12197   9.353   7.154  11.104  0.2165 -0.7561 -0.6079
   93MOL0     C12198   9.687   6.994  10.858  0.6129  0.5913 -0.0684
   93MOL0     C12199   9.743   6.948  10.976  0.6772 -0.2884  0.2482
   93MOL0     C12200   9.876   6.908  10.980  1.1732 -0.6569 -0.3109
   93MOL0     C12201   9.954   6.913  10.871 -0.0174  0.0326  0.4813
   93MOL0     O12202  10.090   6.877  10.885 -0.2100 -0.2066 -0.4109
   93MOL0     C12203  10.187   6.939  10.790  0.7356  0.1094  0.2183
   93MOL0     C12204  10.333   6.899  10.831 -0.1690  0.1660  0.8435
   93MOL0     C12205  10.426   7.000  10.773  0.7300  0.4852 -0.0176
   93MOL0     C12206  10.570   6.958  10.787 -0.1324  0.8847 -0.5284
   93MOL0     C12207  10.611   6.860  10.687  0.7089  0.2925  0.1479
   93MOL0     C12208  10.631   6.784  10.594  0.5225 -0.5612  0.0323
   93MOL0     C12209   9.904   6.962  10.750  0.4900 -0.2675 -0.6559
   93MOL0     C12210   9.771   7.002  10.742  0.5423  0.6316  0.7693
   93MOL0     H12211   9.261   7.043  10.798 -0.2693  1.1658 -0.8840
   93MOL0     H12212   9.053   7.102  10.879 -1.2200 -0.6214  1.2227
   93MOL0     H12213   8.874   7.092  11.041 -1.1742  0.9964 -1.6725
   93MOL0     H12214   8.851   7.265  11.018  1.0956 -0.0818  0.4523
   93MOL0     H12215   8.825   7.121  11.284  1.0874  0.2994 -0.5231
   93MOL0     H12216   8.687   7.114  11.180  1.9026 -2.7520  0.3569
   93MOL0     H12217   8.656   7.346  11.185 -2.0056  0.8788  2.6256
   93MOL0     H12218   8.825   7.380  11.246  0.3634 -1.1616 -0.9150
   93MOL0     H12219   8.609   7.254  11.412 -1.0407  0.7782  0.5331
   93MOL0     H12220   8.775   7.305  11.469 -0.3925  0.7887 -0.4917
   93MOL0     H12221   8.538   7.469  11.373 -0.6701  0.7998  1.5846
   93MOL0     H12222   8.705   7.536  11.409  2.4304 -1.3528  0.6463
   93MOL0     H12223   8.682   7.466  11.646 -0.4350 -0.5646  1.0160
   93MOL0     H12224   8.536   7.382  11.612 -0.3600 -0.3236  1.6957
   93MOL0     H12225   8.531   7.680  11.564 -3.0660  0.2123 -1.5139
   93MOL0     H12226   8.402   7.558  11.565  0.0051  0.7235 -1.0257
   93MOL0     H12227   8.576   7.620  11.809  0.4958 -1.4894 -2.5333
   93MOL0     H12228   8.415   7.537  11.822 -0.6287 -0.3115 -1.3796
   93MOL0     H12229   8.210   7.698  11.843  0.8732 -1.2557 -0.5862
   93MOL0     H12230   8.185   8.089  11.862  0.4230  0.7122 -1.3111
   93MOL0     H12231   8.136   7.958  11.952 -1.0083 -0.4505 -0.2665
   93MOL0     H12232   8.037   7.843  11.715 -1.0968  0.0360  1.5484
   93MOL0     H12233   8.072   8.001  11.655  0.5063 -2.3210 -1.1439
   93MOL0     H12234   7.893   7.944  11.903  0.1226  2.1041 -0.4381
   93MOL0     H12235   7.912   8.091  11.818  3.9865  0.2707  0.3880
   93MOL0     H12236   7.775   7.823  11.722 -0.1075 -0.0234 -1.1964
   93MOL0     H12237   7.795   7.960  11.617 -1.0270 -1.4107 -1.2047
   93MOL0     H12238   7.478   7.905  11.926 -1.6977  0.3540  0.0134
   93MOL0     H12239   7.260   7.863  11.876 -0.3940 -0.9614 -1.0336
   93MOL0     H12240   6.964   7.687  11.484  1.6148  1.3917  1.4822
   93MOL0     H12241   6.736   7.668  11.361  3.4917 -1.2083 -1.4352
   93MOL0     H12242   6.387   7.939  11.282  1.2642 -3.0070 -0.1740
   93MOL0     H12243   6.514   8.047  11.238  1.6051 -0.0509  1.0286
   93MOL0     H12244   6.534   8.117  11.460  3.9980 -2.2444 -0.0750
   93MOL0     H12245   6.529   7.960  11.521 -1.6958 -0.7367  0.3180
   93MOL0     H12246   6.280   7.950  11.509  0.0305 -0.3968 -0.5976
   93MOL0     H12247   6.265   8.102  11.441  0.0047  0.2332  0.8322
   93MOL0     H12248   6.385   8.070  11.715 -1.7134 -1.8097 -0.2960
   93MOL0     H12249   6.423   8.198  11.621 -0.1743  0.6330 -0.0383
   93MOL0     H12250   6.214   8.211  11.797 -4.0032  2.5411 -0.9117
   93MOL0     H12251   6.137   8.111  11.676  1.1573 -1.1272 -0.7074
   93MOL0     H12252   6.145   8.290  11.514 -0.5019  0.5991 -0.4084
   93MOL0     H12253   6.253   8.395  11.620  0.1565 -0.5001  0.3530
   93MOL0     H12254   6.094   8.440  11.780 -2.1369 -2.9744  1.7659
   93MOL0     H12255   6.026   8.497  11.630 -1.0885  1.0498  2.7779
   93MOL0     H12256   5.866   8.397  11.764 -1.2388 -0.2463 -0.2580
   93MOL0     H12257   5.954   8.242  11.784 -0.6986  1.9471  1.6425
   93MOL0     H12258   6.724   8.098  11.344 -1.4070 -0.8046 -0.3949
   93MOL0     H12259   6.970   8.095  11.403  2.2517 -1.2791 -0.5437
   93MOL0     H12260   7.361   7.954  11.457 -2.0904 -0.3304  0.1670
   93MOL0     H12261   7.597   7.973  11.528  0.5168 -2.2170  0.3302
   93MOL0     H12262   9.228   7.251  11.254 -2.7004 -0.4403  0.5557
   93MOL0     H12263   9.444   7.169  11.160 -2.7290  1.1348  4.2332
   93MOL0     H12264   9.688   6.942  11.069 -3.1100  1.6390 -1.6377
   93MOL0     H12265   9.920   6.874  11.073 -0.4911  0.5476  0.9688
   93MOL0     H12266  10.170   7.047  10.789 -0.0265 -0.0108 -0.8949
   93MOL0     H12267  10.161   6.905  10.689 -1.7507  0.9423  0.5153
   93MOL0     H12268  10.343   6.885  10.939 -0.1415 -4.9293  0.4412
   93MOL0     H12269  10.357   6.800  10.791 -1.7562  0.3012 -0.4949
   93MOL0     H12270  10.409   7.092  10.829  1.3569  0.0203  0.9599
   93MOL0     H12271  10.400   7.015  10.668  0.4220  3.3253  0.3875
   93MOL0     H12272  10.642   7.040  10.787  3.8402 -2.3113 -0.6538
   93MOL0     H12273  10.587   6.915  10.886  0.3706  2.5476  0.1549
   93MOL0     H12274  10.640   6.711  10.516  2.6633 -0.6831  0.3401
   93MOL0     H12275   9.966   6.974  10.661 -0.5537  1.9222 -1.1814
   93MOL0     H12276   9.736   7.045  10.649  4.4583  2.1051 -0.1813
   94MOL0     O12277  10.580   4.807   6.065 -0.6169 -0.9015 -0.3476
   94MOL0     C12278  10.491   4.737   6.110  0.2791  0.5200 -0.6191
   94MOL0     O12279  10.364   4.781   6.139 -0.2128  0.2809 -0.2264
   94MOL0     C12280  10.333   4.911   6.146  0.0284 -0.0432 -0.1683
   94MOL0     C12281  10.208   4.935   6.209 -0.4230  0.7967  0.1574
   94MOL0     C12282  10.164   5.065   6.232  0.9099 -0.0503 -0.9737
   94MOL0     C12283  10.237   5.178   6.197  0.7835  0.6437  0.0501
   94MOL0     O12284  10.182   5.299   6.229 -0.3613  0.8101  0.8031
   94MOL0     C12285  10.200   5.404   6.131  0.8740  0.6957  0.0760
   94MOL0     C12286  10.075   5.487   6.153 -0.5438  0.5402  0.0791
   94MOL0     C12287   9.947   5.408   6.136 -0.5439 -0.5674 -0.4860
   94MOL0     C12288   9.831   5.491   6.085  0.9698 -0.4939 -0.1609
   94MOL0     C12289   9.737   5.389   6.017 -0.1247 -0.5194  0.1223
   94MOL0     C12290   9.694   5.437   5.881  0.9447 -0.9565  0.7881
   94MOL0     C12291   9.579   5.340   5.834  0.8358 -0.9519  0.5670
   94MOL0     C12292   9.543   5.379   5.686  0.1236 -0.5841 -0.2181
   94MOL0     N12293   9.448   5.283   5.627  0.0028 -0.0844  0.6605
   94MOL0     C12294   9.379   5.194   5.704  0.4621 -0.9808 -0.7549
   94MOL0     C12295   9.312   5.118   5.623  0.6306  0.0105  0.1879
   94MOL0     C12296   9.230   4.996   5.675  0.1020  0.7734 -0.1429
   94MOL0     C12297   9.149   5.029   5.802  0.5408 -0.2100  0.3239
   94MOL0     C12298   9.059   4.925   5.863 -0.3405  0.4811 -0.0565
   94MOL0     C12299   8.956   4.859   5.767 -0.2723 -0.3212 -0.3862
   94MOL0     O12300   8.862   4.792   5.847 -0.5586 -0.2098 -0.6131
   94MOL0     C12301   8.730   4.794   5.797 -1.5344  0.0566 -0.4878
   94MOL0     C12302   8.637   4.880   5.852 -0.4910 -0.2055 -0.3823
   94MOL0     C12303   8.508   4.889   5.802  0.3511  0.0539 -0.8133
   94MOL0     C12304   8.468   4.812   5.689 -0.7675  0.0878  0.3348
   94MOL0     C12305   8.335   4.834   5.620  1.4132 -0.2965 -0.2028
   94MOL0     O12306   8.304   4.782   5.497 -0.2416 -0.3478 -0.8074
   94MOL0     C12307   8.178   4.813   5.446 -1.2071 -0.1429  0.5219
   94MOL0     C12308   8.056   4.819   5.513 -0.2588  0.0067  0.4055
   94MOL0     C12309   7.933   4.837   5.453 -0.2120 -0.1288 -0.0970
   94MOL0     C12310   7.918   4.864   5.322 -0.8691  0.7658  1.4997
   94MOL0     O12311   7.791   4.890   5.276 -0.1929  0.1971  0.0373
   94MOL0     C12312   7.765   4.866   5.132  0.1231 -0.1627 -0.4380
   94MOL0     C12313   7.621   4.889   5.085  1.0887 -0.3531 -0.1161
   94MOL0     C12314   7.575   4.777   4.991 -0.6871 -0.8405  0.4388
   94MOL0     C12315   7.422   4.789   4.954  0.0430  0.1988 -0.3040
   94MOL0     C12316   7.399   4.903   4.859  0.3363  0.0085  0.0139
   94MOL0     C12317   7.262   4.915   4.802  0.3364  0.0472 -0.1462
   94MOL0     C12318   7.172   4.993   4.896 -0.3251 -0.1555 -0.3700
   94MOL0     C12319   7.032   5.018   4.849  0.2701 -0.7026 -0.2356
   94MOL0    Cl12320   7.028   5.087   4.681 -0.5393  0.2675  0.2577
   94MOL0     C12321   8.034   4.867   5.246 -0.0006 -0.5548  1.1429
   94MOL0     C12322   8.158   4.825   5.303 -0.3980 -0.2117 -0.3647
   94MOL0     O12323   8.270   4.923   5.679  0.4628 -0.1639 -0.1793
   94MOL0     C12324   8.569   4.727   5.634 -0.1702  0.6073 -0.7654
   94MOL0     C12325   8.699   4.714   5.683  0.2946  0.3096 -0.0272
   94MOL0     N12326   9.340   5.154   5.495 -0.1449 -0.2682 -0.0415
   94MOL0     N12327   9.431   5.246   5.498 -0.2235  0.0541 -0.5989
   94MOL0     C12328  10.362   5.159   6.128  0.2127  0.2897 -0.1039
   94MOL0     C12329  10.407   5.026   6.099  0.0791  0.9948  0.2436
   94MOL0     C12330  10.531   4.599   6.137  0.8858 -0.2128 -0.2983
   94MOL0     C12331  10.473   4.536   6.244  0.4735 -0.2544  0.3016
   94MOL0     C12332  10.508   4.413   6.304  0.1450  0.8481 -0.2904
   94MOL0     C12333  10.593   4.332   6.225 -0.6020 -0.6043 -0.2924
   94MOL0     O12334  10.615   4.202   6.270 -0.1443  0.0798  0.1998
   94MOL0     C12335  10.707   4.123   6.199 -0.5091  0.0812  0.7549
   94MOL0     C12336  10.719   3.987   6.258 -0.0805  0.7672  0.3936
   94MOL0     C12337  10.818   3.895   6.188  1.3263  0.5773 -0.5307
   94MOL0     C12338  10.965   3.934   6.192 -0.3403  0.4767 -0.3492
   94MOL0     C12339  11.021   3.952   6.326 -0.0418  0.4571 -0.1314
   94MOL0     C12340  11.078   3.950   6.433 -0.4909  0.0537 -0.0248
   94MOL0     C12341  10.644   4.395   6.103 -0.4226 -0.1256  1.0633
   94MOL0     C12342  10.616   4.522   6.062  0.5803  0.7965  0.1467
   94MOL0     H12343  10.147   4.856   6.250 -1.5134  0.9386 -1.1304
   94MOL0     H12344  10.070   5.092   6.280  2.5131  2.3637  1.0204
   94MOL0     H12345  10.209   5.368   6.028  0.0735  0.7310 -0.0062
   94MOL0     H12346  10.283   5.468   6.161  1.6846 -0.1705 -0.2377
   94MOL0     H12347  10.079   5.551   6.065  2.1194 -0.5834 -0.7160
   94MOL0     H12348  10.069   5.536   6.251  1.2540 -1.9587  1.5603
   94MOL0     H12349   9.919   5.357   6.228  0.9377  0.3359  0.5119
   94MOL0     H12350   9.980   5.337   6.060 -0.4062 -0.0944 -0.8703
   94MOL0     H12351   9.772   5.538   6.165 -0.9858  2.4500 -3.0986
   94MOL0     H12352   9.856   5.572   6.017 -1.8705  0.4915 -0.1299
   94MOL0     H12353   9.661   5.377   6.094 -0.2126  2.4874  0.6080
   94MOL0     H12354   9.786   5.294   5.993 -0.7567 -0.7485 -0.2934
   94MOL0     H12355   9.777   5.445   5.811 -1.5247  2.5496 -2.1416
   94MOL0     H12356   9.648   5.536   5.888 -1.3066 -1.6220 -2.2400
   94MOL0     H12357   9.631   5.244   5.841  3.6697  0.3014 -1.3499
   94MOL0     H12358   9.491   5.355   5.897  0.9466  0.8232  0.3637
   94MOL0     H12359   9.630   5.375   5.620 -1.0448  1.1630 -1.9768
   94MOL0     H12360   9.493   5.476   5.690 -0.6794 -1.0370  2.5252
   94MOL0     H12361   9.389   5.178   5.811 -3.7605 -0.8767 -0.1486
   94MOL0     H12362   9.294   4.916   5.714 -3.0086 -1.6638  0.3553
   94MOL0     H12363   9.167   4.958   5.594  1.9665 -0.0985 -1.2630
   94MOL0     H12364   9.096   5.124   5.788  0.1070 -0.9264 -4.8429
   94MOL0     H12365   9.218   5.046   5.885  1.3568  0.7280 -0.5290
   94MOL0     H12366   9.118   4.844   5.909 -1.3237 -1.5478 -2.1811
   94MOL0     H12367   8.993   4.967   5.939  0.4806 -0.1660  1.0575
   94MOL0     H12368   9.004   4.789   5.699  0.8697  0.5613 -0.5277
   94MOL0     H12369   8.903   4.929   5.701 -3.8446  0.0903  2.5655
   94MOL0     H12370   8.673   4.949   5.928 -1.0852  0.4802 -0.7087
   94MOL0     H12371   8.450   4.974   5.837  4.0043  2.8453 -0.9586
   94MOL0     H12372   8.058   4.803   5.620 -1.7302 -0.3599  0.3993
   94MOL0     H12373   7.846   4.817   5.514 -1.0107  0.6409 -0.9471
   94MOL0     H12374   7.788   4.759   5.126 -0.7765 -0.5365  1.7036
   94MOL0     H12375   7.824   4.926   5.063 -0.8915  3.1875  1.3857
   94MOL0     H12376   7.609   4.988   5.040 -3.1035 -1.2911 -1.4817
   94MOL0     H12377   7.559   4.890   5.175  4.0323 -0.5178  2.0771
   94MOL0     H12378   7.600   4.684   5.044  3.8408 -1.2084 -1.9077
   94MOL0     H12379   7.635   4.780   4.900 -0.2526 -0.7740  0.7264
   94MOL0     H12380   7.389   4.693   4.915  1.3310 -0.4247  0.0723
   94MOL0     H12381   7.368   4.806   5.048  3.7634 -0.3619  2.1944
   94MOL0     H12382   7.450   4.863   4.771  2.1371 -1.3043  1.5736
   94MOL0     H12383   7.443   4.998   4.892 -0.9886  0.3967  0.7329
   94MOL0     H12384   7.208   4.821   4.788  0.2401 -0.3344  2.2849
   94MOL0     H12385   7.264   4.961   4.703  0.4932 -0.9285 -0.6061
   94MOL0     H12386   7.172   4.931   4.987  0.0194 -1.0481 -0.9667
   94MOL0     H12387   7.214   5.091   4.922 -3.3147  1.1034  0.0992
   94MOL0     H12388   6.984   5.087   4.920  0.0742  0.4284 -1.4371
   94MOL0     H12389   6.976   4.925   4.844 -2.3732  0.8004 -0.6195
   94MOL0     H12390   8.012   4.888   5.142 -1.5868  0.3578  1.6395
   94MOL0     H12391   8.248   4.813   5.243  0.8663  1.2601  1.1286
   94MOL0     H12392   8.537   4.685   5.539  0.2132 -0.7662 -0.3109
   94MOL0     H12393   8.774   4.658   5.629  0.0910 -0.9493  0.9413
   94MOL0     H12394  10.428   5.241   6.099  0.2340  0.3979  0.2431
   94MOL0     H12395  10.504   5.019   6.053  0.5289  1.5801  1.0697
   94MOL0     H12396  10.395   4.589   6.298  0.2142 -0.8735  0.5511
   94MOL0     H12397  10.454   4.373   6.390  0.4729 -1.8988 -1.2657
   94MOL0     H12398  10.802   4.178   6.198 -0.1146 -0.5739  1.9016
   94MOL0     H12399  10.679   4.107   6.094  0.1410 -1.0060  0.7383
   94MOL0     H12400  10.752   3.996   6.362 -2.5596  2.5693  1.1142
   94MOL0     H12401  10.620   3.941   6.259 -0.4729  1.6029  1.0693
   94MOL0     H12402  10.784   3.889   6.084 -1.2492  1.1576  0.2184
   94MOL0     H12403  10.806   3.803   6.246  0.5402  2.1322  1.9405
   94MOL0     H12404  11.021   3.851   6.149  0.1326  0.5107  0.1914
   94MOL0     H12405  10.976   4.017   6.121 -0.0698  0.0935 -0.7630
   94MOL0     H12406  11.131   3.956   6.525  1.0075  0.9632 -0.9150
   94MOL0     H12407  10.708   4.339   6.036  0.1627 -0.4184  1.8457
   94MOL0     H12408  10.654   4.559   5.967 -0.1857 -1.6632 -1.1927
   95MOL0     O12409   8.488  10.726   5.091 -0.6719 -0.6987  0.0772
   95MOL0     C12410   8.469  10.843   5.116  0.4105  0.0602  0.6401
   95MOL0     O12411   8.352  10.901   5.157 -0.0143 -0.0369  0.0269
   95MOL0     C12412   8.227  10.840   5.142 -0.6145 -0.2810  0.5121
   95MOL0     C12413   8.112  10.900   5.211  0.4323 -0.3078 -0.2036
   95MOL0     C12414   7.989  10.840   5.209 -0.1735 -0.6515  1.6861
   95MOL0     C12415   7.972  10.727   5.129  0.5418 -0.3285 -0.4471
   95MOL0     O12416   7.843  10.673   5.126  0.3404 -0.6632 -0.3971
   95MOL0     C12417   7.798  10.615   4.993 -1.1671 -0.2875 -0.5429
   95MOL0     C12418   7.653  10.659   4.964 -0.2820  0.7118 -0.6217
   95MOL0     C12419   7.546  10.595   5.042 -0.2071 -0.2201  0.8031
   95MOL0     C12420   7.410  10.669   5.013 -0.0290 -0.3485  0.1872
   95MOL0     C12421   7.285  10.589   5.048  0.3120 -0.6145 -0.5094
   95MOL0     C12422   7.162  10.666   5.019  0.1730 -0.2024  0.7755
   95MOL0     C12423   7.031  10.582   5.051  0.0541  0.1981 -0.4750
   95MOL0     C12424   6.901  10.636   4.994  0.5535 -0.2710 -0.2185
   95MOL0     N12425   6.784  10.554   5.025  0.1844  0.3857 -0.0089
   95MOL0     C12426   6.755  10.435   4.958  0.3071  0.3564 -0.6462
   95MOL0     C12427   6.632  10.393   4.994 -0.4898  0.4112  0.0183
   95MOL0     C12428   6.553  10.272   4.963  0.2785  0.7497  0.9696
   95MOL0     C12429   6.517  10.281   4.820  0.0990  0.4587  0.1858
   95MOL0     C12430   6.624  10.248   4.717 -0.3480  0.3219  0.3993
   95MOL0     C12431   6.689  10.110   4.739 -0.3172  0.2063  0.6456
   95MOL0     O12432   6.795  10.146   4.835 -0.0079  0.1908  0.1327
   95MOL0     C12433   6.924  10.155   4.782  0.2265 -0.4426 -0.0053
   95MOL0     C12434   6.954  10.175   4.654 -0.0903  0.2420  0.4927
   95MOL0     C12435   7.090  10.173   4.616 -0.1317 -0.4612  0.4128
   95MOL0     C12436   7.199  10.144   4.704  0.8277 -0.9047 -0.8096
   95MOL0     C12437   7.341  10.138   4.655  0.3063  0.1115 -0.1451
   95MOL0     O12438   7.434  10.132   4.753 -0.6231  0.4352  0.0514
   95MOL0     C12439   7.562  10.151   4.721  0.2759 -0.1779 -0.0772
   95MOL0     C12440   7.624  10.067   4.632  0.2248 -0.2921  0.3593
   95MOL0     C12441   7.764  10.069   4.620  0.3657  0.2128 -0.3244
   95MOL0     C12442   7.839  10.171   4.672  0.0018  0.9625  0.1327
   95MOL0     O12443   7.974  10.166   4.655  0.2686  0.9442 -0.2314
   95MOL0     C12444   8.048  10.290   4.637  1.2825 -0.7830  0.2295
   95MOL0     C12445   8.194  10.268   4.679 -1.0045 -0.8006  0.9232
   95MOL0     C12446   8.268  10.400   4.700 -0.7613 -0.6268  0.2913
   95MOL0     C12447   8.417  10.379   4.701 -0.4360  0.1071 -0.3027
   95MOL0     C12448   8.496  10.509   4.707 -0.3759  0.6448  0.4189
   95MOL0     C12449   8.641  10.484   4.739  0.4054 -0.2277 -0.6264
   95MOL0     C12450   8.668  10.438   4.889  0.2053 -0.0131  0.2974
   95MOL0     C12451   8.821  10.452   4.916  0.5716  0.4193  0.3315
   95MOL0    Cl12452   8.861  10.623   4.916  0.1194  0.4138 -0.3346
   95MOL0     C12453   7.774  10.260   4.766 -0.5323 -0.8265  0.6111
   95MOL0     C12454   7.638  10.245   4.800  0.2676 -0.9788  0.5441
   95MOL0     O12455   7.363  10.149   4.537 -0.0016  0.1379  0.1351
   95MOL0     C12456   7.163  10.133   4.834 -0.1944  0.8203 -0.4660
   95MOL0     C12457   7.024  10.141   4.875 -0.1522 -0.0634 -0.0491
   95MOL0     N12458   6.575  10.495   5.064  0.5837 -0.0114  0.3494
   95MOL0     N12459   6.665  10.583   5.085 -0.7747  0.1998  0.2843
   95MOL0     C12460   8.075  10.666   5.064 -0.0066  0.4842  0.4089
   95MOL0     C12461   8.200  10.729   5.064  0.2480  0.3786 -0.0352
   95MOL0     C12462   8.578  10.940   5.124 -0.5422  1.0672 -0.1210
   95MOL0     C12463   8.705  10.902   5.065 -0.0862 -0.5697  0.0716
   95MOL0     C12464   8.806  10.995   5.066  0.4474  0.3075 -0.1730
   95MOL0     C12465   8.799  11.118   5.133 -0.7096  0.7675 -0.8762
   95MOL0     O12466   8.916  11.184   5.131 -0.1859  0.6155 -0.5777
   95MOL0     C12467   8.922  11.328   5.144  1.3621 -0.3859 -0.3178
   95MOL0     C12468   9.037  11.390   5.204 -0.0569  0.1899 -0.5673
   95MOL0     C12469   9.163  11.357   5.126 -0.2797  0.6040  0.3145
   95MOL0     C12470   9.255  11.479   5.127 -1.1982 -0.1005  0.2471
   95MOL0     C12471   9.387  11.449   5.060  0.0258  0.8185  0.0627
   95MOL0     C12472   9.496  11.416   5.016  0.2792  0.5587  0.2313
   95MOL0     C12473   8.673  11.151   5.191  0.4913  0.1499  0.8524
   95MOL0     C12474   8.564  11.066   5.190 -0.2443  0.0109  1.5519
   95MOL0     H12475   8.119  10.997   5.260  0.6173 -1.6785  2.7257
   95MOL0     H12476   7.899  10.897   5.231 -0.1395  0.2463 -0.2606
   95MOL0     H12477   7.797  10.508   5.014  1.7975 -0.2030  0.4675
   95MOL0     H12478   7.867  10.635   4.911 -1.4940 -1.3805 -1.1033
   95MOL0     H12479   7.626  10.630   4.861 -1.8629  3.8358 -1.2199
   95MOL0     H12480   7.646  10.768   4.967  0.6524  0.8915 -2.8116
   95MOL0     H12481   7.568  10.602   5.149  2.2304  0.4478  0.3030
   95MOL0     H12482   7.547  10.488   5.020 -0.8462  0.0234 -0.4994
   95MOL0     H12483   7.415  10.757   5.078  0.1498 -1.4339  1.7009
   95MOL0     H12484   7.402  10.696   4.908 -0.4302 -0.0967  0.2818
   95MOL0     H12485   7.278  10.563   5.154  0.2312 -1.4315 -0.7051
   95MOL0     H12486   7.284  10.500   4.984 -2.1733 -1.9129  1.1527
   95MOL0     H12487   7.164  10.683   4.911 -1.5873  0.9818  0.8933
   95MOL0     H12488   7.159  10.762   5.070 -3.1433 -0.4376  1.2910
   95MOL0     H12489   7.045  10.476   5.028  2.9299  0.3919  0.0445
   95MOL0     H12490   7.024  10.593   5.160 -0.0775 -2.2469 -0.1749
   95MOL0     H12491   6.910  10.638   4.885  0.8596 -1.3868 -0.2342
   95MOL0     H12492   6.880  10.737   5.029 -0.1165  0.2757 -2.0593
   95MOL0     H12493   6.817  10.380   4.888  1.3663 -1.9087  1.9203
   95MOL0     H12494   6.460  10.287   5.018 -0.8420  2.2431 -1.1701
   95MOL0     H12495   6.604  10.183   5.000 -0.1832 -2.0039 -4.1671
   95MOL0     H12496   6.478  10.377   4.786  0.0020  0.2071 -0.4239
   95MOL0     H12497   6.433  10.212   4.808  0.7812 -0.3408 -0.0693
   95MOL0     H12498   6.582  10.246   4.616  0.6448 -0.6387 -0.0185
   95MOL0     H12499   6.698  10.328   4.720  0.2661 -0.1574 -0.8797
   95MOL0     H12500   6.728  10.083   4.640 -0.4410  0.3988  0.5441
   95MOL0     H12501   6.616  10.035   4.771  0.7632 -0.9647  0.4828
   95MOL0     H12502   6.883  10.183   4.572  0.6124  0.3654 -0.1235
   95MOL0     H12503   7.106  10.190   4.510 -2.1280  1.2310  0.3275
   95MOL0     H12504   7.554  10.001   4.581 -0.2265 -0.8145  1.5968
   95MOL0     H12505   7.817   9.997   4.558 -0.1339  0.1041 -0.6390
   95MOL0     H12506   8.000  10.371   4.691  1.2942 -0.9083  0.4268
   95MOL0     H12507   8.041  10.304   4.528  2.4638 -2.5340 -0.1268
   95MOL0     H12508   8.258  10.209   4.613  1.1228  1.4299  0.8836
   95MOL0     H12509   8.203  10.213   4.773 -1.0398 -1.8233  0.3417
   95MOL0     H12510   8.240  10.428   4.802 -0.2045 -1.1028  0.5800
   95MOL0     H12511   8.246  10.476   4.624 -0.4547 -1.2188 -0.4057
   95MOL0     H12512   8.433  10.320   4.792  1.1247  1.2572  0.2285
   95MOL0     H12513   8.447  10.322   4.612 -1.2876 -0.5256 -0.1964
   95MOL0     H12514   8.448  10.578   4.777 -1.5283 -1.1482  1.4673
   95MOL0     H12515   8.492  10.557   4.608 -0.1036  1.5013  0.8091
   95MOL0     H12516   8.705  10.568   4.709  0.7279 -0.5219 -0.7576
   95MOL0     H12517   8.683  10.400   4.684  2.4769 -0.6704  1.4164
   95MOL0     H12518   8.617  10.491   4.971 -0.3932 -1.6078  1.0132
   95MOL0     H12519   8.645  10.331   4.883  2.8455 -0.6510  0.4466
   95MOL0     H12520   8.877  10.401   4.837 -1.1052  0.8537 -1.2019
   95MOL0     H12521   8.842  10.403   5.011  2.4155  1.3994  0.4690
   95MOL0     H12522   7.831  10.341   4.810 -0.7343 -1.4763  2.1251
   95MOL0     H12523   7.580  10.305   4.869 -1.3428 -2.3407  0.4490
   95MOL0     H12524   7.236  10.119   4.913  0.9463 -0.0835 -1.6491
   95MOL0     H12525   6.993  10.120   4.977 -1.0900 -0.1375 -0.3431
   95MOL0     H12526   8.046  10.573   5.016 -0.4882 -0.5095  2.5448
   95MOL0     H12527   8.273  10.675   5.004 -0.0077 -0.9716  0.8191
   95MOL0     H12528   8.714  10.803   5.022 -1.7945 -0.4035 -0.7320
   95MOL0     H12529   8.895  10.975   5.008  0.0545  0.5051 -0.8480
   95MOL0     H12530   8.834  11.360   5.201  0.1586  0.1572 -2.3676
   95MOL0     H12531   8.903  11.373   5.046 -0.0662 -1.6024 -0.6303
   95MOL0     H12532   9.019  11.497   5.209  0.5018  0.2381  1.3675
   95MOL0     H12533   9.054  11.353   5.306  0.8973  0.8774 -0.4597
   95MOL0     H12534   9.138  11.328   5.023 -1.1748 -2.8308  1.3875
   95MOL0     H12535   9.217  11.272   5.167 -0.0853 -0.0460 -1.2036
   95MOL0     H12536   9.210  11.559   5.068 -3.7479 -0.1827  1.8898
   95MOL0     H12537   9.262  11.514   5.231 -2.3628 -0.9107  0.6251
   95MOL0     H12538   9.598  11.394   4.990  0.4125 -0.0838  1.2152
   95MOL0     H12539   8.672  11.244   5.247  1.1485 -0.5003  1.9836
   95MOL0     H12540   8.468  11.091   5.233 -0.6938 -0.1841  0.6774
   96MOL0     O12541   4.225   3.094  10.028 -0.1296 -0.5144 -0.7647
   96MOL0     C12542   4.273   3.122   9.915  0.1869 -0.2217 -0.3051
   96MOL0     O12543   4.203   3.142   9.802  0.2533 -0.4525 -0.1659
   96MOL0     C12544   4.070   3.115   9.802  0.4649 -0.3701 -0.4755
   96MOL0     C12545   3.987   3.207   9.729  0.6361  0.0049 -0.0622
   96MOL0     C12546   3.858   3.183   9.693  0.4003  0.7763 -0.4740
   96MOL0     C12547   3.804   3.061   9.729 -1.1636  0.0031 -0.1714
   96MOL0     O12548   3.683   3.046   9.678 -0.5117 -0.4267 -0.3670
   96MOL0     C12549   3.625   2.920   9.670  0.2381 -0.4833  0.7921
   96MOL0     C12550   3.485   2.934   9.610  1.0651 -0.6222 -0.0786
   96MOL0     C12551   3.428   2.796   9.575 -0.2670 -0.0787  0.4420
   96MOL0     C12552   3.286   2.809   9.525  0.2794  0.3200  0.3136
   96MOL0     C12553   3.241   2.679   9.454  0.5089 -1.0901 -0.8084
   96MOL0     C12554   3.217   2.576   9.563 -0.2534  0.6092  0.1113
   96MOL0     C12555   3.161   2.442   9.495  0.2689 -0.4691  0.2314
   96MOL0     C12556   3.274   2.362   9.428  0.1282  0.5564  0.1134
   96MOL0     N12557   3.222   2.238   9.374  0.8625  0.0452  0.7889
   96MOL0     C12558   3.160   2.145   9.458  0.1115 -1.0034  0.4408
   96MOL0     C12559   3.113   2.047   9.373  0.5385 -0.4511 -0.4975
   96MOL0     C12560   3.046   1.918   9.422  0.4124  0.8435 -0.0489
   96MOL0     C12561   2.893   1.955   9.413  0.2547 -0.3221 -0.9219
   96MOL0     C12562   2.800   1.837   9.458  0.9845 -0.4910  0.1163
   96MOL0     C12563   2.644   1.875   9.459  0.4133 -0.9808  0.6509
   96MOL0     O12564   2.584   1.840   9.331 -0.2777 -0.0564  0.4648
   96MOL0     C12565   2.450   1.823   9.321 -0.0335  0.0316 -0.4142
   96MOL0     C12566   2.366   1.870   9.424  0.1895 -0.3060  0.8072
   96MOL0     C12567   2.227   1.874   9.395 -0.3494 -0.3091 -0.2376
   96MOL0     C12568   2.171   1.823   9.268  0.0280 -0.1430 -0.2626
   96MOL0     C12569   2.027   1.833   9.241 -0.1548 -0.1191  1.1654
   96MOL0     O12570   1.956   1.914   9.317  0.1229 -0.8986  0.4913
   96MOL0     C12571   1.820   1.919   9.307  0.6531 -0.0213  0.9696
   96MOL0     C12572   1.743   1.957   9.192  0.3537  0.0454  0.4243
   96MOL0     C12573   1.600   1.969   9.198  0.3205  0.2174 -0.2429
   96MOL0     C12574   1.536   1.957   9.323 -0.0112  0.5146 -0.0226
   96MOL0     O12575   1.406   1.962   9.344 -0.6790 -0.8106 -0.2164
   96MOL0     C12576   1.333   2.056   9.263  0.4987 -0.7151 -0.0378
   96MOL0     C12577   1.192   2.079   9.329  0.8332  0.0272 -0.9228
   96MOL0     C12578   1.096   1.977   9.273 -0.1974  0.1478 -0.1009
   96MOL0     C12579   0.948   1.996   9.307  0.9057 -1.1433  0.1153
   96MOL0     C12580   0.842   1.901   9.248 -0.5885 -0.0496 -0.9332
   96MOL0     C12581   0.846   1.763   9.312  0.7598  0.0078 -0.2614
   96MOL0     C12582   0.764   1.667   9.228  0.1855 -0.1647 -0.7577
   96MOL0     C12583   0.761   1.526   9.297 -0.0003 -0.2661 -0.6463
   96MOL0    Cl12584   0.689   1.519   9.454 -0.3869  0.1451 -0.2675
   96MOL0     C12585   1.616   1.929   9.435 -1.0636 -0.3503 -0.3199
   96MOL0     C12586   1.757   1.909   9.429 -0.1573 -0.7993  0.0120
   96MOL0     O12587   1.978   1.758   9.151  1.1283  0.0931  0.4737
   96MOL0     C12588   2.257   1.759   9.180 -0.1336  0.3329 -0.3559
   96MOL0     C12589   2.397   1.751   9.212  0.0904  0.6482 -0.3906
   96MOL0     N12590   3.154   2.077   9.247  1.2435  0.3917  1.1851
   96MOL0     N12591   3.228   2.186   9.244  0.7179  0.4595  0.2426
   96MOL0     C12592   3.875   2.970   9.808 -0.6084  0.1095  0.4546
   96MOL0     C12593   4.008   2.998   9.852  0.1902  0.0845 -0.7429
   96MOL0     C12594   4.418   3.147   9.906  0.4132  0.5786  0.1168
   96MOL0     C12595   4.480   3.198   9.784 -0.1174  0.8560  0.7480
   96MOL0     C12596   4.620   3.218   9.768  0.6507 -0.3652 -0.9186
   96MOL0     C12597   4.700   3.195   9.884  0.4388  0.2074 -0.1191
   96MOL0     O12598   4.839   3.208   9.879 -0.4273  0.5128 -0.4248
   96MOL0     C12599   4.916   3.204   9.754 -0.5060 -0.1737  0.2532
   96MOL0     C12600   4.929   3.349   9.703  0.6083 -0.0223  0.6792
   96MOL0     C12601   5.049   3.380   9.606 -0.3521 -0.0030 -0.4056
   96MOL0     C12602   5.070   3.300   9.470  0.3035  0.6938 -0.7317
   96MOL0     C12603   4.941   3.290   9.403  0.1565  0.7059  1.1742
   96MOL0     C12604   4.831   3.282   9.352 -0.4781  0.9821 -0.0058
   96MOL0     C12605   4.639   3.147   9.997 -0.5024  0.1708  0.2016
   96MOL0     C12606   4.501   3.115  10.013  0.2261 -0.6761 -0.3437
   96MOL0     H12607   4.028   3.303   9.700 -0.2762 -0.0099 -1.4636
   96MOL0     H12608   3.803   3.256   9.635  1.4891  2.6100  0.6904
   96MOL0     H12609   3.623   2.879   9.772  0.2726 -0.0364  0.9770
   96MOL0     H12610   3.690   2.861   9.605 -0.5427  0.3422 -0.7772
   96MOL0     H12611   3.478   2.997   9.520 -2.9668 -0.9605 -0.2090
   96MOL0     H12612   3.427   2.991   9.683 -0.1401 -0.3665 -1.1990
   96MOL0     H12613   3.423   2.749   9.673 -1.3115  0.0980  0.4890
   96MOL0     H12614   3.498   2.750   9.505 -1.3804 -0.6928 -0.2904
   96MOL0     H12615   3.220   2.839   9.607  0.5498  0.0851  0.6179
   96MOL0     H12616   3.271   2.894   9.457 -1.7536  0.6377  1.0834
   96MOL0     H12617   3.318   2.656   9.380  0.5564  0.1671 -1.1878
   96MOL0     H12618   3.149   2.698   9.398 -0.9874 -0.4604  1.6647
   96MOL0     H12619   3.144   2.617   9.634  0.9362  0.2243  1.6147
   96MOL0     H12620   3.311   2.558   9.617  0.5588  0.3096 -1.3344
   96MOL0     H12621   3.117   2.377   9.571  0.1206 -1.2783 -0.5363
   96MOL0     H12622   3.083   2.471   9.424  0.0823  1.7367  1.2492
   96MOL0     H12623   3.348   2.334   9.504 -0.3481 -0.6417  0.1602
   96MOL0     H12624   3.320   2.435   9.361 -2.7498  4.0230  1.5796
   96MOL0     H12625   3.141   2.148   9.565 -0.4421  1.1633  0.3156
   96MOL0     H12626   3.081   1.881   9.519  1.9760 -0.9266 -1.2112
   96MOL0     H12627   3.056   1.840   9.345 -1.2168 -1.5627  2.0019
   96MOL0     H12628   2.869   1.994   9.314  1.7559  0.0785 -1.1578
   96MOL0     H12629   2.890   2.042   9.479 -0.1800 -0.9164 -0.1371
   96MOL0     H12630   2.816   1.747   9.398 -2.2755  0.1239 -1.9776
   96MOL0     H12631   2.831   1.808   9.559  2.4849 -0.8747 -0.4355
   96MOL0     H12632   2.624   1.982   9.460 -0.6719 -1.0632 -2.4765
   96MOL0     H12633   2.597   1.833   9.549  0.0041 -0.1498  0.8327
   96MOL0     H12634   2.399   1.897   9.524  1.0053 -2.1263  1.0654
   96MOL0     H12635   2.163   1.911   9.473 -1.9834 -0.1686 -1.5837
   96MOL0     H12636   1.805   1.969   9.104 -0.9907  2.5563 -0.2708
   96MOL0     H12637   1.553   1.981   9.101 -0.2628 -1.8009 -0.2463
   96MOL0     H12638   1.314   2.019   9.162  0.7227  1.2196 -0.8437
   96MOL0     H12639   1.387   2.151   9.270 -0.6072 -0.0909  0.2695
   96MOL0     H12640   1.159   2.175   9.287 -2.8546 -2.1456 -3.6165
   96MOL0     H12641   1.199   2.073   9.438  2.0902 -0.7349 -1.0385
   96MOL0     H12642   1.134   1.878   9.299  0.7977 -0.5194 -3.5882
   96MOL0     H12643   1.105   1.977   9.164  0.6591 -1.0129 -0.0461
   96MOL0     H12644   0.942   1.991   9.416  1.7458 -2.5979  0.1212
   96MOL0     H12645   0.925   2.094   9.264 -0.3582 -1.2243  0.5613
   96MOL0     H12646   0.868   1.892   9.142  0.2038 -1.2334 -0.6677
   96MOL0     H12647   0.740   1.939   9.245 -0.0385  1.8161  1.1999
   96MOL0     H12648   0.810   1.760   9.415  3.9530 -1.8483  0.9378
   96MOL0     H12649   0.951   1.735   9.320  2.2123  4.3433 -1.4897
   96MOL0     H12650   0.664   1.710   9.222 -0.2025 -1.0478 -0.5978
   96MOL0     H12651   0.817   1.669   9.132  1.0153 -3.3372 -0.4568
   96MOL0     H12652   0.862   1.485   9.301  1.1074  1.8260 -3.4478
   96MOL0     H12653   0.696   1.460   9.240 -3.5691 -0.0570  2.7720
   96MOL0     H12654   1.566   1.922   9.531 -2.2347 -1.9588 -0.9921
   96MOL0     H12655   1.810   1.903   9.524 -0.6121  0.0375  0.3344
   96MOL0     H12656   2.226   1.713   9.087 -1.3209 -3.1369  1.5916
   96MOL0     H12657   2.467   1.718   9.136  0.2258  1.4666 -0.6291
   96MOL0     H12658   3.843   2.872   9.842  0.1511 -0.5939 -0.7646
   96MOL0     H12659   4.064   2.933   9.919 -1.8383  2.3115  3.5102
   96MOL0     H12660   4.409   3.233   9.710  0.3276 -0.9493 -0.5859
   96MOL0     H12661   4.661   3.274   9.684  1.1512 -1.5422 -1.4705
   96MOL0     H12662   4.884   3.125   9.686  1.4199  0.2697 -1.2550
   96MOL0     H12663   5.014   3.170   9.789  1.3993  1.5270 -2.9579
   96MOL0     H12664   4.834   3.384   9.661 -0.3201  0.9272  3.4116
   96MOL0     H12665   4.930   3.423   9.783  1.7411 -1.5025  2.0753
   96MOL0     H12666   5.147   3.377   9.656 -0.8751 -0.5313  0.6091
   96MOL0     H12667   5.037   3.482   9.569  1.6924  1.4823  2.5931
   96MOL0     H12668   5.153   3.336   9.409  0.4118  0.9834 -0.4191
   96MOL0     H12669   5.111   3.203   9.499 -1.4329  0.8213  2.6325
   96MOL0     H12670   4.737   3.286   9.300 -0.2438  0.3687 -0.4932
   96MOL0     H12671   4.704   3.122  10.081  0.3869 -0.2434 -0.5862
   96MOL0     H12672   4.465   3.088  10.111 -1.7580 -1.2071 -1.1642
   97MOL0     O12673   1.904   6.162   5.617  0.0457  0.3455 -0.3445
   97MOL0     C12674   1.979   6.207   5.704 -0.2925  0.0631 -0.4273
   97MOL0     O12675   1.957   6.200   5.837  0.1354  0.0184 -0.1166
   97MOL0     C12676   1.851   6.120   5.881 -0.8570 -0.1961 -0.4258
   97MOL0     C12677   1.857   5.982   5.881  0.5395  0.0287 -0.4320
   97MOL0     C12678   1.750   5.907   5.943 -0.6214 -0.9335 -0.8483
   97MOL0     C12679   1.661   5.980   6.025  0.8160  0.0157 -0.5661
   97MOL0     O12680   1.576   5.910   6.110 -0.4671 -0.9455  0.2032
   97MOL0     C12681   1.458   5.967   6.158 -0.3572  0.0046  0.2171
   97MOL0     C12682   1.378   5.854   6.219 -0.5005  0.3714 -0.3548
   97MOL0     C12683   1.247   5.903   6.268 -0.9430 -0.8844 -0.1927
   97MOL0     C12684   1.149   5.798   6.277  0.2870  0.0065 -0.0733
   97MOL0     C12685   1.021   5.817   6.370 -1.1344  0.4892 -0.5650
   97MOL0     C12686   0.927   5.922   6.325  0.1673 -0.1303  0.2424
   97MOL0     C12687   0.836   5.988   6.434  0.6324 -0.0179 -0.0816
   97MOL0     C12688   0.692   5.978   6.391  0.7636  0.2744 -0.1381
   97MOL0     N12689   0.604   6.045   6.486  0.8033 -0.9602 -0.1893
   97MOL0     C12690   0.546   6.172   6.458  0.3751 -0.1723  0.7618
   97MOL0     C12691   0.460   6.200   6.556  0.4015 -0.4120  1.0488
   97MOL0     C12692   0.379   6.328   6.570  0.3421  0.4493  0.1177
   97MOL0     C12693   0.448   6.454   6.513  0.1206  0.5812  0.3400
   97MOL0     C12694   0.389   6.585   6.557 -1.3637 -0.3438 -0.1401
   97MOL0     C12695   0.246   6.590   6.510  0.2486 -1.1835 -0.3620
   97MOL0     O12696   0.206   6.724   6.531  0.1703  0.5248 -0.4249
   97MOL0     C12697   0.074   6.763   6.510  0.0166 -0.2737 -0.2312
   97MOL0     C12698  -0.019   6.675   6.453  0.2299 -0.2760  0.0497
   97MOL0     C12699  -0.153   6.711   6.422 -0.3531 -0.9176 -0.2549
   97MOL0     C12700  -0.197   6.843   6.447  0.3382  0.3820 -0.7579
   97MOL0     C12701  -0.334   6.871   6.422  0.0456  0.1790  0.3348
   97MOL0     O12702  -0.414   6.775   6.371  0.3858 -0.1367 -0.4265
   97MOL0     C12703  -0.548   6.811   6.342  0.2386  0.6687  0.4310
   97MOL0     C12704  -0.634   6.817   6.447 -0.4231 -0.3219  0.3582
   97MOL0     C12705  -0.771   6.839   6.429  0.2669 -0.4448  0.3323
   97MOL0     C12706  -0.817   6.839   6.300  0.1401 -0.4052  0.8883
   97MOL0     O12707  -0.955   6.861   6.299 -0.1492 -0.0774 -0.3329
   97MOL0     C12708  -1.024   6.811   6.182 -0.4243  0.7568  0.3389
   97MOL0     C12709  -1.180   6.800   6.225 -0.4980 -0.1558  0.0952
   97MOL0     C12710  -1.251   6.933   6.236 -0.2738  0.0829 -0.6152
   97MOL0     C12711  -1.396   6.911   6.272  0.0546  0.7449 -0.1044
   97MOL0     C12712  -1.492   7.013   6.218  0.1249  0.4925 -0.1745
   97MOL0     C12713  -1.459   7.159   6.262  0.5872  0.4455  0.5762
   97MOL0     C12714  -1.569   7.250   6.208 -0.5085  0.2114  0.2291
   97MOL0     C12715  -1.700   7.252   6.302  0.0368 -0.5338  0.2735
   97MOL0    Cl12716  -1.799   7.398   6.274  0.1483  0.2210 -0.2366
   97MOL0     C12717  -0.731   6.839   6.188 -0.1980 -0.3733 -0.3304
   97MOL0     C12718  -0.595   6.817   6.212  0.5363 -0.7337  0.3758
   97MOL0     O12719  -0.373   6.982   6.459  0.2635  0.0666 -0.8602
   97MOL0     C12720  -0.110   6.931   6.505 -0.0699 -0.2739  0.2003
   97MOL0     C12721   0.022   6.891   6.540  0.2118 -0.4423 -0.6602
   97MOL0     N12722   0.446   6.092   6.631 -0.3796  0.1186  0.9408
   97MOL0     N12723   0.536   6.000   6.596  0.1054  0.1121  0.5916
   97MOL0     C12724   1.667   6.122   6.035  0.3997  0.3749 -0.2113
   97MOL0     C12725   1.760   6.192   5.954  0.1282 -0.2313  1.0844
   97MOL0     C12726   2.093   6.289   5.665  0.1275  0.1582 -1.0022
   97MOL0     C12727   2.178   6.349   5.758 -0.2205 -0.0732  0.9162
   97MOL0     C12728   2.289   6.424   5.705  0.6794 -0.0293 -0.5991
   97MOL0     C12729   2.323   6.423   5.571  0.2633  0.2939  0.1638
   97MOL0     O12730   2.440   6.472   5.534 -0.0060 -0.2121 -0.1458
   97MOL0     C12731   2.499   6.420   5.414  0.0774  0.4030 -0.2542
   97MOL0     C12732   2.645   6.475   5.404  0.0777  0.8548 -0.8173
   97MOL0     C12733   2.652   6.627   5.388 -0.2670 -1.1166  0.1455
   97MOL0     C12734   2.799   6.673   5.398  0.2909 -0.5410 -0.2515
   97MOL0     C12735   2.810   6.809   5.332  0.5352  0.1433  0.7164
   97MOL0     C12736   2.847   6.912   5.286 -0.0173 -0.4108  0.7417
   97MOL0     C12737   2.225   6.376   5.480  0.0954 -0.9240 -0.7001
   97MOL0     C12738   2.114   6.309   5.528  0.4370  0.0436  0.2061
   97MOL0     H12739   1.934   5.928   5.827  1.2918 -1.0534  1.6123
   97MOL0     H12740   1.747   5.798   5.940 -3.5759 -0.9702  0.2736
   97MOL0     H12741   1.395   6.013   6.082  0.2552 -0.6834 -0.7255
   97MOL0     H12742   1.488   6.040   6.233  2.1381 -1.9908  1.3214
   97MOL0     H12743   1.430   5.817   6.308  0.0415 -2.5613 -1.7841
   97MOL0     H12744   1.367   5.771   6.150 -0.2661 -0.0419  0.1016
   97MOL0     H12745   1.212   5.971   6.190 -1.8664  2.5873  2.9262
   97MOL0     H12746   1.267   5.966   6.355  1.7858 -0.0992 -1.2785
   97MOL0     H12747   1.118   5.762   6.179 -0.5735  2.0477 -0.5938
   97MOL0     H12748   1.199   5.711   6.322 -0.4672 -2.0608 -2.9420
   97MOL0     H12749   1.060   5.854   6.465 -1.1524 -3.1691  1.0409
   97MOL0     H12750   0.969   5.724   6.396  2.1657 -1.1341  0.6895
   97MOL0     H12751   0.866   5.873   6.249  0.2017 -1.9647  1.3537
   97MOL0     H12752   0.975   6.005   6.272  0.5075 -0.6819 -0.3228
   97MOL0     H12753   0.841   5.940   6.532  2.4960  1.2730  0.5136
   97MOL0     H12754   0.868   6.092   6.439 -0.8881  0.7847 -3.8350
   97MOL0     H12755   0.657   5.876   6.375 -0.0559 -0.0595  3.1500
   97MOL0     H12756   0.684   6.025   6.292  0.2009  2.2664  0.8097
   97MOL0     H12757   0.571   6.246   6.383  1.7883 -0.8480  0.5309
   97MOL0     H12758   0.359   6.347   6.676  1.0355  2.8647 -0.1449
   97MOL0     H12759   0.278   6.320   6.529 -0.4617 -5.1638  2.2832
   97MOL0     H12760   0.428   6.454   6.405 -3.8953  1.6184  0.9118
   97MOL0     H12761   0.555   6.450   6.536 -0.1464 -0.8102  1.3980
   97MOL0     H12762   0.399   6.609   6.664 -2.9662  0.6094 -0.1788
   97MOL0     H12763   0.443   6.663   6.502 -0.8128  1.1727  2.3566
   97MOL0     H12764   0.184   6.523   6.571  0.4647 -0.3357  0.8182
   97MOL0     H12765   0.238   6.575   6.402  0.2664  1.4582 -0.7955
   97MOL0     H12766   0.001   6.572   6.425 -2.5514 -0.6882 -0.7250
   97MOL0     H12767  -0.225   6.643   6.377 -0.0027 -0.8966 -0.8525
   97MOL0     H12768  -0.593   6.808   6.547 -2.1444  4.2148  1.7031
   97MOL0     H12769  -0.838   6.850   6.514 -1.3915 -0.7359 -0.9035
   97MOL0     H12770  -0.981   6.715   6.150  0.2509  1.7408 -1.8824
   97MOL0     H12771  -1.026   6.872   6.092 -1.1994  1.8872  1.0997
   97MOL0     H12772  -1.200   6.751   6.320 -0.7252  0.5214  0.4042
   97MOL0     H12773  -1.236   6.752   6.144  1.6225 -0.4183 -1.3302
   97MOL0     H12774  -1.250   6.968   6.132 -2.7315 -1.0264 -1.0815
   97MOL0     H12775  -1.212   7.005   6.309 -1.8903  2.3951 -1.9102
   97MOL0     H12776  -1.435   6.816   6.236 -0.5384  1.5792 -1.7588
   97MOL0     H12777  -1.400   6.913   6.381  0.9849 -2.5856  0.1086
   97MOL0     H12778  -1.593   6.987   6.248  0.0952  0.5689 -0.2104
   97MOL0     H12779  -1.482   7.005   6.109  0.9883 -2.6357  0.0298
   97MOL0     H12780  -1.366   7.203   6.225  0.5629  0.3690  0.4211
   97MOL0     H12781  -1.444   7.175   6.369  1.9773  0.9770  0.3171
   97MOL0     H12782  -1.548   7.357   6.215 -2.5524  0.6629  0.2073
   97MOL0     H12783  -1.589   7.226   6.104  4.5626 -0.7895 -0.7708
   97MOL0     H12784  -1.662   7.244   6.405  0.8752 -1.3745 -0.0885
   97MOL0     H12785  -1.753   7.156   6.296 -0.1884 -0.4587  0.8863
   97MOL0     H12786  -0.771   6.861   6.090 -0.2260  3.6088  0.3905
   97MOL0     H12787  -0.527   6.819   6.128 -1.8407  0.7038 -1.6701
   97MOL0     H12788  -0.156   7.025   6.534 -2.0774 -1.3471  0.6691
   97MOL0     H12789   0.100   6.955   6.581  1.4973 -1.6263 -1.2013
   97MOL0     H12790   1.603   6.180   6.101 -3.3553  0.3200 -3.4544
   97MOL0     H12791   1.758   6.300   5.969 -2.0716 -0.1562  0.5984
   97MOL0     H12792   2.174   6.335   5.866  0.2567 -5.8216  0.4864
   97MOL0     H12793   2.358   6.466   5.776  1.2132 -0.8454 -0.6193
   97MOL0     H12794   2.451   6.455   5.323  0.2151  0.2049 -0.4034
   97MOL0     H12795   2.495   6.311   5.404 -3.1159  0.3037  0.8767
   97MOL0     H12796   2.694   6.445   5.498 -1.0105  0.0784 -0.4676
   97MOL0     H12797   2.705   6.432   5.323  1.4105  0.8569  0.1333
   97MOL0     H12798   2.593   6.672   5.469 -0.0017 -1.5930  0.6134
   97MOL0     H12799   2.602   6.656   5.296 -1.6021 -0.5156  1.0281
   97MOL0     H12800   2.838   6.667   5.500  1.4497 -4.6954 -0.7213
   97MOL0     H12801   2.861   6.607   5.337 -0.1500 -1.1116 -0.1021
   97MOL0     H12802   2.885   7.001   5.239 -1.7695 -0.4245 -0.8732
   97MOL0     H12803   2.239   6.393   5.374 -1.1423  3.6021 -0.3025
   97MOL0     H12804   2.061   6.256   5.449  1.1482 -1.3968  0.6545
   98MOL0     O12805   1.387   1.842   6.236  0.2569  0.0080 -0.1508
   98MOL0     C12806   1.341   1.853   6.129 -0.8411  0.2121  0.5504
   98MOL0     O12807   1.212   1.852   6.089  0.3720  0.3466  0.4710
   98MOL0     C12808   1.114   1.836   6.179 -0.0968 -0.2704  0.3390
   98MOL0     C12809   1.083   1.930   6.277 -0.4424 -0.0511 -0.5892
   98MOL0     C12810   0.995   1.907   6.384 -0.0477 -0.1415  0.4391
   98MOL0     C12811   0.930   1.782   6.390  0.5598 -0.6637 -0.1556
   98MOL0     O12812   0.836   1.739   6.480  0.0761  0.1277  0.2555
   98MOL0     C12813   0.819   1.809   6.602 -0.2617 -0.6823 -0.7175
   98MOL0     C12814   0.705   1.745   6.685 -0.2366 -0.7614 -0.0610
   98MOL0     C12815   0.689   1.832   6.814  0.0695  0.6249 -0.6592
   98MOL0     C12816   0.561   1.792   6.890 -0.3621 -0.8165  0.3769
   98MOL0     C12817   0.540   1.873   7.018 -0.1907  0.1824  0.7272
   98MOL0     C12818   0.403   1.858   7.075  0.7944 -0.1287  0.0132
   98MOL0     C12819   0.298   1.961   7.016 -0.1739 -0.2137 -0.5937
   98MOL0     C12820   0.153   1.921   7.050 -0.3181  0.3237  0.1015
   98MOL0     N12821   0.063   2.000   6.965  0.5723 -0.0991 -0.1686
   98MOL0     C12822   0.054   1.990   6.831 -0.1976 -0.4979  0.4239
   98MOL0     C12823  -0.042   2.080   6.792 -0.2280  1.0221 -0.8915
   98MOL0     C12824  -0.102   2.117   6.660  0.3442  0.3399  0.1296
   98MOL0     C12825  -0.071   2.255   6.621  0.8688  0.1245 -0.0446
   98MOL0     C12826  -0.139   2.298   6.502  0.7924 -0.1388 -0.6035
   98MOL0     C12827  -0.125   2.457   6.486  0.3949 -0.0333 -0.2493
   98MOL0     O12828  -0.019   2.488   6.395  0.0783  1.3660  0.3551
   98MOL0     C12829   0.103   2.520   6.439 -0.3862  0.3764  0.0898
   98MOL0     C12830   0.196   2.519   6.338 -0.2033 -0.6416 -0.2330
   98MOL0     C12831   0.328   2.577   6.351  0.1183 -0.1630  0.5342
   98MOL0     C12832   0.367   2.607   6.486 -0.1564 -0.6592  0.0459
   98MOL0     C12833   0.510   2.659   6.513  0.5417  0.3995  0.4513
   98MOL0     O12834   0.579   2.677   6.405 -0.8538 -0.0935  0.1838
   98MOL0     C12835   0.720   2.690   6.411 -0.7323  0.1856 -0.4094
   98MOL0     C12836   0.814   2.639   6.496  0.4412 -0.8465 -0.2696
   98MOL0     C12837   0.950   2.651   6.475 -0.0996 -0.7929  0.1408
   98MOL0     C12838   1.004   2.700   6.360  0.2109 -0.4734 -0.3771
   98MOL0     O12839   1.136   2.683   6.338  0.1148  0.7091 -0.1912
   98MOL0     C12840   1.191   2.742   6.225  0.2230 -0.7923 -0.0404
   98MOL0     C12841   1.345   2.738   6.231 -0.4010 -0.1818  0.1506
   98MOL0     C12842   1.389   2.800   6.094  0.0808  0.5141  0.2359
   98MOL0     C12843   1.538   2.794   6.060  0.9221  0.0151  0.5638
   98MOL0     C12844   1.634   2.864   6.160 -0.0743  0.2202 -0.5536
   98MOL0     C12845   1.773   2.840   6.134  0.7402  0.4258  0.1387
   98MOL0     C12846   1.867   2.863   6.254  0.1588 -0.2504 -0.1322
   98MOL0     C12847   2.009   2.816   6.223 -0.7265  0.2902 -0.4911
   98MOL0    Cl12848   2.104   2.809   6.378 -0.1346 -0.3967  0.1697
   98MOL0     C12849   0.910   2.750   6.263 -0.0550  0.1429  0.7424
   98MOL0     C12850   0.773   2.743   6.293 -0.6352 -0.6345  0.8432
   98MOL0     O12851   0.548   2.675   6.630 -0.4164 -0.3289 -0.1388
   98MOL0     C12852   0.271   2.612   6.585 -0.2676  0.5188 -0.1645
   98MOL0     C12853   0.141   2.567   6.566  0.0057 -0.2857  0.5029
   98MOL0     N12854  -0.101   2.135   6.902  0.3165  0.2699  0.1499
   98MOL0     N12855  -0.038   2.086   7.001  0.6182 -0.8937 -0.0081
   98MOL0     C12856   0.945   1.696   6.278  0.0861 -0.4623 -0.3853
   98MOL0     C12857   1.037   1.721   6.177 -0.5957 -0.6428 -0.1768
   98MOL0     C12858   1.448   1.886   6.024  0.0889  0.1361  0.0887
   98MOL0     C12859   1.413   1.922   5.890 -0.8861  0.2616 -0.9878
   98MOL0     C12860   1.511   1.955   5.794  0.1179  0.2463  0.6905
   98MOL0     C12861   1.645   1.953   5.823 -0.0894  0.0005 -0.5114
   98MOL0     O12862   1.732   1.982   5.724 -0.4133 -0.1960  0.2782
   98MOL0     C12863   1.859   2.045   5.754  0.1118 -0.3234  0.6070
   98MOL0     C12864   1.979   1.950   5.751  0.3199 -0.2760 -0.1287
   98MOL0     C12865   1.980   1.860   5.622 -1.5814  0.3128  0.0900
   98MOL0     C12866   2.097   1.762   5.612  0.0918 -0.2849  0.7637
   98MOL0     C12867   2.226   1.832   5.617  0.3621  0.3210  0.2108
   98MOL0     C12868   2.321   1.910   5.599  0.4016 -0.4287 -0.1001
   98MOL0     C12869   1.683   1.902   5.951 -0.1185 -0.3921  0.0104
   98MOL0     C12870   1.588   1.873   6.053  0.4863  0.2786 -0.2361
   98MOL0     H12871   1.139   2.023   6.268  1.0841 -1.0986 -3.2047
   98MOL0     H12872   0.978   1.982   6.461 -3.7962 -0.6932  0.3673
   98MOL0     H12873   0.801   1.915   6.583  1.4666 -0.1525  0.3441
   98MOL0     H12874   0.913   1.794   6.656 -1.5158 -4.3157  0.7817
   98MOL0     H12875   0.724   1.640   6.711 -0.7388 -1.0516 -0.8359
   98MOL0     H12876   0.612   1.751   6.628  0.5933  0.5726 -1.3254
   98MOL0     H12877   0.689   1.940   6.797  2.4594  0.7989  0.0334
   98MOL0     H12878   0.780   1.812   6.871 -1.1844 -1.5134  0.7123
   98MOL0     H12879   0.468   1.798   6.832 -1.8964  1.1387  2.8555
   98MOL0     H12880   0.565   1.685   6.914  0.6850 -0.7549  0.5350
   98MOL0     H12881   0.560   1.978   6.996 -0.0068 -0.1756 -0.8932
   98MOL0     H12882   0.613   1.831   7.088 -0.2999  0.3168  0.9230
   98MOL0     H12883   0.415   1.860   7.184  3.6533  0.4624 -0.2352
   98MOL0     H12884   0.358   1.761   7.052  0.9670 -0.7987  2.2444
   98MOL0     H12885   0.325   2.062   7.047  0.0894 -0.5104  0.1714
   98MOL0     H12886   0.317   1.958   6.908  0.7918 -2.9296 -0.4416
   98MOL0     H12887   0.140   1.931   7.158 -1.7522  2.0027 -0.1804
   98MOL0     H12888   0.143   1.816   7.021  0.0850  0.4809 -0.6309
   98MOL0     H12889   0.114   1.927   6.767 -1.5220 -3.0389  1.5692
   98MOL0     H12890  -0.210   2.097   6.660  0.3861  0.0949  1.0699
   98MOL0     H12891  -0.062   2.049   6.584  1.5406 -0.0875  1.1158
   98MOL0     H12892   0.033   2.287   6.608  0.8614  0.7898  1.3797
   98MOL0     H12893  -0.105   2.323   6.700 -2.2513  0.5714 -1.5953
   98MOL0     H12894  -0.084   2.245   6.424  0.8861 -0.7422 -0.1374
   98MOL0     H12895  -0.244   2.267   6.497  0.7661 -0.1322 -0.1454
   98MOL0     H12896  -0.106   2.509   6.581 -0.6801  0.8165 -0.4900
   98MOL0     H12897  -0.219   2.495   6.445 -0.1310 -1.3690 -0.3125
   98MOL0     H12898   0.175   2.488   6.236  4.0829  0.0550 -1.5435
   98MOL0     H12899   0.397   2.588   6.268  1.5085 -0.7204  1.5548
   98MOL0     H12900   0.783   2.580   6.582 -1.1611  0.8315  0.3579
   98MOL0     H12901   1.022   2.601   6.540  0.1633 -2.3175 -1.2748
   98MOL0     H12902   1.147   2.842   6.217 -2.3915 -1.8196  0.5715
   98MOL0     H12903   1.159   2.689   6.134  1.0529 -0.1926 -0.7049
   98MOL0     H12904   1.387   2.638   6.246 -0.0273 -0.1881 -0.8837
   98MOL0     H12905   1.374   2.813   6.305  0.5574  0.5042 -0.8879
   98MOL0     H12906   1.340   2.897   6.087 -0.5060  0.1919 -0.2417
   98MOL0     H12907   1.330   2.745   6.019 -0.6534  2.4251 -0.6441
   98MOL0     H12908   1.572   2.691   6.051 -4.4750 -1.9904 -0.8776
   98MOL0     H12909   1.550   2.831   5.958  2.0242 -3.7300 -0.8212
   98MOL0     H12910   1.631   2.809   6.254  4.7576  2.0960  0.9676
   98MOL0     H12911   1.613   2.970   6.175  0.3684  0.4614 -1.5755
   98MOL0     H12912   1.805   2.897   6.046 -0.8506 -1.1281 -1.5347
   98MOL0     H12913   1.791   2.737   6.103  2.6493  0.7408  0.0623
   98MOL0     H12914   1.870   2.970   6.274 -1.0764 -0.4803  1.4246
   98MOL0     H12915   1.825   2.829   6.349 -0.5403 -0.0457 -0.3645
   98MOL0     H12916   2.058   2.887   6.156  1.7546 -0.4456  0.4219
   98MOL0     H12917   2.007   2.717   6.177  1.4166 -0.0813  0.1073
   98MOL0     H12918   0.932   2.789   6.164 -1.4117  0.2847  0.4718
   98MOL0     H12919   0.704   2.773   6.216  0.2019  0.5251  0.5229
   98MOL0     H12920   0.301   2.651   6.682  1.6060  0.1981 -0.5720
   98MOL0     H12921   0.066   2.585   6.643 -2.2817  1.6877 -2.0016
   98MOL0     H12922   0.875   1.613   6.279  1.0645 -1.3015  0.2848
   98MOL0     H12923   1.061   1.652   6.097  2.8363 -0.7178  0.7589
   98MOL0     H12924   1.307   1.929   5.867 -1.3580 -1.5281  0.4007
   98MOL0     H12925   1.489   1.974   5.689  2.0236  2.6339  0.6433
   98MOL0     H12926   1.861   2.107   5.844 -1.9681  1.5388 -0.5269
   98MOL0     H12927   1.875   2.124   5.681 -0.7370 -0.7147 -0.0094
   98MOL0     H12928   2.077   1.997   5.764  1.5346 -2.7226  0.1955
   98MOL0     H12929   1.967   1.881   5.835 -0.9602 -0.3066 -0.3129
   98MOL0     H12930   1.980   1.921   5.531 -0.6956 -1.4676 -1.1754
   98MOL0     H12931   1.890   1.797   5.627  0.5495 -2.8597  0.9581
   98MOL0     H12932   2.091   1.702   5.704  1.4089 -3.7649 -1.2151
   98MOL0     H12933   2.093   1.687   5.532  2.0151 -1.6262  1.8283
   98MOL0     H12934   2.398   1.974   5.560  0.8390 -1.8934 -1.8033
   98MOL0     H12935   1.789   1.885   5.967 -0.0862 -1.5415 -1.2557
   98MOL0     H12936   1.628   1.840   6.148 -2.0733  1.4170  1.3221
   99MOL0     O12937   4.492   6.484   2.377 -0.5325  0.1015 -0.1207
   99MOL0     C12938   4.469   6.433   2.485  0.2866 -0.6720  0.7821
   99MOL0     O12939   4.551   6.433   2.597 -0.1747 -0.2863 -0.0309
   99MOL0     C12940   4.684   6.452   2.569 -1.3089 -0.0252  0.1387
   99MOL0     C12941   4.764   6.535   2.648  0.6461  0.4572  0.0825
   99MOL0     C12942   4.906   6.547   2.633 -0.1827  0.7243 -0.8723
   99MOL0     C12943   4.969   6.459   2.541  0.4774  0.9620 -0.1519
   99MOL0     O12944   5.107   6.460   2.535  0.2555 -0.1132  0.4221
   99MOL0     C12945   5.159   6.328   2.517  0.0994  0.5448 -0.3705
   99MOL0     C12946   5.306   6.324   2.569  0.2690 -0.7063 -0.3118
   99MOL0     C12947   5.400   6.203   2.540 -0.4049  0.5859 -0.6104
   99MOL0     C12948   5.544   6.226   2.580 -0.4046 -0.4684  0.3622
   99MOL0     C12949   5.629   6.095   2.589 -0.3916  0.5377 -0.2076
   99MOL0     C12950   5.781   6.115   2.584  0.3730 -0.7502  0.3153
   99MOL0     C12951   5.858   5.984   2.607  0.5034  0.6757  0.2448
   99MOL0     C12952   6.006   5.991   2.574  0.1963  0.1727  0.3746
   99MOL0     N12953   6.065   5.859   2.556 -1.3222  0.1737  0.1234
   99MOL0     C12954   6.035   5.778   2.449  0.0006  0.5044 -0.7199
   99MOL0     C12955   6.121   5.680   2.466 -0.5289 -0.1479  0.5410
   99MOL0     C12956   6.110   5.555   2.378 -0.2646  0.2986 -0.8329
   99MOL0     C12957   6.118   5.420   2.460  0.1463  0.3981  0.4201
   99MOL0     C12958   5.973   5.360   2.462 -0.4034 -0.2621 -0.1716
   99MOL0     C12959   5.868   5.456   2.520  0.1722  1.2170  0.1226
   99MOL0     O12960   5.819   5.551   2.428  0.1347  0.1479  0.2718
   99MOL0     C12961   5.714   5.635   2.450  0.1560  0.3287 -0.1603
   99MOL0     C12962   5.651   5.701   2.341  0.1507  0.1651 -0.5342
   99MOL0     C12963   5.531   5.765   2.355  0.1543  0.5445  0.2533
   99MOL0     C12964   5.485   5.782   2.478  0.5289  0.6213 -0.5723
   99MOL0     C12965   5.346   5.848   2.491 -0.1729  0.2728 -0.5250
   99MOL0     O12966   5.275   5.824   2.610  0.4543  0.4415 -0.3890
   99MOL0     C12967   5.152   5.881   2.610  0.3689 -0.0565 -0.7883
   99MOL0     C12968   5.124   5.968   2.714  0.7264 -0.2454 -0.7031
   99MOL0     C12969   4.995   6.029   2.724 -0.7215 -0.2844 -0.1871
   99MOL0     C12970   4.895   5.993   2.639 -0.0911  0.2956  0.1113
   99MOL0     O12971   4.771   6.049   2.664 -0.0062  0.4055 -0.1130
   99MOL0     C12972   4.657   6.012   2.585  0.1261 -0.2046 -0.2402
   99MOL0     C12973   4.519   6.070   2.630 -0.9717  0.0211 -0.4819
   99MOL0     C12974   4.476   6.024   2.770 -0.6397  0.3626 -0.0593
   99MOL0     C12975   4.332   6.067   2.782  1.1028 -0.1316 -0.0142
   99MOL0     C12976   4.253   6.038   2.917  0.3229  0.1631  0.6650
   99MOL0     C12977   4.117   6.101   2.907  0.3076  0.4694  0.2899
   99MOL0     C12978   4.037   6.036   3.014  0.5778  0.1044  0.3177
   99MOL0     C12979   3.892   6.084   3.009  0.4563 -0.3163  0.0304
   99MOL0    Cl12980   3.882   6.231   3.109  0.3551  0.1797 -0.4558
   99MOL0     C12981   4.914   5.891   2.548  0.3991  0.6076  0.0576
   99MOL0     C12982   5.042   5.835   2.536  0.0217 -0.2198  0.2534
   99MOL0     O12983   5.310   5.919   2.393  0.0297 -0.3310  0.2631
   99MOL0     C12984   5.551   5.728   2.593 -0.0657 -0.0618  0.5903
   99MOL0     C12985   5.667   5.654   2.586  0.4191  0.1941  1.2304
   99MOL0     N12986   6.211   5.713   2.574  0.2667  0.8479  0.1026
   99MOL0     N12987   6.179   5.826   2.616 -1.1253  0.9507  0.2488
   99MOL0     C12988   4.888   6.385   2.452  0.0796 -0.5002 -0.3848
   99MOL0     C12989   4.751   6.388   2.468  0.0485  0.6391  0.1749
   99MOL0     C12990   4.328   6.394   2.491 -0.1209  0.1239 -1.0383
   99MOL0     C12991   4.253   6.349   2.381 -0.2518  0.8544  0.0866
   99MOL0     C12992   4.124   6.314   2.404  0.4092  0.4136 -0.2798
   99MOL0     C12993   4.056   6.309   2.530  0.0078  0.0938  0.2184
   99MOL0     O12994   3.925   6.279   2.546  0.4802 -0.4186 -0.2215
   99MOL0     C12995   3.829   6.265   2.433  0.7587  0.0617  0.4534
   99MOL0     C12996   3.807   6.402   2.352 -0.2463  0.4171  0.0757
   99MOL0     C12997   3.732   6.365   2.220  0.0133  0.3346  0.0574
   99MOL0     C12998   3.708   6.497   2.144  0.4752  0.1687 -0.5878
   99MOL0     C12999   3.603   6.474   2.047  0.7553  0.1047 -0.9873
   99MOL0     C13000   3.512   6.423   1.978 -1.0645 -0.0523 -1.0071
   99MOL0     C13001   4.136   6.339   2.641 -0.0397  0.0917  0.0620
   99MOL0     C13002   4.265   6.400   2.617  0.1482 -0.1220 -0.8318
   99MOL0     H13003   4.712   6.578   2.733  0.3006 -2.1208  1.2756
   99MOL0     H13004   4.969   6.609   2.695  1.2344 -0.6156 -0.9118
   99MOL0     H13005   5.147   6.307   2.410 -0.8031  0.3728 -0.2420
   99MOL0     H13006   5.109   6.255   2.581  0.5074  0.2680 -0.3666
   99MOL0     H13007   5.300   6.335   2.678  0.0950 -1.4728 -0.2361
   99MOL0     H13008   5.351   6.418   2.535  0.7542  0.4191  2.9878
   99MOL0     H13009   5.396   6.176   2.434 -0.9821 -0.9358 -0.2291
   99MOL0     H13010   5.360   6.120   2.599  0.7948  0.0862 -0.4827
   99MOL0     H13011   5.591   6.289   2.504  0.4881 -1.0671  0.3968
   99MOL0     H13012   5.557   6.271   2.679  0.3584 -2.3103  1.1537
   99MOL0     H13013   5.600   6.017   2.518  3.1527 -0.9483 -0.2354
   99MOL0     H13014   5.600   6.046   2.682 -1.2579 -1.8916 -1.6504
   99MOL0     H13015   5.807   6.184   2.664  3.3680 -0.7348 -0.5691
   99MOL0     H13016   5.806   6.166   2.490  1.2315  0.1660  1.0301
   99MOL0     H13017   5.851   5.940   2.706  0.2993  0.8702  0.3194
   99MOL0     H13018   5.808   5.917   2.536 -1.8612  2.8803 -0.3531
   99MOL0     H13019   6.068   6.052   2.641 -1.2521  3.7805 -1.3059
   99MOL0     H13020   6.008   6.036   2.475  0.8003  1.1388  0.8070
   99MOL0     H13021   5.963   5.787   2.367 -1.7564 -0.8517  0.6022
   99MOL0     H13022   6.180   5.560   2.294 -0.2216  1.8091 -0.7484
   99MOL0     H13023   6.015   5.559   2.323 -1.4841  0.1447  1.1834
   99MOL0     H13024   6.158   5.442   2.559  2.1611 -0.6508 -0.1042
   99MOL0     H13025   6.181   5.341   2.418 -0.2632 -0.5215  1.4956
   99MOL0     H13026   5.950   5.331   2.359  4.7828  0.2139 -1.7282
   99MOL0     H13027   5.972   5.265   2.516  1.0035  0.1109  0.5492
   99MOL0     H13028   5.915   5.513   2.601  0.4145  0.2751  0.6587
   99MOL0     H13029   5.789   5.389   2.556 -0.1133  1.6651  0.3378
   99MOL0     H13030   5.704   5.705   2.246 -0.8197 -0.9234 -1.1584
   99MOL0     H13031   5.490   5.806   2.262 -0.7157 -0.7256  0.0579
   99MOL0     H13032   5.202   5.996   2.783 -0.4600 -0.8235  0.9222
   99MOL0     H13033   4.986   6.109   2.797 -1.8335  1.4763 -2.1229
   99MOL0     H13034   4.633   5.906   2.600  0.8546 -0.1668  1.3034
   99MOL0     H13035   4.683   6.039   2.482  0.3300  0.7429  0.0522
   99MOL0     H13036   4.443   6.043   2.556 -0.8147 -1.3002 -0.2007
   99MOL0     H13037   4.523   6.179   2.621 -0.9727 -0.1315 -2.9788
   99MOL0     H13038   4.534   6.074   2.848 -4.0658  0.5594  2.6503
   99MOL0     H13039   4.479   5.915   2.782  0.4882  0.5730  2.0439
   99MOL0     H13040   4.328   6.171   2.750  0.6511 -0.0142  0.4058
   99MOL0     H13041   4.281   6.016   2.700  2.5383 -1.2980 -0.2250
   99MOL0     H13042   4.300   6.081   3.006 -0.0771  3.0974 -0.4279
   99MOL0     H13043   4.257   5.929   2.918  1.0257  0.1878  1.3921
   99MOL0     H13044   4.065   6.105   2.811  1.9734  2.7553 -0.6245
   99MOL0     H13045   4.116   6.206   2.938 -0.4437  0.6245 -0.2151
   99MOL0     H13046   4.024   5.931   2.988  0.4442  0.1567  0.1682
   99MOL0     H13047   4.073   6.033   3.118  0.9297 -1.8744  0.1720
   99MOL0     H13048   3.829   6.004   3.047  1.5103 -0.1419  2.3146
   99MOL0     H13049   3.873   6.105   2.903  1.9104 -1.1382 -0.4112
   99MOL0     H13050   4.830   5.853   2.491 -0.4867  0.1255  1.6200
   99MOL0     H13051   5.065   5.754   2.467  2.3153 -0.7784  1.5696
   99MOL0     H13052   5.500   5.744   2.687  0.8119  1.3863  0.8444
   99MOL0     H13053   5.711   5.613   2.676  3.5742  1.3053  0.3026
   99MOL0     H13054   4.926   6.332   2.365 -0.8733 -1.0075 -0.5104
   99MOL0     H13055   4.693   6.323   2.402 -1.2520  0.1419  1.7429
   99MOL0     H13056   4.296   6.328   2.284 -3.4458  1.8343 -1.6656
   99MOL0     H13057   4.062   6.301   2.315 -1.4747  2.1849  0.7151
   99MOL0     H13058   3.733   6.222   2.464 -1.5399  1.2888 -4.1066
   99MOL0     H13059   3.876   6.193   2.366  2.6634  0.7887  0.9569
   99MOL0     H13060   3.748   6.461   2.422  2.1751  1.1472  1.6308
   99MOL0     H13061   3.894   6.458   2.317 -1.4839  1.7625 -0.9787
   99MOL0     H13062   3.637   6.317   2.242  0.8414 -1.4703 -0.1324
   99MOL0     H13063   3.797   6.302   2.159 -0.0877  0.2302  0.0568
   99MOL0     H13064   3.675   6.575   2.213  0.0705 -1.4487  1.1413
   99MOL0     H13065   3.798   6.532   2.093  0.8521 -0.5275 -0.4189
   99MOL0     H13066   3.444   6.373   1.912  0.4888 -4.3522  0.2877
   99MOL0     H13067   4.108   6.333   2.746  1.0698 -2.4129  0.2704
   99MOL0     H13068   4.319   6.432   2.705 -1.0961 -0.2021 -0.0282
  100MOL0     O13069   6.982   1.442   5.593  0.1019  0.1044  0.1203
  100MOL0     C13070   7.016   1.478   5.481 -0.2391  0.0708 -0.1238
  100MOL0     O13071   6.945   1.458   5.368  0.4116 -0.1632 -0.5417
  100MOL0     C13072   6.822   1.395   5.373  0.8752  0.9102 -0.4895
  100MOL0     C13073   6.730   1.444   5.464 -0.0845 -0.2965 -0.0114
  100MOL0     C13074   6.602   1.396   5.463 -0.0806 -0.2458 -0.5019
  100MOL0     C13075   6.558   1.287   5.383  0.5289 -0.1907 -0.3466
  100MOL0     O13076   6.431   1.238   5.395 -0.4453 -0.1899  0.5477
  100MOL0     C13077   6.406   1.116   5.322  1.1232 -0.3724  0.2787
  100MOL0     C13078   6.257   1.106   5.312  0.2874 -0.2212  0.5889
  100MOL0     C13079   6.199   1.079   5.447  0.3888 -0.3172 -0.2409
  100MOL0     C13080   6.058   1.037   5.448  0.2899  0.2583  0.1072
  100MOL0     C13081   6.027   0.956   5.578 -1.8863 -0.0452 -0.4775
  100MOL0     C13082   5.880   0.893   5.580 -0.6182  0.2245  0.2454
  100MOL0     C13083   5.860   0.821   5.712 -0.4786  0.6976  0.6206
  100MOL0     C13084   5.736   0.741   5.702  0.4554  0.1402 -0.2639
  100MOL0     N13085   5.611   0.814   5.686 -0.1876 -1.1303  0.5449
  100MOL0     C13086   5.549   0.887   5.781 -0.2992 -0.4239 -0.1150
  100MOL0     C13087   5.428   0.916   5.729 -0.2251 -0.2993  0.6127
  100MOL0     C13088   5.308   0.996   5.783  0.2447  0.0555 -0.1972
  100MOL0     C13089   5.180   0.915   5.806  0.2175  0.6235  1.2891
  100MOL0     C13090   5.068   0.987   5.873 -0.4008 -0.1428  0.4658
  100MOL0     C13091   4.937   0.909   5.892 -0.1051 -0.5280 -0.0835
  100MOL0     O13092   4.830   1.005   5.939 -0.8093 -0.6703 -0.0725
  100MOL0     C13093   4.695   0.983   5.916  0.5019  0.3371  0.0791
  100MOL0     C13094   4.609   1.090   5.920 -0.3798 -0.2555  0.4626
  100MOL0     C13095   4.473   1.079   5.918  0.2793 -0.7929 -0.3885
  100MOL0     C13096   4.412   0.947   5.919 -0.4183  0.8686  1.2314
  100MOL0     C13097   4.266   0.929   5.918  0.4883  0.4832 -0.7800
  100MOL0     O13098   4.185   1.045   5.948  0.5111  0.1389 -0.1677
  100MOL0     C13099   4.049   1.021   5.950  0.5429 -0.0520  0.7075
  100MOL0     C13100   3.988   0.912   6.019  0.3387  0.3602 -0.0335
  100MOL0     C13101   3.850   0.881   6.010  0.0478  0.1754  0.3666
  100MOL0     C13102   3.771   0.955   5.923  0.0720 -0.1410 -0.0181
  100MOL0     O13103   3.638   0.926   5.933  0.1652 -0.3105 -0.8055
  100MOL0     C13104   3.538   1.019   5.886 -0.7336 -0.6608 -0.4879
  100MOL0     C13105   3.401   0.992   5.935  0.1183 -0.0669  0.5632
  100MOL0     C13106   3.414   0.991   6.090  0.3946 -0.2759 -0.7482
  100MOL0     C13107   3.283   1.004   6.170  0.4534  0.4085 -0.3836
  100MOL0     C13108   3.289   0.955   6.310  0.2575 -0.8406  0.1343
  100MOL0     C13109   3.277   0.804   6.316 -0.1337  0.9088  0.5819
  100MOL0     C13110   3.274   0.759   6.461 -0.0607  0.3259  1.0391
  100MOL0     C13111   3.285   0.608   6.470 -0.6552 -0.0206  1.0527
  100MOL0    Cl13112   3.277   0.552   6.639  0.0876  0.0141 -0.2017
  100MOL0     C13113   3.822   1.064   5.846 -0.3588 -0.3300  0.0197
  100MOL0     C13114   3.960   1.096   5.870  0.3775  0.3600  0.7997
  100MOL0     O13115   4.221   0.814   5.895  0.4906 -0.3061  0.0677
  100MOL0     C13116   4.504   0.832   5.908 -0.2266  0.8639  0.9055
  100MOL0     C13117   4.638   0.850   5.919 -0.0184  0.0039  0.6392
  100MOL0     N13118   5.421   0.863   5.595 -0.6516 -0.4767 -0.5786
  100MOL0     N13119   5.532   0.800   5.573 -0.7736 -0.9718 -0.0530
  100MOL0     C13120   6.664   1.220   5.317 -0.2679 -0.4171  0.7893
  100MOL0     C13121   6.794   1.279   5.307  0.1531 -0.9185 -0.2763
  100MOL0     C13122   7.136   1.555   5.474 -0.5669  0.0979  0.0507
  100MOL0     C13123   7.226   1.563   5.591  0.1758 -0.4451 -1.0159
  100MOL0     C13124   7.339   1.636   5.600  0.0398 -0.3674 -0.3036
  100MOL0     C13125   7.376   1.699   5.476  0.3288  0.7810 -0.2220
  100MOL0     O13126   7.484   1.782   5.488 -0.1499 -0.0540 -0.1508
  100MOL0     C13127   7.530   1.871   5.380 -0.0887  0.2805  0.2962
  100MOL0     C13128   7.597   1.987   5.452  0.9616 -0.5795  0.1920
  100MOL0     C13129   7.658   2.096   5.356  0.2730 -0.5651 -0.0044
  100MOL0     C13130   7.753   2.188   5.434  0.7336  0.5228 -0.4342
  100MOL0     C13131   7.677   2.312   5.475 -0.5104  0.1813  0.4005
  100MOL0     C13132   7.619   2.422   5.487  0.1944  0.7249  0.3769
  100MOL0     C13133   7.294   1.695   5.367  0.1223 -0.1507 -0.1455
  100MOL0     C13134   7.179   1.625   5.357 -0.5186 -0.3053 -0.2631
  100MOL0     H13135   6.749   1.526   5.532 -1.2932 -0.6329  0.7649
  100MOL0     H13136   6.538   1.449   5.533 -0.0604  0.3870 -0.9543
  100MOL0     H13137   6.456   1.030   5.366  3.5919  0.9771  0.2945
  100MOL0     H13138   6.444   1.118   5.220 -0.4822 -0.8129 -0.3618
  100MOL0     H13139   6.245   1.015   5.252 -2.7340  0.8087 -0.5519
  100MOL0     H13140   6.222   1.197   5.264 -0.1426  0.6269  2.4334
  100MOL0     H13141   6.213   1.159   5.521  2.3744 -1.1061  0.3158
  100MOL0     H13142   6.257   0.997   5.490 -1.3385 -0.9522  0.9808
  100MOL0     H13143   5.991   1.123   5.438  0.1737  0.0327 -1.2448
  100MOL0     H13144   6.022   0.985   5.359 -0.2438  1.2765 -0.2972
  100MOL0     H13145   6.025   1.038   5.651  0.0241  1.0263 -1.5366
  100MOL0     H13146   6.101   0.881   5.608 -1.4370 -0.1335 -1.7309
  100MOL0     H13147   5.867   0.833   5.490  0.0758  1.1733 -0.5139
  100MOL0     H13148   5.810   0.977   5.573  0.5222  1.1915  0.0017
  100MOL0     H13149   5.946   0.756   5.729 -0.2355  1.4301  2.4405
  100MOL0     H13150   5.856   0.888   5.799 -0.6882  1.5960 -0.0710
  100MOL0     H13151   5.716   0.690   5.797  0.3109  1.4279  0.4220
  100MOL0     H13152   5.744   0.677   5.613 -0.9384 -0.2499 -0.1448
  100MOL0     H13153   5.573   0.911   5.884 -1.1702 -1.2667  0.2880
  100MOL0     H13154   5.286   1.075   5.710 -0.4400  0.0067 -0.0424
  100MOL0     H13155   5.333   1.040   5.880  1.6581 -0.6600 -0.2110
  100MOL0     H13156   5.201   0.827   5.868  1.6015 -0.2600 -0.3483
  100MOL0     H13157   5.147   0.882   5.707  0.6519  1.7950  0.7429
  100MOL0     H13158   5.103   1.002   5.976  0.9532  1.9588 -0.2362
  100MOL0     H13159   5.047   1.081   5.821 -0.2286 -0.3577  0.0075
  100MOL0     H13160   4.958   0.831   5.966  1.1141  0.8124  1.0449
  100MOL0     H13161   4.914   0.854   5.801  1.3281  0.0136 -0.8126
  100MOL0     H13162   4.652   1.189   5.935 -0.3167 -0.1725 -0.2030
  100MOL0     H13163   4.417   1.169   5.942  0.1810 -1.5599  2.6097
  100MOL0     H13164   4.055   0.857   6.084 -2.8012 -1.8619  1.6204
  100MOL0     H13165   3.807   0.804   6.074 -0.8660  0.1492 -0.2658
  100MOL0     H13166   3.538   1.019   5.777 -2.3898 -2.2784 -0.5424
  100MOL0     H13167   3.571   1.119   5.917 -0.6475 -1.3698  1.9273
  100MOL0     H13168   3.373   0.893   5.897  0.3913  1.4482 -4.2221
  100MOL0     H13169   3.331   1.067   5.897  1.5265  0.7584 -0.5188
  100MOL0     H13170   3.475   1.081   6.099 -2.9261  2.2082 -1.0764
  100MOL0     H13171   3.466   0.903   6.128 -1.1137 -1.2752 -0.9244
  100MOL0     H13172   3.254   1.109   6.165 -0.0661  0.2552 -0.5880
  100MOL0     H13173   3.202   0.951   6.121  0.4445 -2.8870  2.7427
  100MOL0     H13174   3.210   1.011   6.361  1.3137  1.6312 -0.7754
  100MOL0     H13175   3.380   0.994   6.358  0.1367  0.1198 -0.3898
  100MOL0     H13176   3.362   0.753   6.270 -2.3120 -1.5223 -1.0164
  100MOL0     H13177   3.182   0.769   6.275 -0.0822  1.6647 -0.2062
  100MOL0     H13178   3.362   0.793   6.517  2.6818 -0.2263 -2.5646
  100MOL0     H13179   3.182   0.798   6.504  0.6667  0.8272  2.1985
  100MOL0     H13180   3.384   0.585   6.428 -0.2336  2.5591  0.4663
  100MOL0     H13181   3.202   0.557   6.420 -1.6118  0.2391  2.3256
  100MOL0     H13182   3.766   1.132   5.783  0.8862  1.1509  0.4683
  100MOL0     H13183   4.001   1.185   5.823 -0.8426  1.1286  1.1454
  100MOL0     H13184   4.460   0.733   5.913 -1.2783  1.0844 -2.1006
  100MOL0     H13185   4.690   0.756   5.934 -0.0061  0.2433  2.2296
  100MOL0     H13186   6.655   1.131   5.255 -1.4636 -0.3110  0.7981
  100MOL0     H13187   6.874   1.232   5.251 -1.2080 -1.0009 -2.2751
  100MOL0     H13188   7.207   1.499   5.677  2.0365  0.0659 -0.1867
  100MOL0     H13189   7.396   1.643   5.692  0.7295 -2.9374 -0.4642
  100MOL0     H13190   7.446   1.910   5.323  1.3439  1.9249 -0.8037
  100MOL0     H13191   7.591   1.821   5.304 -2.5528 -0.3026 -1.4329
  100MOL0     H13192   7.524   2.033   5.519  2.2311 -2.3285  2.9285
  100MOL0     H13193   7.674   1.944   5.516 -0.0835  0.6477  2.4039
  100MOL0     H13194   7.577   2.151   5.306  0.7530 -0.4194 -0.6368
  100MOL0     H13195   7.717   2.034   5.289  0.7987 -1.3027  1.1190
  100MOL0     H13196   7.794   2.127   5.515  0.8400  0.0239 -0.8581
  100MOL0     H13197   7.836   2.219   5.369  0.1636 -0.8444 -1.9002
  100MOL0     H13198   7.568   2.509   5.523  0.1664  0.1311  1.8593
  100MOL0     H13199   7.320   1.746   5.275 -1.4999  0.1578 -0.4617
  100MOL0     H13200   7.115   1.625   5.270  0.7435  1.1655 -1.2370
  101MOL0     O13201   1.064  10.780  10.676 -0.9092  0.6946  0.1345
  101MOL0     C13202   1.056  10.899  10.651 -0.0041  0.2020 -0.1557
  101MOL0     O13203   1.164  10.986  10.628 -0.2739  0.2842  0.7984
  101MOL0     C13204   1.292  10.947  10.617  0.7266  0.1630  0.5245
  101MOL0     C13205   1.383  11.035  10.677 -0.5347  0.3752  0.0221
  101MOL0     C13206   1.525  11.012  10.667  0.1672 -0.3442 -0.0398
  101MOL0     C13207   1.576  10.902  10.595 -0.1775  0.7036 -0.1021
  101MOL0     O13208   1.716  10.891  10.588  0.2322  0.1000  0.0642
  101MOL0     C13209   1.777  10.796  10.503 -0.2651 -0.0152 -0.4575
  101MOL0     C13210   1.925  10.793  10.549  0.2044  0.0458 -0.2406
  101MOL0     C13211   1.995  10.696  10.452  0.5429  0.7080  0.2706
  101MOL0     C13212   2.118  10.640  10.515 -0.6516  0.0207  0.7406
  101MOL0     C13213   2.184  10.522  10.446 -0.0306 -0.6247  0.2411
  101MOL0     C13214   2.312  10.496  10.519  0.5574 -0.4950 -0.7957
  101MOL0     C13215   2.417  10.609  10.524 -0.2107 -0.5150  0.0089
  101MOL0     C13216   2.556  10.576  10.584 -0.0661  0.3961 -0.4934
  101MOL0     N13217   2.548  10.479  10.693  0.3180  0.5970 -0.9862
  101MOL0     C13218   2.571  10.338  10.696  1.4255 -0.2271  0.8270
  101MOL0     C13219   2.550  10.314  10.831  0.2184 -0.1994 -0.0275
  101MOL0     C13220   2.555  10.178  10.887  0.9827  0.1977 -0.7984
  101MOL0     C13221   2.413  10.144  10.944  0.4200 -0.0053  0.3137
  101MOL0     C13222   2.398  10.001  11.001  0.5092  0.3503 -0.3203
  101MOL0     C13223   2.477   9.980  11.130 -0.2220  0.3920 -0.4600
  101MOL0     O13224   2.475   9.840  11.176 -0.2142 -0.4246 -0.1325
  101MOL0     C13225   2.365   9.803  11.254 -0.5370  0.3898  0.4581
  101MOL0     C13226   2.252   9.881  11.277  0.2635 -0.8700  0.1558
  101MOL0     C13227   2.154   9.836  11.365 -0.2038  0.2893 -0.7111
  101MOL0     C13228   2.165   9.706  11.419  0.0416  0.3132  0.0581
  101MOL0     C13229   2.058   9.654  11.517 -0.5589  0.0421  0.1936
  101MOL0     O13230   1.962   9.744  11.550 -0.2110  0.7398  0.4173
  101MOL0     C13231   1.854   9.704  11.624 -0.3424  0.5621 -0.6405
  101MOL0     C13232   1.746   9.643  11.563 -0.0576 -0.5902 -0.1513
  101MOL0     C13233   1.628   9.622  11.638 -0.2440 -0.2471  0.6884
  101MOL0     C13234   1.615   9.653  11.766 -0.0695 -0.1182  0.1820
  101MOL0     O13235   1.488   9.630  11.813 -0.3731  0.1159  0.3886
  101MOL0     C13236   1.468   9.649  11.955 -0.3731  0.1442  0.0300
  101MOL0     C13237   1.328   9.601  11.997  0.2236  0.1539 -0.2183
  101MOL0     C13238   1.216   9.684  11.938  0.1250 -0.2900  0.3919
  101MOL0     C13239   1.083   9.637  11.993  0.6763  0.5440  0.0636
  101MOL0     C13240   0.968   9.734  11.940  0.4042  0.2010  0.9897
  101MOL0     C13241   0.830   9.662  11.950  0.7335  0.6654  0.2595
  101MOL0     C13242   0.809   9.556  11.844  0.5675 -0.4080  0.4619
  101MOL0     C13243   0.656   9.527  11.822  0.2304 -0.5222 -0.2757
  101MOL0    Cl13244   0.621   9.397  11.710 -0.4670 -0.0388 -0.2028
  101MOL0     C13245   1.724   9.711  11.826 -0.4962 -0.5166 -0.0686
  101MOL0     C13246   1.842   9.746  11.757  0.0667  0.3423 -0.0203
  101MOL0     O13247   2.065   9.533  11.550 -1.2814  0.7371 -0.6464
  101MOL0     C13248   2.266   9.622  11.381  0.3965 -0.3934  0.3660
  101MOL0     C13249   2.368   9.673  11.301 -0.8540 -0.4515  0.4341
  101MOL0     N13250   2.528  10.431  10.900  0.2527 -0.0890  0.1973
  101MOL0     N13251   2.522  10.529  10.819  0.4424  0.8341 -0.4029
  101MOL0     C13252   1.477  10.820  10.536 -0.4082  1.1475 -0.8601
  101MOL0     C13253   1.339  10.835  10.545 -0.0524  0.3730  0.4516
  101MOL0     C13254   0.923  10.969  10.642  0.7242 -0.4982  0.2066
  101MOL0     C13255   0.802  10.914  10.694 -0.1697 -0.3745  0.6422
  101MOL0     C13256   0.673  10.967  10.676 -0.0588  0.6050  0.4574
  101MOL0     C13257   0.666  11.090  10.617 -0.2859  0.5651 -0.5016
  101MOL0     O13258   0.556  11.141  10.566  0.0070  0.9457 -0.0325
  101MOL0     C13259   0.427  11.089  10.603  0.3365  0.0174 -0.1319
  101MOL0     C13260   0.385  11.114  10.748  0.5532  0.2589 -0.7262
  101MOL0     C13261   0.244  11.059  10.774 -0.3290 -0.3649  1.0296
  101MOL0     C13262   0.237  10.908  10.783 -0.4317  0.4406  0.5582
  101MOL0     C13263   0.306  10.836  10.892 -0.2286  0.0280 -0.2073
  101MOL0     C13264   0.363  10.779  10.977 -0.1405 -0.3141 -0.6948
  101MOL0     C13265   0.787  11.153  10.571  0.3808  0.5929  0.4370
  101MOL0     C13266   0.908  11.089  10.577  0.5045 -0.4451 -0.2887
  101MOL0     H13267   1.348  11.117  10.738 -2.0126 -0.2045  0.0087
  101MOL0     H13268   1.591  11.080  10.718  0.5605 -1.2034  0.6185
  101MOL0     H13269   1.786  10.830  10.399  1.7341  0.6978 -0.1036
  101MOL0     H13270   1.727  10.699  10.516 -0.2526  0.3772  3.8973
  101MOL0     H13271   1.928  10.755  10.652 -0.1613 -0.9986 -0.5968
  101MOL0     H13272   1.971  10.892  10.542 -2.2783  1.2364 -0.6295
  101MOL0     H13273   2.007  10.759  10.363 -2.7773  2.5623  0.9709
  101MOL0     H13274   1.930  10.614  10.420  1.2996  0.4349 -0.5902
  101MOL0     H13275   2.190  10.722  10.507  1.3167 -1.6937 -0.3797
  101MOL0     H13276   2.110  10.612  10.620  0.9736  1.7715  1.3940
  101MOL0     H13277   2.195  10.552  10.342  0.8876 -1.0854  0.1916
  101MOL0     H13278   2.113  10.439  10.447  0.5390 -1.1228  0.7794
  101MOL0     H13279   2.355  10.407  10.471 -1.6116 -1.9707 -0.1845
  101MOL0     H13280   2.294  10.467  10.623  0.1247 -0.1407 -0.7711
  101MOL0     H13281   2.438  10.654  10.426 -0.1715 -1.3212 -0.3565
  101MOL0     H13282   2.377  10.687  10.589  1.0301  0.3909 -0.2693
  101MOL0     H13283   2.594  10.671  10.622 -1.6935  2.8102 -4.3776
  101MOL0     H13284   2.614  10.527  10.506 -2.3055  1.5773 -3.0601
  101MOL0     H13285   2.606  10.283  10.609 -0.7752  0.6625 -0.7097
  101MOL0     H13286   2.636  10.168  10.959  1.2908 -1.0604 -1.2940
  101MOL0     H13287   2.574  10.100  10.812  0.1557  1.1366 -2.0292
  101MOL0     H13288   2.340  10.162  10.865  0.9236 -1.3585 -0.4963
  101MOL0     H13289   2.390  10.220  11.020 -2.8876 -0.5055 -0.0467
  101MOL0     H13290   2.293   9.986  11.029  0.7991 -0.6149  0.2833
  101MOL0     H13291   2.421   9.915  10.937 -0.4945 -1.7929  2.0495
  101MOL0     H13292   2.442  10.049  11.208  0.9881  0.5541 -0.0201
  101MOL0     H13293   2.581  10.013  11.118  0.5617 -2.0910 -0.9923
  101MOL0     H13294   2.244   9.981  11.236 -1.3446 -0.4256  1.4133
  101MOL0     H13295   2.062   9.894  11.371 -2.9344 -3.3961 -2.9085
  101MOL0     H13296   1.762   9.609  11.461  3.6384 -0.4654  0.2435
  101MOL0     H13297   1.540   9.585  11.585 -0.2633 -1.0885  1.2969
  101MOL0     H13298   1.493   9.755  11.968  3.5059 -0.5220 -0.6359
  101MOL0     H13299   1.541   9.594  12.015 -1.7604 -1.1140  0.6290
  101MOL0     H13300   1.319   9.591  12.105 -1.3750  1.1960 -0.2249
  101MOL0     H13301   1.326   9.500  11.955  0.2533  0.5275 -1.1458
  101MOL0     H13302   1.212   9.677  11.829 -0.8870 -0.9184  0.4465
  101MOL0     H13303   1.236   9.788  11.964  3.2532 -0.6686 -0.1523
  101MOL0     H13304   1.058   9.533  11.970 -0.5483 -0.0026  3.2738
  101MOL0     H13305   1.088   9.646  12.102  1.4421 -0.4785  0.1258
  101MOL0     H13306   0.992   9.743  11.833 -2.0385  0.5461  0.4202
  101MOL0     H13307   0.964   9.826  11.999 -0.6210  1.3734 -0.8086
  101MOL0     H13308   0.747   9.732  11.936 -0.7706 -1.2298 -0.7113
  101MOL0     H13309   0.827   9.613  12.048  1.1060  0.5102  0.1928
  101MOL0     H13310   0.858   9.588  11.752 -2.0864 -1.9307 -1.5837
  101MOL0     H13311   0.860   9.463  11.871  2.8363  0.6253  0.0437
  101MOL0     H13312   0.617   9.624  11.788  4.3710  0.8323 -1.7563
  101MOL0     H13313   0.605   9.511  11.917 -0.3587 -0.4966 -0.5795
  101MOL0     H13314   1.724   9.732  11.933  2.7498 -0.8227  0.1062
  101MOL0     H13315   1.916   9.800  11.815  0.1634 -2.7480  3.0256
  101MOL0     H13316   2.273   9.520  11.417 -0.4427 -0.8824 -0.7907
  101MOL0     H13317   2.453   9.612  11.272 -0.0510  1.3338 -1.2269
  101MOL0     H13318   1.514  10.732  10.484  2.2273  1.8652 -0.3503
  101MOL0     H13319   1.263  10.784  10.487  1.4192  0.3202 -1.5511
  101MOL0     H13320   0.791  10.825  10.755 -3.3898 -0.9689 -0.5818
  101MOL0     H13321   0.582  10.914  10.699 -0.3625  0.6368 -0.5925
  101MOL0     H13322   0.425  10.983  10.577 -0.3878 -0.5381  2.0025
  101MOL0     H13323   0.358  11.139  10.535  0.2452 -1.0865 -0.8727
  101MOL0     H13324   0.457  11.064  10.814 -1.0039 -1.4058 -0.1933
  101MOL0     H13325   0.379  11.223  10.757  1.4803  0.3856 -1.4986
  101MOL0     H13326   0.179  11.083  10.690 -0.4691  0.4135  1.3498
  101MOL0     H13327   0.207  11.104  10.867  2.9725  2.9310  0.9660
  101MOL0     H13328   0.134  10.875  10.797  0.4432 -2.3322  1.1732
  101MOL0     H13329   0.283  10.864  10.694  2.5582  2.4907  0.9353
  101MOL0     H13330   0.428  10.732  11.048 -1.2183  1.7396  1.8439
  101MOL0     H13331   0.787  11.249  10.522 -1.2211 -0.0431 -0.9233
  101MOL0     H13332   0.995  11.141  10.537 -0.8227  1.7220 -0.4759
  102MOL0     O13333   4.668   6.838   0.552 -0.1359 -0.9841 -0.2667
  102MOL0     C13334   4.689   6.820   0.674 -0.2290 -0.1456  0.5827
  102MOL0     O13335   4.598   6.810   0.770 -0.6771  0.5118  0.4836
  102MOL0     C13336   4.465   6.813   0.744  0.1763  0.1094  0.0645
  102MOL0     C13337   4.403   6.741   0.642  0.0790  0.9657 -0.1258
  102MOL0     C13338   4.263   6.754   0.626 -0.1476 -0.0924 -0.8628
  102MOL0     C13339   4.186   6.816   0.737 -0.6249 -0.3780  0.6259
  102MOL0     O13340   4.050   6.842   0.731  0.1207  0.4550 -0.2290
  102MOL0     C13341   3.977   6.777   0.626  0.8958  0.3771  0.5165
  102MOL0     C13342   3.829   6.801   0.649 -0.1280  0.1683 -0.6788
  102MOL0     C13343   3.776   6.716   0.762 -0.2454 -0.2793 -0.6867
  102MOL0     C13344   3.624   6.739   0.773  0.1666 -0.2059  0.3313
  102MOL0     C13345   3.552   6.642   0.863 -0.7860  0.1956  0.4077
  102MOL0     C13346   3.403   6.652   0.858  0.4543 -0.1554 -0.7022
  102MOL0     C13347   3.320   6.551   0.939  0.9912 -0.3642  0.0266
  102MOL0     C13348   3.405   6.477   1.049 -0.1961 -0.0911 -0.1086
  102MOL0     N13349   3.346   6.371   1.133  0.7995 -0.5972 -0.6891
  102MOL0     C13350   3.352   6.245   1.086  0.2705 -0.0247  0.3156
  102MOL0     C13351   3.314   6.182   1.195  0.6464 -0.3473  0.2747
  102MOL0     C13352   3.297   6.028   1.209  0.0334  0.1889  0.4553
  102MOL0     C13353   3.180   5.989   1.302  0.3240 -0.1279 -0.8574
  102MOL0     C13354   3.053   6.054   1.243  0.2168 -0.0301 -0.2183
  102MOL0     C13355   2.935   5.972   1.292  0.0106 -0.4512 -0.3796
  102MOL0     O13356   2.917   5.854   1.214  0.7527  0.0655  0.0903
  102MOL0     C13357   2.794   5.796   1.234 -0.7881  0.6403 -0.1685
  102MOL0     C13358   2.690   5.840   1.161  0.2771  0.5245  0.1379
  102MOL0     C13359   2.564   5.782   1.166 -0.1878  0.3449 -0.3661
  102MOL0     C13360   2.537   5.676   1.258 -0.5957 -0.0828  0.4834
  102MOL0     C13361   2.412   5.606   1.273 -0.0322 -0.1467  0.2084
  102MOL0     O13362   2.378   5.543   1.390 -0.3097  0.0810 -0.1584
  102MOL0     C13363   2.284   5.446   1.394 -0.2713  0.4736 -0.2227
  102MOL0     C13364   2.303   5.322   1.332 -0.3616 -0.9346  0.4660
  102MOL0     C13365   2.211   5.218   1.342 -0.6792  0.8400  0.5049
  102MOL0     C13366   2.101   5.226   1.429  0.0216 -0.6360 -0.7164
  102MOL0     O13367   2.029   5.115   1.462 -0.0396  0.2840  0.0237
  102MOL0     C13368   1.899   5.128   1.517 -0.2174 -0.0047 -0.1525
  102MOL0     C13369   1.837   4.980   1.508 -0.1207 -0.3005 -0.4620
  102MOL0     C13370   1.916   4.882   1.602 -1.3088 -0.1144 -0.0582
  102MOL0     C13371   1.847   4.742   1.604  0.0233  0.2731 -0.1448
  102MOL0     C13372   1.898   4.661   1.723 -0.4648  0.1812  0.0640
  102MOL0     C13373   1.843   4.520   1.730 -0.2315 -0.2895 -0.3054
  102MOL0     C13374   1.857   4.461   1.875 -0.0748  0.8904  0.5436
  102MOL0     C13375   1.996   4.415   1.923  0.7143 -0.5327  0.4055
  102MOL0    Cl13376   2.034   4.272   1.826  0.0568 -0.0652  0.2138
  102MOL0     C13377   2.082   5.352   1.499  0.9228 -0.7360  0.0193
  102MOL0     C13378   2.169   5.458   1.475 -0.7605  0.1124 -0.4671
  102MOL0     O13379   2.338   5.604   1.174  0.0454 -0.7786  0.2916
  102MOL0     C13380   2.653   5.630   1.335 -0.6851 -0.1833  0.6752
  102MOL0     C13381   2.775   5.697   1.329 -0.3152  0.2231 -1.0056
  102MOL0     N13382   3.307   6.269   1.303  0.4965  0.7907  0.8266
  102MOL0     N13383   3.329   6.387   1.268  0.6034  0.2217  0.1043
  102MOL0     C13384   4.260   6.878   0.840  0.8396  0.1714  0.2109
  102MOL0     C13385   4.393   6.873   0.853 -0.3006  0.5646  0.5590
  102MOL0     C13386   4.829   6.815   0.704  0.0090  0.7393 -1.2409
  102MOL0     C13387   4.929   6.786   0.610 -0.3332  0.1422 -0.4466
  102MOL0     C13388   5.063   6.786   0.646 -0.2105  0.2906 -0.1719
  102MOL0     C13389   5.105   6.819   0.777  0.0440  0.2678  0.0193
  102MOL0     O13390   5.232   6.817   0.819  0.1732  0.1903 -0.3699
  102MOL0     C13391   5.278   6.677   0.835  0.4886 -1.3253  0.1291
  102MOL0     C13392   5.350   6.619   0.708 -0.3524  1.3063 -0.1613
  102MOL0     C13393   5.481   6.681   0.674 -0.1196 -0.0205  0.4167
  102MOL0     C13394   5.554   6.574   0.587 -0.2473 -0.3286 -0.3642
  102MOL0     C13395   5.674   6.634   0.537 -0.1867 -0.0552 -0.7647
  102MOL0     C13396   5.780   6.669   0.483  0.5047  0.3146 -0.5885
  102MOL0     C13397   5.010   6.849   0.869 -1.3699 -0.2487  0.1489
  102MOL0     C13398   4.878   6.854   0.831 -0.6055  0.3937 -0.0856
  102MOL0     H13399   4.450   6.684   0.562 -2.7608  0.7017 -1.7504
  102MOL0     H13400   4.211   6.703   0.546  1.3327  0.2745 -2.1009
  102MOL0     H13401   4.005   6.671   0.633 -0.1509  0.1150  1.0242
  102MOL0     H13402   4.007   6.802   0.524 -0.8690  1.3095  0.1796
  102MOL0     H13403   3.765   6.796   0.560  0.7703  1.5694 -1.4326
  102MOL0     H13404   3.817   6.907   0.676 -0.3574 -0.2429  0.9595
  102MOL0     H13405   3.833   6.749   0.849  1.8963  1.4408 -2.5977
  102MOL0     H13406   3.801   6.610   0.749 -0.9290 -0.4700 -0.4770
  102MOL0     H13407   3.602   6.841   0.807 -0.0604  0.0360 -0.5170
  102MOL0     H13408   3.581   6.732   0.672  0.7516  0.9864 -0.0139
  102MOL0     H13409   3.595   6.660   0.962 -3.1789 -0.3026  1.6247
  102MOL0     H13410   3.585   6.544   0.830  2.9460  1.3614  0.2125
  102MOL0     H13411   3.378   6.633   0.753 -1.8346  0.1301 -0.2586
  102MOL0     H13412   3.383   6.752   0.898  2.1974 -0.7142  1.8124
  102MOL0     H13413   3.224   6.590   0.973 -0.1403 -0.5398 -2.6988
  102MOL0     H13414   3.283   6.481   0.864  0.5743  1.1544 -1.2636
  102MOL0     H13415   3.463   6.547   1.110  2.2139 -1.6435 -0.5155
  102MOL0     H13416   3.484   6.426   0.993  0.6104  2.0605 -1.0428
  102MOL0     H13417   3.383   6.220   0.985 -0.2799 -0.7261  0.3122
  102MOL0     H13418   3.387   5.974   1.241  0.4976 -0.4621 -1.8023
  102MOL0     H13419   3.283   5.987   1.109  0.0899  0.6097  0.2742
  102MOL0     H13420   3.189   6.016   1.407 -0.8668 -0.9378 -0.5211
  102MOL0     H13421   3.164   5.882   1.320 -2.5419  0.1295 -1.3956
  102MOL0     H13422   3.039   6.153   1.290 -1.4818  0.0322 -0.7903
  102MOL0     H13423   3.054   6.053   1.134  2.5399  1.8901 -0.3051
  102MOL0     H13424   2.848   6.039   1.293  0.0210 -0.4368  0.3685
  102MOL0     H13425   2.946   5.937   1.395 -0.9181 -0.8387 -0.3945
  102MOL0     H13426   2.705   5.927   1.098 -0.6398  0.3134 -0.3933
  102MOL0     H13427   2.479   5.819   1.109 -0.9680 -0.1544  0.4349
  102MOL0     H13428   2.398   5.310   1.282 -0.7993  0.4261 -0.7715
  102MOL0     H13429   2.231   5.119   1.302 -2.5133  0.1822  1.1039
  102MOL0     H13430   1.848   5.204   1.456  0.0196  0.0962 -0.2287
  102MOL0     H13431   1.896   5.161   1.621  0.7268  1.0673 -0.4348
  102MOL0     H13432   1.831   4.955   1.402  0.8600  4.1226 -1.7688
  102MOL0     H13433   1.730   4.985   1.529 -0.6509  0.1239 -2.9611
  102MOL0     H13434   1.906   4.929   1.700 -1.2291  2.2954 -1.1342
  102MOL0     H13435   2.021   4.887   1.571 -1.6765  1.3177 -1.1902
  102MOL0     H13436   1.738   4.752   1.609 -0.0623  0.1612 -1.3797
  102MOL0     H13437   1.876   4.695   1.510  3.6192  1.1921  0.3643
  102MOL0     H13438   1.884   4.710   1.820  0.3773 -0.6726  0.6314
  102MOL0     H13439   2.005   4.646   1.708 -0.7739 -3.5694  0.6280
  102MOL0     H13440   1.895   4.456   1.659  2.0700 -0.3454  1.2853
  102MOL0     H13441   1.737   4.528   1.706 -0.6771 -2.3719  0.7759
  102MOL0     H13442   1.820   4.530   1.952 -2.0748  2.9699 -2.0521
  102MOL0     H13443   1.795   4.372   1.865  1.1655  0.0559  0.0845
  102MOL0     H13444   1.991   4.386   2.028  0.1188  1.1759  0.8829
  102MOL0     H13445   2.070   4.495   1.909 -1.1148  1.2915  0.7033
  102MOL0     H13446   1.995   5.378   1.558  2.3123 -1.2774  2.4403
  102MOL0     H13447   2.156   5.552   1.527 -0.7819 -0.3302  0.3393
  102MOL0     H13448   2.645   5.553   1.412  0.6617  0.4723  1.5214
  102MOL0     H13449   2.856   5.667   1.395  0.3048 -0.9794 -2.2586
  102MOL0     H13450   4.197   6.941   0.902 -0.2889  0.3288 -1.0508
  102MOL0     H13451   4.449   6.920   0.933  1.8337 -1.7597  0.5609
  102MOL0     H13452   4.898   6.749   0.512  0.7946 -0.2901 -0.6610
  102MOL0     H13453   5.136   6.754   0.572 -1.2790 -1.1012 -0.6801
  102MOL0     H13454   5.187   6.619   0.852  0.5129 -1.7056 -0.9678
  102MOL0     H13455   5.348   6.666   0.918 -1.8225  0.8072  2.5471
  102MOL0     H13456   5.370   6.516   0.737  4.8729  1.9237 -0.6488
  102MOL0     H13457   5.288   6.625   0.618 -1.4812  2.2291  0.6488
  102MOL0     H13458   5.544   6.684   0.764  0.0911  0.4575  0.2526
  102MOL0     H13459   5.466   6.774   0.619 -2.1356 -1.3440 -1.4486
  102MOL0     H13460   5.585   6.487   0.646 -2.1611 -0.8205  0.0035
  102MOL0     H13461   5.489   6.537   0.507  0.1472 -2.3693  0.2071
  102MOL0     H13462   5.873   6.689   0.433  0.3357  1.8354 -0.3402
  102MOL0     H13463   5.032   6.869   0.973 -1.8305  0.1805  0.1616
  102MOL0     H13464   4.806   6.878   0.909  0.2150  1.3072  0.4086
  103MOL0     O13465   2.668   8.548  10.473 -0.2156 -0.0955 -0.0848
  103MOL0     C13466   2.582   8.615  10.417 -0.0906  0.1870  0.5510
  103MOL0     O13467   2.606   8.707  10.313 -0.3137  0.5265  0.2787
  103MOL0     C13468   2.731   8.696  10.264 -0.5135  0.1006 -0.2487
  103MOL0     C13469   2.812   8.806  10.283  0.2952  0.5460  0.2215
  103MOL0     C13470   2.939   8.803  10.221 -0.4943  0.3268  0.1337
  103MOL0     C13471   2.984   8.687  10.155 -0.4080 -0.7943  0.3060
  103MOL0     O13472   3.124   8.688  10.123  0.2717  0.5022 -0.4573
  103MOL0     C13473   3.184   8.563  10.153  0.1347  0.6080 -0.9715
  103MOL0     C13474   3.204   8.539  10.309 -0.8626  0.3411  0.3014
  103MOL0     C13475   3.229   8.393  10.347  0.3347  0.2129 -0.2016
  103MOL0     C13476   3.154   8.331  10.467  0.9468  0.4499 -0.0570
  103MOL0     C13477   2.999   8.341  10.466  0.2109 -0.5427  0.3442
  103MOL0     C13478   2.935   8.230  10.541  0.3186  0.0071 -0.3621
  103MOL0     C13479   2.786   8.213  10.499  0.2785  0.3279 -0.0799
  103MOL0     C13480   2.735   8.082  10.571  0.1734 -0.1629 -0.6203
  103MOL0     N13481   2.590   8.077  10.558 -0.4795 -0.3727  0.3026
  103MOL0     C13482   2.532   8.022  10.441 -0.2635 -0.8767  0.1970
  103MOL0     C13483   2.402   8.065  10.448 -0.5422  0.5753 -0.6419
  103MOL0     C13484   2.290   8.036  10.350 -0.0788 -0.3625  0.7064
  103MOL0     C13485   2.326   7.971  10.223  0.0395 -1.3307 -0.9498
  103MOL0     C13486   2.222   8.008  10.111 -0.4167  0.5649  0.2666
  103MOL0     C13487   2.082   7.944  10.133  0.5267 -0.2097 -0.3853
  103MOL0     O13488   1.997   8.043  10.191 -0.0275 -0.9417  0.7358
  103MOL0     C13489   1.875   8.009  10.245 -0.9149 -0.0465  0.2215
  103MOL0     C13490   1.810   7.883  10.240 -0.1030  0.7405 -0.1076
  103MOL0     C13491   1.702   7.848  10.318  0.9568  0.0881 -0.1918
  103MOL0     C13492   1.627   7.954  10.370  0.1637 -0.8269 -0.4415
  103MOL0     C13493   1.498   7.921  10.428 -0.4648 -0.0629  0.2343
  103MOL0     O13494   1.453   7.780  10.416  0.6235 -0.2005  0.2667
  103MOL0     C13495   1.323   7.750  10.439  0.3218 -0.5558 -0.6602
  103MOL0     C13496   1.233   7.712  10.340 -0.5318  0.0368 -0.5228
  103MOL0     C13497   1.107   7.668  10.364  1.0879  0.4074  0.0778
  103MOL0     C13498   1.062   7.662  10.496  0.2240  0.1706 -0.9193
  103MOL0     O13499   0.931   7.612  10.517  0.2801 -0.2835 -0.3181
  103MOL0     C13500   0.914   7.530  10.628 -0.2326  0.6738 -0.6987
  103MOL0     C13501   0.790   7.445  10.609 -0.6882  0.2033 -0.2973
  103MOL0     C13502   0.680   7.536  10.563  0.3859  0.3042  0.2902
  103MOL0     C13503   0.533   7.482  10.581  0.8864  0.4338 -0.0213
  103MOL0     C13504   0.428   7.575  10.523 -0.3360 -0.8151  0.5047
  103MOL0     C13505   0.414   7.580  10.366 -0.3674  0.2001 -0.0956
  103MOL0     C13506   0.311   7.671  10.311  0.8304 -0.7583  0.5647
  103MOL0     C13507   0.178   7.602  10.310 -0.2706 -0.2786 -0.7690
  103MOL0    Cl13508   0.050   7.723  10.283  0.3221  0.5145  0.2215
  103MOL0     C13509   1.155   7.686  10.597  0.4068 -0.2250 -0.3366
  103MOL0     C13510   1.279   7.746  10.568 -0.1150  0.0460 -0.2349
  103MOL0     O13511   1.430   8.008  10.472  0.1532 -0.3923 -0.6919
  103MOL0     C13512   1.689   8.081  10.382 -0.4522 -1.0102  0.4888
  103MOL0     C13513   1.812   8.105  10.316  0.7799  0.1659  0.8708
  103MOL0     N13514   2.382   8.137  10.567 -0.2652  0.3811 -0.1719
  103MOL0     N13515   2.496   8.141  10.636  0.1649 -0.5263  0.1736
  103MOL0     C13516   2.893   8.585  10.143  0.3009 -0.5502  0.1225
  103MOL0     C13517   2.768   8.583  10.197  0.5227 -0.2356 -0.0165
  103MOL0     C13518   2.441   8.593  10.450 -0.4230 -0.6445  0.4495
  103MOL0     C13519   2.402   8.503  10.550 -1.2101 -0.4265 -0.4192
  103MOL0     C13520   2.272   8.480  10.588  0.0623 -0.1702 -0.2610
  103MOL0     C13521   2.159   8.556  10.523  0.7163  1.1855 -0.8282
  103MOL0     O13522   2.028   8.532  10.550  0.0081  0.5269  0.1060
  103MOL0     C13523   1.991   8.434  10.650  0.2672 -0.5267  1.0014
  103MOL0     C13524   2.028   8.292  10.595  0.1022  0.0874  0.2880
  103MOL0     C13525   1.944   8.180  10.647  0.4546  0.8135 -0.2597
  103MOL0     C13526   1.996   8.042  10.608 -0.0529  0.7322 -0.5933
  103MOL0     C13527   1.896   7.947  10.644 -0.1987 -0.6564  0.3448
  103MOL0     C13528   1.809   7.863  10.670  0.7818  0.5402 -0.6747
  103MOL0     C13529   2.201   8.645  10.423 -0.6867 -0.0408  0.4076
  103MOL0     C13530   2.334   8.663  10.389  0.3157  0.1625  0.2772
  103MOL0     H13531   2.777   8.890  10.342  0.1068 -1.4251  3.1712
  103MOL0     H13532   2.999   8.893  10.221 -1.1344  0.7943  1.6516
  103MOL0     H13533   3.284   8.558  10.109  0.5787  0.2068  0.0514
  103MOL0     H13534   3.120   8.481  10.120 -1.6542  1.4693  0.2290
  103MOL0     H13535   3.115   8.571  10.365 -0.0828  0.5710  1.4647
  103MOL0     H13536   3.276   8.609  10.354  0.3083  0.6503 -1.9333
  103MOL0     H13537   3.336   8.395  10.369  0.7241  4.1088 -1.7639
  103MOL0     H13538   3.230   8.325  10.261  2.3042 -2.1395  1.5411
  103MOL0     H13539   3.174   8.224  10.470  0.4914  0.3756  2.6687
  103MOL0     H13540   3.177   8.383  10.560 -3.3089  0.0246  1.4054
  103MOL0     H13541   2.980   8.336  10.359 -0.5630  2.8755  0.2196
  103MOL0     H13542   2.962   8.434  10.510  1.2150  0.4159 -0.7752
  103MOL0     H13543   2.942   8.243  10.650 -0.4411 -1.8532 -0.0612
  103MOL0     H13544   2.984   8.140  10.504 -0.4985  0.6513 -3.2765
  103MOL0     H13545   2.739   8.305  10.535  1.9050  0.2518  2.4772
  103MOL0     H13546   2.772   8.185  10.394  0.9334 -3.3138  0.6362
  103MOL0     H13547   2.763   8.092  10.676 -0.8631  2.2750 -0.5195
  103MOL0     H13548   2.784   7.991  10.534  0.8043  1.0255 -2.8780
  103MOL0     H13549   2.584   7.957  10.372  1.0631 -0.3922  0.7218
  103MOL0     H13550   2.240   8.130  10.325  1.7219  0.0120 -1.8345
  103MOL0     H13551   2.209   7.978  10.396 -2.3491  2.0532  0.0007
  103MOL0     H13552   2.331   7.863  10.238  0.9240 -1.1926 -0.1674
  103MOL0     H13553   2.424   8.010  10.195  1.2793 -0.8552  3.2376
  103MOL0     H13554   2.217   8.117  10.102  0.6444  0.5172 -1.4341
  103MOL0     H13555   2.264   7.981  10.014  2.1256  1.2848  1.0858
  103MOL0     H13556   2.095   7.865  10.207  0.5110  1.7085  1.7987
  103MOL0     H13557   2.038   7.907  10.039 -1.0443  0.9175 -0.1384
  103MOL0     H13558   1.859   7.794  10.201 -3.8627 -1.7346  0.2621
  103MOL0     H13559   1.659   7.750  10.336 -0.7682  0.1511 -3.2399
  103MOL0     H13560   1.261   7.715  10.235 -2.8743 -2.2140 -1.3309
  103MOL0     H13561   1.037   7.633  10.288  0.0180  2.1340  0.2022
  103MOL0     H13562   0.911   7.591  10.719 -0.3322 -0.2724 -0.0444
  103MOL0     H13563   1.001   7.464  10.618 -0.6162  0.1548 -0.6368
  103MOL0     H13564   0.766   7.393  10.702 -0.1579  1.6422  0.6684
  103MOL0     H13565   0.802   7.370  10.530 -1.5104 -0.5551  0.2826
  103MOL0     H13566   0.705   7.570  10.462 -1.9739  1.4574  0.0186
  103MOL0     H13567   0.677   7.627  10.625 -1.5562 -0.4932  1.4663
  103MOL0     H13568   0.519   7.389  10.523  1.1356 -1.2067  2.4042
  103MOL0     H13569   0.498   7.456  10.681 -3.0900  0.1049 -1.3375
  103MOL0     H13570   0.449   7.678  10.555  1.9000  0.1166 -3.3298
  103MOL0     H13571   0.330   7.542  10.558 -1.7856  0.4235 -2.1056
  103MOL0     H13572   0.408   7.477  10.331 -0.7908 -0.2766  1.3423
  103MOL0     H13573   0.510   7.609  10.321 -0.0255 -2.5764 -1.3639
  103MOL0     H13574   0.300   7.757  10.376  2.1928  1.7469 -2.2717
  103MOL0     H13575   0.340   7.701  10.210 -0.2956  2.1800  1.0242
  103MOL0     H13576   0.162   7.549  10.405  3.6324  1.3576  1.0004
  103MOL0     H13577   0.169   7.526  10.232  0.4544 -0.8650 -0.2913
  103MOL0     H13578   1.118   7.689  10.699 -0.3315 -1.5208 -0.5422
  103MOL0     H13579   1.339   7.778  10.652  2.0159 -1.9981 -0.8687
  103MOL0     H13580   1.631   8.160  10.429  0.6164  1.0706 -1.4359
  103MOL0     H13581   1.856   8.203  10.332  3.5539 -0.7003 -0.8266
  103MOL0     H13582   2.919   8.504  10.076 -1.3489 -1.0220 -0.0028
  103MOL0     H13583   2.692   8.509  10.173  1.2391 -1.7671  2.1694
  103MOL0     H13584   2.480   8.442  10.597 -0.5234 -0.2219 -1.2693
  103MOL0     H13585   2.252   8.414  10.672 -0.8814  0.0073 -0.3319
  103MOL0     H13586   1.884   8.445  10.674  0.6694  0.3011  2.5823
  103MOL0     H13587   2.042   8.459  10.744  2.3346  1.8682 -0.6312
  103MOL0     H13588   2.007   8.289  10.488  0.2228 -0.4539  0.2743
  103MOL0     H13589   2.133   8.262  10.610  0.4418  0.3306 -1.4081
  103MOL0     H13590   1.848   8.203  10.601  0.8189  2.9045 -0.0710
  103MOL0     H13591   1.913   8.186  10.752 -2.0909  0.5737 -0.9365
  103MOL0     H13592   2.002   8.043  10.499  2.9539 -1.3669 -0.5599
  103MOL0     H13593   2.085   8.012  10.664  0.2674  1.9323 -0.4264
  103MOL0     H13594   1.730   7.796  10.695  1.0565  0.1820 -0.7625
  103MOL0     H13595   2.120   8.696  10.372  0.3174 -1.0995 -2.3888
  103MOL0     H13596   2.355   8.736  10.312 -1.2034 -1.0134 -1.3438
  104MOL0     O13597   2.693   5.373   3.717  0.2612  0.4323  0.8608
  104MOL0     C13598   2.711   5.290   3.806  0.3982  0.5077 -0.2092
  104MOL0     O13599   2.629   5.258   3.908  0.3567 -0.0969 -0.1131
  104MOL0     C13600   2.538   5.356   3.958  0.0425 -0.2394 -0.1809
  104MOL0     C13601   2.420   5.317   4.023  0.3756  0.3960 -0.2011
  104MOL0     C13602   2.328   5.413   4.075 -0.0667 -0.1184  0.8774
  104MOL0     C13603   2.358   5.550   4.069 -0.5682 -0.0700 -0.2776
  104MOL0     O13604   2.272   5.623   4.147  1.0294  0.2909 -0.2477
  104MOL0     C13605   2.244   5.751   4.116 -0.2189 -0.5746 -0.8973
  104MOL0     C13606   2.108   5.783   4.176  0.4345 -0.4071  0.6142
  104MOL0     C13607   2.077   5.936   4.153  0.3633  0.3705  0.3414
  104MOL0     C13608   2.163   6.025   4.242 -0.1912 -0.2602  0.6241
  104MOL0     C13609   2.139   6.173   4.217 -0.0894 -0.0400  0.1636
  104MOL0     C13610   2.143   6.220   4.071  0.5151 -0.5455 -0.1868
  104MOL0     C13611   2.164   6.366   4.063  0.2024 -0.5352  0.1893
  104MOL0     C13612   2.125   6.429   3.929  0.1971 -0.1272 -0.1568
  104MOL0     N13613   1.990   6.408   3.879 -0.2193  0.1519 -0.5883
  104MOL0     C13614   1.880   6.378   3.956  0.9908  0.4774 -0.0492
  104MOL0     C13615   1.769   6.396   3.867 -0.6762  0.5815  0.0641
  104MOL0     C13616   1.617   6.396   3.890  0.4994  0.0250 -0.7737
  104MOL0     C13617   1.540   6.267   3.855 -0.6912  0.4763  0.0469
  104MOL0     C13618   1.392   6.311   3.858  0.7624 -0.1813  0.8570
  104MOL0     C13619   1.301   6.196   3.821 -0.1116 -0.0073  0.4070
  104MOL0     O13620   1.170   6.219   3.863  0.1840 -0.0227 -0.5796
  104MOL0     C13621   1.069   6.130   3.834  0.5103 -0.5768 -0.6615
  104MOL0     C13622   0.938   6.158   3.886 -1.5598 -0.2171  0.7938
  104MOL0     C13623   0.825   6.076   3.865  0.1140  0.0044  0.1446
  104MOL0     C13624   0.843   5.953   3.801 -0.5857  0.3207  0.5981
  104MOL0     C13625   0.726   5.861   3.762  0.0083 -0.4124 -0.0837
  104MOL0     O13626   0.608   5.915   3.760  0.2803 -0.0406  0.6221
  104MOL0     C13627   0.490   5.848   3.717  0.6474 -0.2478  0.6869
  104MOL0     C13628   0.366   5.892   3.757 -0.0083 -0.7374  0.6074
  104MOL0     C13629   0.238   5.845   3.710 -0.8966  0.4640 -0.6647
  104MOL0     C13630   0.229   5.727   3.637 -0.1012 -0.0951  0.3467
  104MOL0     O13631   0.106   5.671   3.593 -0.4526 -0.2553 -0.6848
  104MOL0     C13632  -0.015   5.697   3.668  0.4936 -0.5779 -0.6636
  104MOL0     C13633  -0.098   5.570   3.666  0.5407  0.6400 -0.0854
  104MOL0     C13634  -0.233   5.600   3.727  0.1268 -0.0706  0.6478
  104MOL0     C13635  -0.327   5.485   3.713  0.3524 -0.5950  0.2089
  104MOL0     C13636  -0.468   5.524   3.771 -0.2602  0.4680 -0.2877
  104MOL0     C13637  -0.583   5.432   3.730  0.3840  0.1435  0.3348
  104MOL0     C13638  -0.709   5.473   3.808  0.5039 -0.3212  0.1960
  104MOL0     C13639  -0.814   5.366   3.800 -0.1127  0.3852  0.0153
  104MOL0    Cl13640  -0.921   5.393   3.942  0.1630 -0.3394  0.5272
  104MOL0     C13641   0.352   5.671   3.608 -0.0922 -0.2859 -0.0533
  104MOL0     C13642   0.480   5.728   3.643 -0.0322  0.0049 -0.7538
  104MOL0     O13643   0.749   5.745   3.743 -0.2700  0.0743  0.4535
  104MOL0     C13644   0.972   5.912   3.761 -0.7301  0.5137  0.2118
  104MOL0     C13645   1.079   6.001   3.777 -0.1074 -0.2060 -0.9438
  104MOL0     N13646   1.832   6.418   3.744 -0.2881  0.8293  0.4006
  104MOL0     N13647   1.956   6.439   3.757 -0.3994 -0.0553 -0.5275
  104MOL0     C13648   2.479   5.592   4.003  0.2616 -0.8080  0.2330
  104MOL0     C13649   2.563   5.498   3.956  0.3812  0.7502 -0.4475
  104MOL0     C13650   2.832   5.211   3.805 -0.4848  0.8109 -0.5261
  104MOL0     C13651   2.940   5.238   3.715  0.0206 -1.1470  0.6134
  104MOL0     C13652   3.054   5.161   3.709  0.6379 -0.6393 -0.2771
  104MOL0     C13653   3.077   5.060   3.802  0.3998  0.2810  0.1709
  104MOL0     O13654   3.199   5.001   3.800 -0.0682  0.6520 -0.0544
  104MOL0     C13655   3.235   4.893   3.888 -0.0896  0.3693  0.2836
  104MOL0     C13656   3.376   4.848   3.868 -0.5257 -0.1477  0.3468
  104MOL0     C13657   3.486   4.946   3.921  0.1747  0.1757 -0.8081
  104MOL0     C13658   3.630   4.923   3.880 -0.4932 -0.3538  0.3161
  104MOL0     C13659   3.652   4.961   3.735 -0.4714  0.5075 -0.5616
  104MOL0     C13660   3.676   4.975   3.621 -0.2685  0.5895  0.1295
  104MOL0     C13661   2.971   5.023   3.886 -0.1341 -0.6456 -0.2494
  104MOL0     C13662   2.850   5.092   3.884 -1.0391  0.6199 -0.4435
  104MOL0     H13663   2.394   5.212   4.034 -0.6706  0.6978  0.3470
  104MOL0     H13664   2.230   5.375   4.100  0.1421 -3.3569 -2.2965
  104MOL0     H13665   2.249   5.761   4.008 -1.4821 -1.8568 -1.1015
  104MOL0     H13666   2.315   5.815   4.168 -1.0742 -1.1742  1.1277
  104MOL0     H13667   2.102   5.773   4.285 -3.8033  0.4496  0.6422
  104MOL0     H13668   2.032   5.730   4.118 -0.2393  0.6941  0.4636
  104MOL0     H13669   1.971   5.940   4.179  0.7551  1.8058  1.9456
  104MOL0     H13670   2.085   5.962   4.047 -1.1433 -1.9957 -0.4374
  104MOL0     H13671   2.151   6.003   4.349 -0.7159 -4.3030 -0.1101
  104MOL0     H13672   2.271   6.020   4.226 -0.1856  1.2133  0.0950
  104MOL0     H13673   2.212   6.228   4.277  0.8485  1.2401 -2.0143
  104MOL0     H13674   2.040   6.189   4.260 -1.5304  1.4234 -3.2535
  104MOL0     H13675   2.055   6.195   4.010 -0.4897  0.7072  0.6751
  104MOL0     H13676   2.227   6.165   4.028 -0.4848 -1.3323 -1.2064
  104MOL0     H13677   2.098   6.412   4.137 -0.4160  1.0846 -1.3070
  104MOL0     H13678   2.265   6.401   4.086 -0.0654  1.5126 -1.3986
  104MOL0     H13679   2.189   6.381   3.855  0.0715  0.9900 -1.0153
  104MOL0     H13680   2.159   6.533   3.924  0.7894 -0.1986  1.7209
  104MOL0     H13681   1.867   6.342   4.058 -1.7490 -0.6188 -0.7081
  104MOL0     H13682   1.568   6.481   3.842 -1.8861 -2.0523 -2.2552
  104MOL0     H13683   1.593   6.416   3.995 -1.5319 -2.0363 -0.7520
  104MOL0     H13684   1.540   6.199   3.941 -5.4354 -0.5473 -0.4690
  104MOL0     H13685   1.568   6.216   3.763 -4.1864  0.1034 -0.9299
  104MOL0     H13686   1.368   6.345   3.959 -1.7917  1.0752 -0.0892
  104MOL0     H13687   1.374   6.387   3.781  2.9996  0.7351  1.1738
  104MOL0     H13688   1.328   6.100   3.867 -2.5570 -0.6082  0.7653
  104MOL0     H13689   1.304   6.185   3.712 -2.1484  2.5628 -0.0198
  104MOL0     H13690   0.925   6.261   3.916 -1.9086  0.3687 -1.2039
  104MOL0     H13691   0.728   6.109   3.902  0.0072  3.6947 -2.9372
  104MOL0     H13692   0.373   5.980   3.820  3.0724  0.6466 -1.3913
  104MOL0     H13693   0.154   5.909   3.735  0.1888  1.5169  0.4105
  104MOL0     H13694  -0.072   5.776   3.619  0.2612 -0.6651 -0.5346
  104MOL0     H13695  -0.004   5.725   3.773 -0.4037  1.8259 -1.1532
  104MOL0     H13696  -0.052   5.490   3.725  3.2463 -0.9868 -3.9899
  104MOL0     H13697  -0.105   5.524   3.567 -1.0879  2.2187 -0.7444
  104MOL0     H13698  -0.265   5.690   3.673  1.2891  0.1999  0.3951
  104MOL0     H13699  -0.216   5.644   3.826  0.3078  0.7743  0.2519
  104MOL0     H13700  -0.349   5.458   3.609 -3.2990 -2.2984  1.2655
  104MOL0     H13701  -0.280   5.401   3.764  3.0030  1.9925  2.3788
  104MOL0     H13702  -0.493   5.617   3.719 -1.4718  0.1368 -0.3317
  104MOL0     H13703  -0.447   5.536   3.878  1.4334  0.7783 -0.6234
  104MOL0     H13704  -0.548   5.329   3.742 -2.6521 -0.8653  1.2668
  104MOL0     H13705  -0.600   5.448   3.623  0.6273  1.2095  0.4396
  104MOL0     H13706  -0.691   5.508   3.910 -0.2247 -2.0166  0.9463
  104MOL0     H13707  -0.754   5.558   3.755 -1.8639 -1.0639  0.9102
  104MOL0     H13708  -0.764   5.269   3.804 -0.0971  0.4237  1.0023
  104MOL0     H13709  -0.870   5.361   3.706 -1.1661  3.0110  0.4071
  104MOL0     H13710   0.340   5.587   3.540  4.3718  0.7924 -2.5607
  104MOL0     H13711   0.573   5.681   3.613 -0.5297 -0.8388 -1.0055
  104MOL0     H13712   0.990   5.820   3.706  2.0492  1.2757 -0.2854
  104MOL0     H13713   1.178   5.971   3.745  1.8728  0.3433  3.8702
  104MOL0     H13714   2.510   5.696   4.001  0.6873 -0.8511 -4.1481
  104MOL0     H13715   2.655   5.533   3.911  1.4207  0.0536  1.0531
  104MOL0     H13716   2.932   5.311   3.636  0.8501 -0.1269  1.4518
  104MOL0     H13717   3.133   5.182   3.638  0.4890 -1.5798 -0.7421
  104MOL0     H13718   3.173   4.808   3.858  0.1502 -0.4250  1.9427
  104MOL0     H13719   3.220   4.933   3.988 -0.5480  2.7320 -0.6741
  104MOL0     H13720   3.393   4.757   3.927  1.3822  0.1332  0.2644
  104MOL0     H13721   3.401   4.831   3.763  3.0006 -0.4909  1.1159
  104MOL0     H13722   3.489   4.945   4.030 -1.0633  0.8483 -0.7468
  104MOL0     H13723   3.453   5.047   3.894 -1.5049  0.0600  0.5815
  104MOL0     H13724   3.690   4.997   3.934 -1.3589  1.1289 -0.6978
  104MOL0     H13725   3.669   4.822   3.899  2.6850  0.2556 -2.1858
  104MOL0     H13726   3.710   4.992   3.520  0.2076  2.4289  0.5656
  104MOL0     H13727   2.990   4.935   3.947 -1.5615 -1.1862 -0.5333
  104MOL0     H13728   2.777   5.060   3.957 -1.0406 -1.7756 -1.4162
  105MOL0     O13729   3.072   2.675   5.798 -0.2159 -0.4947 -0.3023
  105MOL0     C13730   3.154   2.711   5.880  0.2090 -0.0260 -0.6258
  105MOL0     O13731   3.125   2.762   6.004 -0.2108 -0.0503 -1.0952
  105MOL0     C13732   2.991   2.786   6.035  0.2777  0.5087 -0.2518
  105MOL0     C13733   2.937   2.737   6.157 -0.1968  0.7310 -0.0310
  105MOL0     C13734   2.807   2.781   6.202  0.6372 -0.0281  0.1005
  105MOL0     C13735   2.725   2.853   6.116 -0.5769 -0.4269 -0.3181
  105MOL0     O13736   2.599   2.884   6.162  0.4075  0.5570 -0.1312
  105MOL0     C13737   2.507   2.965   6.099  0.3567  0.9035  0.1154
  105MOL0     C13738   2.409   3.007   6.210  0.1994  0.1809  0.1313
  105MOL0     C13739   2.300   3.096   6.158  0.0884 -0.0198  0.6527
  105MOL0     C13740   2.193   3.133   6.256  0.0422 -0.6635 -0.1851
  105MOL0     C13741   2.142   3.281   6.233 -0.4623 -0.0317  0.7607
  105MOL0     C13742   1.996   3.295   6.278  1.0395  0.2473 -0.2816
  105MOL0     C13743   1.985   3.308   6.431 -0.2514 -0.0319 -1.2269
  105MOL0     C13744   1.843   3.359   6.481 -0.2052 -0.0288 -0.1158
  105MOL0     N13745   1.738   3.263   6.462  0.1466 -0.9312 -0.6148
  105MOL0     C13746   1.707   3.145   6.517 -0.0566  0.4250  0.8875
  105MOL0     C13747   1.607   3.101   6.446  0.0861  0.8810  0.0510
  105MOL0     C13748   1.533   2.969   6.460  0.7544 -0.8542  0.2878
  105MOL0     C13749   1.404   2.983   6.541 -0.1343 -0.4859 -0.0266
  105MOL0     C13750   1.317   3.097   6.489 -0.7181  0.7960  0.0171
  105MOL0     C13751   1.179   3.059   6.533 -0.1438 -0.7756  0.5381
  105MOL0     O13752   1.088   3.159   6.502 -0.4074  1.1467  0.2855
  105MOL0     C13753   0.956   3.135   6.537  0.2236  0.4737  0.4311
  105MOL0     C13754   0.896   3.020   6.585 -0.2728 -0.0898 -0.4034
  105MOL0     C13755   0.765   3.018   6.631 -0.3412 -0.0023 -0.5728
  105MOL0     C13756   0.683   3.123   6.601  0.9462 -0.5925  0.3058
  105MOL0     C13757   0.534   3.125   6.623  0.2323  0.1793 -0.1253
  105MOL0     O13758   0.460   3.235   6.595  0.3430 -0.9129  0.0844
  105MOL0     C13759   0.323   3.243   6.623 -0.3316 -0.2075 -0.5831
  105MOL0     C13760   0.269   3.215   6.747 -0.2169  0.0927  0.1270
  105MOL0     C13761   0.131   3.219   6.765 -0.2278  1.1421  0.1537
  105MOL0     C13762   0.044   3.236   6.666 -0.2025  0.4300 -0.3409
  105MOL0     O13763  -0.091   3.244   6.707 -0.6736  0.0371 -0.4471
  105MOL0     C13764  -0.178   3.346   6.651 -1.2220  0.0779  0.0238
  105MOL0     C13765  -0.316   3.347   6.721  0.4350  0.0290 -0.2648
  105MOL0     C13766  -0.399   3.233   6.653 -0.0346  0.5826 -0.3294
  105MOL0     C13767  -0.528   3.219   6.724  1.1553 -0.9018  0.5462
  105MOL0     C13768  -0.624   3.119   6.655  0.7933 -0.7198 -0.2354
  105MOL0     C13769  -0.743   3.076   6.737 -0.5115 -0.8188  0.2326
  105MOL0     C13770  -0.847   2.993   6.655 -0.3268  0.1642 -0.9430
  105MOL0     C13771  -0.972   2.965   6.739 -0.5306 -0.0917 -0.1070
  105MOL0    Cl13772  -1.076   2.846   6.647  0.2689  0.0503  0.0965
  105MOL0     C13773   0.100   3.269   6.537 -0.5389 -0.2368  0.5019
  105MOL0     C13774   0.234   3.269   6.519 -1.0182 -0.3022 -0.3824
  105MOL0     O13775   0.481   3.020   6.668 -0.2971 -0.4120 -0.0532
  105MOL0     C13776   0.740   3.247   6.558  0.7709  0.1153  0.0247
  105MOL0     C13777   0.873   3.249   6.534 -0.0226  0.1028  0.6370
  105MOL0     N13778   1.559   3.194   6.360  0.2206 -0.2025 -0.6596
  105MOL0     N13779   1.646   3.289   6.363 -0.4484 -0.2432  0.2054
  105MOL0     C13780   2.773   2.879   5.984 -0.4634 -0.2766 -0.2585
  105MOL0     C13781   2.909   2.872   5.953  0.5421 -0.5626 -1.2954
  105MOL0     C13782   3.299   2.699   5.840 -0.3598 -0.3797  0.3225
  105MOL0     C13783   3.402   2.773   5.909  0.5591 -0.1060  0.0160
  105MOL0     C13784   3.530   2.764   5.855  0.9240  0.0806 -0.2167
  105MOL0     C13785   3.563   2.686   5.749 -0.9686  0.5832 -0.3987
  105MOL0     O13786   3.699   2.689   5.707 -0.0997  0.1712 -0.9232
  105MOL0     C13787   3.735   2.652   5.575 -0.2405  0.3703  0.4324
  105MOL0     C13788   3.822   2.772   5.515 -1.6095  0.1828  0.0258
  105MOL0     C13789   3.860   2.773   5.366  0.7552  0.3478 -0.2381
  105MOL0     C13790   3.933   2.650   5.300 -0.7815 -0.1592 -0.6017
  105MOL0     C13791   4.078   2.661   5.314 -0.3137  0.9452 -0.7107
  105MOL0     C13792   4.199   2.658   5.314  0.1487  0.1673  0.4886
  105MOL0     C13793   3.462   2.605   5.686  0.0319  0.7131 -0.0224
  105MOL0     C13794   3.329   2.620   5.729  0.7593 -0.4934  0.7717
  105MOL0     H13795   2.993   2.664   6.215  1.7042  1.0078 -1.4153
  105MOL0     H13796   2.760   2.736   6.289 -2.3358 -0.6550 -1.6819
  105MOL0     H13797   2.441   2.913   6.030  1.5740 -1.1625  0.4169
  105MOL0     H13798   2.561   3.046   6.050  1.3732  0.4242  0.4037
  105MOL0     H13799   2.460   3.049   6.296 -2.3536  0.9718  1.3795
  105MOL0     H13800   2.355   2.919   6.248  1.7532 -0.0010  2.0299
  105MOL0     H13801   2.256   3.034   6.080  1.0928  1.8145 -1.4978
  105MOL0     H13802   2.347   3.186   6.117  0.1580  0.0556  0.8943
  105MOL0     H13803   2.109   3.063   6.248 -2.3925  1.9924  0.5050
  105MOL0     H13804   2.235   3.128   6.357 -0.1111  2.9274  0.1941
  105MOL0     H13805   2.147   3.300   6.125  0.4542 -0.3142  0.7484
  105MOL0     H13806   2.205   3.352   6.287 -1.2179  1.6759 -0.5047
  105MOL0     H13807   1.934   3.217   6.233  0.8863 -0.9412  1.8419
  105MOL0     H13808   1.952   3.385   6.235 -2.3874 -0.6996  0.8649
  105MOL0     H13809   2.012   3.209   6.469 -2.9359 -1.9499 -3.8533
  105MOL0     H13810   2.062   3.382   6.456 -0.8964  0.4553 -0.6511
  105MOL0     H13811   1.824   3.457   6.437  0.6657 -1.2661 -3.6174
  105MOL0     H13812   1.845   3.384   6.587 -1.7672  3.3515 -0.7653
  105MOL0     H13813   1.759   3.081   6.589 -1.9903 -2.3956 -0.0387
  105MOL0     H13814   1.596   2.893   6.507  1.6455 -0.3809 -0.1362
  105MOL0     H13815   1.505   2.951   6.356  1.8774  0.3995 -0.2594
  105MOL0     H13816   1.426   3.003   6.646 -1.9364 -1.4187  0.5852
  105MOL0     H13817   1.351   2.888   6.526 -3.4855  0.9409  1.6025
  105MOL0     H13818   1.338   3.198   6.527  1.0622  1.1954 -1.8557
  105MOL0     H13819   1.313   3.103   6.379 -1.1102  0.4465  0.0111
  105MOL0     H13820   1.170   3.048   6.641  1.1566  0.0907  0.7562
  105MOL0     H13821   1.154   2.961   6.491 -0.0443 -0.6360  0.1472
  105MOL0     H13822   0.945   2.923   6.592 -1.3172 -0.7774 -2.0206
  105MOL0     H13823   0.716   2.929   6.670 -0.8348  1.0080  1.1944
  105MOL0     H13824   0.329   3.184   6.832  1.0113 -1.8581 -1.3618
  105MOL0     H13825   0.086   3.210   6.864 -0.7065 -1.1557 -0.2167
  105MOL0     H13826  -0.180   3.317   6.545 -1.8040  0.0809  0.0302
  105MOL0     H13827  -0.128   3.443   6.659  0.1952 -0.7513  1.9902
  105MOL0     H13828  -0.363   3.446   6.718  3.4264  1.5764 -0.1843
  105MOL0     H13829  -0.300   3.324   6.827 -1.7631  1.5440  0.4679
  105MOL0     H13830  -0.338   3.143   6.664  1.1165  1.3333 -0.4517
  105MOL0     H13831  -0.416   3.258   6.547  1.5234  2.0753 -0.2681
  105MOL0     H13832  -0.516   3.186   6.827  0.9102 -1.9484  0.2440
  105MOL0     H13833  -0.571   3.319   6.735 -0.0561 -1.0459 -2.0701
  105MOL0     H13834  -0.576   3.024   6.633 -0.8795 -2.0727  1.5119
  105MOL0     H13835  -0.650   3.164   6.559 -0.2781 -0.9333 -0.0654
  105MOL0     H13836  -0.793   3.166   6.774 -0.9204  0.1270 -2.4015
  105MOL0     H13837  -0.701   3.023   6.824  0.4508 -0.4113  0.0337
  105MOL0     H13838  -0.867   3.050   6.564 -2.1470  1.3921  0.1522
  105MOL0     H13839  -0.791   2.903   6.627  2.9823  2.4939 -2.4565
  105MOL0     H13840  -1.025   3.061   6.747  1.0215  1.5839 -5.4759
  105MOL0     H13841  -0.932   2.932   6.835  2.2871  1.8687 -0.4702
  105MOL0     H13842   0.034   3.282   6.452  0.4464 -2.6262 -0.7189
  105MOL0     H13843   0.271   3.278   6.417  2.0198 -2.0006  0.4529
  105MOL0     H13844   0.679   3.335   6.544  0.3751 -0.2257 -0.4177
  105MOL0     H13845   0.908   3.345   6.497 -2.9010  1.1471  0.3534
  105MOL0     H13846   2.708   2.938   5.920 -1.6488  0.9633  1.9814
  105MOL0     H13847   2.950   2.928   5.869  2.2201  3.3571  1.8382
  105MOL0     H13848   3.389   2.828   6.001  4.4466 -1.7328  1.7421
  105MOL0     H13849   3.613   2.823   5.894  1.4780  0.7631 -2.3078
  105MOL0     H13850   3.651   2.645   5.504  1.2031  1.5985 -1.5093
  105MOL0     H13851   3.793   2.560   5.584 -0.6257  0.1882  1.1124
  105MOL0     H13852   3.763   2.864   5.525 -1.5682  0.0002  2.5476
  105MOL0     H13853   3.909   2.786   5.580  0.4507  2.7111 -2.9313
  105MOL0     H13854   3.925   2.860   5.350  0.4707  0.7916  0.8979
  105MOL0     H13855   3.767   2.798   5.314 -1.4721  1.2376  3.7412
  105MOL0     H13856   3.900   2.560   5.353  1.2792  0.5310  2.0717
  105MOL0     H13857   3.911   2.637   5.194  2.6991  0.8601 -1.5750
  105MOL0     H13858   4.306   2.657   5.315  0.3628 -1.3424 -3.6130
  105MOL0     H13859   3.490   2.557   5.593  1.1440  2.6874 -0.7418
  105MOL0     H13860   3.254   2.565   5.673  2.0609  1.5493 -3.3817
  106MOL0     O13861   2.588   1.424  10.630  0.6085  1.1229  0.0520
  106MOL0     C13862   2.638   1.502  10.551  0.8013 -0.0064  0.2341
  106MOL0     O13863   2.567   1.573  10.454  0.3204  0.1993 -0.4568
  106MOL0     C13864   2.436   1.579  10.433 -0.4682  0.0050  0.3208
  106MOL0     C13865   2.412   1.650  10.318  0.4637  0.3650  0.6355
  106MOL0     C13866   2.283   1.671  10.283 -0.3761  0.2442 -0.2692
  106MOL0     C13867   2.176   1.614  10.346 -0.3150 -0.3587  0.0340
  106MOL0     O13868   2.047   1.642  10.304 -0.1513 -0.1234  0.5217
  106MOL0     C13869   1.936   1.561  10.344  0.4322  0.5532 -0.2552
  106MOL0     C13870   1.874   1.521  10.214  0.0587  0.0200  0.7422
  106MOL0     C13871   1.737   1.447  10.230 -0.6004  0.8017 -0.2686
  106MOL0     C13872   1.622   1.544  10.246  0.3605  0.2400 -0.5462
  106MOL0     C13873   1.482   1.491  10.273  0.0123  0.2709  0.5981
  106MOL0     C13874   1.470   1.416  10.404  0.0168  0.2061 -0.5486
  106MOL0     C13875   1.329   1.364  10.452  0.9109 -0.7493  0.3071
  106MOL0     C13876   1.343   1.274  10.580  0.7729 -0.0656 -0.1780
  106MOL0     N13877   1.209   1.239  10.645 -0.8833 -0.1577 -0.2794
  106MOL0     C13878   1.139   1.134  10.608  0.9998 -0.3628  0.2424
  106MOL0     C13879   1.024   1.153  10.672 -0.1735  0.3918  0.1629
  106MOL0     C13880   0.911   1.057  10.670  0.9398  0.9280 -0.4308
  106MOL0     C13881   0.941   0.910  10.712  0.2402  0.3990  0.1289
  106MOL0     C13882   1.006   0.893  10.844 -0.8196  0.1263  0.3256
  106MOL0     C13883   0.913   0.920  10.960  0.7820  0.1753  0.2910
  106MOL0     O13884   0.988   0.905  11.081  0.2330  0.6068 -1.0080
  106MOL0     C13885   0.923   0.852  11.188 -0.0244 -0.0531 -0.0524
  106MOL0     C13886   0.786   0.875  11.217  0.3407 -0.2987 -0.0042
  106MOL0     C13887   0.719   0.827  11.332  0.4306  0.2359 -0.0077
  106MOL0     C13888   0.794   0.737  11.419 -0.2710  0.1849  0.0923
  106MOL0     C13889   0.732   0.687  11.545  1.1380 -0.2273 -0.0259
  106MOL0     O13890   0.809   0.644  11.648  0.4556 -0.3080 -0.1460
  106MOL0     C13891   0.755   0.595  11.766 -0.5618 -0.0972 -1.1363
  106MOL0     C13892   0.809   0.634  11.891 -0.0064  0.6987  0.0324
  106MOL0     C13893   0.758   0.574  12.016 -0.1179 -0.4171 -0.2426
  106MOL0     C13894   0.629   0.516  12.013 -1.0042  0.4419  0.5731
  106MOL0     O13895   0.554   0.472  12.114  0.2881 -0.0342  0.5978
  106MOL0     C13896   0.572   0.543  12.236 -0.9923 -0.4024 -0.2125
  106MOL0     C13897   0.475   0.487  12.341  0.6505  0.2964  0.0094
  106MOL0     C13898   0.330   0.497  12.297  0.5307  0.5501  0.1592
  106MOL0     C13899   0.237   0.417  12.399 -1.3110 -0.2686  0.0364
  106MOL0     C13900   0.087   0.433  12.372  0.1824 -0.4176 -0.6967
  106MOL0     C13901   0.031   0.348  12.245 -0.3735  0.0602 -0.3316
  106MOL0     C13902  -0.052   0.228  12.291  0.1896 -0.0247  0.1685
  106MOL0     C13903  -0.131   0.175  12.170 -0.6728 -0.5277  0.5711
  106MOL0    Cl13904  -0.027   0.104  12.049  0.2259  0.0886  0.1357
  106MOL0     C13905   0.583   0.483  11.888 -0.3425 -0.3415 -0.2050
  106MOL0     C13906   0.645   0.519  11.765  0.3518  0.7487  0.2214
  106MOL0     O13907   0.609   0.710  11.549 -0.5334 -0.8337 -0.6315
  106MOL0     C13908   0.934   0.714  11.391  0.0518 -0.0597 -0.0110
  106MOL0     C13909   0.992   0.773  11.275 -0.0588  0.0548 -0.5205
  106MOL0     N13910   1.022   1.266  10.749 -0.2722  0.1168 -0.6941
  106MOL0     N13911   1.138   1.322  10.722  0.1044 -0.0748  0.1378
  106MOL0     C13912   2.199   1.563  10.472 -0.8141 -0.3555 -0.0361
  106MOL0     C13913   2.331   1.537  10.515  0.3227  0.3868  0.3038
  106MOL0     C13914   2.783   1.517  10.549 -0.1257  0.1517 -0.0700
  106MOL0     C13915   2.839   1.624  10.472 -0.0072 -0.3283 -1.0034
  106MOL0     C13916   2.977   1.646  10.459 -1.0760  0.5525 -0.6287
  106MOL0     C13917   3.060   1.557  10.524  0.4239 -0.8353  0.6689
  106MOL0     O13918   3.191   1.572  10.495 -0.1929 -0.5127 -0.8626
  106MOL0     C13919   3.287   1.470  10.540  0.6310 -0.6744 -0.2640
  106MOL0     C13920   3.423   1.495  10.482 -0.1716  0.6078 -0.2906
  106MOL0     C13921   3.491   1.622  10.542  0.8208 -0.6417  0.2282
  106MOL0     C13922   3.597   1.678  10.447 -0.1138 -0.1101  0.0947
  106MOL0     C13923   3.716   1.587  10.434  0.4493 -1.1114 -0.1013
  106MOL0     C13924   3.800   1.500  10.437  0.2507 -0.8985  0.8405
  106MOL0     C13925   3.011   1.467  10.609  0.3476 -0.2564  0.0679
  106MOL0     C13926   2.872   1.443  10.625  0.2355 -0.3951 -0.2851
  106MOL0     H13927   2.495   1.691  10.260  1.0077 -3.0890 -1.2924
  106MOL0     H13928   2.264   1.726  10.191 -0.6023 -0.0280 -0.3888
  106MOL0     H13929   1.877   1.625  10.410  2.1961  0.1466  1.8434
  106MOL0     H13930   1.967   1.466  10.389  0.5188 -0.3859 -2.1896
  106MOL0     H13931   1.940   1.457  10.155 -0.1059  0.8734 -0.4005
  106MOL0     H13932   1.856   1.614  10.159  4.5878  0.4247 -0.4678
  106MOL0     H13933   1.748   1.389  10.322 -0.5501  1.1465 -0.0537
  106MOL0     H13934   1.725   1.392  10.136  0.8201  3.3556 -2.0738
  106MOL0     H13935   1.643   1.611  10.330  1.3471  0.3862 -0.8976
  106MOL0     H13936   1.620   1.592  10.148  1.4337 -0.9969 -1.1908
  106MOL0     H13937   1.456   1.415  10.199  1.0191  0.8146 -0.3450
  106MOL0     H13938   1.408   1.571  10.268  0.2086  0.4188 -0.0561
  106MOL0     H13939   1.507   1.478  10.486  1.6509  2.6578 -2.9326
  106MOL0     H13940   1.535   1.328  10.398 -0.3593 -0.0856 -0.3899
  106MOL0     H13941   1.264   1.448  10.476  0.2762 -0.2605 -2.7588
  106MOL0     H13942   1.286   1.303  10.372 -1.4258  1.6039 -0.3312
  106MOL0     H13943   1.411   1.308  10.659  1.7879 -2.8211  0.2326
  106MOL0     H13944   1.395   1.184  10.547  1.0359  0.0256 -0.0171
  106MOL0     H13945   1.168   1.046  10.552  0.0155 -0.2777 -0.4401
  106MOL0     H13946   0.887   1.034  10.566 -0.6035 -0.7083  0.2357
  106MOL0     H13947   0.823   1.097  10.722  3.0166  2.0663  2.4815
  106MOL0     H13948   1.011   0.862  10.642  0.6931  0.4270  0.5602
  106MOL0     H13949   0.848   0.855  10.695  1.7674 -1.4435 -3.5537
  106MOL0     H13950   1.052   0.794  10.855 -0.6124  0.3717  2.0101
  106MOL0     H13951   1.082   0.971  10.846 -1.0581  0.3889 -0.4868
  106MOL0     H13952   0.833   0.846  10.961  1.7943 -0.9677  1.8178
  106MOL0     H13953   0.870   1.021  10.958  2.5183  1.0045  1.5390
  106MOL0     H13954   0.726   0.933  11.148 -2.6064 -2.0751  0.9084
  106MOL0     H13955   0.619   0.857  11.360  0.2278  0.2423 -0.7063
  106MOL0     H13956   0.901   0.692  11.892 -0.6429  2.2648 -4.6616
  106MOL0     H13957   0.827   0.579  12.100  1.1985  0.5554 -1.3439
  106MOL0     H13958   0.566   0.651  12.221  0.1093 -0.0827  1.4171
  106MOL0     H13959   0.676   0.529  12.265 -0.3314  2.3188 -0.9497
  106MOL0     H13960   0.497   0.526  12.441 -0.0888  1.3674 -0.2292
  106MOL0     H13961   0.490   0.379  12.340  0.9145  0.1715  3.7680
  106MOL0     H13962   0.318   0.454  12.197  1.0337 -0.0575  0.3535
  106MOL0     H13963   0.289   0.598  12.291 -1.7504 -0.3859 -1.4638
  106MOL0     H13964   0.257   0.310  12.409 -0.5766 -0.0488  1.0110
  106MOL0     H13965   0.264   0.456  12.497  0.9336  0.5392 -0.8375
  106MOL0     H13966   0.066   0.540  12.357 -2.8533 -1.2155 -3.1567
  106MOL0     H13967   0.031   0.404  12.461  0.0781 -1.6480 -1.1499
  106MOL0     H13968   0.118   0.324  12.183  1.2199  2.5372  0.8029
  106MOL0     H13969  -0.036   0.410  12.185 -0.1298  0.6980  0.0482
  106MOL0     H13970   0.017   0.152  12.329  2.6028  0.8965 -2.1214
  106MOL0     H13971  -0.123   0.269  12.363 -0.7929 -0.9718 -0.2375
  106MOL0     H13972  -0.187   0.255  12.121 -2.2478 -1.7922  0.2167
  106MOL0     H13973  -0.201   0.096  12.199 -2.9000 -0.3066 -3.3962
  106MOL0     H13974   0.494   0.420  11.888 -0.8339  0.2235  2.7430
  106MOL0     H13975   0.590   0.492  11.675 -1.7026  0.3742  1.5116
  106MOL0     H13976   1.003   0.657  11.453  0.7752 -1.6125 -2.1249
  106MOL0     H13977   1.097   0.752  11.254  0.0938  1.5522 -1.4444
  106MOL0     H13978   2.118   1.573  10.543  0.6513 -0.6833  1.7630
  106MOL0     H13979   2.343   1.486  10.610  1.7323  1.7494  0.8955
  106MOL0     H13980   2.772   1.678  10.406  0.9058  0.7127 -1.1022
  106MOL0     H13981   3.010   1.723  10.389  0.0752  3.7896  3.1206
  106MOL0     H13982   3.251   1.369  10.517 -1.2550  0.5207 -3.0907
  106MOL0     H13983   3.287   1.475  10.649  0.7814  0.8300 -0.3160
  106MOL0     H13984   3.486   1.407  10.495 -0.4218  0.2877 -1.1782
  106MOL0     H13985   3.411   1.509  10.374  2.8161  0.3676 -0.7424
  106MOL0     H13986   3.525   1.613  10.645  0.3547 -1.6988  0.2981
  106MOL0     H13987   3.411   1.698  10.544 -0.0013 -1.4292 -1.1181
  106MOL0     H13988   3.554   1.717  10.354 -0.9588 -1.2062 -0.0002
  106MOL0     H13989   3.620   1.769  10.502 -2.7159  1.2503 -0.8843
  106MOL0     H13990   3.856   1.409  10.441  1.8615  0.0989  2.2069
  106MOL0     H13991   3.080   1.417  10.677  0.6313 -0.9532 -0.7027
  106MOL0     H13992   2.841   1.369  10.698  0.6666 -1.4791 -1.1676
  107MOL0     O13993  10.771   3.793   3.446 -0.0682  0.2968 -0.2018
  107MOL0     C13994  10.785   3.743   3.332  0.2887 -0.2439 -0.4278
  107MOL0     O13995  10.697   3.768   3.230 -0.5104 -0.1988 -0.3121
  107MOL0     C13996  10.582   3.832   3.259 -0.1357 -0.0786 -0.0648
  107MOL0     C13997  10.596   3.973   3.268  0.3531  0.7407 -0.2507
  107MOL0     C13998  10.476   4.040   3.259  0.2933 -0.2312  0.2503
  107MOL0     C13999  10.350   3.981   3.242 -0.0941  0.2205 -0.0347
  107MOL0     O14000  10.247   4.068   3.221  0.1123  0.4324 -0.8632
  107MOL0     C14001  10.113   4.025   3.217 -0.3482 -0.4130  0.1031
  107MOL0     C14002  10.039   4.124   3.119 -1.3625 -0.8863  0.1166
  107MOL0     C14003   9.888   4.148   3.164 -0.7544  0.0219 -0.7336
  107MOL0     C14004   9.798   4.021   3.161  1.1715 -0.2307 -0.3593
  107MOL0     C14005   9.651   4.041   3.146 -0.4048  0.2619  0.0563
  107MOL0     C14006   9.578   3.908   3.115 -0.3425 -0.0483 -0.5435
  107MOL0     C14007   9.432   3.935   3.083 -0.7457 -0.1208 -0.1382
  107MOL0     C14008   9.385   3.813   2.995  0.5930  0.0003 -0.0851
  107MOL0     N14009   9.247   3.841   2.949 -0.4253 -0.9180  0.2777
  107MOL0     C14010   9.203   3.799   2.824  0.0649  0.3781  0.0468
  107MOL0     C14011   9.077   3.845   2.801  0.4857 -0.6014 -0.0370
  107MOL0     C14012   8.987   3.843   2.684 -0.7753 -0.1112 -0.3969
  107MOL0     C14013   8.838   3.858   2.706 -0.7407 -0.0353  0.1107
  107MOL0     C14014   8.770   3.723   2.746  0.1650 -1.2002 -0.2456
  107MOL0     C14015   8.620   3.753   2.765 -0.4873 -0.3423  0.1212
  107MOL0     O14016   8.558   3.740   2.637 -0.0247 -0.4869  0.3195
  107MOL0     C14017   8.426   3.716   2.625  1.1100  0.7650  0.6191
  107MOL0     C14018   8.382   3.708   2.490  0.1102 -0.1453 -0.2172
  107MOL0     C14019   8.240   3.701   2.465  0.2885  0.1148  0.4474
  107MOL0     C14020   8.146   3.700   2.566 -0.0993 -0.5369 -0.0760
  107MOL0     C14021   7.999   3.704   2.530 -0.3044 -0.1634 -0.1819
  107MOL0     O14022   7.923   3.746   2.639  0.3823  0.0272  0.2734
  107MOL0     C14023   7.789   3.740   2.646  0.0529 -0.1264 -1.3150
  107MOL0     C14024   7.733   3.831   2.734 -0.4358  0.5425 -0.3161
  107MOL0     C14025   7.582   3.840   2.745 -0.5186 -0.5490  0.7198
  107MOL0     C14026   7.501   3.756   2.656 -0.2468  0.1074  0.4335
  107MOL0     O14027   7.360   3.758   2.656 -0.1797 -0.5095 -0.1110
  107MOL0     C14028   7.288   3.870   2.706  0.1742  0.0125 -0.5828
  107MOL0     C14029   7.136   3.856   2.669  0.4564 -0.0177  1.0689
  107MOL0     C14030   7.056   3.739   2.723  0.1551  0.3126  0.8891
  107MOL0     C14031   7.032   3.738   2.862 -0.2571  0.0602 -0.2827
  107MOL0     C14032   6.941   3.622   2.911 -0.2479  0.3485 -0.1496
  107MOL0     C14033   6.999   3.550   3.033 -1.1045  0.3268 -0.3129
  107MOL0     C14034   6.899   3.430   3.066  0.2754 -0.3108 -0.3768
  107MOL0     C14035   6.936   3.364   3.199  0.1081  0.8623 -0.0175
  107MOL0    Cl14036   6.793   3.261   3.243 -0.2893  0.0825  0.5006
  107MOL0     C14037   7.563   3.667   2.569  1.0744 -0.4552  0.4974
  107MOL0     C14038   7.704   3.657   2.564  0.7923 -0.2556  0.3890
  107MOL0     O14039   7.965   3.689   2.413  0.1710  0.2604  0.0269
  107MOL0     C14040   8.196   3.688   2.697  0.1173 -0.4705 -0.4509
  107MOL0     C14041   8.333   3.701   2.725 -0.4401 -0.6647 -0.4767
  107MOL0     N14042   9.054   3.925   2.917  0.8705  0.1427  0.5536
  107MOL0     N14043   9.150   3.922   2.999  0.1623 -0.2335 -0.1780
  107MOL0     C14044  10.338   3.840   3.248 -0.2115  1.0266  0.3818
  107MOL0     C14045  10.462   3.777   3.236  0.7081  0.0662  0.0206
  107MOL0     C14046  10.914   3.684   3.296 -0.1892 -0.2267 -0.4841
  107MOL0     C14047  11.012   3.658   3.390  0.5363  0.1873  0.0245
  107MOL0     C14048  11.126   3.591   3.355 -0.6099  0.6710  0.4312
  107MOL0     C14049  11.147   3.534   3.227  0.0917 -0.0580  0.7137
  107MOL0     O14050  11.260   3.462   3.204 -0.6370  0.1897  0.1372
  107MOL0     C14051  11.278   3.412   3.068  0.0907  0.2843  0.5397
  107MOL0     C14052  11.413   3.343   3.045  0.2037  0.3063  0.4203
  107MOL0     C14053  11.535   3.436   3.047  0.4583 -0.1155 -0.4607
  107MOL0     C14054  11.666   3.359   3.038  0.7745  0.0124 -0.8523
  107MOL0     C14055  11.691   3.267   3.152  0.5885 -0.5904 -0.8860
  107MOL0     C14056  11.701   3.204   3.254 -0.6076 -0.1326 -0.3616
  107MOL0     C14057  11.047   3.569   3.127 -0.5640  0.4052  0.4446
  107MOL0     C14058  10.934   3.638   3.164 -0.0371  0.3035  0.3428
  107MOL0     H14059  10.693   4.014   3.293 -0.4967  1.8108  1.4473
  107MOL0     H14060  10.475   4.148   3.262 -0.4715 -0.1810 -1.1438
  107MOL0     H14061  10.074   4.035   3.318 -1.1258  3.0252 -0.4248
  107MOL0     H14062  10.091   3.923   3.183  1.1057 -0.8737  0.4624
  107MOL0     H14063  10.043   4.092   3.014  0.1723 -1.7529  0.4042
  107MOL0     H14064  10.093   4.219   3.125  0.8648 -2.0015 -1.0049
  107MOL0     H14065   9.833   4.227   3.111 -1.1498 -0.4915 -1.0954
  107MOL0     H14066   9.883   4.182   3.268 -1.0290 -1.7691 -0.1272
  107MOL0     H14067   9.829   3.976   3.066  1.2299  2.2379 -1.5881
  107MOL0     H14068   9.822   3.959   3.247 -0.7019  0.2888  0.5929
  107MOL0     H14069   9.641   4.110   3.062  2.2197 -1.4239 -1.7665
  107MOL0     H14070   9.613   4.089   3.237  0.4470 -1.0072  1.1140
  107MOL0     H14071   9.578   3.837   3.199 -3.7284 -0.5817 -0.8435
  107MOL0     H14072   9.627   3.859   3.031 -1.6886  0.5070 -1.6882
  107MOL0     H14073   9.370   3.935   3.173 -2.8633 -0.4874 -1.5293
  107MOL0     H14074   9.416   4.031   3.032 -1.6177  0.2395  0.7959
  107MOL0     H14075   9.391   3.721   3.054  2.2543  0.6118  0.7749
  107MOL0     H14076   9.454   3.818   2.911  0.7738  2.4675  0.1228
  107MOL0     H14077   9.256   3.738   2.751  0.0830 -2.2939  2.1294
  107MOL0     H14078   9.005   3.748   2.633  2.9909  0.8434 -1.1079
  107MOL0     H14079   9.019   3.927   2.622  0.5355 -0.2667  0.0426
  107MOL0     H14080   8.802   3.898   2.611  2.0739  0.9069 -0.6719
  107MOL0     H14081   8.826   3.932   2.786 -1.8377  0.8295 -0.8273
  107MOL0     H14082   8.785   3.641   2.675  2.2558 -2.2333  1.2919
  107MOL0     H14083   8.810   3.682   2.839 -0.5869 -0.4250  0.4395
  107MOL0     H14084   8.606   3.860   2.785 -4.3626  0.1238 -3.6209
  107MOL0     H14085   8.581   3.693   2.848  2.8812 -4.5173 -0.9443
  107MOL0     H14086   8.457   3.716   2.411 -1.4016 -0.0804 -1.6941
  107MOL0     H14087   8.212   3.699   2.360  2.3794 -2.1441 -0.1811
  107MOL0     H14088   7.806   3.880   2.797 -1.1801 -1.5400  2.3547
  107MOL0     H14089   7.530   3.907   2.812 -1.4757 -0.0026 -0.5404
  107MOL0     H14090   7.335   3.967   2.683  1.2700  0.0396  1.5899
  107MOL0     H14091   7.300   3.851   2.813  1.8201  0.0678 -0.7261
  107MOL0     H14092   7.143   3.839   2.561  1.7271  4.5565  0.2184
  107MOL0     H14093   7.080   3.948   2.688  2.1820  0.9520  1.6437
  107MOL0     H14094   7.114   3.650   2.699  1.8366  1.2507  1.3169
  107MOL0     H14095   6.965   3.748   2.664  1.7887 -1.7164 -2.2232
  107MOL0     H14096   7.129   3.736   2.912  0.1194  1.1127 -0.9444
  107MOL0     H14097   6.996   3.836   2.894 -0.3317 -0.3369  0.8840
  107MOL0     H14098   6.916   3.552   2.830  1.4681 -0.3572 -0.1060
  107MOL0     H14099   6.848   3.670   2.944 -0.5116  0.1808 -0.6343
  107MOL0     H14100   6.985   3.625   3.111 -6.1507  0.7128 -1.2537
  107MOL0     H14101   7.098   3.506   3.017 -1.4363 -0.3529 -0.5513
  107MOL0     H14102   6.796   3.466   3.080  0.0410 -1.8569  2.8412
  107MOL0     H14103   6.909   3.354   2.988  2.7822  2.1928 -2.7068
  107MOL0     H14104   6.947   3.440   3.276 -1.6136  0.4917  0.6403
  107MOL0     H14105   7.021   3.295   3.193  0.3821  1.1132  0.8916
  107MOL0     H14106   7.498   3.607   2.506  1.3712  0.3614 -0.6145
  107MOL0     H14107   7.749   3.598   2.485  0.8033 -1.9259  1.5866
  107MOL0     H14108   8.121   3.692   2.775 -0.2023 -4.9095 -0.2650
  107MOL0     H14109   8.368   3.699   2.828  1.1527 -0.7889 -1.0056
  107MOL0     H14110  10.241   3.793   3.239  0.1906  0.0748  0.8663
  107MOL0     H14111  10.454   3.670   3.221  0.0275  0.0418  0.4915
  107MOL0     H14112  11.012   3.694   3.492 -0.5158 -0.4091  0.2509
  107MOL0     H14113  11.207   3.583   3.427 -1.4719 -0.0755  1.3447
  107MOL0     H14114  11.264   3.498   3.001 -0.4780  1.2844  1.8981
  107MOL0     H14115  11.199   3.341   3.041 -0.0626 -0.5102  2.8588
  107MOL0     H14116  11.429   3.267   3.122  1.8951  0.0495 -0.1515
  107MOL0     H14117  11.418   3.287   2.951  1.6171 -1.2867  1.3812
  107MOL0     H14118  11.534   3.476   3.149 -1.7825  0.2116 -0.5803
  107MOL0     H14119  11.525   3.508   2.966 -0.1568 -2.3673 -2.5181
  107MOL0     H14120  11.663   3.303   2.944  1.5125 -1.5561  0.0097
  107MOL0     H14121  11.746   3.434   3.034  0.8325 -0.0457 -0.7901
  107MOL0     H14122  11.729   3.151   3.343  0.1621  1.3029  0.2991
  107MOL0     H14123  11.049   3.530   3.026 -1.7623 -0.7139  0.8381
  107MOL0     H14124  10.853   3.659   3.096  0.1335  3.7878  1.0063
  108MOL0     O14125   9.554   1.368   4.975  0.7035 -0.8687 -0.3379
  108MOL0     C14126   9.543   1.248   5.002 -0.8183 -0.2533 -0.2476
  108MOL0     O14127   9.444   1.173   4.987  0.2855 -0.0497  0.1582
  108MOL0     C14128   9.341   1.227   4.911  0.3575  0.0351 -0.7196
  108MOL0     C14129   9.239   1.308   4.972  1.0126 -0.2495 -0.3518
  108MOL0     C14130   9.129   1.346   4.896 -0.3602 -0.3704 -0.4168
  108MOL0     C14131   9.107   1.299   4.763 -0.4430 -0.0633 -0.6140
  108MOL0     O14132   8.996   1.321   4.682 -0.5111  0.4799 -0.1097
  108MOL0     C14133   8.890   1.409   4.715 -0.2802 -0.1540  0.1462
  108MOL0     C14134   8.817   1.432   4.578 -0.6750  0.0731  0.3949
  108MOL0     C14135   8.698   1.530   4.587  0.1625 -0.8911 -0.5843
  108MOL0     C14136   8.660   1.573   4.438  0.4240  0.4232  1.0293
  108MOL0     C14137   8.575   1.694   4.443  0.2182  0.0313 -0.0232
  108MOL0     C14138   8.525   1.734   4.304  0.1072 -0.1833  0.4668
  108MOL0     C14139   8.370   1.711   4.284 -0.5660 -0.3269  1.1141
  108MOL0     C14140   8.332   1.785   4.156 -0.6785 -0.1397 -0.2709
  108MOL0     N14141   8.195   1.756   4.131 -0.1064  0.5802 -0.6879
  108MOL0     C14142   8.108   1.857   4.100  0.2439  0.1531  0.0787
  108MOL0     C14143   7.983   1.799   4.099  0.0416 -0.4778 -0.2730
  108MOL0     C14144   7.851   1.878   4.090  0.2618 -1.0497 -0.8880
  108MOL0     C14145   7.723   1.793   4.109  0.4668 -0.6322  0.2758
  108MOL0     C14146   7.609   1.879   4.180 -0.3960 -0.2067  0.6437
  108MOL0     C14147   7.480   1.787   4.175 -1.0642  0.0684 -1.0760
  108MOL0     O14148   7.428   1.743   4.051  0.1877  0.2504 -0.4031
  108MOL0     C14149   7.316   1.671   4.044  0.5377  0.3682  0.2272
  108MOL0     C14150   7.216   1.661   4.149 -0.7525 -0.7593  0.2446
  108MOL0     C14151   7.099   1.590   4.131 -0.5048  0.0904  0.3266
  108MOL0     C14152   7.067   1.540   4.005  0.1338 -0.0177 -0.7204
  108MOL0     C14153   6.927   1.483   3.990 -0.1441 -0.2763  0.3698
  108MOL0     O14154   6.824   1.501   4.078  0.4601  0.5375  1.0353
  108MOL0     C14155   6.708   1.433   4.053  0.1776  0.1949  0.5581
  108MOL0     C14156   6.671   1.341   4.155 -0.3263 -0.5241 -0.3679
  108MOL0     C14157   6.553   1.269   4.155 -0.3024 -0.6038 -1.4988
  108MOL0     C14158   6.460   1.293   4.045 -0.3036  0.2284 -0.0997
  108MOL0     O14159   6.336   1.234   4.009  0.6591  0.6989 -0.4270
  108MOL0     C14160   6.249   1.175   4.109 -1.1000 -0.6633 -0.4090
  108MOL0     C14161   6.122   1.129   4.040  0.3557 -0.1932 -0.2401
  108MOL0     C14162   6.037   1.045   4.133 -1.2729 -0.2372 -0.3170
  108MOL0     C14163   5.901   1.004   4.078  0.6191 -0.0017  0.0596
  108MOL0     C14164   5.816   0.939   4.187 -0.0075 -0.9020  0.4669
  108MOL0     C14165   5.678   0.899   4.131  0.0195  0.8392 -0.5882
  108MOL0     C14166   5.614   0.807   4.243 -0.2435 -0.2934  0.0891
  108MOL0     C14167   5.481   0.765   4.197 -0.0275  0.0551 -0.1305
  108MOL0    Cl14168   5.364   0.906   4.196  0.0290  0.0505  0.2752
  108MOL0     C14169   6.500   1.388   3.952  0.3516  0.5948 -0.2519
  108MOL0     C14170   6.621   1.453   3.951 -0.2529 -0.1135  0.5478
  108MOL0     O14171   6.911   1.434   3.882  0.3345 -0.2163 -0.0735
  108MOL0     C14172   7.160   1.556   3.895 -0.4270 -0.4083  0.3038
  108MOL0     C14173   7.290   1.606   3.920  0.0451 -0.3561  0.2405
  108MOL0     N14174   8.002   1.661   4.115 -0.8016 -0.0241 -0.3027
  108MOL0     N14175   8.127   1.637   4.133  0.3659  0.6075  0.2900
  108MOL0     C14176   9.216   1.218   4.703 -0.1234 -0.4097 -0.1745
  108MOL0     C14177   9.323   1.177   4.779 -0.1855  0.4647 -0.1596
  108MOL0     C14178   9.664   1.193   5.068 -0.0140  0.3124 -0.5793
  108MOL0     C14179   9.749   1.275   5.144  0.9183  0.2175 -0.0438
  108MOL0     C14180   9.856   1.223   5.223  0.2372 -0.4336 -0.6361
  108MOL0     C14181   9.880   1.090   5.209  0.3988  0.7409 -0.0618
  108MOL0     O14182   9.986   1.050   5.286 -0.2644 -0.6853 -0.5147
  108MOL0     C14183  10.019   0.907   5.284 -1.7252  0.6994 -0.7561
  108MOL0     C14184  10.127   0.898   5.397  0.8013 -0.1622  0.2959
  108MOL0     C14185  10.267   0.939   5.348  0.5199  0.3560  0.2246
  108MOL0     C14186  10.382   0.920   5.454  0.6757 -1.8994  0.2958
  108MOL0     C14187  10.355   1.019   5.560 -0.2617  0.4938 -0.3062
  108MOL0     C14188  10.312   1.081   5.657 -1.1911  0.9992 -0.0697
  108MOL0     C14189   9.805   1.009   5.117  0.2770  0.1905  0.2158
  108MOL0     C14190   9.699   1.065   5.051 -0.6632 -1.0102 -0.0489
  108MOL0     H14191   9.245   1.341   5.075  1.6928 -0.8756 -0.1846
  108MOL0     H14192   9.062   1.424   4.931 -0.5665  0.3609 -2.3026
  108MOL0     H14193   8.936   1.501   4.752 -1.2266  0.4935 -0.2389
  108MOL0     H14194   8.823   1.370   4.792 -1.2552  1.1889  0.0185
  108MOL0     H14195   8.767   1.336   4.560 -1.2480  0.4992 -0.3653
  108MOL0     H14196   8.886   1.467   4.501  0.6025 -0.8498  1.0768
  108MOL0     H14197   8.717   1.618   4.650 -1.5414 -1.4827  0.8586
  108MOL0     H14198   8.623   1.467   4.636  0.2581 -2.4858 -2.3659
  108MOL0     H14199   8.756   1.598   4.393  1.0052  0.8680  2.4450
  108MOL0     H14200   8.611   1.493   4.381  0.0215  2.5937 -1.9193
  108MOL0     H14201   8.631   1.783   4.471 -1.4224  0.8330  0.8101
  108MOL0     H14202   8.496   1.671   4.515 -0.4544  0.4565 -0.6145
  108MOL0     H14203   8.593   1.706   4.223  0.4920  1.8814 -0.0040
  108MOL0     H14204   8.530   1.843   4.297  3.2449 -0.3151 -1.2852
  108MOL0     H14205   8.352   1.604   4.273  1.6158 -0.7609  1.2836
  108MOL0     H14206   8.309   1.742   4.370  0.6213 -0.3246  1.9747
  108MOL0     H14207   8.402   1.751   4.078 -0.2974 -1.7799  0.7217
  108MOL0     H14208   8.341   1.892   4.175  0.9870 -0.2881 -0.0079
  108MOL0     H14209   8.131   1.963   4.094  3.1181 -0.4338 -0.8501
  108MOL0     H14210   7.853   1.953   4.011 -0.2219  1.0604  1.0083
  108MOL0     H14211   7.857   1.941   4.179 -4.0961 -0.2368 -0.9452
  108MOL0     H14212   7.758   1.708   4.167  0.5795 -0.5997  0.2560
  108MOL0     H14213   7.688   1.749   4.015  2.3227 -1.6673  0.0213
  108MOL0     H14214   7.640   1.890   4.285  3.6366 -1.8377 -0.1930
  108MOL0     H14215   7.594   1.977   4.133  1.5285  0.4364  1.2757
  108MOL0     H14216   7.400   1.832   4.235 -2.9849 -0.1887 -3.3184
  108MOL0     H14217   7.503   1.698   4.235  1.2242  0.6287 -0.9996
  108MOL0     H14218   7.238   1.702   4.246  1.5876  1.2112 -1.0083
  108MOL0     H14219   7.023   1.590   4.209 -0.5501 -0.4505  0.2839
  108MOL0     H14220   6.733   1.337   4.244  0.5709  1.4251 -0.8378
  108MOL0     H14221   6.521   1.202   4.235 -1.0121  1.2933 -0.1147
  108MOL0     H14222   6.231   1.252   4.184 -0.0619 -1.3058  0.5407
  108MOL0     H14223   6.296   1.085   4.148  0.0457  0.4150  0.7947
  108MOL0     H14224   6.138   1.086   3.940 -3.3042  3.4903 -2.7505
  108MOL0     H14225   6.062   1.216   4.013  1.4575  0.2060 -1.5620
  108MOL0     H14226   6.011   1.110   4.217 -0.4284 -0.4726  0.1366
  108MOL0     H14227   6.093   0.959   4.172 -1.6513 -0.7250 -0.8161
  108MOL0     H14228   5.845   1.091   4.044 -1.9594 -0.9426  1.5455
  108MOL0     H14229   5.913   0.951   3.983 -0.3813 -0.3277  0.0983
  108MOL0     H14230   5.800   1.009   4.270 -2.7687 -0.1480 -0.5985
  108MOL0     H14231   5.877   0.854   4.217  2.5910  1.6573  3.0836
  108MOL0     H14232   5.694   0.840   4.040 -2.3109 -0.0992 -0.4429
  108MOL0     H14233   5.627   0.991   4.102 -0.7724  0.7224  0.3749
  108MOL0     H14234   5.677   0.721   4.269  1.1264  1.1621  1.7789
  108MOL0     H14235   5.598   0.852   4.341 -1.1917 -2.8395  1.2032
  108MOL0     H14236   5.440   0.694   4.270 -0.8717  0.2335 -0.4105
  108MOL0     H14237   5.486   0.713   4.100 -1.4737 -0.0724 -0.1622
  108MOL0     H14238   6.436   1.407   3.867  0.8216  1.4077 -0.4348
  108MOL0     H14239   6.643   1.528   3.875  1.0246  0.5395  1.5195
  108MOL0     H14240   7.136   1.508   3.801 -1.2166 -0.2058  0.3942
  108MOL0     H14241   7.372   1.615   3.850 -0.8147  0.2107 -0.7196
  108MOL0     H14242   9.198   1.197   4.598  1.9388  0.3802 -0.7201
  108MOL0     H14243   9.405   1.127   4.728 -0.3620  1.7972 -1.8273
  108MOL0     H14244   9.741   1.381   5.165 -0.6797 -0.0829  1.0686
  108MOL0     H14245   9.916   1.288   5.285 -0.2791  1.4722 -2.0389
  108MOL0     H14246  10.055   0.863   5.191 -0.9726 -0.4296  0.0510
  108MOL0     H14247   9.931   0.849   5.314 -0.6051 -0.7429 -0.1563
  108MOL0     H14248  10.098   0.966   5.479  0.1527 -0.8263  0.6264
  108MOL0     H14249  10.134   0.793   5.427 -0.6617 -0.1432  0.7757
  108MOL0     H14250  10.263   1.045   5.321 -2.2311  0.5644  1.1138
  108MOL0     H14251  10.293   0.884   5.258  1.6940 -1.9385  1.8619
  108MOL0     H14252  10.380   0.816   5.489  1.7332 -1.5294  1.5124
  108MOL0     H14253  10.483   0.934   5.415  0.1951  3.5335  0.2888
  108MOL0     H14254  10.272   1.129   5.744 -0.5170 -1.1743  1.5189
  108MOL0     H14255   9.821   0.902   5.108 -1.7498 -0.1054 -0.4149
  108MOL0     H14256   9.640   1.002   4.986 -1.1090  0.7651 -1.4266
  109MOL0     O14257  10.561   6.755   8.322  1.1013  0.5032 -0.5677
  109MOL0     C14258  10.571   6.630   8.325  0.3695 -0.4882  0.4274
  109MOL0     O14259  10.463   6.546   8.336  0.7432  0.0096 -0.2500
  109MOL0     C14260  10.338   6.602   8.334  0.2786  0.4550  0.4046
  109MOL0     C14261  10.258   6.605   8.449  0.7612 -0.7085 -0.0182
  109MOL0     C14262  10.142   6.679   8.445 -0.8618 -0.5449  0.0391
  109MOL0     C14263  10.085   6.732   8.332 -0.2235 -0.3391  0.4077
  109MOL0     O14264   9.968   6.797   8.343  0.2406  0.3997 -0.2537
  109MOL0     C14265   9.845   6.720   8.347 -0.1583 -0.4508 -0.4730
  109MOL0     C14266   9.738   6.803   8.291 -0.6493 -0.0879  0.0130
  109MOL0     C14267   9.624   6.713   8.247 -0.2885 -0.7237 -0.0001
  109MOL0     C14268   9.532   6.785   8.154  0.0829 -0.4861 -0.5063
  109MOL0     C14269   9.425   6.697   8.114  1.1839  0.3057  0.7020
  109MOL0     C14270   9.335   6.748   7.993  0.4743  0.2356  0.0109
  109MOL0     C14271   9.262   6.631   7.926  0.0853 -1.0939  0.2365
  109MOL0     C14272   9.173   6.677   7.808  0.5968 -0.6257  0.2088
  109MOL0     N14273   9.239   6.719   7.684  0.2507 -0.2195  0.5206
  109MOL0     C14274   9.348   6.652   7.628  0.2882 -0.9979  0.2015
  109MOL0     C14275   9.383   6.738   7.526  0.0887  0.0943  0.1583
  109MOL0     C14276   9.500   6.709   7.430 -0.0761 -0.1283 -0.3127
  109MOL0     C14277   9.491   6.576   7.353  0.3342 -0.4217  0.6227
  109MOL0     C14278   9.621   6.533   7.299  0.2746  0.4856 -0.2207
  109MOL0     C14279   9.718   6.489   7.412 -0.2470 -0.6555 -0.1313
  109MOL0     O14280   9.814   6.395   7.363 -0.0166 -0.2386  0.5692
  109MOL0     C14281   9.902   6.344   7.453  0.1384 -0.3058  0.9001
  109MOL0     C14282   9.983   6.247   7.394 -0.2161 -0.0774  0.5646
  109MOL0     C14283  10.091   6.181   7.465 -0.0096  0.1734 -0.1800
  109MOL0     C14284  10.107   6.218   7.598  0.6490  0.1470  0.1511
  109MOL0     C14285  10.220   6.160   7.664  0.1017  0.3542 -0.9223
  109MOL0     O14286  10.325   6.115   7.596 -0.4109  0.3589  0.3103
  109MOL0     C14287  10.402   6.029   7.669  0.6633 -0.3516  0.2184
  109MOL0     C14288  10.349   5.903   7.707  0.6880  0.6422  0.2558
  109MOL0     C14289  10.419   5.819   7.797  1.3801 -0.4279  0.3578
  109MOL0     C14290  10.542   5.860   7.854 -0.3247 -0.0935 -0.1395
  109MOL0     O14291  10.607   5.779   7.947  0.1064  0.1609  0.2678
  109MOL0     C14292  10.710   5.834   8.025  0.2629  0.1797  0.1284
  109MOL0     C14293  10.858   5.833   7.961 -0.2679  0.2978  0.5529
  109MOL0     C14294  10.953   5.892   8.062  0.4406  0.4469  0.9457
  109MOL0     C14295  11.089   5.919   7.998 -0.3986 -0.6831 -0.1946
  109MOL0     C14296  11.197   5.976   8.100  0.8785  0.1055 -0.2834
  109MOL0     C14297  11.337   5.989   8.046  0.4058  1.2847 -0.7553
  109MOL0     C14298  11.441   6.034   8.154 -0.2352  0.4367 -0.4606
  109MOL0     C14299  11.563   6.101   8.082 -0.1290 -0.0326 -0.0666
  109MOL0    Cl14300  11.492   6.255   8.005  0.1474 -0.0117 -0.4230
  109MOL0     C14301  10.593   5.989   7.810 -0.7514  0.1882  0.5216
  109MOL0     C14302  10.520   6.076   7.728 -0.2303 -0.7824  0.1605
  109MOL0     O14303  10.210   6.163   7.787  0.2773 -0.1805  0.5146
  109MOL0     C14304  10.022   6.308   7.666 -0.2505  0.2762 -0.5155
  109MOL0     C14305   9.921   6.371   7.588  0.1741 -0.5169  0.3073
  109MOL0     N14306   9.308   6.852   7.525  0.4568 -0.5565 -1.3768
  109MOL0     N14307   9.220   6.837   7.612 -0.0378 -0.3927 -0.3085
  109MOL0     C14308  10.157   6.727   8.216 -0.1582  0.9613  0.2049
  109MOL0     C14309  10.286   6.657   8.216 -0.7048  0.0192 -0.7060
  109MOL0     C14310  10.710   6.564   8.341  0.0169  0.5821  0.0733
  109MOL0     C14311  10.718   6.421   8.355 -0.0144 -0.0175  1.2295
  109MOL0     C14312  10.838   6.355   8.354 -0.7726  0.4515  0.5475
  109MOL0     C14313  10.958   6.420   8.356  0.9312 -0.8455 -0.0307
  109MOL0     O14314  11.080   6.367   8.376 -0.0890  0.5040 -0.1397
  109MOL0     C14315  11.118   6.357   8.519  0.4054 -0.4930  0.8533
  109MOL0     C14316  11.104   6.206   8.559  0.3653 -0.3690 -0.0086
  109MOL0     C14317  11.234   6.129   8.520  0.1614  0.4873  0.5633
  109MOL0     C14318  11.228   5.985   8.565 -0.1487 -0.4878 -1.1311
  109MOL0     C14319  11.357   5.925   8.547 -0.3370  0.0664  0.2615
  109MOL0     C14320  11.475   5.891   8.546  0.0812  0.5755 -0.0338
  109MOL0     C14321  10.945   6.560   8.338 -0.1336  0.1508 -0.0285
  109MOL0     C14322  10.829   6.633   8.330  0.2082  0.4826  0.0860
  109MOL0     H14323  10.289   6.563   8.544 -0.2956 -1.5601 -0.0272
  109MOL0     H14324  10.075   6.685   8.531  0.0570  2.6639  0.6620
  109MOL0     H14325   9.814   6.685   8.446 -0.7980  1.4309  0.0479
  109MOL0     H14326   9.862   6.634   8.281  0.0124 -0.8729  0.1213
  109MOL0     H14327   9.774   6.852   8.200  0.0958 -0.6869 -0.0239
  109MOL0     H14328   9.697   6.881   8.357 -2.4211 -0.3551 -0.7119
  109MOL0     H14329   9.567   6.682   8.336 -1.1310  0.5267 -0.0838
  109MOL0     H14330   9.669   6.628   8.194  0.2057 -0.7146  0.3998
  109MOL0     H14331   9.488   6.875   8.198  0.7242 -0.2502 -0.3349
  109MOL0     H14332   9.588   6.810   8.063 -2.0570 -1.9148 -2.3069
  109MOL0     H14333   9.362   6.682   8.202  0.7269  0.3711  0.3912
  109MOL0     H14334   9.480   6.608   8.084 -0.5101 -0.1290 -1.3628
  109MOL0     H14335   9.397   6.791   7.913 -1.8703 -0.4537 -2.3163
  109MOL0     H14336   9.254   6.818   8.020  0.4509 -0.5684  2.1676
  109MOL0     H14337   9.329   6.557   7.883 -0.6731 -1.5763 -0.1210
  109MOL0     H14338   9.204   6.575   8.001  0.1768 -2.0947 -0.4287
  109MOL0     H14339   9.111   6.763   7.836  2.1037  0.6107 -0.1257
  109MOL0     H14340   9.104   6.596   7.785  1.0129 -1.3595  1.4891
  109MOL0     H14341   9.382   6.553   7.656  3.1760 -0.0005  0.5343
  109MOL0     H14342   9.596   6.702   7.482  1.1445  1.4088 -2.2026
  109MOL0     H14343   9.515   6.790   7.359  1.0028 -0.1726 -0.1470
  109MOL0     H14344   9.423   6.590   7.269  1.1831  1.1258  0.1616
  109MOL0     H14345   9.446   6.498   7.416 -0.1414 -2.0579 -1.6143
  109MOL0     H14346   9.598   6.447   7.237  3.9671  0.1501 -1.3821
  109MOL0     H14347   9.669   6.614   7.242  3.6475 -0.6574  0.7578
  109MOL0     H14348   9.665   6.423   7.481 -0.6734  2.1765  2.4477
  109MOL0     H14349   9.754   6.575   7.469  0.7957 -0.6630 -0.7558
  109MOL0     H14350   9.950   6.224   7.293  0.3980 -0.3171  0.4121
  109MOL0     H14351  10.146   6.099   7.420  1.7304  0.7474  0.8022
  109MOL0     H14352  10.250   5.882   7.669 -0.5512 -0.7963  3.8565
  109MOL0     H14353  10.363   5.730   7.826  0.2186 -0.0445 -0.6387
  109MOL0     H14354  10.711   5.776   8.117  1.7803  2.6451  1.7773
  109MOL0     H14355  10.686   5.939   8.040 -1.3462  0.3476 -2.7665
  109MOL0     H14356  10.856   5.886   7.865 -5.0185  0.0617  0.2574
  109MOL0     H14357  10.886   5.728   7.951 -1.4518  0.0917 -1.0761
  109MOL0     H14358  10.966   5.820   8.143  1.1515 -1.6025 -0.8744
  109MOL0     H14359  10.913   5.986   8.101  0.1448  0.0431  1.6274
  109MOL0     H14360  11.130   5.827   7.957  2.8983  0.1275  0.9158
  109MOL0     H14361  11.085   5.992   7.917 -0.8041 -1.5129 -0.9240
  109MOL0     H14362  11.203   5.904   8.183  2.1929 -0.9051 -1.2051
  109MOL0     H14363  11.161   6.069   8.145  1.3884  0.4788 -0.6290
  109MOL0     H14364  11.341   6.062   7.965  0.0596 -0.3831 -2.3222
  109MOL0     H14365  11.374   5.894   8.006 -1.6969 -0.6095  1.4718
  109MOL0     H14366  11.388   6.103   8.221  2.0088  3.4369 -1.5167
  109MOL0     H14367  11.486   5.955   8.215 -1.5604 -0.4483 -0.5943
  109MOL0     H14368  11.604   6.038   8.002  1.5062 -0.9820  1.4445
  109MOL0     H14369  11.645   6.122   8.151  1.1490  0.3055 -1.6330
  109MOL0     H14370  10.694   6.024   7.825 -0.7077 -0.0434  0.7730
  109MOL0     H14371  10.549   6.174   7.690 -2.5637 -0.0573  0.0909
  109MOL0     H14372  10.033   6.339   7.769 -0.1070 -3.2145  0.6407
  109MOL0     H14373   9.859   6.450   7.631 -1.2887 -0.5517 -1.6257
  109MOL0     H14374  10.112   6.771   8.128  2.6993  0.6306 -1.5562
  109MOL0     H14375  10.353   6.653   8.130 -2.0919  1.9927 -1.9856
  109MOL0     H14376  10.627   6.364   8.370 -1.2152  1.5044  0.1405
  109MOL0     H14377  10.833   6.248   8.368  3.1452  0.4107  3.3178
  109MOL0     H14378  11.060   6.412   8.593  0.5468 -0.5309  0.9928
  109MOL0     H14379  11.223   6.382   8.534  0.1533  1.0285  0.2085
  109MOL0     H14380  11.094   6.201   8.668  1.8993 -1.1957  0.1245
  109MOL0     H14381  11.012   6.158   8.522  1.0693 -1.3921 -0.4791
  109MOL0     H14382  11.318   6.172   8.574  1.9292  0.2015 -1.8155
  109MOL0     H14383  11.255   6.151   8.415 -0.2363  1.2292  0.6335
  109MOL0     H14384  11.196   5.975   8.669  2.5416  3.0500  0.2770
  109MOL0     H14385  11.149   5.950   8.498 -0.1401  1.9950 -2.5611
  109MOL0     H14386  11.570   5.858   8.512 -1.3250 -2.1339 -1.6575
  109MOL0     H14387  11.026   6.632   8.341 -1.1176  1.4152 -1.9154
  109MOL0     H14388  10.845   6.739   8.315 -0.6296  0.5032 -0.7772
  110MOL0     O14389   9.918   6.176   4.174  0.4207 -0.5764 -0.4130
  110MOL0     C14390   9.982   6.093   4.241 -0.3758 -0.1300  0.2345
  110MOL0     O14391   9.930   5.989   4.309 -0.4869  0.1984  0.5754
  110MOL0     C14392   9.794   5.979   4.307 -0.1334  0.0287  0.1171
  110MOL0     C14393   9.732   5.975   4.431  0.2679 -0.1774 -0.1868
  110MOL0     C14394   9.595   5.950   4.447  0.7428 -0.3149  0.0425
  110MOL0     C14395   9.519   5.928   4.332 -0.3921 -1.2457  1.0627
  110MOL0     O14396   9.389   5.904   4.345  0.2521 -0.4261 -0.5235
  110MOL0     C14397   9.296   5.914   4.238 -0.3818 -0.6683  0.2795
  110MOL0     C14398   9.162   5.901   4.300 -0.8519 -0.1071 -0.2119
  110MOL0     C14399   9.038   5.920   4.211 -0.4770 -0.0129 -0.3888
  110MOL0     C14400   8.904   5.907   4.291 -1.1928 -0.0972 -0.0071
  110MOL0     C14401   8.792   5.897   4.187  0.1225 -0.9897 -0.0849
  110MOL0     C14402   8.659   5.888   4.255  0.6382 -0.2778  0.1483
  110MOL0     C14403   8.532   5.870   4.166 -0.6623 -0.0434 -0.1674
  110MOL0     C14404   8.519   5.992   4.076  0.7072 -0.9472  0.2047
  110MOL0     N14405   8.383   6.006   4.015  0.3111  0.8293  0.2824
  110MOL0     C14406   8.284   6.092   4.066  0.3462  0.6050  0.9537
  110MOL0     C14407   8.180   6.095   3.975 -0.2576 -0.0026 -0.5635
  110MOL0     C14408   8.056   6.181   3.988 -0.3258 -0.2113  0.2859
  110MOL0     C14409   8.089   6.322   3.932  0.4225 -0.2458  0.2611
  110MOL0     C14410   7.966   6.414   3.931  0.0363 -0.4242  0.1034
  110MOL0     C14411   7.997   6.539   3.846 -0.3737 -0.2057  0.2854
  110MOL0     O14412   7.880   6.615   3.834  0.4035  0.1457 -0.4332
  110MOL0     C14413   7.886   6.751   3.818 -0.0988  0.0715  1.1057
  110MOL0     C14414   7.789   6.830   3.874 -0.7144 -0.0391 -0.2077
  110MOL0     C14415   7.788   6.963   3.838 -0.9065 -0.5410 -0.7370
  110MOL0     C14416   7.885   7.023   3.762 -0.5322 -0.2161  0.5845
  110MOL0     C14417   7.882   7.169   3.742 -0.0958  0.4055 -0.2567
  110MOL0     O14418   7.766   7.228   3.759 -0.1607 -0.8028 -1.0221
  110MOL0     C14419   7.771   7.361   3.771  0.0274 -0.2892 -0.5351
  110MOL0     C14420   7.756   7.422   3.897 -1.1830 -0.6275 -0.0490
  110MOL0     C14421   7.756   7.566   3.908 -0.4555  0.0870 -0.3472
  110MOL0     C14422   7.777   7.646   3.797 -1.5743 -0.0306  0.1004
  110MOL0     O14423   7.800   7.780   3.795  0.3567 -0.2903  0.1038
  110MOL0     C14424   7.832   7.842   3.920 -0.8385 -0.1807  1.0117
  110MOL0     C14425   7.913   7.972   3.897  0.0109 -0.6962 -0.6037
  110MOL0     C14426   7.929   8.051   4.029  0.1779 -0.0296 -0.6985
  110MOL0     C14427   8.059   8.013   4.106  0.6995 -0.6819  0.2299
  110MOL0     C14428   8.096   8.115   4.219 -0.1398  0.9116 -0.3917
  110MOL0     C14429   8.208   8.076   4.308 -0.0383 -0.4691 -0.5004
  110MOL0     C14430   8.336   8.029   4.262  0.6165  0.1990  0.0501
  110MOL0     C14431   8.447   8.098   4.339 -0.1641 -0.3877 -0.2204
  110MOL0    Cl14432   8.460   8.026   4.504  0.5162  0.3986  0.3934
  110MOL0     C14433   7.788   7.580   3.671  0.0506  0.4768 -0.5113
  110MOL0     C14434   7.783   7.441   3.658 -0.9046  1.1837  0.0592
  110MOL0     O14435   7.986   7.224   3.705 -0.4344 -0.1460 -0.1033
  110MOL0     C14436   7.990   6.946   3.708  0.1614  0.4715  0.3606
  110MOL0     C14437   7.984   6.809   3.730 -0.7106  0.2108 -0.4202
  110MOL0     N14438   8.216   6.010   3.871 -0.2588 -0.5305 -0.1097
  110MOL0     N14439   8.336   5.957   3.893  0.3062 -0.1649 -0.6514
  110MOL0     C14440   9.589   5.912   4.209 -0.0889 -0.2211  0.6665
  110MOL0     C14441   9.725   5.945   4.196 -0.2673  0.0518 -0.9213
  110MOL0     C14442  10.129   6.118   4.258  0.0158 -0.4231  1.0072
  110MOL0     C14443  10.210   6.012   4.290 -0.4619  0.0362 -0.9115
  110MOL0     C14444  10.350   6.027   4.312  0.3609  0.4912 -0.3845
  110MOL0     C14445  10.412   6.148   4.275 -0.0347 -0.1353  1.1074
  110MOL0     O14446  10.547   6.174   4.271  0.3397 -0.4037 -0.3079
  110MOL0     C14447  10.637   6.081   4.315 -0.1947 -0.2210 -1.0632
  110MOL0     C14448  10.775   6.135   4.295 -0.1153  0.6596  0.1884
  110MOL0     C14449  10.822   6.146   4.150 -0.0565  0.0698 -0.4000
  110MOL0     C14450  10.951   6.237   4.132  0.0597 -0.1915  0.2968
  110MOL0     C14451  11.063   6.173   4.192 -1.0087  0.1014  0.6751
  110MOL0     C14452  11.165   6.122   4.242  0.8417 -0.8993  0.2227
  110MOL0     C14453  10.329   6.262   4.244  0.2051 -0.2238  0.1659
  110MOL0     C14454  10.188   6.245   4.230 -0.1416 -0.1489  0.4668
  110MOL0     H14455   9.796   5.986   4.518  0.6617 -1.7984 -0.2463
  110MOL0     H14456   9.541   5.951   4.541 -0.7594 -0.9757 -0.7737
  110MOL0     H14457   9.303   5.838   4.159 -2.2543  0.9549 -1.5792
  110MOL0     H14458   9.307   6.006   4.181 -0.4395 -0.5395  0.4747
  110MOL0     H14459   9.152   5.971   4.383 -1.8107  1.4612 -1.5816
  110MOL0     H14460   9.162   5.795   4.328  2.8291  0.0264  0.7708
  110MOL0     H14461   9.044   5.847   4.130  0.4983  1.2198 -1.4609
  110MOL0     H14462   9.030   6.020   4.168  1.2002  0.2005 -0.2621
  110MOL0     H14463   8.907   5.811   4.342  1.2401 -0.5224 -0.8622
  110MOL0     H14464   8.896   5.998   4.352 -1.2360 -0.5781  0.7188
  110MOL0     H14465   8.811   5.824   4.108  1.4882 -0.0128 -0.7068
  110MOL0     H14466   8.787   5.995   4.138  0.0956  0.7633  3.1309
  110MOL0     H14467   8.638   5.978   4.314 -0.5964  0.1191 -0.8446
  110MOL0     H14468   8.666   5.800   4.318 -0.2776  0.1989  0.9393
  110MOL0     H14469   8.539   5.779   4.105  0.0170 -0.8796  1.0990
  110MOL0     H14470   8.444   5.862   4.232 -0.5654 -2.4106 -0.2137
  110MOL0     H14471   8.590   5.982   3.993 -0.8997  0.9331 -1.4725
  110MOL0     H14472   8.543   6.083   4.131 -2.4253 -0.6542  1.2886
  110MOL0     H14473   8.278   6.134   4.166 -1.5352  1.8769  0.3690
  110MOL0     H14474   8.029   6.184   4.094  1.6275 -1.1538  0.8469
  110MOL0     H14475   7.985   6.135   3.918  0.6774  0.9735 -1.5930
  110MOL0     H14476   8.121   6.313   3.828  1.0292  0.2962  0.3996
  110MOL0     H14477   8.172   6.375   3.980  1.8212  0.1102 -2.4118
  110MOL0     H14478   7.871   6.372   3.897 -1.1687  1.2493  1.2618
  110MOL0     H14479   7.944   6.460   4.028 -0.9949 -1.1634  0.2320
  110MOL0     H14480   8.028   6.511   3.745 -0.1581  2.0429 -0.3279
  110MOL0     H14481   8.076   6.597   3.894 -1.0742  1.4077 -0.4565
  110MOL0     H14482   7.709   6.780   3.927 -1.5902  1.8253  0.3299
  110MOL0     H14483   7.710   7.019   3.890  0.7456 -0.9458  2.4321
  110MOL0     H14484   7.739   7.361   3.986  1.5234  0.2356  1.1917
  110MOL0     H14485   7.731   7.615   4.001  0.2922  1.6960 -0.9469
  110MOL0     H14486   7.904   7.781   3.974  1.3567 -0.1260 -1.6336
  110MOL0     H14487   7.747   7.874   3.981 -0.3832  1.8019  0.6836
  110MOL0     H14488   7.863   8.032   3.820 -0.4092 -1.0718 -0.6270
  110MOL0     H14489   8.016   7.954   3.864 -0.5308 -0.5153 -2.5076
  110MOL0     H14490   7.838   8.039   4.088 -0.0128  0.3156 -0.9182
  110MOL0     H14491   7.947   8.157   4.009  1.6111 -0.2831 -0.8751
  110MOL0     H14492   8.048   7.917   4.156 -0.7619 -0.1277  1.0532
  110MOL0     H14493   8.140   8.010   4.033 -0.5153 -3.0375 -1.1526
  110MOL0     H14494   8.000   8.123   4.271  0.0039 -0.3335  0.1048
  110MOL0     H14495   8.118   8.208   4.167 -0.0118  0.8441 -0.4570
  110MOL0     H14496   8.162   7.995   4.366 -0.6019 -1.8344 -2.7195
  110MOL0     H14497   8.210   8.158   4.380  0.5517 -0.9395  0.0236
  110MOL0     H14498   8.346   7.921   4.278 -0.8589 -0.1517 -1.1953
  110MOL0     H14499   8.335   8.041   4.154 -0.2825 -1.7018 -0.1996
  110MOL0     H14500   8.431   8.206   4.344  0.0015 -0.3840  0.2866
  110MOL0     H14501   8.547   8.079   4.299  0.6966  2.4388  0.3586
  110MOL0     H14502   7.805   7.635   3.578 -0.2066  1.4718  0.0118
  110MOL0     H14503   7.786   7.395   3.560  0.8505  1.8556 -0.2360
  110MOL0     H14504   8.069   6.991   3.647 -1.4191  0.3492 -1.9088
  110MOL0     H14505   8.041   6.738   3.671 -1.1776  0.3289 -1.0270
  110MOL0     H14506   9.545   5.897   4.112  1.1379 -0.4558  0.1280
  110MOL0     H14507   9.778   5.929   4.102 -0.8713 -4.0183 -0.7506
  110MOL0     H14508  10.165   5.915   4.312 -1.4054  0.8158  0.7780
  110MOL0     H14509  10.408   5.945   4.352 -1.4638 -0.8131 -0.3158
  110MOL0     H14510  10.623   5.996   4.247 -1.0213 -1.2608  0.3552
  110MOL0     H14511  10.621   6.052   4.419 -0.6659  2.9943 -0.1478
  110MOL0     H14512  10.775   6.232   4.345 -0.1393 -0.6640  2.9236
  110MOL0     H14513  10.842   6.068   4.349 -2.3907  1.0584  3.8865
  110MOL0     H14514  10.742   6.197   4.096 -1.3987 -0.8413  0.6644
  110MOL0     H14515  10.834   6.044   4.113 -0.6411  0.6630 -2.3254
  110MOL0     H14516  10.957   6.247   4.023 -2.2258  2.4205  0.2873
  110MOL0     H14517  10.941   6.335   4.180  0.3609  0.8342 -1.6329
  110MOL0     H14518  11.244   6.076   4.296  2.8560  3.2905  1.2485
  110MOL0     H14519  10.380   6.356   4.225  0.6768 -0.8842 -2.0369
  110MOL0     H14520  10.123   6.327   4.204 -1.3605 -1.4821 -0.8785
  111MOL0     O14521   8.313   6.469   6.721  0.1397 -1.1496  0.1248
  111MOL0     C14522   8.219   6.518   6.655 -0.1494  0.7759 -0.1072
  111MOL0     O14523   8.210   6.640   6.588  1.2720  0.0379  0.1931
  111MOL0     C14524   8.327   6.708   6.595  0.5484 -0.2143  0.9145
  111MOL0     C14525   8.353   6.790   6.706 -0.0161  0.3354  0.1876
  111MOL0     C14526   8.484   6.848   6.722  0.5932 -0.0122  0.6664
  111MOL0     C14527   8.584   6.807   6.624 -0.5727 -0.6228  0.2421
  111MOL0     O14528   8.717   6.849   6.632  0.0676 -0.1229  0.1903
  111MOL0     C14529   8.756   6.961   6.707  0.0955 -0.2310  0.2824
  111MOL0     C14530   8.889   7.001   6.651 -0.7053 -1.1067 -0.4954
  111MOL0     C14531   8.869   7.042   6.515  0.7682 -0.0428  0.8398
  111MOL0     C14532   9.007   7.089   6.459  0.8888  0.3603 -0.4823
  111MOL0     C14533   8.985   7.155   6.323  0.2487  0.5743  0.0999
  111MOL0     C14534   9.111   7.210   6.262 -0.7092  0.6538 -0.8876
  111MOL0     C14535   9.143   7.168   6.114  0.2012  0.1663 -0.5086
  111MOL0     C14536   9.216   7.275   6.018  0.5168  0.2475 -0.0049
  111MOL0     N14537   9.130   7.391   5.998  0.3914  0.0133  0.2295
  111MOL0     C14538   9.012   7.393   5.915 -0.0235 -0.7195  0.3612
  111MOL0     C14539   8.945   7.500   5.948  0.4126  0.3146  0.8659
  111MOL0     C14540   8.819   7.553   5.872 -0.3803 -0.5830 -0.3887
  111MOL0     C14541   8.838   7.699   5.812  0.4518 -1.2083 -0.2099
  111MOL0     C14542   8.701   7.757   5.741  0.1917 -0.4139 -0.2989
  111MOL0     C14543   8.640   7.657   5.648  0.5042  0.2790  0.2792
  111MOL0     O14544   8.545   7.570   5.712  0.1468  0.3471  0.6190
  111MOL0     C14545   8.417   7.572   5.676  0.3208  1.1637  0.4057
  111MOL0     C14546   8.390   7.519   5.551  0.9422  0.3897 -0.3065
  111MOL0     C14547   8.255   7.525   5.504 -0.4447  0.2750 -0.0120
  111MOL0     C14548   8.150   7.558   5.589  0.0057  0.9034  0.5278
  111MOL0     C14549   8.005   7.560   5.547 -0.0517 -0.1645 -0.8742
  111MOL0     O14550   7.914   7.605   5.636 -0.0180 -0.2133 -0.1511
  111MOL0     C14551   7.783   7.604   5.612  0.2567 -0.3796  0.8745
  111MOL0     C14552   7.710   7.490   5.554  0.4776  0.4336  0.7724
  111MOL0     C14553   7.572   7.496   5.524 -0.8334  0.0490  0.6390
  111MOL0     C14554   7.501   7.607   5.573 -0.0937 -0.0563  1.0265
  111MOL0     O14555   7.367   7.616   5.586 -0.9377  0.1879 -0.4814
  111MOL0     C14556   7.290   7.515   5.512 -0.8085 -0.4815 -0.6875
  111MOL0     C14557   7.150   7.551   5.530  0.6244  0.8483 -0.0177
  111MOL0     C14558   7.104   7.669   5.432  0.7555  0.0513 -0.1697
  111MOL0     C14559   6.961   7.728   5.454 -0.8099  0.0946 -1.1650
  111MOL0     C14560   6.844   7.638   5.443  0.4717 -0.2662  0.1490
  111MOL0     C14561   6.798   7.619   5.296 -0.3010 -0.1559  0.3076
  111MOL0     C14562   6.686   7.510   5.293 -1.2622  0.1681  0.2913
  111MOL0     C14563   6.658   7.460   5.155 -0.2322  0.4755 -0.4625
  111MOL0    Cl14564   6.787   7.351   5.091 -0.1585  0.0143 -0.4203
  111MOL0     C14565   7.574   7.720   5.624 -0.0001  0.0931 -0.1443
  111MOL0     C14566   7.710   7.717   5.640  0.4666 -0.1450  0.2432
  111MOL0     O14567   7.972   7.519   5.436 -0.9688  0.1241 -0.8892
  111MOL0     C14568   8.185   7.597   5.720  0.0405 -0.2805 -0.4685
  111MOL0     C14569   8.315   7.608   5.761  0.0240 -0.1362 -0.4206
  111MOL0     N14570   9.016   7.569   6.041  0.2883 -0.0369  0.5312
  111MOL0     N14571   9.124   7.500   6.081 -0.5255  0.9078  0.0872
  111MOL0     C14572   8.552   6.719   6.520 -0.8243  0.5908 -0.3442
  111MOL0     C14573   8.415   6.684   6.502  0.1136  0.3826  0.3746
  111MOL0     C14574   8.092   6.437   6.664 -0.2847 -0.6438  0.2716
  111MOL0     C14575   8.083   6.328   6.751 -0.0372 -0.9890  0.5005
  111MOL0     C14576   7.962   6.256   6.759 -0.4488  0.3580 -0.3612
  111MOL0     C14577   7.857   6.299   6.682  0.6871  0.1334  0.2726
  111MOL0     O14578   7.723   6.253   6.680 -0.4717  0.0870  0.2026
  111MOL0     C14579   7.701   6.134   6.755 -0.4769  0.1986 -1.2630
  111MOL0     C14580   7.762   6.008   6.688 -0.3106 -0.0360 -0.2137
  111MOL0     C14581   7.717   5.874   6.748 -0.3380 -0.0290  0.5735
  111MOL0     C14582   7.595   5.818   6.670 -0.9867 -0.6182  0.4377
  111MOL0     C14583   7.557   5.691   6.736  0.8814  0.2025 -0.7383
  111MOL0     C14584   7.515   5.590   6.788  0.4092  0.1908 -0.1687
  111MOL0     C14585   7.872   6.394   6.593  0.0590 -0.0936  0.4337
  111MOL0     C14586   7.985   6.470   6.581 -0.3658 -0.7227 -0.8060
  111MOL0     H14587   8.268   6.823   6.765 -1.3533  3.8831 -3.2545
  111MOL0     H14588   8.500   6.927   6.795  1.4496 -0.9810  1.5679
  111MOL0     H14589   8.777   6.929   6.809  1.6832 -0.8791 -0.2177
  111MOL0     H14590   8.696   7.052   6.705  3.5441  2.2494  0.2656
  111MOL0     H14591   8.962   6.920   6.649  1.4971  0.6551  1.6482
  111MOL0     H14592   8.924   7.087   6.710  0.1875 -0.5370 -1.8110
  111MOL0     H14593   8.807   7.132   6.511  0.5309 -0.2466 -0.8157
  111MOL0     H14594   8.818   6.973   6.447 -0.5288  0.0941  1.6335
  111MOL0     H14595   9.056   7.164   6.522  1.7076 -1.8034  1.6199
  111MOL0     H14596   9.070   7.000   6.446  1.2747  0.4533  0.6339
  111MOL0     H14597   8.911   7.236   6.324 -1.6390 -0.8915 -3.4569
  111MOL0     H14598   8.947   7.075   6.258 -0.0637  0.7860  0.0172
  111MOL0     H14599   9.188   7.164   6.324 -0.5230 -0.1657 -1.7096
  111MOL0     H14600   9.123   7.318   6.273 -1.3325  0.6147  0.4994
  111MOL0     H14601   9.205   7.078   6.104  1.0159  0.7259 -0.5601
  111MOL0     H14602   9.046   7.151   6.065 -1.0957  2.4116  1.0930
  111MOL0     H14603   9.227   7.240   5.915  2.3001 -1.7580  0.7803
  111MOL0     H14604   9.317   7.297   6.056  0.3518  2.4991 -0.7293
  111MOL0     H14605   8.989   7.323   5.835  4.3647  0.7864 -2.5713
  111MOL0     H14606   8.729   7.544   5.932 -1.2309  1.7318 -1.2081
  111MOL0     H14607   8.798   7.500   5.779  1.0934 -0.2044 -0.9754
  111MOL0     H14608   8.914   7.690   5.734 -0.6821 -0.4033 -1.4545
  111MOL0     H14609   8.861   7.769   5.894 -3.3775  0.4532 -0.3642
  111MOL0     H14610   8.633   7.788   5.821  3.3171  0.5567  2.2167
  111MOL0     H14611   8.730   7.843   5.680 -1.2847 -0.4047 -1.0395
  111MOL0     H14612   8.718   7.602   5.595  0.8712  0.8256  0.2484
  111MOL0     H14613   8.582   7.715   5.576 -0.2838 -0.5359  0.2357
  111MOL0     H14614   8.457   7.471   5.481  0.2085  1.9964 -2.2215
  111MOL0     H14615   8.222   7.490   5.407 -3.0130 -1.8880  1.4773
  111MOL0     H14616   7.767   7.400   5.533  0.2693  0.7068 -1.2264
  111MOL0     H14617   7.527   7.407   5.483  0.1611 -0.0315 -0.3202
  111MOL0     H14618   7.310   7.418   5.560 -1.3145 -0.5122 -0.5364
  111MOL0     H14619   7.324   7.506   5.409  0.7406 -3.1495 -0.0526
  111MOL0     H14620   7.129   7.576   5.634 -0.7416  3.8605 -0.8984
  111MOL0     H14621   7.092   7.465   5.495  0.0707  2.2636 -2.8907
  111MOL0     H14622   7.106   7.639   5.327 -0.9667  3.0336 -1.1941
  111MOL0     H14623   7.170   7.755   5.444  0.1475  0.4748  0.1892
  111MOL0     H14624   6.963   7.767   5.556 -1.7692 -1.6012 -0.4618
  111MOL0     H14625   6.949   7.816   5.389  1.2087  1.8145  0.6389
  111MOL0     H14626   6.765   7.686   5.503  0.8458  0.6419 -0.0748
  111MOL0     H14627   6.864   7.540   5.488 -0.7288 -0.8305 -0.4910
  111MOL0     H14628   6.878   7.576   5.234 -0.1758 -1.2034  1.1714
  111MOL0     H14629   6.761   7.708   5.245 -0.9596 -0.5011  0.1736
  111MOL0     H14630   6.727   7.427   5.351  1.4195  1.2675  0.1120
  111MOL0     H14631   6.600   7.548   5.350 -1.2567 -1.4358  1.4601
  111MOL0     H14632   6.678   7.547   5.091  1.9183 -0.3660 -0.9946
  111MOL0     H14633   6.554   7.426   5.146  0.2327 -0.7634 -1.3921
  111MOL0     H14634   7.518   7.812   5.637 -2.0974 -0.8171 -2.0039
  111MOL0     H14635   7.759   7.811   5.664 -0.9718  1.7579 -3.4168
  111MOL0     H14636   8.104   7.620   5.789  0.6056  0.7025 -0.1037
  111MOL0     H14637   8.348   7.640   5.859  2.8703 -1.3390 -0.8865
  111MOL0     H14638   8.621   6.689   6.442 -0.9604 -1.0573  0.1319
  111MOL0     H14639   8.390   6.616   6.421 -2.5405  0.9378  0.6585
  111MOL0     H14640   8.170   6.306   6.813  0.6266 -1.4222 -0.5508
  111MOL0     H14641   7.950   6.172   6.826 -1.7039 -0.0006 -1.0093
  111MOL0     H14642   7.594   6.110   6.752 -0.5678 -0.0229  1.6197
  111MOL0     H14643   7.726   6.137   6.861 -1.0112  1.4364 -1.1470
  111MOL0     H14644   7.749   6.016   6.580  1.1851 -2.3927 -0.6478
  111MOL0     H14645   7.871   6.015   6.697 -0.5800  2.1720  3.9240
  111MOL0     H14646   7.701   5.880   6.856  1.3934 -0.8069  0.9103
  111MOL0     H14647   7.794   5.800   6.728  0.1496  0.7825 -0.7109
  111MOL0     H14648   7.514   5.892   6.669  1.4624  2.2876  0.8319
  111MOL0     H14649   7.629   5.806   6.567  0.7580  4.8432  0.0573
  111MOL0     H14650   7.496   5.489   6.820  1.3011 -0.2415 -0.9779
  111MOL0     H14651   7.791   6.421   6.527 -1.4296 -3.2918  0.7732
  111MOL0     H14652   8.002   6.543   6.502 -0.3025 -0.1120 -0.2382
  112MOL0     O14653   7.996   4.968   8.389 -0.9890 -0.5003 -0.1626
  112MOL0     C14654   8.122   4.973   8.406 -0.6279  0.4585  0.0867
  112MOL0     O14655   8.192   5.076   8.470  0.6783  0.5284 -0.0387
  112MOL0     C14656   8.109   5.167   8.524 -0.3270 -0.0671  0.1207
  112MOL0     C14657   8.027   5.265   8.451 -0.9224 -0.5221 -0.3189
  112MOL0     C14658   7.930   5.328   8.525  1.1231  0.3517 -0.8536
  112MOL0     C14659   7.913   5.318   8.661 -0.3601  0.2258  0.1164
  112MOL0     O14660   7.822   5.395   8.729 -0.0397  0.3925 -0.4807
  112MOL0     C14661   7.879   5.520   8.764  0.3412  0.0960 -0.2893
  112MOL0     C14662   7.783   5.593   8.856 -0.1910  0.6426  0.4225
  112MOL0     C14663   7.776   5.522   8.995  0.7867  0.1758 -0.8348
  112MOL0     C14664   7.668   5.599   9.084 -0.8424 -0.3647  0.7933
  112MOL0     C14665   7.520   5.600   9.043  0.5757  0.7044 -0.3636
  112MOL0     C14666   7.468   5.454   9.024  0.0233  0.1664 -0.2879
  112MOL0     C14667   7.466   5.364   9.145  0.6425  0.0816 -0.4063
  112MOL0     C14668   7.388   5.416   9.264  0.2985  0.4267 -0.1947
  112MOL0     N14669   7.248   5.451   9.224  0.1244  0.4172 -0.1518
  112MOL0     C14670   7.146   5.364   9.201 -0.0781 -0.5146  0.8109
  112MOL0     C14671   7.044   5.443   9.164  0.0598 -0.7908 -0.1052
  112MOL0     C14672   6.913   5.420   9.095  0.1506  0.3628 -0.0658
  112MOL0     C14673   6.931   5.438   8.946  0.6986 -0.0568 -0.0743
  112MOL0     C14674   6.797   5.466   8.885  0.2143 -0.6945  0.5048
  112MOL0     C14675   6.707   5.350   8.884  0.0733  0.3879 -1.1331
  112MOL0     O14676   6.752   5.241   8.802 -0.9783  0.0199 -0.3997
  112MOL0     C14677   6.666   5.151   8.747  0.2125  0.2896  0.2633
  112MOL0     C14678   6.713   5.061   8.656 -0.1524 -0.1854 -0.4812
  112MOL0     C14679   6.634   4.962   8.602 -0.7823  0.2776  0.4462
  112MOL0     C14680   6.507   4.943   8.637  0.5634  0.5319 -0.7344
  112MOL0     C14681   6.415   4.834   8.578  0.1745  0.8141 -1.2128
  112MOL0     O14682   6.285   4.835   8.611 -0.1432  0.1581  0.3320
  112MOL0     C14683   6.192   4.759   8.537  1.0588 -0.2685  0.4852
  112MOL0     C14684   6.199   4.700   8.411 -0.3200 -1.1510 -0.2070
  112MOL0     C14685   6.088   4.634   8.365 -0.1630 -0.4741  0.2086
  112MOL0     C14686   5.972   4.614   8.438  0.3060  0.0992 -0.1095
  112MOL0     O14687   5.877   4.532   8.377 -0.1722 -0.3565  0.1073
  112MOL0     C14688   5.769   4.474   8.451 -0.4567  0.3947 -0.4059
  112MOL0     C14689   5.686   4.384   8.369  0.7428  0.3285  0.2759
  112MOL0     C14690   5.544   4.427   8.338 -0.0729  0.0518 -0.0895
  112MOL0     C14691   5.543   4.524   8.227  0.1430 -0.1503 -0.0238
  112MOL0     C14692   5.408   4.557   8.175 -0.3318 -0.9751 -0.3593
  112MOL0     C14693   5.310   4.624   8.271  0.4933  0.3590  0.2641
  112MOL0     C14694   5.182   4.661   8.191  0.9795 -0.7685  0.1223
  112MOL0     C14695   5.084   4.549   8.159  0.5195 -0.5820  0.4415
  112MOL0    Cl14696   4.934   4.613   8.072 -0.2264 -0.5806  0.3604
  112MOL0     C14697   5.959   4.676   8.561  0.2558 -1.1826 -0.2792
  112MOL0     C14698   6.069   4.745   8.609  0.0122  0.6478 -0.2071
  112MOL0     O14699   6.471   4.752   8.511 -0.0968  0.3473 -0.0219
  112MOL0     C14700   6.452   5.038   8.724 -0.2050  0.5489 -0.2875
  112MOL0     C14701   6.531   5.141   8.769  0.0235 -0.5978  0.1296
  112MOL0     N14702   7.069   5.576   9.196 -0.2639  0.4339  0.4465
  112MOL0     N14703   7.193   5.574   9.239  0.9785  0.6562 -0.2493
  112MOL0     C14704   8.004   5.238   8.725 -0.2064  0.2549 -0.3956
  112MOL0     C14705   8.103   5.157   8.660 -0.4140  0.1534 -0.9549
  112MOL0     C14706   8.203   4.847   8.381  0.6449 -0.3194 -0.6403
  112MOL0     C14707   8.340   4.837   8.400 -0.0198  0.1653  0.4704
  112MOL0     C14708   8.409   4.708   8.373  0.1583 -0.6205  0.3795
  112MOL0     C14709   8.344   4.597   8.334  0.1056  0.2577 -0.4569
  112MOL0     O14710   8.409   4.478   8.316  0.0620  0.1432  0.5019
  112MOL0     C14711   8.537   4.454   8.374  0.0357  0.0420  0.3855
  112MOL0     C14712   8.585   4.311   8.388  0.2301 -0.3254  0.0953
  112MOL0     C14713   8.700   4.293   8.485 -0.2360 -0.1776 -0.0663
  112MOL0     C14714   8.767   4.154   8.487 -0.1973 -0.6194  0.4924
  112MOL0     C14715   8.881   4.161   8.584 -0.1086  0.1203 -0.2887
  112MOL0     C14716   8.968   4.157   8.667 -0.2937  0.1540 -0.0817
  112MOL0     C14717   8.204   4.615   8.317  0.0149 -0.2422 -0.6989
  112MOL0     C14718   8.137   4.736   8.333  0.8718  0.0918 -0.3596
  112MOL0     H14719   8.042   5.281   8.345 -2.7194  1.3904 -0.3373
  112MOL0     H14720   7.857   5.391   8.475  2.5509  1.3362 -1.7866
  112MOL0     H14721   7.891   5.583   8.676  0.2793 -1.5813 -1.5533
  112MOL0     H14722   7.978   5.511   8.811 -0.1293  3.3830  1.6802
  112MOL0     H14723   7.687   5.588   8.804  0.6353 -1.4327 -1.0661
  112MOL0     H14724   7.822   5.694   8.873 -0.9754  1.2251 -1.0580
  112MOL0     H14725   7.875   5.524   9.041 -0.4024  1.2915  1.8709
  112MOL0     H14726   7.748   5.416   8.991 -0.2923  0.2075  2.5484
  112MOL0     H14727   7.667   5.542   9.177  2.2365 -0.8018  0.6661
  112MOL0     H14728   7.698   5.699   9.116 -0.3690 -0.0409 -0.5536
  112MOL0     H14729   7.499   5.646   8.945  1.1729 -2.4314 -2.0973
  112MOL0     H14730   7.453   5.651   9.113 -1.6897 -0.3949 -1.5861
  112MOL0     H14731   7.528   5.410   8.944  0.2893 -0.9436  0.4964
  112MOL0     H14732   7.370   5.459   8.975 -0.0647  0.3743 -0.0924
  112MOL0     H14733   7.423   5.276   9.096  1.0171 -0.8708  0.9240
  112MOL0     H14734   7.569   5.347   9.177  0.4513  1.2344  0.9298
  112MOL0     H14735   7.436   5.505   9.306 -0.2174  1.1044 -1.0164
  112MOL0     H14736   7.388   5.336   9.339  2.3979  0.6229  0.0677
  112MOL0     H14737   7.151   5.260   9.169 -1.2568  0.0045 -1.2576
  112MOL0     H14738   6.836   5.486   9.134 -0.4395 -0.0566 -0.5063
  112MOL0     H14739   6.877   5.318   9.113  2.8538 -0.5186  0.8512
  112MOL0     H14740   6.973   5.346   8.906  0.7285 -0.9598  1.9491
  112MOL0     H14741   7.000   5.523   8.937  1.1996  0.1160  3.7706
  112MOL0     H14742   6.754   5.546   8.947  1.0543 -1.2072  1.8035
  112MOL0     H14743   6.806   5.493   8.780 -0.5220  0.2401  0.6658
  112MOL0     H14744   6.611   5.392   8.852  0.9046  3.0903 -0.3624
  112MOL0     H14745   6.691   5.319   8.987 -1.0572 -0.1983 -1.4642
  112MOL0     H14746   6.818   5.076   8.630 -0.1368 -3.7855 -3.2737
  112MOL0     H14747   6.677   4.897   8.526  1.0147 -1.6992  2.9748
  112MOL0     H14748   6.286   4.716   8.347  0.4233  0.3506  1.1113
  112MOL0     H14749   6.104   4.600   8.263  0.2227  0.9600 -0.2257
  112MOL0     H14750   5.696   4.552   8.473  1.3534  3.1483 -3.2568
  112MOL0     H14751   5.798   4.427   8.545 -0.7732  1.2752  0.1478
  112MOL0     H14752   5.679   4.287   8.419 -2.7170  0.1267 -0.3496
  112MOL0     H14753   5.750   4.354   8.286  3.0694  0.5734  1.8901
  112MOL0     H14754   5.493   4.463   8.428  2.1298 -0.9926  1.7089
  112MOL0     H14755   5.490   4.337   8.306 -1.3063  1.2363 -1.4544
  112MOL0     H14756   5.582   4.619   8.265  2.5307 -0.3748 -1.7167
  112MOL0     H14757   5.609   4.487   8.149 -1.4041  0.5383 -1.7230
  112MOL0     H14758   5.370   4.458   8.147  1.5054 -1.6727 -0.5378
  112MOL0     H14759   5.429   4.619   8.087 -0.8370 -0.0452  0.1634
  112MOL0     H14760   5.368   4.706   8.315  2.8992 -0.5172 -1.0478
  112MOL0     H14761   5.286   4.555   8.352  2.0841  0.1309  0.5850
  112MOL0     H14762   5.129   4.725   8.262  1.1513 -2.8129  2.2183
  112MOL0     H14763   5.209   4.717   8.101 -0.4127 -0.8476 -0.3593
  112MOL0     H14764   5.054   4.497   8.251 -0.3182  3.0976  2.4563
  112MOL0     H14765   5.123   4.483   8.082 -0.1393 -1.1904  0.6190
  112MOL0     H14766   5.869   4.671   8.622 -0.2495  2.7802 -0.4597
  112MOL0     H14767   6.063   4.791   8.708 -0.5318  0.6646 -0.2473
  112MOL0     H14768   6.348   5.043   8.754  0.0422  1.5682  0.4641
  112MOL0     H14769   6.487   5.222   8.826  1.7028  0.5037 -0.0731
  112MOL0     H14770   7.986   5.253   8.831  3.4693 -0.7457  0.5084
  112MOL0     H14771   8.170   5.094   8.718 -0.4505  1.2515  0.3227
  112MOL0     H14772   8.411   4.911   8.436 -1.2714  2.1455 -0.9617
  112MOL0     H14773   8.516   4.711   8.391  0.7165  0.9248 -2.5493
  112MOL0     H14774   8.546   4.491   8.476 -1.4764  0.8447  0.2592
  112MOL0     H14775   8.608   4.506   8.308  1.0290 -0.5077  0.9977
  112MOL0     H14776   8.502   4.245   8.413  0.3582 -1.2444 -1.7578
  112MOL0     H14777   8.609   4.278   8.286 -3.2246 -0.4537 -0.7899
  112MOL0     H14778   8.649   4.304   8.581  1.0772 -1.7862  0.8589
  112MOL0     H14779   8.776   4.370   8.468 -1.4920  0.9480 -0.7604
  112MOL0     H14780   8.689   4.085   8.520 -1.8084  0.3190 -1.1558
  112MOL0     H14781   8.794   4.121   8.387  3.1159  2.0641  0.3341
  112MOL0     H14782   9.053   4.162   8.732  0.1546 -0.1883 -0.6297
  112MOL0     H14783   8.153   4.530   8.275 -0.8544  1.7742 -4.0869
  112MOL0     H14784   8.029   4.733   8.331  0.8125  1.4221 -0.0048
  113MOL0     O14785  10.507   8.853   4.625 -0.2344  1.0439  1.0646
  113MOL0     C14786  10.427   8.766   4.650 -0.2925 -0.0346 -0.3589
  113MOL0     O14787  10.429   8.686   4.757 -0.2506 -0.4762  0.3499
  113MOL0     C14788  10.516   8.708   4.858  0.0474  0.5948 -0.0238
  113MOL0     C14789  10.563   8.838   4.894  0.5793 -0.3308  0.0826
  113MOL0     C14790  10.657   8.850   4.991  0.4590  0.2229  0.2701
  113MOL0     C14791  10.713   8.740   5.060  0.2046  0.3521  0.5117
  113MOL0     O14792  10.815   8.758   5.147  0.1676 -0.6921 -1.2932
  113MOL0     C14793  10.940   8.698   5.129  0.5658  0.3687 -0.9092
  113MOL0     C14794  11.058   8.762   5.204  0.0567  0.8043  0.0569
  113MOL0     C14795  11.057   8.750   5.357  0.4836  0.0739  0.1194
  113MOL0     C14796  11.181   8.827   5.410  0.7814 -0.1707  0.0786
  113MOL0     C14797  11.183   8.826   5.559  0.8802 -1.0031  0.1848
  113MOL0     C14798  11.300   8.897   5.612 -0.1620  0.6177 -0.1632
  113MOL0     C14799  11.286   8.933   5.759 -0.8970  0.9564 -0.0464
  113MOL0     C14800  11.408   8.962   5.844 -0.6544 -0.5495 -0.0816
  113MOL0     N14801  11.446   9.105   5.852 -0.0031  0.7772  0.1240
  113MOL0     C14802  11.379   9.212   5.800  0.2126 -0.0001 -0.6365
  113MOL0     C14803  11.467   9.317   5.813  0.2803  0.0671  0.4763
  113MOL0     C14804  11.473   9.456   5.764 -0.9953 -0.1579  0.7691
  113MOL0     C14805  11.416   9.562   5.847  1.0975 -0.3346  0.5484
  113MOL0     C14806  11.507   9.597   5.961 -0.7756  0.3218  0.0519
  113MOL0     C14807  11.437   9.691   6.059  0.5267  0.2379 -0.4409
  113MOL0     O14808  11.386   9.808   5.987  0.5847 -0.0957 -0.1147
  113MOL0     C14809  11.310   9.893   6.054 -0.0449  0.1500  0.1744
  113MOL0     C14810  11.248   9.990   5.974  0.7117 -0.2609 -0.2283
  113MOL0     C14811  11.159  10.074   6.033 -0.0724  0.0384 -0.3666
  113MOL0     C14812  11.138  10.067   6.180  0.1119  0.2432 -0.4218
  113MOL0     C14813  11.039  10.155   6.244  0.6299  0.0528  0.0021
  113MOL0     O14814  11.041  10.169   6.372 -0.0526 -0.1133 -0.1408
  113MOL0     C14815  10.949  10.239   6.454 -0.7613 -0.9891  0.2540
  113MOL0     C14816  10.808  10.274   6.415 -0.6167  0.3562 -0.1845
  113MOL0     C14817  10.729  10.362   6.498  0.2724  0.2642  0.3456
  113MOL0     C14818  10.784  10.412   6.621  0.5679  0.2455  0.1341
  113MOL0     O14819  10.706  10.502   6.696 -0.5163 -0.6052 -0.1613
  113MOL0     C14820  10.719  10.495   6.840  0.5113 -0.4301  0.1296
  113MOL0     C14821  10.620  10.593   6.899  1.2234 -0.6432 -0.0500
  113MOL0     C14822  10.475  10.553   6.860 -0.6117 -0.3111  0.1992
  113MOL0     C14823  10.376  10.651   6.917  0.3056  0.0559  0.7772
  113MOL0     C14824  10.234  10.612   6.868 -0.9453 -0.9317 -0.2466
  113MOL0     C14825  10.182  10.502   6.946 -0.5108  0.3515  0.3894
  113MOL0     C14826  10.034  10.489   6.908  0.7340 -0.7501 -0.2235
  113MOL0     C14827   9.956  10.387   6.992  0.2114 -0.6138  0.5268
  113MOL0    Cl14828   9.923  10.243   6.899 -0.1496  0.3370 -0.3752
  113MOL0     C14829  10.910  10.369   6.656 -0.2669 -0.8862 -0.0659
  113MOL0     C14830  10.995  10.287   6.578  0.0403 -0.2916  0.4008
  113MOL0     O14831  10.959  10.211   6.164  0.1256 -0.0733 -0.2338
  113MOL0     C14832  11.219   9.986   6.252 -0.1967 -0.1910  0.5234
  113MOL0     C14833  11.294   9.891   6.194 -0.8243 -0.2361 -0.5248
  113MOL0     N14834  11.580   9.272   5.882  0.8611  0.3779  0.2614
  113MOL0     N14835  11.568   9.145   5.888  0.3349 -0.1175 -0.4969
  113MOL0     C14836  10.663   8.612   5.028  0.2341  0.4530 -0.7601
  113MOL0     C14837  10.564   8.598   4.929  0.9102  0.8417  0.2161
  113MOL0     C14838  10.310   8.759   4.556 -0.5612  0.1715 -1.0493
  113MOL0     C14839  10.292   8.821   4.429  0.1424  0.0778  0.1898
  113MOL0     C14840  10.175   8.805   4.352  0.3147  0.1126  0.0363
  113MOL0     C14841  10.072   8.724   4.389 -0.2272  0.5043 -0.0468
  113MOL0     O14842   9.963   8.690   4.310 -0.0206 -0.1008 -0.0949
  113MOL0     C14843   9.945   8.738   4.172 -0.0649  0.2175 -0.3213
  113MOL0     C14844   9.811   8.698   4.119  0.4818 -0.0853 -0.8247
  113MOL0     C14845   9.807   8.662   3.973  0.7924  0.0842  0.3596
  113MOL0     C14846   9.674   8.625   3.916  1.3166 -0.2487 -0.9800
  113MOL0     C14847   9.620   8.488   3.952 -0.2134  0.7275  1.2449
  113MOL0     C14848   9.576   8.376   3.975  0.3098 -0.2527  0.0271
  113MOL0     C14849  10.084   8.665   4.515 -0.3564 -0.6771  0.4440
  113MOL0     C14850  10.204   8.672   4.592 -0.3250 -0.0395  0.4467
  113MOL0     H14851  10.535   8.927   4.839  0.9414 -0.6990 -0.7143
  113MOL0     H14852  10.703   8.948   4.995  1.7442 -0.1950 -2.3464
  113MOL0     H14853  10.968   8.707   5.024  3.3438  1.4375 -0.1545
  113MOL0     H14854  10.927   8.593   5.158 -1.2134  0.5788 -0.7839
  113MOL0     H14855  11.063   8.867   5.176 -0.2787  1.2748  1.7068
  113MOL0     H14856  11.150   8.713   5.170  0.4827  2.3577 -1.1027
  113MOL0     H14857  11.059   8.644   5.385 -1.3488 -0.0479 -0.0878
  113MOL0     H14858  10.961   8.779   5.399  1.5715 -0.3805  3.1930
  113MOL0     H14859  11.273   8.776   5.380  1.2424  0.1876  0.8691
  113MOL0     H14860  11.182   8.932   5.377  1.5753 -0.2143 -0.0508
  113MOL0     H14861  11.157   8.730   5.603  1.6987 -0.0586  2.9230
  113MOL0     H14862  11.101   8.893   5.586  1.4237 -0.2586  0.0208
  113MOL0     H14863  11.316   8.994   5.562  3.4925 -0.5522 -1.5901
  113MOL0     H14864  11.394   8.846   5.588  1.0237  2.8737 -0.7049
  113MOL0     H14865  11.211   9.012   5.768 -2.9740 -1.0487  1.4798
  113MOL0     H14866  11.250   8.844   5.812  2.5444  0.4938  1.8124
  113MOL0     H14867  11.497   8.914   5.802 -0.1723 -1.6708  2.1166
  113MOL0     H14868  11.394   8.934   5.949  1.5419  1.4192  0.8110
  113MOL0     H14869  11.286   9.200   5.745 -0.3645 -0.1710  0.3679
  113MOL0     H14870  11.430   9.457   5.664 -0.2981 -0.2697  0.4603
  113MOL0     H14871  11.578   9.477   5.742 -0.4199  0.6616  3.7931
  113MOL0     H14872  11.315   9.535   5.878 -0.9590  2.8853 -2.6352
  113MOL0     H14873  11.401   9.647   5.780  5.2088 -2.0118 -2.9432
  113MOL0     H14874  11.543   9.511   6.019  0.3499  1.0820  0.5254
  113MOL0     H14875  11.594   9.649   5.920 -0.2635 -0.0398  0.6571
  113MOL0     H14876  11.498   9.729   6.141 -1.4418  0.0227  1.2043
  113MOL0     H14877  11.358   9.626   6.099  2.1598 -2.7008 -1.6419
  113MOL0     H14878  11.263   9.993   5.866 -1.7361  0.4726 -0.6000
  113MOL0     H14879  11.106  10.151   5.979  0.4860 -0.2665 -1.3759
  113MOL0     H14880  10.761  10.239   6.324 -1.4826  1.1305 -0.0531
  113MOL0     H14881  10.625  10.383   6.472 -1.3751 -2.6609  3.6832
  113MOL0     H14882  10.821  10.516   6.871 -0.0003  0.7382  1.1226
  113MOL0     H14883  10.685  10.397   6.876 -0.6079  0.5781  2.0056
  113MOL0     H14884  10.645  10.693   6.863  2.6274  0.5217  3.6204
  113MOL0     H14885  10.644  10.587   7.006 -0.3178 -0.2970  0.3382
  113MOL0     H14886  10.453  10.454   6.901  0.4607 -1.8855 -2.7743
  113MOL0     H14887  10.459  10.540   6.753 -1.0311 -1.3956  0.3763
  113MOL0     H14888  10.378  10.641   7.026 -3.3361 -0.9661  0.8535
  113MOL0     H14889  10.406  10.754   6.892  3.8184 -0.7272  1.1832
  113MOL0     H14890  10.237  10.598   6.759  1.0558 -2.0760 -0.0928
  113MOL0     H14891  10.167  10.696   6.888 -0.3447 -0.4836 -0.1039
  113MOL0     H14892  10.185  10.512   7.055 -3.3643  0.8529  0.4916
  113MOL0     H14893  10.228  10.408   6.912  2.0988  2.0127 -1.0106
  113MOL0     H14894   9.986  10.578   6.948 -0.3915 -0.7608 -1.4842
  113MOL0     H14895  10.014  10.482   6.800 -0.8033 -2.5998  0.1340
  113MOL0     H14896   9.862  10.441   7.005  1.1936  2.2572 -2.6786
  113MOL0     H14897  10.015  10.374   7.084  0.6775  1.5074  0.5976
  113MOL0     H14898  10.965  10.392   6.748  0.6495 -0.6270 -0.6647
  113MOL0     H14899  11.087  10.259   6.628 -1.0071 -0.3488  2.4167
  113MOL0     H14900  11.190   9.974   6.355  0.4328  0.7422  0.8279
  113MOL0     H14901  11.330   9.820   6.268 -0.0086 -0.2904 -0.9638
  113MOL0     H14902  10.694   8.523   5.082  0.3820  0.5465 -0.6892
  113MOL0     H14903  10.526   8.501   4.899 -0.7196  0.8042  2.1522
  113MOL0     H14904  10.370   8.883   4.386 -1.7843  0.0475 -3.8273
  113MOL0     H14905  10.187   8.867   4.264  2.6966  2.0598  1.5941
  113MOL0     H14906  10.022   8.692   4.108 -2.0847  0.1148 -2.8374
  113MOL0     H14907   9.952   8.847   4.171 -2.2368  0.4304  1.8052
  113MOL0     H14908   9.756   8.623   4.177  0.3049 -0.0644 -0.9657
  113MOL0     H14909   9.752   8.790   4.128  1.0280  0.0593  2.8583
  113MOL0     H14910   9.870   8.578   3.942 -3.5079 -2.0175 -4.1406
  113MOL0     H14911   9.840   8.740   3.904  2.1827 -1.4557 -0.8096
  113MOL0     H14912   9.601   8.694   3.959  1.0559 -1.5153  0.7176
  113MOL0     H14913   9.670   8.629   3.807 -2.2850 -0.3394 -0.9602
  113MOL0     H14914   9.543   8.281   4.013  2.3292 -0.3473  1.7525
  113MOL0     H14915  10.004   8.607   4.558  0.3540 -0.9417  1.4467
  113MOL0     H14916  10.192   8.631   4.692 -0.2629  0.5801  0.7182
  114MOL0     O14917   0.819  10.440   9.979 -0.0524  0.1770 -0.5240
  114MOL0     C14918   0.808  10.562   9.945 -1.0738 -0.0431 -0.2828
  114MOL0     O14919   0.696  10.632   9.926  0.0336 -0.1650  0.0162
  114MOL0     C14920   0.579  10.594   9.988 -0.8861 -0.4765  0.5974
  114MOL0     C14921   0.468  10.677   9.956  0.0815  0.1296  0.4112
  114MOL0     C14922   0.338  10.654   9.994 -0.5992 -0.1748  0.2119
  114MOL0     C14923   0.304  10.546  10.077  0.7659 -0.2790  0.0434
  114MOL0     O14924   0.174  10.524  10.107 -0.3118 -0.4197  0.5899
  114MOL0     C14925   0.122  10.424  10.192  0.1138 -0.0754 -0.6144
  114MOL0     C14926  -0.024  10.458  10.223  0.1571 -0.0431  0.6560
  114MOL0     C14927  -0.106  10.421  10.092 -0.0383 -0.3685  0.3100
  114MOL0     C14928  -0.256  10.465  10.113 -0.4558  0.1814 -0.6668
  114MOL0     C14929  -0.349  10.401  10.006 -0.0293 -1.0344 -0.2518
  114MOL0     C14930  -0.335  10.474   9.873  0.8175 -0.1329  0.0036
  114MOL0     C14931  -0.463  10.490   9.783 -0.3151 -0.3756 -0.1712
  114MOL0     C14932  -0.558  10.602   9.830 -0.6472  0.6680  0.3445
  114MOL0     N14933  -0.646  10.655   9.723 -0.6330  0.2287  0.4091
  114MOL0     C14934  -0.747  10.581   9.669  0.4625  0.0340  0.4217
  114MOL0     C14935  -0.802  10.655   9.565 -0.0553  0.4002  0.9255
  114MOL0     C14936  -0.900  10.609   9.459  0.4879  0.6878 -0.2355
  114MOL0     C14937  -1.005  10.710   9.457 -0.2145  0.0794  0.5874
  114MOL0     C14938  -1.108  10.682   9.357  0.6254 -0.0265  0.1545
  114MOL0     C14939  -1.193  10.805   9.329  0.2609  0.2996 -0.3696
  114MOL0     O14940  -1.254  10.841   9.461 -0.9986  0.5760  0.8625
  114MOL0     C14941  -1.366  10.917   9.469 -0.3250 -0.0145  0.3278
  114MOL0     C14942  -1.421  10.988   9.354  0.4128  0.3477 -0.6604
  114MOL0     C14943  -1.534  11.073   9.365  0.1004  0.0917  0.4503
  114MOL0     C14944  -1.593  11.086   9.494 -0.6384  0.1686 -0.2911
  114MOL0     C14945  -1.712  11.174   9.504 -0.1366  1.1123  0.4031
  114MOL0     O14946  -1.752  11.247   9.395 -1.3187 -0.0761  0.9988
  114MOL0     C14947  -1.861  11.329   9.390  0.7673 -0.2307  0.6959
  114MOL0     C14948  -1.891  11.417   9.492 -0.3754 -0.2380 -0.1971
  114MOL0     C14949  -2.009  11.497   9.482  0.2194 -0.2608  0.6321
  114MOL0     C14950  -2.076  11.499   9.352  1.3015 -0.2186 -1.0050
  114MOL0     O14951  -2.194  11.570   9.349  0.5487 -0.6118  1.2746
  114MOL0     C14952  -2.252  11.593   9.217 -0.2075 -0.5060 -0.2632
  114MOL0     C14953  -2.369  11.687   9.216 -0.0298 -0.9752 -1.0387
  114MOL0     C14954  -2.426  11.719   9.080 -0.0692  0.0166 -0.3595
  114MOL0     C14955  -2.518  11.601   9.038 -0.5866  0.3460 -0.2750
  114MOL0     C14956  -2.586  11.615   8.902 -0.7127 -0.4528  0.4593
  114MOL0     C14957  -2.663  11.478   8.867 -0.1921 -0.0004  0.1006
  114MOL0     C14958  -2.714  11.461   8.718 -0.5376 -0.5891 -0.5846
  114MOL0     C14959  -2.825  11.362   8.691  1.0785 -0.1242 -0.3403
  114MOL0    Cl14960  -2.779  11.205   8.764 -0.1429 -0.4514  0.4016
  114MOL0     C14961  -2.045  11.403   9.254  0.2788 -0.0745  0.4970
  114MOL0     C14962  -1.939  11.315   9.277  0.3040 -0.3220  0.3909
  114MOL0     O14963  -1.774  11.170   9.613 -0.1935 -0.0661  0.4414
  114MOL0     C14964  -1.549  11.017   9.609  0.0300 -0.5076 -0.2438
  114MOL0     C14965  -1.431  10.935   9.594  0.3181 -0.0708  0.3764
  114MOL0     N14966  -0.737  10.780   9.569 -0.3996  0.1358 -0.3899
  114MOL0     N14967  -0.641  10.773   9.657 -0.2450  0.1663  0.6220
  114MOL0     C14968   0.415  10.468  10.120  0.0087 -0.0167  0.3206
  114MOL0     C14969   0.545  10.488  10.076  0.4735 -0.4277 -0.1389
  114MOL0     C14970   0.931  10.627   9.892  0.0008  0.1015 -0.4814
  114MOL0     C14971   0.931  10.759   9.857  0.4454 -1.0260 -0.0537
  114MOL0     C14972   1.045  10.826   9.808  0.4001 -0.3526  0.4817
  114MOL0     C14973   1.163  10.761   9.794  0.0257  0.5412 -0.2260
  114MOL0     O14974   1.258  10.835   9.735  0.3188 -0.2199 -0.6496
  114MOL0     C14975   1.388  10.789   9.731  1.0197 -0.7231 -0.5486
  114MOL0     C14976   1.478  10.915   9.721 -0.9442  0.1467 -0.0183
  114MOL0     C14977   1.626  10.864   9.701  0.4421  0.3565 -0.3130
  114MOL0     C14978   1.726  10.975   9.682  0.2285  0.8373  0.4061
  114MOL0     C14979   1.856  10.922   9.660 -0.2584 -0.4151 -0.2727
  114MOL0     C14980   1.964  10.870   9.651  0.5520 -0.1549  0.5932
  114MOL0     C14981   1.169  10.625   9.835  0.1432 -0.4689  0.5478
  114MOL0     C14982   1.057  10.561   9.880  0.4675 -0.5868  0.0416
  114MOL0     H14983   0.485  10.770   9.902 -3.3948  0.6151 -0.0887
  114MOL0     H14984   0.255  10.722   9.980  0.7978  1.2903 -1.4423
  114MOL0     H14985   0.182  10.430  10.283 -0.8096  0.1730 -0.0146
  114MOL0     H14986   0.130  10.326  10.143 -0.3886 -0.5423  0.2163
  114MOL0     H14987  -0.042  10.562  10.252 -0.8171  0.6814 -2.2011
  114MOL0     H14988  -0.050  10.392  10.307  3.0127  0.2538  1.8940
  114MOL0     H14989  -0.096  10.315  10.070 -1.3168 -0.7882  1.5788
  114MOL0     H14990  -0.055  10.480  10.016 -0.1239 -2.6400 -1.6084
  114MOL0     H14991  -0.310  10.429  10.201 -1.2576  0.3563 -1.0739
  114MOL0     H14992  -0.259  10.574  10.104  3.0430  0.3794 -0.5782
  114MOL0     H14993  -0.450  10.416  10.044  1.6080 -1.1125  4.7521
  114MOL0     H14994  -0.328  10.295   9.988 -0.9669 -1.7345  2.4073
  114MOL0     H14995  -0.270  10.409   9.814 -0.3740 -1.5281  0.1680
  114MOL0     H14996  -0.287  10.572   9.883  1.4352 -0.4108 -0.1728
  114MOL0     H14997  -0.431  10.511   9.681 -1.2097 -2.0730 -0.8332
  114MOL0     H14998  -0.517  10.395   9.781  0.5838 -0.8964 -0.1824
  114MOL0     H14999  -0.497  10.683   9.871 -0.1191 -0.0487  1.0260
  114MOL0     H15000  -0.616  10.554   9.910  0.3409 -1.5634 -0.1927
  114MOL0     H15001  -0.776  10.478   9.685  1.1037 -0.4137 -1.1250
  114MOL0     H15002  -0.938  10.509   9.478 -0.2838  0.4845 -2.5460
  114MOL0     H15003  -0.846  10.607   9.363 -1.5820  0.0799 -1.4403
  114MOL0     H15004  -0.957  10.805   9.433 -1.3363  1.0610  1.9863
  114MOL0     H15005  -1.052  10.726   9.554 -1.2818 -0.5072  0.1874
  114MOL0     H15006  -1.054  10.646   9.270  1.3678 -0.1067  0.6399
  114MOL0     H15007  -1.174  10.606   9.398  1.8797 -0.3567  1.6587
  114MOL0     H15008  -1.264  10.769   9.255  0.1316  0.0291 -0.1182
  114MOL0     H15009  -1.136  10.893   9.299  0.8647  0.0963  0.1488
  114MOL0     H15010  -1.384  10.968   9.254 -1.9197 -0.4194 -1.4440
  114MOL0     H15011  -1.571  11.136   9.285 -0.4207 -0.6945  0.0543
  114MOL0     H15012  -1.842  11.410   9.588 -0.1079 -1.4485 -0.4056
  114MOL0     H15013  -2.034  11.566   9.562  0.5680  3.1881 -2.0218
  114MOL0     H15014  -2.293  11.504   9.167 -0.4241 -0.0408 -0.9284
  114MOL0     H15015  -2.173  11.646   9.162 -0.6556  3.1679  2.2844
  114MOL0     H15016  -2.327  11.782   9.252 -1.4749  0.4209 -2.7965
  114MOL0     H15017  -2.454  11.666   9.283  1.2566 -0.4564  0.8517
  114MOL0     H15018  -2.350  11.735   9.004  1.0621 -1.5866  0.3721
  114MOL0     H15019  -2.485  11.809   9.097 -1.4976 -0.4594 -2.4252
  114MOL0     H15020  -2.455  11.512   9.029  0.4852  1.1564 -0.9583
  114MOL0     H15021  -2.600  11.581   9.107  0.6828  0.0944  1.1983
  114MOL0     H15022  -2.518  11.634   8.819 -2.3306 -0.2473 -0.8876
  114MOL0     H15023  -2.647  11.706   8.903  0.4505  0.4894 -2.6663
  114MOL0     H15024  -2.751  11.482   8.932 -0.5047 -0.2860 -0.2943
  114MOL0     H15025  -2.607  11.387   8.893 -1.5735 -2.0004 -3.2061
  114MOL0     H15026  -2.758  11.552   8.677  1.3023 -0.4162 -2.2903
  114MOL0     H15027  -2.638  11.430   8.647  0.8745  1.4721 -0.0573
  114MOL0     H15028  -2.835  11.355   8.582 -0.3767 -0.9463 -0.1719
  114MOL0     H15029  -2.915  11.407   8.732 -0.9562 -1.7493 -2.6811
  114MOL0     H15030  -2.107  11.394   9.166  1.5357 -2.6217 -0.2358
  114MOL0     H15031  -1.913  11.245   9.199  0.1168 -1.3303  1.2124
  114MOL0     H15032  -1.599  11.026   9.705 -0.7143 -1.1964 -0.5571
  114MOL0     H15033  -1.394  10.884   9.683  0.4728  1.7834  1.4353
  114MOL0     H15034   0.397  10.375  10.171 -0.2735 -0.9179 -1.3431
  114MOL0     H15035   0.622  10.421  10.112 -0.1439 -1.0389  0.0657
  114MOL0     H15036   0.852  10.830   9.878  1.9423  0.0856  2.4104
  114MOL0     H15037   1.038  10.931   9.782 -0.4782  0.6060  4.0040
  114MOL0     H15038   1.392  10.724   9.643  0.2668 -0.2423 -0.9448
  114MOL0     H15039   1.424  10.746   9.825  2.3945  3.0339  0.8510
  114MOL0     H15040   1.441  10.981   9.641 -2.4091  1.8634  1.9814
  114MOL0     H15041   1.479  10.974   9.813  0.9002 -1.9509  1.3999
  114MOL0     H15042   1.637  10.805   9.610 -0.8438 -0.5183  0.0606
  114MOL0     H15043   1.655  10.809   9.791  1.5295 -0.8039 -1.3461
  114MOL0     H15044   1.704  11.032   9.592 -0.2921 -0.0837 -0.0619
  114MOL0     H15045   1.717  11.043   9.767 -1.7355 -1.7669  2.4531
  114MOL0     H15046   2.058  10.823   9.628  0.3957 -1.3188  2.1791
  114MOL0     H15047   1.266  10.579   9.822  0.3716  0.6850 -2.8845
  114MOL0     H15048   1.065  10.454   9.898  0.1961 -0.6859 -0.4017
  115MOL0     O15049   7.521   6.481  11.093 -0.8253 -0.3678  0.2356
  115MOL0     C15050   7.640   6.476  11.055  0.8988 -0.7350  0.1157
  115MOL0     O15051   7.698   6.563  10.958 -0.2191 -0.1488  0.0756
  115MOL0     C15052   7.626   6.662  10.895  0.6030  0.1216  0.1457
  115MOL0     C15053   7.640   6.667  10.751  0.6337 -0.5315  0.4241
  115MOL0     C15054   7.553   6.754  10.689 -1.0419 -0.8180  0.4908
  115MOL0     C15055   7.462   6.836  10.751  0.8669  0.5884 -0.1581
  115MOL0     O15056   7.404   6.943  10.691  0.4585  0.7928 -0.2042
  115MOL0     C15057   7.327   6.906  10.581 -0.1425 -1.1346  0.0386
  115MOL0     C15058   7.258   7.027  10.505 -0.5575  0.5632  0.5284
  115MOL0     C15059   7.177   6.975  10.386 -0.2397 -0.2144 -0.0302
  115MOL0     C15060   7.102   7.074  10.308 -0.4763 -0.1430  0.0652
  115MOL0     C15061   6.958   7.022  10.257  0.0383  0.1464  0.2426
  115MOL0     C15062   6.978   6.943  10.119 -0.0414 -0.0643 -0.1736
  115MOL0     C15063   6.847   6.879  10.073 -0.0013 -0.3687 -0.6903
  115MOL0     C15064   6.752   6.976  10.006  0.0882  0.7146  0.0091
  115MOL0     N15065   6.650   6.905   9.932  0.3760 -0.2929 -1.0358
  115MOL0     C15066   6.572   6.808   9.970  0.1341  0.6172 -0.5172
  115MOL0     C15067   6.517   6.752   9.862 -0.9620  1.1792  0.8688
  115MOL0     C15068   6.427   6.629   9.848 -0.8590  0.3740 -0.1493
  115MOL0     C15069   6.316   6.619   9.945  0.4962  0.2455  0.4121
  115MOL0     C15070   6.217   6.735   9.930 -0.3299  0.2635  0.1004
  115MOL0     C15071   6.162   6.774   9.791  0.3027 -0.2036 -1.0422
  115MOL0     O15072   6.061   6.891   9.794 -0.1567  0.0713 -0.1959
  115MOL0     C15073   5.932   6.868   9.769  0.0351 -0.0285 -0.0090
  115MOL0     C15074   5.861   6.978   9.703  0.4119  0.6209  1.0132
  115MOL0     C15075   5.731   6.955   9.684  0.8126  0.4248  0.2439
  115MOL0     C15076   5.660   6.836   9.720  0.1416  0.2541  0.3477
  115MOL0     C15077   5.524   6.803   9.677  0.6359  0.6535  0.3804
  115MOL0     O15078   5.455   6.893   9.602  0.7054  0.4586  0.3868
  115MOL0     C15079   5.321   6.881   9.591 -0.3848 -0.8164  0.3378
  115MOL0     C15080   5.245   6.987   9.642  0.0492 -0.8977 -0.0627
  115MOL0     C15081   5.103   6.993   9.613 -0.9517  0.2082  0.9379
  115MOL0     C15082   5.041   6.886   9.551  0.2018 -0.1171 -0.1966
  115MOL0     O15083   4.910   6.902   9.513 -0.5853 -0.0378 -0.4134
  115MOL0     C15084   4.825   6.832   9.596  0.2608  0.1067 -0.2284
  115MOL0     C15085   4.687   6.837   9.527  0.4448 -0.0041 -0.3409
  115MOL0     C15086   4.570   6.777   9.605  1.0853 -0.4223  0.2589
  115MOL0     C15087   4.447   6.832   9.527  0.5091  0.2262 -0.2625
  115MOL0     C15088   4.322   6.764   9.588  0.0917  0.0030  0.8589
  115MOL0     C15089   4.204   6.792   9.501  0.1790  0.3396  0.4945
  115MOL0     C15090   4.063   6.731   9.545  0.2430 -0.0735  0.1572
  115MOL0     C15091   3.948   6.784   9.455  0.5094 -0.1943  0.2832
  115MOL0    Cl15092   3.981   6.797   9.279  0.0863 -0.6063  0.3258
  115MOL0     C15093   5.118   6.785   9.499 -0.3879 -0.7048 -1.1033
  115MOL0     C15094   5.254   6.776   9.532  1.0729  0.4203 -0.0382
  115MOL0     O15095   5.480   6.691   9.713  0.1801  0.3323 -0.0998
  115MOL0     C15096   5.726   6.741   9.798 -0.0868  0.1965 -0.0205
  115MOL0     C15097   5.863   6.750   9.819  1.0665 -0.4848 -0.2023
  115MOL0     N15098   6.556   6.831   9.753  0.7380 -0.7905  0.0276
  115MOL0     N15099   6.642   6.912   9.796  0.9046  0.1272  0.5939
  115MOL0     C15100   7.444   6.829  10.886 -0.3955  0.6875  0.4240
  115MOL0     C15101   7.530   6.744  10.959 -0.6001 -0.3016  0.0321
  115MOL0     C15102   7.713   6.354  11.102 -0.4925 -0.0908 -0.6964
  115MOL0     C15103   7.813   6.313  11.019 -0.2171  0.0588  0.1555
  115MOL0     C15104   7.879   6.192  11.050 -0.0621 -0.5137  0.3105
  115MOL0     C15105   7.838   6.109  11.159  0.5046  0.1711  0.0182
  115MOL0     O15106   7.893   5.986  11.189 -0.9114 -0.4182 -0.5911
  115MOL0     C15107   7.891   5.883  11.091  0.0155  0.0695  0.5747
  115MOL0     C15108   7.912   5.749  11.160 -0.1445 -0.7713  0.2480
  115MOL0     C15109   7.971   5.637  11.071  0.0930 -0.3519 -1.0344
  115MOL0     C15110   8.117   5.593  11.113 -0.9215 -0.0969 -0.4000
  115MOL0     C15111   8.116   5.521  11.242  0.6175  0.2863 -0.0488
  115MOL0     C15112   8.121   5.454  11.344  0.3618  0.3894  0.3764
  115MOL0     C15113   7.725   6.149  11.237  0.2416 -1.4152  0.7874
  115MOL0     C15114   7.660   6.274  11.203 -0.6987  0.3719  0.0212
  115MOL0     H15115   7.713   6.611  10.694  0.1082 -1.0891  0.2914
  115MOL0     H15116   7.573   6.776  10.585  3.0234  0.6933  1.3957
  115MOL0     H15117   7.248   6.838  10.615 -0.2341 -1.6161 -1.0899
  115MOL0     H15118   7.382   6.858  10.500  2.2592 -1.1821  1.6247
  115MOL0     H15119   7.338   7.093  10.470 -0.9878  0.6699 -0.2752
  115MOL0     H15120   7.192   7.071  10.580  0.6608 -2.4929  3.6656
  115MOL0     H15121   7.099   6.910  10.427 -0.6096 -0.0899 -0.5351
  115MOL0     H15122   7.247   6.921  10.321  0.6091 -1.2472  1.6764
  115MOL0     H15123   7.090   7.157  10.379 -1.6895  0.5695 -0.9229
  115MOL0     H15124   7.159   7.109  10.222 -0.9583  2.4921  0.7107
  115MOL0     H15125   6.892   7.108  10.245 -2.1967 -1.3473  1.1366
  115MOL0     H15126   6.913   6.959  10.335  1.1657 -1.3082 -0.2200
  115MOL0     H15127   7.051   6.864  10.138  1.4709  0.9660 -1.3727
  115MOL0     H15128   7.012   7.006  10.036  0.2240  2.0369  1.4496
  115MOL0     H15129   6.865   6.792  10.010 -1.2734 -1.2097  0.0604
  115MOL0     H15130   6.793   6.842  10.161 -2.3694 -0.8857 -2.2622
  115MOL0     H15131   6.813   7.039   9.941 -0.1447 -0.6556 -1.6260
  115MOL0     H15132   6.701   7.039  10.079 -2.2369  0.7961 -1.5755
  115MOL0     H15133   6.554   6.762  10.067  2.1249  0.9363  0.0333
  115MOL0     H15134   6.479   6.535   9.867 -2.4924 -0.8355 -1.4175
  115MOL0     H15135   6.388   6.629   9.746 -2.4411  3.4909  0.3146
  115MOL0     H15136   6.360   6.626  10.045 -0.2604 -1.1981  0.8653
  115MOL0     H15137   6.273   6.519   9.934  2.1508 -0.3578 -1.0876
  115MOL0     H15138   6.125   6.715   9.986 -0.6312  1.8268  0.2085
  115MOL0     H15139   6.273   6.825   9.958  1.9080 -0.3946 -1.9576
  115MOL0     H15140   6.118   6.680   9.755 -2.5897 -0.7074  2.9734
  115MOL0     H15141   6.231   6.793   9.710 -0.4013 -1.7065 -2.0504
  115MOL0     H15142   5.910   7.069   9.669  0.7460 -0.0375 -0.3318
  115MOL0     H15143   5.670   7.030   9.635 -1.3375  0.4055  2.6384
  115MOL0     H15144   5.296   7.063   9.701  3.3205 -1.3135 -2.0791
  115MOL0     H15145   5.039   7.074   9.646  1.3117  1.9875  1.2374
  115MOL0     H15146   4.815   6.883   9.692  1.7269  1.0509 -0.5451
  115MOL0     H15147   4.856   6.728   9.610  1.2373  0.1088 -2.1013
  115MOL0     H15148   4.680   6.790   9.428 -0.3076  1.2694 -0.9268
  115MOL0     H15149   4.666   6.939   9.494  2.3464  1.2165  1.9020
  115MOL0     H15150   4.570   6.825   9.704 -0.3565 -2.5354  1.3525
  115MOL0     H15151   4.573   6.669   9.626 -0.0452 -1.1560 -2.9243
  115MOL0     H15152   4.428   6.939   9.538 -3.4497 -0.3609  0.1080
  115MOL0     H15153   4.454   6.811   9.420  0.2240  0.5487 -0.3450
  115MOL0     H15154   4.307   6.798   9.691 -1.4462 -0.4499  0.8046
  115MOL0     H15155   4.333   6.656   9.598 -1.8506 -0.1134  2.5646
  115MOL0     H15156   4.226   6.742   9.406  2.4450  1.4701  0.3422
  115MOL0     H15157   4.192   6.898   9.478 -2.6938 -0.0661 -0.2350
  115MOL0     H15158   4.074   6.623   9.534 -1.9255 -0.5189  1.7422
  115MOL0     H15159   4.037   6.754   9.649 -1.6326  1.1549 -0.5325
  115MOL0     H15160   3.917   6.885   9.483 -2.2150 -0.5947 -0.9559
  115MOL0     H15161   3.856   6.726   9.461  0.7493 -1.8906 -5.8684
  115MOL0     H15162   5.074   6.713   9.431  1.5729 -0.5644 -2.6012
  115MOL0     H15163   5.309   6.689   9.498 -0.7226 -0.6863 -0.2482
  115MOL0     H15164   5.679   6.650   9.834 -0.5197  0.4575  0.0680
  115MOL0     H15165   5.906   6.676   9.886 -0.2146 -0.4259  0.7297
  115MOL0     H15166   7.368   6.891  10.932 -0.8764 -0.5854  1.3876
  115MOL0     H15167   7.523   6.732  11.066 -2.5727 -0.6661 -0.1109
  115MOL0     H15168   7.850   6.366  10.932 -1.3811 -0.6209 -0.7797
  115MOL0     H15169   7.954   6.162  10.977 -0.8941  1.4651 -1.4568
  115MOL0     H15170   7.968   5.899  11.015 -0.3131  0.0674  0.2396
  115MOL0     H15171   7.794   5.865  11.044 -0.4654 -4.4844  2.8241
  115MOL0     H15172   7.980   5.767  11.244 -1.0607  0.0201  0.8343
  115MOL0     H15173   7.813   5.713  11.186 -0.0148 -2.8746 -1.8340
  115MOL0     H15174   7.974   5.659  10.964  2.7267 -4.7197 -2.0861
  115MOL0     H15175   7.912   5.545  11.076  0.4962 -0.6740 -1.9660
  115MOL0     H15176   8.152   5.520  11.039  2.8942 -1.0096  2.0220
  115MOL0     H15177   8.186   5.677  11.123  0.9929 -1.4214 -1.7756
  115MOL0     H15178   8.114   5.396  11.433  0.9408  0.8393  0.7225
  115MOL0     H15179   7.690   6.091  11.321  0.2378 -0.3876  1.5206
  115MOL0     H15180   7.568   6.294  11.258 -0.9365 -0.5613 -0.0226
  116MOL0     O15181   3.526   3.867   8.316 -0.6047  0.4213  0.5487
  116MOL0     C15182   3.523   3.989   8.314 -0.6057  0.8178 -0.5122
  116MOL0     O15183   3.408   4.066   8.326 -0.9831  0.3319 -0.1978
  116MOL0     C15184   3.279   4.022   8.334 -0.4377 -0.3093  0.6871
  116MOL0     C15185   3.188   4.128   8.347  0.1249 -0.3802  0.4685
  116MOL0     C15186   3.049   4.099   8.336 -0.3267 -1.4786 -0.3570
  116MOL0     C15187   3.004   3.968   8.337 -0.7147 -0.5480  0.2220
  116MOL0     O15188   2.875   3.930   8.349  0.5890  0.0290  0.5560
  116MOL0     C15189   2.762   4.027   8.372 -0.2716  0.0826  0.3973
  116MOL0     C15190   2.619   3.989   8.397 -1.3677 -0.5898 -0.1397
  116MOL0     C15191   2.599   3.872   8.487  1.0520  0.1022  0.0368
  116MOL0     C15192   2.454   3.826   8.473  0.2157  0.5265  0.1924
  116MOL0     C15193   2.422   3.695   8.557 -0.1230 -0.1290  0.5997
  116MOL0     C15194   2.274   3.679   8.572  0.1570  0.5629  0.6601
  116MOL0     C15195   2.231   3.556   8.646  0.4943 -0.1818 -0.2183
  116MOL0     C15196   2.255   3.533   8.794 -0.1738 -0.3294 -0.1801
  116MOL0     N15197   2.200   3.641   8.870  0.7999 -0.5009 -0.3452
  116MOL0     C15198   2.067   3.665   8.891 -0.5621 -0.3867  0.2118
  116MOL0     C15199   2.070   3.744   9.005 -0.0004  1.0033  0.0494
  116MOL0     C15200   1.945   3.786   9.082  0.3889 -0.1269 -0.3815
  116MOL0     C15201   1.916   3.712   9.213 -0.2062  0.0244  0.4069
  116MOL0     C15202   1.820   3.786   9.300  0.1105 -0.0593  1.1268
  116MOL0     C15203   1.832   3.764   9.442 -0.1485  0.5407 -0.3022
  116MOL0     O15204   1.788   3.634   9.477  0.2300  0.7286 -0.0555
  116MOL0     C15205   1.654   3.605   9.478  0.2933 -0.6606  1.0496
  116MOL0     C15206   1.615   3.467   9.485 -0.2552 -0.0302  0.1553
  116MOL0     C15207   1.485   3.420   9.490  0.7941  0.6992 -0.1355
  116MOL0     C15208   1.376   3.511   9.469 -0.0470 -0.5814 -0.0931
  116MOL0     C15209   1.233   3.478   9.449 -0.6371  0.3422  0.1725
  116MOL0     O15210   1.211   3.344   9.429  0.1511  1.1930 -0.1644
  116MOL0     C15211   1.077   3.303   9.405 -0.1489  0.1852 -0.4129
  116MOL0     C15212   0.983   3.295   9.512  0.1803 -0.2740 -0.5150
  116MOL0     C15213   0.851   3.258   9.484  0.4905 -0.0720 -0.1449
  116MOL0     C15214   0.810   3.221   9.352  0.7904 -0.5665 -1.0398
  116MOL0     O15215   0.682   3.200   9.308 -0.1383  0.8827 -0.0780
  116MOL0     C15216   0.573   3.198   9.406 -0.3871 -0.8169 -0.1939
  116MOL0     C15217   0.534   3.343   9.443  0.1443  0.4290 -1.0195
  116MOL0     C15218   0.415   3.356   9.531  1.1703  0.7658  0.3416
  116MOL0     C15219   0.386   3.496   9.568  0.2435  1.4181 -0.6905
  116MOL0     C15220   0.248   3.502   9.638 -0.6244  0.3703  0.0411
  116MOL0     C15221   0.175   3.629   9.631  0.9260 -0.8759  0.1081
  116MOL0     C15222   0.025   3.624   9.668  0.1472  0.2346 -0.2695
  116MOL0     C15223   0.006   3.590   9.821 -0.1185  0.1976 -0.0647
  116MOL0    Cl15224  -0.164   3.617   9.875 -0.1573 -0.4875  0.0263
  116MOL0     C15225   0.909   3.214   9.251 -0.1604  0.1631 -0.3764
  116MOL0     C15226   1.039   3.258   9.275  0.5546 -0.0127 -0.0262
  116MOL0     O15227   1.149   3.566   9.439 -0.1038 -0.5978 -0.8163
  116MOL0     C15228   1.418   3.654   9.466 -0.0556  0.4568  0.1265
  116MOL0     C15229   1.551   3.699   9.465  0.9957  0.4707 -1.2338
  116MOL0     N15230   2.203   3.778   9.041  0.4453 -0.1416 -0.2375
  116MOL0     N15231   2.278   3.706   8.965  0.6231  0.4157  0.3228
  116MOL0     C15232   3.093   3.865   8.331 -0.1515 -0.1204  0.1748
  116MOL0     C15233   3.228   3.893   8.324  0.2504  0.8908  0.3018
  116MOL0     C15234   3.642   4.072   8.295 -0.3003 -0.1711  0.2886
  116MOL0     C15235   3.770   4.012   8.297 -0.3717 -0.3942 -0.1138
  116MOL0     C15236   3.884   4.095   8.287  0.0361 -0.2759 -0.2864
  116MOL0     C15237   3.879   4.234   8.267 -0.0166 -0.0095 -0.6962
  116MOL0     O15238   3.984   4.322   8.267 -0.5372  0.2389  0.5154
  116MOL0     C15239   4.113   4.264   8.283 -0.2205 -0.1317 -0.1546
  116MOL0     C15240   4.213   4.385   8.309 -0.0868 -0.3904 -0.3141
  116MOL0     C15241   4.355   4.333   8.324 -0.1032 -0.5146 -0.1192
  116MOL0     C15242   4.456   4.437   8.330  0.1149  0.4136  0.3483
  116MOL0     C15243   4.468   4.505   8.204 -0.5685  0.3415 -0.4103
  116MOL0     C15244   4.469   4.560   8.098 -0.2897  0.0773  0.4450
  116MOL0     C15245   3.752   4.285   8.250  1.0073  0.1560 -0.0287
  116MOL0     C15246   3.636   4.208   8.262  0.1496  0.0288 -1.2951
  116MOL0     H15247   3.214   4.234   8.352  1.0990 -0.4742 -1.3785
  116MOL0     H15248   2.979   4.180   8.352 -0.5934 -1.8823  0.5993
  116MOL0     H15249   2.764   4.109   8.300 -0.8859  0.9029  1.2892
  116MOL0     H15250   2.791   4.061   8.472 -0.0738 -0.1635  0.4266
  116MOL0     H15251   2.567   3.982   8.301 -1.4152  0.7649 -0.2355
  116MOL0     H15252   2.566   4.072   8.445  2.8327  3.1172 -1.1965
  116MOL0     H15253   2.609   3.899   8.593  0.5903  0.4260  0.0037
  116MOL0     H15254   2.670   3.792   8.467  1.2218  1.0902 -4.2505
  116MOL0     H15255   2.381   3.905   8.490  1.7388  2.4190 -1.4433
  116MOL0     H15256   2.451   3.799   8.366 -0.0178  0.5232  0.1997
  116MOL0     H15257   2.462   3.720   8.656 -0.6456  0.3339  0.7017
  116MOL0     H15258   2.467   3.603   8.519 -2.0875 -1.1835  0.7077
  116MOL0     H15259   2.223   3.676   8.475 -2.6605 -0.0737  2.0727
  116MOL0     H15260   2.226   3.768   8.615  0.6826  1.4496 -0.5253
  116MOL0     H15261   2.127   3.533   8.620  0.7874  0.4479 -2.1188
  116MOL0     H15262   2.287   3.471   8.606  0.4789 -0.1463 -0.3165
  116MOL0     H15263   2.363   3.523   8.812 -0.1946 -1.1378 -0.4491
  116MOL0     H15264   2.221   3.437   8.834  0.2527  0.0842  1.2107
  116MOL0     H15265   1.980   3.623   8.842 -0.9351  2.8386 -2.2204
  116MOL0     H15266   1.861   3.768   9.016  0.1460 -2.2428  0.4326
  116MOL0     H15267   1.963   3.893   9.100 -0.2695  0.0806 -0.9402
  116MOL0     H15268   2.016   3.685   9.250  0.7222 -0.7525 -2.4481
  116MOL0     H15269   1.871   3.621   9.175  0.4028  0.5635 -1.7327
  116MOL0     H15270   1.831   3.895   9.296 -2.1134  0.1797 -0.8833
  116MOL0     H15271   1.724   3.768   9.251  0.3552  1.9706 -0.2338
  116MOL0     H15272   1.776   3.831   9.507  0.3662  0.7833 -0.1084
  116MOL0     H15273   1.934   3.779   9.479 -0.6369 -1.8885  2.4112
  116MOL0     H15274   1.691   3.390   9.490  0.5593  0.8271  2.0762
  116MOL0     H15275   1.460   3.314   9.491  0.5993  0.7469  0.3498
  116MOL0     H15276   1.009   3.312   9.616 -0.6442 -0.6579 -0.2346
  116MOL0     H15277   0.776   3.256   9.562  0.1205  0.6550 -0.4656
  116MOL0     H15278   0.599   3.134   9.490  0.3240 -2.4844 -1.6011
  116MOL0     H15279   0.488   3.153   9.353 -0.6701  0.5864 -1.0057
  116MOL0     H15280   0.506   3.397   9.352  1.0229 -1.4610 -2.4769
  116MOL0     H15281   0.621   3.391   9.489  1.6114 -1.4218 -1.7142
  116MOL0     H15282   0.416   3.289   9.618  0.2702  1.2688  0.7521
  116MOL0     H15283   0.326   3.324   9.476  0.4944 -0.0814  1.8552
  116MOL0     H15284   0.464   3.541   9.631 -0.2443  2.1311 -0.5853
  116MOL0     H15285   0.376   3.552   9.475  2.0304  2.2241 -0.4331
  116MOL0     H15286   0.254   3.481   9.745  0.5828  2.2170  0.3742
  116MOL0     H15287   0.186   3.429   9.585  0.9394 -1.1055  0.1603
  116MOL0     H15288   0.167   3.660   9.527 -1.3551 -1.4653  0.0505
  116MOL0     H15289   0.221   3.707   9.694 -1.4790  0.2562  0.5886
  116MOL0     H15290  -0.016   3.724   9.651  0.1349  0.3579  0.4722
  116MOL0     H15291  -0.033   3.551   9.611 -1.6626 -0.0525  1.7871
  116MOL0     H15292   0.067   3.663   9.874  2.5674 -1.3972 -0.8000
  116MOL0     H15293   0.042   3.489   9.844  1.0109  0.1508 -1.8749
  116MOL0     H15294   0.877   3.191   9.150 -0.6472 -1.2831  0.0778
  116MOL0     H15295   1.108   3.268   9.192 -1.4215 -2.2458 -2.0705
  116MOL0     H15296   1.338   3.722   9.436 -1.3569 -1.6618 -1.6293
  116MOL0     H15297   1.569   3.806   9.467  0.6648  0.5191  0.9479
  116MOL0     H15298   3.067   3.762   8.310  0.0325 -0.0001 -0.7214
  116MOL0     H15299   3.290   3.805   8.314 -1.2564 -0.1707 -0.1887
  116MOL0     H15300   3.775   3.907   8.324 -0.8322 -0.3708  0.0705
  116MOL0     H15301   3.980   4.045   8.292 -0.8975 -2.2784 -1.2670
  116MOL0     H15302   4.146   4.209   8.194  1.3261 -1.2194  1.0282
  116MOL0     H15303   4.116   4.197   8.369 -0.0378 -1.2444 -0.9931
  116MOL0     H15304   4.194   4.449   8.222 -0.3378 -0.4242 -0.2857
  116MOL0     H15305   4.194   4.445   8.398  2.4844  0.8916 -0.5363
  116MOL0     H15306   4.393   4.277   8.238  1.1616  0.4043 -0.1876
  116MOL0     H15307   4.364   4.267   8.411  3.2930  3.6884  3.2186
  116MOL0     H15308   4.423   4.517   8.396 -0.6995 -0.2083  0.7057
  116MOL0     H15309   4.551   4.398   8.368  0.9518  0.0632 -1.9076
  116MOL0     H15310   4.476   4.594   7.997 -1.8044 -0.1020  0.2541
  116MOL0     H15311   3.735   4.392   8.240  0.7010  0.2686  1.3849
  116MOL0     H15312   3.537   4.254   8.263  0.4411  0.8436  1.9672
  117MOL0     O15313   0.186  10.282   7.162 -0.0790 -0.2161  0.1772
  117MOL0     C15314   0.252  10.317   7.062  0.7574  0.2051 -0.1557
  117MOL0     O15315   0.237  10.432   6.996 -0.0631 -0.1296  0.3688
  117MOL0     C15316   0.146  10.531   7.028 -0.2353 -0.4447  0.3590
  117MOL0     C15317   0.093  10.598   6.919 -0.0241  0.2730  0.7590
  117MOL0     C15318  -0.005  10.699   6.934 -0.2692 -0.1556  0.0946
  117MOL0     C15319  -0.046  10.736   7.064  0.5066  0.1922 -0.3907
  117MOL0     O15320  -0.145  10.830   7.084  0.3954 -0.7391  0.8386
  117MOL0     C15321  -0.210  10.847   7.214 -0.7383 -0.0206  0.2200
  117MOL0     C15322  -0.327  10.945   7.200  0.2494 -0.5378  0.6549
  117MOL0     C15323  -0.433  10.907   7.090 -0.0278 -1.0123  0.3566
  117MOL0     C15324  -0.534  11.024   7.067 -0.1287 -0.1679  0.0328
  117MOL0     C15325  -0.660  10.985   6.976 -0.3927  0.1096  0.2731
  117MOL0     C15326  -0.723  11.115   6.928  0.7042 -1.0571  0.2037
  117MOL0     C15327  -0.859  11.093   6.859  0.1488  0.3388  0.0239
  117MOL0     C15328  -0.908  11.215   6.781  0.5386  0.6075  0.3504
  117MOL0     N15329  -0.877  11.199   6.638  0.3019 -0.3570  0.0985
  117MOL0     C15330  -0.966  11.243   6.544 -0.0882 -1.3751  0.4111
  117MOL0     C15331  -0.899  11.222   6.424 -0.2571  0.3803 -0.2905
  117MOL0     C15332  -0.951  11.245   6.292  0.4300  0.0006 -0.6758
  117MOL0     C15333  -1.104  11.225   6.286  0.4364 -0.7245  0.6710
  117MOL0     C15334  -1.153  11.079   6.310  0.3263 -0.5624 -1.0001
  117MOL0     C15335  -1.307  11.076   6.308 -0.2181 -0.4237  0.1591
  117MOL0     O15336  -1.359  11.117   6.189  0.5901  1.0478 -0.0299
  117MOL0     C15337  -1.496  11.137   6.184 -0.1305 -0.7762  0.6891
  117MOL0     C15338  -1.590  11.068   6.263  0.6416 -0.3479  0.4461
  117MOL0     C15339  -1.731  11.085   6.245 -0.0966 -0.5800  0.2593
  117MOL0     C15340  -1.772  11.171   6.142  0.8309 -0.3766 -0.5242
  117MOL0     C15341  -1.920  11.189   6.114 -1.0388 -0.2182 -0.2689
  117MOL0     O15342  -1.957  11.252   5.992  0.4651  0.0731 -0.4432
  117MOL0     C15343  -2.083  11.317   5.993 -0.4027  0.0691 -0.2550
  117MOL0     C15344  -2.089  11.454   6.021 -0.2468 -0.1924 -1.4237
  117MOL0     C15345  -2.213  11.522   6.043  0.0681  0.0278  0.8281
  117MOL0     C15346  -2.331  11.446   6.022 -0.5180 -0.0164  0.3338
  117MOL0     O15347  -2.452  11.508   6.045  0.1578 -0.1032 -0.2880
  117MOL0     C15348  -2.490  11.511   6.188  0.1334  0.9310  0.4472
  117MOL0     C15349  -2.638  11.562   6.185 -0.9798 -0.2591  0.2682
  117MOL0     C15350  -2.710  11.527   6.305 -0.0489  0.4497 -0.9280
  117MOL0     C15351  -2.846  11.602   6.295  0.3337  0.5034 -0.6659
  117MOL0     C15352  -2.916  11.589   6.430  0.2118  0.4215 -0.4703
  117MOL0     C15353  -3.050  11.665   6.443 -0.2445  0.6387 -0.9052
  117MOL0     C15354  -3.166  11.610   6.363 -0.2755 -0.0869 -0.9534
  117MOL0     C15355  -3.287  11.704   6.397  0.0086  0.5547  0.4411
  117MOL0    Cl15356  -3.441  11.635   6.330  0.0814 -0.4541 -0.2376
  117MOL0     C15357  -2.322  11.317   5.964  0.3720  0.6904 -0.0836
  117MOL0     C15358  -2.197  11.251   5.954  0.6824 -0.0315  0.1103
  117MOL0     O15359  -1.982  11.187   6.222  0.2023  1.2369  0.3351
  117MOL0     C15360  -1.682  11.240   6.065 -0.3994  0.1220  0.2100
  117MOL0     C15361  -1.546  11.225   6.091 -0.2734  0.5325  0.4670
  117MOL0     N15362  -0.773  11.168   6.455  1.0773 -0.4445  0.2747
  117MOL0     N15363  -0.758  11.165   6.585 -0.3027  0.2992  0.0153
  117MOL0     C15364   0.004  10.667   7.177  0.3052 -0.4576  0.2694
  117MOL0     C15365   0.107  10.572   7.159 -0.1383 -0.0649  0.1135
  117MOL0     C15366   0.354  10.221   7.005 -0.0427 -0.5245 -0.6357
  117MOL0     C15367   0.409  10.117   7.073  0.4744  0.9745 -0.7137
  117MOL0     C15368   0.498  10.022   7.011 -0.3266 -0.9202 -0.2413
  117MOL0     C15369   0.536  10.043   6.879  0.6448 -0.9027  0.0806
  117MOL0     O15370   0.636   9.961   6.825 -0.7715  0.7605 -0.2369
  117MOL0     C15371   0.657   9.960   6.684  0.3839 -0.3095 -0.6784
  117MOL0     C15372   0.774   9.851   6.658  0.6190  0.2338 -0.8179
  117MOL0     C15373   0.829   9.859   6.517  0.1145  0.2200 -0.0623
  117MOL0     C15374   0.748   9.791   6.400  0.9041 -0.1066 -0.3285
  117MOL0     C15375   0.831   9.764   6.281  0.1997  0.0831 -0.2622
  117MOL0     C15376   0.891   9.731   6.191 -1.0143 -0.1371 -0.2172
  117MOL0     C15377   0.475  10.146   6.800 -0.0109 -0.3038 -0.8453
  117MOL0     C15378   0.390  10.236   6.873 -0.1278  0.4837  1.1201
  117MOL0     H15379   0.130  10.583   6.818  0.6240 -0.3650  1.0847
  117MOL0     H15380  -0.039  10.753   6.846  1.2412 -2.8367 -2.3295
  117MOL0     H15381  -0.143  10.885   7.292 -1.4700  0.6452  0.5352
  117MOL0     H15382  -0.237  10.748   7.250  1.7478 -0.8366  0.0464
  117MOL0     H15383  -0.284  11.037   7.161  2.1133 -0.8903  1.7827
  117MOL0     H15384  -0.372  10.965   7.298  0.0850 -0.6419  0.6028
  117MOL0     H15385  -0.484  10.812   7.113  0.7109 -2.0133 -1.8107
  117MOL0     H15386  -0.389  10.880   6.994  1.5764  0.3755  0.6654
  117MOL0     H15387  -0.565  11.054   7.168 -0.9613  0.5293 -0.4140
  117MOL0     H15388  -0.486  11.111   7.020 -0.0120 -0.0839  0.3019
  117MOL0     H15389  -0.735  10.934   7.037  0.4984 -1.4810  0.0944
  117MOL0     H15390  -0.640  10.930   6.883 -0.6449  1.1503 -0.4203
  117MOL0     H15391  -0.657  11.173   6.863 -2.1090  1.1520 -0.9101
  117MOL0     H15392  -0.746  11.177   7.015  1.5769  0.5423 -0.6540
  117MOL0     H15393  -0.848  11.009   6.789 -0.0228  1.9467 -2.0167
  117MOL0     H15394  -0.928  11.076   6.942  0.5298  2.1995  0.7613
  117MOL0     H15395  -0.867  11.311   6.814 -3.2911  2.4750  0.1970
  117MOL0     H15396  -1.017  11.214   6.789  0.4614  0.5723 -0.5873
  117MOL0     H15397  -1.061  11.291   6.562  0.9720  0.4904  1.3405
  117MOL0     H15398  -0.899  11.183   6.219 -1.7493 -1.6467 -0.9433
  117MOL0     H15399  -0.924  11.348   6.264 -2.4656  1.3346  0.9466
  117MOL0     H15400  -1.139  11.253   6.186  0.5369 -0.8335  0.6062
  117MOL0     H15401  -1.144  11.301   6.354 -0.1101  0.3688 -0.8018
  117MOL0     H15402  -1.115  11.008   6.236  2.2757 -0.8953  0.2553
  117MOL0     H15403  -1.129  11.042   6.410 -0.8154 -1.2462 -0.9519
  117MOL0     H15404  -1.340  11.142   6.388  3.2229  0.9349  0.6135
  117MOL0     H15405  -1.342  10.975   6.331 -0.9345 -0.0703  0.6408
  117MOL0     H15406  -1.558  10.986   6.327  2.2661 -0.4209 -0.4239
  117MOL0     H15407  -1.802  11.022   6.298 -1.7779  0.7742 -0.3203
  117MOL0     H15408  -1.994  11.505   6.019 -0.2682 -0.1660 -3.5653
  117MOL0     H15409  -2.221  11.626   6.073 -0.9356  0.6123 -1.2674
  117MOL0     H15410  -2.424  11.577   6.244 -0.5924  1.3431  0.8302
  117MOL0     H15411  -2.485  11.417   6.243  0.4111  1.4321  1.3025
  117MOL0     H15412  -2.684  11.509   6.101 -1.6790  0.0999  0.4244
  117MOL0     H15413  -2.638  11.668   6.158 -2.6408 -0.8516 -2.4300
  117MOL0     H15414  -2.656  11.569   6.390 -1.7018 -0.0147  0.4010
  117MOL0     H15415  -2.734  11.422   6.324 -1.5799  1.2483  2.2736
  117MOL0     H15416  -2.842  11.704   6.255 -0.3668  0.7511 -0.1334
  117MOL0     H15417  -2.903  11.541   6.225 -1.0506  0.9392  0.0416
  117MOL0     H15418  -2.851  11.623   6.511 -1.0508 -2.8342  2.1205
  117MOL0     H15419  -2.936  11.485   6.458 -1.4088  0.7654 -0.2253
  117MOL0     H15420  -3.021  11.764   6.406  3.1504  0.4161  0.7610
  117MOL0     H15421  -3.080  11.671   6.548 -0.1733  0.8445 -0.8973
  117MOL0     H15422  -3.151  11.612   6.255 -2.4202  1.2397 -1.2740
  117MOL0     H15423  -3.196  11.511   6.399 -2.7120  1.6019  2.2265
  117MOL0     H15424  -3.266  11.802   6.353  0.9343 -0.4378 -1.4781
  117MOL0     H15425  -3.304  11.722   6.504  0.5365 -2.6257  1.1611
  117MOL0     H15426  -2.405  11.257   5.930  1.1432 -1.0944  1.0358
  117MOL0     H15427  -2.178  11.150   5.920 -2.0028 -0.6601  0.2264
  117MOL0     H15428  -1.716  11.299   5.980 -3.3488  3.2537  3.2348
  117MOL0     H15429  -1.468  11.267   6.029  0.8435 -0.0585  1.4484
  117MOL0     H15430  -0.024  10.698   7.277 -1.9910 -0.7750 -0.2143
  117MOL0     H15431   0.140  10.531   7.254  0.4306  0.6418  0.2233
  117MOL0     H15432   0.397  10.120   7.181 -2.0359  0.8009 -0.9248
  117MOL0     H15433   0.544   9.940   7.065  3.2092  2.7077  2.8985
  117MOL0     H15434   0.699  10.054   6.648 -0.8203 -0.0792 -1.5626
  117MOL0     H15435   0.565   9.940   6.627 -0.0798 -0.1696 -0.0027
  117MOL0     H15436   0.863   9.876   6.716  0.6760  2.2723 -1.7131
  117MOL0     H15437   0.733   9.754   6.687 -0.4752  1.2236  1.1295
  117MOL0     H15438   0.924   9.804   6.514 -0.5641 -1.2528  2.3640
  117MOL0     H15439   0.855   9.961   6.486 -0.7189  0.1639 -0.9985
  117MOL0     H15440   0.711   9.701   6.450  0.3317  0.5201  0.3968
  117MOL0     H15441   0.661   9.848   6.365  1.6452  1.3260  0.0947
  117MOL0     H15442   0.937   9.694   6.102  2.9347  0.4388  1.3708
  117MOL0     H15443   0.498  10.171   6.697 -1.0732 -1.9918 -1.5401
  117MOL0     H15444   0.353  10.318   6.813 -0.5339  0.2298  1.0211
  118MOL0     O15445   1.923   3.733   5.438 -0.3095 -0.1577  0.5374
  118MOL0     C15446   1.930   3.684   5.326 -0.2696  0.0853  1.0312
  118MOL0     O15447   1.833   3.688   5.225 -0.1338 -0.1559 -0.1375
  118MOL0     C15448   1.703   3.738   5.251 -0.5265 -0.0661  0.2460
  118MOL0     C15449   1.677   3.859   5.314  0.0089 -0.5836  0.0784
  118MOL0     C15450   1.554   3.898   5.352  0.0293 -0.6688  0.2429
  118MOL0     C15451   1.445   3.811   5.322 -0.3137  0.2163  0.8777
  118MOL0     O15452   1.312   3.840   5.341 -0.5187  0.0367  0.2429
  118MOL0     C15453   1.259   3.969   5.345 -0.7750 -0.4171  0.0400
  118MOL0     C15454   1.113   3.981   5.399  0.1212 -0.9067 -0.3656
  118MOL0     C15455   1.017   3.866   5.363 -0.4872  0.3982  0.6781
  118MOL0     C15456   0.872   3.878   5.417  0.4926 -0.4096  0.0418
  118MOL0     C15457   0.769   3.807   5.334 -0.1795 -0.6226  0.7837
  118MOL0     C15458   0.638   3.787   5.420 -0.6055 -0.2617 -0.5127
  118MOL0     C15459   0.506   3.797   5.339 -0.1307 -0.4354 -1.3325
  118MOL0     C15460   0.446   3.672   5.266 -0.2562 -0.2598 -0.3409
  118MOL0     N15461   0.302   3.685   5.241  0.5874  0.0432  0.8647
  118MOL0     C15462   0.239   3.786   5.162 -0.5119  0.2540 -0.7951
  118MOL0     C15463   0.104   3.757   5.192  0.0083  0.3127  0.4662
  118MOL0     C15464  -0.018   3.822   5.123 -0.5233 -0.0756  0.1075
  118MOL0     C15465  -0.148   3.806   5.206 -0.0677  1.2995  0.2461
  118MOL0     C15466  -0.243   3.696   5.140 -0.0198 -0.9546 -0.3456
  118MOL0     C15467  -0.382   3.711   5.195 -0.0520  0.2441  0.5266
  118MOL0     O15468  -0.479   3.620   5.136 -0.2122  0.0498 -0.3801
  118MOL0     C15469  -0.608   3.651   5.160 -0.2662 -0.2186 -0.7734
  118MOL0     C15470  -0.654   3.747   5.250  0.1065  1.1041  0.1831
  118MOL0     C15471  -0.786   3.792   5.260  0.4516 -0.8565  0.2781
  118MOL0     C15472  -0.882   3.735   5.177 -0.2766  0.0569  0.3954
  118MOL0     C15473  -1.026   3.762   5.193 -0.2566 -0.7019  0.7192
  118MOL0     O15474  -1.065   3.838   5.299 -1.1080  0.0143  0.2823
  118MOL0     C15475  -1.202   3.851   5.310 -0.2290 -0.1207  0.7069
  118MOL0     C15476  -1.261   3.946   5.224 -0.1726 -0.4413  0.1446
  118MOL0     C15477  -1.398   3.964   5.229  0.1321  0.8327  0.4639
  118MOL0     C15478  -1.474   3.906   5.329  0.8468 -0.8370 -0.9309
  118MOL0     O15479  -1.610   3.916   5.334  0.7609  0.2784 -0.8960
  118MOL0     C15480  -1.688   4.026   5.300  1.1850  0.2603  0.4706
  118MOL0     C15481  -1.834   4.010   5.325  0.3411 -0.0597 -0.2514
  118MOL0     C15482  -1.870   4.027   5.473  0.7854 -0.1527  0.4471
  118MOL0     C15483  -2.018   4.077   5.503 -0.2989 -0.6177  0.2593
  118MOL0     C15484  -2.121   3.983   5.443 -0.2446 -0.5013  0.6740
  118MOL0     C15485  -2.242   3.996   5.537  0.1575 -0.7099 -0.1272
  118MOL0     C15486  -2.365   3.920   5.470  0.1046  0.1255 -0.2466
  118MOL0     C15487  -2.478   3.900   5.570  0.0668  0.1761 -0.6958
  118MOL0    Cl15488  -2.417   3.802   5.707  0.1124  0.2260  0.1723
  118MOL0     C15489  -1.412   3.822   5.415 -0.9310  0.5182 -0.6195
  118MOL0     C15490  -1.279   3.795   5.412 -0.8096 -0.6561  0.2293
  118MOL0     O15491  -1.096   3.712   5.111 -0.1835 -0.3936 -0.2419
  118MOL0     C15492  -0.836   3.638   5.087  0.6097 -0.3259  0.3050
  118MOL0     C15493  -0.702   3.594   5.084  0.1129 -0.2340  0.5590
  118MOL0     N15494   0.089   3.644   5.268 -0.2445 -0.1021 -0.3592
  118MOL0     N15495   0.210   3.606   5.304 -0.7252 -0.4172 -0.5747
  118MOL0     C15496   1.468   3.693   5.257  0.3068  0.1543 -0.8491
  118MOL0     C15497   1.597   3.655   5.217  0.2673  0.4128 -0.5992
  118MOL0     C15498   2.045   3.597   5.303 -0.5712  0.2111  0.2211
  118MOL0     C15499   2.164   3.606   5.379  0.9125  0.0783 -0.1521
  118MOL0     C15500   2.271   3.525   5.352 -0.6138  0.7789 -0.1373
  118MOL0     C15501   2.270   3.424   5.251  0.3301 -0.5758 -0.7235
  118MOL0     O15502   2.361   3.323   5.242 -0.7437  0.1790 -0.5849
  118MOL0     C15503   2.409   3.279   5.365 -0.1698  0.4791 -0.3192
  118MOL0     C15504   2.457   3.126   5.350 -0.3654 -0.2946 -0.7431
  118MOL0     C15505   2.341   3.034   5.318 -0.3295  0.2186  0.1429
  118MOL0     C15506   2.371   2.881   5.350 -0.3377 -0.4262 -0.2793
  118MOL0     C15507   2.488   2.837   5.267  0.2621 -0.4994 -0.0464
  118MOL0     C15508   2.585   2.810   5.197 -0.0324 -0.2675  1.1598
  118MOL0     C15509   2.165   3.422   5.163 -0.1016  0.0715 -0.6668
  118MOL0     C15510   2.052   3.508   5.185  0.4423  0.4937  0.0145
  118MOL0     H15511   1.763   3.918   5.344 -0.8960  0.5880  0.4750
  118MOL0     H15512   1.541   3.995   5.399 -2.1687 -0.0011 -1.5732
  118MOL0     H15513   1.259   4.006   5.242  0.4190 -1.5822 -0.4043
  118MOL0     H15514   1.322   4.028   5.412 -1.5872 -0.0671  0.5147
  118MOL0     H15515   1.080   4.082   5.372 -1.3442 -0.7544  1.7792
  118MOL0     H15516   1.113   3.969   5.508  1.8496  1.1145 -0.0879
  118MOL0     H15517   1.060   3.770   5.391 -0.6657  0.8479  2.6595
  118MOL0     H15518   1.020   3.866   5.253 -0.5446  0.5305  0.6764
  118MOL0     H15519   0.871   3.845   5.522  0.2617  3.7776  1.5526
  118MOL0     H15520   0.836   3.980   5.434 -1.1408 -1.1458  1.3873
  118MOL0     H15521   0.789   3.708   5.293  0.3475 -0.5169  0.7845
  118MOL0     H15522   0.738   3.878   5.257 -0.5502  0.1264  1.6044
  118MOL0     H15523   0.632   3.863   5.499 -1.7870 -2.5231  1.6811
  118MOL0     H15524   0.641   3.693   5.475 -0.9157 -1.3582 -2.2846
  118MOL0     H15525   0.429   3.825   5.412  1.1801 -1.3214  0.4518
  118MOL0     H15526   0.514   3.875   5.262  1.1338  0.8668  0.0668
  118MOL0     H15527   0.474   3.581   5.319 -4.8548 -0.6297  1.9411
  118MOL0     H15528   0.490   3.675   5.165  1.2556  2.8275  0.2641
  118MOL0     H15529   0.272   3.867   5.098 -1.5440  1.6668  0.4043
  118MOL0     H15530  -0.033   3.774   5.026 -4.5354  0.0964  0.4740
  118MOL0     H15531  -0.002   3.928   5.101 -1.7011 -0.2778 -1.8883
  118MOL0     H15532  -0.207   3.897   5.217 -0.6617  1.1331 -1.2843
  118MOL0     H15533  -0.120   3.771   5.305 -1.7862 -2.5369 -0.4488
  118MOL0     H15534  -0.256   3.717   5.033 -1.3926  2.9947  0.4024
  118MOL0     H15535  -0.216   3.592   5.159 -2.9714 -1.6928  0.2087
  118MOL0     H15536  -0.423   3.806   5.160 -0.5385 -1.4835 -4.3983
  118MOL0     H15537  -0.385   3.706   5.304 -0.7988 -2.7939  0.4835
  118MOL0     H15538  -0.584   3.784   5.324 -0.5818  0.2973  1.2583
  118MOL0     H15539  -0.811   3.872   5.330  3.0607 -1.0554  1.5379
  118MOL0     H15540  -1.212   3.992   5.139  0.8982 -0.9013  0.4973
  118MOL0     H15541  -1.453   4.022   5.156  0.2271 -2.7809 -2.8090
  118MOL0     H15542  -1.678   4.048   5.193  1.0857  0.8621  0.5800
  118MOL0     H15543  -1.655   4.118   5.349  2.4363  0.0260  0.0895
  118MOL0     H15544  -1.887   3.923   5.288 -2.4945  1.6647 -0.5551
  118MOL0     H15545  -1.878   4.099   5.279 -1.6603  1.0962  3.4981
  118MOL0     H15546  -1.803   4.098   5.522  2.3799  0.0439 -1.8838
  118MOL0     H15547  -1.852   3.931   5.522  1.5505  0.6768  1.8707
  118MOL0     H15548  -2.029   4.077   5.611 -2.8205 -1.6243  0.0781
  118MOL0     H15549  -2.043   4.175   5.462  0.7207 -0.7675 -0.7996
  118MOL0     H15550  -2.088   3.881   5.422  1.9916  0.6261 -2.0516
  118MOL0     H15551  -2.146   4.024   5.344 -0.6796  1.6822  1.6284
  118MOL0     H15552  -2.273   4.099   5.555 -0.2025 -1.1159  1.7491
  118MOL0     H15553  -2.207   3.954   5.632  0.6586  1.4160  0.6863
  118MOL0     H15554  -2.392   3.966   5.374  3.8548  0.4776 -1.2863
  118MOL0     H15555  -2.325   3.820   5.449  0.4021  0.3303 -0.6734
  118MOL0     H15556  -2.561   3.847   5.522  2.8850 -2.0869 -3.5288
  118MOL0     H15557  -2.517   3.988   5.623 -2.7574 -1.3703 -0.0028
  118MOL0     H15558  -1.467   3.760   5.485  0.4214 -1.4238 -1.1980
  118MOL0     H15559  -1.236   3.731   5.487  1.2159 -2.8421 -2.6035
  118MOL0     H15560  -0.903   3.580   5.024  1.5213 -1.0784  0.0032
  118MOL0     H15561  -0.663   3.513   5.023  2.3856  0.6849  0.6727
  118MOL0     H15562   1.379   3.642   5.223 -0.4270  0.4425  0.5664
  118MOL0     H15563   1.605   3.558   5.168 -1.1571 -1.9394  3.2579
  118MOL0     H15564   2.166   3.674   5.464 -0.2300  0.0568 -0.0912
  118MOL0     H15565   2.359   3.532   5.415  0.2984 -0.5891 -1.1883
  118MOL0     H15566   2.333   3.287   5.443  0.8395  0.2296  0.7239
  118MOL0     H15567   2.497   3.336   5.398 -0.4861 -0.7473  3.1391
  118MOL0     H15568   2.535   3.122   5.273 -0.2461  1.9124 -0.8007
  118MOL0     H15569   2.504   3.108   5.447 -0.7948  0.6654 -0.3430
  118MOL0     H15570   2.311   3.039   5.213 -1.3438 -1.0187  0.3522
  118MOL0     H15571   2.259   3.072   5.379 -0.4196  0.6565 -0.2444
  118MOL0     H15572   2.378   2.855   5.456 -0.9833 -0.6235 -0.2860
  118MOL0     H15573   2.282   2.826   5.320 -0.6593 -0.2230  0.2784
  118MOL0     H15574   2.670   2.776   5.142 -1.0855 -0.7474 -0.2140
  118MOL0     H15575   2.156   3.343   5.089 -0.1825 -0.3657 -0.1878
  118MOL0     H15576   1.964   3.502   5.121  0.3055 -0.0713  0.2547
  119MOL0     O15577   6.527   5.382   1.178  0.0299  1.0847 -0.6502
  119MOL0     C15578   6.541   5.257   1.163  0.9690 -0.1316 -0.1426
  119MOL0     O15579   6.437   5.173   1.148 -0.4700  0.6604 -0.5072
  119MOL0     C15580   6.311   5.226   1.159 -0.2889  0.1925  0.0732
  119MOL0     C15581   6.257   5.320   1.246 -0.4600  0.4947  0.0083
  119MOL0     C15582   6.130   5.363   1.239 -0.1537  0.7101  0.2365
  119MOL0     C15583   6.034   5.304   1.150 -0.6139  0.4612  1.0446
  119MOL0     O15584   5.908   5.346   1.133  0.1661  0.3825  0.3766
  119MOL0     C15585   5.802   5.250   1.117 -0.1779  0.7401 -0.0486
  119MOL0     C15586   5.669   5.324   1.104 -0.1970 -0.8421  0.4007
  119MOL0     C15587   5.648   5.421   1.224  0.3032 -0.2081  0.1980
  119MOL0     C15588   5.512   5.493   1.233 -0.3997  0.2674  0.5757
  119MOL0     C15589   5.402   5.412   1.296 -0.3710  0.1001 -0.5028
  119MOL0     C15590   5.407   5.401   1.454 -1.2611 -0.0428 -0.0181
  119MOL0     C15591   5.289   5.332   1.526 -0.5906 -0.2516 -0.0146
  119MOL0     C15592   5.171   5.432   1.546  0.4322  0.0885  0.3505
  119MOL0     N15593   5.077   5.356   1.623  0.5088 -0.2257 -0.1696
  119MOL0     C15594   5.064   5.348   1.761  0.5968  0.3596 -0.3090
  119MOL0     C15595   4.948   5.275   1.771 -0.4223 -0.7001  0.2498
  119MOL0     C15596   4.899   5.236   1.910 -0.7249  1.0788  0.5973
  119MOL0     C15597   4.780   5.312   1.947 -0.3465 -0.0893  0.7424
  119MOL0     C15598   4.822   5.452   1.985  0.3344 -0.3763  0.0783
  119MOL0     C15599   4.708   5.541   2.034 -0.3716  0.6237  0.4005
  119MOL0     O15600   4.705   5.539   2.183 -0.2882 -0.2456 -0.0731
  119MOL0     C15601   4.602   5.619   2.236  0.5368  0.1903 -0.0276
  119MOL0     C15602   4.524   5.565   2.331  0.6273 -0.2455  0.1648
  119MOL0     C15603   4.420   5.633   2.393  0.1033 -0.8465 -0.6208
  119MOL0     C15604   4.389   5.766   2.349  0.3304 -0.2862  0.3744
  119MOL0     C15605   4.276   5.846   2.414  0.3682  0.0743 -0.2492
  119MOL0     O15606   4.216   5.771   2.517 -0.1347 -0.5039  0.6110
  119MOL0     C15607   4.098   5.812   2.572  0.2108  0.0267 -0.4756
  119MOL0     C15608   4.045   5.944   2.570  0.5700  0.0549 -0.0031
  119MOL0     C15609   3.931   5.976   2.632 -0.4690  0.4026 -0.0386
  119MOL0     C15610   3.859   5.880   2.710  0.5977 -0.4700  1.1831
  119MOL0     O15611   3.737   5.921   2.758 -0.0467  0.0144  0.1911
  119MOL0     C15612   3.652   5.813   2.793 -0.6879 -0.1704 -0.7659
  119MOL0     C15613   3.532   5.878   2.859  0.2002 -0.0624  0.7968
  119MOL0     C15614   3.420   5.795   2.911  0.7107  0.0279 -0.6768
  119MOL0     C15615   3.294   5.876   2.962  0.1417  0.7193  0.4123
  119MOL0     C15616   3.172   5.774   2.978  0.0604  0.0023  0.0184
  119MOL0     C15617   3.136   5.726   2.847  0.1314  0.4743  0.1652
  119MOL0     C15618   2.998   5.646   2.837  0.3530 -0.6081 -0.0426
  119MOL0     C15619   2.871   5.714   2.898 -0.1357 -0.3455  0.0509
  119MOL0    Cl15620   2.737   5.594   2.894 -0.1270 -0.0412  0.1240
  119MOL0     C15621   3.906   5.747   2.702 -0.3386  0.1021  0.2201
  119MOL0     C15622   4.026   5.717   2.632  0.7112 -0.3437 -0.2425
  119MOL0     O15623   4.223   5.943   2.353 -0.3124  0.2683 -0.3265
  119MOL0     C15624   4.454   5.818   2.236  0.3598 -0.4503 -0.4441
  119MOL0     C15625   4.560   5.746   2.186  0.1224  0.0566 -0.1018
  119MOL0     N15626   4.903   5.233   1.649  0.2257  0.3554 -0.5676
  119MOL0     N15627   4.978   5.290   1.563 -0.0691 -0.3025  0.7353
  119MOL0     C15628   6.087   5.211   1.060 -0.3041  0.3690 -0.7031
  119MOL0     C15629   6.226   5.175   1.062  0.4361 -0.0718  0.2397
  119MOL0     C15630   6.668   5.191   1.161  0.3899 -0.6006 -0.1588
  119MOL0     C15631   6.674   5.050   1.134 -0.3292  0.1366 -0.3518
  119MOL0     C15632   6.800   4.990   1.132  0.2424 -0.4175 -1.0370
  119MOL0     C15633   6.918   5.068   1.144 -0.3303 -0.5023  0.0651
  119MOL0     O15634   7.044   5.008   1.161  0.1998 -0.5050 -0.4586
  119MOL0     C15635   7.055   4.867   1.146  0.3794 -1.0955  0.8091
  119MOL0     C15636   7.208   4.838   1.130  0.9096 -0.5075  0.2354
  119MOL0     C15637   7.259   4.757   1.254  0.2875 -1.6129 -0.5205
  119MOL0     C15638   7.266   4.840   1.382  0.5249  0.2830  0.6718
  119MOL0     C15639   7.384   4.924   1.356 -0.5828 -0.9950  0.2456
  119MOL0     C15640   7.473   5.002   1.333  0.9447 -0.0433  0.4940
  119MOL0     C15641   6.905   5.202   1.159 -0.4685  0.5227 -0.7801
  119MOL0     C15642   6.780   5.266   1.177  0.0595 -0.3552  0.2542
  119MOL0     H15643   6.319   5.363   1.324 -0.4693 -1.4491  1.1472
  119MOL0     H15644   6.093   5.448   1.295 -0.5011 -0.4672  1.8537
  119MOL0     H15645   5.793   5.178   1.199 -2.5046 -0.0622 -0.9373
  119MOL0     H15646   5.806   5.191   1.024 -1.8939  3.2122 -1.8095
  119MOL0     H15647   5.583   5.258   1.093 -1.9573  0.9507  2.4418
  119MOL0     H15648   5.676   5.379   1.009 -0.8487  0.3613  1.0224
  119MOL0     H15649   5.723   5.500   1.224 -0.0621  0.1825 -1.6136
  119MOL0     H15650   5.663   5.363   1.316  0.6378 -4.2917 -2.1616
  119MOL0     H15651   5.526   5.589   1.285  0.7324  1.1524 -1.2665
  119MOL0     H15652   5.487   5.523   1.131  2.0378 -0.4507 -0.3026
  119MOL0     H15653   5.402   5.313   1.249 -0.6991 -0.3297  0.3827
  119MOL0     H15654   5.305   5.454   1.270 -1.3656 -1.6625  0.1770
  119MOL0     H15655   5.403   5.497   1.508 -0.5484 -0.8825  1.6165
  119MOL0     H15656   5.504   5.358   1.478 -0.8469  1.3098  0.8723
  119MOL0     H15657   5.263   5.244   1.467 -0.9182 -0.4190  0.3828
  119MOL0     H15658   5.322   5.301   1.625 -0.2234  0.8279  0.2211
  119MOL0     H15659   5.132   5.452   1.446  3.5783  0.3091 -0.9650
  119MOL0     H15660   5.197   5.525   1.596 -0.3446 -0.0970  1.1214
  119MOL0     H15661   5.110   5.420   1.829  0.4429  0.7436 -0.6084
  119MOL0     H15662   4.978   5.245   1.985  1.8612  1.1186 -1.9620
  119MOL0     H15663   4.876   5.129   1.912  1.4497  0.5725  2.9459
  119MOL0     H15664   4.735   5.268   2.036  1.7955 -1.3672  1.2854
  119MOL0     H15665   4.702   5.304   1.871 -2.4285 -4.1404  2.9129
  119MOL0     H15666   4.906   5.454   2.055  0.3588  0.1554  0.0338
  119MOL0     H15667   4.869   5.492   1.895  0.1956  0.3744  0.3367
  119MOL0     H15668   4.618   5.507   1.982  1.7682  0.8356 -3.8870
  119MOL0     H15669   4.728   5.641   1.997 -0.3451  1.5317  2.6726
  119MOL0     H15670   4.549   5.463   2.359  0.5226 -0.1368  0.6696
  119MOL0     H15671   4.365   5.604   2.481  0.8974 -1.5847 -0.3589
  119MOL0     H15672   4.082   6.028   2.512  2.3451 -1.0117 -0.4985
  119MOL0     H15673   3.900   6.080   2.640  2.5695  1.2437  2.3933
  119MOL0     H15674   3.689   5.757   2.880 -1.8043  0.3990  0.1020
  119MOL0     H15675   3.626   5.737   2.719 -1.8294  0.8391 -1.4285
  119MOL0     H15676   3.485   5.938   2.781 -1.5135  0.4778  2.1872
  119MOL0     H15677   3.572   5.950   2.931  2.9513 -0.6238 -0.0436
  119MOL0     H15678   3.456   5.730   2.992 -2.5219  0.4470  1.2648
  119MOL0     H15679   3.395   5.721   2.834 -2.0638 -1.2624  1.2821
  119MOL0     H15680   3.320   5.907   3.064  1.4905 -3.3452  1.5288
  119MOL0     H15681   3.275   5.965   2.902 -0.8974 -0.2085 -0.6866
  119MOL0     H15682   3.086   5.825   3.021  0.4815 -0.3352  1.3023
  119MOL0     H15683   3.206   5.696   3.047  1.1285 -1.0930 -1.6519
  119MOL0     H15684   3.212   5.650   2.825  1.6570  1.1777  2.6428
  119MOL0     H15685   3.143   5.811   2.779  4.4273  0.1636 -0.0704
  119MOL0     H15686   2.967   5.638   2.732  0.2130 -0.8493  0.0151
  119MOL0     H15687   3.009   5.542   2.869  1.9120 -1.4637 -3.0353
  119MOL0     H15688   2.843   5.804   2.843 -0.6065 -0.4026  0.1986
  119MOL0     H15689   2.899   5.721   3.004  1.3920 -4.7871  0.1385
  119MOL0     H15690   3.838   5.668   2.735 -1.9728 -0.5766 -4.1161
  119MOL0     H15691   4.062   5.614   2.633 -1.3977 -1.1511  1.6495
  119MOL0     H15692   4.434   5.914   2.190 -2.9771 -1.1804 -0.7878
  119MOL0     H15693   4.607   5.791   2.100  1.9965 -0.6983  0.4618
  119MOL0     H15694   6.029   5.177   0.975 -1.7873 -0.5894  0.6244
  119MOL0     H15695   6.267   5.111   0.985  1.9448 -0.4764  1.3383
  119MOL0     H15696   6.581   4.995   1.123 -0.4614  0.1060  0.7858
  119MOL0     H15697   6.814   4.883   1.118 -0.0305 -0.5991 -0.0058
  119MOL0     H15698   7.009   4.826   1.056  3.5742 -0.4578 -1.2791
  119MOL0     H15699   7.004   4.825   1.234 -2.0623  2.7364  1.4832
  119MOL0     H15700   7.217   4.772   1.044  0.3357 -2.1805  1.4159
  119MOL0     H15701   7.272   4.927   1.123  1.7375 -1.1451 -0.4694
  119MOL0     H15702   7.347   4.697   1.230 -0.8853 -3.1127 -1.2778
  119MOL0     H15703   7.178   4.685   1.268 -2.6133  1.8053  2.1430
  119MOL0     H15704   7.184   4.908   1.406  0.8012  0.9056 -0.0907
  119MOL0     H15705   7.293   4.772   1.463  1.7035 -0.7767 -0.5440
  119MOL0     H15706   7.559   5.064   1.318  2.5475 -2.3331 -0.1811
  119MOL0     H15707   7.001   5.254   1.159  0.6663 -1.4232  0.7804
  119MOL0     H15708   6.770   5.371   1.205  0.3720 -0.5807  1.2650
  120MOL0     O15709   2.334   3.286   6.612  0.5293  0.9402 -0.9817
  120MOL0     C15710   2.436   3.341   6.646 -0.4629  0.2290 -0.1190
  120MOL0     O15711   2.435   3.477   6.679  0.1805  0.8716  0.2046
  120MOL0     C15712   2.315   3.530   6.728 -0.5178 -0.0675  0.2245
  120MOL0     C15713   2.280   3.515   6.863 -0.5681 -0.5128 -0.0230
  120MOL0     C15714   2.163   3.568   6.912 -0.0670  0.6051 -0.4425
  120MOL0     C15715   2.078   3.638   6.825 -0.3048 -0.0031  0.3541
  120MOL0     O15716   1.967   3.695   6.878 -0.0415  0.3680 -0.0177
  120MOL0     C15717   1.893   3.800   6.818  0.5638  0.0832 -0.2590
  120MOL0     C15718   1.782   3.841   6.915  0.3132  1.1560 -0.0965
  120MOL0     C15719   1.687   3.732   6.964  0.7723  1.3520  0.6872
  120MOL0     C15720   1.589   3.790   7.069 -0.8506 -0.2073  0.6413
  120MOL0     C15721   1.464   3.707   7.068  0.3453 -0.0333  0.0761
  120MOL0     C15722   1.359   3.768   7.161 -0.5431  0.5914  0.7394
  120MOL0     C15723   1.233   3.684   7.174 -0.6758 -0.2164 -0.3508
  120MOL0     C15724   1.128   3.715   7.069  0.0851 -0.8183 -0.3430
  120MOL0     N15725   1.021   3.620   7.076  0.6752 -0.1953  0.0893
  120MOL0     C15726   0.915   3.615   7.160  1.2994  0.3919 -0.1596
  120MOL0     C15727   0.838   3.500   7.128  1.3309  0.5013  0.6444
  120MOL0     C15728   0.709   3.442   7.187 -0.6971 -1.3252 -0.4151
  120MOL0     C15729   0.586   3.462   7.094 -0.4898 -0.5955 -0.5194
  120MOL0     C15730   0.459   3.396   7.145  0.5762 -0.5301 -0.0907
  120MOL0     C15731   0.329   3.446   7.078  0.2489 -0.0804  0.3453
  120MOL0     O15732   0.232   3.344   7.118 -0.1480 -0.4325 -0.0993
  120MOL0     C15733   0.104   3.390   7.113  0.8882 -0.0467  0.2618
  120MOL0     C15734   0.050   3.467   7.010  0.3484  1.0264  0.1846
  120MOL0     C15735  -0.085   3.492   7.011  0.1877 -0.3144 -0.4393
  120MOL0     C15736  -0.179   3.451   7.110 -0.3719  0.0430 -0.2114
  120MOL0     C15737  -0.318   3.496   7.104  0.3656 -0.1692 -0.7671
  120MOL0     O15738  -0.358   3.568   6.991 -0.8141 -0.5643  0.0365
  120MOL0     C15739  -0.493   3.594   6.983 -0.7005 -0.1298  0.6231
  120MOL0     C15740  -0.543   3.729   6.962 -0.0485 -0.2702  0.3938
  120MOL0     C15741  -0.677   3.749   6.939  0.6306  0.3346 -0.0545
  120MOL0     C15742  -0.760   3.636   6.934 -0.0717 -0.7171 -0.3142
  120MOL0     O15743  -0.899   3.651   6.915 -0.0168 -0.3905 -0.2276
  120MOL0     C15744  -0.970   3.570   6.821  0.1813 -0.0556 -0.8170
  120MOL0     C15745  -1.105   3.539   6.883  0.2978 -0.3321 -0.1650
  120MOL0     C15746  -1.206   3.484   6.773 -0.4057 -0.2056 -0.1175
  120MOL0     C15747  -1.173   3.350   6.716 -0.4695  0.0885 -0.1351
  120MOL0     C15748  -1.293   3.321   6.614 -0.4104  0.3810 -0.3873
  120MOL0     C15749  -1.256   3.192   6.551  0.0238  0.3272 -0.1176
  120MOL0     C15750  -1.362   3.134   6.455 -0.6899  0.1757 -0.1366
  120MOL0     C15751  -1.410   3.230   6.344  0.2180  0.7580 -0.5423
  120MOL0    Cl15752  -1.518   3.144   6.229 -0.2569 -0.1146 -0.2992
  120MOL0     C15753  -0.706   3.506   6.945  0.0587  0.4577  0.0603
  120MOL0     C15754  -0.574   3.488   6.970 -0.2819 -0.5347 -0.1263
  120MOL0     O15755  -0.384   3.478   7.208 -0.7740  0.1466  0.3920
  120MOL0     C15756  -0.126   3.366   7.208 -0.5636  0.0589  0.5881
  120MOL0     C15757   0.012   3.332   7.201  0.2868  0.1430  0.7540
  120MOL0     N15758   0.913   3.437   7.030  0.2424  0.2965  1.0922
  120MOL0     N15759   1.022   3.507   7.006 -0.4621  0.2075  0.5241
  120MOL0     C15760   2.109   3.656   6.686  1.4789 -0.1215  0.1099
  120MOL0     C15761   2.230   3.601   6.637 -0.9309  0.0350 -0.2113
  120MOL0     C15762   2.564   3.266   6.647 -0.6176 -0.6543  0.6035
  120MOL0     C15763   2.575   3.132   6.666  0.9079  0.2829 -0.5609
  120MOL0     C15764   2.687   3.062   6.649 -0.5811 -0.0043  0.5355
  120MOL0     C15765   2.805   3.133   6.615  0.0784 -0.5871 -1.0816
  120MOL0     O15766   2.934   3.084   6.607 -0.6152  0.2266 -0.0346
  120MOL0     C15767   2.954   2.944   6.655 -0.1434 -0.1727 -0.7340
  120MOL0     C15768   3.103   2.906   6.643  0.3073  0.1845 -0.2421
  120MOL0     C15769   3.145   2.884   6.500 -0.1374  0.2740  0.0911
  120MOL0     C15770   3.295   2.849   6.504 -0.8862 -0.1255 -0.3199
  120MOL0     C15771   3.312   2.801   6.374 -0.0120 -0.9473  0.6463
  120MOL0     C15772   3.336   2.735   6.274 -0.0049  0.2688  1.1031
  120MOL0     C15773   2.799   3.274   6.607  0.2611  1.2504  0.6414
  120MOL0     C15774   2.676   3.338   6.615  0.6242 -0.0307  0.3223
  120MOL0     H15775   2.340   3.455   6.931 -1.2468 -0.4077  0.6847
  120MOL0     H15776   2.140   3.575   7.017  1.1778  2.5165 -0.2487
  120MOL0     H15777   1.841   3.765   6.728 -1.7743  1.6604  0.3922
  120MOL0     H15778   1.949   3.888   6.785  0.3551 -0.1769 -1.3597
  120MOL0     H15779   1.730   3.923   6.864 -1.8103  1.1226  1.8394
  120MOL0     H15780   1.835   3.880   7.002  0.7094  1.1545 -0.3352
  120MOL0     H15781   1.754   3.660   7.012  2.2485  0.4938 -2.4054
  120MOL0     H15782   1.635   3.688   6.878  1.7057  2.0424 -0.2493
  120MOL0     H15783   1.626   3.783   7.172  0.5520  0.2218  0.1878
  120MOL0     H15784   1.565   3.895   7.047  1.2441  0.7571  2.4547
  120MOL0     H15785   1.484   3.601   7.086  0.1282 -0.6544 -2.9254
  120MOL0     H15786   1.427   3.706   6.965  0.0918 -1.6669  0.1497
  120MOL0     H15787   1.328   3.866   7.126 -1.4683  1.1826  3.0613
  120MOL0     H15788   1.406   3.787   7.258  0.9757 -1.8937  0.5919
  120MOL0     H15789   1.260   3.578   7.183  0.7902  0.0483 -1.3863
  120MOL0     H15790   1.183   3.718   7.265 -0.8950  2.6974 -1.4734
  120MOL0     H15791   1.174   3.719   6.970  0.6847 -0.5846 -0.0620
  120MOL0     H15792   1.087   3.815   7.086  0.9806 -0.5319  0.1970
  120MOL0     H15793   0.899   3.684   7.243  0.8139 -0.8953  0.8606
  120MOL0     H15794   0.682   3.492   7.280 -0.5295 -0.5604 -0.7687
  120MOL0     H15795   0.732   3.337   7.207 -0.7469 -1.3432 -0.4520
  120MOL0     H15796   0.611   3.416   6.998  3.0492 -1.5902  0.7311
  120MOL0     H15797   0.563   3.568   7.083 -1.0416 -0.8195 -1.7027
  120MOL0     H15798   0.465   3.287   7.140  0.2484 -0.6908  2.0305
  120MOL0     H15799   0.450   3.414   7.253 -2.5927  0.8065 -0.4623
  120MOL0     H15800   0.341   3.448   6.969 -0.0874  0.4870  0.3183
  120MOL0     H15801   0.303   3.545   7.115 -0.5923 -0.0433 -0.3214
  120MOL0     H15802   0.100   3.498   6.918  0.1243  0.8959  0.0194
  120MOL0     H15803  -0.118   3.563   6.935  0.0600  2.3664  1.9580
  120MOL0     H15804  -0.479   3.817   6.964 -2.2528  1.5825 -2.3514
  120MOL0     H15805  -0.717   3.849   6.930  0.8736  0.3379 -1.3036
  120MOL0     H15806  -0.924   3.473   6.802 -1.4017 -1.0435  0.1651
  120MOL0     H15807  -0.977   3.626   6.727 -1.7711 -0.4938 -0.9672
  120MOL0     H15808  -1.144   3.629   6.932  0.5062 -0.2106 -0.2218
  120MOL0     H15809  -1.107   3.469   6.967 -0.5603  0.9531  0.9267
  120MOL0     H15810  -1.204   3.550   6.685  2.4290  0.2990  0.2086
  120MOL0     H15811  -1.300   3.484   6.827 -0.2066 -2.3453  0.2803
  120MOL0     H15812  -1.068   3.347   6.687 -0.0720  0.1448  1.2340
  120MOL0     H15813  -1.181   3.282   6.802  1.0007  1.0994  0.8388
  120MOL0     H15814  -1.294   3.400   6.538  2.3184  0.8551 -0.0631
  120MOL0     H15815  -1.395   3.300   6.647 -0.9711 -0.9821 -2.7707
  120MOL0     H15816  -1.249   3.122   6.635 -0.1669  0.0779 -0.3066
  120MOL0     H15817  -1.157   3.196   6.505  0.1694 -0.0345  0.1613
  120MOL0     H15818  -1.319   3.047   6.405  0.4289  1.1383 -0.8894
  120MOL0     H15819  -1.447   3.098   6.514 -2.5543  0.9992 -2.1583
  120MOL0     H15820  -1.328   3.276   6.287 -0.0283  0.2181 -1.3444
  120MOL0     H15821  -1.464   3.316   6.384 -1.7149 -0.6661  0.0381
  120MOL0     H15822  -0.763   3.419   6.916 -0.3019  2.0385 -4.8796
  120MOL0     H15823  -0.533   3.388   6.967 -0.0181 -0.3976 -2.8270
  120MOL0     H15824  -0.186   3.322   7.287  0.3518 -0.0227  1.2484
  120MOL0     H15825   0.038   3.253   7.270 -3.3769 -0.8715  1.1805
  120MOL0     H15826   2.059   3.716   6.611  2.1589  1.9013  1.1912
  120MOL0     H15827   2.242   3.613   6.530 -4.1805 -1.2536 -0.8361
  120MOL0     H15828   2.485   3.085   6.704  0.3226  1.3070 -0.6469
  120MOL0     H15829   2.698   2.955   6.658  2.4529  0.0318 -1.4346
  120MOL0     H15830   2.888   2.870   6.607 -4.1210 -0.5534  4.4557
  120MOL0     H15831   2.930   2.925   6.760 -2.0636  1.0077 -0.9128
  120MOL0     H15832   3.168   2.974   6.698 -0.9855 -1.2287  3.3483
  120MOL0     H15833   3.126   2.806   6.683  3.2186  1.2256  0.9563
  120MOL0     H15834   3.125   2.966   6.430  0.3027 -0.1084 -0.4830
  120MOL0     H15835   3.086   2.798   6.467  1.5649 -0.0537 -2.3241
  120MOL0     H15836   3.354   2.939   6.525 -0.0330 -0.3834 -1.4883
  120MOL0     H15837   3.316   2.762   6.566  0.3932 -1.9079 -3.0855
  120MOL0     H15838   3.349   2.678   6.185  0.0572 -1.1038  1.9723
  120MOL0     H15839   2.889   3.334   6.600  0.7495  0.7260  2.1972
  120MOL0     H15840   2.668   3.444   6.592  3.5126 -0.3644 -3.0039
  121MOL0     O15841   0.767   7.982  10.740  0.1141 -1.0154 -0.1410
  121MOL0     C15842   0.839   7.898  10.795 -0.6817 -0.6608  0.5222
  121MOL0     O15843   0.798   7.796  10.867 -0.1753  1.0819  0.1131
  121MOL0     C15844   0.664   7.786  10.907 -1.0968 -0.3149  0.3977
  121MOL0     C15845   0.601   7.887  10.975 -1.5062 -0.0460 -0.6396
  121MOL0     C15846   0.471   7.870  11.009 -0.3508 -0.7274  0.4656
  121MOL0     C15847   0.401   7.751  10.992  0.3029  0.0877 -0.2609
  121MOL0     O15848   0.267   7.742  11.030 -0.0231  0.3614 -0.0552
  121MOL0     C15849   0.261   7.675  11.156 -0.5662  0.6157  0.8358
  121MOL0     C15850   0.145   7.581  11.154  0.0190  0.0996 -0.0616
  121MOL0     C15851   0.150   7.490  11.274  0.5042  0.3600 -0.5213
  121MOL0     C15852   0.028   7.399  11.286 -0.7067 -0.3528  0.1574
  121MOL0     C15853   0.035   7.277  11.194 -0.0500 -1.3634 -0.0582
  121MOL0     C15854  -0.071   7.176  11.233 -0.2002  0.3107 -0.2484
  121MOL0     C15855  -0.220   7.222  11.204 -0.5646  0.2148  0.6074
  121MOL0     C15856  -0.313   7.102  11.189 -0.3865  1.0082  0.0686
  121MOL0     N15857  -0.452   7.149  11.163 -0.5766 -0.1251  0.9525
  121MOL0     C15858  -0.532   7.221  11.249 -0.0693 -0.5704  0.0450
  121MOL0     C15859  -0.647   7.230  11.186  1.2501 -0.5193  0.0434
  121MOL0     C15860  -0.762   7.292  11.248 -0.0774 -0.4028 -0.6315
  121MOL0     C15861  -0.859   7.335  11.141 -0.3473 -0.6387  0.3584
  121MOL0     C15862  -0.959   7.436  11.209 -0.0769  0.5956 -0.3910
  121MOL0     C15863  -1.086   7.362  11.255  0.0545 -0.2148 -0.5220
  121MOL0     O15864  -1.176   7.467  11.287  0.1166 -0.3227 -0.4422
  121MOL0     C15865  -1.301   7.431  11.336  0.2341  0.8516 -0.3088
  121MOL0     C15866  -1.369   7.303  11.316  0.1750 -0.3168 -0.7165
  121MOL0     C15867  -1.498   7.293  11.368  0.0879 -0.2916 -0.1277
  121MOL0     C15868  -1.566   7.406  11.419  0.1589  0.2333 -0.3425
  121MOL0     C15869  -1.708   7.397  11.468  0.3373 -0.0846  0.2086
  121MOL0     O15870  -1.743   7.488  11.562  0.1098 -0.4520 -0.0562
  121MOL0     C15871  -1.862   7.489  11.638 -0.2486 -0.5195 -0.0437
  121MOL0     C15872  -1.969   7.397  11.641 -0.1752  0.1335 -0.2886
  121MOL0     C15873  -2.080   7.405  11.729  0.2669  0.5642 -0.1759
  121MOL0     C15874  -2.087   7.516  11.811  0.6859 -0.4638 -0.8062
  121MOL0     O15875  -2.192   7.548  11.897 -0.5352  0.4321  0.3231
  121MOL0     C15876  -2.303   7.460  11.884  0.2789 -0.0298 -0.3243
  121MOL0     C15877  -2.418   7.484  11.996 -0.8603 -0.1722  0.4208
  121MOL0     C15878  -2.354   7.434  12.135  0.6063  0.5880  0.5492
  121MOL0     C15879  -2.470   7.437  12.236 -0.7391  0.1864  1.0017
  121MOL0     C15880  -2.444   7.384  12.378  0.5749  0.0710  0.1457
  121MOL0     C15881  -2.349   7.477  12.455  0.1908  0.5222 -1.2167
  121MOL0     C15882  -2.292   7.415  12.583  0.2903  0.2337 -0.1166
  121MOL0     C15883  -2.404   7.395  12.685 -0.3328  0.2286 -0.4093
  121MOL0    Cl15884  -2.520   7.253  12.655  0.0625  0.1469 -0.1011
  121MOL0     C15885  -1.983   7.608  11.810  1.2760  0.2351 -0.5650
  121MOL0     C15886  -1.870   7.589  11.736  0.4653 -0.4497  0.4732
  121MOL0     O15887  -1.785   7.312  11.418 -0.3418  0.3119  0.0378
  121MOL0     C15888  -1.501   7.524  11.429  0.1442  0.0106  0.7505
  121MOL0     C15889  -1.372   7.533  11.399  0.3367  0.5657 -0.4653
  121MOL0     N15890  -0.647   7.139  11.079 -0.3065 -0.5475  0.6951
  121MOL0     N15891  -0.529   7.092  11.064 -0.2459  0.6177 -0.3831
  121MOL0     C15892   0.470   7.648  10.935  0.4052  0.9268  0.8439
  121MOL0     C15893   0.602   7.664  10.892  0.0710 -0.6087 -0.2496
  121MOL0     C15894   0.986   7.922  10.785  0.4878 -0.4657 -0.0497
  121MOL0     C15895   1.055   7.999  10.688  0.2758 -0.3027  0.5484
  121MOL0     C15896   1.194   8.021  10.700  0.2353 -0.2981  0.5775
  121MOL0     C15897   1.257   7.994  10.820  0.7816  0.6780  0.4535
  121MOL0     O15898   1.384   8.033  10.831 -0.1482  0.3678  0.3240
  121MOL0     C15899   1.431   8.108  10.941 -0.5337 -0.3568  0.0120
  121MOL0     C15900   1.577   8.148  10.923 -0.0177 -0.3351  0.2376
  121MOL0     C15901   1.606   8.203  10.782 -0.7622  0.3000  0.4282
  121MOL0     C15902   1.525   8.315  10.734 -0.4991 -0.0084  0.8793
  121MOL0     C15903   1.591   8.363  10.617  0.0454  0.0320  0.0675
  121MOL0     C15904   1.649   8.403  10.517  0.2522  0.9986  0.2887
  121MOL0     C15905   1.191   7.923  10.922  0.3640 -0.5866 -0.1356
  121MOL0     C15906   1.064   7.878  10.897 -1.0080  0.4188  0.2098
  121MOL0     H15907   0.641   7.987  10.966  0.3180 -0.8209 -1.7470
  121MOL0     H15908   0.414   7.953  11.051 -2.3471 -2.7273  1.9443
  121MOL0     H15909   0.246   7.749  11.235 -0.3123  1.0409  0.4950
  121MOL0     H15910   0.357   7.625  11.171 -0.6266 -0.9807 -2.9806
  121MOL0     H15911   0.152   7.515  11.068  0.6553 -0.1966  0.2085
  121MOL0     H15912   0.049   7.632  11.158 -0.5162 -0.8248  4.0510
  121MOL0     H15913   0.153   7.543  11.370  1.6081  0.5147 -0.6268
  121MOL0     H15914   0.238   7.425  11.268  0.9960  0.9805 -0.1528
  121MOL0     H15915   0.039   7.355  11.386  0.7088  0.8955  0.5935
  121MOL0     H15916  -0.064   7.457  11.279 -0.6094 -0.2605 -0.3516
  121MOL0     H15917   0.136   7.236  11.204  1.4102  1.9449  0.1157
  121MOL0     H15918   0.024   7.299  11.087  0.1687  0.3267  0.2394
  121MOL0     H15919  -0.063   7.172  11.342 -0.1133  0.3756 -0.2524
  121MOL0     H15920  -0.048   7.076  11.197  0.0927 -0.4091  1.8310
  121MOL0     H15921  -0.249   7.290  11.285  0.2205  0.2938  0.8348
  121MOL0     H15922  -0.216   7.279  11.110 -1.6212 -0.5114  0.1122
  121MOL0     H15923  -0.309   7.041  11.280  0.5847 -0.4747 -0.9296
  121MOL0     H15924  -0.285   7.037  11.105  0.3431 -0.0543  1.1126
  121MOL0     H15925  -0.502   7.276  11.338 -0.0244  0.8848 -0.8324
  121MOL0     H15926  -0.724   7.379  11.303  0.3525 -0.8057 -0.2926
  121MOL0     H15927  -0.802   7.214  11.314 -0.5304 -1.3966 -2.0530
  121MOL0     H15928  -0.916   7.257  11.088  0.8825 -0.5836 -1.1024
  121MOL0     H15929  -0.809   7.381  11.056 -2.1361 -0.7243 -0.7922
  121MOL0     H15930  -0.911   7.488  11.291 -1.8704  2.1853 -0.2715
  121MOL0     H15931  -0.996   7.512  11.139 -1.1431 -0.3323 -0.8781
  121MOL0     H15932  -1.069   7.301  11.344  0.2322 -0.7032 -0.8841
  121MOL0     H15933  -1.116   7.300  11.170  0.2783 -0.3147 -0.5294
  121MOL0     H15934  -1.329   7.216  11.264  0.2694  0.6576 -2.3367
  121MOL0     H15935  -1.548   7.197  11.368 -0.3610 -0.3097  4.6700
  121MOL0     H15936  -1.954   7.305  11.586 -0.5312 -0.9852  1.4054
  121MOL0     H15937  -2.156   7.327  11.727  0.3924  0.4499 -0.5051
  121MOL0     H15938  -2.279   7.354  11.895 -0.4815 -0.1478  0.3107
  121MOL0     H15939  -2.353   7.467  11.787 -1.2033 -0.9928  0.3322
  121MOL0     H15940  -2.500   7.419  11.967 -1.4080 -0.0858  1.7247
  121MOL0     H15941  -2.447   7.589  12.008  1.0142  0.2053  2.1292
  121MOL0     H15942  -2.268   7.498  12.156  1.1012  0.2942 -0.5099
  121MOL0     H15943  -2.303   7.337  12.134  1.6847  1.1375 -0.2588
  121MOL0     H15944  -2.510   7.539  12.227  0.5867  0.5853 -1.3658
  121MOL0     H15945  -2.544   7.374  12.185  1.0424  0.5055 -2.2840
  121MOL0     H15946  -2.407   7.281  12.380 -1.6174 -0.7546  0.8147
  121MOL0     H15947  -2.538   7.399  12.431 -0.5036  3.7189 -2.4368
  121MOL0     H15948  -2.400   7.570  12.483  2.8303  1.5947  0.4267
  121MOL0     H15949  -2.265   7.509  12.392  1.1175 -0.0454 -0.2950
  121MOL0     H15950  -2.250   7.317  12.563 -0.5374 -0.1033 -0.2486
  121MOL0     H15951  -2.209   7.474  12.623  1.3104  0.1472 -1.9816
  121MOL0     H15952  -2.462   7.488  12.688  0.4776  0.7313  0.1277
  121MOL0     H15953  -2.366   7.379  12.787  1.1464  1.6332 -0.7142
  121MOL0     H15954  -1.982   7.695  11.876  0.3824 -0.1955  0.0383
  121MOL0     H15955  -1.783   7.654  11.744  0.1613  0.5434 -2.9018
  121MOL0     H15956  -1.549   7.614  11.466  0.1133  1.2042 -1.9544
  121MOL0     H15957  -1.334   7.634  11.413 -1.1721  1.3067 -1.4484
  121MOL0     H15958   0.418   7.554  10.920 -1.1178  2.2239 -3.5524
  121MOL0     H15959   0.656   7.576  10.858 -2.4402 -2.5402  0.4489
  121MOL0     H15960   1.001   8.051  10.609 -1.2911  2.7039  3.3543
  121MOL0     H15961   1.244   8.084  10.628 -2.8757 -0.1980 -1.7335
  121MOL0     H15962   1.430   8.044  11.030  0.9547 -1.1422 -0.5091
  121MOL0     H15963   1.370   8.197  10.956  2.0190  1.4209  0.5062
  121MOL0     H15964   1.609   8.226  10.992  2.7242 -0.8184 -0.3553
  121MOL0     H15965   1.638   8.061  10.950 -1.6027 -1.7652 -0.6122
  121MOL0     H15966   1.589   8.119  10.715 -1.2537  1.0382 -0.3937
  121MOL0     H15967   1.713   8.224  10.777 -0.3697 -1.7900 -1.0992
  121MOL0     H15968   1.422   8.283  10.716 -1.1815  2.1844  0.5941
  121MOL0     H15969   1.504   8.385  10.816  0.1504  0.4743  0.6375
  121MOL0     H15970   1.707   8.452  10.441 -2.2181 -1.1425 -3.3182
  121MOL0     H15971   1.239   7.903  11.017  1.3969  2.4131  0.0917
  121MOL0     H15972   1.021   7.816  10.974  1.8540  0.4792  1.9836
  122MOL0     O15973   0.069   2.655   7.787 -0.3057 -0.0411 -0.1397
  122MOL0     C15974   0.111   2.537   7.811  0.0615 -0.0913 -0.1963
  122MOL0     O15975   0.033   2.433   7.841  0.1249 -0.7110 -0.0905
  122MOL0     C15976  -0.099   2.455   7.880 -1.1231  0.1842 -0.0602
  122MOL0     C15977  -0.205   2.380   7.823 -0.7236  0.2759 -0.3838
  122MOL0     C15978  -0.338   2.397   7.866  0.7102  0.4788  0.0109
  122MOL0     C15979  -0.369   2.498   7.963 -0.6876  0.7834  0.0449
  122MOL0     O15980  -0.490   2.525   8.023  0.0421 -0.2796  0.3730
  122MOL0     C15981  -0.605   2.449   7.978 -0.7515  0.1795  0.3232
  122MOL0     C15982  -0.724   2.464   8.067 -0.2533  0.0295 -0.1825
  122MOL0     C15983  -0.708   2.395   8.206 -0.7982  0.8546 -1.1795
  122MOL0     C15984  -0.816   2.431   8.304  0.0965 -0.1777 -0.3525
  122MOL0     C15985  -0.810   2.361   8.435  0.1937  0.0130  0.1874
  122MOL0     C15986  -0.923   2.412   8.525 -0.7675 -0.1480  0.8040
  122MOL0     C15987  -0.910   2.353   8.665 -0.3761  0.3824  0.8335
  122MOL0     C15988  -0.920   2.194   8.672 -0.3026 -0.1135  0.3309
  122MOL0     N15989  -1.034   2.132   8.600  0.6176  0.4428 -0.0930
  122MOL0     C15990  -1.161   2.121   8.658  0.3467  0.0344 -0.3189
  122MOL0     C15991  -1.224   2.049   8.567  0.6355  0.4500  0.9147
  122MOL0     C15992  -1.370   2.011   8.582  0.0899  0.5100  0.2426
  122MOL0     C15993  -1.454   2.142   8.570 -0.7528 -0.0835  0.4619
  122MOL0     C15994  -1.603   2.128   8.604  0.4747  0.0876  0.7036
  122MOL0     C15995  -1.627   2.091   8.750  0.6371  0.7537 -0.4452
  122MOL0     O15996  -1.759   2.069   8.802 -0.2915  0.4142  0.1635
  122MOL0     C15997  -1.853   2.167   8.784 -0.4836 -0.1827 -0.6245
  122MOL0     C15998  -1.986   2.134   8.789 -1.1235  0.2156 -0.4293
  122MOL0     C15999  -2.087   2.232   8.764 -0.5356  0.3421  0.2057
  122MOL0     C16000  -2.059   2.366   8.750  0.7143 -0.5273  0.5464
  122MOL0     C16001  -2.175   2.463   8.747 -0.5946  0.2754 -0.4050
  122MOL0     O16002  -2.295   2.405   8.735 -0.3510  0.1646  0.2928
  122MOL0     C16003  -2.410   2.478   8.733 -0.1540  0.3156 -0.2203
  122MOL0     C16004  -2.493   2.473   8.622  0.1623  0.1391  0.3991
  122MOL0     C16005  -2.619   2.535   8.624 -0.4089  0.3243  0.8101
  122MOL0     C16006  -2.662   2.601   8.744  0.3169  0.3246  0.8239
  122MOL0     O16007  -2.790   2.659   8.738 -0.4274  0.2872  0.0442
  122MOL0     C16008  -2.847   2.720   8.853  0.2874  0.5097 -0.4844
  122MOL0     C16009  -2.994   2.756   8.825 -0.6147  0.4772 -0.2233
  122MOL0     C16010  -3.085   2.635   8.845 -0.2538  0.5337 -0.1485
  122MOL0     C16011  -3.051   2.499   8.784 -0.2251 -0.6657  1.0428
  122MOL0     C16012  -3.038   2.500   8.628  0.5781  0.6215 -0.4853
  122MOL0     C16013  -3.173   2.525   8.563 -0.2347 -0.1725  0.4673
  122MOL0     C16014  -3.178   2.451   8.431 -0.1850  0.1490  0.1347
  122MOL0     C16015  -3.296   2.479   8.342 -0.3810  0.2514 -0.4276
  122MOL0    Cl16016  -3.297   2.402   8.182 -0.2795 -0.0443  0.2443
  122MOL0     C16017  -2.575   2.620   8.849  0.5667 -0.8945 -0.2640
  122MOL0     C16018  -2.451   2.546   8.851  0.8469 -0.0633 -0.2064
  122MOL0     O16019  -2.153   2.587   8.770 -0.4417  0.1053 -0.0312
  122MOL0     C16020  -1.928   2.396   8.759 -0.0540 -0.4439 -0.1438
  122MOL0     C16021  -1.824   2.302   8.773 -0.3516 -0.5079  0.1107
  122MOL0     N16022  -1.145   2.017   8.456  1.5664 -0.1114  0.8420
  122MOL0     N16023  -1.028   2.061   8.486 -0.7808 -0.0507  0.6040
  122MOL0     C16024  -0.257   2.546   8.031 -0.7821 -0.5220  0.3179
  122MOL0     C16025  -0.128   2.536   7.991 -0.5329  0.3394 -0.0708
  122MOL0     C16026   0.252   2.508   7.793  0.5747  0.1232  0.5021
  122MOL0     C16027   0.299   2.378   7.815 -0.4952 -0.4155 -0.3842
  122MOL0     C16028   0.432   2.339   7.789  0.8037 -0.3864 -1.0981
  122MOL0     C16029   0.527   2.435   7.752  0.1945  0.1097 -0.2089
  122MOL0     O16030   0.663   2.403   7.723 -0.4600 -0.8558 -0.1377
  122MOL0     C16031   0.730   2.320   7.823  0.8250 -0.3848  0.1071
  122MOL0     C16032   0.870   2.375   7.838  0.8441  0.0825  0.2915
  122MOL0     C16033   0.954   2.320   7.729 -0.1507  0.3520 -0.7645
  122MOL0     C16034   1.079   2.397   7.733 -0.1343 -0.4341  0.0357
  122MOL0     C16035   1.163   2.326   7.640  0.1809  1.1423  0.4546
  122MOL0     C16036   1.250   2.270   7.576  0.1948  1.0894  0.3524
  122MOL0     C16037   0.483   2.568   7.742  0.6752  0.2176  0.1433
  122MOL0     C16038   0.346   2.607   7.756  0.1280 -0.8162  0.6721
  122MOL0     H16039  -0.177   2.312   7.743 -1.8686 -0.0090 -0.5645
  122MOL0     H16040  -0.414   2.337   7.815  0.6828  0.6541 -0.1572
  122MOL0     H16041  -0.575   2.344   7.983 -0.2592  0.3467  1.0758
  122MOL0     H16042  -0.637   2.467   7.875  2.0238  0.9727 -0.4898
  122MOL0     H16043  -0.808   2.421   8.012 -0.0439  0.2088 -0.6488
  122MOL0     H16044  -0.751   2.569   8.077  1.5758  0.6048 -0.8063
  122MOL0     H16045  -0.609   2.421   8.246  0.6861 -1.1175 -3.3009
  122MOL0     H16046  -0.691   2.289   8.189  0.9612  0.6585  1.2126
  122MOL0     H16047  -0.789   2.534   8.326 -1.2323  0.9380 -3.3908
  122MOL0     H16048  -0.914   2.430   8.255 -1.0155  0.8085  1.7351
  122MOL0     H16049  -0.711   2.368   8.480 -0.1886  1.4746  0.8534
  122MOL0     H16050  -0.833   2.255   8.421 -0.5726  0.4220 -2.0570
  122MOL0     H16051  -1.015   2.383   8.473  0.4601  0.0482 -1.5707
  122MOL0     H16052  -0.921   2.520   8.538  0.2637  0.2107 -1.8342
  122MOL0     H16053  -0.817   2.372   8.719 -1.0486 -2.2585  3.1806
  122MOL0     H16054  -1.000   2.387   8.719 -1.7705 -1.9831  0.1673
  122MOL0     H16055  -0.909   2.149   8.771  0.8397  0.2385  0.3762
  122MOL0     H16056  -0.834   2.158   8.615  0.3148  0.7320  0.7009
  122MOL0     H16057  -1.196   2.152   8.756 -0.5638  0.0049 -0.6239
  122MOL0     H16058  -1.384   1.953   8.673 -0.0272  2.0263  1.2192
  122MOL0     H16059  -1.400   1.938   8.506 -1.4556 -1.1186  2.2812
  122MOL0     H16060  -1.440   2.184   8.470  0.2955 -1.2999  0.0729
  122MOL0     H16061  -1.411   2.220   8.635  2.1352 -0.6853 -0.5841
  122MOL0     H16062  -1.648   2.224   8.580 -0.0931 -0.2832  0.2603
  122MOL0     H16063  -1.646   2.052   8.537 -0.1654  2.5754 -1.8901
  122MOL0     H16064  -1.587   2.176   8.806 -0.3794  1.3126 -0.5407
  122MOL0     H16065  -1.563   2.004   8.765  0.9285  0.6362 -2.2536
  122MOL0     H16066  -2.009   2.030   8.808  1.2087 -0.0757  1.1958
  122MOL0     H16067  -2.181   2.177   8.764  1.2173 -2.9044  0.4757
  122MOL0     H16068  -2.445   2.437   8.531  4.4900 -0.2960  2.6082
  122MOL0     H16069  -2.679   2.537   8.534  0.8490 -4.1524 -0.3616
  122MOL0     H16070  -2.795   2.810   8.886  0.1205  0.1675  0.7793
  122MOL0     H16071  -2.841   2.648   8.935  0.9800  0.9419 -0.1479
  122MOL0     H16072  -2.997   2.806   8.728  1.0640  2.5961  0.7068
  122MOL0     H16073  -3.024   2.832   8.898 -0.8025  2.7677 -2.5299
  122MOL0     H16074  -3.183   2.674   8.817 -1.2154 -1.1987  0.7002
  122MOL0     H16075  -3.096   2.613   8.951 -0.5049 -0.7808 -0.4369
  122MOL0     H16076  -2.952   2.459   8.808  0.7925 -0.0606 -1.6922
  122MOL0     H16077  -3.130   2.429   8.809 -1.4065  0.2768  0.1037
  122MOL0     H16078  -2.996   2.402   8.602 -1.1277 -0.2992  0.0410
  122MOL0     H16079  -2.960   2.565   8.588 -0.0353 -0.2234 -3.2266
  122MOL0     H16080  -3.177   2.634   8.552 -1.2711 -0.1777  0.6905
  122MOL0     H16081  -3.257   2.489   8.622  0.9267  0.1496  2.4198
  122MOL0     H16082  -3.096   2.479   8.364 -1.3928  1.4134 -0.8863
  122MOL0     H16083  -3.170   2.344   8.450 -0.7815 -0.1768 -1.3004
  122MOL0     H16084  -3.310   2.586   8.325  1.5496  0.3881 -1.4268
  122MOL0     H16085  -3.390   2.461   8.396  1.4610  1.3784  3.4333
  122MOL0     H16086  -2.604   2.665   8.943 -1.5253  0.7519 -1.6220
  122MOL0     H16087  -2.401   2.537   8.946  0.7761 -1.8797 -0.3143
  122MOL0     H16088  -1.894   2.499   8.763  1.1846 -0.8609  0.9291
  122MOL0     H16089  -1.720   2.333   8.784 -0.0413 -1.5366  0.1133
  122MOL0     H16090  -0.268   2.602   8.124 -1.6716  1.1824 -0.7486
  122MOL0     H16091  -0.054   2.587   8.052 -1.3448 -0.8311  2.0273
  122MOL0     H16092   0.235   2.297   7.846  0.7682 -0.2340  3.1722
  122MOL0     H16093   0.459   2.234   7.789 -2.4434 -1.3332  0.4963
  122MOL0     H16094   0.724   2.215   7.793  1.7815 -0.3941 -0.0723
  122MOL0     H16095   0.688   2.337   7.922  0.1955 -0.2916 -0.1675
  122MOL0     H16096   0.857   2.483   7.832 -2.7030 -0.0624  2.3664
  122MOL0     H16097   0.905   2.341   7.936 -0.4188 -3.8138 -0.3971
  122MOL0     H16098   0.918   2.319   7.625 -0.8158  3.8015 -0.6707
  122MOL0     H16099   0.970   2.215   7.755 -0.2047  0.7653  1.0508
  122MOL0     H16100   1.058   2.502   7.713  1.3092 -0.0393  0.5057
  122MOL0     H16101   1.137   2.386   7.825  0.0090 -1.5909 -0.1816
  122MOL0     H16102   1.330   2.234   7.516 -0.6703 -1.7449  0.7174
  122MOL0     H16103   0.545   2.646   7.699 -0.1783  0.7056 -0.2362
  122MOL0     H16104   0.316   2.709   7.736  0.2105 -0.8615  0.3121
  123MOL0     O16105   4.144   9.339   7.715 -0.3466 -0.4847 -0.2930
  123MOL0     C16106   4.117   9.455   7.751  0.5473 -0.1240 -0.0140
  123MOL0     O16107   3.994   9.496   7.798 -0.1455  0.2416 -0.0342
  123MOL0     C16108   3.881   9.423   7.788  0.0036 -0.8219 -0.1561
  123MOL0     C16109   3.764   9.492   7.777  0.3166 -0.9333  0.2043
  123MOL0     C16110   3.638   9.439   7.791 -0.5731 -0.3358  0.1002
  123MOL0     C16111   3.625   9.303   7.807  1.4761  1.1897 -0.4322
  123MOL0     O16112   3.505   9.237   7.796  0.0246  0.4973  0.5029
  123MOL0     C16113   3.452   9.241   7.663  0.5077 -0.1422 -1.0846
  123MOL0     C16114   3.339   9.140   7.643  0.6297  0.0698 -0.3052
  123MOL0     C16115   3.213   9.196   7.713 -0.3861 -0.0069  0.8892
  123MOL0     C16116   3.090   9.100   7.689  0.0275 -0.4094 -0.5845
  123MOL0     C16117   2.971   9.124   7.792 -0.4224  0.5465 -0.9205
  123MOL0     C16118   2.870   9.226   7.727 -0.2098 -0.3968  0.2100
  123MOL0     C16119   2.754   9.259   7.814 -0.4508  0.1487 -0.5333
  123MOL0     C16120   2.670   9.376   7.744 -0.1947  0.8704 -0.0179
  123MOL0     N16121   2.575   9.335   7.639 -1.1629  0.7780  0.6731
  123MOL0     C16122   2.589   9.357   7.501  0.0483  0.4888  0.2157
  123MOL0     C16123   2.483   9.291   7.447 -0.3892  0.0813  0.7663
  123MOL0     C16124   2.429   9.310   7.313  0.4209  0.0341 -0.3642
  123MOL0     C16125   2.415   9.455   7.274  0.2447 -0.5939 -0.3891
  123MOL0     C16126   2.304   9.529   7.359  0.0917  0.4888  0.6174
  123MOL0     C16127   2.159   9.506   7.325 -0.5830  0.5237  0.4134
  123MOL0     O16128   2.127   9.563   7.190  0.6451  0.6418 -0.1500
  123MOL0     C16129   2.035   9.669   7.197  0.0678 -0.2559 -0.5851
  123MOL0     C16130   2.070   9.786   7.253 -0.3860 -0.3461  0.5200
  123MOL0     C16131   1.986   9.895   7.258 -0.4443  0.0940  0.2383
  123MOL0     C16132   1.853   9.880   7.221  0.0111  0.0926 -0.1837
  123MOL0     C16133   1.750   9.988   7.222  0.1740 -0.1374 -0.4384
  123MOL0     O16134   1.633   9.958   7.159 -0.2875 -0.1903  0.0313
  123MOL0     C16135   1.524  10.045   7.157 -0.1255  0.1742 -0.4076
  123MOL0     C16136   1.461  10.107   7.270  0.1868  0.1391 -0.6228
  123MOL0     C16137   1.362  10.204   7.247  0.9534  0.2647 -0.2471
  123MOL0     C16138   1.308  10.223   7.125  0.5072 -0.2528  0.7310
  123MOL0     O16139   1.209  10.320   7.115 -0.4749  0.1259 -0.5828
  123MOL0     C16140   1.149  10.349   6.995 -0.5311  0.1271  0.4946
  123MOL0     C16141   1.022  10.423   7.021  0.4430 -0.0698  1.0422
  123MOL0     C16142   0.919  10.329   7.088 -0.1133  0.2254 -0.2834
  123MOL0     C16143   0.800  10.409   7.133 -0.2806 -0.0292 -0.0394
  123MOL0     C16144   0.698  10.314   7.202  0.9732 -0.5607 -0.2053
  123MOL0     C16145   0.568  10.392   7.227 -0.3518 -0.0818  0.1023
  123MOL0     C16146   0.579  10.516   7.323  0.1472 -0.5919 -0.2713
  123MOL0     C16147   0.450  10.594   7.304  0.6315 -0.0126 -0.6597
  123MOL0    Cl16148   0.484  10.752   7.396  0.0886 -0.0544 -0.0607
  123MOL0     C16149   1.364  10.156   7.017  0.1132 -0.3296  0.4018
  123MOL0     C16150   1.475  10.072   7.031  0.0062 -0.7856  0.3152
  123MOL0     O16151   1.779  10.102   7.264 -0.5990  0.2812 -0.2433
  123MOL0     C16152   1.819   9.755   7.163 -0.3284  0.4032  0.0406
  123MOL0     C16153   1.904   9.651   7.159 -0.2164 -0.0751  0.1079
  123MOL0     N16154   2.419   9.220   7.553 -0.1004 -0.6975  0.0840
  123MOL0     N16155   2.469   9.252   7.667  0.1930 -0.5026  0.1267
  123MOL0     C16156   3.743   9.231   7.809  0.0968 -0.6601  0.3001
  123MOL0     C16157   3.870   9.291   7.807  0.6308  0.2980 -0.1976
  123MOL0     C16158   4.234   9.550   7.743  0.1394  0.4276  0.3213
  123MOL0     C16159   4.229   9.680   7.788 -0.0898 -0.9478  0.1573
  123MOL0     C16160   4.342   9.763   7.781 -0.2000 -0.1145  0.3554
  123MOL0     C16161   4.460   9.724   7.718  0.2752 -0.2050 -0.4904
  123MOL0     O16162   4.563   9.819   7.717 -0.0491  0.3261  0.2007
  123MOL0     C16163   4.667   9.810   7.626 -1.5741  0.1533  0.0982
  123MOL0     C16164   4.782   9.898   7.661 -0.7980 -0.1190  0.6829
  123MOL0     C16165   4.911   9.878   7.585  0.2677  0.4602 -0.2054
  123MOL0     C16166   5.022   9.977   7.594  0.4322  0.0494 -0.8044
  123MOL0     C16167   5.157   9.917   7.577  0.0434 -0.6993 -0.1700
  123MOL0     C16168   5.270   9.878   7.549  0.9201  0.6338  0.0232
  123MOL0     C16169   4.462   9.598   7.660  0.2410 -0.3289 -0.9207
  123MOL0     C16170   4.353   9.514   7.676  0.1147  0.2675 -0.2314
  123MOL0     H16171   3.781   9.599   7.778  0.5427 -0.9616  1.9427
  123MOL0     H16172   3.548   9.499   7.789 -0.7996 -0.3524  3.3817
  123MOL0     H16173   3.527   9.226   7.584 -2.0461  0.2458 -3.7150
  123MOL0     H16174   3.411   9.339   7.638 -3.9490 -0.9136  2.0337
  123MOL0     H16175   3.370   9.048   7.693  3.3358  1.8325  1.5125
  123MOL0     H16176   3.322   9.120   7.537  0.6312  0.5492 -0.3964
  123MOL0     H16177   3.180   9.290   7.669 -3.6706 -1.2850  0.3451
  123MOL0     H16178   3.233   9.221   7.818  0.2083 -0.1611  0.8185
  123MOL0     H16179   3.069   9.092   7.582  1.6912  1.2744 -1.0942
  123MOL0     H16180   3.121   9.000   7.720  0.3210  0.9031  4.1616
  123MOL0     H16181   3.016   9.160   7.885  2.9688  1.5919 -2.7651
  123MOL0     H16182   2.921   9.028   7.807  3.7680 -1.6887  0.3119
  123MOL0     H16183   2.834   9.182   7.634  3.7966 -0.6832 -1.3945
  123MOL0     H16184   2.934   9.310   7.699  1.8711 -0.9775  2.7690
  123MOL0     H16185   2.681   9.185   7.847 -0.6585  0.3028 -0.6461
  123MOL0     H16186   2.797   9.303   7.905 -0.9708 -2.1275  0.8790
  123MOL0     H16187   2.737   9.459   7.719 -1.5547  1.8080 -0.6929
  123MOL0     H16188   2.604   9.416   7.823 -0.9365 -3.0647  1.5706
  123MOL0     H16189   2.652   9.432   7.453 -0.6817  1.4686  0.7451
  123MOL0     H16190   2.341   9.248   7.298  1.1491 -1.0953 -0.0973
  123MOL0     H16191   2.503   9.265   7.246 -1.2867 -2.9081 -0.4091
  123MOL0     H16192   2.404   9.468   7.166  3.5952  3.2388 -0.4837
  123MOL0     H16193   2.513   9.499   7.289  1.6030 -2.3997 -3.0701
  123MOL0     H16194   2.330   9.515   7.464  0.6390  1.3275  0.6016
  123MOL0     H16195   2.316   9.637   7.352  0.3188  0.3903 -0.7301
  123MOL0     H16196   2.108   9.551   7.410  2.3532 -0.4075  2.8056
  123MOL0     H16197   2.133   9.400   7.334  0.7381  0.3677  6.5476
  123MOL0     H16198   2.173   9.794   7.285 -0.5846 -0.2030  1.1263
  123MOL0     H16199   2.020   9.990   7.299 -2.0141  1.1869 -0.8692
  123MOL0     H16200   1.496  10.083   7.370  0.6984  0.3616 -0.7447
  123MOL0     H16201   1.319  10.257   7.331 -0.1225 -1.3399  0.2553
  123MOL0     H16202   1.121  10.259   6.939 -1.7557  1.8411 -1.8317
  123MOL0     H16203   1.222  10.400   6.932  3.1401 -1.2116  3.2834
  123MOL0     H16204   0.971  10.460   6.932  0.6048 -2.7301 -0.2491
  123MOL0     H16205   1.055  10.507   7.084  0.3684 -0.0255  1.0211
  123MOL0     H16206   0.970  10.279   7.172  2.2771  2.2819 -0.3995
  123MOL0     H16207   0.894  10.248   7.019  0.3898 -1.0507  0.9788
  123MOL0     H16208   0.835  10.491   7.197  0.2876 -0.2240 -0.0946
  123MOL0     H16209   0.760  10.442   7.037  0.0519 -1.0137 -0.5347
  123MOL0     H16210   0.732  10.287   7.302 -2.2479 -1.5278  0.7665
  123MOL0     H16211   0.672  10.226   7.143  1.3061  1.1816 -3.1811
  123MOL0     H16212   0.500  10.321   7.274 -0.3614  0.9451  1.7006
  123MOL0     H16213   0.521  10.425   7.134 -0.8493  3.2447  1.3893
  123MOL0     H16214   0.587  10.473   7.423 -1.6775  0.2899  0.2937
  123MOL0     H16215   0.659  10.586   7.294  0.9585 -0.8027  1.3212
  123MOL0     H16216   0.360  10.551   7.350  1.8208  0.5670  2.4241
  123MOL0     H16217   0.432  10.610   7.197  0.2628 -0.5389 -0.6826
  123MOL0     H16218   1.320  10.170   6.918 -2.3714 -1.3240  1.2683
  123MOL0     H16219   1.523  10.029   6.944  1.2565 -2.8194  1.9215
  123MOL0     H16220   1.719   9.749   7.121 -1.3684 -0.5006  2.4895
  123MOL0     H16221   1.870   9.554   7.124  1.6103 -0.8906  0.4790
  123MOL0     H16222   3.741   9.123   7.812 -1.1686 -0.6628 -0.1862
  123MOL0     H16223   3.955   9.224   7.814  0.6885 -0.0526 -3.0356
  123MOL0     H16224   4.141   9.707   7.846  1.4291  3.3891  0.8109
  123MOL0     H16225   4.352   9.863   7.821 -0.8090  0.5418 -1.0822
  123MOL0     H16226   4.641   9.835   7.523 -2.6139  0.8908  0.5228
  123MOL0     H16227   4.714   9.712   7.633  1.3345  1.2341 -2.0870
  123MOL0     H16228   4.748   9.999   7.636 -1.1875 -0.4372 -0.0883
  123MOL0     H16229   4.810   9.882   7.766 -0.6431 -0.4034  0.5981
  123MOL0     H16230   4.889   9.875   7.478 -1.1714  0.8128  0.0645
  123MOL0     H16231   4.944   9.776   7.608  0.8858  1.2791  3.1928
  123MOL0     H16232   5.010  10.046   7.510 -0.8980  1.8262  0.7549
  123MOL0     H16233   5.018  10.026   7.692  0.1886  3.0125 -2.1810
  123MOL0     H16234   5.368   9.840   7.526 -0.4046 -2.3049 -1.3434
  123MOL0     H16235   4.554   9.575   7.609  0.7647 -0.6251  0.1290
  123MOL0     H16236   4.370   9.412   7.644  0.5322  0.0308  0.6944
  124MOL0     O16237   6.836   2.009   0.200  0.3067 -0.0575  0.0440
  124MOL0     C16238   6.895   1.901   0.210 -0.6592  0.0597 -1.2935
  124MOL0     O16239   6.827   1.783   0.230  0.5775 -0.2560 -0.5052
  124MOL0     C16240   6.697   1.798   0.253  0.7019  0.2346 -0.0717
  124MOL0     C16241   6.608   1.755   0.155 -0.6541  0.1213  0.2018
  124MOL0     C16242   6.475   1.757   0.172 -1.2311 -0.6533 -0.1477
  124MOL0     C16243   6.425   1.800   0.300 -0.1512 -0.4244  0.5069
  124MOL0     O16244   6.292   1.785   0.317  0.5160 -0.0584 -0.2077
  124MOL0     C16245   6.228   1.834   0.441  0.5890 -0.4609 -0.2158
  124MOL0     C16246   6.227   1.721   0.551  1.0105 -0.5492  0.3785
  124MOL0     C16247   6.138   1.764   0.668 -0.0879  0.0579 -0.6555
  124MOL0     C16248   6.162   1.669   0.796  0.5388 -0.1441 -0.6070
  124MOL0     C16249   6.071   1.708   0.921  0.0656 -1.3822  0.2254
  124MOL0     C16250   6.081   1.586   1.022  0.3535 -0.7842  0.2658
  124MOL0     C16251   5.985   1.606   1.139 -0.9875  0.3803  0.0906
  124MOL0     C16252   6.004   1.721   1.232  0.4372 -0.0859 -0.9029
  124MOL0     N16253   5.919   1.712   1.347 -0.4780 -0.6408  0.3766
  124MOL0     C16254   5.790   1.735   1.353 -0.8355  0.2185  0.5780
  124MOL0     C16255   5.759   1.702   1.479  0.1194 -0.3591 -0.3352
  124MOL0     C16256   5.615   1.700   1.524  0.1485  0.2025  0.7340
  124MOL0     C16257   5.546   1.837   1.524 -0.6691  0.6518  0.1672
  124MOL0     C16258   5.407   1.834   1.592  0.4237  0.0557 -0.2998
  124MOL0     C16259   5.295   1.781   1.499 -0.1566 -0.5780 -0.0205
  124MOL0     O16260   5.258   1.868   1.390 -0.3601 -0.4363  0.9724
  124MOL0     C16261   5.153   1.832   1.309  1.0918  0.4143  0.9266
  124MOL0     C16262   5.087   1.937   1.243 -0.5192 -0.3553 -0.8019
  124MOL0     C16263   4.969   1.917   1.174  0.1953 -0.5159  0.6442
  124MOL0     C16264   4.912   1.790   1.169  0.8181  0.1022  0.3030
  124MOL0     C16265   4.786   1.769   1.091 -0.1248 -0.6185 -0.6797
  124MOL0     O16266   4.716   1.884   1.068 -0.1943 -0.0458 -0.7343
  124MOL0     C16267   4.601   1.877   1.001 -0.7035 -0.6923  0.3558
  124MOL0     C16268   4.480   1.838   1.057 -0.1911 -0.5830  0.4367
  124MOL0     C16269   4.364   1.843   0.982  0.1596 -0.6198  0.4068
  124MOL0     C16270   4.368   1.869   0.838  0.2332 -0.3819  0.0785
  124MOL0     O16271   4.254   1.870   0.765 -0.4198  0.0851 -0.1283
  124MOL0     C16272   4.165   1.980   0.779 -0.4111  0.2329 -0.3097
  124MOL0     C16273   4.030   1.947   0.736 -0.5051 -0.6518  0.6881
  124MOL0     C16274   3.977   1.836   0.822  0.2715 -0.2755  0.1213
  124MOL0     C16275   3.862   1.769   0.766  1.4075  0.4532  0.3065
  124MOL0     C16276   3.727   1.778   0.842 -0.6150  0.9944  0.1289
  124MOL0     C16277   3.620   1.706   0.770  0.7303  0.5831  0.6369
  124MOL0     C16278   3.486   1.768   0.819  0.0402  1.0657 -0.1643
  124MOL0     C16279   3.367   1.718   0.726 -0.7514 -0.0347 -0.6981
  124MOL0    Cl16280   3.316   1.554   0.784  0.2547 -0.4842 -0.1532
  124MOL0     C16281   4.491   1.905   0.783  0.0956  0.1166  0.1820
  124MOL0     C16282   4.603   1.922   0.869  0.1071 -0.1700  0.5306
  124MOL0     O16283   4.746   1.656   1.071 -0.2381  0.1534 -0.3441
  124MOL0     C16284   4.971   1.679   1.238 -0.1208  0.3392 -0.6780
  124MOL0     C16285   5.098   1.701   1.311  0.0597  0.5815 -0.1142
  124MOL0     N16286   5.869   1.654   1.540  0.4391  0.1641 -0.0166
  124MOL0     N16287   5.969   1.658   1.457  0.4721  0.8991 -0.2200
  124MOL0     C16288   6.510   1.850   0.395  0.6691 -0.8774 -0.3327
  124MOL0     C16289   6.648   1.842   0.374  0.1051 -0.6584  0.6367
  124MOL0     C16290   7.040   1.901   0.187  0.7468  0.1754  0.0825
  124MOL0     C16291   7.106   1.778   0.170 -0.5680 -0.7226  0.1621
  124MOL0     C16292   7.246   1.781   0.141  0.3479 -0.2440  0.3258
  124MOL0     C16293   7.315   1.903   0.118  0.1968  0.0627  0.7165
  124MOL0     O16294   7.442   1.912   0.080  0.0532  1.1748  0.0894
  124MOL0     C16295   7.525   1.807   0.047 -0.3296  0.3200  0.0970
  124MOL0     C16296   7.595   1.757   0.173  0.4455  0.6850  0.0679
  124MOL0     C16297   7.665   1.620   0.134  0.3225 -0.1718  0.1782
  124MOL0     C16298   7.729   1.543   0.252 -0.0836 -0.4069  0.3877
  124MOL0     C16299   7.621   1.495   0.349 -0.4395 -0.8464 -0.3694
  124MOL0     C16300   7.542   1.464   0.432  0.6018  0.3017  0.3189
  124MOL0     C16301   7.244   2.017   0.132  0.1529  0.6802  0.5786
  124MOL0     C16302   7.112   2.019   0.175  0.6398 -0.0259  0.6807
  124MOL0     H16303   6.646   1.727   0.057 -0.3325  0.9299  0.0873
  124MOL0     H16304   6.407   1.735   0.090 -0.4838 -0.2917 -0.8748
  124MOL0     H16305   6.123   1.842   0.412  1.1068 -0.2456 -2.2344
  124MOL0     H16306   6.249   1.936   0.474  0.8645 -0.3945 -0.5855
  124MOL0     H16307   6.324   1.711   0.601 -0.2191  1.7058  3.5089
  124MOL0     H16308   6.197   1.625   0.508 -0.4728 -0.7626  1.7718
  124MOL0     H16309   6.035   1.773   0.632  0.4061 -0.2946 -2.2249
  124MOL0     H16310   6.166   1.866   0.697  0.3016 -0.2849  0.2113
  124MOL0     H16311   6.134   1.568   0.764 -0.9607 -1.3991  3.8388
  124MOL0     H16312   6.264   1.654   0.831  0.0416  0.2681  1.1242
  124MOL0     H16313   5.967   1.724   0.893 -0.3353 -0.3645  2.1460
  124MOL0     H16314   6.112   1.799   0.966 -1.2900 -0.5184 -0.2250
  124MOL0     H16315   6.181   1.590   1.065 -0.1380 -0.7320  1.4453
  124MOL0     H16316   6.072   1.488   0.974  3.1521 -2.3502  2.6258
  124MOL0     H16317   5.883   1.602   1.100 -0.4138  0.0301 -1.4253
  124MOL0     H16318   5.989   1.524   1.211 -1.2773  0.4620  0.2018
  124MOL0     H16319   6.002   1.811   1.169  0.9280  1.4277  1.1401
  124MOL0     H16320   6.105   1.710   1.273 -0.7092 -0.9867  1.9312
  124MOL0     H16321   5.718   1.771   1.280 -0.6869  0.9245  0.7791
  124MOL0     H16322   5.612   1.647   1.619  0.2308  0.8962  1.1352
  124MOL0     H16323   5.561   1.645   1.447  0.4324  1.9095 -0.7513
  124MOL0     H16324   5.532   1.879   1.424  0.7460 -0.0193 -0.3346
  124MOL0     H16325   5.609   1.903   1.585 -2.0495  0.1592  2.2299
  124MOL0     H16326   5.416   1.763   1.675  3.5234 -1.4378 -1.7656
  124MOL0     H16327   5.374   1.932   1.629  0.8396  0.7711 -1.7275
  124MOL0     H16328   5.204   1.778   1.559 -0.0228  1.7439  0.3953
  124MOL0     H16329   5.318   1.678   1.470 -0.7602 -1.0565  1.1519
  124MOL0     H16330   5.133   2.035   1.244  1.5363 -1.2673  1.2350
  124MOL0     H16331   4.915   1.996   1.122  1.7091  2.4770  3.2600
  124MOL0     H16332   4.465   1.818   1.163  2.2795  0.4567  1.0548
  124MOL0     H16333   4.270   1.809   1.023 -0.3530 -1.7251 -1.5178
  124MOL0     H16334   4.200   2.059   0.713  0.0182 -0.1268 -0.5164
  124MOL0     H16335   4.164   2.023   0.879 -0.6926 -1.8766  0.6627
  124MOL0     H16336   4.042   1.911   0.633 -1.2371  0.2716  0.2681
  124MOL0     H16337   3.964   2.033   0.745 -0.6478 -0.6381 -0.4189
  124MOL0     H16338   3.956   1.869   0.924  3.3077  0.9317  0.4540
  124MOL0     H16339   4.051   1.756   0.834  1.4111  0.6518 -0.5914
  124MOL0     H16340   3.840   1.813   0.668 -2.1698  1.3549  1.3797
  124MOL0     H16341   3.881   1.662   0.761  2.7202  0.6093  1.2639
  124MOL0     H16342   3.706   1.885   0.858 -2.4008  0.8436 -0.9088
  124MOL0     H16343   3.745   1.730   0.938 -1.6223  1.2823  0.4760
  124MOL0     H16344   3.626   1.600   0.797 -1.4734  0.6802  1.7151
  124MOL0     H16345   3.632   1.714   0.661  2.8178 -0.6004  0.7301
  124MOL0     H16346   3.477   1.738   0.924  3.2263  1.8340  0.4410
  124MOL0     H16347   3.479   1.877   0.824  2.4824  1.2383  1.0432
  124MOL0     H16348   3.398   1.717   0.621  1.0531 -1.1285 -0.2035
  124MOL0     H16349   3.283   1.785   0.746  0.3394  1.7123 -1.7538
  124MOL0     H16350   4.491   1.927   0.676  0.9644 -2.6725 -0.4754
  124MOL0     H16351   4.695   1.965   0.831  0.1455  0.5965  1.4884
  124MOL0     H16352   4.928   1.581   1.228 -0.3565  0.5992 -2.5379
  124MOL0     H16353   5.139   1.614   1.361 -0.0758  1.2859  1.2573
  124MOL0     H16354   6.472   1.899   0.483 -1.5755 -0.3696 -1.5260
  124MOL0     H16355   6.714   1.889   0.446 -1.3761  0.3744  1.3843
  124MOL0     H16356   7.057   1.682   0.187 -3.8074  0.7639 -0.1143
  124MOL0     H16357   7.307   1.692   0.151  0.8039  0.3058  4.3510
  124MOL0     H16358   7.599   1.838  -0.027 -1.6943  0.7614 -1.1254
  124MOL0     H16359   7.470   1.719   0.011  0.3347 -0.6812  1.4267
  124MOL0     H16360   7.670   1.832   0.203  2.3483 -0.5818 -1.2633
  124MOL0     H16361   7.522   1.743   0.253  0.9603  2.4468  0.8894
  124MOL0     H16362   7.735   1.630   0.050  0.3651 -2.0028 -0.0381
  124MOL0     H16363   7.586   1.551   0.102 -0.6959  0.5098  1.1533
  124MOL0     H16364   7.786   1.457   0.215 -1.7038 -1.0199 -0.8347
  124MOL0     H16365   7.790   1.610   0.313 -3.4317  1.2159  2.2380
  124MOL0     H16366   7.469   1.425   0.501 -0.8204 -0.4476 -1.5246
  124MOL0     H16367   7.293   2.113   0.120 -3.4322  2.7946  1.3425
  124MOL0     H16368   7.056   2.111   0.191  0.7425 -0.2636  2.7769
  125MOL0     O16369   7.582  11.033   2.906 -0.2015 -0.4166  0.1062
  125MOL0     C16370   7.578  11.007   3.028 -0.0445  0.0898  0.3004
  125MOL0     O16371   7.471  10.993   3.101 -0.5473 -0.7811  0.1927
  125MOL0     C16372   7.344  10.972   3.041 -0.0209 -1.0896 -0.6941
  125MOL0     C16373   7.231  11.009   3.117  0.8667 -0.3049  0.0976
  125MOL0     C16374   7.100  10.989   3.078 -0.4538  0.9999  0.0051
  125MOL0     C16375   7.084  10.907   2.964 -0.0829  0.7443  0.1756
  125MOL0     O16376   6.968  10.883   2.887 -0.0939 -0.3623 -0.8728
  125MOL0     C16377   6.849  10.877   2.968  0.7468 -0.3163 -0.2990
  125MOL0     C16378   6.725  10.879   2.886  0.0640  0.1149 -0.2432
  125MOL0     C16379   6.610  10.828   2.971 -0.1213 -0.5024  0.2764
  125MOL0     C16380   6.495  10.794   2.887  0.0554  0.5981  0.1976
  125MOL0     C16381   6.393  10.701   2.954  0.3992  0.8594  0.0763
  125MOL0     C16382   6.308  10.764   3.078 -0.4566 -0.2854 -0.0717
  125MOL0     C16383   6.208  10.672   3.143  0.4164  0.0499 -1.0709
  125MOL0     C16384   6.106  10.619   3.047  0.9390  0.1155  0.5409
  125MOL0     N16385   6.010  10.522   3.110 -0.2853 -0.2388 -0.1407
  125MOL0     C16386   5.892  10.553   3.169 -0.5921  0.1859 -0.1393
  125MOL0     C16387   5.833  10.434   3.192 -0.0429  0.1948 -0.6443
  125MOL0     C16388   5.699  10.427   3.261  0.0999 -0.4242 -0.3514
  125MOL0     C16389   5.578  10.420   3.162 -0.5394  0.0969 -0.1125
  125MOL0     C16390   5.531  10.553   3.115  0.0448 -0.7507  0.0588
  125MOL0     C16391   5.432  10.549   2.994 -0.1767  1.0473 -0.4104
  125MOL0     O16392   5.320  10.468   3.033 -0.1152 -0.4143  0.1176
  125MOL0     C16393   5.198  10.521   3.078  0.1685 -0.7694  0.3978
  125MOL0     C16394   5.091  10.432   3.086  0.4196 -0.3791 -0.3095
  125MOL0     C16395   4.960  10.469   3.130 -0.1727 -0.1831  0.3534
  125MOL0     C16396   4.947  10.602   3.166  0.6703  0.1042  0.6148
  125MOL0     C16397   4.816  10.659   3.205  0.2863  1.2276 -0.2320
  125MOL0     O16398   4.704  10.577   3.192 -0.0268 -0.6439 -0.1586
  125MOL0     C16399   4.579  10.633   3.193  0.7141 -0.1819 -0.1578
  125MOL0     C16400   4.505  10.646   3.074  0.7385 -0.0992  0.0645
  125MOL0     C16401   4.374  10.703   3.076 -0.2330 -0.7074 -0.2942
  125MOL0     C16402   4.311  10.744   3.198  0.2985 -0.3811  0.7330
  125MOL0     O16403   4.182  10.794   3.188 -0.4453 -1.0081  0.9617
  125MOL0     C16404   4.096  10.750   3.290 -0.7337 -1.0530  0.1719
  125MOL0     C16405   3.955  10.798   3.266  0.6456  0.1241 -0.0953
  125MOL0     C16406   3.944  10.953   3.274 -0.0309  0.1292 -0.8203
  125MOL0     C16407   3.810  10.999   3.318 -0.1921 -0.5036 -0.2269
  125MOL0     C16408   3.775  11.151   3.290 -1.1122  0.3693 -0.1906
  125MOL0     C16409   3.631  11.181   3.324  0.0817  0.2507  0.0474
  125MOL0     C16410   3.533  11.123   3.221 -0.3656 -0.5146 -0.0815
  125MOL0     C16411   3.393  11.153   3.266  0.3649 -0.8099 -0.0615
  125MOL0    Cl16412   3.290  11.087   3.140 -0.1003 -0.0636 -0.2851
  125MOL0     C16413   4.383  10.718   3.318 -0.5055 -0.7992 -0.7565
  125MOL0     C16414   4.515  10.669   3.312  0.1794 -0.0646 -0.0815
  125MOL0     O16415   4.814  10.777   3.236  0.8065  0.5549  0.0539
  125MOL0     C16416   5.059  10.688   3.175 -0.2098  0.2233  0.4679
  125MOL0     C16417   5.177  10.652   3.116 -0.1083  0.0610  0.0337
  125MOL0     N16418   5.920  10.326   3.160  0.0642 -0.2043  0.4602
  125MOL0     N16419   6.024  10.387   3.113  0.8441 -0.4512 -0.3027
  125MOL0     C16420   7.196  10.867   2.894 -0.1776  0.0230  0.1271
  125MOL0     C16421   7.329  10.894   2.932  0.2600 -0.0960 -0.3811
  125MOL0     C16422   7.716  10.998   3.094  0.3215  0.0756  0.4792
  125MOL0     C16423   7.724  10.975   3.231  0.5876 -0.1920 -1.0290
  125MOL0     C16424   7.845  10.957   3.291 -0.3828  0.3471 -0.5938
  125MOL0     C16425   7.960  10.956   3.217  0.4216 -0.1178  0.3648
  125MOL0     O16426   8.072  10.936   3.286 -0.2521 -0.0348  0.4020
  125MOL0     C16427   8.197  10.948   3.212 -0.3544  0.7718 -1.3778
  125MOL0     C16428   8.305  10.934   3.315  0.1103 -0.3912  0.4169
  125MOL0     C16429   8.436  10.883   3.239  0.5713 -0.5422 -0.0561
  125MOL0     C16430   8.538  10.854   3.349 -0.2806 -0.0497 -0.5099
  125MOL0     C16431   8.501  10.729   3.411 -0.0792  0.3284 -0.3035
  125MOL0     C16432   8.457  10.622   3.437 -0.3394  0.1460 -0.0543
  125MOL0     C16433   7.952  10.989   3.084 -0.1388  0.4650 -0.1181
  125MOL0     C16434   7.831  11.005   3.019  0.6749  0.8915  1.0847
  125MOL0     H16435   7.248  11.065   3.209 -0.9083 -0.8079  0.7664
  125MOL0     H16436   7.015  11.026   3.136  0.3956 -0.3154  2.2326
  125MOL0     H16437   6.844  10.961   3.038  1.0749  1.2902 -2.1074
  125MOL0     H16438   6.841  10.781   3.020 -4.2626  0.4077  0.8478
  125MOL0     H16439   6.748  10.826   2.794 -1.0894 -0.1024 -0.4259
  125MOL0     H16440   6.707  10.980   2.847 -1.8347 -0.5429 -1.2177
  125MOL0     H16441   6.577  10.895   3.050  0.6606  1.0916 -0.7006
  125MOL0     H16442   6.650  10.744   3.028  1.4138 -0.6833 -0.9852
  125MOL0     H16443   6.440  10.884   2.857 -0.1958  0.5132  0.4009
  125MOL0     H16444   6.531  10.752   2.792 -1.6174  1.6651 -0.9770
  125MOL0     H16445   6.438  10.609   2.993  1.4553  1.6185  0.7096
  125MOL0     H16446   6.323  10.672   2.874  1.6232  0.7026 -0.9784
  125MOL0     H16447   6.251  10.847   3.036 -0.3395 -0.4247 -0.5180
  125MOL0     H16448   6.381  10.791   3.154 -1.6676  0.4256  0.8623
  125MOL0     H16449   6.265  10.585   3.178  1.3994  0.6608 -1.1150
  125MOL0     H16450   6.157  10.719   3.228  1.2095 -0.3364 -0.3653
  125MOL0     H16451   6.149  10.571   2.959  0.4776 -0.8046  0.7952
  125MOL0     H16452   6.053  10.700   2.996  0.7706 -0.6588 -0.5351
  125MOL0     H16453   5.853  10.650   3.199 -0.8997 -0.5840  2.1364
  125MOL0     H16454   5.686  10.514   3.326  1.5451 -0.2637 -0.2570
  125MOL0     H16455   5.699  10.336   3.322 -0.2088  0.0386  0.3570
  125MOL0     H16456   5.488  10.384   3.213 -1.2684  2.9076  0.7846
  125MOL0     H16457   5.602  10.349   3.083  1.3408 -1.2527  1.5615
  125MOL0     H16458   5.470  10.595   3.196  4.0778  2.7597  1.6581
  125MOL0     H16459   5.613  10.622   3.091  0.1348 -1.0006 -0.3615
  125MOL0     H16460   5.478  10.508   2.904 -0.0225  1.7237 -0.6487
  125MOL0     H16461   5.401  10.653   2.978  0.9197  1.3255 -0.8221
  125MOL0     H16462   5.125  10.336   3.049  1.4340 -0.0522 -0.2560
  125MOL0     H16463   4.880  10.395   3.133  0.5585 -1.1509 -1.9585
  125MOL0     H16464   4.555  10.624   2.980  1.0993 -2.1213  0.6675
  125MOL0     H16465   4.327  10.730   2.982  1.3846 -3.6401 -2.1035
  125MOL0     H16466   4.131  10.774   3.391 -2.2002 -1.7039  0.8653
  125MOL0     H16467   4.097  10.641   3.280  0.7682 -0.9793 -0.7816
  125MOL0     H16468   3.892  10.755   3.345 -0.7825 -1.1489 -1.8388
  125MOL0     H16469   3.911  10.766   3.171  0.5429 -2.0757  0.6293
  125MOL0     H16470   3.987  11.001   3.186  1.6823  0.4410  0.1353
  125MOL0     H16471   4.007  10.983   3.359 -0.3561  3.1297 -1.5248
  125MOL0     H16472   3.742  10.942   3.254 -0.9383  2.8111 -2.6802
  125MOL0     H16473   3.794  10.975   3.423  4.1145 -1.5093  0.4064
  125MOL0     H16474   3.801  11.166   3.184  0.2534 -1.8697 -0.2482
  125MOL0     H16475   3.837  11.221   3.347  1.9784 -1.9143 -0.4407
  125MOL0     H16476   3.622  11.290   3.326 -0.0982  0.2259  1.9488
  125MOL0     H16477   3.604  11.157   3.427  2.6611  0.4504  0.8452
  125MOL0     H16478   3.547  11.154   3.117  0.2194 -0.4202  0.0205
  125MOL0     H16479   3.552  11.015   3.213  2.1109 -0.2251  0.9605
  125MOL0     H16480   3.368  11.258   3.280  1.0357 -0.6714  0.1109
  125MOL0     H16481   3.374  11.105   3.363  0.3332  1.1405  0.9467
  125MOL0     H16482   4.352  10.748   3.417  2.0898  1.7065 -0.5816
  125MOL0     H16483   4.565  10.648   3.406 -2.3947  1.3346  1.7533
  125MOL0     H16484   5.049  10.791   3.207 -0.5975  0.0948  0.7556
  125MOL0     H16485   5.261  10.721   3.117  0.8540 -1.0787 -0.1146
  125MOL0     H16486   7.175  10.829   2.794 -3.5958  0.2631  0.6205
  125MOL0     H16487   7.408  10.856   2.868  0.9691 -0.5491  0.7537
  125MOL0     H16488   7.629  10.968   3.283  2.0177 -1.9743  1.6070
  125MOL0     H16489   7.853  10.921   3.393  1.4990 -1.5450 -1.3350
  125MOL0     H16490   8.199  11.047   3.164 -2.5493  1.1516 -0.8211
  125MOL0     H16491   8.198  10.869   3.137 -2.3028 -0.5362 -0.1218
  125MOL0     H16492   8.327  11.030   3.363 -1.2025 -0.1655  0.6180
  125MOL0     H16493   8.270  10.855   3.381  1.0082 -2.8611 -1.8885
  125MOL0     H16494   8.483  10.962   3.179 -2.2427  1.5098  0.2519
  125MOL0     H16495   8.418  10.797   3.175 -0.2508  1.5751 -2.8916
  125MOL0     H16496   8.639  10.834   3.311 -0.4901 -1.3075 -0.4444
  125MOL0     H16497   8.534  10.934   3.425  0.4155 -0.7744  0.3099
  125MOL0     H16498   8.424  10.523   3.460 -0.7870  0.2765 -0.1123
  125MOL0     H16499   8.042  10.994   3.023  0.0733 -4.5832 -0.5796
  125MOL0     H16500   7.823  11.031   2.914  1.0303 -3.3958 -0.2053
  126MOL0     O16501   1.370   4.062   0.701  0.5930  0.6817  0.2654
  126MOL0     C16502   1.427   3.955   0.727 -0.1216  0.1217 -0.2184
  126MOL0     O16503   1.362   3.840   0.732 -0.3269 -0.6711  0.1537
  126MOL0     C16504   1.232   3.818   0.761  0.0114  0.3506  0.4569
  126MOL0     C16505   1.165   3.904   0.850 -0.1968  0.0765  0.3864
  126MOL0     C16506   1.052   3.866   0.923 -0.5819  0.4134 -0.1832
  126MOL0     C16507   0.983   3.750   0.889 -0.0638 -0.1981 -0.3491
  126MOL0     O16508   0.867   3.708   0.945  0.5467 -1.0807 -0.0342
  126MOL0     C16509   0.888   3.656   1.077 -0.8895  0.1478 -0.2399
  126MOL0     C16510   0.770   3.565   1.113  0.1212 -1.4521 -0.2998
  126MOL0     C16511   0.643   3.650   1.103 -0.5396 -0.6609 -0.3516
  126MOL0     C16512   0.531   3.562   1.166  0.0241 -0.2105  0.4277
  126MOL0     C16513   0.396   3.622   1.123  0.2286 -0.9996 -0.2431
  126MOL0     C16514   0.374   3.777   1.134 -0.5061  0.3941  0.3958
  126MOL0     C16515   0.229   3.808   1.109 -0.2068 -0.2163  0.8358
  126MOL0     C16516   0.180   3.946   1.159 -0.0098 -0.1438 -0.1078
  126MOL0     N16517   0.043   3.959   1.118 -0.2270 -0.5666 -0.7268
  126MOL0     C16518  -0.061   3.944   1.208 -0.4140  0.6050  0.2688
  126MOL0     C16519  -0.176   3.980   1.138  0.6006  0.4675 -0.3987
  126MOL0     C16520  -0.310   3.983   1.200  0.2849  0.2485 -0.2553
  126MOL0     C16521  -0.426   4.031   1.110  0.0660  0.3008 -0.4923
  126MOL0     C16522  -0.562   4.002   1.180  0.6673 -0.4769  0.7682
  126MOL0     C16523  -0.682   4.071   1.102 -0.2805 -0.2987  0.3420
  126MOL0     O16524  -0.662   4.214   1.123  0.3087 -0.1160  0.3790
  126MOL0     C16525  -0.771   4.293   1.088 -0.0906  0.7666 -0.1940
  126MOL0     C16526  -0.741   4.428   1.075  0.8622 -0.5689  0.0931
  126MOL0     C16527  -0.846   4.521   1.048 -0.4950  0.2321  1.2185
  126MOL0     C16528  -0.982   4.479   1.030  0.1383 -0.5814 -0.7536
  126MOL0     C16529  -1.092   4.574   1.007 -0.3557 -0.6128  0.6715
  126MOL0     O16530  -1.212   4.534   0.967  0.5036  0.0587 -0.0856
  126MOL0     C16531  -1.307   4.618   0.926 -0.0081 -0.9047  0.5684
  126MOL0     C16532  -1.444   4.577   0.940  0.6560  0.5708  0.6791
  126MOL0     C16533  -1.550   4.661   0.902  1.0276 -0.4159 -0.1526
  126MOL0     C16534  -1.536   4.774   0.821 -0.1861  0.0133 -0.0245
  126MOL0     O16535  -1.643   4.838   0.763  0.1309 -0.1511 -0.7497
  126MOL0     C16536  -1.734   4.914   0.852 -0.0606  0.5876 -0.0259
  126MOL0     C16537  -1.855   4.939   0.763 -0.4452 -0.2208  0.3138
  126MOL0     C16538  -1.977   4.993   0.840  0.8829 -0.7179 -0.6479
  126MOL0     C16539  -2.100   5.015   0.755 -0.6384  0.0285 -0.9335
  126MOL0     C16540  -2.222   5.028   0.845 -0.0715  0.1666 -0.1731
  126MOL0     C16541  -2.346   5.064   0.771 -0.7387 -0.2221 -0.0228
  126MOL0     C16542  -2.345   5.196   0.687  0.1186 -0.3043  0.2712
  126MOL0     C16543  -2.485   5.220   0.644 -0.9671 -0.2324 -0.5168
  126MOL0    Cl16544  -2.594   5.262   0.778 -0.2003 -0.5372  0.4849
  126MOL0     C16545  -1.404   4.807   0.783  0.0687  0.2760  0.1307
  126MOL0     C16546  -1.292   4.738   0.845  0.2480  0.2207 -0.2822
  126MOL0     O16547  -1.058   4.691   1.028 -0.1338 -0.0065 -0.2170
  126MOL0     C16548  -1.003   4.336   1.038 -0.4620  0.3817  0.2199
  126MOL0     C16549  -0.902   4.248   1.055  0.4698  0.1861  0.3714
  126MOL0     N16550  -0.139   4.007   1.004 -0.7583 -0.3567 -0.4778
  126MOL0     N16551  -0.012   3.998   1.001 -0.3789 -0.1695 -0.1549
  126MOL0     C16552   1.043   3.662   0.791 -0.4524  0.3314  0.2910
  126MOL0     C16553   1.169   3.695   0.727 -0.1177  0.1045  0.9397
  126MOL0     C16554   1.572   3.939   0.737 -0.1926 -0.4584  0.0433
  126MOL0     C16555   1.658   4.046   0.690 -0.1923 -0.2241 -1.6228
  126MOL0     C16556   1.798   4.026   0.683  1.1534 -0.0069 -0.4414
  126MOL0     C16557   1.861   3.901   0.704  0.1196 -0.4337 -0.4432
  126MOL0     O16558   1.995   3.876   0.684 -0.9966  0.3059  0.0683
  126MOL0     C16559   2.038   3.739   0.680  0.0092  0.0755  0.3522
  126MOL0     C16560   2.181   3.736   0.618  0.6110 -0.4115 -0.3095
  126MOL0     C16561   2.282   3.784   0.718  0.0897 -0.2045 -0.4122
  126MOL0     C16562   2.429   3.791   0.660 -0.7876 -0.0811  0.4970
  126MOL0     C16563   2.475   3.653   0.649 -1.1004  0.2861  0.5713
  126MOL0     C16564   2.512   3.541   0.665  0.5628  0.7352 -0.0701
  126MOL0     C16565   1.770   3.797   0.743  0.1391 -0.0790 -0.4142
  126MOL0     C16566   1.630   3.820   0.763 -0.0553 -0.3450 -0.1616
  126MOL0     H16567   1.225   3.988   0.883  2.7839 -0.5805 -2.7627
  126MOL0     H16568   1.018   3.925   1.007 -0.8528 -0.9599  0.7129
  126MOL0     H16569   0.893   3.736   1.151  1.9420 -2.7749  3.0749
  126MOL0     H16570   0.976   3.591   1.082 -0.9046  0.0668 -0.9428
  126MOL0     H16571   0.780   3.524   1.214 -2.2206 -1.0140  0.1712
  126MOL0     H16572   0.772   3.479   1.046  2.7215 -0.2250 -1.9475
  126MOL0     H16573   0.629   3.672   0.997  0.0138 -1.1478 -0.5265
  126MOL0     H16574   0.655   3.742   1.161 -1.1826 -2.3041  2.6336
  126MOL0     H16575   0.529   3.458   1.134  1.4860 -0.0879 -0.1192
  126MOL0     H16576   0.536   3.559   1.276  1.3674  0.4640  0.4013
  126MOL0     H16577   0.319   3.566   1.178 -1.9569  0.5065 -1.5781
  126MOL0     H16578   0.374   3.598   1.019 -1.0431  2.5843 -0.9504
  126MOL0     H16579   0.424   3.842   1.062 -2.2366  2.0240  0.5803
  126MOL0     H16580   0.416   3.806   1.230  0.5304  0.5529 -0.0950
  126MOL0     H16581   0.230   3.822   1.000  1.1568  1.9486  1.0625
  126MOL0     H16582   0.168   3.719   1.127 -1.6942  0.8980  1.4471
  126MOL0     H16583   0.243   4.018   1.104  0.3171  0.2837  0.8059
  126MOL0     H16584   0.210   3.951   1.264 -1.8143 -2.0608  0.5671
  126MOL0     H16585  -0.058   3.910   1.311 -0.0577 -1.9074 -0.4979
  126MOL0     H16586  -0.297   4.059   1.278 -1.4308  2.9536 -2.4179
  126MOL0     H16587  -0.329   3.885   1.244 -0.2694 -0.1912 -1.4421
  126MOL0     H16588  -0.415   3.976   1.016  0.9537  1.0574 -0.8478
  126MOL0     H16589  -0.403   4.131   1.073  1.8508  0.5649  1.2022
  126MOL0     H16590  -0.567   3.893   1.177  1.7056 -0.5214 -1.2397
  126MOL0     H16591  -0.560   4.049   1.279  2.5826  3.1831 -0.8133
  126MOL0     H16592  -0.776   4.048   1.154 -1.5178  2.2826 -0.5920
  126MOL0     H16593  -0.704   4.049   0.997 -1.1356  0.7502  0.2816
  126MOL0     H16594  -0.634   4.447   1.082  1.0252 -0.9559 -1.1015
  126MOL0     H16595  -0.823   4.626   1.039 -1.2529  0.4180  1.3869
  126MOL0     H16596  -1.449   4.477   0.982  0.2298 -0.0195 -0.7149
  126MOL0     H16597  -1.650   4.624   0.922  1.0988  0.0840  1.2168
  126MOL0     H16598  -1.679   5.004   0.882  0.0504  0.0402  1.4640
  126MOL0     H16599  -1.770   4.847   0.930  1.9759 -2.8509 -1.7327
  126MOL0     H16600  -1.878   4.845   0.713 -0.7521  1.2532 -2.5518
  126MOL0     H16601  -1.815   5.004   0.685  1.1347 -0.2833  1.0427
  126MOL0     H16602  -1.944   5.079   0.899 -0.3965 -0.0425 -0.8962
  126MOL0     H16603  -2.009   4.917   0.912  0.1982 -0.5869 -0.8072
  126MOL0     H16604  -2.090   5.110   0.700  0.4512 -0.5858 -1.8432
  126MOL0     H16605  -2.098   4.925   0.693  2.6267 -1.2587  0.7813
  126MOL0     H16606  -2.182   5.097   0.919  0.1204  0.4194 -0.5066
  126MOL0     H16607  -2.239   4.929   0.889  1.5682 -0.9705 -1.8731
  126MOL0     H16608  -2.419   5.063   0.853 -0.0730 -1.6015  0.5926
  126MOL0     H16609  -2.366   4.974   0.711 -0.9563  0.6734 -1.3265
  126MOL0     H16610  -2.307   5.282   0.742  1.1976  1.3759 -2.8672
  126MOL0     H16611  -2.290   5.183   0.593 -0.5330  1.4830 -0.3921
  126MOL0     H16612  -2.530   5.135   0.592  0.2256 -0.7997 -0.6395
  126MOL0     H16613  -2.487   5.305   0.576 -1.0358  2.0146  2.0857
  126MOL0     H16614  -1.376   4.890   0.719 -0.3248  0.4634  0.2003
  126MOL0     H16615  -1.192   4.765   0.814 -0.5089  3.0587 -0.5257
  126MOL0     H16616  -1.101   4.301   1.008 -0.3469 -1.0783  1.4527
  126MOL0     H16617  -0.925   4.142   1.055 -1.6463  0.5862 -1.3836
  126MOL0     H16618   0.994   3.572   0.756  0.9204 -0.5233  0.5036
  126MOL0     H16619   1.218   3.615   0.674 -2.2301 -3.5312  3.9515
  126MOL0     H16620   1.605   4.137   0.667 -0.8733 -0.0234  0.5141
  126MOL0     H16621   1.857   4.104   0.637  2.6594 -1.4931 -1.1668
  126MOL0     H16622   1.963   3.697   0.612  1.4258  0.2216 -1.3964
  126MOL0     H16623   2.028   3.688   0.776  0.1559 -2.8469 -1.0770
  126MOL0     H16624   2.197   3.629   0.600  1.0319 -0.2218 -1.1393
  126MOL0     H16625   2.189   3.792   0.524  2.5869 -2.4183 -1.4622
  126MOL0     H16626   2.283   3.730   0.813  0.9268  1.7758  0.7479
  126MOL0     H16627   2.271   3.883   0.761  1.1996 -1.6503  3.6419
  126MOL0     H16628   2.430   3.837   0.560 -1.7557 -2.6590 -0.7713
  126MOL0     H16629   2.496   3.843   0.730 -1.6606  0.2816  1.0836
  126MOL0     H16630   2.559   3.445   0.678  4.5678  2.3785 -0.7974
  126MOL0     H16631   1.810   3.700   0.771 -0.7369 -0.7977 -1.5755
  126MOL0     H16632   1.564   3.746   0.806  2.0995 -2.9026 -0.9407
  127MOL0     O16633   2.021   0.280   1.170 -0.2109  0.3545  0.1671
  127MOL0     C16634   2.060   0.305   1.282 -0.3906  0.2985  0.0020
  127MOL0     O16635   1.988   0.286   1.398 -0.3017 -0.3085  0.2367
  127MOL0     C16636   1.858   0.320   1.401 -0.3798 -0.4710  1.1208
  127MOL0     C16637   1.816   0.397   1.504  0.8314 -0.1079 -0.5907
  127MOL0     C16638   1.682   0.436   1.521  0.1403  0.3528  0.1088
  127MOL0     C16639   1.580   0.396   1.425 -0.7003  0.4811  0.0820
  127MOL0     O16640   1.446   0.412   1.437 -0.7258 -0.3722 -0.7246
  127MOL0     C16641   1.396   0.435   1.568 -0.1224  0.6719 -0.2001
  127MOL0     C16642   1.244   0.421   1.568 -0.5193  0.2036  0.2843
  127MOL0     C16643   1.188   0.445   1.697  0.0809  0.4986  0.3257
  127MOL0     C16644   1.039   0.427   1.701 -1.2353 -0.4247  0.6124
  127MOL0     C16645   0.994   0.403   1.835 -0.2807  0.0115  0.4443
  127MOL0     C16646   0.841   0.414   1.836  0.5200 -1.2232  0.0249
  127MOL0     C16647   0.775   0.351   1.954  0.3160 -0.3947 -1.0341
  127MOL0     C16648   0.627   0.366   1.955 -0.4524  0.4064  0.3630
  127MOL0     N16649   0.562   0.343   2.084 -0.3361 -0.6464  0.0245
  127MOL0     C16650   0.499   0.228   2.126  0.5832 -0.0017  0.3218
  127MOL0     C16651   0.460   0.244   2.255 -0.0337  0.2650 -0.2198
  127MOL0     C16652   0.421   0.134   2.344 -0.1796 -0.7646 -0.0581
  127MOL0     C16653   0.270   0.113   2.379  0.2588 -0.5622  0.4244
  127MOL0     C16654   0.214   0.221   2.480  0.6670  0.4559 -0.1677
  127MOL0     C16655   0.278   0.203   2.615  0.1356 -0.3885 -0.4705
  127MOL0     O16656   0.309   0.077   2.665  0.3164 -0.3246  0.3472
  127MOL0     C16657   0.207   0.017   2.740 -0.2175 -0.1436 -0.1217
  127MOL0     C16658   0.236   0.003   2.878  0.5140  0.7854 -0.4779
  127MOL0     C16659   0.131  -0.044   2.969 -0.8632 -0.2436  0.3878
  127MOL0     C16660   0.014  -0.091   2.912  0.5789 -0.3680  0.8852
  127MOL0     C16661  -0.092  -0.155   2.994  0.0413 -0.7232 -0.7867
  127MOL0     O16662  -0.066  -0.177   3.130  0.0701  0.1613 -0.1519
  127MOL0     C16663  -0.170  -0.214   3.215  0.0458  0.0538 -0.5441
  127MOL0     C16664  -0.263  -0.126   3.277  0.2427  0.2024 -0.4240
  127MOL0     C16665  -0.356  -0.181   3.368 -0.3257 -0.2912  1.0652
  127MOL0     C16666  -0.357  -0.315   3.391 -0.1830  0.9409 -0.5030
  127MOL0     O16667  -0.453  -0.365   3.483  0.2211  0.2588 -0.0589
  127MOL0     C16668  -0.438  -0.503   3.532 -0.0721 -0.7333  0.5146
  127MOL0     C16669  -0.540  -0.530   3.633  0.3371 -0.3395 -0.0116
  127MOL0     C16670  -0.530  -0.480   3.775 -0.4275  0.3269  0.1103
  127MOL0     C16671  -0.650  -0.512   3.865  0.6704  0.8276  0.0554
  127MOL0     C16672  -0.656  -0.439   4.000 -0.2972 -0.2889  0.1087
  127MOL0     C16673  -0.789  -0.475   4.071 -0.0893 -0.1213  0.0159
  127MOL0     C16674  -0.811  -0.368   4.177 -0.4799 -0.3826  0.1288
  127MOL0     C16675  -0.945  -0.406   4.244  0.4111 -0.7638  0.8026
  127MOL0    Cl16676  -1.075  -0.376   4.124  0.2324  0.4912 -0.1483
  127MOL0     C16677  -0.264  -0.398   3.339 -0.7672 -0.5044  1.0459
  127MOL0     C16678  -0.164  -0.352   3.246  0.3951 -0.5204  0.5054
  127MOL0     O16679  -0.201  -0.178   2.939  0.3890 -0.3230 -0.8298
  127MOL0     C16680  -0.006  -0.077   2.774  0.3346  0.1558 -0.3541
  127MOL0     C16681   0.086  -0.022   2.687 -0.1070  0.3960 -0.4000
  127MOL0     N16682   0.489   0.378   2.291  0.7469 -0.2494  0.8247
  127MOL0     N16683   0.549   0.431   2.189  0.0628  0.1961 -0.2979
  127MOL0     C16684   1.635   0.324   1.316  0.5135  0.2056  0.2225
  127MOL0     C16685   1.761   0.282   1.305  0.1008 -0.6815 -0.1127
  127MOL0     C16686   2.210   0.332   1.304 -0.0554  0.0833  0.2224
  127MOL0     C16687   2.271   0.347   1.425  0.5723 -0.7195 -0.2337
  127MOL0     C16688   2.408   0.390   1.431  0.1254  1.2599  0.0741
  127MOL0     C16689   2.487   0.420   1.317 -0.2368  0.7050 -0.3045
  127MOL0     O16690   2.618   0.463   1.326 -0.5058 -0.2151 -0.9121
  127MOL0     C16691   2.699   0.355   1.380 -0.7510  0.1357  0.5365
  127MOL0     C16692   2.774   0.306   1.257 -0.2734  0.4816  0.4339
  127MOL0     C16693   2.891   0.223   1.300  0.4011 -0.7092 -0.2784
  127MOL0     C16694   2.956   0.158   1.178  0.5475  0.0619  0.5745
  127MOL0     C16695   3.016   0.256   1.089 -0.9730  0.2878  0.4012
  127MOL0     C16696   3.083   0.326   1.018  0.7066 -0.0440 -0.7194
  127MOL0     C16697   2.427   0.400   1.193  0.6990 -0.5919 -0.1444
  127MOL0     C16698   2.292   0.369   1.192  0.6045  0.3139  0.1018
  127MOL0     H16699   1.883   0.425   1.584  1.4556  1.1715 -1.5399
  127MOL0     H16700   1.639   0.492   1.604 -2.7459 -0.6612 -0.5808
  127MOL0     H16701   1.406   0.538   1.603  1.9322  0.0708  1.2349
  127MOL0     H16702   1.435   0.359   1.637  1.5591 -1.1000 -2.9157
  127MOL0     H16703   1.217   0.319   1.537  0.5551  0.3153 -1.1148
  127MOL0     H16704   1.205   0.500   1.502  2.4329  1.4507 -0.1407
  127MOL0     H16705   1.213   0.547   1.727 -1.2236  0.1969  2.7355
  127MOL0     H16706   1.233   0.378   1.771 -0.3754  0.3907  0.5109
  127MOL0     H16707   0.986   0.512   1.659 -0.2879 -0.8002 -1.4809
  127MOL0     H16708   1.015   0.341   1.637  0.5955  0.9368 -2.0839
  127MOL0     H16709   1.038   0.477   1.903 -0.2953 -0.0654  0.5365
  127MOL0     H16710   1.019   0.302   1.867  1.7466  0.9979  2.2326
  127MOL0     H16711   0.791   0.365   1.752 -1.4691 -0.2003  0.5529
  127MOL0     H16712   0.830   0.523   1.838  3.2979 -0.8597  2.5288
  127MOL0     H16713   0.809   0.247   1.966  3.1139  0.3793 -1.5590
  127MOL0     H16714   0.812   0.419   2.031 -0.0293 -0.0576 -1.1598
  127MOL0     H16715   0.580   0.301   1.880 -1.1790  1.0134  0.2822
  127MOL0     H16716   0.617   0.464   1.907 -1.1110  1.2005  2.0617
  127MOL0     H16717   0.483   0.132   2.078 -3.6326  0.1783  0.9479
  127MOL0     H16718   0.484   0.161   2.430  1.3719  2.0808 -1.9360
  127MOL0     H16719   0.464   0.037   2.315  1.3567 -0.0209 -0.3861
  127MOL0     H16720   0.254   0.009   2.407 -0.5838 -0.8194 -0.9347
  127MOL0     H16721   0.212   0.126   2.287  4.4330  3.3047 -2.0853
  127MOL0     H16722   0.220   0.324   2.444 -0.5842  0.4566 -0.4069
  127MOL0     H16723   0.106   0.214   2.496  1.0586 -1.0351  2.4326
  127MOL0     H16724   0.213   0.257   2.685  1.2482  0.5886 -0.1402
  127MOL0     H16725   0.371   0.262   2.613  1.2775 -2.1222 -0.8925
  127MOL0     H16726   0.331   0.032   2.922 -0.7865  2.1225  1.6166
  127MOL0     H16727   0.158  -0.070   3.071  0.5620  0.0217  0.0961
  127MOL0     H16728  -0.259  -0.019   3.258 -3.0671  0.3733 -0.7608
  127MOL0     H16729  -0.417  -0.105   3.416  2.5385  1.5059  2.1050
  127MOL0     H16730  -0.336  -0.516   3.571  1.5220  1.1499 -2.6909
  127MOL0     H16731  -0.456  -0.569   3.447  0.1685  1.1049 -1.0226
  127MOL0     H16732  -0.557  -0.638   3.629 -1.2989 -0.0748 -1.0854
  127MOL0     H16733  -0.630  -0.483   3.593  0.3339 -1.6885 -1.6601
  127MOL0     H16734  -0.529  -0.371   3.781  2.0325  0.2708  2.5714
  127MOL0     H16735  -0.440  -0.524   3.819 -0.9756 -1.0638 -0.1026
  127MOL0     H16736  -0.744  -0.501   3.810  0.1467 -2.6113  0.0378
  127MOL0     H16737  -0.639  -0.620   3.880  2.3051  1.1618  1.5322
  127MOL0     H16738  -0.658  -0.332   3.976  2.1930 -0.7924 -3.0103
  127MOL0     H16739  -0.579  -0.450   4.077 -1.4776 -1.8647  1.1243
  127MOL0     H16740  -0.778  -0.575   4.115 -0.0766  1.3832  3.7936
  127MOL0     H16741  -0.873  -0.472   4.001 -2.4679 -1.1562  2.6361
  127MOL0     H16742  -0.725  -0.364   4.244  0.3101  0.7187 -0.8982
  127MOL0     H16743  -0.819  -0.269   4.130  1.9928  1.1255  2.5528
  127MOL0     H16744  -0.950  -0.332   4.323  3.1156  0.5676 -0.1296
  127MOL0     H16745  -0.940  -0.503   4.295  0.4167  1.5850  5.7970
  127MOL0     H16746  -0.254  -0.505   3.356  0.8063 -0.8233 -1.3974
  127MOL0     H16747  -0.080  -0.416   3.221  1.0759  0.4535  0.2350
  127MOL0     H16748  -0.096  -0.116   2.728  1.3272 -0.0509 -2.2311
  127MOL0     H16749   0.068  -0.010   2.581  0.5859 -0.2938 -0.6076
  127MOL0     H16750   1.564   0.302   1.237  1.3904  0.7892 -0.7440
  127MOL0     H16751   1.794   0.210   1.231 -0.8042 -1.0929 -0.1335
  127MOL0     H16752   2.219   0.321   1.516 -0.3147 -1.9119 -1.0528
  127MOL0     H16753   2.441   0.410   1.532 -0.1219  1.3316  0.1421
  127MOL0     H16754   2.643   0.275   1.429  1.2636 -2.2664 -0.8189
  127MOL0     H16755   2.770   0.390   1.456 -3.2910  0.9502  2.6869
  127MOL0     H16756   2.709   0.246   1.193  2.1717 -0.5589 -1.2105
  127MOL0     H16757   2.812   0.382   1.188  2.8531 -0.9575  0.4031
  127MOL0     H16758   2.860   0.145   1.371 -0.6827 -1.6297 -1.6796
  127MOL0     H16759   2.965   0.286   1.349 -0.1408  0.5294 -1.0034
  127MOL0     H16760   3.034   0.086   1.205  3.4348  2.0923 -1.7111
  127MOL0     H16761   2.884   0.107   1.113  0.9914  0.4678 -0.2541
  127MOL0     H16762   3.131   0.389   0.946  1.3572  1.6640  1.1102
  127MOL0     H16763   2.478   0.409   1.097 -0.4918  1.9510 -0.5893
  127MOL0     H16764   2.256   0.376   1.090 -2.1486  2.1421  1.0767
  128MOL0     O16765   7.890   6.376   4.802  0.6046  0.1019  0.1314
  128MOL0     C16766   7.907   6.351   4.916 -0.3993 -0.0518 -0.7151
  128MOL0     O16767   7.815   6.382   5.010  0.2414  0.3183 -0.4479
  128MOL0     C16768   7.692   6.423   4.977  0.2459  0.2353 -0.5148
  128MOL0     C16769   7.664   6.559   4.981 -0.6008 -0.7414  0.8465
  128MOL0     C16770   7.533   6.606   4.980  0.1355  0.1848 -0.5629
  128MOL0     C16771   7.425   6.514   4.972  0.5320  0.3041  0.2062
  128MOL0     O16772   7.301   6.577   4.966  0.0397  0.4195 -0.1440
  128MOL0     C16773   7.185   6.505   4.922  0.3164  0.0247  0.0901
  128MOL0     C16774   7.059   6.549   4.990 -0.4480  0.4327 -0.1587
  128MOL0     C16775   6.936   6.466   4.935  0.4436 -0.2601 -0.0472
  128MOL0     C16776   6.811   6.496   5.021  0.4409 -0.6963  1.0996
  128MOL0     C16777   6.704   6.385   4.986 -0.5335 -0.7145  0.9952
  128MOL0     C16778   6.578   6.431   5.059 -0.6537 -1.0203  0.0660
  128MOL0     C16779   6.457   6.342   5.047 -0.0958 -0.2137  0.5334
  128MOL0     C16780   6.405   6.366   4.905  0.0629 -0.0143 -0.6223
  128MOL0     N16781   6.302   6.260   4.885 -0.1385 -0.6020 -0.3080
  128MOL0     C16782   6.325   6.130   4.858  0.3528  0.3413  0.0714
  128MOL0     C16783   6.200   6.076   4.839  0.0141 -0.3524  0.2116
  128MOL0     C16784   6.168   5.931   4.807 -0.4367  0.3675 -0.1765
  128MOL0     C16785   6.060   5.872   4.898 -0.0162  0.1615  0.2403
  128MOL0     C16786   6.004   5.740   4.826 -0.3868 -0.3637 -0.5742
  128MOL0     C16787   5.919   5.649   4.916  0.1460 -0.2613  0.3931
  128MOL0     O16788   5.895   5.516   4.856  0.2278 -1.0726  0.0408
  128MOL0     C16789   5.808   5.423   4.912 -0.3411 -0.3124  0.6199
  128MOL0     C16790   5.786   5.309   4.847  0.0425 -0.2409 -0.9564
  128MOL0     C16791   5.680   5.227   4.876 -0.5810  0.9854 -0.5384
  128MOL0     C16792   5.601   5.254   4.990 -0.5842  0.3427  0.0416
  128MOL0     C16793   5.489   5.163   5.017 -0.1229  0.1650 -1.3767
  128MOL0     O16794   5.499   5.033   4.980  0.1417  0.5359 -0.1267
  128MOL0     C16795   5.383   4.964   4.954 -0.5441  0.7826  0.0686
  128MOL0     C16796   5.369   4.908   4.822  0.1490 -0.1635 -1.2671
  128MOL0     C16797   5.250   4.845   4.791  0.9244  0.2129 -0.4365
  128MOL0     C16798   5.155   4.813   4.890  0.5162 -0.1278 -0.2569
  128MOL0     O16799   5.061   4.730   4.854  0.4100  0.4423 -0.3217
  128MOL0     C16800   4.921   4.758   4.904 -1.1626  0.1009 -0.4171
  128MOL0     C16801   4.889   4.650   5.009  0.0335  0.0017 -1.0348
  128MOL0     C16802   4.754   4.701   5.077  0.2031 -0.4175 -0.1746
  128MOL0     C16803   4.632   4.699   4.976  0.2389 -0.5467 -0.2283
  128MOL0     C16804   4.509   4.717   5.056  0.1054  0.0649 -0.2869
  128MOL0     C16805   4.376   4.706   4.969 -1.1924  0.5288  0.7588
  128MOL0     C16806   4.249   4.710   5.051 -0.0200  0.0189  0.4049
  128MOL0     C16807   4.126   4.738   4.966 -0.2541  0.4950  0.2649
  128MOL0    Cl16808   4.090   4.618   4.835  0.0479 -0.3886  0.3921
  128MOL0     C16809   5.177   4.854   5.018 -0.2833  0.3219 -0.8137
  128MOL0     C16810   5.283   4.943   5.047  0.9307  0.1515 -0.6399
  128MOL0     O16811   5.395   5.216   5.077 -0.0332  0.1168  0.1756
  128MOL0     C16812   5.630   5.362   5.070 -0.7719 -0.1216  0.2168
  128MOL0     C16813   5.742   5.451   5.037  0.1301  0.5973 -0.7232
  128MOL0     N16814   6.110   6.183   4.832  0.0755  0.4202 -0.1576
  128MOL0     N16815   6.171   6.293   4.867 -0.2365  0.4216 -0.3810
  128MOL0     C16816   7.455   6.376   4.970  0.1620 -0.0806  0.1817
  128MOL0     C16817   7.584   6.331   4.968  0.2596  0.0858  0.5074
  128MOL0     C16818   8.035   6.288   4.943 -1.1797  0.1554 -0.1314
  128MOL0     C16819   8.127   6.239   4.852  0.6397 -0.6931 -0.3952
  128MOL0     C16820   8.249   6.182   4.883 -0.2192  0.0104 -0.2278
  128MOL0     C16821   8.295   6.184   5.011  0.3800 -0.0111 -0.0695
  128MOL0     O16822   8.421   6.136   5.036 -0.2525  0.4461 -0.1576
  128MOL0     C16823   8.439   6.071   5.160 -0.4581  0.4068  0.8398
  128MOL0     C16824   8.362   5.942   5.171 -0.0826  0.4689 -0.2386
  128MOL0     C16825   8.355   5.861   5.040  0.6154 -0.3115  0.5519
  128MOL0     C16826   8.265   5.735   5.068  0.3527 -0.2667  0.7166
  128MOL0     C16827   8.327   5.643   5.161 -0.4771 -0.4355  0.2935
  128MOL0     C16828   8.369   5.564   5.242  1.2608 -1.2549  0.2972
  128MOL0     C16829   8.210   6.241   5.109 -0.2048  0.2396  0.2080
  128MOL0     C16830   8.080   6.290   5.072  0.6617  0.3647 -1.2388
  128MOL0     H16831   7.748   6.628   4.987 -0.9522  0.2081 -2.7290
  128MOL0     H16832   7.517   6.713   4.970  1.5939  0.3631 -1.2531
  128MOL0     H16833   7.204   6.398   4.934  0.7828  0.3041  2.2310
  128MOL0     H16834   7.159   6.522   4.817 -3.2567 -5.8656 -0.4743
  128MOL0     H16835   7.039   6.656   4.978 -0.7307  0.2973 -0.9588
  128MOL0     H16836   7.083   6.525   5.094  0.6557  1.0187 -0.2743
  128MOL0     H16837   6.951   6.361   4.961 -1.6668 -0.6306 -0.1674
  128MOL0     H16838   6.915   6.469   4.828  0.1481 -0.2036  0.0117
  128MOL0     H16839   6.829   6.487   5.129 -2.1057 -1.8171  1.5134
  128MOL0     H16840   6.779   6.599   5.002  3.9811  0.4264  0.5583
  128MOL0     H16841   6.745   6.287   5.013 -0.9712 -0.5498  2.3457
  128MOL0     H16842   6.681   6.391   4.879 -1.7332 -0.0294  1.2677
  128MOL0     H16843   6.542   6.530   5.028  0.6499 -0.7943 -0.8149
  128MOL0     H16844   6.603   6.446   5.165  1.2978 -2.8909 -0.0599
  128MOL0     H16845   6.483   6.237   5.059 -0.1931 -0.1622  1.2241
  128MOL0     H16846   6.386   6.374   5.124 -1.3157  0.6037 -0.8734
  128MOL0     H16847   6.482   6.349   4.830 -1.0750  1.2802 -2.1445
  128MOL0     H16848   6.367   6.468   4.894 -1.2529 -0.5576 -1.4051
  128MOL0     H16849   6.417   6.073   4.858  0.9658  1.2628 -1.6759
  128MOL0     H16850   6.254   5.864   4.804 -1.6842 -1.3652  1.1178
  128MOL0     H16851   6.134   5.926   4.703 -0.0063  0.7202 -0.3415
  128MOL0     H16852   5.982   5.949   4.894  0.8565  1.0611  0.1244
  128MOL0     H16853   6.103   5.863   4.998  2.2856  2.3417 -0.4413
  128MOL0     H16854   5.955   5.766   4.732  0.1021 -0.3274 -0.8191
  128MOL0     H16855   6.093   5.686   4.792  0.1161  0.2294 -0.2112
  128MOL0     H16856   5.819   5.692   4.930  0.0134  0.4498 -2.2116
  128MOL0     H16857   5.968   5.636   5.013 -0.6506 -1.7909  0.6154
  128MOL0     H16858   5.845   5.288   4.759 -0.4564 -0.1352 -1.3226
  128MOL0     H16859   5.667   5.139   4.812 -1.4538  1.8450 -1.5852
  128MOL0     H16860   5.447   4.918   4.748  0.8665  0.1900 -0.4872
  128MOL0     H16861   5.235   4.812   4.689 -0.6318  0.8614 -0.4336
  128MOL0     H16862   4.836   4.765   4.836 -2.4752  3.1722  1.3529
  128MOL0     H16863   4.915   4.856   4.952 -1.0624 -0.4586  0.7890
  128MOL0     H16864   4.961   4.648   5.091  0.5115  2.3858 -1.3209
  128MOL0     H16865   4.877   4.545   4.980  0.9563 -1.1427  2.2738
  128MOL0     H16866   4.764   4.806   5.106 -0.8181 -0.5175  0.5804
  128MOL0     H16867   4.743   4.638   5.165  0.4244 -0.9781 -0.5410
  128MOL0     H16868   4.638   4.778   4.900 -0.5153  0.9623  1.2264
  128MOL0     H16869   4.646   4.602   4.926 -1.3143 -0.8923 -0.0424
  128MOL0     H16870   4.502   4.815   5.102 -1.2778 -0.1266 -0.0452
  128MOL0     H16871   4.499   4.637   5.130  1.6471 -0.1392 -0.2659
  128MOL0     H16872   4.381   4.612   4.912 -2.1766  1.6984 -1.3872
  128MOL0     H16873   4.378   4.786   4.894  0.6241 -0.7913 -0.7030
  128MOL0     H16874   4.237   4.617   5.108  2.0033 -0.8264 -0.4303
  128MOL0     H16875   4.263   4.792   5.123  2.2699 -0.5586  0.7093
  128MOL0     H16876   4.153   4.834   4.921 -1.3210  0.5214 -0.3334
  128MOL0     H16877   4.031   4.753   5.018 -0.9734  3.0484 -1.5517
  128MOL0     H16878   5.116   4.824   5.103  1.8167  0.1083  0.6815
  128MOL0     H16879   5.301   4.989   5.143  1.3187 -0.8871 -0.2004
  128MOL0     H16880   5.572   5.371   5.161 -1.0789 -1.1006  0.1286
  128MOL0     H16881   5.776   5.531   5.101 -2.9970  0.5991  1.1551
  128MOL0     H16882   7.375   6.304   4.984 -0.0655  0.1495  0.0783
  128MOL0     H16883   7.599   6.223   4.961 -2.2114 -0.2217 -1.3572
  128MOL0     H16884   8.097   6.252   4.748  1.0297  0.2331 -0.3955
  128MOL0     H16885   8.306   6.140   4.801  0.9047  0.6844  0.1874
  128MOL0     H16886   8.425   6.140   5.245  0.9180  1.1294  0.5024
  128MOL0     H16887   8.542   6.036   5.158 -1.2692 -2.2354 -1.4058
  128MOL0     H16888   8.413   5.879   5.244  3.7949  2.6673 -0.7984
  128MOL0     H16889   8.258   5.962   5.198 -0.4706 -0.7398 -0.7749
  128MOL0     H16890   8.453   5.834   5.002 -0.2908  1.2972 -3.4584
  128MOL0     H16891   8.305   5.917   4.960 -0.1171 -2.7120 -0.7582
  128MOL0     H16892   8.165   5.754   5.108  0.6958 -0.2403  1.5878
  128MOL0     H16893   8.248   5.685   4.972  1.1991  2.3532 -0.8853
  128MOL0     H16894   8.401   5.483   5.304 -1.8924 -1.8992  1.3030
  128MOL0     H16895   8.248   6.261   5.209  1.9829  2.8343 -1.0193
  128MOL0     H16896   8.018   6.335   5.149  0.5104 -3.0756  0.8548
  129MOL0     O16897   9.522  10.094   2.006 -0.2476  0.4018  0.5739
  129MOL0     C16898   9.510   9.982   2.055 -1.0383  0.1677 -0.5087
  129MOL0     O16899   9.442   9.877   2.012  0.0436 -0.0726  0.1715
  129MOL0     C16900   9.363   9.898   1.904 -0.2288  0.4440  0.5252
  129MOL0     C16901   9.415   9.918   1.778  0.4376 -0.2905  0.5452
  129MOL0     C16902   9.326   9.910   1.666  0.0055 -1.5056  0.2373
  129MOL0     C16903   9.189   9.883   1.682 -1.0234  0.5781 -0.3853
  129MOL0     O16904   9.106   9.858   1.583  0.7383 -0.5122  0.3970
  129MOL0     C16905   9.143   9.901   1.449 -0.2314  0.2702 -0.2496
  129MOL0     C16906   9.027   9.864   1.349 -0.7364  0.7024 -0.5655
  129MOL0     C16907   8.902   9.929   1.391  0.3722  0.6917 -0.4167
  129MOL0     C16908   8.785   9.868   1.303  0.0351 -0.2370 -0.2242
  129MOL0     C16909   8.650   9.941   1.322 -0.9246  0.1609 -0.2445
  129MOL0     C16910   8.550   9.889   1.220  0.3858 -0.3908  0.0357
  129MOL0     C16911   8.418   9.968   1.226  0.0886  0.1247 -0.8817
  129MOL0     C16912   8.333   9.913   1.118 -0.0025 -0.2339 -0.1697
  129MOL0     N16913   8.195   9.948   1.139 -0.0094  0.2513  0.0227
  129MOL0     C16914   8.098   9.852   1.110 -0.1209  0.0765  0.4113
  129MOL0     C16915   7.984   9.915   1.092 -0.4440 -0.3423 -0.1894
  129MOL0     C16916   7.842   9.847   1.090 -0.3709 -0.6187 -0.5646
  129MOL0     C16917   7.830   9.739   0.984  0.4562  0.4746 -0.3260
  129MOL0     C16918   7.712   9.644   1.025  0.4052  0.2302 -0.2411
  129MOL0     C16919   7.658   9.572   0.898 -0.0442  0.5814 -0.0393
  129MOL0     O16920   7.545   9.498   0.950  0.5332 -0.1620  0.6850
  129MOL0     C16921   7.420   9.537   0.902 -0.1041 -0.1173  0.2783
  129MOL0     C16922   7.393   9.667   0.857  0.1711 -0.2266 -0.0188
  129MOL0     C16923   7.266   9.693   0.807  0.4270 -0.4569 -0.1785
  129MOL0     C16924   7.168   9.595   0.792 -0.1876  0.5335  1.0209
  129MOL0     C16925   7.043   9.617   0.714 -0.3321  0.3274  0.2466
  129MOL0     O16926   7.006   9.749   0.676 -0.3456  0.2332 -0.1653
  129MOL0     C16927   6.900   9.775   0.584 -0.2440 -0.0907 -0.3881
  129MOL0     C16928   6.859   9.697   0.478  0.3018 -0.1519 -0.6846
  129MOL0     C16929   6.761   9.737   0.387 -1.3370  0.1989 -0.4023
  129MOL0     C16930   6.703   9.857   0.395 -0.1834 -0.7725 -0.3692
  129MOL0     O16931   6.606   9.897   0.306 -0.3539 -0.3015 -0.4551
  129MOL0     C16932   6.494   9.804   0.311 -0.1273 -0.1736 -0.7478
  129MOL0     C16933   6.367   9.878   0.281  0.9241  0.5248  0.3363
  129MOL0     C16934   6.346   9.876   0.135  0.3016  0.1385 -0.1672
  129MOL0     C16935   6.240   9.977   0.093  0.9302  0.0773  0.1636
  129MOL0     C16936   6.104   9.904   0.069 -0.5104  0.1729 -0.3124
  129MOL0     C16937   6.010  10.003  -0.009  0.4686  0.5176 -0.3840
  129MOL0     C16938   5.867   9.948  -0.026 -0.8307  0.1528 -0.3129
  129MOL0     C16939   5.813  10.030  -0.139  0.2202 -0.4599 -1.0237
  129MOL0    Cl16940   5.638  10.022  -0.171  0.1609  0.4265 -0.0790
  129MOL0     C16941   6.750   9.945   0.492  0.4863  0.3256  0.5267
  129MOL0     C16942   6.847   9.906   0.582 -0.7477 -0.0830 -0.9983
  129MOL0     O16943   6.978   9.517   0.686 -0.4809 -0.1858  0.6703
  129MOL0     C16944   7.190   9.467   0.840 -0.4893 -0.1065  0.8776
  129MOL0     C16945   7.320   9.439   0.898 -0.2512  0.5337  0.3740
  129MOL0     N16946   8.010  10.048   1.084 -0.7841 -0.9283  0.0006
  129MOL0     N16947   8.135  10.066   1.116 -0.1540 -0.8993  0.4738
  129MOL0     C16948   9.142   9.867   1.811 -0.0157 -0.7684 -0.5778
  129MOL0     C16949   9.230   9.869   1.922  0.0067  0.1411 -0.1294
  129MOL0     C16950   9.576   9.966   2.185  0.4828  1.2371  0.4532
  129MOL0     C16951   9.598  10.068   2.274 -0.8745  0.1123 -0.5809
  129MOL0     C16952   9.656  10.056   2.393  0.6075  0.3259 -0.4842
  129MOL0     C16953   9.682   9.923   2.443  0.2248  0.3310  0.2188
  129MOL0     O16954   9.733   9.891   2.565 -0.3389  0.2866 -0.1351
  129MOL0     C16955   9.773   9.994   2.653 -0.9292 -0.3520  0.5319
  129MOL0     C16956   9.910  10.037   2.612 -0.1821  0.0181 -0.1306
  129MOL0     C16957  10.019   9.932   2.642  0.2985 -0.7909 -0.0525
  129MOL0     C16958  10.154   9.967   2.569  0.5660 -0.1169 -0.1100
  129MOL0     C16959  10.196  10.107   2.598  0.0076 -0.4491 -0.2233
  129MOL0     C16960  10.224  10.220   2.634  0.2177 -0.3057 -0.8027
  129MOL0     C16961   9.666   9.817   2.356 -0.1501 -0.3608 -0.4923
  129MOL0     C16962   9.611   9.837   2.230  0.9445  0.6223  0.2110
  129MOL0     H16963   9.522   9.932   1.782  0.4561 -0.6414  3.4495
  129MOL0     H16964   9.369   9.938   1.570 -0.1171 -2.5581 -0.1436
  129MOL0     H16965   9.230   9.842   1.419 -0.9345 -0.8203 -0.2177
  129MOL0     H16966   9.160  10.009   1.443 -0.5553  0.2855 -0.9842
  129MOL0     H16967   9.012   9.755   1.349 -1.6744  0.8221 -1.0164
  129MOL0     H16968   9.052   9.885   1.244 -2.5214  1.0653 -0.9624
  129MOL0     H16969   8.913  10.036   1.373 -0.1656  0.8482  0.1561
  129MOL0     H16970   8.871   9.925   1.496  0.4254 -1.8128 -0.4500
  129MOL0     H16971   8.807   9.865   1.196 -1.7821 -2.9049 -0.6203
  129MOL0     H16972   8.764   9.764   1.327  3.2719 -1.2589 -1.3252
  129MOL0     H16973   8.666  10.047   1.301 -1.9885 -0.0995 -2.7898
  129MOL0     H16974   8.612   9.942   1.425  0.8861  0.9743  0.4635
  129MOL0     H16975   8.536   9.782   1.234 -0.2808 -0.6499 -2.2562
  129MOL0     H16976   8.588   9.907   1.119  1.5268 -0.2612  0.4682
  129MOL0     H16977   8.370   9.965   1.324 -0.7110 -0.3652 -1.2799
  129MOL0     H16978   8.433  10.075   1.210  0.8020  0.4722  1.6258
  129MOL0     H16979   8.342   9.805   1.106  1.6332 -0.0684 -0.8202
  129MOL0     H16980   8.364   9.961   1.024  1.0155 -1.2230 -0.3664
  129MOL0     H16981   8.117   9.747   1.128 -1.6176 -0.3605 -0.3770
  129MOL0     H16982   7.781   9.937   1.080  0.6365  0.3090  1.0891
  129MOL0     H16983   7.817   9.808   1.189 -2.6896  0.9748 -0.4504
  129MOL0     H16984   7.924   9.686   0.969  0.7777  0.6477  0.9197
  129MOL0     H16985   7.816   9.779   0.883 -2.1621 -2.2487 -1.2111
  129MOL0     H16986   7.742   9.576   1.106 -0.7663 -0.9840 -0.7998
  129MOL0     H16987   7.635   9.706   1.072  0.6842  0.4915 -0.1263
  129MOL0     H16988   7.737   9.500   0.875 -0.3013 -0.0032  0.8748
  129MOL0     H16989   7.635   9.647   0.822  0.3562  0.8787  0.1277
  129MOL0     H16990   7.469   9.741   0.877  0.2303 -1.0706  3.5591
  129MOL0     H16991   7.262   9.793   0.766  2.7710  1.1592  3.0116
  129MOL0     H16992   6.900   9.599   0.452 -0.3848 -0.3099 -1.1785
  129MOL0     H16993   6.732   9.669   0.308 -1.3874 -0.9089  0.5289
  129MOL0     H16994   6.481   9.770   0.414 -0.0649  0.4490 -0.5281
  129MOL0     H16995   6.517   9.724   0.241  3.7976  2.1513 -2.4227
  129MOL0     H16996   6.361   9.977   0.325 -0.9686 -0.1102  1.6520
  129MOL0     H16997   6.288   9.835   0.344  0.9097 -0.2993 -0.2236
  129MOL0     H16998   6.311   9.782   0.092  2.4599 -0.5283 -0.5948
  129MOL0     H16999   6.439   9.895   0.080  1.3218  0.2862  1.5082
  129MOL0     H17000   6.221  10.053   0.170 -2.2748 -2.8184  2.5290
  129MOL0     H17001   6.278  10.025   0.002 -3.4133  0.0961 -1.9406
  129MOL0     H17002   6.049   9.860   0.154 -1.2689 -1.3689 -1.5414
  129MOL0     H17003   6.121   9.822  -0.001  1.3249  0.3425 -0.0995
  129MOL0     H17004   6.060  10.032  -0.101  2.0529  2.4795  0.9910
  129MOL0     H17005   6.016  10.097   0.047  2.6440  1.1202 -1.5300
  129MOL0     H17006   5.874   9.841  -0.050  1.4081 -0.7137  3.4522
  129MOL0     H17007   5.807   9.971   0.062 -0.3970 -0.6826  0.2127
  129MOL0     H17008   5.862  10.012  -0.235  1.9878 -0.9065 -0.0788
  129MOL0     H17009   5.836  10.136  -0.123  2.9440 -0.8160 -2.0598
  129MOL0     H17010   6.709  10.045   0.497  3.0192  1.5690 -1.1285
  129MOL0     H17011   6.899   9.973   0.650 -1.6704  0.6568 -0.9988
  129MOL0     H17012   7.122   9.382   0.834  0.5709 -0.8944 -2.9477
  129MOL0     H17013   7.335   9.337   0.932  0.2958  0.4592 -0.0740
  129MOL0     H17014   9.037   9.842   1.825 -0.6359  2.3207  1.0944
  129MOL0     H17015   9.204   9.842   2.023 -0.5033  0.8703 -0.0590
  129MOL0     H17016   9.568  10.165   2.236  0.5562  0.6382 -0.4199
  129MOL0     H17017   9.686  10.140   2.454  0.2940 -1.4041  2.1869
  129MOL0     H17018   9.784   9.956   2.755 -1.9476  2.2454  1.7076
  129MOL0     H17019   9.704  10.078   2.664 -0.4906 -0.0723  1.1524
  129MOL0     H17020   9.912  10.061   2.505 -0.4912  0.8161  0.0361
  129MOL0     H17021   9.940  10.123   2.673  3.0390 -1.0168 -0.0749
  129MOL0     H17022   9.990   9.829   2.619  0.9996 -2.1536  4.2004
  129MOL0     H17023  10.024   9.926   2.751  0.9820 -0.2227 -0.0456
  129MOL0     H17024  10.227   9.895   2.608 -0.1906 -0.2326  1.1507
  129MOL0     H17025  10.138   9.962   2.461 -0.8710  2.9472 -0.1418
  129MOL0     H17026  10.247  10.321   2.662 -0.0352 -0.0311 -1.5739
  129MOL0     H17027   9.693   9.716   2.382  0.7722 -0.6182 -2.3066
  129MOL0     H17028   9.613   9.757   2.156 -0.1839  2.0023 -1.3767
  130MOL0     O17029   5.299   5.275   9.428  0.2453 -0.0905 -0.4570
  130MOL0     C17030   5.317   5.296   9.306  0.7170 -0.7666 -0.2462
  130MOL0     O17031   5.212   5.337   9.218 -0.3473  0.4367  0.0085
  130MOL0     C17032   5.086   5.348   9.274  0.7806  0.1323 -0.4333
  130MOL0     C17033   5.069   5.434   9.385 -0.2443 -0.2897  1.0554
  130MOL0     C17034   4.941   5.453   9.435 -0.5696  0.1134  0.2392
  130MOL0     C17035   4.825   5.392   9.381  0.1733 -0.0268 -0.0811
  130MOL0     O17036   4.703   5.431   9.437 -0.4870 -0.4996  0.2460
  130MOL0     C17037   4.623   5.314   9.451 -0.2658 -0.0210  0.5565
  130MOL0     C17038   4.495   5.354   9.525 -0.3422  0.6508 -0.4648
  130MOL0     C17039   4.401   5.235   9.533 -0.7657  0.5021 -0.0405
  130MOL0     C17040   4.272   5.272   9.595 -0.3585  0.8878  0.0466
  130MOL0     C17041   4.177   5.154   9.582  0.5518 -0.2031  0.3740
  130MOL0     C17042   4.063   5.171   9.663  0.2505  0.1692  0.0751
  130MOL0     C17043   3.969   5.046   9.676 -0.2067  0.8767  0.5478
  130MOL0     C17044   3.881   5.041   9.548 -0.1539 -0.6259 -0.0132
  130MOL0     N17045   3.795   4.927   9.559  0.6000  0.5836  0.7486
  130MOL0     C17046   3.664   4.927   9.602  0.6122 -0.4211  0.7330
  130MOL0     C17047   3.600   4.807   9.560 -1.2982 -1.1128  0.3698
  130MOL0     C17048   3.457   4.775   9.570  0.4988  0.2535 -0.2060
  130MOL0     C17049   3.411   4.627   9.576 -0.2354  0.5520 -0.1231
  130MOL0     C17050   3.441   4.568   9.711  1.0306  0.0130  0.1337
  130MOL0     C17051   3.416   4.415   9.703  0.0691 -0.4305  0.9568
  130MOL0     O17052   3.274   4.379   9.681 -0.1504 -0.1774 -0.9686
  130MOL0     C17053   3.184   4.370   9.774  0.0571 -0.3638 -0.4634
  130MOL0     C17054   3.198   4.434   9.901 -0.1442  0.2409 -0.7296
  130MOL0     C17055   3.086   4.431   9.992 -0.3249  0.4753 -0.6358
  130MOL0     C17056   2.966   4.368   9.962 -0.4210  0.2360  1.4406
  130MOL0     C17057   2.848   4.359  10.055  0.3916 -0.1133  0.1239
  130MOL0     O17058   2.729   4.304  10.008  0.4136  0.3587  0.3432
  130MOL0     C17059   2.623   4.263  10.081 -0.0060  0.1337  0.0207
  130MOL0     C17060   2.527   4.208  10.005  0.2777 -0.5705  1.4678
  130MOL0     C17061   2.418   4.147  10.065 -0.8545  0.2284  0.9162
  130MOL0     C17062   2.400   4.149  10.197 -1.2297 -0.0037  0.2044
  130MOL0     O17063   2.298   4.090  10.261  0.3332 -0.5199  0.7120
  130MOL0     C17064   2.183   4.032  10.186  0.1137 -0.1404  0.8521
  130MOL0     C17065   2.089   4.146  10.145  0.0781  0.1742 -0.6655
  130MOL0     C17066   1.976   4.106  10.049  1.1111  0.5700 -0.0255
  130MOL0     C17067   1.855   4.045  10.123  0.2991  0.4899 -0.0403
  130MOL0     C17068   1.723   4.100  10.087 -0.0612 -0.3552 -0.4478
  130MOL0     C17069   1.613   4.017  10.141  1.2890  0.1382 -0.3425
  130MOL0     C17070   1.483   4.075  10.095  0.1475 -0.6135 -0.1864
  130MOL0     C17071   1.381   3.972  10.155 -0.1067 -0.9160 -0.0591
  130MOL0    Cl17072   1.223   4.025  10.128  0.4929  0.0541 -0.2264
  130MOL0     C17073   2.492   4.220  10.274 -0.4499 -0.6387 -0.0966
  130MOL0     C17074   2.610   4.269  10.221 -0.3797  0.3540  0.1295
  130MOL0     O17075   2.868   4.421  10.163  0.6449 -1.2266  0.0239
  130MOL0     C17076   2.961   4.313   9.828  0.0395  0.5340 -0.1456
  130MOL0     C17077   3.067   4.311   9.733  0.0791  0.2208 -0.7020
  130MOL0     N17078   3.701   4.741   9.488  0.1991  0.6105 -0.2188
  130MOL0     N17079   3.807   4.809   9.488 -0.0916 -0.0107  0.0261
  130MOL0     C17080   4.844   5.310   9.271  0.0383  1.7114  0.8478
  130MOL0     C17081   4.978   5.281   9.218  0.1358 -0.1068  0.0370
  130MOL0     C17082   5.454   5.309   9.249  0.0873 -0.8656  0.0033
  130MOL0     C17083   5.563   5.301   9.337  0.2005  0.3146 -0.2054
  130MOL0     C17084   5.694   5.317   9.286  0.5563 -1.0575 -0.0667
  130MOL0     C17085   5.721   5.347   9.153 -0.1840  0.3612 -0.6513
  130MOL0     O17086   5.847   5.369   9.098  0.6726  0.3848  0.2406
  130MOL0     C17087   5.965   5.365   9.183 -0.2308 -0.8426 -0.3225
  130MOL0     C17088   6.073   5.441   9.108  0.0692 -0.0119  0.1815
  130MOL0     C17089   6.212   5.411   9.146 -0.8731  1.1411 -1.0749
  130MOL0     C17090   6.309   5.461   9.038  0.2127  0.0255 -0.2498
  130MOL0     C17091   6.435   5.508   9.099 -0.2988  0.2172 -0.0961
  130MOL0     C17092   6.545   5.544   9.154 -0.1379  0.4958  0.6969
  130MOL0     C17093   5.617   5.361   9.065  0.3281 -0.9215 -0.7622
  130MOL0     C17094   5.482   5.346   9.117 -1.1260  1.0877 -0.7390
  130MOL0     H17095   5.153   5.477   9.438 -0.6898  0.9500  0.7766
  130MOL0     H17096   4.927   5.524   9.516  0.7364 -0.1938  0.7568
  130MOL0     H17097   4.685   5.233   9.491 -0.1946 -0.0185  0.4492
  130MOL0     H17098   4.592   5.277   9.353  0.8051 -0.9218  0.5363
  130MOL0     H17099   4.440   5.427   9.465 -3.2838 -0.4758  0.6719
  130MOL0     H17100   4.513   5.388   9.627 -1.1008 -0.7853  0.1934
  130MOL0     H17101   4.438   5.161   9.603 -3.1696 -0.0404  0.7555
  130MOL0     H17102   4.377   5.200   9.432 -2.7455 -0.6070  0.7582
  130MOL0     H17103   4.293   5.292   9.701 -0.3434 -2.1616  0.7245
  130MOL0     H17104   4.237   5.363   9.545 -0.4997 -0.3712 -2.2771
  130MOL0     H17105   4.225   5.065   9.624  1.7051  0.1010 -0.2645
  130MOL0     H17106   4.148   5.152   9.477  0.5786 -1.6959  0.3730
  130MOL0     H17107   4.005   5.257   9.626  1.5980  1.5589  1.0720
  130MOL0     H17108   4.098   5.190   9.765 -4.3768 -1.2516  2.2186
  130MOL0     H17109   4.031   4.958   9.689 -1.3352  0.0293  0.3390
  130MOL0     H17110   3.902   5.060   9.762 -1.8546  0.3217 -0.5822
  130MOL0     H17111   3.946   5.043   9.460  1.1050  0.6663  0.8940
  130MOL0     H17112   3.823   5.134   9.544 -0.4352 -0.7375  1.0888
  130MOL0     H17113   3.609   5.001   9.660  0.5160  0.0424  0.0564
  130MOL0     H17114   3.409   4.816   9.481 -0.4157 -2.1023 -0.8490
  130MOL0     H17115   3.418   4.842   9.648 -1.6365  0.3407 -1.2861
  130MOL0     H17116   3.481   4.574   9.511  0.1609 -1.4915  1.8767
  130MOL0     H17117   3.308   4.610   9.543 -0.8821  2.3976  0.8079
  130MOL0     H17118   3.548   4.585   9.725  1.2301  1.4049 -2.5602
  130MOL0     H17119   3.379   4.610   9.791  1.9312 -1.3456  1.6144
  130MOL0     H17120   3.439   4.376   9.803  1.2224 -1.7775  0.2021
  130MOL0     H17121   3.485   4.380   9.625  0.2049  0.8053  0.4889
  130MOL0     H17122   3.295   4.469   9.936  0.9063 -0.3708 -2.8538
  130MOL0     H17123   3.094   4.473  10.092 -0.1107 -1.9264  0.4024
  130MOL0     H17124   2.554   4.202   9.900  3.6441  3.6033  1.8368
  130MOL0     H17125   2.352   4.088  10.002  1.5266 -0.0156 -1.5639
  130MOL0     H17126   2.114   3.968  10.242 -1.0144  1.4152  1.2999
  130MOL0     H17127   2.211   3.978  10.095  1.2332  1.3263  0.2794
  130MOL0     H17128   2.140   4.225  10.090 -0.9930 -0.5623 -2.8775
  130MOL0     H17129   2.045   4.190  10.235  0.6127 -0.2917 -0.1653
  130MOL0     H17130   2.003   4.034   9.971 -1.3276 -0.8418  0.3150
  130MOL0     H17131   1.930   4.190   9.997 -0.9987 -0.4144  0.1595
  130MOL0     H17132   1.855   3.937  10.109 -0.6231  0.3998  0.5942
  130MOL0     H17133   1.858   4.049  10.233 -2.2419  1.4403  0.0578
  130MOL0     H17134   1.714   4.101   9.978  1.9734 -4.7758 -0.8473
  130MOL0     H17135   1.719   4.202  10.126  1.1073 -1.0535  1.6499
  130MOL0     H17136   1.619   4.016  10.250 -0.4692 -0.4679 -0.2220
  130MOL0     H17137   1.627   3.916  10.101  2.9734  0.6351 -1.1118
  130MOL0     H17138   1.467   4.181  10.119 -3.3387 -1.0100 -0.1285
  130MOL0     H17139   1.477   4.065   9.986  1.4541 -0.4913 -0.2769
  130MOL0     H17140   1.387   3.970  10.264  0.7398 -0.2077 -0.0831
  130MOL0     H17141   1.393   3.877  10.101  2.1269  0.2661 -1.8150
  130MOL0     H17142   2.489   4.215  10.382 -1.6747  0.8021 -0.0252
  130MOL0     H17143   2.680   4.301  10.298 -1.6489  1.6547  0.7935
  130MOL0     H17144   2.877   4.247   9.810  1.2458 -1.5962  1.5528
  130MOL0     H17145   3.055   4.261   9.638 -0.3954 -0.8081 -0.1254
  130MOL0     H17146   4.756   5.271   9.220  0.1654  1.0918  1.0886
  130MOL0     H17147   5.000   5.205   9.144 -0.5840 -0.1065 -0.1824
  130MOL0     H17148   5.551   5.282   9.443  1.7007  1.4335  0.2056
  130MOL0     H17149   5.772   5.306   9.360 -0.3232  0.2742  1.1283
  130MOL0     H17150   5.982   5.257   9.192 -1.1274 -0.8284  2.9063
  130MOL0     H17151   5.952   5.410   9.282  0.4922 -0.1121 -0.5497
  130MOL0     H17152   6.068   5.411   9.003  1.2531  1.2053 -0.2632
  130MOL0     H17153   6.052   5.548   9.093 -1.7352 -0.2914  0.4991
  130MOL0     H17154   6.231   5.304   9.159 -1.6608  1.2556  1.5207
  130MOL0     H17155   6.228   5.456   9.244  1.6707  1.2651 -1.4967
  130MOL0     H17156   6.332   5.384   8.964  3.2344  1.1982 -0.6336
  130MOL0     H17157   6.272   5.553   8.993 -0.6365 -0.2850 -0.2127
  130MOL0     H17158   6.635   5.581   9.198  1.4400 -2.1245 -0.1095
  130MOL0     H17159   5.630   5.386   8.961  0.8586  0.2027 -0.4449
  130MOL0     H17160   5.404   5.348   9.041 -0.1680  2.8819 -1.7411
  131MOL0     O17161   7.910   4.479   1.673 -0.3389 -0.5958 -0.1614
  131MOL0     C17162   7.939   4.360   1.687 -0.2191 -0.5005  0.7027
  131MOL0     O17163   7.855   4.256   1.673 -0.6053 -0.2063 -0.3127
  131MOL0     C17164   7.722   4.285   1.648 -0.3774 -0.4167  0.3292
  131MOL0     C17165   7.661   4.231   1.532  0.0914 -0.2065 -0.2507
  131MOL0     C17166   7.527   4.254   1.505 -0.3680 -0.9045  0.1421
  131MOL0     C17167   7.449   4.345   1.585  0.0729 -0.2237 -0.0069
  131MOL0     O17168   7.320   4.375   1.561 -0.1261  0.4760 -0.9831
  131MOL0     C17169   7.226   4.449   1.635  0.0584  0.0452  0.3228
  131MOL0     C17170   7.105   4.483   1.549 -0.1259 -0.4144 -0.3275
  131MOL0     C17171   7.043   4.615   1.610  0.3660  0.0756 -0.2766
  131MOL0     C17172   6.924   4.649   1.524 -0.3410  0.6118  0.3621
  131MOL0     C17173   6.837   4.764   1.568 -0.6354  0.3968 -0.5320
  131MOL0     C17174   6.736   4.785   1.456  0.0311 -0.3521 -0.1924
  131MOL0     C17175   6.637   4.890   1.513 -0.3649 -0.3017  0.2138
  131MOL0     C17176   6.505   4.903   1.440 -0.0044  1.3095  0.4198
  131MOL0     N17177   6.396   4.954   1.517  0.1270  0.4416  0.6376
  131MOL0     C17178   6.295   5.026   1.455 -0.2491  0.1546  0.4417
  131MOL0     C17179   6.208   5.061   1.555 -0.3737  0.2765  0.5932
  131MOL0     C17180   6.075   5.122   1.524 -0.2041 -0.2640  0.2337
  131MOL0     C17181   6.069   5.256   1.595 -0.3154 -0.5437  0.3181
  131MOL0     C17182   5.935   5.334   1.560 -0.5318  0.6744 -0.1741
  131MOL0     C17183   5.944   5.485   1.590  0.3709 -0.5666  0.2215
  131MOL0     O17184   5.930   5.512   1.724 -0.1136  0.1258 -0.7339
  131MOL0     C17185   5.809   5.513   1.785  0.4973  0.2122  0.1532
  131MOL0     C17186   5.686   5.483   1.718 -0.2342  0.3437 -0.9237
  131MOL0     C17187   5.564   5.469   1.788 -0.0254  0.7701 -0.1534
  131MOL0     C17188   5.555   5.483   1.929 -0.8212  0.1124  0.0523
  131MOL0     C17189   5.428   5.462   2.009 -0.3684 -0.2163  0.7854
  131MOL0     O17190   5.441   5.473   2.142 -0.3630 -0.2071 -0.0293
  131MOL0     C17191   5.338   5.478   2.234 -0.5953 -0.2523  0.0999
  131MOL0     C17192   5.204   5.506   2.205  0.8172 -0.1750  0.2714
  131MOL0     C17193   5.107   5.518   2.305  0.0174 -0.4054 -0.1524
  131MOL0     C17194   5.141   5.491   2.439 -0.1103  0.2128 -0.3337
  131MOL0     O17195   5.048   5.488   2.534  0.2837 -0.2363  1.0717
  131MOL0     C17196   4.909   5.510   2.518 -0.6208  0.2255 -0.1473
  131MOL0     C17197   4.851   5.484   2.658 -0.1150  0.1186 -0.4387
  131MOL0     C17198   4.703   5.495   2.647  0.5140 -0.3617  0.1098
  131MOL0     C17199   4.631   5.471   2.777  0.1211  0.6882  0.3332
  131MOL0     C17200   4.494   5.515   2.763 -0.2654  0.0327  0.2451
  131MOL0     C17201   4.413   5.480   2.888 -0.6344  0.3088 -0.1076
  131MOL0     C17202   4.278   5.547   2.876  0.7083 -0.7451  0.1078
  131MOL0     C17203   4.190   5.514   2.994 -0.0402  0.4964 -0.3456
  131MOL0    Cl17204   4.043   5.614   2.973 -0.1022  0.2959 -0.1346
  131MOL0     C17205   5.276   5.472   2.471  1.0284  0.2444 -0.3875
  131MOL0     C17206   5.373   5.459   2.362 -0.5670 -0.8069  0.1052
  131MOL0     O17207   5.325   5.447   1.947 -0.3148 -0.1673 -0.2511
  131MOL0     C17208   5.675   5.509   1.996  0.1922  0.0258  0.3950
  131MOL0     C17209   5.799   5.521   1.927  0.2263 -0.4386 -0.2636
  131MOL0     N17210   6.265   5.019   1.673  0.1725  0.5790  0.2896
  131MOL0     N17211   6.380   4.960   1.655  0.2940  0.7529 -0.6056
  131MOL0     C17212   7.510   4.401   1.702 -0.2349 -0.5392  0.1292
  131MOL0     C17213   7.644   4.372   1.730  0.3806  0.9856  0.1491
  131MOL0     C17214   8.077   4.320   1.710 -0.2046  0.4900  0.2707
  131MOL0     C17215   8.118   4.193   1.747  0.5639  0.1814  0.4146
  131MOL0     C17216   8.251   4.162   1.786 -0.1498 -0.7740 -0.1221
  131MOL0     C17217   8.350   4.260   1.771  0.2863  0.2224  0.0537
  131MOL0     O17218   8.471   4.209   1.803  0.6372 -0.0734 -0.0144
  131MOL0     C17219   8.583   4.288   1.762  0.7433  0.8398  0.8121
  131MOL0     C17220   8.629   4.369   1.883 -0.1470 -0.0123 -0.5777
  131MOL0     C17221   8.673   4.290   2.014 -0.1479 -0.3791 -0.3409
  131MOL0     C17222   8.739   4.378   2.121  0.6675 -0.3877  0.1763
  131MOL0     C17223   8.640   4.459   2.190 -1.2121 -1.0754 -0.0413
  131MOL0     C17224   8.568   4.531   2.257  0.7996  0.0226 -0.3278
  131MOL0     C17225   8.309   4.389   1.740  0.1560 -0.1546  0.0204
  131MOL0     C17226   8.174   4.417   1.710  0.1266 -0.7885  0.1942
  131MOL0     H17227   7.718   4.163   1.469  0.5975  0.8759 -0.9831
  131MOL0     H17228   7.475   4.216   1.418 -1.3730  0.3665  0.1561
  131MOL0     H17229   7.282   4.536   1.671  0.5805  0.6541 -1.8322
  131MOL0     H17230   7.191   4.396   1.724  1.2019  0.9845  1.3649
  131MOL0     H17231   7.039   4.396   1.545  0.9384 -1.2947  0.5227
  131MOL0     H17232   7.135   4.509   1.447  1.9459 -1.2748  0.0167
  131MOL0     H17233   7.101   4.706   1.592 -4.4000  3.5148 -0.1237
  131MOL0     H17234   7.035   4.610   1.719  2.6043  1.7172  0.0279
  131MOL0     H17235   6.967   4.664   1.425 -2.3601 -2.6344 -1.1732
  131MOL0     H17236   6.860   4.560   1.527 -0.5664  0.7898  2.6353
  131MOL0     H17237   6.904   4.849   1.585 -3.2687  2.6387 -0.7257
  131MOL0     H17238   6.793   4.726   1.660 -0.1607  0.9160 -0.0858
  131MOL0     H17239   6.682   4.698   1.416  2.0035 -0.6375 -2.4887
  131MOL0     H17240   6.792   4.820   1.369 -3.1135  1.0217 -1.8274
  131MOL0     H17241   6.622   4.859   1.616 -0.1344  0.2548  0.4225
  131MOL0     H17242   6.690   4.986   1.515 -1.1068  0.1070  0.4351
  131MOL0     H17243   6.475   4.802   1.409  2.6299  0.5429  0.1875
  131MOL0     H17244   6.512   4.959   1.346 -2.0258  0.5163 -0.2613
  131MOL0     H17245   6.282   5.050   1.350  0.9150 -0.1918  0.2011
  131MOL0     H17246   5.998   5.054   1.563 -0.4708 -0.9332 -1.3804
  131MOL0     H17247   6.056   5.139   1.418  1.3201 -1.7485 -0.3130
  131MOL0     H17248   6.153   5.321   1.570 -1.6044  1.9468  1.9971
  131MOL0     H17249   6.084   5.228   1.700  0.6423 -4.1509 -0.6434
  131MOL0     H17250   5.902   5.326   1.456 -1.1040  3.1260 -0.2381
  131MOL0     H17251   5.857   5.286   1.619 -0.4251 -0.6005 -1.0166
  131MOL0     H17252   5.859   5.532   1.539  1.1304  0.8513  0.2147
  131MOL0     H17253   6.033   5.536   1.552 -0.8617 -0.3053 -2.5252
  131MOL0     H17254   5.680   5.470   1.611 -1.5499 -2.5453 -0.5955
  131MOL0     H17255   5.470   5.459   1.734 -3.0232  0.7359  4.5251
  131MOL0     H17256   5.178   5.547   2.108  1.0489 -0.0058  0.2799
  131MOL0     H17257   5.003   5.537   2.277 -0.3941  1.2700  2.1698
  131MOL0     H17258   4.858   5.446   2.445 -0.0809 -1.4432  0.8840
  131MOL0     H17259   4.895   5.614   2.486 -1.8164  0.2756  0.4484
  131MOL0     H17260   4.898   5.548   2.733  1.4445 -1.8575  0.3675
  131MOL0     H17261   4.873   5.379   2.682 -0.4450  0.3970  1.1615
  131MOL0     H17262   4.662   5.420   2.578  2.2614 -0.6521 -0.6555
  131MOL0     H17263   4.673   5.594   2.612 -2.8360 -1.0836  0.5743
  131MOL0     H17264   4.628   5.365   2.804  4.5764  0.4709  0.6216
  131MOL0     H17265   4.687   5.519   2.857 -0.5246  0.8903  0.6734
  131MOL0     H17266   4.451   5.475   2.671  1.1627 -1.7268  0.2860
  131MOL0     H17267   4.490   5.623   2.775 -1.4947 -0.1448  1.8194
  131MOL0     H17268   4.455   5.506   2.986 -2.6438 -2.9497  1.8086
  131MOL0     H17269   4.395   5.372   2.900 -2.7174  0.6700  0.4429
  131MOL0     H17270   4.299   5.654   2.868  0.1403 -0.6852 -0.6755
  131MOL0     H17271   4.225   5.517   2.786 -0.6707  0.1139  0.5968
  131MOL0     H17272   4.229   5.519   3.096 -1.0623 -0.7736  0.1352
  131MOL0     H17273   4.156   5.411   2.985  0.5202  0.1958  0.7613
  131MOL0     H17274   5.292   5.457   2.577 -0.2821 -0.9474 -0.3255
  131MOL0     H17275   5.477   5.444   2.389  0.3659  0.2233 -2.6063
  131MOL0     H17276   5.678   5.512   2.105  0.7752  0.8838  0.3580
  131MOL0     H17277   5.890   5.534   1.984 -2.0475  1.0467  3.4116
  131MOL0     H17278   7.461   4.456   1.782 -0.1218 -0.7527  0.3475
  131MOL0     H17279   7.677   4.416   1.823  1.3013  0.4447  0.0926
  131MOL0     H17280   8.050   4.109   1.761  1.0706 -0.0641  1.4725
  131MOL0     H17281   8.266   4.060   1.822 -0.8752 -1.3567 -1.4172
  131MOL0     H17282   8.573   4.360   1.680  0.9398  1.6160  1.4568
  131MOL0     H17283   8.664   4.220   1.734 -2.0393 -1.9045 -1.2120
  131MOL0     H17284   8.713   4.428   1.844 -1.9672  0.9624 -3.3188
  131MOL0     H17285   8.549   4.433   1.921 -0.5333 -1.6800  1.5664
  131MOL0     H17286   8.735   4.204   1.987  1.5074  0.2959  1.1960
  131MOL0     H17287   8.579   4.252   2.056 -1.1732  1.4167 -0.8936
  131MOL0     H17288   8.797   4.316   2.190  1.4767 -1.6240 -1.5336
  131MOL0     H17289   8.810   4.439   2.065 -0.6438  0.1773 -0.9512
  131MOL0     H17290   8.502   4.593   2.313 -0.3256  1.6168 -3.2649
  131MOL0     H17291   8.382   4.468   1.729  0.5637 -0.7267 -1.5540
  131MOL0     H17292   8.157   4.513   1.662 -2.6344 -0.2508  2.0293
  132MOL0     O17293  10.598   1.611   3.437  0.2058  0.1259 -0.0918
  132MOL0     C17294  10.635   1.536   3.531 -0.2786 -0.7544 -0.5525
  132MOL0     O17295  10.556   1.455   3.606  0.5786  0.6566 -0.1747
  132MOL0     C17296  10.424   1.466   3.584  0.2651  0.3855  0.6184
  132MOL0     C17297  10.348   1.584   3.622 -0.0532 -0.3969 -0.6510
  132MOL0     C17298  10.219   1.591   3.569  0.6302 -0.4860 -0.8502
  132MOL0     C17299  10.167   1.492   3.477  0.1765  0.5096  0.6058
  132MOL0     O17300  10.041   1.496   3.423 -0.2863 -0.6067 -0.5672
  132MOL0     C17301   9.952   1.601   3.462  0.4355 -0.4421 -0.3596
  132MOL0     C17302   9.846   1.625   3.358  0.1492 -0.0748  0.7074
  132MOL0     C17303   9.763   1.500   3.313 -1.5541  0.5611 -0.3161
  132MOL0     C17304   9.664   1.542   3.205  0.3021 -0.3044 -0.3814
  132MOL0     C17305   9.584   1.416   3.145 -0.5321 -1.0907 -0.6552
  132MOL0     C17306   9.530   1.315   3.250  0.2976 -0.1280 -0.2985
  132MOL0     C17307   9.427   1.218   3.183 -0.1491 -0.4569 -0.2140
  132MOL0     C17308   9.360   1.119   3.279 -0.6637  0.4657  0.1179
  132MOL0     N17309   9.240   1.049   3.231 -0.0735  0.1050 -0.5284
  132MOL0     C17310   9.240   0.951   3.140  0.6132 -0.6355 -0.3387
  132MOL0     C17311   9.108   0.907   3.155 -0.0787 -0.3540  0.0430
  132MOL0     C17312   9.055   0.785   3.082  0.2467 -0.0166  0.3642
  132MOL0     C17313   8.914   0.793   3.060 -0.0570  0.0554 -0.8204
  132MOL0     C17314   8.860   0.657   3.013  0.2745 -0.3411  0.4364
  132MOL0     C17315   8.726   0.671   2.957  0.0287 -0.3598 -0.0916
  132MOL0     O17316   8.681   0.537   2.941  0.3894  0.1114  0.0334
  132MOL0     C17317   8.556   0.520   2.887  0.2604 -0.9491 -0.6076
  132MOL0     C17318   8.513   0.393   2.852  0.2921  0.0654  0.3490
  132MOL0     C17319   8.387   0.371   2.802  1.0313  0.4522  0.5357
  132MOL0     C17320   8.304   0.475   2.770 -0.6994  0.5956  0.1055
  132MOL0     C17321   8.176   0.453   2.709  0.1293 -0.4153 -0.2577
  132MOL0     O17322   8.079   0.548   2.734 -0.0626  0.3746  0.1787
  132MOL0     C17323   7.952   0.524   2.696 -0.1022  0.3301  0.8129
  132MOL0     C17324   7.864   0.443   2.770  0.4455  0.0826  0.5346
  132MOL0     C17325   7.729   0.418   2.729  1.0070  0.1519 -0.2414
  132MOL0     C17326   7.681   0.488   2.615 -0.3091  0.9733 -0.3795
  132MOL0     O17327   7.556   0.449   2.563 -0.1006 -0.3953 -0.6479
  132MOL0     C17328   7.459   0.543   2.527 -0.4877 -0.4705 -0.1718
  132MOL0     C17329   7.334   0.459   2.503  0.4164 -0.0472 -0.5048
  132MOL0     C17330   7.221   0.560   2.474  0.4023 -0.6460  0.0021
  132MOL0     C17331   7.087   0.483   2.463  0.5984  0.5231  0.6459
  132MOL0     C17332   6.974   0.582   2.421  0.6070  0.0957 -0.2649
  132MOL0     C17333   6.845   0.514   2.380  0.3731 -0.2126 -0.2898
  132MOL0     C17334   6.762   0.609   2.302  0.5075 -0.9572  0.6014
  132MOL0     C17335   6.621   0.567   2.273  0.5137 -0.4450 -0.8743
  132MOL0    Cl17336   6.504   0.701   2.266 -0.1797  0.1221  0.0440
  132MOL0     C17337   7.760   0.575   2.550 -0.2455 -0.5575  0.0478
  132MOL0     C17338   7.893   0.599   2.594  0.2160 -0.2468  0.0688
  132MOL0     O17339   8.165   0.343   2.650  0.7374 -0.1792 -1.2241
  132MOL0     C17340   8.345   0.605   2.798  0.4223  1.1180 -0.4673
  132MOL0     C17341   8.462   0.628   2.868 -0.4439 -0.0449  0.6613
  132MOL0     N17342   9.043   0.965   3.258 -0.9306 -0.3264 -0.1086
  132MOL0     N17343   9.131   1.042   3.311 -0.4283 -0.2888  0.2353
  132MOL0     C17344  10.239   1.371   3.463 -0.2686 -0.0180 -0.2040
  132MOL0     C17345  10.365   1.364   3.514 -0.3335 -0.2324  0.4453
  132MOL0     C17346  10.776   1.561   3.583  0.2651  0.3139 -0.0598
  132MOL0     C17347  10.832   1.470   3.676 -1.2765  0.2737  0.1722
  132MOL0     C17348  10.961   1.502   3.732  0.3965 -0.0618  0.7253
  132MOL0     C17349  11.034   1.610   3.690  0.0040 -0.6303  0.3875
  132MOL0     O17350  11.159   1.636   3.743  0.0403 -0.1785  0.0322
  132MOL0     C17351  11.231   1.742   3.690 -1.6481 -0.0859  0.0521
  132MOL0     C17352  11.371   1.734   3.761  0.6468  0.5786  0.5784
  132MOL0     C17353  11.453   1.616   3.692 -0.9778 -0.3067  0.0465
  132MOL0     C17354  11.598   1.651   3.640 -0.1242 -0.2001  0.0810
  132MOL0     C17355  11.594   1.745   3.527  0.3559  0.6807 -0.4833
  132MOL0     C17356  11.580   1.822   3.440  0.6225  0.5892  0.9706
  132MOL0     C17357  10.971   1.697   3.595  0.5005 -1.0548  0.2212
  132MOL0     C17358  10.851   1.671   3.541  0.2542  0.6621  0.5168
  132MOL0     H17359  10.397   1.653   3.690 -1.1925 -0.6053  0.4124
  132MOL0     H17360  10.168   1.671   3.620 -0.4761 -1.7031  0.0160
  132MOL0     H17361   9.998   1.701   3.464 -2.0910  0.8696 -1.7764
  132MOL0     H17362   9.899   1.586   3.556 -2.2980 -2.7116 -2.1087
  132MOL0     H17363   9.892   1.668   3.269 -2.0701 -0.5295 -0.7410
  132MOL0     H17364   9.778   1.704   3.393 -2.0306 -1.2285 -0.6640
  132MOL0     H17365   9.712   1.462   3.402  1.7429 -1.6216  0.8187
  132MOL0     H17366   9.826   1.420   3.275 -0.3858  1.2100  0.1883
  132MOL0     H17367   9.597   1.614   3.252  1.3196 -0.7432  1.8802
  132MOL0     H17368   9.713   1.598   3.125 -0.6141 -2.0153 -2.2133
  132MOL0     H17369   9.658   1.370   3.079  1.7076  1.7977 -0.3205
  132MOL0     H17370   9.500   1.455   3.086 -1.6381  1.5689  2.3649
  132MOL0     H17371   9.476   1.368   3.329  1.5791  0.4764  0.2167
  132MOL0     H17372   9.616   1.267   3.299  1.8133  1.8026 -0.9228
  132MOL0     H17373   9.351   1.283   3.139 -0.5625 -0.5909  0.2964
  132MOL0     H17374   9.477   1.165   3.101  0.2605 -0.0855 -0.2138
  132MOL0     H17375   9.338   1.162   3.378 -1.4135  0.3566  0.0062
  132MOL0     H17376   9.428   1.035   3.297  0.2247  0.1356 -3.9874
  132MOL0     H17377   9.312   0.915   3.067 -1.7657 -2.0481 -2.1300
  132MOL0     H17378   9.088   0.691   3.128  0.6608 -1.1050 -2.0026
  132MOL0     H17379   9.102   0.789   2.983 -1.6476 -1.5188 -0.6506
  132MOL0     H17380   8.893   0.874   2.990  2.4103 -0.4997 -2.3324
  132MOL0     H17381   8.877   0.807   3.162  2.7276  0.0556  0.2811
  132MOL0     H17382   8.911   0.616   2.925 -0.2774  3.6321 -1.9920
  132MOL0     H17383   8.857   0.582   3.093  2.1429 -0.6600  0.2430
  132MOL0     H17384   8.722   0.722   2.861  0.1938  1.6196  0.9002
  132MOL0     H17385   8.670   0.744   3.017  0.6762  0.8163 -0.8801
  132MOL0     H17386   8.578   0.312   2.884 -3.7633 -3.0357  1.4994
  132MOL0     H17387   8.345   0.271   2.791  1.5920  0.1859  0.7817
  132MOL0     H17388   7.903   0.397   2.861  0.7086  1.1161  0.9601
  132MOL0     H17389   7.661   0.359   2.790  0.0240  1.8702  0.3961
  132MOL0     H17390   7.485   0.596   2.435  1.0692 -0.3461  0.3035
  132MOL0     H17391   7.429   0.614   2.604 -0.3246 -0.9629  0.3518
  132MOL0     H17392   7.316   0.412   2.600  3.3362 -0.9044 -0.2733
  132MOL0     H17393   7.349   0.387   2.422  0.2246  0.7606 -1.2729
  132MOL0     H17394   7.240   0.612   2.379  0.2788 -0.1776  0.2314
  132MOL0     H17395   7.216   0.636   2.552  3.2001 -1.4228  1.0775
  132MOL0     H17396   7.099   0.390   2.407 -1.1460  0.3054  0.5908
  132MOL0     H17397   7.071   0.455   2.567  1.4228 -0.9245  0.4004
  132MOL0     H17398   7.006   0.623   2.324 -1.1089  1.6283 -0.2367
  132MOL0     H17399   6.959   0.669   2.486  0.9050  1.1047 -1.5027
  132MOL0     H17400   6.776   0.480   2.457 -2.7757  0.7991 -2.4379
  132MOL0     H17401   6.861   0.426   2.318  0.8162 -0.2863 -0.0725
  132MOL0     H17402   6.765   0.701   2.361  1.0443  0.8898 -2.1054
  132MOL0     H17403   6.804   0.632   2.203 -2.0140 -0.9538 -0.5414
  132MOL0     H17404   6.590   0.517   2.365  1.1792  1.9418  0.7267
  132MOL0     H17405   6.610   0.506   2.183 -1.9748  0.1656 -1.0676
  132MOL0     H17406   7.722   0.631   2.466 -1.1672  0.9132  1.3767
  132MOL0     H17407   7.955   0.677   2.549 -1.2837  1.0249  0.1333
  132MOL0     H17408   8.285   0.694   2.785 -0.4866  0.7412  0.9744
  132MOL0     H17409   8.477   0.732   2.894  1.0273  0.1308 -0.7320
  132MOL0     H17410  10.187   1.294   3.407 -1.0603 -0.9532  1.7189
  132MOL0     H17411  10.415   1.274   3.481 -0.8129  0.2003 -1.5687
  132MOL0     H17412  10.775   1.386   3.715 -0.0375 -0.2973  0.7928
  132MOL0     H17413  10.995   1.436   3.810 -0.8805 -1.8422 -0.1719
  132MOL0     H17414  11.184   1.837   3.717  1.4620  1.1026  1.7753
  132MOL0     H17415  11.243   1.749   3.581  0.8449  3.2351  0.3639
  132MOL0     H17416  11.418   1.833   3.752 -0.0076  0.7017 -3.0330
  132MOL0     H17417  11.356   1.719   3.868  0.4226  1.6516  0.7106
  132MOL0     H17418  11.399   1.557   3.617  0.4187 -1.5205 -0.0299
  132MOL0     H17419  11.477   1.543   3.769 -0.4746  0.3895  0.5659
  132MOL0     H17420  11.649   1.694   3.726 -2.4477  0.5654  1.1569
  132MOL0     H17421  11.649   1.561   3.604  1.7911  0.9855 -0.3549
  132MOL0     H17422  11.566   1.891   3.359  0.5704 -0.1321  0.3456
  132MOL0     H17423  11.020   1.784   3.553 -0.0856 -1.2495 -0.8970
  132MOL0     H17424  10.815   1.734   3.461 -0.6523 -0.3717  0.0844
  133MOL0     O17425   9.892   9.459   6.948 -0.7517 -0.4082 -0.2100
  133MOL0     C17426   9.939   9.402   6.852 -0.2081 -0.1453 -0.2405
  133MOL0     O17427   9.878   9.327   6.760  0.6565 -0.3937 -0.3137
  133MOL0     C17428   9.735   9.332   6.759 -0.2511 -0.2824 -0.3771
  133MOL0     C17429   9.673   9.347   6.638  0.5620 -0.0981  0.3439
  133MOL0     C17430   9.531   9.362   6.637  0.2231  0.3948 -0.0605
  133MOL0     C17431   9.452   9.341   6.753 -0.2568 -1.3086 -0.0522
  133MOL0     O17432   9.315   9.324   6.763  0.5689 -0.1015 -0.1782
  133MOL0     C17433   9.237   9.307   6.652  0.2553 -0.6792  0.1674
  133MOL0     C17434   9.094   9.278   6.697  0.1964 -0.6815 -0.0242
  133MOL0     C17435   9.022   9.405   6.744 -0.0340  0.6101  0.1870
  133MOL0     C17436   8.865   9.371   6.757  0.0591 -0.0915 -0.2564
  133MOL0     C17437   8.787   9.481   6.834  0.1238 -0.5936  0.5067
  133MOL0     C17438   8.641   9.442   6.835 -0.2089  0.0582 -0.0728
  133MOL0     C17439   8.550   9.523   6.921  0.4372 -0.1758  0.3721
  133MOL0     C17440   8.414   9.457   6.931  0.3233 -0.2983 -0.6360
  133MOL0     N17441   8.314   9.523   6.852 -0.2187 -0.2432 -0.3329
  133MOL0     C17442   8.306   9.497   6.717  0.0174 -0.1460  0.1777
  133MOL0     C17443   8.189   9.566   6.686  0.1204 -0.0234 -0.1804
  133MOL0     C17444   8.137   9.567   6.543  0.0909 -1.1080 -0.1955
  133MOL0     C17445   7.991   9.520   6.519 -0.0904  0.8237  0.0259
  133MOL0     C17446   7.884   9.592   6.589  1.0506 -0.4811  0.6879
  133MOL0     C17447   7.743   9.538   6.562  0.2565 -0.2881  0.6262
  133MOL0     O17448   7.700   9.578   6.434  0.3470 -0.0744  0.0324
  133MOL0     C17449   7.589   9.515   6.390 -0.3300 -0.1270  0.1360
  133MOL0     C17450   7.567   9.539   6.262  0.0663  0.1954 -0.4857
  133MOL0     C17451   7.456   9.494   6.203  0.7859 -0.0431 -0.0067
  133MOL0     C17452   7.369   9.398   6.267 -0.0595  0.3963  0.1789
  133MOL0     C17453   7.259   9.338   6.187 -0.5297  0.4003 -0.5662
  133MOL0     O17454   7.181   9.258   6.265 -0.4416  0.2814 -0.1890
  133MOL0     C17455   7.073   9.190   6.220 -0.2994  0.9478  0.1916
  133MOL0     C17456   6.961   9.275   6.193  0.0084  0.4624  0.2138
  133MOL0     C17457   6.836   9.217   6.186  0.6027 -0.6540 -0.5357
  133MOL0     C17458   6.804   9.082   6.192  0.6314 -0.2386  0.6644
  133MOL0     O17459   6.669   9.056   6.185  0.1839  0.4089 -1.4030
  133MOL0     C17460   6.619   8.931   6.238  0.8094  0.2231  0.2567
  133MOL0     C17461   6.469   8.920   6.244 -0.0318 -0.9423 -0.4221
  133MOL0     C17462   6.407   8.906   6.107  0.0390 -0.2319  0.7494
  133MOL0     C17463   6.384   9.048   6.040 -0.6779  0.2095  0.1774
  133MOL0     C17464   6.303   9.038   5.917  0.0721 -0.5941  0.2608
  133MOL0     C17465   6.160   9.013   5.946  0.2878  0.0763  0.0362
  133MOL0     C17466   6.059   9.022   5.821  0.4275 -0.4097  0.0422
  133MOL0     C17467   6.035   9.169   5.773  1.0229 -0.4615 -0.5996
  133MOL0    Cl17468   5.954   9.260   5.903  0.2458  0.2934 -0.2490
  133MOL0     C17469   6.917   8.993   6.210  0.2182 -0.5639  0.2013
  133MOL0     C17470   7.049   9.047   6.225 -0.3000 -0.4959 -0.6515
  133MOL0     O17471   7.236   9.370   6.068 -0.2922  0.5353 -0.2554
  133MOL0     C17472   7.389   9.369   6.404  0.2041  0.5476  0.0341
  133MOL0     C17473   7.502   9.429   6.461  1.0597  0.0300  0.6528
  133MOL0     N17474   8.134   9.625   6.793  0.4595 -0.6940 -0.4491
  133MOL0     N17475   8.217   9.604   6.891 -0.0474  0.0866 -0.3040
  133MOL0     C17476   9.514   9.313   6.877 -0.6529  0.2500 -0.2259
  133MOL0     C17477   9.656   9.320   6.881 -0.0490  0.9856 -0.0119
  133MOL0     C17478  10.092   9.417   6.837  0.0829  0.3365  0.2996
  133MOL0     C17479  10.171   9.490   6.925 -0.4846 -0.4699  0.5404
  133MOL0     C17480  10.313   9.491   6.909  0.3733  0.1359 -0.0140
  133MOL0     C17481  10.367   9.416   6.801  0.7991  0.0652 -0.1576
  133MOL0     O17482  10.505   9.416   6.793  0.0527 -0.0219  0.0745
  133MOL0     C17483  10.547   9.419   6.656 -0.1322  0.0946  0.2140
  133MOL0     C17484  10.540   9.554   6.600  0.2618  0.2680 -0.3179
  133MOL0     C17485  10.407   9.598   6.522  0.0598  0.0635  0.3722
  133MOL0     C17486  10.439   9.723   6.436  0.2675 -0.6286  0.7723
  133MOL0     C17487  10.321   9.803   6.396  0.2093  0.0638 -0.2651
  133MOL0     C17488  10.221   9.863   6.359 -0.2409  0.0393 -0.2200
  133MOL0     C17489  10.285   9.343   6.715 -0.5694  0.5022 -0.5548
  133MOL0     C17490  10.149   9.339   6.733  0.1356  0.8131 -0.4796
  133MOL0     H17491   9.735   9.366   6.551 -0.4655 -1.2483 -0.6947
  133MOL0     H17492   9.484   9.383   6.541 -2.9532  1.0329  1.5143
  133MOL0     H17493   9.270   9.211   6.610  1.1765  0.4292 -1.7600
  133MOL0     H17494   9.252   9.389   6.582  0.9206 -1.2315 -0.3537
  133MOL0     H17495   9.100   9.211   6.783  0.3665 -0.3056  0.2610
  133MOL0     H17496   9.027   9.234   6.624 -0.7918  0.5684  0.1006
  133MOL0     H17497   9.041   9.486   6.673 -1.6996  2.3706  1.6574
  133MOL0     H17498   9.055   9.431   6.845  0.4371 -0.1048  0.2235
  133MOL0     H17499   8.821   9.351   6.659  2.1511  1.0114 -1.5006
  133MOL0     H17500   8.859   9.284   6.822  0.9184  0.2798  0.3425
  133MOL0     H17501   8.801   9.583   6.798 -2.8778 -0.0951  0.4894
  133MOL0     H17502   8.833   9.492   6.933 -0.5632  0.4444  0.7274
  133MOL0     H17503   8.645   9.340   6.873 -1.5041  0.6084  1.6780
  133MOL0     H17504   8.601   9.441   6.733  1.1090  1.3067 -0.6373
  133MOL0     H17505   8.599   9.536   7.018  1.6029 -1.0884 -0.0704
  133MOL0     H17506   8.543   9.617   6.866 -0.5829 -1.2461 -1.4176
  133MOL0     H17507   8.375   9.470   7.033 -1.0765 -0.9044 -1.0663
  133MOL0     H17508   8.407   9.348   6.922 -1.5784 -0.3368  0.6633
  133MOL0     H17509   8.368   9.448   6.643 -0.2753  1.3981 -1.1673
  133MOL0     H17510   8.204   9.511   6.476 -0.4951  0.2755 -2.0101
  133MOL0     H17511   8.144   9.665   6.497 -0.8418 -1.7530 -1.7953
  133MOL0     H17512   7.976   9.418   6.556 -1.3758  0.9719 -0.0352
  133MOL0     H17513   7.981   9.514   6.411 -1.7824 -0.3831  0.2051
  133MOL0     H17514   7.895   9.584   6.697 -1.7195 -3.2830  0.9082
  133MOL0     H17515   7.882   9.697   6.560  3.3328 -0.2157  1.3172
  133MOL0     H17516   7.684   9.583   6.642 -0.6793 -2.2004  1.0524
  133MOL0     H17517   7.747   9.429   6.569  3.7681 -0.3540 -0.5899
  133MOL0     H17518   7.634   9.610   6.215  1.7299  0.4337  2.0948
  133MOL0     H17519   7.438   9.529   6.102  1.3685  0.9766  0.2280
  133MOL0     H17520   6.974   9.381   6.210 -1.6717  0.3424  2.7847
  133MOL0     H17521   6.756   9.290   6.176 -0.8674 -2.2191 -0.6615
  133MOL0     H17522   6.648   8.929   6.343 -3.3463 -3.2562  1.6246
  133MOL0     H17523   6.660   8.846   6.182 -0.7847  0.4955 -1.4214
  133MOL0     H17524   6.439   9.006   6.305 -2.6664 -1.1478 -1.3027
  133MOL0     H17525   6.440   8.832   6.302 -0.7117 -0.2953  0.2413
  133MOL0     H17526   6.316   8.845   6.104 -0.8619  1.1067 -0.5271
  133MOL0     H17527   6.480   8.857   6.042  0.4692  0.6762  0.5332
  133MOL0     H17528   6.334   9.115   6.111 -1.4914  1.9459 -1.9262
  133MOL0     H17529   6.482   9.081   6.006  0.3580 -1.1468  1.7216
  133MOL0     H17530   6.339   8.955   5.856 -0.8319 -0.6744 -0.1762
  133MOL0     H17531   6.311   9.133   5.864 -0.2901 -1.6547 -1.7761
  133MOL0     H17532   6.121   9.084   6.019 -1.1930 -2.5191  1.9368
  133MOL0     H17533   6.142   8.914   5.988 -0.5974 -0.7981 -2.2480
  133MOL0     H17534   6.092   8.958   5.739  0.1809 -2.4614  1.4737
  133MOL0     H17535   5.957   8.986   5.838 -0.2196 -0.4042 -3.2754
  133MOL0     H17536   5.966   9.164   5.688 -0.0636  1.0533  0.1520
  133MOL0     H17537   6.128   9.218   5.745  2.4856 -3.4780 -1.4680
  133MOL0     H17538   6.890   8.888   6.208  0.0764 -0.5246 -0.8528
  133MOL0     H17539   7.138   8.985   6.230  1.9227  2.5628  2.6758
  133MOL0     H17540   7.331   9.303   6.469 -0.6600  0.4020 -0.8624
  133MOL0     H17541   7.521   9.404   6.565 -0.0210 -1.6387  0.4762
  133MOL0     H17542   9.450   9.292   6.962 -0.1691 -2.3660 -0.4117
  133MOL0     H17543   9.699   9.313   6.980  1.7157 -3.3627 -0.8329
  133MOL0     H17544  10.129   9.536   7.014 -0.2982  0.2704  0.2503
  133MOL0     H17545  10.381   9.543   6.975  2.6308  0.8742 -2.7182
  133MOL0     H17546  10.513   9.343   6.584  0.9922 -1.4149  1.1977
  133MOL0     H17547  10.653   9.394   6.671  0.3762  1.1496 -1.4148
  133MOL0     H17548  10.540   9.623   6.686  2.3147  1.0803 -0.9142
  133MOL0     H17549  10.626   9.580   6.538  0.3119  2.7915  0.6699
  133MOL0     H17550  10.322   9.624   6.585 -2.7553  0.9128 -3.4433
  133MOL0     H17551  10.363   9.518   6.461 -0.5713 -0.7621  1.8493
  133MOL0     H17552  10.498   9.784   6.505  0.0840 -2.1731  2.3769
  133MOL0     H17553  10.490   9.707   6.340 -1.7587  0.0710 -0.4878
  133MOL0     H17554  10.134   9.918   6.330  0.7985  2.1566  0.4234
  133MOL0     H17555  10.327   9.285   6.633  1.2037  2.3370 -1.0532
  133MOL0     H17556  10.087   9.276   6.672 -1.0194 -0.4416  1.8683
  134MOL0     O17557   6.400   5.618   4.793  0.0772  0.5051 -0.3294
  134MOL0     C17558   6.455   5.643   4.897 -0.2577 -0.1253  0.1087
  134MOL0     O17559   6.462   5.560   5.007  0.2644 -0.0587 -0.3973
  134MOL0     C17560   6.401   5.441   5.014 -0.4106 -0.8021  0.0876
  134MOL0     C17561   6.458   5.330   5.080 -0.3873 -0.0708 -0.5822
  134MOL0     C17562   6.382   5.222   5.108  0.8257  0.2065 -0.1936
  134MOL0     C17563   6.249   5.202   5.069 -0.1689 -0.6310  0.5007
  134MOL0     O17564   6.194   5.080   5.101 -0.1511  0.0830 -0.4552
  134MOL0     C17565   6.073   5.049   5.032 -0.0779 -0.6617  0.3689
  134MOL0     C17566   6.026   4.907   5.052  0.0692  0.3692 -0.6210
  134MOL0     C17567   5.878   4.888   5.004  0.5439  0.1811  0.1316
  134MOL0     C17568   5.820   4.769   5.078  0.7247  0.1122  0.0422
  134MOL0     C17569   5.682   4.732   5.039  0.9044 -0.0263  0.2868
  134MOL0     C17570   5.624   4.634   5.132  0.8288 -0.3653 -0.3842
  134MOL0     C17571   5.485   4.585   5.091  0.0774  0.1354  0.1662
  134MOL0     C17572   5.434   4.497   5.202  0.3284 -0.1842 -0.0565
  134MOL0     N17573   5.296   4.444   5.187 -0.2605  0.4377 -0.4643
  134MOL0     C17574   5.221   4.359   5.269  0.3712 -0.3243 -0.6003
  134MOL0     C17575   5.109   4.347   5.198 -0.2213  0.0031  0.3162
  134MOL0     C17576   4.985   4.289   5.254 -0.3077  0.4405  0.1461
  134MOL0     C17577   4.880   4.387   5.302  0.5204 -0.4229  0.0757
  134MOL0     C17578   4.743   4.310   5.322  0.2722 -0.1252  1.2134
  134MOL0     C17579   4.628   4.403   5.362  0.5445  0.9254 -0.0234
  134MOL0     O17580   4.503   4.335   5.370 -0.1881  0.4686  0.7200
  134MOL0     C17581   4.392   4.413   5.378  0.2925  0.0412  0.5349
  134MOL0     C17582   4.378   4.531   5.456 -0.1694  0.1227  0.0661
  134MOL0     C17583   4.256   4.601   5.454 -0.4022 -0.1876  0.4203
  134MOL0     C17584   4.150   4.552   5.380  0.4776  0.3744  0.1524
  134MOL0     C17585   4.020   4.618   5.395 -0.6279 -0.1590  0.2359
  134MOL0     O17586   4.018   4.722   5.485  0.5485 -0.8020 -0.4569
  134MOL0     C17587   3.903   4.801   5.505 -0.9140 -0.3115 -0.5894
  134MOL0     C17588   3.942   4.936   5.527  0.2734 -0.5590 -0.5946
  134MOL0     C17589   3.847   5.036   5.528  0.2483 -0.0563 -0.6986
  134MOL0     C17590   3.711   4.999   5.531  0.0506  0.6671 -0.2487
  134MOL0     O17591   3.623   5.094   5.540  0.5443  0.0511 -0.1723
  134MOL0     C17592   3.640   5.169   5.658  0.1747 -0.6608 -1.3867
  134MOL0     C17593   3.524   5.263   5.658  1.2947 -0.2196  0.7345
  134MOL0     C17594   3.390   5.207   5.712 -0.5026  0.1094  0.5605
  134MOL0     C17595   3.282   5.304   5.721 -0.5412 -0.0698  0.3493
  134MOL0     C17596   3.163   5.234   5.786 -0.2285 -0.6349  0.0036
  134MOL0     C17597   3.059   5.339   5.844 -0.3812  0.8505  0.2180
  134MOL0     C17598   2.927   5.264   5.878  0.0543 -0.7033  0.2417
  134MOL0     C17599   2.840   5.334   5.982 -0.8395 -0.7173 -0.3250
  134MOL0    Cl17600   2.765   5.470   5.901 -0.2411  0.1660 -0.1974
  134MOL0     C17601   3.673   4.867   5.521 -0.5073  1.2408  0.1455
  134MOL0     C17602   3.770   4.763   5.504  0.7869 -0.5655  0.0256
  134MOL0     O17603   3.924   4.571   5.331  0.4680 -0.0638 -0.5247
  134MOL0     C17604   4.163   4.434   5.300 -0.5821 -0.2783  0.2165
  134MOL0     C17605   4.285   4.372   5.294 -0.1888  0.1846 -0.0769
  134MOL0     N17606   5.115   4.415   5.074 -0.1857 -0.4929  0.4679
  134MOL0     N17607   5.228   4.474   5.073 -0.5221 -0.2031  0.0889
  134MOL0     C17608   6.192   5.318   5.002 -0.0411  0.2145  0.6374
  134MOL0     C17609   6.263   5.437   4.977 -0.1024  0.8470  0.0953
  134MOL0     C17610   6.539   5.766   4.889 -0.6063 -1.0787 -0.4011
  134MOL0     C17611   6.616   5.802   5.002 -0.2477 -0.3689 -0.4382
  134MOL0     C17612   6.703   5.915   5.012  0.3250  0.5164 -0.5707
  134MOL0     C17613   6.733   5.990   4.896  0.1562 -0.0655 -0.1506
  134MOL0     O17614   6.831   6.085   4.887  0.2150  0.1970  0.2319
  134MOL0     C17615   6.961   6.029   4.870 -0.5419  0.2163 -0.3482
  134MOL0     C17616   7.041   6.138   4.800 -0.7202 -0.0135 -0.3397
  134MOL0     C17617   7.162   6.092   4.710  0.0838  0.6238 -0.0246
  134MOL0     C17618   7.265   6.011   4.788  0.7475 -0.5185  0.0976
  134MOL0     C17619   7.384   5.975   4.712  0.4992  0.0861  0.1610
  134MOL0     C17620   7.480   5.957   4.640 -0.5794  0.1923  0.6978
  134MOL0     C17621   6.639   5.962   4.788  0.2307  0.1385  0.7574
  134MOL0     C17622   6.540   5.858   4.788 -0.0676  0.8786  0.0286
  134MOL0     H17623   6.563   5.336   5.106 -0.7339 -0.6072  1.1060
  134MOL0     H17624   6.428   5.148   5.173 -1.0533  0.3962  1.4292
  134MOL0     H17625   6.085   5.076   4.927  0.3457 -2.5158 -0.0867
  134MOL0     H17626   6.001   5.117   5.079  2.4387  2.6397 -0.1499
  134MOL0     H17627   6.022   4.901   5.161  0.4499 -2.9419 -0.6795
  134MOL0     H17628   6.088   4.827   5.009  0.4127 -0.0013  0.5163
  134MOL0     H17629   5.879   4.855   4.900  3.7341 -0.9328  0.4033
  134MOL0     H17630   5.820   4.978   5.026 -0.6063 -0.3690 -0.5883
  134MOL0     H17631   5.886   4.683   5.074  1.3443  0.5082  1.3140
  134MOL0     H17632   5.812   4.785   5.186 -1.2887 -0.6227  0.0470
  134MOL0     H17633   5.688   4.700   4.935  2.1974  2.7606 -0.6167
  134MOL0     H17634   5.626   4.826   5.039  0.9822  0.1246 -3.1608
  134MOL0     H17635   5.614   4.672   5.234  1.8444 -0.3230 -0.2904
  134MOL0     H17636   5.695   4.550   5.128  1.6289  0.3457 -1.7869
  134MOL0     H17637   5.419   4.671   5.082 -0.3831 -0.3864 -1.8978
  134MOL0     H17638   5.492   4.526   5.000 -2.9130  0.0009 -0.0606
  134MOL0     H17639   5.438   4.549   5.298 -1.0424 -0.5836  0.2357
  134MOL0     H17640   5.504   4.413   5.208  1.9481  1.1094  0.1666
  134MOL0     H17641   5.238   4.311   5.365  3.6532 -0.9212 -1.3518
  134MOL0     H17642   4.999   4.220   5.338  0.4850 -1.0480 -1.1509
  134MOL0     H17643   4.937   4.234   5.172 -0.0325 -0.8637  0.8251
  134MOL0     H17644   4.874   4.457   5.218 -0.7688 -0.4060  0.1749
  134MOL0     H17645   4.909   4.441   5.392 -0.6017 -0.4537  0.4720
  134MOL0     H17646   4.715   4.261   5.228  2.4780  1.4609 -0.3773
  134MOL0     H17647   4.759   4.227   5.391  0.4899 -1.1821 -0.0606
  134MOL0     H17648   4.615   4.478   5.283 -4.1734  0.6954  0.2144
  134MOL0     H17649   4.649   4.449   5.459 -1.0390  3.6047 -0.8369
  134MOL0     H17650   4.461   4.572   5.513  1.0022 -0.6398 -1.0346
  134MOL0     H17651   4.242   4.674   5.533  2.6492 -1.0171  1.8862
  134MOL0     H17652   4.047   4.961   5.533 -0.0311  0.4463  1.1368
  134MOL0     H17653   3.885   5.137   5.529 -0.2825  0.1792  1.8267
  134MOL0     H17654   3.738   5.217   5.660  0.2098 -0.4076  3.4619
  134MOL0     H17655   3.641   5.112   5.752  2.1473  3.1740  1.1822
  134MOL0     H17656   3.498   5.286   5.554  1.6873  3.7281  1.3412
  134MOL0     H17657   3.528   5.361   5.706 -4.4993  0.4398  0.4973
  134MOL0     H17658   3.411   5.154   5.805  2.2068 -0.9643 -0.5485
  134MOL0     H17659   3.355   5.127   5.646  1.0412  1.8202 -2.5587
  134MOL0     H17660   3.318   5.383   5.787 -2.5424 -2.1815  4.3009
  134MOL0     H17661   3.256   5.340   5.621  2.8907  2.1144  0.0901
  134MOL0     H17662   3.191   5.153   5.854  0.7434  0.0898  0.4796
  134MOL0     H17663   3.113   5.188   5.700 -0.6394 -1.5230  0.6998
  134MOL0     H17664   3.046   5.422   5.773  3.5195  0.1386 -1.6357
  134MOL0     H17665   3.095   5.380   5.938 -1.2351  0.3539  0.7685
  134MOL0     H17666   2.874   5.263   5.783  0.1881  1.6701  0.0831
  134MOL0     H17667   2.942   5.161   5.911  1.7578 -0.0452  1.7706
  134MOL0     H17668   2.897   5.362   6.070 -0.3815 -0.4187 -0.7162
  134MOL0     H17669   2.764   5.266   6.023 -0.6084  0.0624  1.4907
  134MOL0     H17670   3.569   4.849   5.496 -0.4843  0.2331  0.7106
  134MOL0     H17671   3.757   4.655   5.500  2.4426 -0.8769  1.5255
  134MOL0     H17672   4.078   4.390   5.249 -2.0500  0.4066  1.9261
  134MOL0     H17673   4.305   4.287   5.229 -0.0594  1.0132 -1.1277
  134MOL0     H17674   6.087   5.305   4.975  0.5797 -1.8873 -0.9793
  134MOL0     H17675   6.220   5.513   4.912  2.5080  2.9278  0.6221
  134MOL0     H17676   6.613   5.743   5.093 -0.4169 -2.3530 -1.6639
  134MOL0     H17677   6.771   5.921   5.097 -1.6920 -1.2068  1.3053
  134MOL0     H17678   6.957   5.937   4.810 -1.9840 -1.5548  2.2447
  134MOL0     H17679   6.995   6.001   4.970 -2.0713 -0.9552 -0.1182
  134MOL0     H17680   6.967   6.188   4.737 -0.0749  0.7525 -0.5026
  134MOL0     H17681   7.077   6.217   4.867  0.2221  0.1803 -1.0547
  134MOL0     H17682   7.213   6.178   4.665 -1.0928  1.6094  0.4894
  134MOL0     H17683   7.120   6.036   4.626  2.1641 -0.3207 -0.5008
  134MOL0     H17684   7.297   6.077   4.869  0.9037  2.2519 -2.0277
  134MOL0     H17685   7.220   5.926   4.838  0.4926 -0.6905 -0.4136
  134MOL0     H17686   7.554   5.925   4.570 -0.0954 -3.2583  2.5454
  134MOL0     H17687   6.659   6.024   4.702  0.2985  1.8791  1.9810
  134MOL0     H17688   6.481   5.853   4.697 -1.6818  0.7981  1.0519
  135MOL0     O17689   1.318   6.879   9.983  0.1651 -0.1035 -0.0777
  135MOL0     C17690   1.398   6.838  10.067 -0.3026 -0.1540 -0.2454
  135MOL0     O17691   1.397   6.705  10.111 -0.1015 -0.1295  0.0137
  135MOL0     C17692   1.293   6.631  10.064  0.3278  0.5311  0.7016
  135MOL0     C17693   1.321   6.506  10.005  0.3719 -1.0492  0.7507
  135MOL0     C17694   1.225   6.416   9.969 -0.2231  0.1303  0.0315
  135MOL0     C17695   1.090   6.448   9.976  0.8562 -0.4317 -0.3045
  135MOL0     O17696   0.982   6.359   9.961 -0.4896  0.1099  0.4747
  135MOL0     C17697   1.005   6.229   9.916 -0.0922  0.5238 -0.0151
  135MOL0     C17698   0.890   6.142   9.865  0.1995 -0.6084  0.2985
  135MOL0     C17699   0.774   6.125   9.962  0.0351  0.5441  0.4514
  135MOL0     C17700   0.661   6.036   9.900 -0.0503 -0.8034  0.6681
  135MOL0     C17701   0.544   6.001   9.993  0.3877  0.4528  0.2314
  135MOL0     C17702   0.457   5.888   9.934 -0.6265 -0.5998  0.4501
  135MOL0     C17703   0.341   5.833  10.015 -0.1784 -0.9656 -0.4447
  135MOL0     C17704   0.259   5.727   9.928  0.7491 -0.9078 -0.2541
  135MOL0     N17705   0.149   5.669  10.006 -0.1331 -0.4393  0.2731
  135MOL0     C17706   0.162   5.563  10.098  0.1568 -0.2966  0.0912
  135MOL0     C17707   0.035   5.534  10.132  0.5696  0.7758  0.0347
  135MOL0     C17708  -0.012   5.415  10.226  0.7294  1.0235 -0.6338
  135MOL0     C17709  -0.119   5.320  10.172  0.8088  1.1348 -0.2801
  135MOL0     C17710  -0.128   5.183  10.241 -0.6621  0.5473 -0.1695
  135MOL0     C17711  -0.167   5.189  10.388  0.5842  0.0851 -0.2417
  135MOL0     O17712  -0.297   5.257  10.407 -0.5721 -0.0691 -0.2094
  135MOL0     C17713  -0.413   5.197  10.404 -0.4843 -0.8002  0.5937
  135MOL0     C17714  -0.526   5.269  10.441  1.0297  0.3966 -0.2525
  135MOL0     C17715  -0.653   5.216  10.433  0.7111 -0.5144 -0.4333
  135MOL0     C17716  -0.677   5.090  10.389 -0.3690 -0.1435 -0.8124
  135MOL0     C17717  -0.812   5.047  10.354  0.3231  0.0597  0.0071
  135MOL0     O17718  -0.907   5.136  10.313  0.3323  0.3674 -0.5678
  135MOL0     C17719  -1.034   5.103  10.260  0.4382  0.8467 -0.4673
  135MOL0     C17720  -1.130   5.197  10.288 -1.3093 -0.2293 -0.1513
  135MOL0     C17721  -1.258   5.178  10.232  0.5577 -0.2032 -0.1754
  135MOL0     C17722  -1.300   5.073  10.155  0.0454  0.4422  0.2344
  135MOL0     O17723  -1.433   5.065  10.117  0.3659  0.2954  0.0689
  135MOL0     C17724  -1.478   4.951  10.044  0.2283 -0.2143 -0.0756
  135MOL0     C17725  -1.628   4.949  10.063 -0.3916  0.4925  0.6521
  135MOL0     C17726  -1.683   5.086   9.997  0.7422 -0.9108 -0.1063
  135MOL0     C17727  -1.841   5.085  10.016 -0.3516 -0.2728  0.0259
  135MOL0     C17728  -1.915   5.187   9.934 -0.3205 -0.6504 -0.0744
  135MOL0     C17729  -1.912   5.173   9.773  0.0835  0.2886 -0.4176
  135MOL0     C17730  -2.001   5.284   9.712 -0.2801  0.1461  0.1238
  135MOL0     C17731  -2.005   5.263   9.563  0.4460  0.9936  0.5771
  135MOL0    Cl17732  -2.096   5.393   9.475  0.1395  0.0822  0.4372
  135MOL0     C17733  -1.200   4.982  10.119  0.0656 -0.3916  0.5704
  135MOL0     C17734  -1.075   4.991  10.178 -0.3221  0.0391 -0.9477
  135MOL0     O17735  -0.829   4.926  10.347  0.5588 -0.0595  0.2124
  135MOL0     C17736  -0.570   5.014  10.351 -0.1676  0.0072 -0.5145
  135MOL0     C17737  -0.440   5.066  10.360 -0.8204 -0.7601  0.3464
  135MOL0     N17738  -0.050   5.613  10.051 -0.2950  0.5949  0.2281
  135MOL0     N17739   0.022   5.689   9.973 -0.1017  0.2196 -0.2718
  135MOL0     C17740   1.059   6.575  10.030  0.3383 -0.4867  0.0097
  135MOL0     C17741   1.156   6.663  10.081  0.0234 -0.0067  1.4052
  135MOL0     C17742   1.507   6.925  10.116  0.0418 -0.2811  0.3495
  135MOL0     C17743   1.505   7.067  10.092 -0.0348  0.1853  0.3904
  135MOL0     C17744   1.618   7.141  10.128 -1.0370  0.8343  0.1645
  135MOL0     C17745   1.728   7.080  10.208  0.5101 -0.2694  0.7922
  135MOL0     O17746   1.840   7.154  10.250 -0.2478 -0.2524  0.2299
  135MOL0     C17747   1.928   7.100  10.357 -0.5573  0.1225 -0.8654
  135MOL0     C17748   2.004   7.212  10.415  0.0751 -0.7471  0.5126
  135MOL0     C17749   2.121   7.164  10.502 -0.5927  0.0043  0.2388
  135MOL0     C17750   2.175   7.265  10.600  0.4390  0.3801 -0.2078
  135MOL0     C17751   2.282   7.221  10.681  0.2461  0.0594 -0.5629
  135MOL0     C17752   2.362   7.170  10.761  0.2505 -0.2542  0.1279
  135MOL0     C17753   1.718   6.942  10.236 -0.5290  0.9082 -0.0074
  135MOL0     C17754   1.604   6.870  10.197  0.4624 -0.7828  0.2225
  135MOL0     H17755   1.428   6.488  10.004  0.5700  0.0504 -0.0262
  135MOL0     H17756   1.268   6.324   9.932  0.9003  0.7669 -0.3028
  135MOL0     H17757   1.035   6.172  10.004  2.3120  2.3208  0.4648
  135MOL0     H17758   1.079   6.224   9.834 -0.6897 -1.1522 -0.4962
  135MOL0     H17759   0.930   6.041   9.853  0.1216 -0.8678  1.9293
  135MOL0     H17760   0.858   6.172   9.765 -1.0076 -2.4674  0.0773
  135MOL0     H17761   0.745   6.222  10.002  1.9197  2.0618 -1.5831
  135MOL0     H17762   0.814   6.066  10.045 -0.4079 -2.4508 -1.3168
  135MOL0     H17763   0.612   6.088   9.817 -1.2451 -0.1851  1.7291
  135MOL0     H17764   0.703   5.942   9.864 -0.8891 -1.0074  0.1709
  135MOL0     H17765   0.482   6.085  10.025  1.4016  0.9065  1.0513
  135MOL0     H17766   0.583   5.951  10.082 -0.3129 -2.4156 -0.9677
  135MOL0     H17767   0.520   5.801   9.915 -0.5212 -0.3739 -0.2662
  135MOL0     H17768   0.416   5.925   9.839  0.5301  4.1830  1.5176
  135MOL0     H17769   0.381   5.802  10.112  0.3073  1.5824  0.2355
  135MOL0     H17770   0.279   5.921  10.031  3.6570  1.9335  0.0199
  135MOL0     H17771   0.326   5.644   9.904  0.4176 -1.9089  1.9826
  135MOL0     H17772   0.218   5.760   9.833 -2.3222  0.4506  1.4260
  135MOL0     H17773   0.255   5.518  10.133 -0.4855 -0.2043  2.0141
  135MOL0     H17774  -0.053   5.462  10.316  1.8782  1.8357 -0.5136
  135MOL0     H17775   0.080   5.357  10.245  0.3808 -1.5461 -5.2606
  135MOL0     H17776  -0.101   5.307  10.065 -0.1246 -1.1049 -0.2311
  135MOL0     H17777  -0.220   5.363  10.167  1.7317  3.2927 -1.9208
  135MOL0     H17778  -0.194   5.119  10.181  3.0765 -0.2542 -3.9348
  135MOL0     H17779  -0.035   5.127  10.230 -0.2906  1.1079  0.0556
  135MOL0     H17780  -0.081   5.235  10.438  0.0006  1.1836 -0.2141
  135MOL0     H17781  -0.177   5.089  10.429 -1.3279  1.4864  3.1124
  135MOL0     H17782  -0.523   5.373  10.470 -1.9582  0.9668 -1.5679
  135MOL0     H17783  -0.736   5.285  10.448  2.3230  1.2413  0.8255
  135MOL0     H17784  -1.094   5.276  10.352  0.5603 -1.1083 -0.0695
  135MOL0     H17785  -1.343   5.239  10.262  0.1834 -1.9252  2.6778
  135MOL0     H17786  -1.427   4.866  10.090 -2.0108  0.3957  4.0137
  135MOL0     H17787  -1.459   4.956   9.936  0.1161 -1.4759 -0.1688
  135MOL0     H17788  -1.650   4.959  10.170 -0.4822  4.0489  0.4462
  135MOL0     H17789  -1.674   4.859  10.022 -2.1897  1.6538  0.0239
  135MOL0     H17790  -1.651   5.085   9.892  0.4824 -2.1932 -0.1928
  135MOL0     H17791  -1.651   5.179  10.046  2.5342 -0.6733 -1.5996
  135MOL0     H17792  -1.875   4.992   9.968 -0.6730 -0.3383  0.3737
  135MOL0     H17793  -1.861   5.103  10.122  0.4801  0.7499  0.0268
  135MOL0     H17794  -1.864   5.275   9.974 -0.2623 -0.2951 -0.9058
  135MOL0     H17795  -2.018   5.189   9.972 -0.7687  1.8737 -1.2294
  135MOL0     H17796  -1.960   5.079   9.745 -0.1920  0.7162 -1.3983
  135MOL0     H17797  -1.809   5.180   9.736  0.0448 -1.1415 -0.8607
  135MOL0     H17798  -2.100   5.283   9.758 -0.1987  2.1116  0.4305
  135MOL0     H17799  -1.950   5.380   9.727 -0.0422  0.0663 -0.1512
  135MOL0     H17800  -2.041   5.165   9.529  1.9134  1.2225 -1.9156
  135MOL0     H17801  -1.900   5.265   9.532 -0.6223 -0.3158 -3.7501
  135MOL0     H17802  -1.214   4.904  10.046 -1.0523 -1.7121  2.1279
  135MOL0     H17803  -0.999   4.923  10.142 -0.3216 -1.2858  1.3362
  135MOL0     H17804  -0.590   4.911  10.324  0.6502 -0.3379  0.1681
  135MOL0     H17805  -0.362   5.006  10.315 -0.8319  0.3984 -1.3347
  135MOL0     H17806   0.953   6.598  10.036  0.8461  2.1730 -0.1067
  135MOL0     H17807   1.124   6.748  10.141 -4.0488  0.7855 -1.4398
  135MOL0     H17808   1.423   7.104  10.031 -1.2881 -1.5188  0.9558
  135MOL0     H17809   1.621   7.246  10.098 -0.5026  1.3482  1.8958
  135MOL0     H17810   2.001   7.037  10.306 -0.6625  0.8429 -1.9494
  135MOL0     H17811   1.878   7.046  10.438 -0.4534 -2.1398 -2.2303
  135MOL0     H17812   2.046   7.263  10.329 -1.2523  0.9970  0.8443
  135MOL0     H17813   1.930   7.273  10.468 -1.4568 -0.9183 -1.3299
  135MOL0     H17814   2.209   7.148  10.439  2.3209  1.9049  3.4783
  135MOL0     H17815   2.096   7.070  10.553  2.0885 -0.5469  0.6602
  135MOL0     H17816   2.191   7.363  10.554  1.4251  1.7889  2.8885
  135MOL0     H17817   2.095   7.285  10.672 -0.1446 -0.2350 -0.6629
  135MOL0     H17818   2.442   7.130  10.820  0.0163  1.0589  1.3899
  135MOL0     H17819   1.792   6.889  10.294  0.0817  2.9652  1.2223
  135MOL0     H17820   1.590   6.771  10.238 -0.5321 -0.0189  1.8294
  136MOL0     O17821  11.005   8.722   1.950  0.6007  0.1051 -0.0355
  136MOL0     C17822  11.076   8.621   1.930  0.5300  0.6555 -0.3421
  136MOL0     O17823  11.041   8.490   1.894 -0.1162  0.2845  0.7835
  136MOL0     C17824  10.916   8.472   1.832 -0.2517  0.3428 -0.2027
  136MOL0     C17825  10.873   8.342   1.849  0.4117  0.1517 -0.2144
  136MOL0     C17826  10.752   8.298   1.796 -0.3318  0.6787  0.5388
  136MOL0     C17827  10.667   8.398   1.748  0.2237  0.0089  0.0121
  136MOL0     O17828  10.545   8.361   1.701  0.1025 -0.3855  0.6948
  136MOL0     C17829  10.435   8.451   1.686  0.2454 -0.2975 -0.7393
  136MOL0     C17830  10.308   8.378   1.659 -0.0640  0.1102 -0.1384
  136MOL0     C17831  10.294   8.317   1.520  0.2226 -0.4085 -0.6358
  136MOL0     C17832  10.291   8.426   1.417 -0.1437 -0.2772  1.2836
  136MOL0     C17833  10.245   8.376   1.273  0.9825  0.0773 -1.2781
  136MOL0     C17834  10.104   8.316   1.274  1.0044  0.2605 -0.1105
  136MOL0     C17835  10.011   8.429   1.321  0.3819 -0.0763 -0.4476
  136MOL0     C17836   9.865   8.406   1.274 -0.8644  0.4896  0.6593
  136MOL0     N17837   9.773   8.487   1.350 -0.1452  0.2810 -0.0476
  136MOL0     C17838   9.682   8.442   1.440 -0.6373 -0.0001  0.2763
  136MOL0     C17839   9.620   8.556   1.492  0.0057  0.2133 -0.0842
  136MOL0     C17840   9.512   8.560   1.593  0.0040 -0.0307 -0.0068
  136MOL0     C17841   9.378   8.534   1.530 -0.5487  0.4355  0.1454
  136MOL0     C17842   9.267   8.534   1.632 -0.1013  0.3554 -0.2190
  136MOL0     C17843   9.139   8.474   1.588 -0.0046 -1.1831 -0.3665
  136MOL0     O17844   9.036   8.497   1.681 -0.1885 -0.6191 -0.0992
  136MOL0     C17845   8.912   8.491   1.628  0.1523 -0.0279  0.1145
  136MOL0     C17846   8.848   8.605   1.579 -0.1808 -0.1537  0.1586
  136MOL0     C17847   8.728   8.596   1.515  0.2216 -0.3291 -0.2294
  136MOL0     C17848   8.664   8.466   1.506 -0.4998 -0.5515  0.1982
  136MOL0     C17849   8.532   8.452   1.441 -0.0083  0.7446  0.5696
  136MOL0     O17850   8.494   8.322   1.422  0.1954 -0.3942  0.1295
  136MOL0     C17851   8.387   8.297   1.335 -0.0681  0.1362  0.6820
  136MOL0     C17852   8.261   8.363   1.339 -0.1366 -0.7811 -0.3205
  136MOL0     C17853   8.164   8.321   1.242 -0.5812 -0.3725 -0.5117
  136MOL0     C17854   8.187   8.216   1.149 -0.2175 -1.1236  0.4751
  136MOL0     O17855   8.093   8.179   1.054 -0.0828  0.2512  0.2073
  136MOL0     C17856   7.973   8.260   1.026  0.1595  0.2012 -0.5533
  136MOL0     C17857   7.876   8.187   0.928  0.6216 -0.7890  0.1814
  136MOL0     C17858   7.759   8.279   0.929 -0.3798  0.3555  0.9666
  136MOL0     C17859   7.643   8.210   0.846 -0.8093 -0.9074 -0.0724
  136MOL0     C17860   7.517   8.301   0.844  0.4836 -0.3298  0.4340
  136MOL0     C17861   7.402   8.225   0.782 -0.1113 -0.1401 -0.0936
  136MOL0     C17862   7.306   8.311   0.701  0.2318  0.0813 -0.2143
  136MOL0     C17863   7.193   8.235   0.626  0.2780 -0.3532 -0.6327
  136MOL0    Cl17864   7.076   8.183   0.749  0.5087 -0.0769  0.1515
  136MOL0     C17865   8.303   8.141   1.165 -0.1457 -0.0821 -0.6030
  136MOL0     C17866   8.405   8.179   1.261  0.3662  0.6631 -0.0116
  136MOL0     O17867   8.466   8.549   1.411  0.5343  0.2405 -0.1520
  136MOL0     C17868   8.718   8.353   1.574 -0.0804  0.0206 -0.3785
  136MOL0     C17869   8.846   8.362   1.631  0.1847  0.4667 -1.0356
  136MOL0     N17870   9.669   8.662   1.419 -0.3022  0.6832  0.2446
  136MOL0     N17871   9.763   8.622   1.339 -0.3847 -0.4532 -0.1526
  136MOL0     C17872  10.708   8.533   1.733  0.7235 -0.2643 -0.4519
  136MOL0     C17873  10.834   8.565   1.774  1.2201 -0.5194  0.1912
  136MOL0     C17874  11.215   8.645   1.931  0.0205  0.5626 -0.5233
  136MOL0     C17875  11.274   8.756   1.995 -0.0743 -0.3894  0.2217
  136MOL0     C17876  11.411   8.758   2.025  0.5609  0.1835  0.2834
  136MOL0     C17877  11.501   8.660   1.969  1.6668  0.5536  1.4526
  136MOL0     O17878  11.633   8.658   1.981  0.6595  0.9759  0.4596
  136MOL0     C17879  11.682   8.723   2.098  0.0426 -0.8294  0.0596
  136MOL0     C17880  11.825   8.673   2.128 -0.1587  0.0250 -0.5695
  136MOL0     C17881  11.931   8.741   2.032 -0.3906  0.3733  0.7098
  136MOL0     C17882  11.990   8.870   2.091 -0.3765  0.0227 -0.3335
  136MOL0     C17883  12.124   8.853   2.129  0.1372  0.3664 -0.6904
  136MOL0     C17884  12.237   8.844   2.162 -0.8467 -0.5025  0.8736
  136MOL0     C17885  11.440   8.558   1.891 -0.2728  0.3653 -0.2645
  136MOL0     C17886  11.300   8.553   1.869 -0.1580  0.4188 -0.4579
  136MOL0     H17887  10.945   8.276   1.896  1.8303  0.9452 -1.1845
  136MOL0     H17888  10.733   8.191   1.788  0.1480  0.7357 -2.8383
  136MOL0     H17889  10.459   8.528   1.612 -0.9565 -0.1491 -0.9844
  136MOL0     H17890  10.432   8.507   1.780 -0.1042 -0.9846 -0.3331
  136MOL0     H17891  10.231   8.456   1.673  0.0305  0.2586 -0.4331
  136MOL0     H17892  10.291   8.305   1.738 -2.7718  2.8289  2.0154
  136MOL0     H17893  10.198   8.265   1.512 -0.4948  0.0758  2.9655
  136MOL0     H17894  10.368   8.242   1.491  1.4879  0.1093  1.0649
  136MOL0     H17895  10.219   8.506   1.438  0.2517  0.8054 -1.1923
  136MOL0     H17896  10.390   8.472   1.409  1.5336 -3.5415  1.3833
  136MOL0     H17897  10.315   8.299   1.240  2.3491  0.5917  0.2443
  136MOL0     H17898  10.238   8.465   1.211  0.0651  0.6493 -0.3961
  136MOL0     H17899  10.097   8.227   1.338  0.0532  0.0375 -0.5044
  136MOL0     H17900  10.085   8.293   1.168  2.0174  2.4585 -0.8293
  136MOL0     H17901  10.023   8.433   1.430  1.3375 -0.1608 -0.5415
  136MOL0     H17902  10.044   8.520   1.270  2.5089 -0.5976 -0.0983
  136MOL0     H17903   9.854   8.300   1.301 -1.4888  0.2234 -0.5858
  136MOL0     H17904   9.862   8.423   1.166 -0.7351  2.6060  0.9510
  136MOL0     H17905   9.656   8.341   1.472  1.5686 -0.7791 -0.2050
  136MOL0     H17906   9.515   8.657   1.644  0.6357 -0.2048  0.2929
  136MOL0     H17907   9.534   8.483   1.667  0.8772 -1.0742 -1.3058
  136MOL0     H17908   9.386   8.435   1.485 -0.9132  1.1052 -1.4567
  136MOL0     H17909   9.363   8.617   1.461 -0.8779  1.8399  1.8194
  136MOL0     H17910   9.298   8.487   1.726  1.5267 -1.8511 -1.7374
  136MOL0     H17911   9.252   8.641   1.647  4.6694  1.4495 -1.3787
  136MOL0     H17912   9.147   8.366   1.572  1.8807 -1.2394  0.6334
  136MOL0     H17913   9.109   8.522   1.495 -3.1007  0.5804  1.3896
  136MOL0     H17914   8.904   8.697   1.594  1.7859 -1.4619  1.2428
  136MOL0     H17915   8.693   8.690   1.475  2.0135  0.1996 -0.6456
  136MOL0     H17916   8.247   8.453   1.398 -0.5225 -2.4814  2.3356
  136MOL0     H17917   8.081   8.388   1.226 -1.4268 -0.7429  1.8739
  136MOL0     H17918   7.992   8.361   0.988 -1.5954  0.5744 -0.5283
  136MOL0     H17919   7.935   8.279   1.126  5.4719  3.1722  1.3019
  136MOL0     H17920   7.857   8.086   0.967  1.9781 -0.5458  1.5858
  136MOL0     H17921   7.915   8.177   0.827 -2.7283  0.1559 -1.3381
  136MOL0     H17922   7.788   8.371   0.878 -0.0898  0.1884  0.8285
  136MOL0     H17923   7.728   8.306   1.030  0.4851  0.0260  1.3243
  136MOL0     H17924   7.671   8.186   0.742  0.2874 -2.9604  0.6316
  136MOL0     H17925   7.617   8.110   0.881 -2.0252 -0.3566  0.6140
  136MOL0     H17926   7.546   8.387   0.782 -1.2269  1.0083  1.3904
  136MOL0     H17927   7.498   8.330   0.948  0.5730  2.2486 -0.1799
  136MOL0     H17928   7.333   8.174   0.850 -1.8286  1.3874 -0.6218
  136MOL0     H17929   7.443   8.143   0.722 -0.4214 -0.1882 -0.2405
  136MOL0     H17930   7.262   8.394   0.757  0.6652  0.0595  0.1717
  136MOL0     H17931   7.369   8.360   0.627 -1.0842  0.3280 -1.1864
  136MOL0     H17932   7.228   8.148   0.571  0.7352 -0.3434 -0.3602
  136MOL0     H17933   7.128   8.294   0.560 -1.7360  1.1107  2.4155
  136MOL0     H17934   8.316   8.063   1.091 -2.0821 -1.6377  0.6068
  136MOL0     H17935   8.501   8.130   1.272 -0.8053 -1.6683  0.3699
  136MOL0     H17936   8.673   8.255   1.563  1.5358 -0.6905 -1.0286
  136MOL0     H17937   8.908   8.280   1.666 -0.5694  0.4389  0.3434
  136MOL0     H17938  10.645   8.607   1.684  0.1605 -1.8833 -2.2915
  136MOL0     H17939  10.853   8.671   1.761  1.6531 -0.3861  1.7880
  136MOL0     H17940  11.198   8.824   2.031 -0.8562 -1.0928 -0.0660
  136MOL0     H17941  11.438   8.839   2.091  0.9223 -0.2248  0.6454
  136MOL0     H17942  11.621   8.704   2.187  0.0608  1.4062  0.6123
  136MOL0     H17943  11.687   8.831   2.078  1.8471 -1.2291 -1.8907
  136MOL0     H17944  11.866   8.664   2.229  1.9701 -2.1121 -1.5076
  136MOL0     H17945  11.818   8.565   2.115 -2.9643 -0.2628  2.3665
  136MOL0     H17946  11.883   8.757   1.935  0.1874 -4.2001 -0.6040
  136MOL0     H17947  12.007   8.665   2.008 -1.2907  0.3469 -2.4540
  136MOL0     H17948  11.983   8.933   2.002 -0.1427  0.8151  0.1970
  136MOL0     H17949  11.927   8.905   2.173  0.8653  2.4360 -0.2983
  136MOL0     H17950  12.341   8.856   2.188 -0.5904  0.8273 -0.6322
  136MOL0     H17951  11.508   8.484   1.848  1.0691  0.5249  1.4641
  136MOL0     H17952  11.266   8.465   1.815  1.3160 -1.2333  1.1427
  137MOL0     O17953   2.855   6.709   6.605  0.3578  0.7488  0.5986
  137MOL0     C17954   2.747   6.697   6.547  0.0089 -0.4056 -1.1908
  137MOL0     O17955   2.716   6.722   6.417  0.5169 -0.6735 -0.1428
  137MOL0     C17956   2.820   6.788   6.343  0.2859  0.3236  0.0663
  137MOL0     C17957   2.868   6.916   6.370  0.0121 -0.3367  0.3438
  137MOL0     C17958   2.968   6.980   6.282  0.4173 -0.7550  0.9214
  137MOL0     C17959   3.003   6.915   6.159 -1.3392 -0.5382  0.2660
  137MOL0     O17960   3.088   6.978   6.076 -0.6811  0.0339  0.4601
  137MOL0     C17961   3.024   7.077   5.993  0.5595  0.8868 -0.4808
  137MOL0     C17962   3.111   7.199   5.982 -0.1196 -0.1614 -0.6438
  137MOL0     C17963   3.198   7.194   5.859 -0.1140  0.2630  0.2553
  137MOL0     C17964   3.301   7.083   5.881 -0.4747 -0.0641 -0.8891
  137MOL0     C17965   3.423   7.084   5.784  0.0896  0.5336  0.0762
  137MOL0     C17966   3.385   7.082   5.633 -0.1767  0.0526  0.1816
  137MOL0     C17967   3.508   7.095   5.550 -0.5823 -0.2867  0.3337
  137MOL0     C17968   3.483   7.141   5.408  0.2516  0.6583 -0.4664
  137MOL0     N17969   3.393   7.048   5.330 -0.9449  0.2572 -0.1683
  137MOL0     C17970   3.410   6.916   5.300  0.4778 -0.1983 -0.1666
  137MOL0     C17971   3.303   6.872   5.221  0.1718 -0.0138 -0.3589
  137MOL0     C17972   3.256   6.730   5.191 -0.2451  0.3682 -0.6207
  137MOL0     C17973   3.327   6.681   5.065  0.7349  0.7439  0.1223
  137MOL0     C17974   3.266   6.543   5.008  0.6054 -0.1967  0.0783
  137MOL0     C17975   3.245   6.436   5.114 -0.2478  0.0549  1.3023
  137MOL0     O17976   3.188   6.321   5.039  0.7048 -0.6415 -0.3294
  137MOL0     C17977   3.051   6.301   5.055  0.3363  1.0536  0.0856
  137MOL0     C17978   2.962   6.403   5.066  1.4924  0.8714 -0.2266
  137MOL0     C17979   2.829   6.370   5.083 -0.5058  0.9559 -0.0554
  137MOL0     C17980   2.783   6.233   5.093  0.3289  0.0358  0.8025
  137MOL0     C17981   2.638   6.203   5.105  0.7839  0.4939  0.4899
  137MOL0     O17982   2.543   6.298   5.085 -0.0633  0.3637 -0.2169
  137MOL0     C17983   2.405   6.277   5.103  0.8571 -0.0449  0.0875
  137MOL0     C17984   2.339   6.152   5.125  0.4148  0.4326 -0.4372
  137MOL0     C17985   2.197   6.153   5.146  0.2078 -1.0233  0.9605
  137MOL0     C17986   2.117   6.269   5.126 -0.2621  0.9689 -0.1322
  137MOL0     O17987   1.980   6.287   5.141 -0.0202 -0.1778  0.2825
  137MOL0     C17988   1.906   6.183   5.191  0.3224  0.1103 -0.0845
  137MOL0     C17989   1.755   6.199   5.194 -0.4863 -0.2441  0.6766
  137MOL0     C17990   1.713   6.084   5.285 -0.0909 -0.4442 -0.0212
  137MOL0     C17991   1.685   5.946   5.212  0.2883  0.1853  0.1720
  137MOL0     C17992   1.587   5.865   5.289 -0.4325 -0.4114 -0.4332
  137MOL0     C17993   1.448   5.911   5.246  0.0992  0.3148  0.8297
  137MOL0     C17994   1.363   5.842   5.351  0.2548 -0.1599 -1.1482
  137MOL0     C17995   1.210   5.854   5.319  0.3661 -0.1767  0.9122
  137MOL0    Cl17996   1.112   5.765   5.432  0.0564  0.3198  0.1887
  137MOL0     C17997   2.192   6.385   5.093 -1.1162 -0.5411 -0.0257
  137MOL0     C17998   2.327   6.390   5.081 -0.5626  0.3913 -0.3826
  137MOL0     O17999   2.617   6.083   5.134 -0.5583 -0.4658 -0.6005
  137MOL0     C18000   2.877   6.130   5.087  0.8416 -0.4717  0.1785
  137MOL0     C18001   3.012   6.172   5.059 -0.6473  0.5831 -0.7291
  137MOL0     N18002   3.225   6.985   5.209  0.1416 -0.4192  0.5058
  137MOL0     N18003   3.280   7.092   5.272  0.7861  0.1678 -0.9523
  137MOL0     C18004   2.956   6.789   6.136  0.5341 -0.3533 -0.0501
  137MOL0     C18005   2.870   6.724   6.220  0.1641  0.1825 -0.6313
  137MOL0     C18006   2.632   6.634   6.628  0.4014  0.2289 -0.8548
  137MOL0     C18007   2.629   6.632   6.766 -0.5560  0.2509  0.5502
  137MOL0     C18008   2.524   6.586   6.840 -0.5586 -0.1551 -1.0786
  137MOL0     C18009   2.416   6.521   6.782 -0.3585 -0.1492 -0.6456
  137MOL0     O18010   2.305   6.493   6.863  0.4256  0.1793  0.5926
  137MOL0     C18011   2.322   6.446   6.996  0.0654 -0.6303 -0.1837
  137MOL0     C18012   2.225   6.339   7.054 -0.9377  0.0687 -0.0911
  137MOL0     C18013   2.085   6.395   7.083 -0.3191  0.2264  0.5001
  137MOL0     C18014   2.009   6.281   7.155 -0.2914 -0.1494 -0.2291
  137MOL0     C18015   1.872   6.328   7.200 -0.2581  0.0007 -0.1678
  137MOL0     C18016   1.765   6.377   7.226  0.7474  0.6337  0.0429
  137MOL0     C18017   2.417   6.508   6.641 -0.1551  0.8452 -0.6338
  137MOL0     C18018   2.521   6.564   6.572 -0.2623 -0.8891  1.3787
  137MOL0     H18019   2.821   6.968   6.453 -1.6304  2.8015 -2.3426
  137MOL0     H18020   3.018   7.071   6.313  0.8235 -0.5838 -0.2220
  137MOL0     H18021   2.925   7.109   6.028  0.5271 -0.0529  0.3344
  137MOL0     H18022   3.011   7.019   5.901  2.3017 -0.7467  0.2254
  137MOL0     H18023   3.167   7.221   6.073 -0.9871 -0.6382  0.0240
  137MOL0     H18024   3.065   7.298   5.969  3.4724  1.6387 -0.9944
  137MOL0     H18025   3.246   7.292   5.854 -0.9056  0.6572  0.0676
  137MOL0     H18026   3.136   7.179   5.769  0.6604  0.2365 -0.2837
  137MOL0     H18027   3.340   7.099   5.982 -2.4038  0.3821 -0.1632
  137MOL0     H18028   3.264   6.980   5.872  1.0932 -0.7352 -0.0958
  137MOL0     H18029   3.490   7.003   5.815 -0.5949  0.0883  0.4153
  137MOL0     H18030   3.481   7.175   5.798  1.0146  0.0757 -0.6592
  137MOL0     H18031   3.325   7.171   5.606  2.6778  2.0469 -0.0154
  137MOL0     H18032   3.328   6.990   5.618  0.4980 -1.1569  3.9456
  137MOL0     H18033   3.574   7.168   5.597  0.4438 -0.3336 -0.9805
  137MOL0     H18034   3.570   7.006   5.539  1.2704  1.2326 -2.5124
  137MOL0     H18035   3.575   7.158   5.351  1.0804  0.9518  0.9143
  137MOL0     H18036   3.437   7.240   5.418  0.9051  1.4039 -3.6613
  137MOL0     H18037   3.491   6.854   5.336  0.1264  0.6243  2.1661
  137MOL0     H18038   3.148   6.736   5.182 -0.5000  0.3010  1.8391
  137MOL0     H18039   3.281   6.664   5.275 -3.5826  1.7725  1.6444
  137MOL0     H18040   3.429   6.664   5.101  0.4834 -0.5283  0.2964
  137MOL0     H18041   3.314   6.756   4.987 -2.7767 -0.1661 -0.3171
  137MOL0     H18042   3.165   6.559   4.971 -0.5192 -3.2196  1.5022
  137MOL0     H18043   3.333   6.499   4.934 -1.4387 -5.0029  0.6960
  137MOL0     H18044   3.184   6.472   5.197  1.9405  1.0713  2.5452
  137MOL0     H18045   3.335   6.397   5.163  0.8877  0.8783 -0.0507
  137MOL0     H18046   2.982   6.509   5.053 -1.2304  1.1908 -2.7674
  137MOL0     H18047   2.763   6.455   5.070  0.3132  1.5037 -0.7191
  137MOL0     H18048   2.384   6.054   5.130  0.5536  0.5447  0.9377
  137MOL0     H18049   2.142   6.062   5.169  0.6938 -1.2240  1.3747
  137MOL0     H18050   1.942   6.163   5.293  1.6518 -0.2171 -0.5901
  137MOL0     H18051   1.925   6.093   5.131 -1.9708 -0.8487  0.5319
  137MOL0     H18052   1.715   6.194   5.093 -1.6915  0.6998  1.0700
  137MOL0     H18053   1.735   6.292   5.249  0.9521  0.8814 -0.6195
  137MOL0     H18054   1.631   6.127   5.345 -0.2518 -1.1471  0.2734
  137MOL0     H18055   1.790   6.067   5.361 -0.3976 -1.0628  0.1549
  137MOL0     H18056   1.647   5.980   5.116  0.2982  2.0678  0.7835
  137MOL0     H18057   1.779   5.893   5.193 -0.7006 -1.5301 -0.1224
  137MOL0     H18058   1.597   5.877   5.397 -1.3292 -0.8284 -0.2915
  137MOL0     H18059   1.609   5.759   5.275  0.2170 -0.4925  1.0539
  137MOL0     H18060   1.428   5.876   5.145 -0.2180  1.2195  0.5705
  137MOL0     H18061   1.424   6.017   5.253 -1.8342 -0.1439  2.3310
  137MOL0     H18062   1.384   5.734   5.356 -0.0929 -0.2924 -2.2601
  137MOL0     H18063   1.387   5.885   5.448  0.3405 -0.5746 -0.9822
  137MOL0     H18064   1.206   5.805   5.221  1.5857 -0.3906  0.9603
  137MOL0     H18065   1.183   5.960   5.327 -0.9411 -0.4655  0.5863
  137MOL0     H18066   2.136   6.476   5.075 -1.1944 -0.5903 -0.0334
  137MOL0     H18067   2.373   6.479   5.040 -0.8083  0.9379  0.4979
  137MOL0     H18068   2.844   6.027   5.090 -0.6454 -0.2207 -3.2850
  137MOL0     H18069   3.092   6.101   5.043  0.9858  2.4603 -1.2721
  137MOL0     H18070   2.990   6.734   6.048  0.8087  0.6013 -0.5530
  137MOL0     H18071   2.836   6.627   6.185  2.2193 -0.2036 -1.7254
  137MOL0     H18072   2.709   6.685   6.817  0.6042  0.3853 -1.3408
  137MOL0     H18073   2.520   6.615   6.944  0.6114 -0.4151 -0.9420
  137MOL0     H18074   2.315   6.525   7.072 -1.9310 -0.6301 -0.2934
  137MOL0     H18075   2.422   6.404   7.000  2.0707  3.4704 -1.5787
  137MOL0     H18076   2.223   6.259   6.979  2.4645  0.0955 -0.3574
  137MOL0     H18077   2.273   6.290   7.139  1.1841 -1.6649 -2.1718
  137MOL0     H18078   2.041   6.428   6.988  0.3753  2.0144  0.7623
  137MOL0     H18079   2.102   6.482   7.147 -0.4391  0.5210  0.1386
  137MOL0     H18080   2.005   6.204   7.078  1.1171  0.5813 -1.0766
  137MOL0     H18081   2.060   6.239   7.242 -1.5957  2.2778  1.8454
  137MOL0     H18082   1.673   6.432   7.231  0.3032  0.0769 -1.4688
  137MOL0     H18083   2.334   6.459   6.593  0.8491 -1.0009 -0.5919
  137MOL0     H18084   2.508   6.555   6.465 -3.2706  1.2980  1.4282
  138MOL0     O18085   5.017   8.352   1.957 -0.5710 -0.0020  0.3039
  138MOL0     C18086   5.049   8.326   1.841  0.1818  0.9724 -0.1763
  138MOL0     O18087   4.961   8.322   1.728 -0.3334 -0.6266 -0.3952
  138MOL0     C18088   4.831   8.316   1.777  0.8143  0.3247 -0.5254
  138MOL0     C18089   4.791   8.192   1.825  0.6546  0.2688 -1.0328
  138MOL0     C18090   4.657   8.165   1.865 -0.1740 -0.2714 -0.4534
  138MOL0     C18091   4.570   8.277   1.872  0.2734  0.3100 -0.6265
  138MOL0     O18092   4.444   8.275   1.928 -0.1195  0.2484 -0.3551
  138MOL0     C18093   4.416   8.177   2.023 -0.1550 -0.0720  0.5476
  138MOL0     C18094   4.298   8.215   2.109  0.6822  0.2881 -0.2830
  138MOL0     C18095   4.172   8.242   2.025  0.1286 -0.3491  0.4207
  138MOL0     C18096   4.045   8.215   2.095  0.9187  0.4984 -0.3057
  138MOL0     C18097   3.925   8.258   2.012  0.1284 -0.1371 -0.8449
  138MOL0     C18098   3.793   8.210   2.078  0.0405 -0.7632  0.5975
  138MOL0     C18099   3.675   8.276   2.001  0.2467 -0.2784 -0.6737
  138MOL0     C18100   3.540   8.236   2.059 -0.6399 -0.4075  0.5640
  138MOL0     N18101   3.507   8.111   2.001  0.2467 -0.0549  0.3850
  138MOL0     C18102   3.514   7.988   2.055  0.0270  0.3613  0.2370
  138MOL0     C18103   3.478   7.900   1.957  0.3212 -0.2870 -0.2102
  138MOL0     C18104   3.451   7.754   1.987 -0.2068  0.1304  0.4746
  138MOL0     C18105   3.366   7.691   1.878  0.7541  0.3399  0.9266
  138MOL0     C18106   3.218   7.718   1.910 -1.1717  0.4002  0.3826
  138MOL0     C18107   3.124   7.644   1.822  0.1060 -0.0012 -0.2111
  138MOL0     O18108   3.161   7.510   1.808 -0.6516  0.4172 -0.3006
  138MOL0     C18109   3.069   7.428   1.745 -0.8324  0.8775 -0.0932
  138MOL0     C18110   2.962   7.476   1.671  0.1983  0.4275  0.5226
  138MOL0     C18111   2.878   7.385   1.597 -0.3830 -0.2248 -0.2980
  138MOL0     C18112   2.897   7.249   1.603 -0.3595  0.0561  0.7035
  138MOL0     C18113   2.814   7.153   1.532 -0.0290 -0.0057 -0.2593
  138MOL0     O18114   2.741   7.211   1.430 -0.0379 -0.2749 -0.3943
  138MOL0     C18115   2.647   7.138   1.355  0.0338  0.3806 -0.2665
  138MOL0     C18116   2.557   7.040   1.398  0.2349 -0.3477 -0.8744
  138MOL0     C18117   2.452   7.003   1.326 -0.7111  0.2281  0.4344
  138MOL0     C18118   2.432   7.044   1.197  0.4209  0.4104 -0.0039
  138MOL0     O18119   2.321   6.998   1.124 -0.3413  0.1497 -0.6294
  138MOL0     C18120   2.269   7.078   1.017  0.7967  0.3312 -1.1837
  138MOL0     C18121   2.127   7.037   0.964 -1.3547 -0.2898 -0.2494
  138MOL0     C18122   2.143   6.912   0.881  0.7042 -0.5520  0.9446
  138MOL0     C18123   2.024   6.881   0.792  0.3069 -0.0885  0.1835
  138MOL0     C18124   1.992   6.732   0.760 -0.4614  0.2549 -0.9058
  138MOL0     C18125   1.885   6.700   0.651 -0.4980 -0.2226  0.6714
  138MOL0     C18126   1.871   6.547   0.648 -0.2661  0.0007  0.2694
  138MOL0     C18127   1.778   6.508   0.534 -0.6841 -0.3779 -0.1788
  138MOL0    Cl18128   1.752   6.337   0.557  0.2599 -0.3827  0.1141
  138MOL0     C18129   2.523   7.134   1.151 -1.1199 -0.0521 -0.5486
  138MOL0     C18130   2.624   7.190   1.223 -0.5984  0.1266  0.2658
  138MOL0     O18131   2.804   7.036   1.574  0.2324 -0.3739  0.3721
  138MOL0     C18132   3.012   7.203   1.677  0.7744  0.1707 -0.6176
  138MOL0     C18133   3.091   7.290   1.745  0.8496 -0.0556 -0.2344
  138MOL0     N18134   3.451   7.972   1.840 -0.6434  0.3745 -0.8928
  138MOL0     N18135   3.467   8.096   1.871  0.0145  0.6782 -0.2592
  138MOL0     C18136   4.607   8.391   1.808 -0.0023 -0.4306 -0.2848
  138MOL0     C18137   4.738   8.411   1.758 -0.4036 -0.2893  0.8502
  138MOL0     C18138   5.197   8.307   1.813  0.2420 -1.0902  0.4407
  138MOL0     C18139   5.294   8.330   1.911  0.9055  0.5436 -0.1829
  138MOL0     C18140   5.428   8.304   1.884 -0.6858  0.3495 -0.0444
  138MOL0     C18141   5.474   8.267   1.758 -0.2930  0.3704 -0.3209
  138MOL0     O18142   5.604   8.247   1.716 -0.7888 -0.5450  0.5515
  138MOL0     C18143   5.713   8.263   1.811  0.4378 -0.5042 -0.2809
  138MOL0     C18144   5.847   8.281   1.733 -0.5833 -0.2042 -0.2051
  138MOL0     C18145   5.891   8.148   1.661  0.6568  0.4255 -0.7635
  138MOL0     C18146   6.025   8.163   1.596  0.0344  0.3138  0.2400
  138MOL0     C18147   6.022   8.186   1.449 -0.9389 -0.5434  0.7386
  138MOL0     C18148   6.033   8.206   1.331 -0.9749 -0.4210  0.5622
  138MOL0     C18149   5.382   8.245   1.662  1.1148  0.4465  0.5052
  138MOL0     C18150   5.240   8.265   1.686 -0.1523  0.4823 -0.8278
  138MOL0     H18151   4.865   8.113   1.830 -0.4197 -0.7675 -0.9837
  138MOL0     H18152   4.633   8.065   1.902  3.5907 -1.1093  0.1704
  138MOL0     H18153   4.499   8.146   2.088  0.5627 -0.2249 -0.4234
  138MOL0     H18154   4.382   8.095   1.960 -1.9969  1.0123  0.0770
  138MOL0     H18155   4.316   8.297   2.179 -2.6023 -0.0357  1.1598
  138MOL0     H18156   4.278   8.124   2.167 -1.0037  0.2072 -0.9518
  138MOL0     H18157   4.173   8.185   1.932  0.5090 -0.4721  0.4990
  138MOL0     H18158   4.168   8.347   1.997  1.3718 -0.2183  0.6481
  138MOL0     H18159   4.040   8.106   2.099 -2.7265  0.5648  1.7428
  138MOL0     H18160   4.042   8.248   2.200 -4.0034  1.0669 -0.3917
  138MOL0     H18161   3.929   8.223   1.908  1.0076 -0.2722 -0.7764
  138MOL0     H18162   3.924   8.367   2.010 -3.7253 -0.0204  0.4393
  138MOL0     H18163   3.793   8.242   2.182  1.2250  2.6932 -0.3208
  138MOL0     H18164   3.785   8.101   2.073  1.8914 -0.8731 -2.1278
  138MOL0     H18165   3.684   8.383   2.023  0.2128 -0.5539  0.7644
  138MOL0     H18166   3.685   8.249   1.895  0.9711 -3.2299  0.0570
  138MOL0     H18167   3.470   8.310   2.021 -0.0292  0.8658  1.8395
  138MOL0     H18168   3.531   8.234   2.168  0.9832 -0.8720  0.7172
  138MOL0     H18169   3.537   7.965   2.159 -0.1303  2.1898  0.7124
  138MOL0     H18170   3.408   7.724   2.083  0.5877 -1.8624  0.2601
  138MOL0     H18171   3.545   7.698   1.982  0.0067  0.4952  0.3630
  138MOL0     H18172   3.391   7.585   1.868 -0.9354 -0.1477  1.6159
  138MOL0     H18173   3.395   7.729   1.780 -3.4676 -1.1383 -1.1147
  138MOL0     H18174   3.201   7.679   2.011  0.7951 -1.5356  0.0494
  138MOL0     H18175   3.194   7.824   1.908  0.0779  0.8122  3.0144
  138MOL0     H18176   3.114   7.696   1.726 -3.0981 -0.1030 -0.0510
  138MOL0     H18177   3.024   7.653   1.865  0.3852  1.3309  0.1939
  138MOL0     H18178   2.928   7.579   1.671 -0.4084  0.2328  0.4884
  138MOL0     H18179   2.799   7.427   1.536  1.0863 -0.8509 -2.7958
  138MOL0     H18180   2.560   7.002   1.500 -1.5278  1.4527 -0.0712
  138MOL0     H18181   2.377   6.933   1.363 -2.2638  1.7483  0.2753
  138MOL0     H18182   2.340   7.097   0.935  1.2596 -0.7912 -1.0523
  138MOL0     H18183   2.243   7.172   1.067 -0.5354 -1.8448  2.6079
  138MOL0     H18184   2.091   7.121   0.903  1.9759  2.4372  1.1910
  138MOL0     H18185   2.057   7.012   1.044 -1.8756  2.5868  0.2894
  138MOL0     H18186   2.153   6.824   0.946  1.5301 -0.4418  0.9735
  138MOL0     H18187   2.226   6.926   0.812 -1.9718 -0.6271 -2.5672
  138MOL0     H18188   1.933   6.908   0.847 -0.4354  1.1350 -1.5786
  138MOL0     H18189   2.043   6.940   0.703  0.9684  1.4428  1.2941
  138MOL0     H18190   1.944   6.690   0.849  3.4977  1.1013  1.8685
  138MOL0     H18191   2.085   6.677   0.742 -0.4663  0.4281 -1.4753
  138MOL0     H18192   1.935   6.724   0.557 -1.1394 -2.4736 -0.2985
  138MOL0     H18193   1.792   6.758   0.648 -0.4732 -0.2192 -2.0789
  138MOL0     H18194   1.964   6.499   0.617 -1.2944 -2.1809  0.4350
  138MOL0     H18195   1.830   6.512   0.743 -0.2232 -1.3412 -0.1834
  138MOL0     H18196   1.820   6.524   0.434 -0.9197 -1.3479 -0.4439
  138MOL0     H18197   1.684   6.564   0.546 -0.6105  0.3126 -2.3539
  138MOL0     H18198   2.514   7.162   1.046 -0.0457 -1.0212 -0.9190
  138MOL0     H18199   2.676   7.279   1.191 -0.2572  0.1015  0.7394
  138MOL0     H18200   3.027   7.098   1.697  2.6166  0.1734 -1.7845
  138MOL0     H18201   3.170   7.234   1.795 -0.8607 -2.4487 -0.0017
  138MOL0     H18202   4.542   8.478   1.803 -2.4459 -2.0836  0.6004
  138MOL0     H18203   4.771   8.500   1.705 -0.3814 -2.8261 -3.9444
  138MOL0     H18204   5.275   8.346   2.016  0.4469 -0.4486 -0.1017
  138MOL0     H18205   5.503   8.297   1.962 -1.0180 -1.2393  0.1718
  138MOL0     H18206   5.725   8.175   1.876  0.2076 -1.4323 -1.4483
  138MOL0     H18207   5.701   8.360   1.860 -2.0601  1.1243 -3.6950
  138MOL0     H18208   5.833   8.372   1.674 -1.2330  1.0764  1.8003
  138MOL0     H18209   5.924   8.318   1.802  1.2719  1.7881 -3.1178
  138MOL0     H18210   5.818   8.123   1.583  1.2195 -2.0229 -0.5895
  138MOL0     H18211   5.888   8.059   1.725  0.5369 -0.1726 -1.5850
  138MOL0     H18212   6.082   8.244   1.643  0.2763  0.1872  0.1674
  138MOL0     H18213   6.074   8.068   1.618 -0.2445  0.0365 -0.3274
  138MOL0     H18214   6.046   8.242   1.231  0.5075  0.8455  1.1680
  138MOL0     H18215   5.420   8.228   1.562 -0.0804 -2.4217  0.4439
  138MOL0     H18216   5.166   8.232   1.613  1.9726 -2.6293 -1.8010
  139MOL0     O18217   5.135   8.564   6.006  0.1209 -0.8438 -0.2122
  139MOL0     C18218   5.139   8.476   6.084 -0.6134 -0.4277 -0.3963
  139MOL0     O18219   5.249   8.434   6.152 -0.0478  0.0267  0.1217
  139MOL0     C18220   5.373   8.488   6.135  0.1925  0.3817 -0.3633
  139MOL0     C18221   5.468   8.421   6.211 -0.8713 -0.5336 -0.6215
  139MOL0     C18222   5.595   8.479   6.239  0.7241 -0.5428  0.9573
  139MOL0     C18223   5.639   8.583   6.161 -0.5277  0.0929 -0.3897
  139MOL0     O18224   5.769   8.616   6.182  0.2346  0.1845  0.3683
  139MOL0     C18225   5.839   8.659   6.064 -0.3203 -0.0184 -0.5182
  139MOL0     C18226   5.984   8.684   6.100  0.2769 -0.3673 -0.0306
  139MOL0     C18227   6.039   8.552   6.161 -0.0706  0.7204  0.0193
  139MOL0     C18228   6.199   8.556   6.161  0.3690  0.8753 -0.0468
  139MOL0     C18229   6.242   8.424   6.213  0.0655  0.1731 -0.6296
  139MOL0     C18230   6.397   8.423   6.202 -0.1905 -0.4690 -0.2587
  139MOL0     C18231   6.469   8.516   6.302 -0.1838  0.1957  0.8260
  139MOL0     C18232   6.596   8.455   6.353 -0.7974 -0.2135 -0.3473
  139MOL0     N18233   6.686   8.454   6.244  0.3221  0.8935  0.0234
  139MOL0     C18234   6.697   8.343   6.164 -0.5647 -0.1501  0.6124
  139MOL0     C18235   6.780   8.385   6.066 -0.6010 -0.6027 -0.2795
  139MOL0     C18236   6.815   8.304   5.944 -1.2944 -0.4463 -0.0735
  139MOL0     C18237   6.680   8.269   5.876 -0.4238 -0.6434  0.0166
  139MOL0     C18238   6.713   8.227   5.737  0.4782 -0.2408  0.0910
  139MOL0     C18239   6.590   8.168   5.667  0.5378  0.4492  0.1744
  139MOL0     O18240   6.496   8.272   5.638 -0.1288 -0.4837  0.3364
  139MOL0     C18241   6.371   8.239   5.593  0.4050  0.4440  0.4952
  139MOL0     C18242   6.323   8.108   5.583 -0.4665  0.2625 -0.1694
  139MOL0     C18243   6.204   8.077   5.521 -0.4407 -0.1787 -0.3827
  139MOL0     C18244   6.123   8.180   5.471  0.6853  0.4234  0.7134
  139MOL0     C18245   5.992   8.148   5.417  0.1197  0.1096  0.3858
  139MOL0     O18246   5.972   8.021   5.380 -0.1949  0.5134  0.2863
  139MOL0     C18247   5.853   7.973   5.328  0.1802 -0.3187 -0.5956
  139MOL0     C18248   5.804   7.849   5.352 -0.3938 -0.1076 -0.2104
  139MOL0     C18249   5.682   7.817   5.298 -0.2607  0.6879  0.3105
  139MOL0     C18250   5.600   7.897   5.232  0.6097  0.3186 -0.3074
  139MOL0     O18251   5.479   7.839   5.191 -0.0731  0.5606  0.1674
  139MOL0     C18252   5.367   7.923   5.145 -0.5998  0.1081  0.1025
  139MOL0     C18253   5.237   7.847   5.111  0.2796  0.0970 -0.0404
  139MOL0     C18254   5.125   7.943   5.071  0.6072  0.6616 -0.4212
  139MOL0     C18255   4.977   7.877   5.064 -1.0262  0.3742  0.1813
  139MOL0     C18256   4.944   7.773   5.163 -0.5355  0.0933  0.1975
  139MOL0     C18257   4.794   7.738   5.169  0.0320 -0.9996  0.2059
  139MOL0     C18258   4.733   7.659   5.051  0.3428 -0.0141 -0.7711
  139MOL0     C18259   4.586   7.607   5.073 -0.4357 -0.0036  1.1055
  139MOL0    Cl18260   4.470   7.738   5.076 -0.1745  0.1175  0.4888
  139MOL0     C18261   5.645   8.028   5.214 -0.1681 -0.5796  0.4002
  139MOL0     C18262   5.776   8.054   5.243  0.1332 -0.5418  0.4157
  139MOL0     O18263   5.905   8.241   5.419 -0.3993  0.7197  0.2964
  139MOL0     C18264   6.170   8.310   5.472  0.3957 -0.1057 -0.1172
  139MOL0     C18265   6.295   8.336   5.530 -0.2955  0.4101 -0.0544
  139MOL0     N18266   6.830   8.508   6.100 -0.1759  0.2078  0.3420
  139MOL0     N18267   6.761   8.555   6.201 -0.0299  0.4144  0.6746
  139MOL0     C18268   5.549   8.641   6.064  0.8706  0.5531  0.3348
  139MOL0     C18269   5.416   8.600   6.057 -0.1383 -0.2019  0.0212
  139MOL0     C18270   5.011   8.402   6.093 -0.5070 -0.3573  1.1625
  139MOL0     C18271   4.896   8.439   6.012 -0.4759  0.7856  0.0570
  139MOL0     C18272   4.787   8.357   6.015  0.0665  0.8335  0.0209
  139MOL0     C18273   4.788   8.248   6.100  0.2799 -0.1312 -0.8667
  139MOL0     O18274   4.675   8.166   6.112 -0.0350 -0.0702 -0.4828
  139MOL0     C18275   4.575   8.207   6.214  0.0539  0.1083 -0.1485
  139MOL0     C18276   4.492   8.325   6.168  0.5042  0.5416  0.0919
  139MOL0     C18277   4.417   8.325   6.035 -0.2168 -0.1028 -0.0544
  139MOL0     C18278   4.321   8.435   6.009  0.0615  0.0315 -0.8777
  139MOL0     C18279   4.288   8.443   5.864  0.7007  0.7203 -0.9762
  139MOL0     C18280   4.282   8.446   5.744 -1.3320  0.1101 -0.8749
  139MOL0     C18281   4.897   8.217   6.180 -0.4720  0.0869  0.8895
  139MOL0     C18282   5.002   8.299   6.186 -0.7064 -0.4439  0.5074
  139MOL0     H18283   5.428   8.329   6.252 -0.0634  0.6611  3.2239
  139MOL0     H18284   5.678   8.444   6.300  2.2205 -0.3005 -0.8588
  139MOL0     H18285   5.794   8.741   6.008  0.0869 -0.5211 -1.6024
  139MOL0     H18286   5.839   8.583   5.986  0.1431  0.6849 -1.2208
  139MOL0     H18287   5.995   8.773   6.162  0.8405 -2.4076  3.0264
  139MOL0     H18288   6.040   8.716   6.012  1.4763  1.8475  1.4457
  139MOL0     H18289   6.008   8.470   6.095 -2.4621  1.1787  0.4656
  139MOL0     H18290   6.002   8.520   6.259  0.2372 -2.6791 -0.8493
  139MOL0     H18291   6.226   8.573   6.056  0.8075  1.5151  0.1627
  139MOL0     H18292   6.236   8.646   6.210  2.8624  1.7574 -3.2076
  139MOL0     H18293   6.195   8.344   6.154 -0.3310  0.4743 -0.7304
  139MOL0     H18294   6.194   8.413   6.311  1.8727  1.4746  0.4522
  139MOL0     H18295   6.420   8.451   6.098  2.5910  0.6007  0.5442
  139MOL0     H18296   6.450   8.328   6.206  3.0395  1.2039  0.0858
  139MOL0     H18297   6.484   8.606   6.242 -0.3867 -1.6205 -2.2233
  139MOL0     H18298   6.408   8.539   6.389  0.3409 -0.8582  1.4909
  139MOL0     H18299   6.576   8.353   6.384 -1.2162  0.2738  1.0401
  139MOL0     H18300   6.632   8.517   6.435  1.2624 -0.8751 -0.7011
  139MOL0     H18301   6.649   8.245   6.163  0.1884 -0.6700 -3.9499
  139MOL0     H18302   6.879   8.217   5.957  1.6373  1.4981 -0.4823
  139MOL0     H18303   6.874   8.370   5.879 -0.2289  0.9842  2.1967
  139MOL0     H18304   6.619   8.359   5.884 -0.1397 -0.5568  1.5230
  139MOL0     H18305   6.620   8.196   5.931 -4.0391  1.7940 -0.3787
  139MOL0     H18306   6.751   8.310   5.677 -2.4541 -0.1981 -1.9100
  139MOL0     H18307   6.794   8.154   5.741  0.3731 -0.3506  0.2236
  139MOL0     H18308   6.546   8.093   5.733  3.8794 -1.1333  0.7975
  139MOL0     H18309   6.626   8.110   5.582 -0.7684 -1.9846  1.1852
  139MOL0     H18310   6.379   8.024   5.623 -1.5153 -1.0508 -1.3687
  139MOL0     H18311   6.173   7.974   5.513  0.6358 -0.5458 -0.0476
  139MOL0     H18312   5.862   7.777   5.408 -0.8659 -0.5130 -0.2325
  139MOL0     H18313   5.644   7.716   5.309 -0.2087  0.7933  1.5548
  139MOL0     H18314   5.404   7.982   5.061  1.8160  1.1306  1.7763
  139MOL0     H18315   5.337   8.001   5.216 -0.7475  1.8431 -1.7485
  139MOL0     H18316   5.213   7.789   5.201  0.7065  0.3310  0.2283
  139MOL0     H18317   5.253   7.776   5.029 -1.1597  0.7149 -0.8915
  139MOL0     H18318   5.154   7.993   4.979 -1.1907 -0.0187 -1.3986
  139MOL0     H18319   5.112   8.021   5.146  0.2695 -0.4694  0.7451
  139MOL0     H18320   4.901   7.955   5.057 -0.7450  0.6013 -0.5075
  139MOL0     H18321   4.980   7.825   4.967  0.6711  0.8918 -0.0888
  139MOL0     H18322   4.980   7.807   5.260  1.1322 -0.1551 -0.2984
  139MOL0     H18323   5.009   7.688   5.137 -0.1869  0.8402 -1.5311
  139MOL0     H18324   4.742   7.834   5.179  2.7377  0.6595 -0.4714
  139MOL0     H18325   4.781   7.674   5.257  2.0616 -0.4081  0.9819
  139MOL0     H18326   4.730   7.733   4.971 -2.4808 -0.3977 -1.1355
  139MOL0     H18327   4.787   7.575   5.007 -0.4359 -0.4420 -0.9411
  139MOL0     H18328   4.584   7.560   5.171 -0.3144 -1.3515  0.4912
  139MOL0     H18329   4.552   7.539   4.994  4.0246 -0.0535 -1.0419
  139MOL0     H18330   5.588   8.108   5.168 -0.4076 -0.7279  0.4391
  139MOL0     H18331   5.819   8.148   5.209 -0.6223 -0.3133  0.0633
  139MOL0     H18332   6.110   8.387   5.424  0.7043  0.5537  0.5365
  139MOL0     H18333   6.352   8.428   5.526  0.8085 -0.1745  1.2966
  139MOL0     H18334   5.577   8.717   5.992  0.1019 -0.0212 -0.6051
  139MOL0     H18335   5.341   8.658   6.005 -0.0717  1.1185  1.3436
  139MOL0     H18336   4.901   8.523   5.944  0.0473  1.8292  1.3420
  139MOL0     H18337   4.703   8.377   5.949 -1.0939 -0.1402  1.1494
  139MOL0     H18338   4.627   8.226   6.308  0.9543 -1.4632 -0.3002
  139MOL0     H18339   4.503   8.129   6.239 -0.9179  0.5796 -1.3518
  139MOL0     H18340   4.415   8.345   6.243 -1.3167  1.2866 -1.8569
  139MOL0     H18341   4.557   8.413   6.169  0.9348  0.2179  0.4982
  139MOL0     H18342   4.353   8.237   6.027  1.1420 -1.3059  1.6044
  139MOL0     H18343   4.497   8.320   5.961  2.3156  0.1816  2.4722
  139MOL0     H18344   4.229   8.435   6.069  0.3014  2.4232 -0.3970
  139MOL0     H18345   4.370   8.531   6.029  0.3153 -0.4009  0.6905
  139MOL0     H18346   4.299   8.454   5.639  0.4855 -0.4835 -0.6573
  139MOL0     H18347   4.884   8.131   6.245  1.7862 -2.2352 -1.4785
  139MOL0     H18348   5.087   8.282   6.253 -1.1935 -1.3091  0.9202
  140MOL0     O18349   0.476   0.466   0.022  0.7865 -0.0531 -0.0751
  140MOL0     C18350   0.543   0.551  -0.039  0.0193  0.7838 -0.2628
  140MOL0     O18351   0.510   0.685  -0.048 -0.2123  0.7921 -0.3156
  140MOL0     C18352   0.402   0.742   0.007 -0.1680  0.4816 -0.0129
  140MOL0     C18353   0.327   0.832  -0.072 -0.1858 -0.4913 -0.0108
  140MOL0     C18354   0.205   0.869  -0.016  0.1555 -0.0360 -0.2371
  140MOL0     C18355   0.148   0.819   0.098  0.2157  0.0827 -0.1164
  140MOL0     O18356   0.018   0.852   0.142 -0.1351  0.2333 -0.1706
  140MOL0     C18357  -0.082   0.758   0.189 -0.5319  0.3281  0.3509
  140MOL0     C18358  -0.196   0.821   0.274 -0.3215  0.4895  1.9600
  140MOL0     C18359  -0.152   0.884   0.396  0.4771 -0.0657 -0.8840
  140MOL0     C18360  -0.274   0.958   0.457  0.2479 -0.9049  0.3652
  140MOL0     C18361  -0.248   0.991   0.603 -0.2035 -0.5300  0.0531
  140MOL0     C18362  -0.382   1.050   0.665 -0.5896 -0.1390  0.5973
  140MOL0     C18363  -0.360   1.070   0.822 -0.2968 -0.6771 -0.0706
  140MOL0     C18364  -0.480   1.129   0.891 -0.1110 -0.2426  0.1073
  140MOL0     N18365  -0.585   1.025   0.898  0.1017 -0.4729  0.1555
  140MOL0     C18366  -0.578   0.917   0.986 -0.3805 -0.2485 -0.1817
  140MOL0     C18367  -0.673   0.840   0.937  0.6442  1.3949 -0.1233
  140MOL0     C18368  -0.714   0.714   1.012 -0.3465 -0.7146  0.5248
  140MOL0     C18369  -0.803   0.753   1.125  0.2080 -0.0102 -0.1845
  140MOL0     C18370  -0.944   0.786   1.068 -0.4287 -0.0932  0.0271
  140MOL0     C18371  -1.026   0.852   1.179 -0.6507 -0.1454 -0.5370
  140MOL0     O18372  -1.074   0.768   1.283  0.1598  0.2946  0.0023
  140MOL0     C18373  -1.177   0.687   1.256  1.1123  0.0636  0.2207
  140MOL0     C18374  -1.243   0.666   1.137  0.2252 -0.2280  0.7089
  140MOL0     C18375  -1.359   0.590   1.126 -0.7046  0.3818 -0.1534
  140MOL0     C18376  -1.424   0.546   1.248  0.0456  0.2796  0.3650
  140MOL0     C18377  -1.552   0.471   1.232 -0.2655 -0.5106  0.3512
  140MOL0     O18378  -1.624   0.485   1.110  0.3509  0.1937 -0.7853
  140MOL0     C18379  -1.727   0.398   1.082  0.1095  0.3198  1.3263
  140MOL0     C18380  -1.765   0.272   1.147 -0.2099  0.0387  0.3446
  140MOL0     C18381  -1.874   0.205   1.106  0.1262 -0.1921  0.0724
  140MOL0     C18382  -1.955   0.252   0.991 -0.0261 -0.7354 -0.6427
  140MOL0     O18383  -2.064   0.176   0.958 -0.0497 -0.6593 -0.6258
  140MOL0     C18384  -2.165   0.233   0.876 -0.1320  0.5909  0.1491
  140MOL0     C18385  -2.288   0.149   0.884  0.0740  0.2661  0.2449
  140MOL0     C18386  -2.392   0.217   0.806  0.0862  0.1463 -0.0752
  140MOL0     C18387  -2.531   0.142   0.804 -0.6520 -0.2366 -0.2701
  140MOL0     C18388  -2.637   0.228   0.729  0.7423  0.1051 -1.3415
  140MOL0     C18389  -2.778   0.162   0.765 -0.5443  0.7704  0.3434
  140MOL0     C18390  -2.886   0.239   0.690 -0.2959 -1.0416 -0.4721
  140MOL0     C18391  -3.035   0.179   0.716 -0.5829  0.3055  0.3087
  140MOL0    Cl18392  -3.154   0.290   0.631 -0.9052  0.0778  0.0907
  140MOL0     C18393  -1.912   0.377   0.930 -0.1285 -0.2294 -0.2908
  140MOL0     C18394  -1.801   0.445   0.977 -0.1670  0.6344  0.0164
  140MOL0     O18395  -1.583   0.404   1.325 -0.2868 -0.0909  0.0476
  140MOL0     C18396  -1.357   0.569   1.371 -0.0476 -0.1383  0.1938
  140MOL0     C18397  -1.235   0.633   1.375  0.0036 -0.3414 -0.2938
  140MOL0     N18398  -0.743   0.899   0.836  0.2276 -0.8532  0.2960
  140MOL0     N18399  -0.694   1.013   0.813 -0.3239 -0.8431  0.2450
  140MOL0     C18400   0.225   0.734   0.179  0.1665 -0.4028  0.1042
  140MOL0     C18401   0.351   0.701   0.134 -0.3202 -0.2695 -0.0023
  140MOL0     C18402   0.669   0.503  -0.095  0.2914  0.1720 -0.1323
  140MOL0     C18403   0.727   0.378  -0.059  0.4792  0.0168  0.3952
  140MOL0     C18404   0.840   0.331  -0.129  0.1331  0.2214 -0.0710
  140MOL0     C18405   0.906   0.409  -0.222  0.0104 -0.8428 -0.1487
  140MOL0     O18406   1.027   0.372  -0.263  0.0715  0.0280  0.1668
  140MOL0     C18407   1.144   0.405  -0.189 -0.4641  0.2136 -0.1310
  140MOL0     C18408   1.215   0.506  -0.279 -0.4280  0.8449  0.5025
  140MOL0     C18409   1.342   0.568  -0.224 -0.4071  1.3824  0.1715
  140MOL0     C18410   1.332   0.683  -0.132  0.2039  0.2049  0.1730
  140MOL0     C18411   1.466   0.734  -0.104 -0.5437  0.2075 -0.2408
  140MOL0     C18412   1.580   0.780  -0.108 -1.1020  0.0509  0.0096
  140MOL0     C18413   0.852   0.532  -0.255 -0.1687  0.5626  0.6421
  140MOL0     C18414   0.742   0.576  -0.185  0.9038 -0.1694 -0.1923
  140MOL0     H18415   0.385   0.869  -0.156  1.2201 -2.7809 -0.1463
  140MOL0     H18416   0.152   0.958  -0.048 -2.3017  0.0107  3.4038
  140MOL0     H18417  -0.032   0.682   0.250 -0.2190 -0.9811 -1.4850
  140MOL0     H18418  -0.146   0.710   0.115 -1.9012  1.1410  0.9614
  140MOL0     H18419  -0.265   0.739   0.294 -1.7938  0.5924 -1.7400
  140MOL0     H18420  -0.248   0.897   0.215  2.3132  0.3655 -0.7814
  140MOL0     H18421  -0.069   0.956   0.391  3.0461 -2.7513  0.1801
  140MOL0     H18422  -0.124   0.815   0.476 -1.6687  2.8657  2.7235
  140MOL0     H18423  -0.280   1.048   0.396 -1.5522 -1.7453 -0.8135
  140MOL0     H18424  -0.366   0.900   0.442 -2.5619  3.6915 -2.3675
  140MOL0     H18425  -0.165   1.062   0.603  0.5691 -1.4046  1.2961
  140MOL0     H18426  -0.209   0.903   0.655  4.0656  0.4233 -1.1397
  140MOL0     H18427  -0.464   0.978   0.657 -1.2964  0.3955  2.5229
  140MOL0     H18428  -0.413   1.136   0.605 -2.3318 -3.0062 -2.9734
  140MOL0     H18429  -0.321   0.973   0.853 -0.1091 -1.1585 -1.6999
  140MOL0     H18430  -0.282   1.144   0.838 -1.5545  1.1780 -1.9210
  140MOL0     H18431  -0.501   1.222   0.836  1.0851 -1.6385 -2.9027
  140MOL0     H18432  -0.458   1.153   0.996 -0.6154 -0.5120  0.2807
  140MOL0     H18433  -0.510   0.902   1.070 -1.4024 -0.1690  0.6760
  140MOL0     H18434  -0.627   0.667   1.060  0.9374  2.7715  1.8921
  140MOL0     H18435  -0.778   0.651   0.948  1.0251 -0.8688 -0.7682
  140MOL0     H18436  -0.768   0.847   1.168 -0.2933 -0.8642  2.2482
  140MOL0     H18437  -0.817   0.672   1.198  3.5793 -2.1453 -1.6695
  140MOL0     H18438  -0.946   0.859   0.987  0.8429  0.0337  0.0898
  140MOL0     H18439  -0.993   0.693   1.038 -0.4070 -1.3353  3.4254
  140MOL0     H18440  -1.111   0.905   1.137  0.4714  0.3618 -2.2734
  140MOL0     H18441  -0.958   0.925   1.223  0.0735 -1.7801  1.2348
  140MOL0     H18442  -1.206   0.709   1.044  1.4315 -3.1298 -0.2860
  140MOL0     H18443  -1.407   0.578   1.029 -0.8911  0.8735 -0.1252
  140MOL0     H18444  -1.718   0.226   1.234  0.1906 -1.4913 -0.6524
  140MOL0     H18445  -1.907   0.117   1.162  1.6436  1.5547  4.1214
  140MOL0     H18446  -2.132   0.247   0.773 -0.4924  3.0113  0.2901
  140MOL0     H18447  -2.190   0.334   0.910 -1.3921  0.3930 -0.1618
  140MOL0     H18448  -2.325   0.131   0.985  1.4318  1.2502  0.9346
  140MOL0     H18449  -2.268   0.049   0.844  0.0126  0.2953  0.1381
  140MOL0     H18450  -2.367   0.234   0.701 -2.5839  1.0795 -0.6565
  140MOL0     H18451  -2.413   0.314   0.852 -0.4289  1.1018 -2.2148
  140MOL0     H18452  -2.515   0.052   0.744  1.8751  0.1890 -0.3358
  140MOL0     H18453  -2.559   0.120   0.907 -3.1206  3.0564 -0.0825
  140MOL0     H18454  -2.614   0.217   0.623  0.3768  1.2697 -1.5644
  140MOL0     H18455  -2.639   0.332   0.763  2.8338  0.4013 -2.0150
  140MOL0     H18456  -2.812   0.165   0.869  0.0285  0.7776  0.5319
  140MOL0     H18457  -2.781   0.055   0.741 -1.2453  0.6038  1.1354
  140MOL0     H18458  -2.884   0.343   0.724  0.5881 -1.7854  1.9255
  140MOL0     H18459  -2.871   0.236   0.582 -0.0661  1.1588 -0.5605
  140MOL0     H18460  -3.069   0.168   0.820  1.4916 -0.6087  0.9516
  140MOL0     H18461  -3.034   0.081   0.668  1.2674 -0.7292  2.2323
  140MOL0     H18462  -1.976   0.413   0.849  1.3703  0.3076 -1.2756
  140MOL0     H18463  -1.768   0.534   0.925 -1.0233  0.0607 -1.5774
  140MOL0     H18464  -1.406   0.544   1.465  0.3546 -1.7064  0.0159
  140MOL0     H18465  -1.186   0.654   1.470  3.8414  1.6029 -2.4420
  140MOL0     H18466   0.201   0.710   0.282  0.1829  1.6188  0.6278
  140MOL0     H18467   0.412   0.633   0.192 -1.4308 -2.3172 -1.1169
  140MOL0     H18468   0.681   0.320   0.021  1.0156  1.5587  1.8759
  140MOL0     H18469   0.865   0.227  -0.111 -1.0440 -0.5067 -2.2780
  140MOL0     H18470   1.190   0.314  -0.149 -0.5748  1.0166  2.0028
  140MOL0     H18471   1.108   0.462  -0.103  0.2170 -0.3063  0.5165
  140MOL0     H18472   1.236   0.451  -0.371  0.1063  0.5911  0.7732
  140MOL0     H18473   1.143   0.582  -0.313 -0.6623 -0.3865 -2.0214
  140MOL0     H18474   1.398   0.594  -0.314  0.1553 -1.3177 -0.3487
  140MOL0     H18475   1.394   0.486  -0.174  0.5510 -0.5222 -3.5667
  140MOL0     H18476   1.275   0.761  -0.183 -2.8291 -1.2265  1.1450
  140MOL0     H18477   1.292   0.657  -0.034  0.3276  1.1997  0.4908
  140MOL0     H18478   1.677   0.825  -0.101  0.4132 -2.9865  0.1037
  140MOL0     H18479   0.904   0.598  -0.324  0.1948 -1.2133 -0.8769
  140MOL0     H18480   0.699   0.671  -0.216 -0.9744 -0.3231  1.7078
  141MOL0     O18481   4.210   3.654   4.893  0.4119  0.3555 -0.2754
  141MOL0     C18482   4.243   3.677   5.011  0.1776  0.5357  0.5292
  141MOL0     O18483   4.161   3.692   5.119  0.6878  0.0422  0.7532
  141MOL0     C18484   4.026   3.670   5.103 -0.4274 -0.9515  0.5231
  141MOL0     C18485   3.994   3.548   5.050  0.0779  0.1983  0.0745
  141MOL0     C18486   3.855   3.516   5.050  0.4089  0.4945 -0.1966
  141MOL0     C18487   3.757   3.589   5.122 -0.1754 -0.0181  0.1776
  141MOL0     O18488   3.627   3.545   5.115  0.2161 -0.4456 -0.6755
  141MOL0     C18489   3.578   3.457   5.012  0.4770 -0.2762  0.0749
  141MOL0     C18490   3.418   3.453   5.015  0.0995 -0.5069  0.2942
  141MOL0     C18491   3.359   3.585   4.975  0.5749 -0.2645 -0.2284
  141MOL0     C18492   3.203   3.587   4.961  0.6203 -0.3744 -1.2414
  141MOL0     C18493   3.167   3.730   4.899  0.3790 -0.1703 -0.6075
  141MOL0     C18494   3.008   3.727   4.882 -0.4000  0.0536 -0.6700
  141MOL0     C18495   2.964   3.866   4.845  0.2193 -0.6476 -0.1210
  141MOL0     C18496   2.965   3.957   4.973 -0.3828  0.8185 -0.3698
  141MOL0     N18497   2.920   4.090   4.937 -0.5524  0.1722 -0.2588
  141MOL0     C18498   2.865   4.180   5.020  0.5268 -0.3843 -0.3633
  141MOL0     C18499   2.840   4.285   4.939  0.2259 -0.4949 -0.2612
  141MOL0     C18500   2.810   4.424   4.987 -0.1004 -0.2802  0.4831
  141MOL0     C18501   2.664   4.435   5.038 -0.1431  1.3081  0.2362
  141MOL0     C18502   2.548   4.433   4.934  0.1955  0.3104  0.4704
  141MOL0     C18503   2.415   4.491   4.995 -0.1127  1.1414 -0.1312
  141MOL0     O18504   2.375   4.392   5.092  0.5978 -0.3113  0.2560
  141MOL0     C18505   2.238   4.377   5.122  0.4808  0.7182 -0.5760
  141MOL0     C18506   2.210   4.263   5.200  0.5941 -0.1085  0.5161
  141MOL0     C18507   2.078   4.236   5.248 -0.5435 -0.5124  1.1164
  141MOL0     C18508   1.972   4.318   5.211  0.1838 -0.4346  0.9459
  141MOL0     C18509   1.832   4.294   5.254  0.4299  0.3174 -0.0193
  141MOL0     O18510   1.752   4.402   5.273  0.4498  0.1022 -0.3589
  141MOL0     C18511   1.621   4.380   5.310 -0.6838 -0.7512 -0.1512
  141MOL0     C18512   1.527   4.319   5.228 -0.1066 -0.2973 -0.0260
  141MOL0     C18513   1.395   4.316   5.274  0.4641 -0.1264 -0.2222
  141MOL0     C18514   1.361   4.372   5.397  0.5003 -0.1889  0.1948
  141MOL0     O18515   1.227   4.356   5.435  0.5612  0.0421 -0.2043
  141MOL0     C18516   1.161   4.467   5.503 -0.2135 -0.7120  0.5436
  141MOL0     C18517   1.008   4.438   5.529 -0.5869  0.4988  0.7976
  141MOL0     C18518   0.927   4.381   5.404  0.0944 -1.1838  0.2678
  141MOL0     C18519   0.792   4.333   5.444  0.0660 -0.1946 -0.0294
  141MOL0     C18520   0.704   4.307   5.320 -0.0927 -0.3518 -1.0394
  141MOL0     C18521   0.560   4.300   5.356 -0.5687  0.0993  0.4780
  141MOL0     C18522   0.539   4.169   5.425 -0.5577  0.3951 -0.3521
  141MOL0     C18523   0.397   4.142   5.444  0.0858  0.1061 -0.0514
  141MOL0    Cl18524   0.308   4.085   5.293  0.4945  0.0697  0.4068
  141MOL0     C18525   1.449   4.446   5.471 -0.0876 -0.1293  0.2589
  141MOL0     C18526   1.578   4.447   5.432 -0.1578  0.2008  0.4743
  141MOL0     O18527   1.798   4.175   5.276  0.4841 -0.2456  1.0018
  141MOL0     C18528   1.995   4.418   5.110 -0.2022 -0.9374 -0.3198
  141MOL0     C18529   2.127   4.452   5.073  0.4653 -0.4974  0.4038
  141MOL0     N18530   2.865   4.247   4.802  0.1289  0.1929 -0.8646
  141MOL0     N18531   2.914   4.130   4.806 -0.3165  0.2444 -0.4528
  141MOL0     C18532   3.798   3.713   5.176 -0.1976 -0.1330 -0.2707
  141MOL0     C18533   3.936   3.746   5.177  0.7792 -0.1197 -0.1231
  141MOL0     C18534   4.381   3.701   5.041  0.1353 -0.1543  0.7453
  141MOL0     C18535   4.471   3.738   4.941  0.8374  0.2602  0.4169
  141MOL0     C18536   4.606   3.767   4.968  0.6853  0.1709  0.2889
  141MOL0     C18537   4.654   3.770   5.099  0.0888 -0.8497 -0.3598
  141MOL0     O18538   4.778   3.795   5.112 -0.8854 -0.2056 -0.0705
  141MOL0     C18539   4.853   3.755   5.224  0.1941 -0.2127  0.8348
  141MOL0     C18540   5.005   3.777   5.208  0.0675  0.8271 -0.1132
  141MOL0     C18541   5.049   3.916   5.168 -0.0890 -0.5250 -0.3171
  141MOL0     C18542   5.187   3.955   5.238 -0.2217 -0.8769  0.1623
  141MOL0     C18543   5.170   3.982   5.384  0.7348  0.0486  0.6001
  141MOL0     C18544   5.161   4.006   5.499  0.1207 -0.1885 -0.6027
  141MOL0     C18545   4.567   3.729   5.194  0.0064 -0.7073 -0.1340
  141MOL0     C18546   4.436   3.690   5.168  0.9592  0.0072 -0.6715
  141MOL0     H18547   4.062   3.482   4.998  1.2366 -0.4735  2.3220
  141MOL0     H18548   3.827   3.430   4.989 -0.5827  2.1334 -2.1481
  141MOL0     H18549   3.613   3.355   5.031 -1.0483 -0.4379  2.4577
  141MOL0     H18550   3.622   3.490   4.917  1.0224  0.0115  0.4163
  141MOL0     H18551   3.390   3.423   5.116 -0.8644 -0.4260  0.0612
  141MOL0     H18552   3.381   3.374   4.950  1.0542 -0.6902 -0.0538
  141MOL0     H18553   3.388   3.618   4.876  1.5020  0.2837  0.2154
  141MOL0     H18554   3.399   3.650   5.054 -0.6172 -1.7562  1.7171
  141MOL0     H18555   3.161   3.500   4.909 -1.0271 -0.0774 -0.4759
  141MOL0     H18556   3.166   3.579   5.063  0.2278  0.5337 -1.3067
  141MOL0     H18557   3.208   3.729   4.798  0.9186 -0.7042 -0.3884
  141MOL0     H18558   3.191   3.818   4.960  0.7311  0.4387 -1.6060
  141MOL0     H18559   2.965   3.685   4.973 -0.5879  0.3553 -0.6159
  141MOL0     H18560   2.994   3.656   4.800 -1.4147  0.4487 -0.8494
  141MOL0     H18561   3.035   3.897   4.768 -0.2312 -3.0331 -1.6056
  141MOL0     H18562   2.864   3.864   4.800 -0.0703  1.2388  0.3462
  141MOL0     H18563   3.064   3.973   5.018 -1.8586  1.1640  3.0256
  141MOL0     H18564   2.902   3.914   5.051 -0.4166 -0.7496 -1.2110
  141MOL0     H18565   2.855   4.163   5.127 -2.4565 -1.3238 -0.7165
  141MOL0     H18566   2.817   4.494   4.904 -3.4714 -0.5141 -0.1580
  141MOL0     H18567   2.879   4.465   5.061 -0.0935  2.0120 -0.7136
  141MOL0     H18568   2.662   4.532   5.089 -0.7369  0.8095  1.1979
  141MOL0     H18569   2.646   4.360   5.116 -0.7152  1.2931  0.0972
  141MOL0     H18570   2.586   4.494   4.851  4.8550  0.8593  2.7187
  141MOL0     H18571   2.527   4.330   4.905 -1.8376  0.4823  1.1522
  141MOL0     H18572   2.338   4.508   4.920  1.3960 -0.4571 -2.1645
  141MOL0     H18573   2.438   4.581   5.053  0.5464  1.0704 -0.2754
  141MOL0     H18574   2.293   4.201   5.231  1.8544  1.5291  0.5345
  141MOL0     H18575   2.069   4.157   5.322  0.2725 -2.6087 -0.8952
  141MOL0     H18576   1.540   4.274   5.130 -3.8736  0.7064 -1.1641
  141MOL0     H18577   1.322   4.253   5.222  0.6838 -0.6269  0.0720
  141MOL0     H18578   1.171   4.555   5.440  0.9205 -2.4359 -1.8400
  141MOL0     H18579   1.210   4.485   5.599 -2.9791  2.5944  1.5500
  141MOL0     H18580   0.961   4.535   5.547 -0.4122  0.9114 -0.8121
  141MOL0     H18581   1.007   4.371   5.616 -2.5978  1.5989  1.6748
  141MOL0     H18582   0.978   4.293   5.363  0.2499 -0.6311 -0.7540
  141MOL0     H18583   0.907   4.461   5.333 -1.1224 -0.9270  0.8577
  141MOL0     H18584   0.803   4.253   5.518  2.2856 -0.8185 -0.9225
  141MOL0     H18585   0.738   4.408   5.502 -1.3291 -2.7957  2.2374
  141MOL0     H18586   0.741   4.218   5.267 -0.2459  0.2760 -2.2423
  141MOL0     H18587   0.718   4.392   5.252  2.7516 -1.0156 -1.4462
  141MOL0     H18588   0.510   4.304   5.259  1.3749  2.3478 -0.5347
  141MOL0     H18589   0.525   4.382   5.419 -1.1726  1.6597 -1.7744
  141MOL0     H18590   0.580   4.079   5.378 -1.1404 -0.4981  0.7921
  141MOL0     H18591   0.570   4.175   5.529 -0.6226 -1.6970 -0.1637
  141MOL0     H18592   0.356   4.231   5.492 -1.7574 -0.6892 -0.1017
  141MOL0     H18593   0.386   4.061   5.517  0.9077 -0.1044 -0.1463
  141MOL0     H18594   1.419   4.502   5.558  0.5569 -0.4048  0.6665
  141MOL0     H18595   1.647   4.503   5.495 -1.1184  0.8023  1.0107
  141MOL0     H18596   1.908   4.477   5.084 -0.2066  0.0579  1.7467
  141MOL0     H18597   2.165   4.536   5.015 -0.4427 -0.4593 -0.1455
  141MOL0     H18598   3.718   3.769   5.223 -1.3158  0.0357 -2.2355
  141MOL0     H18599   3.985   3.837   5.211  1.1173  0.3803 -1.8684
  141MOL0     H18600   4.437   3.756   4.839 -0.6270 -0.0308  0.8295
  141MOL0     H18601   4.672   3.805   4.891  1.7438  0.9055  1.5125
  141MOL0     H18602   4.832   3.651   5.254  1.0185 -1.2098 -1.8192
  141MOL0     H18603   4.822   3.816   5.310 -3.3740 -2.2414  1.2028
  141MOL0     H18604   5.044   3.748   5.306 -0.7942 -0.3273 -0.1021
  141MOL0     H18605   5.038   3.702   5.136 -0.7361  0.5571 -0.2035
  141MOL0     H18606   4.979   3.991   5.206  2.4345  1.7292  0.2319
  141MOL0     H18607   5.050   3.920   5.058 -0.8251  1.3762 -0.2938
  141MOL0     H18608   5.264   3.881   5.211  0.7075 -0.4938  1.6252
  141MOL0     H18609   5.215   4.050   5.191 -2.0317 -1.2976 -1.9091
  141MOL0     H18610   5.153   4.040   5.601 -2.2715  1.3280 -1.2227
  141MOL0     H18611   4.610   3.715   5.293  1.3094  1.0445 -0.4112
  141MOL0     H18612   4.378   3.635   5.242 -0.2771  0.1514 -1.5050
  142MOL0     O18613   7.073   4.821   6.476 -0.0967 -0.1212 -0.0925
  142MOL0     C18614   7.167   4.810   6.553 -0.9224 -0.1636  0.0123
  142MOL0     O18615   7.270   4.715   6.546 -0.0305 -0.5353 -0.3241
  142MOL0     C18616   7.263   4.648   6.426  0.3274  0.0377 -0.4119
  142MOL0     C18617   7.299   4.715   6.310  0.4680  0.1804  0.9246
  142MOL0     C18618   7.312   4.649   6.190 -0.7520 -0.7432 -0.6715
  142MOL0     C18619   7.284   4.517   6.176  0.2675 -0.2667 -0.1364
  142MOL0     O18620   7.275   4.440   6.066  0.1732 -0.1426 -0.0010
  142MOL0     C18621   7.308   4.481   5.933 -0.1796 -0.4505  0.0639
  142MOL0     C18622   7.202   4.446   5.830 -0.3981  0.6492 -0.7472
  142MOL0     C18623   7.077   4.516   5.870  0.4523  0.5299 -0.4056
  142MOL0     C18624   6.985   4.518   5.751  0.2941 -0.2446 -0.1963
  142MOL0     C18625   6.854   4.587   5.778 -0.9526 -0.4821  0.7032
  142MOL0     C18626   6.777   4.581   5.642  0.1097  0.2708  0.3801
  142MOL0     C18627   6.653   4.660   5.636  0.0183  0.3246  0.0143
  142MOL0     C18628   6.546   4.614   5.736 -0.6136  0.1232  0.3990
  142MOL0     N18629   6.525   4.465   5.748  0.9396  0.4111 -0.0294
  142MOL0     C18630   6.530   4.393   5.867 -0.7731  0.9665 -0.0655
  142MOL0     C18631   6.477   4.272   5.841 -0.0734 -0.1165 -0.0944
  142MOL0     C18632   6.469   4.159   5.933  0.1660  0.4741 -0.0084
  142MOL0     C18633   6.335   4.080   5.901 -0.1792 -0.4904 -0.0914
  142MOL0     C18634   6.315   3.961   5.996 -0.1873 -1.0084  0.3029
  142MOL0     C18635   6.174   3.897   6.000 -0.4746 -0.0332  0.7382
  142MOL0     O18636   6.149   3.832   5.866 -0.1295  0.2976 -0.6619
  142MOL0     C18637   6.023   3.781   5.836 -0.4141  0.2257 -0.5142
  142MOL0     C18638   6.015   3.731   5.707  0.1597 -0.0108  0.5318
  142MOL0     C18639   5.890   3.682   5.658 -0.0202 -0.9875  0.4187
  142MOL0     C18640   5.778   3.678   5.736  0.0938  0.0247 -0.6039
  142MOL0     C18641   5.652   3.627   5.695 -0.5043  0.1320  0.9087
  142MOL0     O18642   5.642   3.566   5.569  0.1404 -0.2226 -0.0893
  142MOL0     C18643   5.513   3.537   5.525 -0.2945  0.3300 -1.2993
  142MOL0     C18644   5.420   3.639   5.513  0.4308  0.6016 -0.2287
  142MOL0     C18645   5.299   3.608   5.466  0.3213 -1.3030  0.2815
  142MOL0     C18646   5.264   3.476   5.428 -0.5609 -0.0066  0.4274
  142MOL0     O18647   5.133   3.453   5.386 -0.3204  0.0623  0.4641
  142MOL0     C18648   5.101   3.343   5.294 -0.0504 -0.0831 -0.4094
  142MOL0     C18649   4.958   3.368   5.262 -0.7084 -0.5829  0.5157
  142MOL0     C18650   4.913   3.285   5.144  0.0547  0.0470  0.5063
  142MOL0     C18651   4.783   3.332   5.085 -0.7594  0.1048 -0.0611
  142MOL0     C18652   4.722   3.254   4.969 -0.0519  0.0316 -0.5860
  142MOL0     C18653   4.579   3.270   4.904 -0.0446  0.0074 -0.0770
  142MOL0     C18654   4.574   3.407   4.843 -0.4457 -0.9197  0.3855
  142MOL0     C18655   4.444   3.411   4.762  0.3090  0.4997 -0.3104
  142MOL0    Cl18656   4.466   3.348   4.597  0.2778  0.1540  0.0217
  142MOL0     C18657   5.366   3.381   5.424  0.6451  0.0145  0.3993
  142MOL0     C18658   5.488   3.406   5.482  0.2025  0.2388 -0.4294
  142MOL0     O18659   5.567   3.624   5.781 -0.2996 -0.0988 -0.6571
  142MOL0     C18660   5.802   3.714   5.875 -0.1794 -0.0255 -0.6292
  142MOL0     C18661   5.913   3.785   5.918 -0.2411 -0.7406  0.3705
  142MOL0     N18662   6.440   4.272   5.705  0.4519  0.5083  0.1790
  142MOL0     N18663   6.456   4.388   5.661  0.1226 -0.2534 -0.2118
  142MOL0     C18664   7.232   4.453   6.289 -0.2455 -0.3683 -0.0150
  142MOL0     C18665   7.242   4.514   6.417  0.3434 -0.0283 -0.4933
  142MOL0     C18666   7.160   4.893   6.678  0.7775 -0.7649 -0.2392
  142MOL0     C18667   7.229   4.861   6.795 -0.0381 -0.0423 -0.4391
  142MOL0     C18668   7.237   4.944   6.911 -0.1164 -0.6635  0.3028
  142MOL0     C18669   7.161   5.058   6.921  0.3367  0.0267  0.0352
  142MOL0     O18670   7.170   5.126   7.037  0.5330 -0.5606  0.1745
  142MOL0     C18671   7.104   5.254   7.052  0.2292 -0.1845 -0.4980
  142MOL0     C18672   7.170   5.381   6.996 -0.4316 -1.0837  0.8595
  142MOL0     C18673   7.291   5.433   7.077  0.5534 -0.1464  0.2136
  142MOL0     C18674   7.418   5.345   7.074 -0.1989  0.2873 -0.7976
  142MOL0     C18675   7.498   5.403   7.180 -0.1842 -1.2847  0.5615
  142MOL0     C18676   7.568   5.454   7.263  0.1505 -0.6046  0.1085
  142MOL0     C18677   7.069   5.085   6.817  0.4189 -0.0977  0.2829
  142MOL0     C18678   7.072   5.009   6.697 -0.7746  0.4671  0.8441
  142MOL0     H18679   7.344   4.814   6.313  0.5631  0.2789 -1.7160
  142MOL0     H18680   7.350   4.708   6.107 -0.0296 -1.2923 -0.7442
  142MOL0     H18681   7.410   4.446   5.917 -1.0339 -3.2591  0.2953
  142MOL0     H18682   7.326   4.589   5.926  0.5606 -0.1051  4.4063
  142MOL0     H18683   7.204   4.337   5.836 -1.0180  0.7240  1.8163
  142MOL0     H18684   7.239   4.476   5.731  2.2646 -1.0494 -0.3567
  142MOL0     H18685   7.101   4.618   5.902 -0.6682  0.1863  1.7039
  142MOL0     H18686   7.017   4.476   5.953  2.0989 -1.4340 -0.0763
  142MOL0     H18687   7.032   4.571   5.668 -0.0593  0.0964 -0.1817
  142MOL0     H18688   6.961   4.418   5.712  0.1081 -0.6632  0.9228
  142MOL0     H18689   6.874   4.692   5.800 -0.1633  0.4716 -3.6037
  142MOL0     H18690   6.797   4.533   5.855 -0.8727 -0.5777  0.6953
  142MOL0     H18691   6.745   4.479   5.618 -0.1514  0.7464 -1.4456
  142MOL0     H18692   6.823   4.623   5.552 -2.5521  0.2527 -1.0954
  142MOL0     H18693   6.666   4.767   5.655 -3.9354  0.9390  0.0449
  142MOL0     H18694   6.611   4.657   5.535 -2.5524  1.1628  0.9899
  142MOL0     H18695   6.456   4.672   5.712  2.3279  4.5972 -1.1459
  142MOL0     H18696   6.591   4.649   5.829 -0.6083  1.2657 -0.0134
  142MOL0     H18697   6.565   4.426   5.964  0.5445  0.4125 -0.3376
  142MOL0     H18698   6.479   4.197   6.035 -0.8940 -2.8673  1.4952
  142MOL0     H18699   6.550   4.087   5.921 -0.2229 -0.0714  0.5689
  142MOL0     H18700   6.316   4.038   5.802 -0.9433 -3.1399  1.0775
  142MOL0     H18701   6.248   4.145   5.914  0.0886 -0.2898  0.7522
  142MOL0     H18702   6.376   3.871   5.980  0.9635 -0.1575 -0.2397
  142MOL0     H18703   6.336   3.990   6.099 -1.3085  1.1958 -0.0262
  142MOL0     H18704   6.102   3.976   6.021  1.1695  1.1895  1.9971
  142MOL0     H18705   6.162   3.816   6.072  0.5119 -0.5643  0.3202
  142MOL0     H18706   6.103   3.737   5.644  0.5072  0.9421  1.0857
  142MOL0     H18707   5.882   3.643   5.558 -0.4303  0.2800 -0.0631
  142MOL0     H18708   5.446   3.743   5.535 -2.5064  1.5154 -0.6619
  142MOL0     H18709   5.231   3.692   5.456  2.7850  0.5709 -2.1780
  142MOL0     H18710   5.113   3.246   5.344  1.1715 -0.5572 -1.5699
  142MOL0     H18711   5.163   3.335   5.204  2.4581  2.2867  0.9575
  142MOL0     H18712   4.949   3.474   5.236  2.3588  0.7346  3.9574
  142MOL0     H18713   4.892   3.355   5.347 -2.7452  0.0699 -0.8911
  142MOL0     H18714   4.910   3.180   5.176  3.6819 -0.1580  0.5515
  142MOL0     H18715   4.980   3.298   5.059  2.7397 -0.4282  2.4052
  142MOL0     H18716   4.715   3.321   5.171 -0.4875  1.9610  0.4439
  142MOL0     H18717   4.800   3.439   5.070 -1.0151  0.2284  0.4808
  142MOL0     H18718   4.711   3.150   5.001 -2.4033 -0.0080 -1.3620
  142MOL0     H18719   4.795   3.252   4.888 -0.0928 -2.2376 -0.6358
  142MOL0     H18720   4.498   3.259   4.976 -1.0482  0.0118 -1.1837
  142MOL0     H18721   4.574   3.186   4.834 -1.5094 -0.5105  0.6215
  142MOL0     H18722   4.575   3.481   4.924 -1.1989  1.0441 -1.3206
  142MOL0     H18723   4.657   3.425   4.774  0.7960  1.6925  2.3648
  142MOL0     H18724   4.408   3.513   4.747  0.8890  0.3943 -2.8330
  142MOL0     H18725   4.371   3.347   4.814  0.8285  1.0958  1.2246
  142MOL0     H18726   5.330   3.284   5.392 -0.2388  0.6748 -0.6693
  142MOL0     H18727   5.555   3.321   5.488 -3.1795 -2.7491 -1.2811
  142MOL0     H18728   5.724   3.706   5.950  0.2119 -2.1278 -0.3976
  142MOL0     H18729   5.899   3.826   6.017 -0.6102  1.0020 -0.3543
  142MOL0     H18730   7.205   4.348   6.289 -0.6520 -0.2646  0.1341
  142MOL0     H18731   7.208   4.463   6.507 -2.0160 -0.9844 -1.8483
  142MOL0     H18732   7.293   4.774   6.803 -0.1125  0.0704  2.1321
  142MOL0     H18733   7.298   4.908   6.994 -0.6882 -1.3026  0.4569
  142MOL0     H18734   7.097   5.257   7.162 -3.9745  1.0587 -0.6083
  142MOL0     H18735   7.003   5.244   7.012  0.3824  0.4969 -1.0594
  142MOL0     H18736   7.206   5.355   6.896 -1.0316 -0.8420  0.5807
  142MOL0     H18737   7.093   5.456   6.974 -0.4765 -1.4074 -0.1440
  142MOL0     H18738   7.253   5.451   7.178  0.2444 -0.4866  0.1608
  142MOL0     H18739   7.321   5.533   7.045  0.5001 -0.3850 -0.6111
  142MOL0     H18740   7.380   5.244   7.094 -1.8078  1.0909  0.5385
  142MOL0     H18741   7.476   5.351   6.982 -2.1260 -1.4864 -2.2421
  142MOL0     H18742   7.636   5.502   7.331  0.2987  1.0639 -1.1534
  142MOL0     H18743   7.003   5.170   6.822  0.7567  0.2392 -0.7687
  142MOL0     H18744   6.985   5.014   6.633 -0.4198  1.0385  0.3988
  143MOL0     O18745  10.476   4.076   9.791  0.6323 -0.6115 -0.0070
  143MOL0     C18746  10.459   4.202   9.783  0.1807  0.2161  0.2214
  143MOL0     O18747  10.352   4.274   9.809  0.3833  0.5061 -0.3843
  143MOL0     C18748  10.240   4.205   9.840 -0.3417 -0.0186  0.5232
  143MOL0     C18749  10.114   4.245   9.782 -0.7901  0.4813  0.4680
  143MOL0     C18750   9.991   4.180   9.813 -0.3205 -0.4547 -0.6270
  143MOL0     C18751   9.995   4.074   9.908 -0.0145  0.6792  0.5668
  143MOL0     O18752   9.865   4.021   9.923  0.1012 -0.4583 -0.2322
  143MOL0     C18753   9.847   3.935  10.036  0.3485  0.3137 -0.3738
  143MOL0     C18754   9.701   3.894  10.057 -0.5472 -0.2396 -0.0777
  143MOL0     C18755   9.607   3.892   9.934 -0.3313  0.5058 -0.3111
  143MOL0     C18756   9.466   3.865   9.985  0.1085  0.4560 -0.0457
  143MOL0     C18757   9.375   3.856   9.862 -0.5407  1.7406 -0.0194
  143MOL0     C18758   9.227   3.828   9.912  0.4847 -0.0657  0.1544
  143MOL0     C18759   9.131   3.776   9.803 -0.0403 -0.1458  0.2868
  143MOL0     C18760   9.129   3.864   9.680  0.0519 -0.6009 -0.0026
  143MOL0     N18761   9.009   3.849   9.590 -0.3968 -0.5958 -0.1008
  143MOL0     C18762   8.951   3.738   9.550 -0.6788  0.0909 -0.2582
  143MOL0     C18763   8.851   3.774   9.466  0.6962 -0.1078  0.0209
  143MOL0     C18764   8.775   3.666   9.393 -0.3188  0.8254 -0.8163
  143MOL0     C18765   8.644   3.709   9.342 -0.2703  0.1434  0.4438
  143MOL0     C18766   8.649   3.788   9.213 -0.1374 -0.8634 -0.5920
  143MOL0     C18767   8.511   3.833   9.167  0.0506 -0.1989 -0.0017
  143MOL0     O18768   8.433   3.716   9.159  0.7881  0.4456 -0.2642
  143MOL0     C18769   8.315   3.718   9.083 -0.6215 -0.3923 -0.2859
  143MOL0     C18770   8.274   3.829   9.006  0.0450  0.9872  0.1173
  143MOL0     C18771   8.149   3.832   8.951 -0.3408 -0.4672  0.1023
  143MOL0     C18772   8.071   3.713   8.941 -0.2905 -0.7858  0.1182
  143MOL0     C18773   7.941   3.715   8.867 -0.7707  0.8541  0.5522
  143MOL0     O18774   7.881   3.596   8.864 -0.0833 -0.1164 -0.3813
  143MOL0     C18775   7.767   3.584   8.789 -0.7051 -0.2339  0.1486
  143MOL0     C18776   7.758   3.468   8.713  0.3281 -0.2878 -0.1446
  143MOL0     C18777   7.654   3.447   8.619 -0.1597  0.3030 -0.6416
  143MOL0     C18778   7.550   3.539   8.614  0.1667 -0.0404 -0.0813
  143MOL0     O18779   7.439   3.521   8.528  0.9590 -0.3650 -0.1163
  143MOL0     C18780   7.473   3.530   8.388 -0.3048  0.5739  0.3990
  143MOL0     C18781   7.471   3.675   8.334  0.0318 -0.9695 -0.3926
  143MOL0     C18782   7.474   3.693   8.180 -0.3659  0.5702 -0.4772
  143MOL0     C18783   7.364   3.610   8.109 -0.0958 -0.3762 -0.1375
  143MOL0     C18784   7.286   3.685   7.998  0.3105 -0.6023  0.4588
  143MOL0     C18785   7.195   3.587   7.931 -0.5950 -0.6379  0.0283
  143MOL0     C18786   7.118   3.666   7.820 -0.5819 -0.1567 -0.0941
  143MOL0     C18787   6.992   3.605   7.770  0.3798  0.3958  0.9818
  143MOL0    Cl18788   6.986   3.640   7.592 -0.3294 -0.5004 -0.0004
  143MOL0     C18789   7.558   3.646   8.694  0.5629 -0.3134 -0.7035
  143MOL0     C18790   7.657   3.678   8.782 -0.2362 -0.3450 -0.0002
  143MOL0     O18791   7.903   3.814   8.815  0.6401  0.0966 -0.4174
  143MOL0     C18792   8.112   3.597   9.010  0.7626  0.3461 -0.2391
  143MOL0     C18793   8.238   3.600   9.078 -0.0113 -0.5320  0.2553
  143MOL0     N18794   8.861   3.911   9.448 -0.0973 -0.1628 -0.8040
  143MOL0     N18795   8.968   3.949   9.509 -0.5717 -0.9591  0.6949
  143MOL0     C18796  10.118   4.043   9.976  0.4226  0.3104 -0.0226
  143MOL0     C18797  10.232   4.105   9.938 -0.8229 -0.3992  0.2025
  143MOL0     C18798  10.579   4.280   9.745  0.0780 -0.4255 -0.7867
  143MOL0     C18799  10.562   4.423   9.717  0.8066  0.7570  0.4440
  143MOL0     C18800  10.679   4.489   9.669  0.4027 -0.4435 -0.1918
  143MOL0     C18801  10.804   4.418   9.667 -0.0955  0.1212 -0.0713
  143MOL0     O18802  10.910   4.497   9.621 -0.2329  0.0273 -0.2305
  143MOL0     C18803  11.049   4.453   9.608  0.6671 -0.2039  0.2878
  143MOL0     C18804  11.133   4.578   9.582 -1.0033  1.2625 -0.1354
  143MOL0     C18805  11.283   4.534   9.582  0.4569  0.2309  0.7436
  143MOL0     C18806  11.373   4.642   9.644  0.4289  0.5271  0.1283
  143MOL0     C18807  11.507   4.599   9.605  0.8402 -0.2922 -0.1606
  143MOL0     C18808  11.618   4.576   9.566 -0.1486  0.6995 -1.0025
  143MOL0     C18809  10.821   4.286   9.711  0.4303 -0.1037 -0.8396
  143MOL0     C18810  10.703   4.219   9.753 -0.4945  0.1292  0.3459
  143MOL0     H18811  10.113   4.326   9.710  0.5342  0.3644  0.2767
  143MOL0     H18812   9.897   4.216   9.774 -1.3090 -1.8914  0.3162
  143MOL0     H18813   9.893   3.978  10.125 -2.8715  0.7010  1.2312
  143MOL0     H18814   9.905   3.843  10.021  1.0167  0.7474 -0.4704
  143MOL0     H18815   9.653   3.954  10.134 -2.1898 -0.2130 -1.0648
  143MOL0     H18816   9.709   3.796  10.106  0.0304 -1.6007 -2.6587
  143MOL0     H18817   9.637   3.807   9.871  1.6678 -1.8909  3.5209
  143MOL0     H18818   9.615   3.991   9.888  0.1024 -0.2558 -1.9444
  143MOL0     H18819   9.464   3.767  10.033  1.7884  1.4734  2.3297
  143MOL0     H18820   9.424   3.934  10.058 -1.3833  0.7125 -1.0982
  143MOL0     H18821   9.399   3.771   9.797  0.3168  0.2469  2.1035
  143MOL0     H18822   9.366   3.952   9.812  1.0513  1.5746 -0.7032
  143MOL0     H18823   9.187   3.925   9.945  0.5575  1.0956 -2.8307
  143MOL0     H18824   9.238   3.762   9.998 -1.5797  0.0686  0.5713
  143MOL0     H18825   9.158   3.673   9.778  1.9818 -0.0775  1.9275
  143MOL0     H18826   9.030   3.759   9.842  0.4556 -1.3497  1.1273
  143MOL0     H18827   9.217   3.849   9.617 -1.1768 -0.8054 -1.7424
  143MOL0     H18828   9.124   3.969   9.710 -0.2829 -0.1945 -1.3858
  143MOL0     H18829   8.960   3.636   9.588 -1.5121  0.3116  0.5521
  143MOL0     H18830   8.758   3.588   9.468 -1.3778  1.4005 -0.4341
  143MOL0     H18831   8.851   3.625   9.325  1.9076 -1.7882  2.9063
  143MOL0     H18832   8.594   3.767   9.420  0.3499  0.0983  0.8882
  143MOL0     H18833   8.587   3.621   9.312  1.0191  0.2703 -2.7793
  143MOL0     H18834   8.720   3.871   9.225  2.2828 -3.1623  3.2423
  143MOL0     H18835   8.682   3.718   9.136  1.9640  1.2856 -1.8161
  143MOL0     H18836   8.514   3.896   9.077 -4.5773  0.4153  0.0250
  143MOL0     H18837   8.464   3.897   9.242  0.7754 -1.2975  1.4419
  143MOL0     H18838   8.334   3.919   9.002  0.7809  0.7481  3.0786
  143MOL0     H18839   8.109   3.924   8.910  0.9058  0.3801  0.7491
  143MOL0     H18840   7.842   3.400   8.722  0.5932  0.0628  0.0482
  143MOL0     H18841   7.664   3.355   8.562  0.1475 -1.2676  1.7910
  143MOL0     H18842   7.394   3.466   8.348 -0.7263  0.6702  1.0562
  143MOL0     H18843   7.578   3.507   8.372  1.2756  3.2014  5.0184
  143MOL0     H18844   7.554   3.731   8.377 -0.5671  1.8425 -2.6030
  143MOL0     H18845   7.382   3.723   8.376  1.0089  0.9829 -0.4437
  143MOL0     H18846   7.573   3.659   8.151  0.6702 -0.2790  3.4468
  143MOL0     H18847   7.450   3.799   8.163 -3.7643  0.1131  0.5807
  143MOL0     H18848   7.423   3.544   8.046 -0.4492 -0.0239 -0.8565
  143MOL0     H18849   7.288   3.569   8.176 -0.9435  1.5149  0.1437
  143MOL0     H18850   7.351   3.740   7.930  0.3277  2.4135  2.6947
  143MOL0     H18851   7.223   3.764   8.041 -1.2671 -1.6776  0.2146
  143MOL0     H18852   7.126   3.555   8.009 -1.0416  0.3191  0.0361
  143MOL0     H18853   7.243   3.501   7.882 -0.2232 -0.5374  0.2100
  143MOL0     H18854   7.098   3.769   7.848 -1.0428 -0.6675  1.5637
  143MOL0     H18855   7.181   3.661   7.731 -0.4330 -0.6883  0.0387
  143MOL0     H18856   6.895   3.629   7.816  0.1256  1.2091  0.0557
  143MOL0     H18857   6.995   3.496   7.778 -0.8767  0.1031 -1.4578
  143MOL0     H18858   7.472   3.711   8.684 -0.3450 -1.4965 -0.8367
  143MOL0     H18859   7.639   3.758   8.853  0.8060 -3.1522  3.7781
  143MOL0     H18860   8.060   3.502   9.010 -0.6839  1.1040  0.5808
  143MOL0     H18861   8.281   3.514   9.129  1.3854 -1.3328 -2.1193
  143MOL0     H18862  10.120   3.960  10.046  0.7345 -0.5650 -1.0403
  143MOL0     H18863  10.320   4.074   9.994  1.3499 -0.6398 -3.0541
  143MOL0     H18864  10.469   4.474   9.737  1.3846  1.3719  1.7184
  143MOL0     H18865  10.675   4.592   9.637 -0.5581 -0.7523 -1.1126
  143MOL0     H18866  11.060   4.380   9.527  3.0529 -1.1059  1.3152
  143MOL0     H18867  11.072   4.405   9.704  0.1966 -1.9363 -0.4178
  143MOL0     H18868  11.116   4.616   9.481 -0.6889 -2.9255 -1.9994
  143MOL0     H18869  11.114   4.657   9.655 -1.6039  2.4437 -1.5270
  143MOL0     H18870  11.314   4.502   9.482 -0.4405  0.8493  0.2476
  143MOL0     H18871  11.301   4.447   9.646  3.3295  0.8611  0.9351
  143MOL0     H18872  11.354   4.741   9.602  3.2688  1.2046  0.2798
  143MOL0     H18873  11.362   4.642   9.753 -0.8819  0.4544  0.0140
  143MOL0     H18874  11.718   4.551   9.540  0.7353 -1.5046  3.4482
  143MOL0     H18875  10.916   4.236   9.717  0.1790 -0.4463  0.5697
  143MOL0     H18876  10.708   4.113   9.777 -0.4672 -1.1541 -4.3932
  144MOL0     O18877   3.183   9.844   9.341 -0.3398  0.1600 -0.0839
  144MOL0     C18878   3.274   9.775   9.383 -0.2524 -0.5971 -0.0739
  144MOL0     O18879   3.261   9.679   9.469 -0.3923 -0.2904  0.0930
  144MOL0     C18880   3.147   9.659   9.544 -0.0279 -0.0386  0.4783
  144MOL0     C18881   3.158   9.561   9.651  0.1705 -0.4915 -0.2137
  144MOL0     C18882   3.058   9.532   9.745 -0.0908 -0.6471  0.1104
  144MOL0     C18883   2.932   9.588   9.740 -0.0049  0.5685 -0.2831
  144MOL0     O18884   2.836   9.558   9.836  0.5232 -0.2352 -0.2427
  144MOL0     C18885   2.698   9.600   9.820  0.0871 -0.7736  0.5444
  144MOL0     C18886   2.608   9.543   9.925 -0.4598 -0.0922  0.3315
  144MOL0     C18887   2.473   9.623   9.938  0.3524  0.4850  0.8062
  144MOL0     C18888   2.367   9.601  10.037  0.2450  0.3113  0.1803
  144MOL0     C18889   2.423   9.578  10.180  0.4087 -0.4954  0.4164
  144MOL0     C18890   2.312   9.596  10.290  0.2998  0.3874  0.2429
  144MOL0     C18891   2.211   9.473  10.274  0.2244 -0.8082 -0.3509
  144MOL0     C18892   2.090   9.491  10.190 -0.0473  0.4286  0.4045
  144MOL0     N18893   2.022   9.623  10.207 -0.0883 -0.7491  1.0398
  144MOL0     C18894   1.985   9.664  10.332  0.4044  0.3107  1.1307
  144MOL0     C18895   1.933   9.786  10.299  0.2440  0.1478 -0.1513
  144MOL0     C18896   1.855   9.873  10.386  0.3690 -1.0898  0.2307
  144MOL0     C18897   1.949   9.940  10.494  0.7988 -0.9211  0.4414
  144MOL0     C18898   2.075  10.017  10.431  0.0841  0.3251 -0.1249
  144MOL0     C18899   2.167  10.087  10.524 -0.4330 -0.1906 -0.4628
  144MOL0     O18900   2.278  10.147  10.447  0.2173  0.4717  0.0245
  144MOL0     C18901   2.388  10.077  10.432 -0.2288  0.8511  0.7898
  144MOL0     C18902   2.483  10.142  10.356 -0.4109 -0.1735 -0.1937
  144MOL0     C18903   2.605  10.084  10.331  0.3165 -0.7973 -0.0864
  144MOL0     C18904   2.637   9.963  10.380 -0.5189  0.5966 -0.4419
  144MOL0     C18905   2.763   9.889  10.354 -0.7932  0.1073 -0.0307
  144MOL0     O18906   2.853   9.948  10.265  0.6132 -0.0846  0.9570
  144MOL0     C18907   2.956   9.876  10.220  1.0610  0.2840  0.2614
  144MOL0     C18908   2.935   9.750  10.169  0.4461  0.3357  1.0645
  144MOL0     C18909   3.035   9.683  10.102 -0.0229  0.1641  0.4877
  144MOL0     C18910   3.159   9.745  10.077  0.5458 -0.1061 -0.1166
  144MOL0     O18911   3.266   9.692  10.014  0.2771 -0.1525  0.6563
  144MOL0     C18912   3.325   9.746   9.890  0.4989 -0.3582  0.4293
  144MOL0     C18913   3.445   9.849   9.907  0.8783  0.1218 -0.3295
  144MOL0     C18914   3.555   9.776   9.990  0.0601  0.0847 -0.0902
  144MOL0     C18915   3.617   9.893  10.072  0.8668 -0.0393  0.1853
  144MOL0     C18916   3.694   9.994  10.004  1.0557  0.6965 -0.2718
  144MOL0     C18917   3.757  10.088  10.106  0.2318  0.2217  0.6373
  144MOL0     C18918   3.852  10.187  10.032  0.7499 -0.1679  0.4707
  144MOL0     C18919   3.978  10.115   9.973 -0.2423  0.0490  0.3490
  144MOL0    Cl18920   4.053   9.983  10.091 -0.0098 -0.6135  0.4900
  144MOL0     C18921   3.176   9.871  10.133  0.2500 -0.6035  1.3402
  144MOL0     C18922   3.070   9.941  10.194  0.2247 -0.1125  0.3158
  144MOL0     O18923   2.780   9.782  10.408  0.1274  0.1682  0.0201
  144MOL0     C18924   2.535   9.892  10.457  0.3360  0.5864 -0.7600
  144MOL0     C18925   2.407   9.946  10.480  0.0312 -1.5753  0.1612
  144MOL0     N18926   1.947   9.816  10.168  0.4807  0.1732  0.2818
  144MOL0     N18927   2.008   9.716  10.114  0.6701  0.2040  0.3266
  144MOL0     C18928   2.915   9.677   9.632 -1.2555  0.2222  0.4549
  144MOL0     C18929   3.021   9.719   9.538  0.2586 -0.2093  0.4238
  144MOL0     C18930   3.415   9.801   9.333  0.2315 -0.4785 -1.2119
  144MOL0     C18931   3.457   9.737   9.220  0.4398  0.3979 -0.8326
  144MOL0     C18932   3.585   9.754   9.179  0.7036  0.1634 -0.5940
  144MOL0     C18933   3.674   9.834   9.250 -0.1671 -0.6106 -0.1314
  144MOL0     O18934   3.798   9.853   9.193 -0.0251  0.2038 -1.0517
  144MOL0     C18935   3.848   9.988   9.210  0.3267  0.5372 -0.3180
  144MOL0     C18936   3.954  10.008   9.099 -0.2506 -0.0955 -0.1902
  144MOL0     C18937   3.971  10.160   9.078  1.0046 -1.1102  0.0012
  144MOL0     C18938   4.094  10.191   8.984  0.0098  0.3789 -0.2657
  144MOL0     C18939   4.120  10.332   8.984  0.7016 -0.2469  0.5172
  144MOL0     C18940   4.156  10.452   8.976  0.4766  0.3661  0.8431
  144MOL0     C18941   3.632   9.893   9.371  0.0573  0.7539  0.3667
  144MOL0     C18942   3.507   9.865   9.418  0.6461 -0.2516  0.1873
  144MOL0     H18943   3.261   9.534   9.671  0.5191  1.6475  1.2833
  144MOL0     H18944   3.091   9.482   9.835  2.6075 -0.5296 -0.7285
  144MOL0     H18945   2.666   9.573   9.719  1.8225  1.7531 -0.8127
  144MOL0     H18946   2.681   9.708   9.830 -3.2666 -1.3817  3.7526
  144MOL0     H18947   2.670   9.542  10.016  0.8600 -0.4166 -0.5407
  144MOL0     H18948   2.592   9.440   9.893 -1.7107  0.4937 -0.9970
  144MOL0     H18949   2.425   9.611   9.841 -0.9370 -0.7872  1.5517
  144MOL0     H18950   2.496   9.730   9.941 -1.7086  1.0565 -1.2794
  144MOL0     H18951   2.296   9.684  10.038  0.1306  0.2552 -1.2522
  144MOL0     H18952   2.311   9.512  10.005 -0.3551 -1.2838  4.9101
  144MOL0     H18953   2.485   9.667  10.197 -2.4256  2.1729 -2.0434
  144MOL0     H18954   2.488   9.491  10.191 -0.1019 -0.7814  1.2822
  144MOL0     H18955   2.255   9.688  10.275 -0.8353 -0.1567  1.0097
  144MOL0     H18956   2.351   9.594  10.392 -1.4993 -2.9771  1.0058
  144MOL0     H18957   2.275   9.388  10.248  2.0444  0.3360  0.1617
  144MOL0     H18958   2.180   9.442  10.374  0.1852 -0.9391 -0.4030
  144MOL0     H18959   2.031   9.399  10.203  1.8045 -0.7516  0.8826
  144MOL0     H18960   2.116   9.479  10.084  0.5603  1.7440  0.3948
  144MOL0     H18961   1.975   9.619  10.430 -1.7534  1.5791  1.5559
  144MOL0     H18962   1.776   9.811  10.430  0.5941 -0.4134  1.6661
  144MOL0     H18963   1.795   9.948  10.333 -2.6294 -1.5552  2.6616
  144MOL0     H18964   1.992   9.868  10.564  0.9667 -2.0078 -0.7409
  144MOL0     H18965   1.891  10.007  10.558  0.6202 -0.2111 -0.4389
  144MOL0     H18966   2.126   9.938  10.374  0.8178  0.7428 -0.0637
  144MOL0     H18967   2.035  10.094  10.365 -4.7847 -1.9061 -0.1966
  144MOL0     H18968   2.200  10.026  10.608  1.5524 -0.1161 -1.1261
  144MOL0     H18969   2.114  10.178  10.556  0.0266  1.0015 -2.8354
  144MOL0     H18970   2.458  10.244  10.332 -0.5202 -0.4145 -1.1378
  144MOL0     H18971   2.685  10.142  10.285 -0.5339  0.4742  0.0017
  144MOL0     H18972   2.843   9.694  10.175 -0.1041  0.8263 -1.5918
  144MOL0     H18973   3.013   9.586  10.059  1.2081 -0.8126  1.9311
  144MOL0     H18974   3.247   9.771   9.818 -1.0548 -3.6325  0.7941
  144MOL0     H18975   3.369   9.661   9.838  2.4122  0.1458  1.1522
  144MOL0     H18976   3.406   9.941   9.949 -2.0724 -0.1435 -2.1909
  144MOL0     H18977   3.483   9.874   9.807  2.4190  1.0615  0.4691
  144MOL0     H18978   3.630   9.726   9.929 -1.0475 -1.2615 -0.3948
  144MOL0     H18979   3.512   9.703  10.060 -4.5201 -0.4032 -2.9814
  144MOL0     H18980   3.541   9.941  10.135  1.5496  0.4036  0.6837
  144MOL0     H18981   3.692   9.854  10.141 -0.7347  1.2646  2.7886
  144MOL0     H18982   3.622  10.040   9.936 -1.0682 -1.1625  0.5779
  144MOL0     H18983   3.777   9.947   9.951  0.7065  1.3136 -1.3972
  144MOL0     H18984   3.817  10.030  10.176  0.6563  0.7684  0.7296
  144MOL0     H18985   3.675  10.129  10.166 -3.0251 -0.9459 -2.5839
  144MOL0     H18986   3.803  10.233   9.946  1.2293  1.7541  1.1843
  144MOL0     H18987   3.886  10.265  10.100  0.7084  2.2375 -2.0765
  144MOL0     H18988   4.057  10.191   9.968 -0.1257  0.1561  2.7519
  144MOL0     H18989   3.954  10.068   9.877  4.0925  0.6938 -1.2738
  144MOL0     H18990   3.275   9.917  10.128  1.5907 -3.2558  1.6160
  144MOL0     H18991   3.083  10.044  10.226  2.5882  0.2369 -1.4203
  144MOL0     H18992   2.553   9.799  10.509 -3.4803  0.0215 -0.1866
  144MOL0     H18993   2.331   9.888  10.530 -0.3733 -1.0123  0.2161
  144MOL0     H18994   2.821   9.729   9.611 -1.7794  0.0366  2.1812
  144MOL0     H18995   2.988   9.802   9.476 -3.0077 -0.4047  1.7354
  144MOL0     H18996   3.385   9.675   9.168 -1.2467 -1.0233  2.8426
  144MOL0     H18997   3.618   9.685   9.101 -1.6354 -0.7564 -0.8477
  144MOL0     H18998   3.882   9.999   9.314 -0.4363  3.8850 -0.3058
  144MOL0     H18999   3.762  10.055   9.205  1.0961  1.6960  0.9501
  144MOL0     H19000   4.048   9.963   9.134 -0.6189 -1.7154 -1.1750
  144MOL0     H19001   3.919   9.959   9.008 -2.5253 -1.8045  1.4618
  144MOL0     H19002   3.973  10.218   9.171 -2.6278 -1.1118  0.2372
  144MOL0     H19003   3.886  10.194   9.018  1.0548  1.5618  1.2537
  144MOL0     H19004   4.185  10.142   9.020  0.2463  1.2964  0.4277
  144MOL0     H19005   4.076  10.156   8.882 -0.5631  0.8170 -0.3219
  144MOL0     H19006   4.175  10.557   8.969 -0.2063  0.5953  2.0663
  144MOL0     H19007   3.708   9.944   9.429  1.9249 -1.9102  0.3903
  144MOL0     H19008   3.473   9.887   9.518  1.2991  0.4506  0.2619
  145MOL0     O19009   0.387   2.583   3.832 -0.1216  0.2475 -0.3450
  145MOL0     C19010   0.397   2.561   3.709 -0.5527 -0.1963  0.4604
  145MOL0     O19011   0.305   2.581   3.616  0.2865  0.0921 -0.0062
  145MOL0     C19012   0.184   2.631   3.637 -0.6982 -0.2071 -0.6056
  145MOL0     C19013   0.071   2.541   3.631 -0.4885 -0.1083  0.3398
  145MOL0     C19014  -0.058   2.596   3.664 -0.4151  0.6452  0.4990
  145MOL0     C19015  -0.077   2.728   3.710  0.1790  0.3649 -0.9306
  145MOL0     O19016  -0.205   2.763   3.759  0.0240  0.0614  0.6221
  145MOL0     C19017  -0.236   2.729   3.894  0.6386  0.0669  0.2089
  145MOL0     C19018  -0.304   2.591   3.912  0.2162  0.4938  0.4558
  145MOL0     C19019  -0.438   2.574   3.844 -0.3025  0.1487  0.1349
  145MOL0     C19020  -0.493   2.437   3.862  0.3339  0.6820  0.5296
  145MOL0     C19021  -0.639   2.418   3.808  0.1851  0.3374 -0.0495
  145MOL0     C19022  -0.740   2.501   3.882  0.4465 -0.2650  0.1356
  145MOL0     C19023  -0.886   2.476   3.814  0.6026 -0.6582  0.2198
  145MOL0     C19024  -0.920   2.579   3.702 -0.2225  0.6853 -0.1559
  145MOL0     N19025  -1.068   2.588   3.684 -0.1811  0.0660 -0.2540
  145MOL0     C19026  -1.147   2.500   3.622  0.0435  0.3583  0.2255
  145MOL0     C19027  -1.269   2.553   3.615 -0.5443  0.1285  0.0549
  145MOL0     C19028  -1.385   2.479   3.557 -0.3183 -1.0755  0.2096
  145MOL0     C19029  -1.514   2.514   3.624  1.6224  0.3035  0.5672
  145MOL0     C19030  -1.621   2.454   3.527 -0.3374  0.5818 -0.1958
  145MOL0     C19031  -1.760   2.472   3.582 -0.1442 -0.5470  0.0884
  145MOL0     O19032  -1.801   2.381   3.674  0.3714  0.1532  0.2268
  145MOL0     C19033  -1.934   2.385   3.712 -0.0019  0.5571  1.1398
  145MOL0     C19034  -2.025   2.493   3.682 -0.9365  0.1934 -0.0970
  145MOL0     C19035  -2.152   2.482   3.733  0.6087  0.5169  0.1614
  145MOL0     C19036  -2.191   2.376   3.817  0.9952  1.3654 -0.1503
  145MOL0     C19037  -2.321   2.357   3.893 -0.8963  0.2522  0.7665
  145MOL0     O19038  -2.403   2.471   3.883  0.1796 -0.3551 -0.4766
  145MOL0     C19039  -2.521   2.483   3.944  0.3958  0.3291  0.3102
  145MOL0     C19040  -2.636   2.512   3.871  0.8241 -0.1920 -0.1493
  145MOL0     C19041  -2.761   2.536   3.942 -0.1859  0.8033 -0.2359
  145MOL0     C19042  -2.752   2.531   4.085 -0.6947 -0.5568  0.1725
  145MOL0     O19043  -2.867   2.565   4.154  0.5477 -0.4482 -0.2313
  145MOL0     C19044  -2.852   2.611   4.293 -0.5428 -0.3095  0.8009
  145MOL0     C19045  -2.992   2.661   4.331 -0.4535  0.0352 -0.4714
  145MOL0     C19046  -2.994   2.729   4.466  0.0447  0.2276 -0.7658
  145MOL0     C19047  -3.135   2.799   4.508 -0.9373  0.0041  0.3061
  145MOL0     C19048  -3.239   2.704   4.557 -0.0256  0.0827 -0.0387
  145MOL0     C19049  -3.374   2.778   4.549  0.7487  0.9562  0.4195
  145MOL0     C19050  -3.489   2.698   4.614 -0.3703 -0.2523  0.2961
  145MOL0     C19051  -3.626   2.698   4.542 -0.3624  0.0418  0.2100
  145MOL0    Cl19052  -3.685   2.858   4.505 -0.1755 -0.5704 -0.3373
  145MOL0     C19053  -2.631   2.501   4.149 -0.1687 -0.9152  0.2616
  145MOL0     C19054  -2.518   2.485   4.083 -0.9022 -0.8516  1.0120
  145MOL0     O19055  -2.347   2.256   3.969 -0.1000 -0.7066  0.1498
  145MOL0     C19056  -2.095   2.274   3.847 -0.3629  0.1410  0.1201
  145MOL0     C19057  -1.969   2.275   3.790  0.1965 -1.0990 -0.4033
  145MOL0     N19058  -1.261   2.682   3.676  0.2321 -0.2478  0.3279
  145MOL0     N19059  -1.136   2.703   3.703 -0.6288  0.8863 -0.2173
  145MOL0     C19060   0.034   2.810   3.730  1.1544 -0.5903 -0.0004
  145MOL0     C19061   0.159   2.760   3.696 -0.1221 -1.0187  0.6600
  145MOL0     C19062   0.536   2.527   3.654  0.0784 -0.5289 -0.4348
  145MOL0     C19063   0.645   2.498   3.734  1.0055 -0.0557 -0.0646
  145MOL0     C19064   0.764   2.467   3.684  0.2378  0.0248  0.0211
  145MOL0     C19065   0.797   2.479   3.541  0.5991  0.4129 -1.3526
  145MOL0     O19066   0.924   2.472   3.487  0.4263 -0.5359  0.7229
  145MOL0     C19067   0.999   2.359   3.528 -0.2062  0.2259 -0.4327
  145MOL0     C19068   1.090   2.305   3.411 -0.4178 -0.1926  0.3866
  145MOL0     C19069   1.202   2.395   3.381  0.1014 -0.2725  0.1279
  145MOL0     C19070   1.298   2.330   3.283  0.1448  0.3038 -0.2510
  145MOL0     C19071   1.417   2.413   3.261  0.2979  0.1048  1.4613
  145MOL0     C19072   1.513   2.477   3.264 -0.9910  0.1103 -0.2640
  145MOL0     C19073   0.693   2.521   3.462  0.2249 -0.0970 -0.3528
  145MOL0     C19074   0.565   2.545   3.516 -0.8379 -0.4471  0.6395
  145MOL0     H19075   0.084   2.436   3.608  0.5474  0.6292 -2.9717
  145MOL0     H19076  -0.142   2.527   3.670  1.2701 -1.5658  0.2480
  145MOL0     H19077  -0.299   2.808   3.935 -1.2437 -1.6946  0.9240
  145MOL0     H19078  -0.145   2.732   3.955  1.8391  0.8841 -1.5289
  145MOL0     H19079  -0.320   2.579   4.019  2.0054  2.4551  1.0145
  145MOL0     H19080  -0.233   2.516   3.877  0.2840  0.7294  0.0790
  145MOL0     H19081  -0.417   2.590   3.738  0.0762  2.2237  0.4817
  145MOL0     H19082  -0.498   2.657   3.882 -2.1098 -2.1574  2.6761
  145MOL0     H19083  -0.435   2.363   3.806 -0.5765  2.1460 -2.5840
  145MOL0     H19084  -0.485   2.407   3.966  2.8811 -1.2462 -0.1058
  145MOL0     H19085  -0.667   2.313   3.818  0.7113  0.1603 -0.4010
  145MOL0     H19086  -0.633   2.443   3.701  1.3770 -1.3846 -0.4276
  145MOL0     H19087  -0.706   2.605   3.875 -0.2826  0.2426  3.0492
  145MOL0     H19088  -0.738   2.476   3.988 -1.8755  1.7034  0.7303
  145MOL0     H19089  -0.880   2.376   3.769  0.7706 -0.5871  0.0831
  145MOL0     H19090  -0.969   2.477   3.885  0.8229 -1.7105  0.5126
  145MOL0     H19091  -0.886   2.543   3.604 -3.1497 -2.0487 -0.3190
  145MOL0     H19092  -0.868   2.674   3.716  5.0059 -1.6303 -1.1171
  145MOL0     H19093  -1.131   2.397   3.593 -1.0616  0.6207 -1.4184
  145MOL0     H19094  -1.380   2.370   3.555 -1.1948 -1.1243  0.3965
  145MOL0     H19095  -1.386   2.506   3.451 -1.2653 -1.1362  0.1920
  145MOL0     H19096  -1.532   2.622   3.634 -1.0533 -0.3139  4.1246
  145MOL0     H19097  -1.526   2.474   3.725 -1.5785  2.2143  1.0671
  145MOL0     H19098  -1.612   2.505   3.431 -2.6037  1.4594  0.0142
  145MOL0     H19099  -1.601   2.346   3.519  0.9826  0.7929 -0.0530
  145MOL0     H19100  -1.832   2.467   3.500 -0.5577  1.1036  0.3166
  145MOL0     H19101  -1.773   2.572   3.623  1.6808  0.7336 -2.1926
  145MOL0     H19102  -1.996   2.572   3.613 -1.6994  1.4180  0.9206
  145MOL0     H19103  -2.227   2.559   3.716 -0.0408 -0.0591  0.3631
  145MOL0     H19104  -2.638   2.502   3.763  0.6280  1.7148 -0.3470
  145MOL0     H19105  -2.845   2.569   3.882  2.4551  1.9753 -3.6176
  145MOL0     H19106  -2.777   2.692   4.298  2.3840 -2.8259  0.6742
  145MOL0     H19107  -2.809   2.531   4.354  0.2766  0.1603  0.8592
  145MOL0     H19108  -3.066   2.580   4.334 -0.0834 -0.2893  0.9989
  145MOL0     H19109  -3.026   2.738   4.261  0.1873  0.3942 -0.3906
  145MOL0     H19110  -2.912   2.801   4.462  0.7207 -0.5055 -0.5008
  145MOL0     H19111  -2.966   2.668   4.552 -0.2824  0.1693 -0.6981
  145MOL0     H19112  -3.121   2.870   4.590  0.5484 -0.1386  0.2164
  145MOL0     H19113  -3.167   2.856   4.421  2.1442  0.2733 -0.7774
  145MOL0     H19114  -3.214   2.669   4.658  0.2837 -0.2694 -0.2356
  145MOL0     H19115  -3.250   2.616   4.493 -0.5115  2.1295 -2.9655
  145MOL0     H19116  -3.399   2.803   4.445  2.4805  3.3018  0.4914
  145MOL0     H19117  -3.359   2.874   4.600  0.1773  0.0138  2.4409
  145MOL0     H19118  -3.455   2.595   4.625 -0.0767  0.1170  4.2437
  145MOL0     H19119  -3.494   2.726   4.719  0.3717 -0.9040  0.5168
  145MOL0     H19120  -3.683   2.659   4.626  1.3527  2.3208  2.6301
  145MOL0     H19121  -3.629   2.635   4.453  0.7900 -1.0293  0.9039
  145MOL0     H19122  -2.623   2.494   4.257 -2.1432  4.3615  1.0914
  145MOL0     H19123  -2.425   2.463   4.133 -0.4312 -0.1022  0.4887
  145MOL0     H19124  -2.103   2.179   3.899  2.4098 -1.5226 -2.2186
  145MOL0     H19125  -1.900   2.193   3.802 -0.2950 -1.6416 -1.1882
  145MOL0     H19126   0.023   2.903   3.785 -2.3144 -1.5182  1.1003
  145MOL0     H19127   0.250   2.818   3.705 -0.2222 -1.0766  2.2555
  145MOL0     H19128   0.627   2.520   3.839 -0.8598  1.9657 -0.7520
  145MOL0     H19129   0.847   2.444   3.750 -0.5239 -1.5773  0.4744
  145MOL0     H19130   0.944   2.272   3.565 -0.5842  0.4769 -0.3884
  145MOL0     H19131   1.055   2.395   3.615 -0.9354  3.2060 -1.0795
  145MOL0     H19132   1.132   2.205   3.426  0.9529  0.3939  0.6406
  145MOL0     H19133   1.026   2.298   3.323 -0.9514 -0.5073  0.7958
  145MOL0     H19134   1.249   2.440   3.469 -0.5732 -0.6786  0.7012
  145MOL0     H19135   1.168   2.488   3.335 -0.3030  0.2608  1.4428
  145MOL0     H19136   1.338   2.235   3.319  2.3438  1.2508 -0.0594
  145MOL0     H19137   1.249   2.310   3.187  1.8041 -2.5994 -0.5943
  145MOL0     H19138   1.600   2.536   3.286 -2.0903  1.4124  0.8022
  145MOL0     H19139   0.714   2.550   3.360  3.2391  1.6536  0.6585
  145MOL0     H19140   0.486   2.574   3.447  0.5969  4.2571  0.5821
  146MOL0     O19141  10.049   0.456   4.636  0.5072  0.7043 -0.8373
  146MOL0     C19142   9.984   0.407   4.546  0.7087  0.0588 -0.3971
  146MOL0     O19143  10.048   0.357   4.432  0.5760 -0.6416 -0.1207
  146MOL0     C19144  10.181   0.380   4.404  0.1565 -0.5475  0.2193
  146MOL0     C19145  10.288   0.362   4.494 -0.0276 -0.5517 -0.0060
  146MOL0     C19146  10.423   0.387   4.461 -0.1472  0.2063 -0.7454
  146MOL0     C19147  10.448   0.416   4.329  0.5298 -0.5199 -1.2162
  146MOL0     O19148  10.572   0.445   4.285  0.2107  0.3110  0.6019
  146MOL0     C19149  10.686   0.382   4.342  0.5958  0.6444 -0.2004
  146MOL0     C19150  10.786   0.346   4.222  0.4805 -0.0810  0.0312
  146MOL0     C19151  10.828   0.468   4.139  0.8293 -0.1708  0.5418
  146MOL0     C19152  10.934   0.409   4.039 -0.7712  0.1789 -0.0281
  146MOL0     C19153  11.044   0.504   3.982 -0.4839 -0.1865  1.0407
  146MOL0     C19154  11.137   0.557   4.083  0.8058 -0.3377 -0.1331
  146MOL0     C19155  11.271   0.603   4.035  0.0711  0.0661 -0.3582
  146MOL0     C19156  11.262   0.705   3.916  0.4179  0.4721  0.5808
  146MOL0     N19157  11.177   0.823   3.943 -1.0199 -0.1236 -0.0045
  146MOL0     C19158  11.211   0.926   4.036  0.1063  0.3211  0.4343
  146MOL0     C19159  11.118   1.025   4.010 -0.0190 -0.5608  0.5420
  146MOL0     C19160  11.102   1.145   4.101 -0.2031 -0.3205 -0.4295
  146MOL0     C19161  10.960   1.161   4.149  0.1697  0.1921  0.6429
  146MOL0     C19162  10.874   1.245   4.043  0.3426  0.0461  0.0072
  146MOL0     C19163  10.738   1.263   4.097  0.0716 -0.1305 -0.2522
  146MOL0     O19164  10.650   1.304   3.995  0.0400  0.4645 -0.2430
  146MOL0     C19165  10.511   1.304   4.020 -0.4589  0.4560  0.8831
  146MOL0     C19166  10.454   1.269   4.141  0.5187  0.0811  0.6194
  146MOL0     C19167  10.319   1.293   4.167 -0.3042  0.1024  0.9925
  146MOL0     C19168  10.232   1.359   4.076  0.0452  0.7494  0.3399
  146MOL0     C19169  10.082   1.391   4.096 -0.5340  0.3313 -0.2623
  146MOL0     O19170   9.998   1.407   3.991  0.0855  0.3105  0.2618
  146MOL0     C19171   9.863   1.412   4.002 -0.4002 -0.3385  0.3634
  146MOL0     C19172   9.798   1.333   3.909  0.0824  0.1421 -0.1136
  146MOL0     C19173   9.662   1.339   3.899 -0.0598  0.0918 -0.0857
  146MOL0     C19174   9.584   1.410   3.980 -0.7872 -0.4224  0.1469
  146MOL0     O19175   9.446   1.418   3.983  0.3116 -0.9762  0.4216
  146MOL0     C19176   9.359   1.316   3.917  0.0206  1.3139 -0.1106
  146MOL0     C19177   9.232   1.402   3.904  0.4005 -0.1857  0.8861
  146MOL0     C19178   9.123   1.325   3.819 -0.3859 -0.2709 -0.0013
  146MOL0     C19179   9.005   1.419   3.772 -0.4673  0.5289 -0.2375
  146MOL0     C19180   8.888   1.338   3.704  0.3606  0.7140  0.3638
  146MOL0     C19181   8.788   1.448   3.649  0.7210  1.1700  1.0062
  146MOL0     C19182   8.675   1.387   3.557  0.1805 -0.7939  0.7021
  146MOL0     C19183   8.638   1.252   3.588  0.5091 -0.3767 -1.2475
  146MOL0    Cl19184   8.485   1.226   3.505  0.2644  0.3180  0.4572
  146MOL0     C19185   9.645   1.489   4.077 -0.3129  0.8298 -0.4902
  146MOL0     C19186   9.786   1.492   4.089 -0.6422  0.6506  0.0550
  146MOL0     O19187  10.043   1.383   4.217 -0.2657  0.3985 -0.2128
  146MOL0     C19188  10.289   1.389   3.951  0.1182  0.8854  0.2950
  146MOL0     C19189  10.423   1.365   3.926 -0.1502 -0.0551  0.2495
  146MOL0     N19190  11.036   0.969   3.910  0.7030  0.1090 -0.1285
  146MOL0     N19191  11.074   0.859   3.861 -0.2119  0.2048  0.2405
  146MOL0     C19192  10.342   0.430   4.237  0.4855  0.0561 -0.2211
  146MOL0     C19193  10.212   0.415   4.272 -0.0547  0.5998 -0.0556
  146MOL0     C19194   9.836   0.404   4.555 -0.7735 -0.8739 -0.2311
  146MOL0     C19195   9.783   0.403   4.680  1.3389  0.0160  0.3041
  146MOL0     C19196   9.643   0.404   4.694 -0.3359  0.5637 -1.3124
  146MOL0     C19197   9.562   0.400   4.591 -0.9322 -0.3381  0.6929
  146MOL0     O19198   9.423   0.394   4.590 -0.3220  0.1415  0.4553
  146MOL0     C19199   9.361   0.401   4.716  0.6329  1.5641 -0.5202
  146MOL0     C19200   9.217   0.444   4.679  0.5652 -0.2605  0.4962
  146MOL0     C19201   9.135   0.341   4.606 -0.1673  0.0687  0.1653
  146MOL0     C19202   8.980   0.365   4.586  0.3703 -1.0911 -0.0831
  146MOL0     C19203   8.928   0.384   4.721 -0.3849 -0.2411  0.1665
  146MOL0     C19204   8.888   0.379   4.831 -0.0625  0.3404 -0.5609
  146MOL0     C19205   9.624   0.401   4.466 -0.2438 -0.1416  0.3988
  146MOL0     C19206   9.757   0.407   4.439  0.4365 -0.6853 -0.8060
  146MOL0     H19207  10.252   0.334   4.592 -2.1488  1.5314 -0.1065
  146MOL0     H19208  10.497   0.391   4.540 -0.2730  0.8376 -0.6493
  146MOL0     H19209  10.660   0.290   4.395  2.2891 -0.9326 -1.9812
  146MOL0     H19210  10.732   0.458   4.406  1.5432 -0.0887  0.0023
  146MOL0     H19211  10.742   0.265   4.163 -1.7255  1.4976 -0.6387
  146MOL0     H19212  10.871   0.307   4.279  1.7755 -1.6934 -2.8328
  146MOL0     H19213  10.877   0.538   4.208 -1.5792  2.6781 -0.4081
  146MOL0     H19214  10.752   0.522   4.083  3.2782  2.7344 -0.2778
  146MOL0     H19215  10.990   0.323   4.077 -2.1140 -0.5673  0.3361
  146MOL0     H19216  10.876   0.372   3.954  1.1843  2.1920 -2.3944
  146MOL0     H19217  11.003   0.586   3.923 -1.3116  0.7241  2.7825
  146MOL0     H19218  11.106   0.445   3.914  1.3861  1.4960  1.1763
  146MOL0     H19219  11.153   0.482   4.161 -0.3745 -2.1529 -1.5650
  146MOL0     H19220  11.073   0.635   4.126 -2.9563 -4.4347  2.5913
  146MOL0     H19221  11.335   0.659   4.104  0.3981 -2.1618  1.2743
  146MOL0     H19222  11.324   0.513   4.004 -2.7479 -1.4323 -1.2359
  146MOL0     H19223  11.226   0.652   3.828 -0.2605 -0.3968  1.3698
  146MOL0     H19224  11.362   0.738   3.886 -0.1474 -1.2044 -3.7708
  146MOL0     H19225  11.297   0.929   4.102 -1.7074 -2.3175  3.2044
  146MOL0     H19226  11.135   1.230   4.041  2.1253 -0.7117  0.2074
  146MOL0     H19227  11.174   1.141   4.183  1.7775  1.3055 -1.9764
  146MOL0     H19228  10.964   1.213   4.245  0.6504 -0.6790  1.1112
  146MOL0     H19229  10.919   1.061   4.166 -3.2496  0.9847 -1.8555
  146MOL0     H19230  10.911   1.347   4.030 -4.1865  2.0016  0.5256
  146MOL0     H19231  10.866   1.196   3.946 -2.9689 -0.0130  0.1771
  146MOL0     H19232  10.729   1.342   4.171 -0.3558  0.1263 -0.5709
  146MOL0     H19233  10.714   1.164   4.138  2.2162 -0.3142  0.7245
  146MOL0     H19234  10.507   1.228   4.227  0.4866 -0.2777  0.4713
  146MOL0     H19235  10.285   1.271   4.268  2.5623  2.0472  2.5307
  146MOL0     H19236   9.858   1.282   3.834  0.7546 -0.8019  1.0314
  146MOL0     H19237   9.619   1.273   3.824  0.0438  0.0781 -0.1332
  146MOL0     H19238   9.334   1.229   3.979 -0.9293  1.0249 -0.8702
  146MOL0     H19239   9.391   1.298   3.814  1.7633  2.0557  0.2751
  146MOL0     H19240   9.259   1.493   3.850 -1.9402 -0.4459 -0.8624
  146MOL0     H19241   9.196   1.429   4.004  2.1789  0.0875  1.4779
  146MOL0     H19242   9.081   1.241   3.875 -0.0771 -0.6870 -0.3817
  146MOL0     H19243   9.166   1.279   3.729  0.4087  0.7054 -0.1385
  146MOL0     H19244   8.962   1.474   3.855 -3.0112 -1.5575 -0.0319
  146MOL0     H19245   9.059   1.493   3.713  0.8570  0.4252  0.7930
  146MOL0     H19246   8.840   1.268   3.774 -0.0497  0.3853 -0.2454
  146MOL0     H19247   8.922   1.290   3.612 -1.4058  0.7962 -0.3559
  146MOL0     H19248   8.853   1.524   3.604  1.4902  0.8010  1.4615
  146MOL0     H19249   8.738   1.500   3.730  0.4346 -2.0486  3.0539
  146MOL0     H19250   8.590   1.456   3.560  2.2984  2.1952 -1.5465
  146MOL0     H19251   8.708   1.390   3.453  2.1278 -0.5932  1.2687
  146MOL0     H19252   8.617   1.223   3.691  0.2057  0.6735 -1.0108
  146MOL0     H19253   8.721   1.190   3.552  0.6568  0.0227 -1.6068
  146MOL0     H19254   9.584   1.548   4.145 -2.1593 -0.0263 -1.3260
  146MOL0     H19255   9.851   1.546   4.157 -0.0775 -2.2736  2.0226
  146MOL0     H19256  10.223   1.423   3.871 -0.1341 -2.1730 -0.9576
  146MOL0     H19257  10.457   1.395   3.828 -2.7014  0.9052 -0.4202
  146MOL0     H19258  10.375   0.453   4.136 -0.0701  1.2277 -0.1484
  146MOL0     H19259  10.131   0.421   4.200 -0.2775  2.8805  0.3210
  146MOL0     H19260   9.849   0.412   4.766 -2.8038  2.0741  3.6444
  146MOL0     H19261   9.599   0.403   4.793 -3.1095 -0.4373 -2.4246
  146MOL0     H19262   9.408   0.474   4.783 -1.7503  2.1671  0.6269
  146MOL0     H19263   9.366   0.305   4.770  0.0513 -1.2621 -4.9998
  146MOL0     H19264   9.159   0.467   4.770 -1.9434  0.6225 -1.2001
  146MOL0     H19265   9.215   0.536   4.620  0.7814  0.0292  0.9331
  146MOL0     H19266   9.153   0.246   4.658  1.1425  0.4184  0.3870
  146MOL0     H19267   9.173   0.345   4.504 -3.8770  3.2052 -1.3099
  146MOL0     H19268   8.956   0.454   4.527 -2.7801 -0.2211  2.2739
  146MOL0     H19269   8.935   0.280   4.533 -0.9424  0.1278 -1.0015
  146MOL0     H19270   8.870   0.374   4.936  2.8448  3.4171  0.2477
  146MOL0     H19271   9.556   0.392   4.382 -1.0449  1.0951  0.8772
  146MOL0     H19272   9.797   0.406   4.339 -1.8658  0.9594 -1.8240
  147MOL0     O19273   4.329  11.078   2.967 -0.1564  0.4166  0.0257
  147MOL0     C19274   4.368  10.988   2.893 -0.4786  0.1409  0.4022
  147MOL0     O19275   4.290  10.914   2.801  0.3724 -0.1357  0.0804
  147MOL0     C19276   4.161  10.949   2.793  1.2395  0.0544  0.3057
  147MOL0     C19277   4.068  10.913   2.889 -0.6805 -1.1396 -0.1231
  147MOL0     C19278   3.934  10.942   2.877 -0.2283  0.2626 -0.2881
  147MOL0     C19279   3.884  11.015   2.772 -1.0332  0.6932  0.9033
  147MOL0     O19280   3.750  11.049   2.748  0.6331  0.5773  0.4228
  147MOL0     C19281   3.649  10.989   2.833 -0.1225  0.5645 -0.0619
  147MOL0     C19282   3.507  11.027   2.788 -0.2011 -0.3685  0.5827
  147MOL0     C19283   3.469  10.940   2.670 -0.7465 -0.7797 -0.6399
  147MOL0     C19284   3.337  10.983   2.630 -0.2050  0.2657  0.3449
  147MOL0     C19285   3.286  10.918   2.493 -0.5332  0.0599 -0.3903
  147MOL0     C19286   3.137  10.970   2.473  0.6636  0.3054  0.2368
  147MOL0     C19287   3.064  10.918   2.346  0.4171  0.6161  0.1967
  147MOL0     C19288   3.078  10.772   2.319  0.1551 -0.7619  0.0630
  147MOL0     N19289   3.038  10.692   2.435  0.1603 -0.2969  0.4396
  147MOL0     C19290   2.905  10.674   2.473  0.4303 -0.7720  0.4521
  147MOL0     C19291   2.911  10.575   2.570 -1.0860 -0.3150  0.3174
  147MOL0     C19292   2.793  10.502   2.636  0.2311 -0.0784 -0.4449
  147MOL0     C19293   2.716  10.596   2.731 -0.0801  0.3222 -0.0245
  147MOL0     C19294   2.627  10.688   2.647  0.5039  0.8063  0.4886
  147MOL0     C19295   2.513  10.748   2.718  0.2652  0.7080 -0.3126
  147MOL0     O19296   2.408  10.651   2.739  0.3581 -0.3293  0.0287
  147MOL0     C19297   2.299  10.667   2.826 -0.0864  0.2443 -0.0872
  147MOL0     C19298   2.271  10.784   2.897 -0.7252 -0.6807  0.3156
  147MOL0     C19299   2.166  10.790   2.980  0.4357 -0.7802 -0.2411
  147MOL0     C19300   2.072  10.683   2.993  0.1025  0.2853 -0.1900
  147MOL0     C19301   1.948  10.694   3.068 -0.4625  0.4811  0.3246
  147MOL0     O19302   1.931  10.821   3.120  0.7332 -0.6211 -0.2553
  147MOL0     C19303   1.814  10.853   3.177 -0.2239  0.2127  0.6698
  147MOL0     C19304   1.728  10.775   3.250 -0.0957 -0.2019  0.1263
  147MOL0     C19305   1.607  10.812   3.294 -0.2409  0.0787 -0.7932
  147MOL0     C19306   1.558  10.940   3.267 -0.0114  0.0948  0.5047
  147MOL0     O19307   1.440  10.984   3.316  0.4208  0.0536 -0.0424
  147MOL0     C19308   1.406  11.126   3.308  0.5946 -0.4681  0.1046
  147MOL0     C19309   1.283  11.150   3.394 -0.3222 -0.6773  0.2207
  147MOL0     C19310   1.290  11.269   3.473  0.2569 -0.6774 -0.3261
  147MOL0     C19311   1.307  11.395   3.381  0.5709  0.1806 -0.2859
  147MOL0     C19312   1.288  11.521   3.455  0.2349 -0.8172 -0.3580
  147MOL0     C19313   1.423  11.591   3.510 -1.2666 -0.1744 -0.1615
  147MOL0     C19314   1.498  11.656   3.395  0.6678 -0.2218  0.2810
  147MOL0     C19315   1.616  11.733   3.448 -0.9056 -1.1089  0.0411
  147MOL0    Cl19316   1.746  11.617   3.458  0.2011  0.0297 -0.1903
  147MOL0     C19317   1.643  11.030   3.192  0.4121  1.0982 -0.8183
  147MOL0     C19318   1.765  10.983   3.146 -0.2984 -0.1116  0.1278
  147MOL0     O19319   1.876  10.595   3.088 -0.1756  0.4431  0.3110
  147MOL0     C19320   2.093  10.566   2.917 -0.1479  0.9557 -0.3533
  147MOL0     C19321   2.213  10.557   2.842  0.2808 -0.2220  0.3125
  147MOL0     N19322   3.043  10.536   2.584 -1.1820 -0.6365 -0.1582
  147MOL0     N19323   3.119  10.593   2.495  0.1520 -0.7765  0.1578
  147MOL0     C19324   3.976  11.050   2.669  0.1047 -0.1082  0.5214
  147MOL0     C19325   4.113  11.015   2.683  0.0387  0.1786  0.2481
  147MOL0     C19326   4.512  10.956   2.870  0.3370 -0.1865  0.5289
  147MOL0     C19327   4.616  10.984   2.966  0.2033 -0.3861  0.5351
  147MOL0     C19328   4.742  10.941   2.955  0.0540 -0.1472 -0.0169
  147MOL0     C19329   4.779  10.866   2.840 -1.0308  0.0989  0.6176
  147MOL0     O19330   4.910  10.820   2.838  0.3530  0.0323 -0.4383
  147MOL0     C19331   4.958  10.773   2.713  0.7604 -0.7117  0.6350
  147MOL0     C19332   5.103  10.739   2.733  0.2096 -0.8370 -0.2555
  147MOL0     C19333   5.195  10.866   2.700  0.7872 -1.2386 -0.7365
  147MOL0     C19334   5.337  10.877   2.767 -0.7460 -0.8672 -0.1886
  147MOL0     C19335   5.429  10.965   2.693  0.4892  1.2636  0.6005
  147MOL0     C19336   5.515  11.025   2.633  0.6370  1.3376  0.8371
  147MOL0     C19337   4.683  10.846   2.740  0.6807  0.7218  0.2569
  147MOL0     C19338   4.547  10.876   2.757 -0.6324 -0.3225  0.4768
  147MOL0     H19339   4.104  10.855   2.974  0.9964  0.4210  0.2907
  147MOL0     H19340   3.879  10.902   2.961 -0.7042  1.0113 -0.2337
  147MOL0     H19341   3.663  11.017   2.938 -0.8619 -0.3487  0.2988
  147MOL0     H19342   3.653  10.880   2.828  0.5375  0.5768  0.1506
  147MOL0     H19343   3.514  11.131   2.757  0.4117 -0.6355 -0.2312
  147MOL0     H19344   3.429  11.005   2.862  0.1121 -1.2216  0.6703
  147MOL0     H19345   3.462  10.837   2.704 -0.1216  0.3659  3.4002
  147MOL0     H19346   3.538  10.951   2.585  1.9924  0.7965  1.6151
  147MOL0     H19347   3.270  10.938   2.703 -0.8094  0.6779  0.0461
  147MOL0     H19348   3.339  11.090   2.607 -1.1594 -0.0267 -1.2759
  147MOL0     H19349   3.291  10.808   2.493 -3.4103 -0.3855  4.8687
  147MOL0     H19350   3.337  10.953   2.403  0.2638 -0.8672 -0.3135
  147MOL0     H19351   3.135  11.078   2.485  1.2209  0.1744  1.6705
  147MOL0     H19352   3.081  10.930   2.558 -0.6344  1.7122  0.0774
  147MOL0     H19353   2.957  10.940   2.355 -0.2568 -1.9422 -0.7070
  147MOL0     H19354   3.099  10.970   2.256 -0.8930  1.7558  0.3147
  147MOL0     H19355   3.182  10.746   2.295 -0.1151 -1.3658 -0.5013
  147MOL0     H19356   3.011  10.740   2.239  0.6064 -4.4511  1.0035
  147MOL0     H19357   2.827  10.730   2.424  2.6523  4.1579  1.8895
  147MOL0     H19358   2.824  10.418   2.699  0.9092 -1.0701 -2.0517
  147MOL0     H19359   2.726  10.462   2.560 -1.6114  1.7004  0.1498
  147MOL0     H19360   2.778  10.659   2.794 -3.8234  3.0904  1.2590
  147MOL0     H19361   2.652  10.538   2.798  3.3989 -2.8109  0.8971
  147MOL0     H19362   2.688  10.767   2.603  0.6667  0.7842  0.6783
  147MOL0     H19363   2.580  10.632   2.565  1.1879  0.6116  0.2258
  147MOL0     H19364   2.472  10.826   2.654 -1.9185  1.0877  1.4107
  147MOL0     H19365   2.536  10.795   2.814 -0.9778  0.4965  0.1089
  147MOL0     H19366   2.343  10.864   2.887  0.6191 -1.7393  1.0862
  147MOL0     H19367   2.157  10.882   3.037 -1.0300 -1.3475  0.5190
  147MOL0     H19368   1.765  10.676   3.275  0.6429 -0.1478 -0.6890
  147MOL0     H19369   1.543  10.740   3.344 -1.6234  0.8537 -1.3585
  147MOL0     H19370   1.387  11.159   3.205 -0.6716  4.8645  1.7621
  147MOL0     H19371   1.486  11.193   3.340  0.9191 -0.0159 -1.5493
  147MOL0     H19372   1.271  11.070   3.467 -0.6584  1.3317  2.5065
  147MOL0     H19373   1.201  11.157   3.322 -0.4302  1.5537  0.4789
  147MOL0     H19374   1.375  11.257   3.541 -1.2924 -0.6329  1.7111
  147MOL0     H19375   1.201  11.287   3.533  1.6950  3.4958  0.9159
  147MOL0     H19376   1.402  11.392   3.327  0.4810  0.6667 -0.4699
  147MOL0     H19377   1.227  11.386   3.307 -1.9785  1.4378  2.0955
  147MOL0     H19378   1.220  11.502   3.538  0.9069 -1.8663 -0.0262
  147MOL0     H19379   1.237  11.596   3.394 -1.1331  1.6131  3.4213
  147MOL0     H19380   1.498  11.524   3.553  2.9914  1.7498 -3.7614
  147MOL0     H19381   1.396  11.668   3.582 -1.7926 -1.6373  1.2842
  147MOL0     H19382   1.543  11.587   3.323  0.9188 -0.6973  0.8862
  147MOL0     H19383   1.439  11.727   3.337 -0.3407 -2.2463 -1.2732
  147MOL0     H19384   1.601  11.787   3.542  1.7313  0.7538 -0.4978
  147MOL0     H19385   1.650  11.797   3.366  1.5330 -1.2310  0.8798
  147MOL0     H19386   1.623  11.135   3.171 -0.3261  0.7812 -1.7989
  147MOL0     H19387   1.827  11.049   3.086 -2.7464 -0.2282 -2.7359
  147MOL0     H19388   2.033  10.475   2.921  3.3967 -1.5990  1.7931
  147MOL0     H19389   2.228  10.461   2.793  1.2297 -1.0079  2.0702
  147MOL0     H19390   3.947  11.112   2.585  0.6561 -0.5000  0.0291
  147MOL0     H19391   4.184  11.040   2.605  3.2836 -1.3208  2.4929
  147MOL0     H19392   4.585  11.042   3.053  0.2431  0.8942 -0.2805
  147MOL0     H19393   4.809  10.958   3.038 -0.9206  2.7634  0.2769
  147MOL0     H19394   4.935  10.852   2.641  1.9278 -0.6200  0.3490
  147MOL0     H19395   4.904  10.684   2.679  4.2034 -2.5419 -0.5130
  147MOL0     H19396   5.117  10.717   2.839  2.7601  0.4336 -0.2484
  147MOL0     H19397   5.142  10.658   2.670  0.2725 -0.5598 -0.5826
  147MOL0     H19398   5.133  10.952   2.728 -2.3656 -3.2640 -0.9406
  147MOL0     H19399   5.203  10.877   2.592  0.3911 -1.2899 -0.7725
  147MOL0     H19400   5.335  10.893   2.875 -1.8855 -1.7847 -0.0581
  147MOL0     H19401   5.386  10.780   2.751 -0.0738 -0.1720 -2.7717
  147MOL0     H19402   5.582  11.078   2.566 -0.0846 -0.4610 -1.4486
  147MOL0     H19403   4.708  10.791   2.650 -0.1961  2.4985 -1.1215
  147MOL0     H19404   4.486  10.840   2.675 -0.0694 -0.5259  0.1456
  148MOL0     O19405   1.743   7.155  10.827  0.1811 -0.2050  0.7783
  148MOL0     C19406   1.710   7.221  10.920  0.8950 -0.3310 -0.0072
  148MOL0     O19407   1.580   7.236  10.966 -0.2267  0.1764 -0.5771
  148MOL0     C19408   1.473   7.160  10.944  0.5168  0.2094  0.1559
  148MOL0     C19409   1.348   7.221  10.964 -0.5843  0.5226  0.0787
  148MOL0     C19410   1.228   7.156  10.936 -0.0087 -0.0146 -0.4540
  148MOL0     C19411   1.230   7.019  10.894 -0.5911  0.0465  0.0568
  148MOL0     O19412   1.104   6.963  10.886  0.0946  0.3956 -0.0076
  148MOL0     C19413   1.094   6.822  10.869  0.1535 -0.4002 -0.2163
  148MOL0     C19414   0.950   6.791  10.880  0.5887 -0.1895 -0.2157
  148MOL0     C19415   0.922   6.639  10.860  0.2058 -0.0206 -0.4179
  148MOL0     C19416   0.760   6.611  10.866 -0.3364  0.4050 -0.2620
  148MOL0     C19417   0.739   6.459  10.838  0.2462 -0.4356 -0.1146
  148MOL0     C19418   0.591   6.417  10.834  0.1926 -0.0905  0.4943
  148MOL0     C19419   0.523   6.415  10.973  0.6822  0.0003 -0.4882
  148MOL0     C19420   0.532   6.273  11.033 -0.3259 -0.2799 -1.1616
  148MOL0     N19421   0.484   6.249  11.176 -0.6275  0.9004  0.2687
  148MOL0     C19422   0.498   6.330  11.283 -0.3151  0.8317  0.1668
  148MOL0     C19423   0.410   6.295  11.371  0.6067  0.5133  0.7627
  148MOL0     C19424   0.376   6.353  11.504 -0.0323 -0.1056 -0.0447
  148MOL0     C19425   0.244   6.308  11.567 -0.7288  0.4651  0.3333
  148MOL0     C19426   0.117   6.370  11.503 -0.8518 -0.4311  0.0663
  148MOL0     C19427  -0.009   6.333  11.576  0.1319 -0.5788 -0.1451
  148MOL0     O19428  -0.108   6.376  11.476 -0.3465  0.5221 -0.2365
  148MOL0     C19429  -0.238   6.392  11.515  0.0643 -0.3663 -0.8096
  148MOL0     C19430  -0.329   6.454  11.436  0.0831 -0.2613 -1.0638
  148MOL0     C19431  -0.463   6.468  11.463 -0.4624  0.1256 -0.2180
  148MOL0     C19432  -0.518   6.400  11.580 -0.0436 -0.7920  0.2887
  148MOL0     C19433  -0.666   6.407  11.617 -0.1324  0.3250  0.3505
  148MOL0     O19434  -0.711   6.330  11.717 -0.5250  0.5270 -0.1524
  148MOL0     C19435  -0.842   6.326  11.745  0.4329 -0.3769  0.3468
  148MOL0     C19436  -0.913   6.208  11.743 -0.2823 -0.6998 -1.3114
  148MOL0     C19437  -1.042   6.202  11.803  0.2202  0.9472 -0.5499
  148MOL0     C19438  -1.106   6.316  11.860  0.5366  0.1688  0.8786
  148MOL0     O19439  -1.232   6.322  11.914 -0.1573  0.8115  0.7759
  148MOL0     C19440  -1.278   6.199  11.980  0.2287 -0.3234 -0.1522
  148MOL0     C19441  -1.428   6.231  12.010  0.3157 -0.8902  0.5698
  148MOL0     C19442  -1.492   6.139  12.114 -1.0240  1.0876  0.4325
  148MOL0     C19443  -1.643   6.136  12.131 -0.2402 -0.7770 -0.7392
  148MOL0     C19444  -1.700   6.038  12.235  0.3538 -0.1262 -0.8195
  148MOL0     C19445  -1.668   6.083  12.378  0.4628  0.5402 -0.7087
  148MOL0     C19446  -1.760   6.005  12.480 -0.3805 -0.4731 -0.4916
  148MOL0     C19447  -1.784   6.079  12.603  0.5339 -0.1446 -0.6052
  148MOL0    Cl19448  -1.901   6.211  12.550  0.1911 -0.2240  0.7211
  148MOL0     C19449  -1.039   6.432  11.839 -0.8059  0.7174 -0.0529
  148MOL0     C19450  -0.907   6.444  11.790 -0.1528  0.7944 -0.1904
  148MOL0     O19451  -0.734   6.480  11.546  0.7431 -0.2436  0.1813
  148MOL0     C19452  -0.428   6.334  11.663  0.6541 -0.4102  0.0866
  148MOL0     C19453  -0.294   6.330  11.629 -0.3034 -0.6418 -0.2837
  148MOL0     N19454   0.336   6.192  11.314 -0.4632 -0.2565 -0.3500
  148MOL0     N19455   0.384   6.160  11.204  0.0839  0.5219 -1.2534
  148MOL0     C19456   1.354   6.954  10.877 -0.3226  0.4005  0.0818
  148MOL0     C19457   1.476   7.028  10.893  0.0242  0.2312 -0.5478
  148MOL0     C19458   1.816   7.297  10.987 -0.4836 -0.1623 -0.6434
  148MOL0     C19459   1.788   7.394  11.082  0.7758  1.2209 -0.3913
  148MOL0     C19460   1.892   7.463  11.158  0.2095  0.9701  0.0474
  148MOL0     C19461   2.026   7.439  11.123  0.3510  0.1617  0.2049
  148MOL0     O19462   2.123   7.507  11.190 -0.4318  0.1291  0.3425
  148MOL0     C19463   2.266   7.496  11.155  0.3367 -0.1246  0.0050
  148MOL0     C19464   2.335   7.611  11.232 -0.1384  0.1874  0.1909
  148MOL0     C19465   2.482   7.637  11.189  0.0746 -0.1142 -0.5713
  148MOL0     C19466   2.549   7.745  11.284 -0.5848  0.2926  0.3104
  148MOL0     C19467   2.496   7.877  11.273 -0.0043 -0.3149  0.4643
  148MOL0     C19468   2.455   7.987  11.261 -0.6361 -0.9292 -0.4460
  148MOL0     C19469   2.059   7.340  11.029  0.5766 -0.0523  0.4723
  148MOL0     C19470   1.952   7.263  10.967  0.4360 -0.6256 -0.3575
  148MOL0     H19471   1.341   7.324  10.997 -1.4454  1.0773 -1.6711
  148MOL0     H19472   1.128   7.197  10.941 -0.9414 -2.2785  0.7413
  148MOL0     H19473   1.149   6.758  10.938  1.0300  0.4049 -0.1473
  148MOL0     H19474   1.128   6.797  10.768 -2.1733 -1.4390 -0.8188
  148MOL0     H19475   0.891   6.845  10.806 -0.2839 -2.2712 -1.1086
  148MOL0     H19476   0.914   6.816  10.980  0.1028 -3.1147  0.4230
  148MOL0     H19477   0.987   6.583  10.927  1.9486  0.1724 -1.8580
  148MOL0     H19478   0.961   6.603  10.764  3.3727 -0.5802  0.9719
  148MOL0     H19479   0.725   6.643  10.965 -1.2179  1.0580 -0.7660
  148MOL0     H19480   0.701   6.661  10.789 -0.7574 -0.9255 -0.8363
  148MOL0     H19481   0.794   6.394  10.906  2.5978  1.1263 -0.4260
  148MOL0     H19482   0.781   6.426  10.742  1.4145 -0.6062  0.4356
  148MOL0     H19483   0.575   6.323  10.781 -4.1596 -0.4054  1.9564
  148MOL0     H19484   0.545   6.500  10.781  2.7962  0.5427 -0.9441
  148MOL0     H19485   0.561   6.488  11.044  1.6296 -2.3133  1.5257
  148MOL0     H19486   0.415   6.428  10.957  1.0260  0.0896 -3.4789
  148MOL0     H19487   0.634   6.233  11.032 -0.8616 -2.3083  2.7860
  148MOL0     H19488   0.476   6.206  10.968 -0.4825 -1.5201  0.1987
  148MOL0     H19489   0.564   6.416  11.280 -0.3069  0.8243  0.1346
  148MOL0     H19490   0.385   6.461  11.486  0.1612 -0.3390 -1.4606
  148MOL0     H19491   0.457   6.334  11.575 -1.6249  3.2261  2.9219
  148MOL0     H19492   0.237   6.322  11.676 -2.3160  1.7514  0.1000
  148MOL0     H19493   0.237   6.199  11.562 -0.1042  0.4779 -1.0744
  148MOL0     H19494   0.133   6.478  11.501  1.7199 -0.7464 -0.1023
  148MOL0     H19495   0.109   6.325  11.404 -1.0024 -1.0609  0.3627
  148MOL0     H19496  -0.023   6.376  11.676 -2.2933  0.0139 -0.6636
  148MOL0     H19497  -0.015   6.224  11.588  0.7707 -0.8633 -2.0711
  148MOL0     H19498  -0.288   6.499  11.346  1.9017  0.2750 -0.0069
  148MOL0     H19499  -0.515   6.543  11.405 -0.3428  1.5071  1.3845
  148MOL0     H19500  -0.869   6.115  11.707 -1.3232 -1.5601 -0.4407
  148MOL0     H19501  -1.089   6.104  11.800 -1.0216  1.4568  1.0126
  148MOL0     H19502  -1.221   6.174  12.070  1.4847  2.1210 -0.1683
  148MOL0     H19503  -1.278   6.114  11.911 -1.9341  0.4835 -1.2380
  148MOL0     H19504  -1.492   6.231  11.921  0.4136  2.3042  0.3779
  148MOL0     H19505  -1.435   6.333  12.050 -0.4065 -0.7437  0.0889
  148MOL0     H19506  -1.450   6.168  12.210  3.1752 -1.7512 -0.2418
  148MOL0     H19507  -1.463   6.035  12.092 -0.6249  1.0651  1.0478
  148MOL0     H19508  -1.667   6.238  12.161 -0.8993 -0.4952 -2.1255
  148MOL0     H19509  -1.696   6.109  12.039 -1.3616 -1.9535  0.2143
  148MOL0     H19510  -1.657   5.940  12.213 -1.6935 -0.5318 -3.6634
  148MOL0     H19511  -1.810   6.033  12.232  0.4396 -2.7121 -2.4482
  148MOL0     H19512  -1.684   6.191  12.388  0.7878  0.5913 -0.7419
  148MOL0     H19513  -1.562   6.059  12.393  0.3536  0.3416 -0.2198
  148MOL0     H19514  -1.855   5.982  12.432 -1.0544 -0.0479  0.5985
  148MOL0     H19515  -1.708   5.912  12.504 -1.4593 -0.7575  0.8497
  148MOL0     H19516  -1.692   6.125  12.638 -0.3345  1.4724 -0.3700
  148MOL0     H19517  -1.835   6.019  12.679 -0.7221  1.5681 -0.0451
  148MOL0     H19518  -1.078   6.525  11.879  0.9668  1.1332  0.8270
  148MOL0     H19519  -0.853   6.538  11.798  1.8317 -0.4145  1.1796
  148MOL0     H19520  -0.463   6.286  11.754 -0.3586 -0.5839 -0.3757
  148MOL0     H19521  -0.235   6.273  11.701 -0.0462  1.3273  1.1645
  148MOL0     H19522   1.365   6.853  10.837 -0.3569  0.5247 -0.2384
  148MOL0     H19523   1.570   6.975  10.881 -1.4989 -2.0418 -4.3664
  148MOL0     H19524   1.690   7.431  11.107  0.5888 -0.3553  1.4957
  148MOL0     H19525   1.860   7.533  11.234  2.1404  1.1966  0.7233
  148MOL0     H19526   2.276   7.513  11.047  0.9224 -2.2342 -0.3219
  148MOL0     H19527   2.311   7.400  11.183  1.5131  0.0730 -1.1053
  148MOL0     H19528   2.279   7.701  11.206  0.7485  0.1604 -2.0507
  148MOL0     H19529   2.344   7.591  11.340  0.2214 -0.4553  0.0520
  148MOL0     H19530   2.482   7.668  11.084 -3.2087 -0.1651 -0.6937
  148MOL0     H19531   2.541   7.545  11.198  0.5142  0.3014  1.0833
  148MOL0     H19532   2.541   7.712  11.388 -2.1256 -1.6061 -0.3399
  148MOL0     H19533   2.655   7.748  11.257 -1.2156 -1.1174 -2.7504
  148MOL0     H19534   2.419   8.084  11.235 -1.4661 -1.3132 -0.7307
  148MOL0     H19535   2.161   7.317  11.000  1.4303  1.6431  2.0034
  148MOL0     H19536   1.991   7.186  10.900  2.4253  1.8438 -2.2246
  149MOL0     O19537   0.053   4.943   8.639 -0.3315  0.8552  0.3976
  149MOL0     C19538   0.114   5.022   8.709  0.5339  0.6333  1.0116
  149MOL0     O19539   0.060   5.078   8.826 -0.2979 -0.7093 -0.0180
  149MOL0     C19540  -0.066   5.036   8.869  0.0360  0.4242  0.2657
  149MOL0     C19541  -0.180   5.117   8.868  0.0152 -1.0434  0.6851
  149MOL0     C19542  -0.303   5.068   8.902  0.9284  0.0379 -0.6048
  149MOL0     C19543  -0.313   4.940   8.954 -0.1296 -0.5830  0.2781
  149MOL0     O19544  -0.443   4.902   8.988  0.0849 -0.1592 -0.3654
  149MOL0     C19545  -0.484   4.760   8.986  0.2229 -0.2415  0.0971
  149MOL0     C19546  -0.631   4.768   8.970  0.4436 -0.2601 -0.0999
  149MOL0     C19547  -0.678   4.623   8.958  0.2512  0.8418  0.5807
  149MOL0     C19548  -0.824   4.613   8.941 -0.4882 -1.1190  0.2282
  149MOL0     C19549  -0.881   4.688   8.813  0.1151 -0.3814 -0.0678
  149MOL0     C19550  -0.815   4.663   8.674  0.8845  0.4693  0.7385
  149MOL0     C19551  -0.805   4.509   8.638  1.1310 -0.4436  0.4252
  149MOL0     C19552  -0.801   4.480   8.484 -0.2782 -0.4158  0.9001
  149MOL0     N19553  -0.734   4.354   8.445 -0.1743 -0.4828  0.1360
  149MOL0     C19554  -0.603   4.331   8.471  0.2389  1.1148  0.5507
  149MOL0     C19555  -0.588   4.199   8.435  0.2146  0.1717  0.1609
  149MOL0     C19556  -0.454   4.128   8.446 -0.2083 -0.0348 -0.3347
  149MOL0     C19557  -0.371   4.183   8.336 -0.7114 -0.8111  0.7080
  149MOL0     C19558  -0.252   4.094   8.301 -0.0117  0.1169 -0.3615
  149MOL0     C19559  -0.139   4.174   8.228  0.5931  0.5937 -0.0078
  149MOL0     O19560  -0.063   4.259   8.312 -0.0179  0.5041 -0.2452
  149MOL0     C19561   0.041   4.310   8.246  0.1755  0.5483  0.2211
  149MOL0     C19562   0.060   4.323   8.111 -0.1317 -0.4045 -0.7399
  149MOL0     C19563   0.179   4.373   8.062  0.0301  0.6079  0.5366
  149MOL0     C19564   0.288   4.410   8.142  0.5056 -0.3154 -0.1184
  149MOL0     C19565   0.404   4.444   8.070 -0.2087  0.3376  0.4328
  149MOL0     O19566   0.515   4.461   8.149 -0.4130 -0.8062 -0.2505
  149MOL0     C19567   0.642   4.489   8.099 -0.3838  0.5692 -0.3077
  149MOL0     C19568   0.699   4.423   7.985  0.3069  0.1474 -0.1497
  149MOL0     C19569   0.834   4.442   7.961  0.0774  0.0127  1.4449
  149MOL0     C19570   0.917   4.511   8.050  0.2245 -0.4862  0.6401
  149MOL0     O19571   1.047   4.519   8.022 -0.5773 -0.3156  0.4754
  149MOL0     C19572   1.113   4.453   7.911  0.3414 -0.8844  0.9836
  149MOL0     C19573   1.254   4.447   7.970  0.0789 -0.0406 -0.2201
  149MOL0     C19574   1.343   4.393   7.864 -0.1269  0.2941  0.0200
  149MOL0     C19575   1.480   4.364   7.918 -0.0010  0.5557  0.2265
  149MOL0     C19576   1.582   4.298   7.822  0.1436  0.1182 -0.1282
  149MOL0     C19577   1.728   4.307   7.865 -0.1516  0.0938  0.0630
  149MOL0     C19578   1.836   4.274   7.752 -0.1060  0.5529  0.8564
  149MOL0     C19579   1.980   4.277   7.810  0.3884 -0.3146 -0.3839
  149MOL0    Cl19580   2.097   4.282   7.671 -0.1281  0.4115 -0.2496
  149MOL0     C19581   0.870   4.563   8.161 -0.2151  0.6504  0.6653
  149MOL0     C19582   0.729   4.550   8.190  0.0915 -0.2747  0.5251
  149MOL0     O19583   0.403   4.463   7.952  0.2555 -0.0694 -0.2129
  149MOL0     C19584   0.267   4.408   8.283 -0.6726 -0.0641  0.2406
  149MOL0     C19585   0.144   4.361   8.330  0.4141 -0.3742  0.1822
  149MOL0     N19586  -0.715   4.145   8.405 -0.1436  0.5693 -0.0378
  149MOL0     N19587  -0.799   4.239   8.408  0.1224 -0.0568 -0.9137
  149MOL0     C19588  -0.200   4.860   8.959 -0.2250 -0.3798 -0.0874
  149MOL0     C19589  -0.075   4.906   8.925  0.0160 -0.8298 -0.2374
  149MOL0     C19590   0.253   5.056   8.667 -0.8462  0.4069  0.8354
  149MOL0     C19591   0.310   5.032   8.540 -0.0551 -0.2507  0.4202
  149MOL0     C19592   0.445   5.072   8.515  0.7564  0.0366 -0.2439
  149MOL0     C19593   0.518   5.143   8.614 -0.1065 -0.9819  1.0894
  149MOL0     O19594   0.648   5.172   8.602  0.3996  0.2077  0.3815
  149MOL0     C19595   0.733   5.084   8.669 -0.3682  0.7752 -0.0599
  149MOL0     C19596   0.873   5.129   8.672 -0.1296  0.1261 -0.2531
  149MOL0     C19597   0.946   5.132   8.537  0.2488 -0.5891  0.9449
  149MOL0     C19598   0.964   4.992   8.472 -0.5060 -0.2679 -0.3614
  149MOL0     C19599   1.088   4.938   8.534  0.1149  0.0813 -0.0257
  149MOL0     C19600   1.200   4.901   8.535  0.1992 -0.4512 -0.3337
  149MOL0     C19601   0.455   5.180   8.733  0.2355  0.3130 -0.5473
  149MOL0     C19602   0.329   5.135   8.759 -0.1818 -0.1278  0.6765
  149MOL0     H19603  -0.158   5.222   8.848 -0.6639 -0.8748  0.7564
  149MOL0     H19604  -0.398   5.119   8.892 -1.5012 -4.0335 -0.3625
  149MOL0     H19605  -0.445   4.722   9.081  0.3134 -0.5203 -0.0498
  149MOL0     H19606  -0.433   4.708   8.905 -0.4783 -0.8151  0.0191
  149MOL0     H19607  -0.641   4.828   8.880 -1.3354  0.1883  0.3557
  149MOL0     H19608  -0.678   4.816   9.056 -1.5765 -1.0409 -0.7132
  149MOL0     H19609  -0.657   4.570   9.052 -0.4192 -1.4769 -0.4886
  149MOL0     H19610  -0.627   4.578   8.873 -1.9733 -0.1836 -0.2986
  149MOL0     H19611  -0.848   4.510   8.915  1.0388 -0.5247 -4.5112
  149MOL0     H19612  -0.874   4.658   9.027 -0.5560  0.9835 -0.8293
  149MOL0     H19613  -0.883   4.796   8.830 -2.6161 -0.6425  2.0221
  149MOL0     H19614  -0.988   4.662   8.813 -0.1843  0.6430 -1.8674
  149MOL0     H19615  -0.726   4.726   8.658  1.0670  1.1029  3.5527
  149MOL0     H19616  -0.889   4.704   8.605  0.3289 -1.2272  0.3058
  149MOL0     H19617  -0.719   4.452   8.675  1.8291 -1.3575 -2.3391
  149MOL0     H19618  -0.895   4.459   8.675  1.1735 -1.6174 -0.9324
  149MOL0     H19619  -0.750   4.566   8.438 -1.6751  0.3755  0.7943
  149MOL0     H19620  -0.907   4.481   8.458 -0.4556 -1.1295  1.5517
  149MOL0     H19621  -0.530   4.403   8.507  2.9096 -0.4511 -1.3606
  149MOL0     H19622  -0.457   4.019   8.441 -1.5379 -0.1042  1.0490
  149MOL0     H19623  -0.413   4.157   8.544 -0.5748 -0.6021 -0.0020
  149MOL0     H19624  -0.349   4.288   8.357 -2.7101  0.1557 -1.5550
  149MOL0     H19625  -0.422   4.180   8.239  0.4191 -1.6613  0.1218
  149MOL0     H19626  -0.206   4.040   8.385  0.7654 -0.7397 -1.3083
  149MOL0     H19627  -0.292   4.017   8.235 -0.3092 -2.1500  2.3201
  149MOL0     H19628  -0.185   4.229   8.145  1.0138  2.0995  0.7167
  149MOL0     H19629  -0.074   4.092   8.195 -0.8114  0.3777 -2.4556
  149MOL0     H19630  -0.015   4.293   8.038 -1.1949  1.2173 -0.3623
  149MOL0     H19631   0.188   4.366   7.954 -2.0762 -1.3017  0.4189
  149MOL0     H19632   0.641   4.376   7.906  1.3952  1.5942 -1.8623
  149MOL0     H19633   0.875   4.390   7.875  0.1412 -3.3066  3.3137
  149MOL0     H19634   1.110   4.500   7.812  0.6874 -2.0766  0.3809
  149MOL0     H19635   1.075   4.352   7.893 -0.7472  0.0641 -3.1038
  149MOL0     H19636   1.253   4.383   8.059 -1.2383 -0.7351 -0.7052
  149MOL0     H19637   1.287   4.549   7.992 -0.0174 -0.1921  0.6749
  149MOL0     H19638   1.348   4.465   7.782  2.5746  0.5992  0.3773
  149MOL0     H19639   1.296   4.297   7.839 -0.5788 -0.2257  2.6012
  149MOL0     H19640   1.526   4.458   7.951  3.6633 -0.4063 -1.6031
  149MOL0     H19641   1.470   4.298   8.005 -1.8825 -2.0922 -1.8260
  149MOL0     H19642   1.573   4.340   7.721  1.9147 -1.2303 -0.8948
  149MOL0     H19643   1.551   4.194   7.833 -0.2326  0.3540  1.3204
  149MOL0     H19644   1.748   4.235   7.946 -1.1697 -1.0108 -0.6328
  149MOL0     H19645   1.745   4.410   7.896 -2.1672  1.2501 -2.3993
  149MOL0     H19646   1.820   4.171   7.718  1.3218  0.7139 -0.3915
  149MOL0     H19647   1.832   4.346   7.670  1.2142  0.9710  1.1310
  149MOL0     H19648   2.008   4.187   7.866 -0.5123 -1.1667 -1.2512
  149MOL0     H19649   1.994   4.364   7.875  1.4018 -0.4339 -0.4185
  149MOL0     H19650   0.945   4.603   8.228 -0.9538 -0.2174  2.0364
  149MOL0     H19651   0.687   4.583   8.285 -3.2731  0.1764 -0.9805
  149MOL0     H19652   0.340   4.438   8.357  0.4092  1.0261 -1.1966
  149MOL0     H19653   0.122   4.354   8.437  2.1444  0.2605  0.6106
  149MOL0     H19654  -0.189   4.755   8.983  3.3268  0.1116  1.0840
  149MOL0     H19655   0.010   4.838   8.922  3.0144  2.5940 -1.2016
  149MOL0     H19656   0.259   4.972   8.466 -0.9131  0.8628  0.0871
  149MOL0     H19657   0.487   5.052   8.417  2.0955  0.1597  0.2846
  149MOL0     H19658   0.729   4.985   8.622 -0.7408  1.1380 -0.8201
  149MOL0     H19659   0.697   5.068   8.771  3.1003  3.4174  1.7774
  149MOL0     H19660   0.883   5.221   8.729  2.2061 -0.4483  0.3564
  149MOL0     H19661   0.925   5.060   8.740  0.8705 -0.5130 -1.6028
  149MOL0     H19662   1.044   5.179   8.547  0.5577 -0.9071 -0.4347
  149MOL0     H19663   0.885   5.194   8.471  0.6138  1.1593  2.1799
  149MOL0     H19664   0.874   4.929   8.475 -0.1200 -0.8707 -1.2803
  149MOL0     H19665   0.989   4.998   8.366 -1.7086 -1.5047 -0.7451
  149MOL0     H19666   1.299   4.873   8.504  0.5060  2.8919 -3.0176
  149MOL0     H19667   0.507   5.231   8.813 -0.6932  1.3562 -0.5894
  149MOL0     H19668   0.284   5.173   8.851  2.0081  1.3581  1.2113
  150MOL0     O19669   9.246   8.108   9.957  0.0599  0.0143 -0.3581
  150MOL0     C19670   9.141   8.156  10.001 -0.3204 -0.3361  0.1029
  150MOL0     O19671   9.138   8.246  10.109  0.2603 -0.8212  0.3086
  150MOL0     C19672   9.252   8.286  10.174 -0.1353 -0.4098  0.2182
  150MOL0     C19673   9.381   8.300  10.121  0.3872 -0.4462  0.3095
  150MOL0     C19674   9.481   8.341  10.209 -0.2907 -0.3783 -0.3831
  150MOL0     C19675   9.461   8.349  10.351  0.1144  0.3512 -0.0757
  150MOL0     O19676   9.565   8.400  10.425  1.0663  0.2061 -0.5470
  150MOL0     C19677   9.545   8.434  10.564 -0.3813  0.4502 -0.4242
  150MOL0     C19678   9.680   8.461  10.623  1.0457  0.4323  0.5700
  150MOL0     C19679   9.763   8.335  10.637 -0.7506  1.0606 -0.4277
  150MOL0     C19680   9.905   8.352  10.570  0.0033  0.2931  0.1870
  150MOL0     C19681   9.972   8.217  10.584  0.3338  0.5951 -0.2619
  150MOL0     C19682  10.125   8.227  10.565  0.8479 -0.7972  0.5348
  150MOL0     C19683  10.186   8.089  10.556 -0.3942  0.0404 -0.6270
  150MOL0     C19684  10.222   8.023  10.693  0.3641  0.6758 -0.7221
  150MOL0     N19685  10.334   8.092  10.759  0.6023  0.0031 -0.0026
  150MOL0     C19686  10.462   8.048  10.752 -0.6993  0.6425  0.0525
  150MOL0     C19687  10.534   8.138  10.813 -0.7426 -0.7465 -0.8962
  150MOL0     C19688  10.682   8.132  10.850 -1.4842  0.3154  1.0652
  150MOL0     C19689  10.786   8.157  10.737 -0.3415  0.3510 -0.2253
  150MOL0     C19690  10.755   8.276  10.647 -0.3475  0.3877 -1.2103
  150MOL0     C19691  10.764   8.407  10.737  0.3923 -0.1668 -0.0987
  150MOL0     O19692  10.751   8.529  10.664 -0.3095  0.2266  0.7638
  150MOL0     C19693  10.631   8.560  10.599  0.3319 -0.1042  0.7076
  150MOL0     C19694  10.639   8.667  10.505  0.3093  0.9654 -0.2741
  150MOL0     C19695  10.515   8.697  10.440  0.1649 -0.1266 -1.0127
  150MOL0     C19696  10.396   8.633  10.462  0.3827 -0.4612 -1.1479
  150MOL0     C19697  10.275   8.660  10.375 -0.0251 -0.5341  0.4341
  150MOL0     O19698  10.155   8.607  10.414  0.3423  0.5647 -0.0200
  150MOL0     C19699  10.054   8.591  10.311  0.2598 -0.1808 -0.4914
  150MOL0     C19700  10.081   8.530  10.191 -0.5026  0.6256 -0.4461
  150MOL0     C19701   9.986   8.529  10.086 -0.0553  0.2359 -0.1151
  150MOL0     C19702   9.860   8.564  10.110  0.6610 -0.5193 -1.2196
  150MOL0     O19703   9.779   8.527  10.005 -0.2232 -0.0587  0.4185
  150MOL0     C19704   9.657   8.604  10.000  0.2430  0.2911 -0.1753
  150MOL0     C19705   9.561   8.550   9.901  0.1481  1.1337 -0.6454
  150MOL0     C19706   9.433   8.617   9.910  0.2687  0.3928  0.9470
  150MOL0     C19707   9.334   8.569   9.806 -0.9603  0.1071 -0.5093
  150MOL0     C19708   9.191   8.599   9.839  0.0820  0.1274 -0.3204
  150MOL0     C19709   9.090   8.526   9.758 -0.1097 -0.3561 -0.0505
  150MOL0     C19710   8.949   8.555   9.806  0.0449  0.2847 -0.1028
  150MOL0     C19711   8.840   8.472   9.728 -0.4137  0.1706 -0.0113
  150MOL0    Cl19712   8.856   8.488   9.548 -0.1343  0.2362 -0.2999
  150MOL0     C19713   9.824   8.628  10.231 -0.6101 -0.7376 -0.0898
  150MOL0     C19714   9.925   8.650  10.330 -0.0349  0.2130  0.6754
  150MOL0     O19715  10.286   8.742  10.286 -0.5056  0.1913  0.2869
  150MOL0     C19716  10.391   8.534  10.558 -0.6370  0.2527 -0.4650
  150MOL0     C19717  10.506   8.500  10.635  0.5157  0.8420 -0.5623
  150MOL0     N19718  10.450   8.239  10.854  0.0857  0.6714 -0.1790
  150MOL0     N19719  10.325   8.208  10.828 -0.6577 -0.5279 -0.0481
  150MOL0     C19720   9.334   8.334  10.402 -0.5860  0.2562  0.0286
  150MOL0     C19721   9.237   8.307  10.312  0.3769  0.1279  0.1008
  150MOL0     C19722   9.026   8.110   9.920  0.3066 -0.1042 -0.4397
  150MOL0     C19723   8.907   8.176   9.950 -0.6776 -0.2113 -0.0820
  150MOL0     C19724   8.784   8.147   9.886  0.2376  0.9882  0.3827
  150MOL0     C19725   8.785   8.050   9.787  0.7920  0.0106 -0.7484
  150MOL0     O19726   8.664   8.023   9.725  1.0015 -0.3743 -0.8239
  150MOL0     C19727   8.673   7.984   9.589  0.1816 -0.0445 -0.1246
  150MOL0     C19728   8.529   7.973   9.533 -1.7408 -0.6342 -0.1573
  150MOL0     C19729   8.481   7.834   9.587  0.6626  0.2483  0.2988
  150MOL0     C19730   8.339   7.791   9.570  0.2868  0.0127  0.3858
  150MOL0     C19731   8.293   7.782   9.427  0.1139 -0.4593 -0.7835
  150MOL0     C19732   8.265   7.773   9.313  0.4252  0.4998 -0.4548
  150MOL0     C19733   8.902   7.975   9.764 -0.0168 -0.1185 -0.2595
  150MOL0     C19734   9.027   8.012   9.816  0.1337  0.6996  0.1574
  150MOL0     H19735   9.391   8.291  10.014 -1.2471  2.2887 -0.1733
  150MOL0     H19736   9.583   8.363  10.180  0.2874  1.1184  2.3916
  150MOL0     H19737   9.503   8.343  10.608 -0.5272 -0.1013 -1.6456
  150MOL0     H19738   9.484   8.523  10.579  3.6222  3.5654 -0.9776
  150MOL0     H19739   9.649   8.512  10.715 -0.5002  2.5406 -1.0042
  150MOL0     H19740   9.734   8.522  10.551 -1.5772 -0.0201 -1.9579
  150MOL0     H19741   9.707   8.245  10.610 -1.5012  0.8115  1.7594
  150MOL0     H19742   9.786   8.331  10.744 -1.1496 -1.4545 -0.3736
  150MOL0     H19743   9.892   8.369  10.462  3.7427  0.0546 -0.4106
  150MOL0     H19744   9.965   8.436  10.607 -1.6064  0.5305  2.5162
  150MOL0     H19745   9.934   8.148  10.508 -1.6703  1.9418 -0.5645
  150MOL0     H19746   9.954   8.175  10.683  2.5792  2.2868  0.9610
  150MOL0     H19747  10.160   8.294  10.645 -2.2849  2.9139 -0.8607
  150MOL0     H19748  10.151   8.278  10.472  3.1697 -1.2066  0.8962
  150MOL0     H19749  10.126   8.022  10.494  0.3130 -2.0487  0.8461
  150MOL0     H19750  10.279   8.101  10.500 -0.0231 -0.9967 -0.2554
  150MOL0     H19751  10.250   7.925  10.654 -2.0991 -0.5076  0.2516
  150MOL0     H19752  10.133   8.010  10.755  1.1094  0.9680  0.4457
  150MOL0     H19753  10.507   7.959  10.711 -0.9579  0.6797 -0.3195
  150MOL0     H19754  10.705   8.032  10.889  1.7149  0.9863  1.2021
  150MOL0     H19755  10.701   8.205  10.929  1.5726  1.3267 -0.4298
  150MOL0     H19756  10.801   8.072  10.670 -0.6174  0.0272  0.1177
  150MOL0     H19757  10.880   8.175  10.790  0.6369  1.1459 -2.1298
  150MOL0     H19758  10.839   8.278  10.577  1.7416 -1.4405  1.0718
  150MOL0     H19759  10.659   8.258  10.598  0.8230 -2.5815 -2.6622
  150MOL0     H19760  10.860   8.421  10.787  0.8323 -3.3624  0.1416
  150MOL0     H19761  10.685   8.399  10.812 -2.0045  0.9431 -2.3384
  150MOL0     H19762  10.731   8.719  10.480  1.2464  1.2973  3.2836
  150MOL0     H19763  10.524   8.777  10.367  1.2062 -2.2515 -3.3352
  150MOL0     H19764  10.182   8.492  10.191 -0.7713 -0.7124  4.5737
  150MOL0     H19765  10.013   8.488   9.989  0.2887 -2.8400  1.2005
  150MOL0     H19766   9.674   8.708   9.968  1.5500  0.6485  1.5157
  150MOL0     H19767   9.608   8.598  10.098 -0.7136 -3.2109 -0.7284
  150MOL0     H19768   9.555   8.443   9.927 -3.7759  0.7440 -2.3391
  150MOL0     H19769   9.614   8.553   9.805  3.1118  2.5249  0.9159
  150MOL0     H19770   9.448   8.724   9.894  1.6449 -0.1287 -1.6592
  150MOL0     H19771   9.395   8.595  10.011  1.9604  1.1268  1.7858
  150MOL0     H19772   9.360   8.593   9.702  1.9928 -1.5476 -0.2696
  150MOL0     H19773   9.344   8.460   9.802  2.2102  0.2437  1.1643
  150MOL0     H19774   9.164   8.703   9.818  0.5892  0.2956 -0.1491
  150MOL0     H19775   9.176   8.591   9.947 -0.4522  3.4026 -0.0711
  150MOL0     H19776   9.101   8.417   9.763 -0.3271 -0.4312 -1.0054
  150MOL0     H19777   9.102   8.549   9.652  3.0421  2.5959  0.7860
  150MOL0     H19778   8.934   8.528   9.910  0.6668 -1.7575 -0.4899
  150MOL0     H19779   8.925   8.661   9.797 -1.5940 -0.0080  0.5637
  150MOL0     H19780   8.740   8.501   9.761  0.0559  0.7200  0.9687
  150MOL0     H19781   8.848   8.369   9.766 -0.8865  0.2043  0.1797
  150MOL0     H19782   9.726   8.673  10.247 -0.6697 -1.2097  0.9627
  150MOL0     H19783   9.911   8.705  10.422 -0.1561  1.1599  0.1003
  150MOL0     H19784  10.296   8.492  10.588 -0.1858 -0.8143 -0.4720
  150MOL0     H19785  10.494   8.428  10.715 -1.9566  1.2543 -0.4819
  150MOL0     H19786   9.305   8.352  10.505 -0.5382  0.5382 -0.0052
  150MOL0     H19787   9.135   8.303  10.348 -0.1508  1.9942 -1.0548
  150MOL0     H19788   8.920   8.258  10.019  1.6456 -0.2075 -0.4454
  150MOL0     H19789   8.696   8.205   9.912 -1.6954 -0.0113 -3.3148
  150MOL0     H19790   8.735   7.896   9.569 -0.2006 -0.4651  0.5256
  150MOL0     H19791   8.732   8.061   9.539  2.0400 -1.8254 -0.8209
  150MOL0     H19792   8.466   8.049   9.580  2.0523  1.9335  1.3060
  150MOL0     H19793   8.539   7.983   9.424 -1.4793  0.7230 -0.0296
  150MOL0     H19794   8.505   7.835   9.694 -2.7942 -4.2714  1.4086
  150MOL0     H19795   8.546   7.749   9.564  2.9142  1.2616  2.4286
  150MOL0     H19796   8.325   7.696   9.623  1.1190  0.2255  1.0140
  150MOL0     H19797   8.275   7.865   9.617  0.9287 -0.0752  1.4378
  150MOL0     H19798   8.228   7.777   9.212 -0.3498  0.7627 -0.1649
  150MOL0     H19799   8.893   7.884   9.706  1.4778 -0.7148  0.3998
  150MOL0     H19800   9.117   7.953   9.802  0.4800 -0.3590  4.9934
  151MOL0     O19801   5.133   5.954  10.843  0.2538 -0.6365 -0.1746
  151MOL0     C19802   5.175   5.956  10.727  0.2853 -0.7198 -0.2644
  151MOL0     O19803   5.097   5.976  10.617  0.1638  0.1440 -0.1330
  151MOL0     C19804   4.962   6.001  10.624  0.4090 -0.5288  0.6429
  151MOL0     C19805   4.905   6.108  10.700 -0.1220 -0.4394  1.0948
  151MOL0     C19806   4.768   6.145  10.693 -0.2278 -0.5850  0.3258
  151MOL0     C19807   4.682   6.065  10.611  0.0557  0.2107 -0.8870
  151MOL0     O19808   4.553   6.105  10.584  0.1477  0.7532 -0.4335
  151MOL0     C19809   4.500   6.224  10.639 -0.4214 -0.0729 -0.0201
  151MOL0     C19810   4.350   6.225  10.596 -0.6054 -0.4998 -0.2620
  151MOL0     C19811   4.286   6.366  10.622  0.1352 -0.7947  0.0887
  151MOL0     C19812   4.269   6.389  10.773 -0.5472  0.4798  0.6250
  151MOL0     C19813   4.158   6.308  10.823 -0.4366  0.1873  0.1336
  151MOL0     C19814   4.100   6.375  10.950  0.0933  0.6380  0.2901
  151MOL0     C19815   4.033   6.512  10.947 -0.3855  0.2476 -0.3593
  151MOL0     C19816   3.959   6.573  11.069 -0.0530 -0.3072  0.6386
  151MOL0     N19817   3.915   6.716  11.042 -0.6241 -0.3516 -0.4244
  151MOL0     C19818   4.004   6.827  11.044 -0.1899  0.1830 -0.6653
  151MOL0     C19819   3.933   6.937  11.029  0.9703  0.1072  0.5390
  151MOL0     C19820   3.977   7.080  11.010  0.4941 -1.0356  0.5866
  151MOL0     C19821   4.114   7.115  11.089 -0.1951 -0.3549  0.7433
  151MOL0     C19822   4.114   7.262  11.108  0.9948  0.2720  0.8411
  151MOL0     C19823   4.238   7.321  11.153  0.0979  0.1598  0.2199
  151MOL0     O19824   4.282   7.255  11.273 -0.0040  0.3185 -0.0791
  151MOL0     C19825   4.392   7.170  11.264  0.0329 -0.0286  0.6298
  151MOL0     C19826   4.511   7.182  11.187  0.4471 -0.0861  0.1444
  151MOL0     C19827   4.622   7.090  11.198 -0.7299  1.1221  0.2638
  151MOL0     C19828   4.608   6.972  11.278 -0.1938  0.2201  0.3739
  151MOL0     C19829   4.729   6.892  11.304 -0.0976 -0.9224  0.3103
  151MOL0     O19830   4.845   6.961  11.317 -0.0754  0.3384  0.1907
  151MOL0     C19831   4.961   6.889  11.321 -0.3175 -0.1289  0.0829
  151MOL0     C19832   5.062   6.919  11.411  0.6376 -0.0184 -0.5221
  151MOL0     C19833   5.189   6.866  11.408  0.2210 -1.0832 -0.0772
  151MOL0     C19834   5.221   6.776  11.305  0.6736  0.1317 -0.0266
  151MOL0     O19835   5.343   6.713  11.286  0.0876  0.0074  0.1526
  151MOL0     C19836   5.460   6.777  11.333  0.4093 -0.0238 -0.6396
  151MOL0     C19837   5.573   6.700  11.258 -0.6968 -0.2979  0.3592
  151MOL0     C19838   5.723   6.746  11.298 -0.0987  0.3909  0.4804
  151MOL0     C19839   5.824   6.668  11.218  0.6213 -0.5267  0.4791
  151MOL0     C19840   5.964   6.709  11.240 -0.5766 -1.7394 -0.0297
  151MOL0     C19841   6.066   6.641  11.151  0.2533  0.4683  0.4924
  151MOL0     C19842   6.216   6.665  11.173  0.3567  0.5472  0.0561
  151MOL0     C19843   6.250   6.656  11.319  0.1147 -0.0150  0.1006
  151MOL0    Cl19844   6.428   6.642  11.350 -0.3817  0.1487 -0.2940
  151MOL0     C19845   5.126   6.746  11.210 -0.3186  0.9955 -0.3733
  151MOL0     C19846   5.000   6.805  11.220 -0.0499  0.5376  0.5082
  151MOL0     O19847   4.722   6.772  11.320  0.4914 -0.0353 -0.4768
  151MOL0     C19848   4.487   6.948  11.345  0.6438  0.3304  0.2529
  151MOL0     C19849   4.389   7.053  11.341 -0.2593  0.2779  0.9524
  151MOL0     N19850   3.799   6.894  11.015  0.3282 -0.3907  0.5634
  151MOL0     N19851   3.794   6.765  11.010  0.3572  0.7646 -0.4537
  151MOL0     C19852   4.740   5.963  10.541  0.2103 -0.6083 -0.2715
  151MOL0     C19853   4.875   5.925  10.545 -0.0538  0.1333  0.1821
  151MOL0     C19854   5.319   5.947  10.706 -0.7820  0.3444  0.4080
  151MOL0     C19855   5.375   5.940  10.572 -0.2659 -0.2471  0.5441
  151MOL0     C19856   5.518   5.938  10.558 -0.7636  0.6680  0.3348
  151MOL0     C19857   5.608   5.947  10.667  0.5305 -0.0442  0.1070
  151MOL0     O19858   5.731   5.937  10.628 -0.7989 -0.2892 -0.4912
  151MOL0     C19859   5.834   5.873  10.710  0.2635  0.5013  0.1121
  151MOL0     C19860   5.913   5.988  10.781 -0.0382 -0.5702 -0.3771
  151MOL0     C19861   6.047   5.929  10.826  0.8877 -0.6011  0.5801
  151MOL0     C19862   6.140   5.923  10.713 -0.2839  0.0770  0.2649
  151MOL0     C19863   6.286   5.933  10.757 -0.2215 -0.2870  0.1467
  151MOL0     C19864   6.402   5.954  10.793 -1.1289 -0.5862 -0.0523
  151MOL0     C19865   5.552   5.957  10.797 -0.7383  0.3833 -0.5098
  151MOL0     C19866   5.416   5.953  10.816  0.1254  0.2617 -0.0620
  151MOL0     H19867   4.976   6.160  10.764 -0.4734  0.3642  0.8462
  151MOL0     H19868   4.724   6.227  10.750  0.5106 -0.7152  1.1006
  151MOL0     H19869   4.553   6.312  10.601 -1.5450  1.2787  1.3799
  151MOL0     H19870   4.505   6.225  10.748  1.3087  1.2817 -0.0733
  151MOL0     H19871   4.288   6.144  10.636 -1.8228  0.8126  0.5829
  151MOL0     H19872   4.345   6.200  10.490  2.1554  0.3368 -0.6781
  151MOL0     H19873   4.189   6.379  10.574 -0.9537 -1.3966  2.0196
  151MOL0     H19874   4.351   6.440  10.573 -0.2175 -1.6776 -1.8266
  151MOL0     H19875   4.357   6.367  10.835 -0.6509 -0.6966  0.3645
  151MOL0     H19876   4.239   6.493  10.792 -0.5682  0.9222 -1.5559
  151MOL0     H19877   4.195   6.210  10.854  1.9283  0.3778 -1.8069
  151MOL0     H19878   4.076   6.291  10.752 -0.2081 -1.7299  0.2913
  151MOL0     H19879   4.185   6.380  11.019  1.0916  2.5958 -1.0047
  151MOL0     H19880   4.018   6.317  10.993  0.4174  0.6182  0.8961
  151MOL0     H19881   4.107   6.588  10.920 -0.7196  1.5010  1.9897
  151MOL0     H19882   3.963   6.507  10.863 -0.0333 -1.1994 -0.5923
  151MOL0     H19883   4.023   6.582  11.157 -0.2051  1.3070  0.6138
  151MOL0     H19884   3.869   6.515  11.089 -0.3915  0.8771  2.8421
  151MOL0     H19885   4.110   6.817  11.065 -0.4497  0.5439  0.9584
  151MOL0     H19886   3.910   7.156  11.051  1.2300  0.1279 -0.3139
  151MOL0     H19887   3.973   7.103  10.904  0.0387 -4.0526 -0.1402
  151MOL0     H19888   4.190   7.082  11.018 -0.6391 -4.5060  1.9412
  151MOL0     H19889   4.095   7.061  11.182 -1.0227  2.6350  2.4342
  151MOL0     H19890   4.087   7.316  11.017  0.0146 -0.8012  0.4848
  151MOL0     H19891   4.030   7.282  11.175 -2.3099  1.0162 -3.1203
  151MOL0     H19892   4.221   7.428  11.167 -2.2077 -0.4038  2.3044
  151MOL0     H19893   4.314   7.326  11.074 -0.2510 -0.6766 -0.1856
  151MOL0     H19894   4.517   7.267  11.119 -0.3532 -1.7466 -2.1110
  151MOL0     H19895   4.720   7.102  11.152  0.4344 -1.5640  1.8402
  151MOL0     H19896   5.036   6.986  11.493  0.3370  2.6808 -2.6735
  151MOL0     H19897   5.249   6.884  11.496 -1.7634  0.5065  1.0279
  151MOL0     H19898   5.476   6.763  11.440  0.7035 -2.1236 -0.9089
  151MOL0     H19899   5.447   6.883  11.311 -0.6953  0.4742  2.0970
  151MOL0     H19900   5.570   6.711  11.149 -0.3997 -1.8915  0.1598
  151MOL0     H19901   5.571   6.595  11.291  0.5688  0.0396  1.6105
  151MOL0     H19902   5.736   6.712  11.401  2.9054 -3.7496 -1.0267
  151MOL0     H19903   5.745   6.852  11.281 -2.6710  0.5794 -2.8377
  151MOL0     H19904   5.814   6.561  11.238 -4.4077 -0.5771 -0.8836
  151MOL0     H19905   5.809   6.681  11.110 -0.0508  1.6234  0.7854
  151MOL0     H19906   5.996   6.681  11.341  3.3395 -1.8701 -1.1230
  151MOL0     H19907   5.964   6.818  11.231 -1.4596 -1.5418  1.8692
  151MOL0     H19908   6.053   6.672  11.047  1.0328 -1.4318 -0.2145
  151MOL0     H19909   6.045   6.534  11.156  1.6639  0.0238 -1.6122
  151MOL0     H19910   6.273   6.587  11.121 -0.4780  0.4066 -0.6841
  151MOL0     H19911   6.251   6.756  11.123  1.7456  0.2381  0.4306
  151MOL0     H19912   6.199   6.575  11.372  0.9634  0.9213  2.4764
  151MOL0     H19913   6.207   6.744  11.367  0.2976  0.0189  0.2019
  151MOL0     H19914   5.152   6.673  11.134 -0.0227 -0.2769  0.9128
  151MOL0     H19915   4.932   6.781  11.140  1.8188 -0.9207 -0.7367
  151MOL0     H19916   4.469   6.851  11.390  0.0115  0.4939  0.3617
  151MOL0     H19917   4.297   7.035  11.397 -0.1650 -2.0773  0.4559
  151MOL0     H19918   4.678   5.912  10.468  0.2785  0.0527 -0.8024
  151MOL0     H19919   4.916   5.847  10.482  0.6694 -0.4228  1.3086
  151MOL0     H19920   5.311   5.916  10.487  0.7845 -2.3830  0.2798
  151MOL0     H19921   5.547   5.912  10.457 -1.0591  1.4933  0.0222
  151MOL0     H19922   5.898   5.819  10.641 -0.5708  0.2404 -0.4713
  151MOL0     H19923   5.791   5.798  10.777  1.9716 -0.2078  0.4475
  151MOL0     H19924   5.925   6.066  10.706 -0.7680  0.8891  0.9634
  151MOL0     H19925   5.856   6.015  10.871 -0.2634 -3.0770  0.3382
  151MOL0     H19926   6.031   5.834  10.877 -0.2687 -1.1484 -0.7330
  151MOL0     H19927   6.083   5.989  10.910 -2.3920 -1.0618  2.4617
  151MOL0     H19928   6.134   5.827  10.660  1.0830  0.2694 -0.2896
  151MOL0     H19929   6.114   6.007  10.647 -1.3629  1.6967  2.6277
  151MOL0     H19930   6.502   5.976  10.822 -0.6333 -3.0063  0.2376
  151MOL0     H19931   5.633   5.959  10.869 -1.0920  0.4376 -0.1091
  151MOL0     H19932   5.368   5.957  10.913 -1.2818  0.6352 -0.7424
  152MOL0     O19933   3.236   0.539   3.964  0.0853 -0.3055 -0.6320
  152MOL0     C19934   3.335   0.467   3.941 -0.4110  0.3380  0.2481
  152MOL0     O19935   3.346   0.331   3.976 -0.0832  0.4769  0.1112
  152MOL0     C19936   3.239   0.245   3.971 -0.6381  0.0577  0.2497
  152MOL0     C19937   3.275   0.124   4.020 -0.0074 -0.7343 -0.2140
  152MOL0     C19938   3.178   0.025   4.033 -0.7934  0.3676  0.0486
  152MOL0     C19939   3.054   0.043   3.979  0.8058  0.0181  1.5941
  152MOL0     O19940   2.959  -0.060   3.986  0.4985 -0.2568 -0.2687
  152MOL0     C19941   2.825  -0.031   4.005  1.1481  0.3306 -0.2227
  152MOL0     C19942   2.763  -0.170   4.071  0.9712  0.0095 -1.1399
  152MOL0     C19943   2.626  -0.149   4.151  0.1177  0.2402  0.3438
  152MOL0     C19944   2.542  -0.282   4.160 -0.1652 -0.0692 -0.7690
  152MOL0     C19945   2.413  -0.273   4.243  0.2325  0.0521 -0.1801
  152MOL0     C19946   2.428  -0.274   4.402 -0.5534 -0.9765  0.5762
  152MOL0     C19947   2.314  -0.191   4.467 -1.7255  0.7769 -0.0496
  152MOL0     C19948   2.179  -0.246   4.440  0.2176  0.1673 -0.0710
  152MOL0     N19949   2.064  -0.159   4.468  0.3270 -1.0357 -0.7528
  152MOL0     C19950   2.030  -0.033   4.437  0.0891 -0.3230 -0.0080
  152MOL0     C19951   1.911   0.001   4.486 -1.2002  0.0650 -0.4207
  152MOL0     C19952   1.824   0.121   4.450  0.0911  0.6242  0.8780
  152MOL0     C19953   1.792   0.199   4.575 -0.4160  0.3244 -0.3993
  152MOL0     C19954   1.666   0.135   4.651 -0.4474 -0.4790 -0.8042
  152MOL0     C19955   1.628   0.230   4.764 -0.0809 -0.9972  0.6255
  152MOL0     O19956   1.533   0.173   4.846  0.2684  0.2495  0.1037
  152MOL0     C19957   1.439   0.249   4.913 -0.5581  0.5350 -1.2022
  152MOL0     C19958   1.347   0.181   4.993  0.5109  0.2140  0.4156
  152MOL0     C19959   1.252   0.250   5.075  0.1079 -0.8981  0.1760
  152MOL0     C19960   1.265   0.383   5.100 -0.3997  0.2287  0.3276
  152MOL0     C19961   1.172   0.447   5.187 -0.0494 -0.0705  0.3850
  152MOL0     O19962   1.064   0.369   5.226 -0.2985  0.0628  0.6627
  152MOL0     C19963   0.969   0.415   5.306 -0.6138 -0.3363  0.0446
  152MOL0     C19964   0.923   0.326   5.411  0.5282  0.2688 -0.1740
  152MOL0     C19965   0.821   0.364   5.497 -0.1480  0.1852  0.0963
  152MOL0     C19966   0.770   0.491   5.488 -0.1318  0.9867  0.0600
  152MOL0     O19967   0.672   0.523   5.572  0.0777 -0.6577  0.3087
  152MOL0     C19968   0.720   0.559   5.700 -0.1339 -0.0422  0.0790
  152MOL0     C19969   0.613   0.644   5.771  0.5124  0.1597 -0.4397
  152MOL0     C19970   0.476   0.574   5.771 -0.7508 -0.1784 -0.3379
  152MOL0     C19971   0.353   0.649   5.827 -0.0487  0.6952 -0.2484
  152MOL0     C19972   0.229   0.559   5.828  0.2862  0.5704 -0.2123
  152MOL0     C19973   0.102   0.640   5.868 -0.3878  0.2749 -0.2941
  152MOL0     C19974   0.076   0.752   5.760  0.2921 -0.5318 -0.4723
  152MOL0     C19975  -0.069   0.811   5.772  0.1271 -0.1322 -0.8775
  152MOL0    Cl19976  -0.194   0.681   5.747  0.0904 -0.3710  0.2214
  152MOL0     C19977   0.824   0.581   5.390 -0.0790 -0.1993  0.3838
  152MOL0     C19978   0.921   0.549   5.295 -0.8964  0.6264  0.0730
  152MOL0     O19979   1.193   0.557   5.227  0.4331  0.2460  0.2229
  152MOL0     C19980   1.369   0.454   5.027 -0.0407  0.2876  1.0616
  152MOL0     C19981   1.453   0.383   4.941  0.0079 -0.9137  0.7358
  152MOL0     N19982   1.870  -0.116   4.550 -0.6663 -0.2215 -0.1634
  152MOL0     N19983   1.964  -0.209   4.539 -0.4544  0.4611 -0.0421
  152MOL0     C19984   3.018   0.166   3.919 -0.1733  0.8070 -0.1207
  152MOL0     C19985   3.113   0.264   3.917 -0.8578  0.1339 -0.5153
  152MOL0     C19986   3.462   0.529   3.923  0.4733  0.2509 -0.1969
  152MOL0     C19987   3.474   0.667   3.939  0.0612 -0.7360  0.6461
  152MOL0     C19988   3.593   0.729   3.885  0.6754 -0.7813  0.7377
  152MOL0     C19989   3.702   0.647   3.837 -0.0921 -0.3695 -0.2773
  152MOL0     O19990   3.810   0.715   3.795 -0.0526  0.5777 -0.1554
  152MOL0     C19991   3.934   0.645   3.771 -0.4647 -0.0369 -0.0835
  152MOL0     C19992   4.048   0.746   3.741 -0.1762  0.2825  0.7058
  152MOL0     C19993   4.102   0.827   3.858  0.1264  0.0442 -0.2387
  152MOL0     C19994   4.203   0.932   3.804  0.1963  0.0904  0.0422
  152MOL0     C19995   4.311   0.874   3.725 -0.2495  0.2237  0.2726
  152MOL0     C19996   4.412   0.838   3.666 -1.1709  0.1968 -0.5314
  152MOL0     C19997   3.689   0.509   3.836  0.6301  0.7602  0.1361
  152MOL0     C19998   3.569   0.447   3.878 -0.0305  0.7557  0.7557
  152MOL0     H19999   3.368   0.104   4.071  0.1064  1.0529  0.3318
  152MOL0     H20000   3.195  -0.065   4.090 -1.7031  1.2531  1.8105
  152MOL0     H20001   2.777  -0.009   3.909  2.0782 -1.6162 -1.1848
  152MOL0     H20002   2.816   0.061   4.063  1.3680  0.9352 -1.1270
  152MOL0     H20003   2.831  -0.206   4.148 -0.9022  1.7130  1.4781
  152MOL0     H20004   2.740  -0.240   3.990 -0.4364  1.9983 -2.5707
  152MOL0     H20005   2.568  -0.071   4.100 -2.6747 -0.7623  1.7664
  152MOL0     H20006   2.649  -0.101   4.247 -0.8692  1.7551 -0.1439
  152MOL0     H20007   2.527  -0.322   4.060  1.3913  1.9641 -1.8984
  152MOL0     H20008   2.602  -0.362   4.205 -1.0007  0.4252  1.3445
  152MOL0     H20009   2.340  -0.353   4.226 -0.4661  0.4431  0.9364
  152MOL0     H20010   2.360  -0.188   4.199 -1.8518 -2.0517 -2.0283
  152MOL0     H20011   2.520  -0.218   4.420 -0.7529  0.5228 -2.5052
  152MOL0     H20012   2.441  -0.370   4.453 -1.4882 -1.7314 -0.5551
  152MOL0     H20013   2.336  -0.173   4.573  0.6216  0.2063 -0.3887
  152MOL0     H20014   2.315  -0.092   4.420  0.7248  0.4087 -0.9117
  152MOL0     H20015   2.182  -0.346   4.484  3.4599  0.4230  0.4812
  152MOL0     H20016   2.174  -0.264   4.332  1.8813 -1.6503  0.1016
  152MOL0     H20017   2.087   0.032   4.370  0.2676  1.1903  1.5328
  152MOL0     H20018   1.733   0.098   4.394  1.5516 -1.7105 -0.7174
  152MOL0     H20019   1.887   0.178   4.381  2.1030 -2.8648 -0.4363
  152MOL0     H20020   1.768   0.303   4.552 -1.3190  0.1215 -0.4211
  152MOL0     H20021   1.879   0.197   4.641 -0.9105  0.3544  0.2689
  152MOL0     H20022   1.591   0.102   4.578  0.3429  0.1039 -1.9183
  152MOL0     H20023   1.705   0.038   4.683 -1.9370 -1.2175 -1.1529
  152MOL0     H20024   1.575   0.316   4.723 -0.7588 -1.4822  0.4566
  152MOL0     H20025   1.713   0.249   4.830 -0.7809 -0.8216  1.5018
  152MOL0     H20026   1.355   0.073   4.983  1.4799  0.3404 -0.3462
  152MOL0     H20027   1.177   0.193   5.129  0.7461 -0.2817  1.7826
  152MOL0     H20028   0.951   0.224   5.434  0.3409  0.4654  1.0196
  152MOL0     H20029   0.779   0.293   5.567 -1.1527  0.7906  0.1191
  152MOL0     H20030   0.804   0.626   5.681 -0.6040  0.8243  0.9175
  152MOL0     H20031   0.761   0.476   5.757  1.4111  2.3077  2.6932
  152MOL0     H20032   0.600   0.743   5.727 -0.2568  0.7416  1.0097
  152MOL0     H20033   0.646   0.659   5.874 -1.1783  0.0233  0.1647
  152MOL0     H20034   0.488   0.489   5.839  1.3429  0.6567  0.4088
  152MOL0     H20035   0.452   0.532   5.673 -0.7486  2.6795 -1.6674
  152MOL0     H20036   0.380   0.703   5.918  0.3358  0.3558 -0.1598
  152MOL0     H20037   0.340   0.725   5.749 -1.8912 -1.0983 -1.7885
  152MOL0     H20038   0.237   0.478   5.901  0.1289  0.1672 -0.6355
  152MOL0     H20039   0.208   0.522   5.728 -0.9513 -0.4009  0.3761
  152MOL0     H20040   0.119   0.688   5.965 -2.4516 -0.1427  0.3261
  152MOL0     H20041   0.015   0.579   5.891  0.7479 -2.0880 -1.8214
  152MOL0     H20042   0.149   0.832   5.778  1.1358 -1.2476 -0.5952
  152MOL0     H20043   0.094   0.726   5.655 -1.8064  2.0905 -1.5925
  152MOL0     H20044  -0.068   0.899   5.706  1.6849  1.3285  0.9774
  152MOL0     H20045  -0.087   0.844   5.874 -0.4951 -1.7370 -0.4435
  152MOL0     H20046   0.768   0.674   5.385  0.5529  0.2892  1.9025
  152MOL0     H20047   0.957   0.622   5.224  1.2996 -1.4964 -1.1439
  152MOL0     H20048   1.384   0.559   5.048 -1.2729  0.6716  0.1265
  152MOL0     H20049   1.534   0.438   4.895 -1.3348  0.0240 -0.5901
  152MOL0     H20050   2.924   0.173   3.865 -0.4949 -2.2233 -0.1313
  152MOL0     H20051   3.098   0.362   3.873  1.1202 -0.0178 -1.6360
  152MOL0     H20052   3.394   0.731   3.974  0.1504  1.2543 -2.3931
  152MOL0     H20053   3.608   0.836   3.898  1.4203 -0.6851 -0.7150
  152MOL0     H20054   3.911   0.579   3.687  0.1391 -0.0367 -0.2530
  152MOL0     H20055   3.966   0.577   3.850  3.8122 -0.3585 -1.8659
  152MOL0     H20056   4.124   0.674   3.709 -0.9114  0.2348 -1.0651
  152MOL0     H20057   4.020   0.810   3.657  1.1693 -1.1620 -0.9122
  152MOL0     H20058   4.148   0.757   3.928  0.4433  1.3157  0.8724
  152MOL0     H20059   4.013   0.874   3.903 -0.7335  1.0571 -2.7543
  152MOL0     H20060   4.151   1.007   3.743 -2.0981  0.4085  2.1969
  152MOL0     H20061   4.246   0.988   3.887  3.9929 -2.2294 -0.1272
  152MOL0     H20062   4.501   0.802   3.619 -0.1517  0.8123  0.8843
  152MOL0     H20063   3.764   0.443   3.792 -1.0628 -2.9003  2.2209
  152MOL0     H20064   3.562   0.339   3.886 -0.0173  0.6332 -0.6257
  153MOL0     O20065   7.130   7.224   9.757 -0.4282 -0.9264 -0.1460
  153MOL0     C20066   7.230   7.157   9.780 -0.7128 -0.1965  0.2949
  153MOL0     O20067   7.254   7.031   9.720 -0.3851  0.1586 -0.3125
  153MOL0     C20068   7.159   6.980   9.635  0.1774  0.3318 -0.4435
  153MOL0     C20069   7.021   6.961   9.667 -0.3986 -0.2467 -0.3685
  153MOL0     C20070   6.932   6.886   9.584 -0.6269 -0.8134  0.1634
  153MOL0     C20071   6.977   6.848   9.456 -0.4529  1.0485  0.3553
  153MOL0     O20072   6.884   6.800   9.368 -0.0000  0.3984 -0.7708
  153MOL0     C20073   6.922   6.712   9.257 -0.2777  0.1989  0.6566
  153MOL0     C20074   6.948   6.575   9.331  0.0047 -0.5713  0.2650
  153MOL0     C20075   6.967   6.452   9.241 -0.8009  0.4570  0.1148
  153MOL0     C20076   7.000   6.326   9.332 -1.1104  0.6672 -0.0393
  153MOL0     C20077   7.153   6.336   9.367 -0.4369 -0.2645  0.2509
  153MOL0     C20078   7.203   6.211   9.436  0.2212  0.0901 -0.4578
  153MOL0     C20079   7.341   6.216   9.504  0.4247 -0.9058 -0.3197
  153MOL0     C20080   7.451   6.230   9.396  0.3625  0.0532 -0.3276
  153MOL0     N20081   7.579   6.245   9.457  0.0707 -0.0834  0.5639
  153MOL0     C20082   7.670   6.142   9.486  0.6291  0.0366 -0.2055
  153MOL0     C20083   7.755   6.198   9.573 -0.2814  0.9366 -0.1100
  153MOL0     C20084   7.875   6.126   9.644  0.0463  0.1331 -0.3635
  153MOL0     C20085   7.994   6.102   9.551 -0.5683 -0.0438 -0.2088
  153MOL0     C20086   8.118   6.047   9.629 -0.1331  0.0911  0.4987
  153MOL0     C20087   8.208   6.161   9.673  0.2374 -0.0797 -0.1785
  153MOL0     O20088   8.327   6.110   9.737 -0.1192 -0.0875  0.1199
  153MOL0     C20089   8.438   6.136   9.653  0.1602  0.5828 -0.3098
  153MOL0     C20090   8.539   6.204   9.711 -0.2445  0.4633  0.0671
  153MOL0     C20091   8.654   6.229   9.631  0.6895 -0.1721  0.2877
  153MOL0     C20092   8.678   6.171   9.510 -0.2735  0.5044  0.1044
  153MOL0     C20093   8.816   6.161   9.458 -0.7670 -0.2817  0.7947
  153MOL0     O20094   8.908   6.227   9.535 -1.5544 -0.8472  0.7808
  153MOL0     C20095   9.036   6.238   9.490 -0.9880  0.0223  0.1044
  153MOL0     C20096   9.081   6.303   9.370 -0.0938  0.2970  0.5771
  153MOL0     C20097   9.220   6.301   9.330  0.3753  0.1696 -0.1256
  153MOL0     C20098   9.310   6.220   9.397 -0.0534 -0.2791  0.6161
  153MOL0     O20099   9.437   6.199   9.361 -0.3484 -0.4614 -0.7453
  153MOL0     C20100   9.494   6.271   9.255 -0.0915 -0.0077  0.6674
  153MOL0     C20101   9.631   6.213   9.207  0.6716 -0.2292  0.3455
  153MOL0     C20102   9.716   6.304   9.109 -0.2890 -0.3889 -0.0911
  153MOL0     C20103   9.775   6.420   9.181  0.2465 -0.1066 -1.1871
  153MOL0     C20104   9.869   6.513   9.101  0.7141  0.9734  1.2156
  153MOL0     C20105  10.006   6.458   9.072 -0.6132  0.2438 -0.4854
  153MOL0     C20106  10.085   6.557   8.980  0.7734  0.7135 -0.3914
  153MOL0     C20107  10.218   6.501   8.941 -0.0073  0.0672  0.8673
  153MOL0    Cl20108  10.206   6.365   8.820  0.0677  0.0201  0.4677
  153MOL0     C20109   9.257   6.154   9.516 -0.1625  0.3760  0.6108
  153MOL0     C20110   9.136   6.164   9.559  0.9164  0.0293  0.1655
  153MOL0     O20111   8.832   6.112   9.344  0.0687 -0.1534  0.2535
  153MOL0     C20112   8.570   6.100   9.454  0.7097 -1.1865  0.1206
  153MOL0     C20113   8.451   6.081   9.525 -0.3080 -0.0623  0.1799
  153MOL0     N20114   7.736   6.332   9.584  0.1670  0.4169  0.4761
  153MOL0     N20115   7.626   6.354   9.525  0.0035 -0.6703  0.2134
  153MOL0     C20116   7.113   6.873   9.415  0.2271  1.1433  0.1427
  153MOL0     C20117   7.202   6.945   9.509 -0.1948  0.9070  0.7378
  153MOL0     C20118   7.333   7.209   9.874  0.9040 -0.2146 -0.7455
  153MOL0     C20119   7.297   7.311   9.959 -1.0708  0.5702  0.2237
  153MOL0     C20120   7.400   7.375  10.033 -0.7854 -0.2181  0.0164
  153MOL0     C20121   7.537   7.331  10.027 -0.1735  0.5476  0.4057
  153MOL0     O20122   7.644   7.379  10.092 -0.2108 -0.2124  0.2649
  153MOL0     C20123   7.623   7.444  10.214  0.2378  0.4671  0.2129
  153MOL0     C20124   7.756   7.453  10.281 -0.2625 -0.7430 -0.0407
  153MOL0     C20125   7.743   7.486  10.428  0.6306 -0.3131 -0.6714
  153MOL0     C20126   7.792   7.371  10.520  0.2392  0.4355 -0.1750
  153MOL0     C20127   7.686   7.265  10.537 -0.6773 -0.5076 -0.1611
  153MOL0     C20128   7.590   7.197  10.564  0.2480  0.3538 -0.1124
  153MOL0     C20129   7.564   7.226   9.944  0.1501  0.4224 -0.2214
  153MOL0     C20130   7.468   7.160   9.874  0.6470  0.8412 -0.6671
  153MOL0     H20131   6.978   6.981   9.765 -0.3462 -0.4307 -0.3050
  153MOL0     H20132   6.828   6.870   9.609 -2.0633  3.6339 -1.8790
  153MOL0     H20133   7.019   6.728   9.210  0.6904 -3.8658  0.8386
  153MOL0     H20134   6.849   6.704   9.177  1.1205  1.8186 -0.8744
  153MOL0     H20135   6.855   6.558   9.386  0.0132  0.0519  0.4875
  153MOL0     H20136   7.029   6.585   9.404  0.1761  0.9787 -0.0958
  153MOL0     H20137   7.049   6.470   9.171 -0.4268  0.0281  0.4387
  153MOL0     H20138   6.873   6.437   9.186 -1.7068 -1.4100  2.0174
  153MOL0     H20139   6.934   6.328   9.420 -3.7509 -0.5157 -1.8395
  153MOL0     H20140   6.991   6.226   9.288 -1.5706 -0.2046  1.8750
  153MOL0     H20141   7.161   6.427   9.427 -2.8114  0.4004 -0.3327
  153MOL0     H20142   7.211   6.354   9.275  0.3254 -0.7031  0.6337
  153MOL0     H20143   7.192   6.125   9.370 -0.1268  0.6591 -1.1609
  153MOL0     H20144   7.135   6.184   9.517  3.4563  1.1094  2.8441
  153MOL0     H20145   7.340   6.298   9.576  0.2302 -0.6046 -0.6665
  153MOL0     H20146   7.348   6.119   9.555 -2.6033 -1.8917 -1.5525
  153MOL0     H20147   7.439   6.326   9.344  0.0533  0.7926  1.0506
  153MOL0     H20148   7.446   6.133   9.345 -0.6348 -0.2274  0.2694
  153MOL0     H20149   7.657   6.036   9.464  4.6510 -0.4661 -0.9608
  153MOL0     H20150   7.843   6.029   9.683 -2.0302 -0.1613 -2.5900
  153MOL0     H20151   7.904   6.187   9.730 -0.5487  2.4183 -1.6889
  153MOL0     H20152   8.014   6.181   9.478 -0.1646 -0.1785 -0.2466
  153MOL0     H20153   7.965   6.012   9.496 -2.1498  1.3094 -1.7191
  153MOL0     H20154   8.085   5.987   9.715  0.0153  1.7167  1.7422
  153MOL0     H20155   8.188   5.992   9.566  1.1903 -0.9194  2.7052
  153MOL0     H20156   8.153   6.220   9.746 -1.7846 -2.2182  0.1644
  153MOL0     H20157   8.222   6.230   9.590 -0.8245  0.0198 -0.2850
  153MOL0     H20158   8.537   6.251   9.809  1.3531  3.2042 -1.0922
  153MOL0     H20159   8.731   6.293   9.671  1.4053 -2.2308  2.3969
  153MOL0     H20160   9.003   6.362   9.325 -1.7251 -0.9313  1.6807
  153MOL0     H20161   9.251   6.344   9.235 -1.3184  1.1973 -0.2554
  153MOL0     H20162   9.510   6.379   9.268  0.9930  0.1317 -1.3651
  153MOL0     H20163   9.427   6.262   9.169  1.4873  4.2848 -1.3591
  153MOL0     H20164   9.596   6.126   9.150 -1.7576 -2.0197  4.1533
  153MOL0     H20165   9.687   6.169   9.291 -0.9546 -2.1226  0.5213
  153MOL0     H20166   9.654   6.336   9.025 -2.1417  0.3904  1.4861
  153MOL0     H20167   9.795   6.249   9.058  0.2028  0.0731  0.1566
  153MOL0     H20168   9.690   6.484   9.207 -1.5326 -2.4946 -0.7655
  153MOL0     H20169   9.821   6.384   9.274 -0.1268 -1.3041 -1.4351
  153MOL0     H20170   9.877   6.608   9.154  0.8728  1.6736 -0.0365
  153MOL0     H20171   9.830   6.533   9.001  1.0226 -1.6274  0.4882
  153MOL0     H20172   9.995   6.360   9.026 -0.1800 -0.7701  1.4636
  153MOL0     H20173  10.059   6.453   9.167  0.1432  0.4768 -0.8831
  153MOL0     H20174  10.033   6.575   8.886  0.4295  0.2375 -0.2944
  153MOL0     H20175  10.103   6.650   9.035 -0.5491  1.2880 -0.8943
  153MOL0     H20176  10.281   6.480   9.028 -1.0861 -1.9364  1.2462
  153MOL0     H20177  10.261   6.576   8.875 -1.3103  1.1110  1.1817
  153MOL0     H20178   9.322   6.088   9.572 -1.1599 -3.4481 -2.3057
  153MOL0     H20179   9.110   6.109   9.649 -0.1364 -0.6564 -0.5203
  153MOL0     H20180   8.584   6.040   9.365  1.7788  0.1075 -0.6110
  153MOL0     H20181   8.372   6.013   9.496  1.2732 -3.0022  2.2197
  153MOL0     H20182   7.152   6.838   9.320  1.4623 -2.3016  1.7326
  153MOL0     H20183   7.306   6.961   9.482 -0.3875  2.3088  0.7997
  153MOL0     H20184   7.194   7.344   9.965 -1.3958  0.1100 -2.1005
  153MOL0     H20185   7.377   7.462  10.093 -1.8325 -0.3906 -0.1288
  153MOL0     H20186   7.545   7.396  10.274  2.3789 -0.7625  2.2160
  153MOL0     H20187   7.588   7.546  10.192 -3.4627 -0.7458 -0.1391
  153MOL0     H20188   7.798   7.354  10.265 -1.1002 -1.2484  0.7528
  153MOL0     H20189   7.812   7.522  10.217  0.6389 -1.1791  0.2678
  153MOL0     H20190   7.640   7.517  10.450  1.4537  3.2827 -1.2351
  153MOL0     H20191   7.807   7.574  10.440 -0.4206  0.5384 -1.1528
  153MOL0     H20192   7.881   7.333  10.469 -0.5403 -0.1269 -1.1718
  153MOL0     H20193   7.827   7.419  10.611  3.2247 -0.1448 -0.9087
  153MOL0     H20194   7.513   7.125  10.581 -0.1060  0.3432 -1.6318
  153MOL0     H20195   7.662   7.182   9.928 -1.1505 -3.6155  1.5129
  153MOL0     H20196   7.496   7.090   9.796 -0.8404 -1.5766  0.8409
  154MOL0     O20197   8.091   2.929   5.958 -0.3354 -0.0803  0.1868
  154MOL0     C20198   8.134   3.048   5.955 -0.2764  0.3810 -0.2246
  154MOL0     O20199   8.059   3.165   5.979  0.1752  0.0860  0.8400
  154MOL0     C20200   7.930   3.163   6.022  0.8856  0.3872  0.0478
  154MOL0     C20201   7.845   3.267   5.976  0.5012  0.2655  1.0036
  154MOL0     C20202   7.715   3.267   6.010 -0.5760 -0.3320  0.5897
  154MOL0     C20203   7.660   3.169   6.087 -0.0453  0.3960  0.3340
  154MOL0     O20204   7.526   3.175   6.108 -0.0963  0.2079 -0.9556
  154MOL0     C20205   7.458   3.066   6.173  0.8921  0.0139  0.9904
  154MOL0     C20206   7.312   3.073   6.148  0.9407  0.1387  0.6695
  154MOL0     C20207   7.256   3.212   6.177 -0.3148  0.0744 -0.0807
  154MOL0     C20208   7.110   3.214   6.212  0.2810  0.1267  0.4601
  154MOL0     C20209   7.016   3.151   6.109 -0.2545  0.0773  0.1525
  154MOL0     C20210   6.880   3.120   6.164  0.3423 -0.5696  0.7543
  154MOL0     C20211   6.799   3.243   6.212 -0.0594 -0.5090  0.2597
  154MOL0     C20212   6.651   3.210   6.227  0.0714  0.3507  0.1861
  154MOL0     N20213   6.586   3.204   6.099  1.1306  0.0377  0.7689
  154MOL0     C20214   6.520   3.302   6.025  0.7905 -0.1866  0.1125
  154MOL0     C20215   6.464   3.242   5.919 -1.2007  0.2875  0.3679
  154MOL0     C20216   6.409   3.316   5.794 -0.6229  0.3552 -0.4627
  154MOL0     C20217   6.255   3.292   5.797 -0.8837  0.1906  0.3550
  154MOL0     C20218   6.195   3.343   5.665 -0.5554 -0.6028 -0.5102
  154MOL0     C20219   6.042   3.341   5.672 -0.5061 -0.5019  1.0083
  154MOL0     O20220   6.000   3.397   5.546 -0.3223  0.4934 -0.1709
  154MOL0     C20221   5.928   3.326   5.450 -0.5611  0.6460  0.1940
  154MOL0     C20222   5.923   3.186   5.440 -0.3786 -0.9979 -0.2187
  154MOL0     C20223   5.852   3.125   5.335  0.0865  0.1648  1.1405
  154MOL0     C20224   5.788   3.204   5.238  0.7571 -0.3602 -0.0755
  154MOL0     C20225   5.726   3.136   5.121  0.3181 -1.4862  0.7194
  154MOL0     O20226   5.668   3.216   5.023 -0.2933 -0.0253 -0.1717
  154MOL0     C20227   5.545   3.177   4.984  1.4285  0.2103 -0.2885
  154MOL0     C20228   5.434   3.264   5.002 -1.1513 -0.8761 -0.0712
  154MOL0     C20229   5.310   3.235   4.956 -0.6249 -0.7333 -0.5616
  154MOL0     C20230   5.292   3.123   4.882 -0.1426 -1.3763  0.5795
  154MOL0     O20231   5.165   3.106   4.825 -0.6898  0.7092  0.5483
  154MOL0     C20232   5.146   3.182   4.705 -0.4319  0.5644 -0.8262
  154MOL0     C20233   4.994   3.193   4.691  0.2278 -0.3490  0.4251
  154MOL0     C20234   4.911   3.067   4.697  1.1024 -0.4433  0.2695
  154MOL0     C20235   4.775   3.092   4.618 -0.6718  0.3780  0.2892
  154MOL0     C20236   4.678   2.971   4.625  0.0459  0.3964  1.7990
  154MOL0     C20237   4.595   2.961   4.496 -0.1734 -0.3000  0.4838
  154MOL0     C20238   4.458   2.886   4.524 -0.7794  0.1399  0.7017
  154MOL0     C20239   4.487   2.728   4.522  1.3785 -0.4706  0.4940
  154MOL0    Cl20240   4.365   2.633   4.618  0.0622  0.0272 -0.1404
  154MOL0     C20241   5.388   3.025   4.871 -0.1272  0.3495  0.5793
  154MOL0     C20242   5.517   3.056   4.914 -0.3364  0.1776 -0.7127
  154MOL0     O20243   5.726   3.019   5.120  0.5666  0.6966 -0.4418
  154MOL0     C20244   5.799   3.339   5.254  0.5238 -0.8004 -0.2180
  154MOL0     C20245   5.867   3.402   5.358  0.0819  0.2379  0.4990
  154MOL0     N20246   6.489   3.107   5.926 -0.1251 -0.3411  0.1544
  154MOL0     N20247   6.556   3.090   6.032  0.4190  0.1921  0.4142
  154MOL0     C20248   7.744   3.068   6.137  0.2188 -1.1010 -1.0448
  154MOL0     C20249   7.878   3.070   6.106  0.2652 -0.4074  0.6146
  154MOL0     C20250   8.278   3.073   5.918 -0.4180 -0.0975 -1.2734
  154MOL0     C20251   8.327   3.212   5.909 -0.3362  0.0330  0.3861
  154MOL0     C20252   8.455   3.234   5.877 -0.5129 -0.1787  0.0901
  154MOL0     C20253   8.546   3.128   5.857 -0.2544  0.8311 -0.2741
  154MOL0     O20254   8.678   3.144   5.801  0.5472 -0.2854 -0.9445
  154MOL0     C20255   8.783   3.172   5.883 -0.7772  0.4005 -0.4211
  154MOL0     C20256   8.864   3.041   5.910 -0.2053 -0.2178  0.5291
  154MOL0     C20257   8.998   3.078   5.982 -0.3946  0.0434  0.3152
  154MOL0     C20258   9.071   2.952   6.031 -0.4325  0.4760 -0.0509
  154MOL0     C20259   9.217   2.979   6.054 -0.1639  0.1748 -0.7220
  154MOL0     C20260   9.336   2.996   6.079  0.9436 -0.6212 -0.1954
  154MOL0     C20261   8.498   2.994   5.872  0.3552 -0.7133  0.0557
  154MOL0     C20262   8.363   2.966   5.891 -0.4204 -0.4287 -0.1619
  154MOL0     H20263   7.874   3.341   5.902 -0.3939 -1.1918 -0.8699
  154MOL0     H20264   7.651   3.348   5.976 -0.9543 -1.1721 -0.7581
  154MOL0     H20265   7.474   3.077   6.281  2.2779 -0.2951  0.8357
  154MOL0     H20266   7.485   2.969   6.130 -3.2513 -0.5167 -0.8420
  154MOL0     H20267   7.266   3.005   6.220 -3.0127  2.8573  1.0242
  154MOL0     H20268   7.290   3.041   6.046 -1.6504 -2.1867  1.8419
  154MOL0     H20269   7.257   3.279   6.091  0.8090 -2.2952 -2.0229
  154MOL0     H20270   7.317   3.268   6.249  3.6332 -0.1255 -2.9838
  154MOL0     H20271   7.084   3.166   6.307  0.5268 -0.7424  0.0935
  154MOL0     H20272   7.092   3.321   6.224  0.1130  0.1927 -0.3155
  154MOL0     H20273   7.061   3.062   6.065 -2.1522 -0.7215 -0.2567
  154MOL0     H20274   7.004   3.229   6.032  1.3048 -1.2143 -1.4898
  154MOL0     H20275   6.891   3.055   6.251  2.1624  0.0452  1.0311
  154MOL0     H20276   6.830   3.071   6.079 -0.1054 -1.1293  1.3295
  154MOL0     H20277   6.825   3.283   6.310 -1.4472  1.9362 -0.2951
  154MOL0     H20278   6.809   3.323   6.138 -0.3862  0.7850  1.5623
  154MOL0     H20279   6.613   3.290   6.291 -1.3036 -0.5952  0.5943
  154MOL0     H20280   6.645   3.117   6.285  0.3654  1.6077  2.3110
  154MOL0     H20281   6.524   3.411   6.026 -0.7375 -0.0773  2.1271
  154MOL0     H20282   6.462   3.279   5.706  2.2369 -0.1940  1.3641
  154MOL0     H20283   6.423   3.424   5.804 -0.9476  0.3247  0.4937
  154MOL0     H20284   6.210   3.333   5.888 -1.7470 -2.0118  0.9849
  154MOL0     H20285   6.239   3.184   5.798  0.5767 -0.0822 -1.3247
  154MOL0     H20286   6.225   3.447   5.650  4.6304 -2.2115 -3.5963
  154MOL0     H20287   6.236   3.283   5.583  0.7039  0.6576 -0.8336
  154MOL0     H20288   6.002   3.407   5.749  0.6062  0.4027  0.8498
  154MOL0     H20289   6.005   3.239   5.678  0.1685 -0.7464  1.1583
  154MOL0     H20290   5.968   3.121   5.515  0.8224  0.0842  0.0448
  154MOL0     H20291   5.842   3.018   5.323 -2.5711  0.5906 -2.1026
  154MOL0     H20292   5.447   3.361   5.050  0.3383 -0.0873 -1.9342
  154MOL0     H20293   5.225   3.300   4.970 -0.8148 -0.9425 -0.7344
  154MOL0     H20294   5.202   3.121   4.633 -0.0089 -0.6463  0.4626
  154MOL0     H20295   5.190   3.282   4.708  0.1001  0.3094  0.7131
  154MOL0     H20296   4.983   3.236   4.591  3.3324  1.3990  0.7269
  154MOL0     H20297   4.961   3.266   4.767 -1.3976  0.1963 -0.7499
  154MOL0     H20298   4.896   3.036   4.801  0.5845 -1.2832 -0.0460
  154MOL0     H20299   4.967   2.981   4.660  0.7617 -0.5057 -0.1095
  154MOL0     H20300   4.704   3.169   4.651 -2.4871 -1.6316  1.2876
  154MOL0     H20301   4.803   3.114   4.514 -0.7559  0.5762  0.3060
  154MOL0     H20302   4.613   2.983   4.712 -1.6062  1.0811  0.5142
  154MOL0     H20303   4.731   2.875   4.633 -0.4690 -0.3156 -1.7880
  154MOL0     H20304   4.644   2.912   4.411 -1.0356 -1.3650  0.5887
  154MOL0     H20305   4.570   3.060   4.456  0.0633 -0.6329 -0.5225
  154MOL0     H20306   4.428   2.930   4.619 -0.3786  1.3553  0.2966
  154MOL0     H20307   4.382   2.910   4.450 -1.7638 -0.4442  1.5078
  154MOL0     H20308   4.581   2.694   4.566  1.7034 -1.7318 -1.1142
  154MOL0     H20309   4.486   2.690   4.420 -2.3655  1.0712 -0.1951
  154MOL0     H20310   5.362   2.931   4.824  3.5102 -1.3554  1.6109
  154MOL0     H20311   5.591   2.980   4.891 -1.7835 -0.9028 -2.0226
  154MOL0     H20312   5.756   3.402   5.177 -0.9201 -0.8884  0.4767
  154MOL0     H20313   5.864   3.510   5.374 -0.8129  0.5774 -1.6183
  154MOL0     H20314   7.701   2.988   6.197  0.0734  0.0181  0.4212
  154MOL0     H20315   7.944   2.992   6.144  0.6274 -0.8466 -0.8504
  154MOL0     H20316   8.250   3.287   5.922  0.0345  0.5442 -0.2720
  154MOL0     H20317   8.497   3.333   5.860  0.1092 -0.3259  0.6992
  154MOL0     H20318   8.757   3.215   5.981 -1.5988  1.5167 -1.1005
  154MOL0     H20319   8.861   3.235   5.840  1.0265 -0.9827  0.6688
  154MOL0     H20320   8.798   2.976   5.968 -0.8417  0.2896  0.3925
  154MOL0     H20321   8.889   3.003   5.811 -2.2562 -1.3433  0.4026
  154MOL0     H20322   8.980   3.153   6.060  1.5570  2.9479 -1.7882
  154MOL0     H20323   9.071   3.124   5.914  0.6530  0.3433  1.5923
  154MOL0     H20324   9.028   2.911   6.123  1.2299  1.7343  1.3487
  154MOL0     H20325   9.068   2.876   5.952 -2.3134  2.0837 -1.6268
  154MOL0     H20326   9.435   3.022   6.108  0.4429  1.6757 -0.3614
  154MOL0     H20327   8.569   2.915   5.848  1.7815  0.3951  0.4614
  154MOL0     H20328   8.333   2.862   5.890 -1.0856 -0.2461  0.4953
  155MOL0     O20329   4.460   3.952   9.342  0.3401  0.4095  0.5264
  155MOL0     C20330   4.488   3.942   9.223 -0.5187 -0.4022 -0.4425
  155MOL0     O20331   4.419   3.875   9.129  0.3765  0.2329  0.5160
  155MOL0     C20332   4.286   3.866   9.145  0.1334 -0.6047  0.2372
  155MOL0     C20333   4.235   3.773   9.061  0.4048 -0.5609 -0.1200
  155MOL0     C20334   4.101   3.744   9.058 -0.0439 -0.5676 -0.3172
  155MOL0     C20335   4.008   3.818   9.141 -0.0426  0.3527 -0.7008
  155MOL0     O20336   3.875   3.800   9.139 -0.3026 -0.3762 -0.1977
  155MOL0     C20337   3.814   3.690   9.083  0.4150  0.1414 -0.2843
  155MOL0     C20338   3.657   3.706   9.109  1.0158  0.5073 -0.8081
  155MOL0     C20339   3.583   3.600   9.024 -0.3630 -0.1504 -0.6595
  155MOL0     C20340   3.433   3.634   9.028  0.2265 -0.5885 -0.2064
  155MOL0     C20341   3.344   3.510   9.008 -0.2309  0.7072  0.4500
  155MOL0     C20342   3.343   3.457   8.860  0.3994  0.7338 -0.4602
  155MOL0     C20343   3.254   3.337   8.844  0.4631 -0.1356 -0.3631
  155MOL0     C20344   3.261   3.297   8.703  0.7171  1.1317  0.6164
  155MOL0     N20345   3.170   3.188   8.683 -0.2739 -0.1144  0.0998
  155MOL0     C20346   3.189   3.068   8.746  0.2772  0.1259 -0.5712
  155MOL0     C20347   3.084   2.989   8.710  0.0181 -0.3150  0.1957
  155MOL0     C20348   3.078   2.835   8.722  0.9596  0.0677  0.1456
  155MOL0     C20349   2.964   2.778   8.629 -0.2420 -0.9298  1.2169
  155MOL0     C20350   2.943   2.627   8.646  0.3396  0.1674 -0.6303
  155MOL0     C20351   2.822   2.576   8.561 -0.3209  0.7374  0.8581
  155MOL0     O20352   2.804   2.442   8.611  0.0764  1.1381 -0.2553
  155MOL0     C20353   2.694   2.373   8.571 -0.2408  1.2462 -1.5487
  155MOL0     C20354   2.670   2.246   8.626 -0.8299 -0.1941  0.4345
  155MOL0     C20355   2.553   2.173   8.602 -0.1962 -0.3209  0.2685
  155MOL0     C20356   2.463   2.219   8.508  0.7875 -0.4143 -0.2557
  155MOL0     C20357   2.346   2.133   8.504 -0.9434 -0.5249  0.4773
  155MOL0     O20358   2.349   2.004   8.527  0.4408  0.1712  0.3982
  155MOL0     C20359   2.231   1.953   8.575 -0.1799  0.0629  0.1735
  155MOL0     C20360   2.117   1.953   8.496 -0.7980  0.3013  0.5395
  155MOL0     C20361   1.994   1.901   8.546  0.2023 -0.2761  0.1630
  155MOL0     C20362   1.986   1.842   8.676  0.0003 -0.7529 -0.2405
  155MOL0     O20363   1.856   1.810   8.709  0.0457 -0.1708  0.5880
  155MOL0     C20364   1.843   1.704   8.805  0.9405  0.4087 -0.4648
  155MOL0     C20365   1.699   1.651   8.808  0.4447  0.2878 -0.3681
  155MOL0     C20366   1.587   1.750   8.827  0.2252  0.8784  0.7157
  155MOL0     C20367   1.454   1.671   8.805 -0.0989 -0.2960  0.1993
  155MOL0     C20368   1.331   1.763   8.827 -0.2919 -0.1819  1.2597
  155MOL0     C20369   1.306   1.802   8.966  0.2098  1.0593  0.0594
  155MOL0     C20370   1.277   1.678   9.054 -0.2740 -0.5078 -0.0730
  155MOL0     C20371   1.156   1.607   8.998 -0.4363 -0.1607  0.5000
  155MOL0    Cl20372   1.094   1.502   9.126 -0.3143  0.0396  0.5332
  155MOL0     C20373   2.102   1.841   8.753  0.9901 -0.0717 -0.1693
  155MOL0     C20374   2.216   1.903   8.706 -0.1891  0.2220 -0.2493
  155MOL0     O20375   2.245   2.199   8.483  0.5578 -0.3867 -0.2066
  155MOL0     C20376   2.481   2.343   8.443 -0.4937  0.0422  0.1447
  155MOL0     C20377   2.591   2.422   8.482  0.2549  0.4374  0.1262
  155MOL0     N20378   2.994   3.073   8.645  0.3477  0.1220 -0.5059
  155MOL0     N20379   3.046   3.192   8.631 -0.7189 -0.1304  0.1046
  155MOL0     C20380   4.058   3.931   9.213 -0.6961 -0.1935  0.2767
  155MOL0     C20381   4.198   3.952   9.224  0.3322 -0.1558  0.3507
  155MOL0     C20382   4.620   3.995   9.178 -0.3188  0.2552  0.1794
  155MOL0     C20383   4.665   3.950   9.050  0.4084  1.1732  0.1072
  155MOL0     C20384   4.791   3.985   9.001  0.4951  0.6118  0.3131
  155MOL0     C20385   4.872   4.062   9.081  0.9934 -0.0840 -0.8431
  155MOL0     O20386   4.994   4.093   9.022 -0.3698  0.5530  0.2291
  155MOL0     C20387   5.082   4.185   9.092 -0.1294  1.1453  0.0272
  155MOL0     C20388   5.213   4.189   9.014 -0.3290 -0.9312  0.3024
  155MOL0     C20389   5.181   4.233   8.873  0.4025  0.1376  0.9125
  155MOL0     C20390   5.308   4.262   8.790  0.1031 -0.0684 -0.1172
  155MOL0     C20391   5.276   4.284   8.654  0.3080 -0.6754  0.5800
  155MOL0     C20392   5.261   4.298   8.526 -0.0313 -0.5449  0.4210
  155MOL0     C20393   4.823   4.120   9.205  0.0590 -0.0819  0.8797
  155MOL0     C20394   4.701   4.077   9.254  0.2307  1.2127 -0.0085
  155MOL0     H20395   4.303   3.707   9.007  1.0186 -0.0751  0.0493
  155MOL0     H20396   4.068   3.660   8.997  0.0548 -0.7734 -0.0867
  155MOL0     H20397   3.846   3.602   9.139  3.1471  0.1352 -1.6769
  155MOL0     H20398   3.849   3.673   8.981  2.1580  1.9403 -0.0517
  155MOL0     H20399   3.628   3.809   9.086  0.1983  1.0677  2.3103
  155MOL0     H20400   3.638   3.673   9.211  0.9804 -0.6412 -1.1673
  155MOL0     H20401   3.602   3.503   9.071 -0.7669 -1.3062 -2.7529
  155MOL0     H20402   3.621   3.601   8.922  0.4868 -4.3376 -0.5570
  155MOL0     H20403   3.394   3.676   9.121  0.0847  0.3949 -0.7003
  155MOL0     H20404   3.399   3.705   8.952 -0.7554 -0.3747  0.4134
  155MOL0     H20405   3.241   3.535   9.035 -0.2546  2.6392 -1.1911
  155MOL0     H20406   3.380   3.435   9.079 -2.2197  0.7498  1.6025
  155MOL0     H20407   3.443   3.446   8.816  0.8208  0.6753  0.4839
  155MOL0     H20408   3.292   3.537   8.806 -1.4378  1.2330  1.8664
  155MOL0     H20409   3.274   3.252   8.909 -2.2796 -0.9161 -0.4219
  155MOL0     H20410   3.149   3.364   8.855  1.1912  1.9916  3.5097
  155MOL0     H20411   3.364   3.275   8.673  0.0016  1.9318 -2.7650
  155MOL0     H20412   3.222   3.379   8.643  0.3883 -0.6681 -1.7584
  155MOL0     H20413   3.283   3.030   8.784 -0.0664  1.3245  1.6129
  155MOL0     H20414   3.060   2.814   8.827  1.2799  2.1334  0.6502
  155MOL0     H20415   3.174   2.790   8.696  1.0470 -0.9700  2.1117
  155MOL0     H20416   3.000   2.788   8.526 -2.1792  0.6430  0.6420
  155MOL0     H20417   2.870   2.833   8.634  1.4203  2.5782 -1.2578
  155MOL0     H20418   3.037   2.573   8.628  1.0889  0.0975  2.8329
  155MOL0     H20419   2.909   2.614   8.749  0.4356  0.7609 -0.5164
  155MOL0     H20420   2.848   2.555   8.457 -0.6913 -0.7689  1.0340
  155MOL0     H20421   2.733   2.634   8.587 -1.7840 -1.9236  2.2140
  155MOL0     H20422   2.736   2.209   8.704  1.5518  1.4469 -0.6584
  155MOL0     H20423   2.533   2.083   8.659  0.3650  0.6023  1.9850
  155MOL0     H20424   2.117   1.986   8.392 -0.0404 -1.7290 -0.1666
  155MOL0     H20425   1.907   1.903   8.482  1.1731 -1.4075 -1.2492
  155MOL0     H20426   1.865   1.759   8.897 -1.0350  0.5253 -0.0082
  155MOL0     H20427   1.920   1.627   8.796 -0.4242 -1.3591  1.8612
  155MOL0     H20428   1.703   1.576   8.887  2.6124  0.7500  0.0099
  155MOL0     H20429   1.682   1.591   8.718  1.7466 -1.1519  0.2992
  155MOL0     H20430   1.591   1.836   8.759 -1.7237 -0.9414 -1.8963
  155MOL0     H20431   1.593   1.793   8.928 -4.0183 -0.3441  1.6987
  155MOL0     H20432   1.444   1.635   8.702  0.5460  1.3136 -0.4634
  155MOL0     H20433   1.448   1.575   8.856  0.2634 -2.2040 -3.0230
  155MOL0     H20434   1.242   1.725   8.776 -0.9693  0.9222  1.5739
  155MOL0     H20435   1.343   1.850   8.762  1.9912 -0.6559  0.9665
  155MOL0     H20436   1.216   1.865   8.960 -0.7216 -0.3754 -1.7822
  155MOL0     H20437   1.386   1.863   9.008  2.6271 -1.5593 -0.4481
  155MOL0     H20438   1.360   1.609   9.071  1.4247  0.8578 -2.1560
  155MOL0     H20439   1.243   1.719   9.149  2.1204  0.4169  0.4580
  155MOL0     H20440   1.197   1.546   8.917 -0.5697  1.5231 -0.8802
  155MOL0     H20441   1.080   1.675   8.959  0.9969  2.6253  2.2324
  155MOL0     H20442   2.091   1.808   8.856 -1.5176  1.8696  0.2970
  155MOL0     H20443   2.290   1.908   8.785 -1.8307 -2.3671  1.6149
  155MOL0     H20444   2.405   2.375   8.372 -0.3265  0.6427  0.2339
  155MOL0     H20445   2.608   2.520   8.439  1.0222 -0.2999 -1.3486
  155MOL0     H20446   3.991   3.994   9.272 -1.4600 -1.4840  0.8214
  155MOL0     H20447   4.243   4.032   9.283 -0.3790  1.4247 -1.1482
  155MOL0     H20448   4.603   3.886   8.989 -0.2432 -0.1996  2.0988
  155MOL0     H20449   4.822   3.943   8.905  1.0385  0.9163  0.3536
  155MOL0     H20450   5.089   4.131   9.188 -0.6725  1.7133  0.3889
  155MOL0     H20451   5.025   4.278   9.091 -1.2075  0.5703  2.1086
  155MOL0     H20452   5.276   4.263   9.063  1.3946 -3.0044  1.4312
  155MOL0     H20453   5.258   4.090   9.001 -1.2643 -1.1668 -1.4804
  155MOL0     H20454   5.124   4.326   8.886  1.0164  1.0725 -2.2981
  155MOL0     H20455   5.119   4.159   8.821 -1.5547  2.8076 -0.8316
  155MOL0     H20456   5.358   4.349   8.835 -1.1948  1.0994 -0.8391
  155MOL0     H20457   5.375   4.176   8.800  1.0108  0.7537  1.4329
  155MOL0     H20458   5.261   4.323   8.422  1.0656  0.4022  0.6276
  155MOL0     H20459   4.876   4.188   9.271 -1.8749  1.2540  1.1405
  155MOL0     H20460   4.665   4.103   9.353  1.5846  0.7898  0.6284
  156MOL0     O20461   0.601   3.168   6.157 -0.4705  0.7724 -0.0373
  156MOL0     C20462   0.635   3.064   6.103  0.0016 -0.0379 -0.1564
  156MOL0     O20463   0.553   2.951   6.081  0.1296  0.4116 -0.2271
  156MOL0     C20464   0.427   2.959   6.142 -0.4378 -0.9549  0.0526
  156MOL0     C20465   0.319   2.978   6.066  0.3082 -0.9184 -0.0735
  156MOL0     C20466   0.189   2.996   6.124  0.0343 -0.2857 -0.4827
  156MOL0     C20467   0.175   2.971   6.257  0.0465 -0.7455 -0.2813
  156MOL0     O20468   0.054   2.968   6.313  0.4652 -0.1952  0.0246
  156MOL0     C20469   0.022   2.884   6.424 -0.4814  0.1186  0.2551
  156MOL0     C20470  -0.132   2.873   6.451 -0.6108  0.2155 -0.1255
  156MOL0     C20471  -0.157   2.856   6.606 -0.3794 -0.1071 -0.4727
  156MOL0     C20472  -0.299   2.849   6.648 -0.1408 -0.5774 -0.0611
  156MOL0     C20473  -0.366   2.726   6.591  0.2564 -0.6137  0.3142
  156MOL0     C20474  -0.506   2.701   6.657  0.0087  0.4953  0.5732
  156MOL0     C20475  -0.571   2.576   6.591 -0.2901  1.0008  0.2986
  156MOL0     C20476  -0.694   2.524   6.674 -0.0311  0.2851 -0.0558
  156MOL0     N20477  -0.652   2.418   6.762  0.2823 -0.3516 -0.1414
  156MOL0     C20478  -0.546   2.426   6.853 -0.0948 -0.1235  0.0609
  156MOL0     C20479  -0.539   2.304   6.908 -0.5866  0.6091  0.6911
  156MOL0     C20480  -0.443   2.249   7.005 -0.8501 -0.2839  0.6909
  156MOL0     C20481  -0.423   2.093   6.997 -0.0501  1.0071 -0.4509
  156MOL0     C20482  -0.347   2.032   7.116 -0.3024 -0.2350 -0.5255
  156MOL0     C20483  -0.284   1.903   7.092 -0.0666  0.6496  1.3208
  156MOL0     O20484  -0.392   1.815   7.102 -1.2356 -0.5806  0.1436
  156MOL0     C20485  -0.358   1.685   7.055 -0.2861 -0.1891  0.5298
  156MOL0     C20486  -0.282   1.655   6.935 -0.1488  0.0998  0.4249
  156MOL0     C20487  -0.259   1.524   6.900 -0.2006 -0.2119 -0.6622
  156MOL0     C20488  -0.287   1.416   6.983  0.2154 -0.0657 -0.0692
  156MOL0     C20489  -0.241   1.283   6.933 -0.1348  1.0039  0.5775
  156MOL0     O20490  -0.203   1.264   6.797  1.1100  0.3169  0.4198
  156MOL0     C20491  -0.160   1.138   6.751  0.6814 -0.4924  1.0374
  156MOL0     C20492  -0.048   1.138   6.679 -0.9650 -0.2019  0.8564
  156MOL0     C20493  -0.004   1.026   6.609 -0.0219  0.8526 -0.1426
  156MOL0     C20494  -0.067   0.906   6.609 -0.1949 -0.4512  0.0402
  156MOL0     O20495  -0.006   0.811   6.526  0.3393 -0.0974 -0.1307
  156MOL0     C20496  -0.091   0.701   6.504  0.3077  0.1297  0.1538
  156MOL0     C20497  -0.017   0.591   6.429  0.1701  0.5281 -0.3067
  156MOL0     C20498  -0.089   0.454   6.435  0.2269 -0.3408  0.2665
  156MOL0     C20499  -0.012   0.356   6.337 -0.2904 -0.6343 -0.6507
  156MOL0     C20500  -0.058   0.210   6.360  0.4311 -0.2534  0.0644
  156MOL0     C20501   0.002   0.118   6.254 -1.6111 -0.5286  0.2435
  156MOL0     C20502   0.006  -0.034   6.280  0.5548  0.3504  0.3208
  156MOL0     C20503   0.075  -0.118   6.173  0.4630 -0.3231 -0.1434
  156MOL0    Cl20504   0.043  -0.289   6.224 -0.0848  0.3322  0.7247
  156MOL0     C20505  -0.180   0.895   6.693  0.0341 -0.1601  0.1091
  156MOL0     C20506  -0.227   1.009   6.760 -0.2027  0.2920 -0.7551
  156MOL0     O20507  -0.271   1.190   7.011  0.0850  0.3584 -0.4561
  156MOL0     C20508  -0.359   1.442   7.103 -0.3683 -0.4722 -0.3102
  156MOL0     C20509  -0.396   1.576   7.125 -0.1128 -0.1616 -0.1405
  156MOL0     N20510  -0.647   2.228   6.850 -0.1452 -0.2849  0.2692
  156MOL0     N20511  -0.702   2.298   6.758  0.0582  0.0097  0.6161
  156MOL0     C20512   0.287   2.956   6.336 -0.1491  0.6873  0.0623
  156MOL0     C20513   0.417   2.955   6.279 -0.1445 -0.0132 -0.6176
  156MOL0     C20514   0.773   3.059   6.057  0.7240 -0.5475 -0.2246
  156MOL0     C20515   0.883   3.121   6.116  0.6211  0.1347 -0.0786
  156MOL0     C20516   1.011   3.095   6.057  0.3949 -0.5634  1.5225
  156MOL0     C20517   1.031   3.014   5.950  0.3824  1.0604  0.8533
  156MOL0     O20518   1.153   3.006   5.891  0.3463 -0.3737  0.3635
  156MOL0     C20519   1.179   2.917   5.778 -0.3676  0.4665  0.7691
  156MOL0     C20520   1.325   2.929   5.733 -0.0552 -0.5034 -0.2627
  156MOL0     C20521   1.336   3.056   5.645  0.4052 -0.4292  0.1752
  156MOL0     C20522   1.487   3.071   5.599  0.2485  0.6560  0.2098
  156MOL0     C20523   1.512   2.979   5.487 -1.2734  0.6449 -0.3318
  156MOL0     C20524   1.534   2.891   5.406  0.1569 -0.2483 -0.7682
  156MOL0     C20525   0.920   2.944   5.897 -1.2248 -0.0843  0.1878
  156MOL0     C20526   0.795   2.973   5.946  0.5881 -0.2234  0.0944
  156MOL0     H20527   0.330   3.004   5.961  2.2090  1.8503  0.6795
  156MOL0     H20528   0.105   3.030   6.065  1.5744  2.2936 -1.3661
  156MOL0     H20529   0.069   2.925   6.514  0.6053 -0.9082  0.1675
  156MOL0     H20530   0.070   2.787   6.416 -0.0600  0.2096  1.4896
  156MOL0     H20531  -0.171   2.785   6.401  1.1398 -1.4309  1.2513
  156MOL0     H20532  -0.182   2.969   6.436  2.0652  1.8533  0.7135
  156MOL0     H20533  -0.110   2.945   6.650  0.6214 -0.8685  0.0328
  156MOL0     H20534  -0.094   2.774   6.641  2.3494  1.6809 -0.8687
  156MOL0     H20535  -0.304   2.847   6.758 -0.6567  3.9814  0.1933
  156MOL0     H20536  -0.352   2.939   6.619 -0.3246 -0.0441  1.7714
  156MOL0     H20537  -0.308   2.634   6.602 -0.6930 -1.3187 -0.3782
  156MOL0     H20538  -0.370   2.738   6.482  0.6718  1.8834  0.5049
  156MOL0     H20539  -0.563   2.792   6.636 -1.4357 -0.9646 -2.2290
  156MOL0     H20540  -0.490   2.689   6.765  2.5019 -0.6758  0.1587
  156MOL0     H20541  -0.605   2.599   6.490 -1.7766  0.6692  0.6896
  156MOL0     H20542  -0.492   2.500   6.595  1.0847  2.3723  0.0369
  156MOL0     H20543  -0.767   2.481   6.604 -2.1149  3.0517  0.2487
  156MOL0     H20544  -0.749   2.601   6.731 -1.1416 -1.9004  2.0308
  156MOL0     H20545  -0.476   2.506   6.875 -1.2651  0.7136  0.8669
  156MOL0     H20546  -0.486   2.266   7.105 -0.9204  1.5598  0.3783
  156MOL0     H20547  -0.349   2.306   7.006 -2.0915  1.8677  1.2518
  156MOL0     H20548  -0.369   2.058   6.908  0.4633 -0.5688  0.4237
  156MOL0     H20549  -0.520   2.044   6.993  0.4158 -0.0371  0.4448
  156MOL0     H20550  -0.263   2.100   7.138  0.1665 -0.6914 -0.8636
  156MOL0     H20551  -0.413   2.019   7.201  0.7195 -3.0238 -0.0454
  156MOL0     H20552  -0.208   1.876   7.167  1.6450  1.3942 -0.0791
  156MOL0     H20553  -0.234   1.903   6.995 -1.7629  1.2014  0.4069
  156MOL0     H20554  -0.265   1.743   6.874  0.2004  0.8090  1.5038
  156MOL0     H20555  -0.212   1.507   6.804  0.1634  0.3229 -0.5835
  156MOL0     H20556   0.019   1.223   6.681  1.6349 -1.8740 -2.9749
  156MOL0     H20557   0.089   1.039   6.555  0.7220  0.9619  1.1364
  156MOL0     H20558  -0.181   0.728   6.449 -0.7586  0.8889  2.1543
  156MOL0     H20559  -0.114   0.651   6.599  1.3211 -1.4077 -0.3713
  156MOL0     H20560   0.071   0.572   6.491  1.0767 -1.3653 -2.0661
  156MOL0     H20561   0.011   0.611   6.325 -0.0983 -2.8019 -1.1250
  156MOL0     H20562  -0.193   0.468   6.402  0.1854  1.6261  1.1016
  156MOL0     H20563  -0.092   0.417   6.537  0.7691 -1.7325 -0.2083
  156MOL0     H20564  -0.031   0.372   6.231 -0.4756 -1.9274 -0.8370
  156MOL0     H20565   0.095   0.370   6.357 -0.2844  0.3392 -1.3010
  156MOL0     H20566  -0.166   0.200   6.370  0.7344 -3.7663  1.3546
  156MOL0     H20567  -0.017   0.176   6.456  1.0994 -3.0009 -1.0856
  156MOL0     H20568   0.103   0.151   6.228 -1.6118 -0.1008  0.7727
  156MOL0     H20569  -0.065   0.137   6.169 -0.2347 -0.2974 -0.8353
  156MOL0     H20570   0.069  -0.054   6.367  1.7278  1.1436 -0.3293
  156MOL0     H20571  -0.098  -0.064   6.297  0.4481  0.8513  0.5715
  156MOL0     H20572   0.183  -0.104   6.179  0.3160  1.4471 -0.9110
  156MOL0     H20573   0.041  -0.095   6.071 -0.1335 -0.3969  0.0326
  156MOL0     H20574  -0.241   0.806   6.699 -1.1217  0.6629  1.1018
  156MOL0     H20575  -0.319   0.994   6.815 -1.4284 -2.0091 -3.1895
  156MOL0     H20576  -0.397   1.363   7.166 -1.3273 -0.0771 -0.3828
  156MOL0     H20577  -0.449   1.604   7.216 -1.6290 -0.0182 -1.0524
  156MOL0     H20578   0.276   2.947   6.444  1.1409  1.5136  0.2933
  156MOL0     H20579   0.509   2.944   6.334 -0.7275 -0.3116  0.3278
  156MOL0     H20580   0.878   3.189   6.201  1.5642 -0.5290  0.5352
  156MOL0     H20581   1.089   3.160   6.096  1.2740 -0.6257 -0.0508
  156MOL0     H20582   1.116   2.936   5.690  1.1873 -3.8861 -1.6017
  156MOL0     H20583   1.153   2.815   5.805 -0.6584  0.2566 -0.2640
  156MOL0     H20584   1.402   2.914   5.809  0.8279  0.6171 -0.8947
  156MOL0     H20585   1.336   2.848   5.659  1.0860  0.7088 -1.4786
  156MOL0     H20586   1.303   3.137   5.710 -2.4910  1.2499 -3.0671
  156MOL0     H20587   1.266   3.040   5.563 -0.4210  0.2329  0.7415
  156MOL0     H20588   1.510   3.173   5.565 -2.9396  1.4100  0.0302
  156MOL0     H20589   1.551   3.053   5.686  1.3163 -1.9484 -1.0249
  156MOL0     H20590   1.579   2.824   5.336  4.6475  1.3458  0.2284
  156MOL0     H20591   0.929   2.875   5.814  0.0410 -0.3511  0.5196
  156MOL0     H20592   0.709   2.924   5.902 -0.6411  0.2981  1.8252
  157MOL0     O20593   6.395   3.784   1.105 -0.2301 -0.4618  0.0445
  157MOL0     C20594   6.370   3.685   1.037 -0.1521  0.5916 -0.3861
  157MOL0     O20595   6.252   3.622   1.022  0.5184 -0.2565 -0.1680
  157MOL0     C20596   6.135   3.680   1.071  0.1728 -0.1708  0.8484
  157MOL0     C20597   6.118   3.751   1.190  0.4465 -0.4085  0.3679
  157MOL0     C20598   5.989   3.791   1.231 -0.3352  0.1634 -0.3550
  157MOL0     C20599   5.873   3.761   1.157 -0.1466  0.1886 -0.7326
  157MOL0     O20600   5.752   3.800   1.205 -0.6209 -0.6499 -0.4320
  157MOL0     C20601   5.633   3.770   1.124  0.4923 -0.6811 -0.2426
  157MOL0     C20602   5.516   3.858   1.174 -0.6404 -0.4533  0.8338
  157MOL0     C20603   5.532   4.008   1.135 -0.3995 -0.3031  0.5162
  157MOL0     C20604   5.404   4.087   1.154 -0.0038  1.0533 -0.4737
  157MOL0     C20605   5.426   4.242   1.144 -0.0970 -0.8829 -0.3486
  157MOL0     C20606   5.289   4.303   1.135 -0.3248 -0.0176 -0.3406
  157MOL0     C20607   5.301   4.453   1.137  0.5204  0.2229 -0.4919
  157MOL0     C20608   5.156   4.518   1.123  0.0470  0.5879 -0.0784
  157MOL0     N20609   5.105   4.490   0.986  0.2962 -0.7420 -0.2350
  157MOL0     C20610   5.016   4.396   0.940  0.0435 -0.7225  0.9444
  157MOL0     C20611   4.997   4.428   0.806  0.0452 -0.0278  1.2049
  157MOL0     C20612   4.919   4.343   0.711  0.5949  0.7599  1.0032
  157MOL0     C20613   4.782   4.305   0.754 -0.1507 -0.0015 -0.3842
  157MOL0     C20614   4.693   4.247   0.643 -0.4287 -0.5755  0.3697
  157MOL0     C20615   4.548   4.205   0.694 -0.8545  0.2700  0.9946
  157MOL0     O20616   4.471   4.313   0.752 -0.4430 -0.5336  0.9038
  157MOL0     C20617   4.343   4.291   0.803 -0.6125  0.2973  0.6713
  157MOL0     C20618   4.276   4.174   0.774  0.3469  0.0778  0.3756
  157MOL0     C20619   4.166   4.145   0.850 -0.4242 -0.5431 -1.4273
  157MOL0     C20620   4.114   4.230   0.954 -0.4523 -0.0920 -0.2431
  157MOL0     C20621   3.989   4.201   1.023  0.0916  0.5060 -0.1876
  157MOL0     O20622   3.953   4.293   1.127 -0.2839 -0.0449  0.8173
  157MOL0     C20623   3.830   4.290   1.182 -0.0542 -0.1762 -0.1243
  157MOL0     C20624   3.822   4.364   1.294 -0.3149  0.1550 -0.0329
  157MOL0     C20625   3.701   4.376   1.360 -0.4617 -0.1340  0.3030
  157MOL0     C20626   3.581   4.324   1.307  0.3352  0.2435 -0.0997
  157MOL0     O20627   3.458   4.331   1.367 -0.1794  0.0056 -0.2198
  157MOL0     C20628   3.439   4.436   1.466 -0.6028 -0.2219  0.3750
  157MOL0     C20629   3.290   4.455   1.501  0.1673 -0.8133  0.5117
  157MOL0     C20630   3.241   4.335   1.574 -0.1846  0.7045  0.1041
  157MOL0     C20631   3.111   4.355   1.643  0.4426  0.2289  0.0466
  157MOL0     C20632   2.996   4.370   1.540 -0.1804  0.3365 -0.3565
  157MOL0     C20633   2.857   4.359   1.606  0.7733 -0.4465  0.3531
  157MOL0     C20634   2.742   4.364   1.496  0.2726 -0.3390  0.6834
  157MOL0     C20635   2.606   4.322   1.554 -0.2910 -1.1648 -0.5967
  157MOL0    Cl20636   2.489   4.357   1.418  0.2832 -0.2707 -0.0394
  157MOL0     C20637   3.591   4.271   1.183  0.1649  0.1812  0.1181
  157MOL0     C20638   3.708   4.248   1.116 -0.2231  0.3120  0.5889
  157MOL0     O20639   3.919   4.113   0.979 -0.1817  0.0256  0.3557
  157MOL0     C20640   4.183   4.346   0.982  0.4266 -0.1995 -0.5327
  157MOL0     C20641   4.294   4.369   0.906 -0.1335 -0.3023  0.2679
  157MOL0     N20642   5.054   4.559   0.789  0.3836  0.7720 -0.2519
  157MOL0     N20643   5.117   4.584   0.896 -0.7634 -0.8347  0.1207
  157MOL0     C20644   5.889   3.690   1.047 -0.5486  0.5853  0.3566
  157MOL0     C20645   6.018   3.657   0.999 -0.1585 -0.2107  0.0117
  157MOL0     C20646   6.487   3.625   0.988 -0.7320 -0.3719  1.1608
  157MOL0     C20647   6.599   3.701   0.939 -0.1137 -0.4645 -0.2848
  157MOL0     C20648   6.709   3.638   0.897  0.5384  0.6834 -0.0818
  157MOL0     C20649   6.723   3.499   0.896 -0.0187 -0.2772  0.2750
  157MOL0     O20650   6.842   3.440   0.865  0.4359  0.3405  0.4476
  157MOL0     C20651   6.955   3.515   0.822  0.8298  0.7856  0.5576
  157MOL0     C20652   7.088   3.419   0.830  1.1448 -0.1318 -0.2464
  157MOL0     C20653   7.108   3.350   0.971 -0.0604 -0.1236 -0.4507
  157MOL0     C20654   7.208   3.235   0.956 -0.0584 -0.2087 -0.3036
  157MOL0     C20655   7.346   3.279   0.919 -0.8148 -0.3403 -0.2814
  157MOL0     C20656   7.448   3.327   0.873  0.3469  0.3230 -0.2805
  157MOL0     C20657   6.623   3.431   0.962  0.4164  0.4863  0.2859
  157MOL0     C20658   6.504   3.490   1.003 -0.3529 -0.7842 -0.1139
  157MOL0     H20659   6.202   3.781   1.252 -0.7008  1.8784  0.9433
  157MOL0     H20660   5.980   3.848   1.323 -3.6104  1.2772 -1.2324
  157MOL0     H20661   5.612   3.664   1.138  1.4865 -0.7417  0.8466
  157MOL0     H20662   5.642   3.801   1.019  0.3501  2.4386  0.5597
  157MOL0     H20663   5.498   3.849   1.281  0.9225 -0.1727  1.1430
  157MOL0     H20664   5.433   3.804   1.126  0.0806 -0.2772 -0.6649
  157MOL0     H20665   5.565   4.011   1.031 -0.1834 -0.3927  0.5809
  157MOL0     H20666   5.620   4.051   1.184 -1.2651  1.8946  0.2708
  157MOL0     H20667   5.339   4.054   1.072  1.8995  0.2977 -1.7332
  157MOL0     H20668   5.358   4.068   1.252  0.8810  2.9094  0.3535
  157MOL0     H20669   5.493   4.271   1.062  1.8556  1.5170  1.9009
  157MOL0     H20670   5.485   4.281   1.227 -1.3734  2.7228 -1.0043
  157MOL0     H20671   5.244   4.273   1.230  1.3729  1.4447  0.9996
  157MOL0     H20672   5.229   4.268   1.050  1.6520  1.4307 -2.4478
  157MOL0     H20673   5.346   4.498   1.227 -1.4671  3.0451 -0.7714
  157MOL0     H20674   5.362   4.491   1.054 -0.7821  1.2744 -1.0131
  157MOL0     H20675   5.159   4.626   1.137  1.3677  0.6879 -0.9196
  157MOL0     H20676   5.083   4.476   1.193 -0.2521  1.7666  0.3311
  157MOL0     H20677   4.979   4.304   0.983 -1.5730 -0.7692 -0.4582
  157MOL0     H20678   4.975   4.251   0.688 -1.2107 -0.7469  2.3223
  157MOL0     H20679   4.914   4.408   0.624  3.4526  1.1401  1.0203
  157MOL0     H20680   4.740   4.397   0.796  0.1928 -0.9808  2.2573
  157MOL0     H20681   4.787   4.234   0.837 -0.7062  2.9292  2.3711
  157MOL0     H20682   4.685   4.324   0.565 -0.2448 -1.8520 -0.9582
  157MOL0     H20683   4.727   4.157   0.591 -2.2867 -0.3494 -1.3727
  157MOL0     H20684   4.567   4.134   0.774  0.9664  1.3304  1.5911
  157MOL0     H20685   4.497   4.154   0.612  2.8447 -1.1230 -0.6869
  157MOL0     H20686   4.317   4.106   0.700 -0.9039  1.3306 -1.5576
  157MOL0     H20687   4.108   4.055   0.831 -2.0782  0.7007 -2.5379
  157MOL0     H20688   3.911   4.419   1.327 -0.1562  0.5401 -1.0690
  157MOL0     H20689   3.706   4.436   1.451  6.1323  1.4706 -0.6182
  157MOL0     H20690   3.484   4.530   1.433  0.3839 -0.3984  1.1821
  157MOL0     H20691   3.490   4.411   1.559  0.4855  0.2490 -0.0791
  157MOL0     H20692   3.226   4.476   1.414  1.3468  1.7418  0.1329
  157MOL0     H20693   3.283   4.546   1.561  0.9953 -0.0500 -0.4895
  157MOL0     H20694   3.313   4.313   1.654  1.0848  0.3180 -1.0951
  157MOL0     H20695   3.234   4.249   1.508 -3.3180  0.3006  0.8397
  157MOL0     H20696   3.099   4.263   1.703  2.8500 -1.8993 -2.4810
  157MOL0     H20697   3.101   4.436   1.716 -1.6173  1.4449 -1.4914
  157MOL0     H20698   3.004   4.308   1.450  2.7119  0.4181 -0.2493
  157MOL0     H20699   3.011   4.473   1.507  6.4223  0.8023  2.4214
  157MOL0     H20700   2.836   4.439   1.677  1.2368  0.4901 -0.5373
  157MOL0     H20701   2.856   4.263   1.658  1.1322 -0.4676  0.3230
  157MOL0     H20702   2.725   4.468   1.465 -1.6692 -0.3143  1.7076
  157MOL0     H20703   2.766   4.305   1.407 -0.4589  2.6284 -1.6781
  157MOL0     H20704   2.586   4.387   1.640  2.0251  0.3331 -1.1011
  157MOL0     H20705   2.615   4.217   1.583 -0.0911 -1.2990 -1.1374
  157MOL0     H20706   3.503   4.231   1.133 -0.5223 -0.4677  1.7691
  157MOL0     H20707   3.694   4.194   1.023 -2.3642  1.3873  0.2230
  157MOL0     H20708   4.159   4.419   1.059  2.4635  0.8462 -0.8044
  157MOL0     H20709   4.347   4.463   0.918  1.1311 -0.6876 -1.8037
  157MOL0     H20710   5.802   3.650   0.996  1.3423 -1.6460 -1.4057
  157MOL0     H20711   6.027   3.600   0.906  1.3124 -0.8902  0.5485
  157MOL0     H20712   6.591   3.809   0.937 -0.1173 -0.3784  1.8386
  157MOL0     H20713   6.790   3.706   0.873 -0.2064  2.0286  1.1089
  157MOL0     H20714   6.985   3.595   0.889 -1.3696  0.9832  1.3837
  157MOL0     H20715   6.937   3.547   0.719  0.6909  0.6724  0.5471
  157MOL0     H20716   7.074   3.337   0.759 -1.6418 -0.2170  0.2706
  157MOL0     H20717   7.178   3.478   0.811  1.1275 -0.4353 -1.3382
  157MOL0     H20718   7.013   3.307   1.004  0.5306 -1.6138 -0.5990
  157MOL0     H20719   7.150   3.422   1.041  0.5190 -0.4609 -0.4398
  157MOL0     H20720   7.214   3.185   1.054  1.8058 -0.8057 -0.6771
  157MOL0     H20721   7.179   3.167   0.876 -0.3000 -1.7070  0.9983
  157MOL0     H20722   7.537   3.361   0.824 -1.4023  1.6206 -2.7768
  157MOL0     H20723   6.633   3.328   0.996 -1.4542 -0.4720 -1.8383
  157MOL0     H20724   6.427   3.430   1.051 -1.9610  0.2998 -1.2288
  158MOL0     O20725   2.980   5.379   8.279 -0.4064  0.1624 -0.0269
  158MOL0     C20726   3.061   5.320   8.354 -0.4507 -0.0995  0.4989
  158MOL0     O20727   3.032   5.219   8.440  0.2392  0.2769 -0.1009
  158MOL0     C20728   2.912   5.158   8.425  0.5316  0.1467  0.1361
  158MOL0     C20729   2.800   5.195   8.499  0.1522  0.0063 -0.1192
  158MOL0     C20730   2.679   5.118   8.499  0.2625 -0.0421  0.1031
  158MOL0     C20731   2.669   5.009   8.406  0.0003  0.1858 -0.6139
  158MOL0     O20732   2.546   4.949   8.402  0.1850 -0.5220 -0.1527
  158MOL0     C20733   2.523   4.845   8.299 -0.3631 -0.0782  0.8378
  158MOL0     C20734   2.370   4.838   8.281  0.2828 -0.0845 -0.3665
  158MOL0     C20735   2.320   4.694   8.271 -0.6818  0.4928  0.2903
  158MOL0     C20736   2.177   4.696   8.226  0.9279  0.1436  0.8789
  158MOL0     C20737   2.114   4.558   8.221 -0.3336  0.6351 -0.0186
  158MOL0     C20738   1.959   4.554   8.198  0.3031  0.7829  0.6533
  158MOL0     C20739   1.896   4.413   8.162  0.1570  0.3174  0.3375
  158MOL0     C20740   1.917   4.310   8.283 -0.3213  0.5704 -0.1408
  158MOL0     N20741   1.798   4.218   8.288  0.0578  0.1698 -0.1997
  158MOL0     C20742   1.665   4.242   8.328  0.0900 -0.5517  0.2095
  158MOL0     C20743   1.607   4.120   8.297  0.6375 -0.0666 -0.1068
  158MOL0     C20744   1.466   4.080   8.348 -0.0452 -0.2835  0.0229
  158MOL0     C20745   1.476   4.061   8.504  0.0661  0.5204  0.0825
  158MOL0     C20746   1.333   4.054   8.566  1.1319  0.3197 -0.0194
  158MOL0     C20747   1.345   4.047   8.709  0.4237 -1.3686  0.0988
  158MOL0     O20748   1.239   3.977   8.764 -0.1029 -0.0675 -0.0788
  158MOL0     C20749   1.124   4.035   8.808 -0.2665  0.6911  0.4928
  158MOL0     C20750   1.022   3.948   8.831  0.2375  0.8884  0.0340
  158MOL0     C20751   0.901   3.990   8.889 -0.0302  0.2092  0.2986
  158MOL0     C20752   0.865   4.124   8.913  0.0115  0.1780 -0.1840
  158MOL0     C20753   0.728   4.156   8.972 -0.6365 -0.4108  0.1836
  158MOL0     O20754   0.633   4.065   8.953 -0.0499  0.5892  0.3224
  158MOL0     C20755   0.522   4.064   9.030 -0.1921 -0.1580 -0.5914
  158MOL0     C20756   0.397   4.058   8.965  0.5334  0.5716  0.1935
  158MOL0     C20757   0.285   4.024   9.042 -0.0055 -0.1043  0.2591
  158MOL0     C20758   0.296   4.013   9.185 -0.1019  0.1881 -0.3746
  158MOL0     O20759   0.194   3.965   9.255  0.7503  0.6035 -0.2046
  158MOL0     C20760   0.054   3.998   9.218  0.3198  0.6403 -0.0918
  158MOL0     C20761  -0.027   3.978   9.351  0.2720 -0.4917 -0.3477
  158MOL0     C20762  -0.181   3.986   9.327 -0.5786 -0.3898 -0.3744
  158MOL0     C20763  -0.261   4.010   9.460 -0.4063 -0.0563 -0.6230
  158MOL0     C20764  -0.414   4.034   9.438 -0.1417 -0.0783 -0.2700
  158MOL0     C20765  -0.487   3.897   9.391 -0.3186 -0.3161 -0.9970
  158MOL0     C20766  -0.633   3.905   9.351  0.0720 -0.1294  0.2503
  158MOL0     C20767  -0.723   3.927   9.472  0.0614 -0.3524 -0.1400
  158MOL0    Cl20768  -0.888   3.972   9.411  0.5800  0.7620  0.3521
  158MOL0     C20769   0.415   4.031   9.252  0.6660  0.3491  0.6275
  158MOL0     C20770   0.529   4.055   9.170 -0.1385 -0.5221 -0.4157
  158MOL0     O20771   0.718   4.256   9.040 -0.0706  0.1385  0.6638
  158MOL0     C20772   0.972   4.215   8.886 -0.9824  0.1916  0.1310
  158MOL0     C20773   1.095   4.169   8.837 -0.2066  0.6647  0.8786
  158MOL0     N20774   1.692   4.032   8.230 -0.0037  0.2717 -0.1261
  158MOL0     N20775   1.810   4.093   8.236 -0.0106 -0.1566  0.5598
  158MOL0     C20776   2.786   4.980   8.336  0.0683  0.0643 -0.4152
  158MOL0     C20777   2.904   5.039   8.360  0.3366  0.0327 -0.2003
  158MOL0     C20778   3.199   5.369   8.361  0.6540  0.3308 -0.4572
  158MOL0     C20779   3.296   5.293   8.425 -0.1774  0.4929  0.3617
  158MOL0     C20780   3.422   5.332   8.462 -0.0934  0.2239  0.6816
  158MOL0     C20781   3.459   5.461   8.413  0.5802 -0.1207 -0.2348
  158MOL0     O20782   3.584   5.502   8.457  0.2411  0.0174 -0.3199
  158MOL0     C20783   3.625   5.615   8.390  0.3975  1.1818 -0.3815
  158MOL0     C20784   3.770   5.640   8.427 -0.1558  0.4507 -0.5138
  158MOL0     C20785   3.862   5.533   8.379  0.2106  0.3104  0.3039
  158MOL0     C20786   3.871   5.428   8.501 -0.1001  0.1523  0.1363
  158MOL0     C20787   3.956   5.311   8.465 -0.4979 -0.8232  0.1927
  158MOL0     C20788   4.022   5.217   8.432 -0.3943 -0.0472  0.0962
  158MOL0     C20789   3.369   5.535   8.331  0.1356  0.0734  0.0487
  158MOL0     C20790   3.242   5.496   8.309  0.4980 -0.2518 -0.8609
  158MOL0     H20791   2.801   5.289   8.552 -2.2045  2.4117 -3.9221
  158MOL0     H20792   2.591   5.160   8.546 -2.2117  1.0350 -4.8354
  158MOL0     H20793   2.566   4.745   8.307  2.2241  0.5513 -2.8022
  158MOL0     H20794   2.563   4.886   8.206 -1.0978  2.3103  1.4755
  158MOL0     H20795   2.343   4.897   8.193  0.5668  0.9377  0.2115
  158MOL0     H20796   2.320   4.878   8.370  1.1888  0.1849  0.0379
  158MOL0     H20797   2.324   4.654   8.373 -0.6340  0.3761  0.2428
  158MOL0     H20798   2.387   4.639   8.203 -0.5715  2.6309 -1.4687
  158MOL0     H20799   2.111   4.761   8.284  0.2263  0.6897 -0.5046
  158MOL0     H20800   2.169   4.739   8.126 -0.5288 -0.0615  0.8885
  158MOL0     H20801   2.139   4.494   8.306 -1.3874 -1.0922 -0.9461
  158MOL0     H20802   2.153   4.502   8.135 -0.8745  0.2860 -0.0413
  158MOL0     H20803   1.938   4.630   8.122  1.6803  2.0134  1.4450
  158MOL0     H20804   1.909   4.589   8.289  0.2769 -2.0652  1.8221
  158MOL0     H20805   1.789   4.421   8.143  0.5630  3.1857 -1.3575
  158MOL0     H20806   1.940   4.368   8.073 -3.7875  0.7278 -2.0500
  158MOL0     H20807   1.934   4.363   8.377 -0.4348 -1.1121  0.8579
  158MOL0     H20808   2.007   4.249   8.268 -0.1742  0.6493  0.4172
  158MOL0     H20809   1.626   4.326   8.386  0.8745  0.2882 -0.4582
  158MOL0     H20810   1.454   3.977   8.311  2.3528 -0.3325 -0.7416
  158MOL0     H20811   1.383   4.146   8.321 -0.7158  0.6703  3.7680
  158MOL0     H20812   1.524   4.148   8.550  1.3981 -0.4518  0.6029
  158MOL0     H20813   1.542   3.981   8.540  0.7409  0.8123 -0.4721
  158MOL0     H20814   1.267   4.138   8.540  0.0137 -0.5026  0.0793
  158MOL0     H20815   1.284   3.959   8.542  1.9140  0.0062 -0.3820
  158MOL0     H20816   1.363   4.146   8.752 -1.4354 -0.4945 -1.0204
  158MOL0     H20817   1.437   3.992   8.735  0.8420 -0.3500  0.8335
  158MOL0     H20818   1.039   3.841   8.820  0.6811  0.9090  0.4884
  158MOL0     H20819   0.834   3.907   8.906  0.0796 -0.1674 -1.0147
  158MOL0     H20820   0.384   4.060   8.858 -0.0556 -1.2915  0.2015
  158MOL0     H20821   0.190   4.020   8.989  0.0327  0.6651  0.1117
  158MOL0     H20822   0.014   3.930   9.141 -0.4755  0.8403  0.1371
  158MOL0     H20823   0.036   4.101   9.186 -2.0069 -0.0082 -1.1213
  158MOL0     H20824   0.000   4.051   9.427 -2.7543  1.0064 -0.5503
  158MOL0     H20825   0.004   3.882   9.392  2.0512  0.0772 -0.2678
  158MOL0     H20826  -0.210   3.889   9.286  3.7481 -2.5978  1.0701
  158MOL0     H20827  -0.213   4.067   9.262 -1.0551 -0.9590 -0.8484
  158MOL0     H20828  -0.250   3.931   9.535  1.8595  1.0119  0.2480
  158MOL0     H20829  -0.229   4.109   9.494 -1.7970  0.9336 -2.0355
  158MOL0     H20830  -0.430   4.108   9.360 -1.9968 -2.5446 -2.4132
  158MOL0     H20831  -0.457   4.070   9.533 -0.2155  0.1384 -0.3840
  158MOL0     H20832  -0.480   3.830   9.476 -0.4266  0.4036 -0.4093
  158MOL0     H20833  -0.431   3.857   9.306  0.0860  1.0677 -1.4128
  158MOL0     H20834  -0.644   3.975   9.267 -1.1783 -1.9751 -1.2040
  158MOL0     H20835  -0.655   3.812   9.298 -0.4858 -0.3492  0.8623
  158MOL0     H20836  -0.677   4.006   9.532  0.6898 -0.1685 -0.8643
  158MOL0     H20837  -0.712   3.838   9.535  2.1704  0.8231  1.2794
  158MOL0     H20838   0.415   4.021   9.360 -1.6635  1.4665  0.8019
  158MOL0     H20839   0.623   4.064   9.224  0.3276  2.5313 -1.5522
  158MOL0     H20840   0.948   4.319   8.907 -3.0513  0.5588 -3.2044
  158MOL0     H20841   1.169   4.245   8.814 -1.0223  1.7885  1.7914
  158MOL0     H20842   2.786   4.892   8.272 -2.6328  0.6028 -1.2519
  158MOL0     H20843   2.997   5.020   8.307  0.8256  3.6075 -0.8720
  158MOL0     H20844   3.265   5.192   8.449 -0.9237  0.8271  0.8220
  158MOL0     H20845   3.480   5.269   8.529 -0.2029 -0.1164  0.4595
  158MOL0     H20846   3.561   5.700   8.415 -0.0670  0.2822  1.6819
  158MOL0     H20847   3.621   5.608   8.281  1.9138  1.3734 -0.4722
  158MOL0     H20848   3.803   5.739   8.392  3.8729 -0.3138  0.5318
  158MOL0     H20849   3.781   5.653   8.535  0.5509  1.4274 -0.6838
  158MOL0     H20850   3.960   5.575   8.355  0.5554 -0.3659  0.4956
  158MOL0     H20851   3.811   5.498   8.288 -0.7078  0.1886  0.8535
  158MOL0     H20852   3.930   5.466   8.585  1.4648  0.9155 -1.2431
  158MOL0     H20853   3.772   5.399   8.536  1.2530 -2.1111  2.3564
  158MOL0     H20854   4.087   5.139   8.397  0.7514  0.5481  0.8138
  158MOL0     H20855   3.407   5.617   8.271  1.5497 -0.4095  0.2539
  158MOL0     H20856   3.174   5.558   8.252 -0.2233  2.2034  2.3696
  159MOL0     O20857   0.318   3.447   4.071 -0.8469  0.2931  0.4736
  159MOL0     C20858   0.411   3.405   4.149  0.6354 -0.0337  0.4021
  159MOL0     O20859   0.406   3.405   4.287 -0.2318  0.6198 -0.8494
  159MOL0     C20860   0.292   3.435   4.362 -0.1345  0.1926  0.4406
  159MOL0     C20861   0.159   3.439   4.317  0.2956  1.0324 -0.0153
  159MOL0     C20862   0.051   3.462   4.403  0.0869  0.4324 -0.7606
  159MOL0     C20863   0.084   3.526   4.522 -0.3995  0.3395 -0.1595
  159MOL0     O20864  -0.014   3.584   4.593 -0.3365  0.0765 -0.1056
  159MOL0     C20865  -0.037   3.530   4.717 -0.3899 -0.0241 -0.0598
  159MOL0     C20866  -0.169   3.439   4.704 -0.3982  0.5894  0.0146
  159MOL0     C20867  -0.299   3.506   4.766  0.0209  0.2988 -0.1078
  159MOL0     C20868  -0.430   3.470   4.686 -0.0251  0.4993 -0.3543
  159MOL0     C20869  -0.481   3.331   4.741  0.3268  0.5931  1.1051
  159MOL0     C20870  -0.617   3.302   4.681 -0.6839 -0.2746  0.7495
  159MOL0     C20871  -0.685   3.169   4.721 -0.7562  0.8181  0.1355
  159MOL0     C20872  -0.786   3.190   4.837  0.5253 -0.3118  0.2372
  159MOL0     N20873  -0.896   3.262   4.782 -0.6263 -0.4798 -0.6461
  159MOL0     C20874  -1.011   3.220   4.716 -0.1413  0.1579  0.2802
  159MOL0     C20875  -1.084   3.325   4.690  0.3128 -0.1987  0.1762
  159MOL0     C20876  -1.222   3.323   4.611 -0.6490  0.2189  0.2204
  159MOL0     C20877  -1.287   3.467   4.591 -0.3827 -0.5811  0.1403
  159MOL0     C20878  -1.425   3.468   4.525  0.0938 -0.1233 -0.2914
  159MOL0     C20879  -1.531   3.431   4.627  0.6242 -0.2673 -0.1426
  159MOL0     O20880  -1.656   3.438   4.554 -0.1013 -0.2049 -1.1525
  159MOL0     C20881  -1.766   3.470   4.640 -0.7550 -0.0923  0.1454
  159MOL0     C20882  -1.766   3.430   4.773 -0.9009  0.3393  0.2025
  159MOL0     C20883  -1.873   3.456   4.858  0.8609 -0.0882  0.2374
  159MOL0     C20884  -1.981   3.538   4.816  0.5698 -0.1471  0.4690
  159MOL0     C20885  -2.091   3.576   4.904 -0.7472 -0.1719 -0.2494
  159MOL0     O20886  -2.203   3.632   4.854  0.0153  1.0230  0.7906
  159MOL0     C20887  -2.298   3.673   4.942 -0.3585  0.2605  0.6643
  159MOL0     C20888  -2.417   3.594   4.933  0.6199  0.0026  0.4193
  159MOL0     C20889  -2.524   3.646   5.011 -0.2297 -0.6024 -0.5733
  159MOL0     C20890  -2.499   3.752   5.103 -0.3701 -0.2809  0.1958
  159MOL0     O20891  -2.587   3.803   5.194 -0.0079  0.5811  0.0835
  159MOL0     C20892  -2.726   3.770   5.166  0.1909  0.5606  0.0043
  159MOL0     C20893  -2.819   3.803   5.282 -0.8802 -0.6850  0.5404
  159MOL0     C20894  -2.953   3.743   5.281  0.5853 -0.0830 -0.8188
  159MOL0     C20895  -3.038   3.780   5.413 -0.2991 -0.3887 -0.6038
  159MOL0     C20896  -3.173   3.734   5.385  0.5705  0.1367 -0.0105
  159MOL0     C20897  -3.275   3.796   5.479  0.3772  0.0724  0.8797
  159MOL0     C20898  -3.313   3.930   5.437 -0.5964 -0.0974  0.0944
  159MOL0     C20899  -3.435   3.981   5.512  0.0469 -1.2872  0.4817
  159MOL0    Cl20900  -3.463   4.143   5.436  0.4215  0.1186 -0.3080
  159MOL0     C20901  -2.381   3.832   5.099  0.0249  0.3860 -0.4789
  159MOL0     C20902  -2.283   3.782   5.018 -0.0891  0.6939 -0.3747
  159MOL0     O20903  -2.082   3.548   5.020 -1.1477  0.6545  0.3393
  159MOL0     C20904  -1.973   3.577   4.682 -0.6191 -0.0857  0.0220
  159MOL0     C20905  -1.877   3.539   4.594 -0.4275 -0.0224  0.4548
  159MOL0     N20906  -1.024   3.430   4.747 -0.4219  0.3190 -0.7524
  159MOL0     N20907  -0.914   3.397   4.804  0.4508 -0.6581  0.0254
  159MOL0     C20908   0.213   3.538   4.565  0.4111 -0.0766 -0.6814
  159MOL0     C20909   0.316   3.481   4.493 -0.5015 -0.4197  0.4922
  159MOL0     C20910   0.545   3.375   4.081  0.2174 -0.5729 -0.3870
  159MOL0     C20911   0.645   3.324   4.160 -0.6871 -0.4079  0.1051
  159MOL0     C20912   0.785   3.320   4.109  0.0955  0.3318  0.8128
  159MOL0     C20913   0.807   3.353   3.969 -0.5428 -0.8388 -0.0281
  159MOL0     O20914   0.922   3.314   3.915 -0.6124 -0.2702  0.1608
  159MOL0     C20915   1.019   3.417   3.892 -0.3235 -0.6970 -0.7301
  159MOL0     C20916   1.034   3.432   3.737  0.1152  0.1559 -0.3014
  159MOL0     C20917   1.123   3.554   3.704 -0.4188 -0.1017 -0.2791
  159MOL0     C20918   1.114   3.574   3.549 -0.2805  0.4931  0.6531
  159MOL0     C20919   1.223   3.670   3.511 -0.2617  0.9556 -0.1578
  159MOL0     C20920   1.312   3.749   3.481  0.2047 -0.5083  0.3507
  159MOL0     C20921   0.699   3.392   3.894 -0.3818  0.2384 -0.2634
  159MOL0     C20922   0.577   3.406   3.949 -0.1943 -0.1792  0.7809
  159MOL0     H20923   0.130   3.403   4.218 -0.3603 -1.1357  0.8911
  159MOL0     H20924  -0.052   3.447   4.373 -0.9993  1.8227  1.8950
  159MOL0     H20925  -0.046   3.611   4.790  2.3087  0.9504 -0.6932
  159MOL0     H20926   0.050   3.473   4.752  0.8643  1.1951 -1.0578
  159MOL0     H20927  -0.159   3.339   4.748  0.9913 -0.6540 -2.8753
  159MOL0     H20928  -0.183   3.414   4.599 -0.9504  0.1464  0.1907
  159MOL0     H20929  -0.294   3.615   4.759 -1.5743  0.5130  1.2271
  159MOL0     H20930  -0.310   3.474   4.870 -1.4802  1.3467  0.0910
  159MOL0     H20931  -0.500   3.553   4.696 -0.7387 -0.1389  0.0520
  159MOL0     H20932  -0.413   3.450   4.580 -1.9658  2.6319 -1.1394
  159MOL0     H20933  -0.494   3.334   4.850 -0.3317 -2.1920  1.1837
  159MOL0     H20934  -0.402   3.258   4.719  0.8290 -0.1291  4.6419
  159MOL0     H20935  -0.609   3.300   4.572 -0.5096  1.3970  0.7109
  159MOL0     H20936  -0.685   3.386   4.698  1.0010  0.8248  2.4117
  159MOL0     H20937  -0.734   3.118   4.638 -0.6743  0.4184  0.3299
  159MOL0     H20938  -0.603   3.099   4.738  0.2104  1.9612  0.2743
  159MOL0     H20939  -0.737   3.249   4.915  1.1965 -2.1920  1.2801
  159MOL0     H20940  -0.817   3.097   4.885  1.2014 -0.2214  0.8626
  159MOL0     H20941  -1.039   3.122   4.678 -2.6836  0.9831 -0.2181
  159MOL0     H20942  -1.291   3.258   4.666 -0.7905  2.5076  3.0069
  159MOL0     H20943  -1.202   3.291   4.509 -1.6073  1.2780 -0.3151
  159MOL0     H20944  -1.219   3.527   4.530  0.2828 -1.1151  0.3364
  159MOL0     H20945  -1.290   3.525   4.684 -0.3551 -1.4910  0.7283
  159MOL0     H20946  -1.448   3.569   4.490  2.8606  0.5510 -0.4175
  159MOL0     H20947  -1.439   3.407   4.436 -0.7785 -0.6016  0.1556
  159MOL0     H20948  -1.517   3.499   4.711  1.0380 -1.5991  0.8980
  159MOL0     H20949  -1.507   3.329   4.659  0.4188 -0.5656 -0.9105
  159MOL0     H20950  -1.679   3.387   4.822  0.2671  3.1243  0.7389
  159MOL0     H20951  -1.856   3.414   4.957 -0.6451 -1.4904 -0.0475
  159MOL0     H20952  -2.425   3.498   4.883  0.3331  0.5689 -0.6623
  159MOL0     H20953  -2.619   3.595   5.018 -1.2479  1.4452  2.1226
  159MOL0     H20954  -2.732   3.661   5.161  1.0413  0.5433 -1.3415
  159MOL0     H20955  -2.768   3.812   5.073  0.9502 -0.4363 -0.8129
  159MOL0     H20956  -2.809   3.911   5.283  2.7248 -0.8507 -0.7999
  159MOL0     H20957  -2.776   3.769   5.377  3.0263 -2.5036 -1.6041
  159MOL0     H20958  -2.941   3.634   5.275  1.6322 -0.0711  0.5666
  159MOL0     H20959  -3.005   3.777   5.191  0.2856  1.3705 -0.1315
  159MOL0     H20960  -2.997   3.732   5.502 -3.3070 -0.4717  0.8357
  159MOL0     H20961  -3.029   3.889   5.409  0.9557 -0.3741  1.3533
  159MOL0     H20962  -3.173   3.626   5.395  2.4150  0.1040 -0.0642
  159MOL0     H20963  -3.204   3.750   5.281 -0.2562 -0.3328  0.1534
  159MOL0     H20964  -3.236   3.790   5.582 -0.7200  0.7804  1.3542
  159MOL0     H20965  -3.364   3.732   5.481 -0.1599  0.7776  3.2323
  159MOL0     H20966  -3.228   3.999   5.446 -1.3151  0.7861  0.2700
  159MOL0     H20967  -3.338   3.920   5.331 -0.8083 -1.4609  0.2557
  159MOL0     H20968  -3.425   3.980   5.621 -0.3783  0.5276  0.5640
  159MOL0     H20969  -3.522   3.919   5.488 -0.9356 -0.5974  2.1113
  159MOL0     H20970  -2.356   3.917   5.162  2.2302  2.1519 -3.4571
  159MOL0     H20971  -2.193   3.843   5.017  1.1047 -0.9292 -2.1272
  159MOL0     H20972  -2.048   3.638   4.632  2.2173  2.1420 -1.8142
  159MOL0     H20973  -1.872   3.572   4.490  0.0862 -1.7903 -0.1084
  159MOL0     H20974   0.237   3.589   4.657 -2.5648 -0.2929  0.3296
  159MOL0     H20975   0.419   3.498   4.522 -0.2455 -0.9147 -0.0864
  159MOL0     H20976   0.618   3.289   4.259 -1.6497 -1.7087 -0.5818
  159MOL0     H20977   0.871   3.274   4.158 -0.7330  0.2791  2.2621
  159MOL0     H20978   1.108   3.378   3.943 -0.7716 -0.9860 -0.1680
  159MOL0     H20979   0.985   3.516   3.924 -0.7095 -0.7878 -0.8601
  159MOL0     H20980   1.062   3.340   3.686  0.1218  0.9005 -1.6883
  159MOL0     H20981   0.939   3.452   3.686  0.4754 -1.8724 -1.8534
  159MOL0     H20982   1.224   3.523   3.731 -0.4114 -2.2331 -2.3803
  159MOL0     H20983   1.090   3.644   3.756  0.7158  0.5435 -0.6390
  159MOL0     H20984   1.129   3.475   3.504  0.2315 -0.2720  2.4247
  159MOL0     H20985   1.013   3.608   3.524  1.1803  2.9961 -2.3544
  159MOL0     H20986   1.396   3.813   3.465 -1.0935  1.1223 -0.1826
  159MOL0     H20987   0.710   3.398   3.786 -1.7757 -0.1775 -0.4473
  159MOL0     H20988   0.497   3.451   3.892  1.3214  1.8372  0.1183
  160MOL0     O20989   9.048   3.148   2.326 -0.7527 -0.5204  0.6091
  160MOL0     C20990   9.082   3.207   2.426  0.6495  0.2325  0.1709
  160MOL0     O20991   9.002   3.285   2.509 -0.3410  0.0740 -0.2108
  160MOL0     C20992   8.885   3.315   2.463 -0.0545  0.1479  0.4115
  160MOL0     C20993   8.787   3.223   2.410 -0.8065 -0.3387  0.2618
  160MOL0     C20994   8.668   3.268   2.355  0.4558 -0.4333 -0.4396
  160MOL0     C20995   8.635   3.405   2.371 -0.7725  0.3225  0.4440
  160MOL0     O20996   8.517   3.443   2.310  0.0704  0.8060  0.5670
  160MOL0     C20997   8.494   3.424   2.174 -0.7057 -0.2316  0.0308
  160MOL0     C20998   8.346   3.391   2.148  0.1928 -0.7890  0.6196
  160MOL0     C20999   8.323   3.378   1.990  0.1095  0.2199  0.0039
  160MOL0     C21000   8.174   3.399   1.974  0.5272  0.5897  0.1732
  160MOL0     C21001   8.122   3.391   1.830  0.3926 -0.1470 -0.5819
  160MOL0     C21002   8.173   3.270   1.759  0.3620 -0.8520  0.7685
  160MOL0     C21003   8.124   3.253   1.618 -0.3679  0.2724 -0.6187
  160MOL0     C21004   7.992   3.176   1.612 -0.3004 -0.4638 -0.0196
  160MOL0     N21005   7.881   3.268   1.585 -0.1756  0.1069  0.4003
  160MOL0     C21006   7.761   3.272   1.659 -0.2563 -0.3364 -0.6632
  160MOL0     C21007   7.671   3.327   1.585 -0.7735  0.3524 -0.2120
  160MOL0     C21008   7.534   3.369   1.625 -0.0779  0.2539  0.0961
  160MOL0     C21009   7.525   3.513   1.669  0.4404 -0.8116  0.5255
  160MOL0     C21010   7.409   3.539   1.762  0.2520  0.4107 -0.2167
  160MOL0     C21011   7.279   3.524   1.695  0.4097 -0.2297  0.9228
  160MOL0     O21012   7.172   3.537   1.795  0.5665 -0.3498  0.2530
  160MOL0     C21013   7.053   3.587   1.757  0.5908 -1.3078  0.1064
  160MOL0     C21014   6.973   3.638   1.862  0.4066 -0.6010 -0.5528
  160MOL0     C21015   6.839   3.680   1.825 -0.3805  0.5237  0.7113
  160MOL0     C21016   6.784   3.673   1.696 -0.4555 -0.5215  0.0930
  160MOL0     C21017   6.654   3.736   1.672  0.0159 -0.2068 -0.7413
  160MOL0     O21018   6.607   3.823   1.772  0.4656 -1.0916 -0.7249
  160MOL0     C21019   6.484   3.880   1.738  0.1571 -0.3176 -0.8932
  160MOL0     C21020   6.481   4.018   1.709 -0.0990 -0.4329  0.3790
  160MOL0     C21021   6.360   4.088   1.688  0.5031  0.4910 -0.2459
  160MOL0     C21022   6.242   4.012   1.690  0.3790 -0.0062  0.6362
  160MOL0     O21023   6.116   4.061   1.682  0.1558 -0.8304 -0.4695
  160MOL0     C21024   6.105   4.186   1.748 -0.1385  0.1544  0.0214
  160MOL0     C21025   5.951   4.201   1.770 -0.2132  0.5411 -1.0354
  160MOL0     C21026   5.901   4.350   1.774  0.3349  0.7657  0.3957
  160MOL0     C21027   5.751   4.348   1.812  1.0072  0.4085 -0.1929
  160MOL0     C21028   5.681   4.473   1.779  0.2805 -0.4264  0.1903
  160MOL0     C21029   5.543   4.490   1.839 -0.6550  0.4336  0.3463
  160MOL0     C21030   5.527   4.506   1.986 -0.1256  0.4785  0.4928
  160MOL0     C21031   5.406   4.595   2.021 -0.0263 -0.2840  0.0200
  160MOL0    Cl21032   5.413   4.762   1.972  0.1099  0.1340  0.1779
  160MOL0     C21033   6.255   3.869   1.707  0.9090 -0.2161 -0.1991
  160MOL0     C21034   6.368   3.807   1.743  0.4184  0.3565  0.6915
  160MOL0     O21035   6.598   3.708   1.568  0.1684  0.4871 -0.5415
  160MOL0     C21036   6.861   3.623   1.595 -0.0807 -0.3034 -1.9262
  160MOL0     C21037   6.998   3.580   1.622  0.4726  0.1706 -0.2189
  160MOL0     N21038   7.729   3.345   1.460  0.3732  0.1697  0.7491
  160MOL0     N21039   7.852   3.318   1.458 -0.1472 -0.3765 -0.3709
  160MOL0     C21040   8.722   3.498   2.432  0.0931  0.2992 -0.6348
  160MOL0     C21041   8.849   3.453   2.479  0.1620  0.8586 -0.2365
  160MOL0     C21042   9.234   3.203   2.455 -0.7385 -0.4859  0.3643
  160MOL0     C21043   9.322   3.138   2.362  0.3647  0.5890 -0.4452
  160MOL0     C21044   9.460   3.130   2.378  0.1180 -0.5537  0.8781
  160MOL0     C21045   9.515   3.190   2.495  0.7907 -0.0650  0.1028
  160MOL0     O21046   9.643   3.206   2.516 -0.2362 -0.0111  0.4907
  160MOL0     C21047   9.730   3.263   2.405  0.2770 -0.1854 -0.4459
  160MOL0     C21048   9.754   3.410   2.435  0.1157 -0.5351  0.1974
  160MOL0     C21049   9.803   3.443   2.578  0.4788  0.1460  0.2605
  160MOL0     C21050   9.930   3.371   2.627  0.0547  0.0261  0.7683
  160MOL0     C21051  10.035   3.397   2.522  0.1473 -0.4308 -0.3130
  160MOL0     C21052  10.132   3.409   2.448 -0.4538  0.2450 -0.2661
  160MOL0     C21053   9.433   3.256   2.586  0.6053 -0.4019  0.2927
  160MOL0     C21054   9.296   3.262   2.571  1.0535 -0.0242  0.0457
  160MOL0     H21055   8.804   3.116   2.411 -2.5676 -0.6905 -1.2683
  160MOL0     H21056   8.591   3.202   2.316 -0.6047 -1.8758  3.5422
  160MOL0     H21057   8.557   3.338   2.148 -2.5863 -2.1319  1.3632
  160MOL0     H21058   8.517   3.519   2.126 -2.0662  1.2981  2.2565
  160MOL0     H21059   8.289   3.477   2.186 -0.7267 -0.2398 -1.7962
  160MOL0     H21060   8.311   3.305   2.205 -3.1517  0.4473  0.6786
  160MOL0     H21061   8.349   3.281   1.946  4.0773  0.7409  0.8802
  160MOL0     H21062   8.372   3.456   1.930  2.4048 -0.9411  0.2610
  160MOL0     H21063   8.127   3.328   2.042 -0.4398  0.5851 -0.4897
  160MOL0     H21064   8.141   3.495   2.015 -2.3680  0.5202 -1.7328
  160MOL0     H21065   8.150   3.481   1.774  0.3602  1.2544  1.5548
  160MOL0     H21066   8.013   3.389   1.833  0.2675 -1.2816 -3.1673
  160MOL0     H21067   8.164   3.174   1.810 -2.2971 -2.0422 -1.6432
  160MOL0     H21068   8.281   3.288   1.751  0.4067  1.2688  4.0786
  160MOL0     H21069   8.113   3.345   1.560 -0.8331 -1.5824 -3.6625
  160MOL0     H21070   8.204   3.197   1.567  3.2331  3.3220  1.1658
  160MOL0     H21071   7.974   3.122   1.705  0.5509 -0.2925  0.2481
  160MOL0     H21072   8.005   3.106   1.529  0.4689 -1.9528  1.2959
  160MOL0     H21073   7.753   3.243   1.763  1.8889 -0.8945 -0.6090
  160MOL0     H21074   7.498   3.293   1.694  3.6681 -0.3814  1.6381
  160MOL0     H21075   7.474   3.365   1.534 -0.2152 -2.5524  0.2462
  160MOL0     H21076   7.519   3.573   1.578 -0.4389 -1.6108  0.0330
  160MOL0     H21077   7.618   3.545   1.715  1.8175 -1.3504 -1.7071
  160MOL0     H21078   7.414   3.483   1.856  0.9803  0.2061 -0.3703
  160MOL0     H21079   7.415   3.643   1.796 -1.9144  0.2237  0.9147
  160MOL0     H21080   7.267   3.434   1.635 -0.8145 -0.9647  2.2189
  160MOL0     H21081   7.267   3.610   1.628 -3.2243 -0.0541  1.6141
  160MOL0     H21082   7.013   3.653   1.961  0.9956 -2.2688 -0.5034
  160MOL0     H21083   6.772   3.713   1.903 -2.5366 -3.2284  0.7267
  160MOL0     H21084   6.582   4.056   1.706 -0.3523  0.2030 -1.5513
  160MOL0     H21085   6.370   4.192   1.658  1.5525  0.3396 -0.4335
  160MOL0     H21086   6.134   4.268   1.681 -0.5976 -0.8493 -1.4676
  160MOL0     H21087   6.159   4.206   1.841  1.0331 -1.2758 -0.3154
  160MOL0     H21088   5.921   4.146   1.860  1.3732 -0.8543 -1.2953
  160MOL0     H21089   5.904   4.156   1.683  0.9150 -4.0811  0.4710
  160MOL0     H21090   5.918   4.400   1.677  3.2075  0.3769  0.6071
  160MOL0     H21091   5.966   4.398   1.848 -0.6186  3.7068 -0.5276
  160MOL0     H21092   5.692   4.272   1.759 -2.5433  1.1832  2.2844
  160MOL0     H21093   5.752   4.319   1.918 -0.7000  5.1263  1.3648
  160MOL0     H21094   5.673   4.485   1.671  0.6095 -0.4626  0.1627
  160MOL0     H21095   5.742   4.555   1.818 -0.4325 -1.2933  3.4476
  160MOL0     H21096   5.491   4.397   1.813  1.7435 -1.5193  2.0294
  160MOL0     H21097   5.488   4.571   1.789 -0.2330  0.8948  0.6191
  160MOL0     H21098   5.504   4.409   2.030 -0.9441 -0.0020 -0.9166
  160MOL0     H21099   5.618   4.547   2.031  0.6689  0.3064 -0.8795
  160MOL0     H21100   5.385   4.590   2.128  0.5607 -1.1656  0.1069
  160MOL0     H21101   5.322   4.550   1.968  0.5753 -1.3863 -0.0232
  160MOL0     H21102   6.170   3.802   1.706  0.7703 -0.1217  1.7461
  160MOL0     H21103   6.368   3.700   1.760 -0.9115  0.1925 -0.2541
  160MOL0     H21104   6.817   3.625   1.496 -2.0244  0.1980 -1.0844
  160MOL0     H21105   7.050   3.546   1.533 -1.7241 -1.2636 -1.0336
  160MOL0     H21106   8.681   3.595   2.459 -3.7667 -1.8454  2.2559
  160MOL0     H21107   8.930   3.506   2.527 -1.0658  1.8202  0.8329
  160MOL0     H21108   9.283   3.078   2.280  0.4083  0.0090 -0.0448
  160MOL0     H21109   9.521   3.078   2.306 -0.9745  0.6730 -1.0193
  160MOL0     H21110   9.688   3.257   2.305  1.9615 -0.8340 -1.1604
  160MOL0     H21111   9.825   3.208   2.401  0.5692  0.0644  1.5887
  160MOL0     H21112   9.823   3.441   2.356 -0.0139 -0.2565  0.1925
  160MOL0     H21113   9.656   3.457   2.417 -0.1022 -1.4113 -1.0378
  160MOL0     H21114   9.713   3.418   2.636 -1.5000  0.3779 -2.4870
  160MOL0     H21115   9.821   3.550   2.571 -0.3236  0.1828 -2.0406
  160MOL0     H21116   9.944   3.413   2.727 -0.9219  2.8402 -0.1608
  160MOL0     H21117   9.913   3.264   2.640 -1.8095  0.6027  4.5107
  160MOL0     H21118  10.213   3.427   2.379  0.2965 -0.8923  0.2814
  160MOL0     H21119   9.478   3.307   2.670 -1.0813  1.2295  0.2826
  160MOL0     H21120   9.221   3.302   2.639  1.5705  2.8539 -0.9578
  161MOL0     O21121   5.714   2.851   9.199  0.8728 -0.8516 -0.2329
  161MOL0     C21122   5.820   2.803   9.221  0.1936  0.5552 -0.1549
  161MOL0     O21123   5.849   2.718   9.324 -1.1486 -0.1181 -1.0610
  161MOL0     C21124   5.764   2.693   9.429  0.2570  0.0321 -0.7116
  161MOL0     C21125   5.774   2.570   9.488  0.4124  0.1290  0.7709
  161MOL0     C21126   5.696   2.534   9.600 -0.5358  0.4021  1.1871
  161MOL0     C21127   5.602   2.621   9.650  0.0798  0.1124 -0.3090
  161MOL0     O21128   5.527   2.592   9.765 -0.1464 -0.0840  0.2848
  161MOL0     C21129   5.571   2.645   9.891 -0.1088 -1.0911 -0.0921
  161MOL0     C21130   5.528   2.559  10.010  0.3472  0.2108  0.3619
  161MOL0     C21131   5.451   2.622  10.123  0.3353  0.3820 -0.7108
  161MOL0     C21132   5.321   2.688  10.081  0.3164  0.2570 -0.0845
  161MOL0     C21133   5.228   2.730  10.199 -0.1740 -0.0584  1.4655
  161MOL0     C21134   5.131   2.840  10.163 -0.2067  0.4630 -0.9023
  161MOL0     C21135   5.019   2.849  10.268 -0.0209  0.4873 -0.8587
  161MOL0     C21136   4.949   2.727  10.304 -0.1408  1.1640  0.8598
  161MOL0     N21137   4.830   2.756  10.394  0.3026  0.0271  0.1096
  161MOL0     C21138   4.779   2.880  10.418  1.1133 -0.4296 -0.0542
  161MOL0     C21139   4.665   2.851  10.490 -0.7575 -0.1696  0.4693
  161MOL0     C21140   4.579   2.956  10.546 -0.3592 -0.4156 -0.6590
  161MOL0     C21141   4.452   2.980  10.457  0.1886  0.7437  0.7543
  161MOL0     C21142   4.348   2.865  10.457 -0.6952  0.4522  0.0789
  161MOL0     C21143   4.230   2.912  10.368 -0.3513 -0.2629  0.6765
  161MOL0     O21144   4.146   3.012  10.421  0.4359  0.4992  0.1052
  161MOL0     C21145   4.008   3.011  10.400  0.2306  0.1301  0.9185
  161MOL0     C21146   3.926   3.042  10.509  0.3520 -0.0367  0.2756
  161MOL0     C21147   3.796   3.029  10.485  1.0810  0.9326 -1.1421
  161MOL0     C21148   3.738   2.985  10.363 -0.9381 -0.3432 -0.3781
  161MOL0     C21149   3.592   2.969  10.359 -1.0434  0.5261 -0.5001
  161MOL0     O21150   3.550   2.896  10.251  0.2906 -0.3802 -0.3770
  161MOL0     C21151   3.420   2.890  10.226  0.5690  0.1576  0.1307
  161MOL0     C21152   3.377   2.920  10.093  0.1898 -0.5690 -0.2649
  161MOL0     C21153   3.247   2.873  10.051  0.1260  0.0799 -0.8569
  161MOL0     C21154   3.153   2.832  10.140 -0.4113 -0.1197  0.8975
  161MOL0     O21155   3.032   2.795  10.086  0.4445  0.1477  0.2573
  161MOL0     C21156   2.964   2.671  10.136 -0.5754  0.2545  0.5958
  161MOL0     C21157   2.859   2.624  10.035  0.7884  0.2896 -0.4635
  161MOL0     C21158   2.710   2.620  10.087  0.0770  0.1933 -0.0825
  161MOL0     C21159   2.622   2.550   9.990 -0.3344  0.1906  0.3844
  161MOL0     C21160   2.475   2.564  10.030 -1.0543 -0.6644  0.0302
  161MOL0     C21161   2.443   2.501  10.163  0.5325 -0.0822  0.3442
  161MOL0     C21162   2.283   2.510  10.196  0.3419 -0.0370 -0.1423
  161MOL0     C21163   2.197   2.415  10.113  0.3507  0.0871 -0.6256
  161MOL0    Cl21164   2.256   2.256  10.097  0.2703  0.0546  0.2299
  161MOL0     C21165   3.182   2.832  10.279 -0.0857 -0.2644 -0.0574
  161MOL0     C21166   3.316   2.853  10.319 -1.1546 -0.7598 -0.2122
  161MOL0     O21167   3.524   3.017  10.444 -1.1000  1.0898  0.0808
  161MOL0     C21168   3.817   2.946  10.259 -0.1104  1.2964  0.5112
  161MOL0     C21169   3.953   2.963  10.274  0.3282  0.4432  0.1711
  161MOL0     N21170   4.647   2.716  10.502 -0.7523  0.1214  0.0248
  161MOL0     N21171   4.752   2.659  10.441  0.7116  0.3199  0.1154
  161MOL0     C21172   5.602   2.752   9.597  0.4625 -0.6109  0.3374
  161MOL0     C21173   5.670   2.784   9.479 -0.7756 -0.4186  0.0726
  161MOL0     C21174   5.921   2.817   9.116  0.2980 -0.5204  0.4258
  161MOL0     C21175   5.900   2.882   8.996  0.6126 -0.0486  1.1243
  161MOL0     C21176   6.000   2.894   8.893  0.0323  0.9193  0.4747
  161MOL0     C21177   6.123   2.819   8.912  0.2380  0.1971  0.9885
  161MOL0     O21178   6.221   2.825   8.819  0.1082 -0.3409 -0.1352
  161MOL0     C21179   6.349   2.867   8.871  0.5281  0.3209 -0.0156
  161MOL0     C21180   6.422   2.893   8.739 -0.6589  0.5428  0.0543
  161MOL0     C21181   6.556   2.975   8.763  0.1584  0.1170  0.3330
  161MOL0     C21182   6.634   3.000   8.631  0.0023 -0.9938  0.7370
  161MOL0     C21183   6.688   3.133   8.616 -0.1338  0.2254 -0.0751
  161MOL0     C21184   6.733   3.246   8.620 -0.0088 -0.0425 -0.4704
  161MOL0     C21185   6.143   2.747   9.034  0.4886 -0.1893 -0.1741
  161MOL0     C21186   6.046   2.751   9.136  0.1212  0.2308  0.5208
  161MOL0     H21187   5.830   2.501   9.426 -0.8921  1.9487 -2.6930
  161MOL0     H21188   5.686   2.433   9.638 -1.2810 -0.0520 -0.1341
  161MOL0     H21189   5.522   2.743   9.892 -0.0133 -0.8292 -4.0224
  161MOL0     H21190   5.678   2.666   9.900 -0.1731 -1.3947  1.9594
  161MOL0     H21191   5.624   2.517  10.042 -1.0545 -2.9255  0.8399
  161MOL0     H21192   5.463   2.482   9.966 -0.3924  1.0728 -0.0677
  161MOL0     H21193   5.520   2.693  10.170 -0.0995 -0.6142  1.5786
  161MOL0     H21194   5.428   2.542  10.194 -4.0736  1.1812 -1.0065
  161MOL0     H21195   5.351   2.774  10.020  0.9656 -0.2848 -0.5429
  161MOL0     H21196   5.248   2.641  10.016  1.7208  1.6403 -2.8398
  161MOL0     H21197   5.294   2.755  10.283  1.3544  2.3577 -0.3323
  161MOL0     H21198   5.174   2.639  10.229 -1.2183  0.0369 -0.0151
  161MOL0     H21199   5.085   2.811  10.067  0.7169 -1.8529 -0.7153
  161MOL0     H21200   5.178   2.938  10.167  1.1446 -0.1621  3.4077
  161MOL0     H21201   5.061   2.879  10.364 -1.3814  1.7739 -0.6280
  161MOL0     H21202   4.944   2.923  10.236  1.6632  2.2718 -0.8286
  161MOL0     H21203   5.018   2.660  10.355  2.7942  1.6163 -2.1850
  161MOL0     H21204   4.911   2.678  10.214  0.6923  1.9267  0.0720
  161MOL0     H21205   4.814   2.978  10.386  2.7047 -0.5830  1.1444
  161MOL0     H21206   4.623   3.055  10.560  1.5182 -1.2105 -0.6802
  161MOL0     H21207   4.543   2.933  10.647 -0.9301  0.0969 -0.7336
  161MOL0     H21208   4.484   2.997  10.354  0.3309  1.6481  0.9452
  161MOL0     H21209   4.405   3.071  10.496 -1.4714  0.7288 -1.0485
  161MOL0     H21210   4.405   2.784  10.410  1.2059  1.1482  1.0922
  161MOL0     H21211   4.314   2.835  10.556  0.5731  0.4274  0.5199
  161MOL0     H21212   4.165   2.827  10.345 -0.0672  0.0347 -1.4824
  161MOL0     H21213   4.268   2.957  10.276 -1.3272 -0.7436  0.0154
  161MOL0     H21214   3.967   3.086  10.599 -2.1803 -1.1546  2.1093
  161MOL0     H21215   3.739   3.061  10.572  0.6890  1.4155 -1.5716
  161MOL0     H21216   3.444   2.964  10.020  0.1559  1.5562  0.9141
  161MOL0     H21217   3.224   2.896   9.948  0.1716 -0.3801 -0.9676
  161MOL0     H21218   2.916   2.692  10.232 -0.4039  0.2878  0.6760
  161MOL0     H21219   3.027   2.585  10.161 -1.2554 -1.1923 -2.2798
  161MOL0     H21220   2.888   2.524  10.001 -2.1977 -0.8505  0.0487
  161MOL0     H21221   2.855   2.691   9.949 -3.2489  2.6173  1.2563
  161MOL0     H21222   2.684   2.725  10.104  0.0789  0.2245 -0.2634
  161MOL0     H21223   2.717   2.573  10.186 -2.5865  0.8095  0.4703
  161MOL0     H21224   2.638   2.591   9.890  3.3908  0.4458  0.9359
  161MOL0     H21225   2.645   2.443   9.993  2.9523  0.6864 -2.2008
  161MOL0     H21226   2.425   2.512   9.948 -0.4570 -1.7773  0.3449
  161MOL0     H21227   2.446   2.669  10.024  4.4502  1.0753 -2.6903
  161MOL0     H21228   2.491   2.565  10.237 -1.1258  0.6795  0.8182
  161MOL0     H21229   2.483   2.400  10.174  0.8852 -0.1134 -0.9922
  161MOL0     H21230   2.259   2.485  10.300 -0.2099  3.1309  0.5953
  161MOL0     H21231   2.243   2.609  10.176  0.4529 -0.3159 -1.9051
  161MOL0     H21232   2.191   2.454  10.011  1.0033  3.3580  0.4703
  161MOL0     H21233   2.095   2.402  10.149  0.3261 -2.0066 -1.2835
  161MOL0     H21234   3.108   2.799  10.352  1.5489  0.5624  2.0894
  161MOL0     H21235   3.343   2.835  10.423  1.0981  0.1799 -0.5810
  161MOL0     H21236   3.773   2.900  10.171 -4.3879  0.4579  2.8093
  161MOL0     H21237   4.013   2.932  10.189 -1.8724 -1.5140 -0.7951
  161MOL0     H21238   5.539   2.828   9.641  0.0085 -0.2914 -0.8219
  161MOL0     H21239   5.657   2.886   9.443  1.5968 -0.3043 -0.6456
  161MOL0     H21240   5.811   2.941   8.975 -0.3494 -0.8372  2.7792
  161MOL0     H21241   5.995   2.951   8.801 -0.2547  1.0733  0.5843
  161MOL0     H21242   6.399   2.798   8.940 -0.4825 -0.6562 -0.2461
  161MOL0     H21243   6.344   2.953   8.939  4.8499  0.1356  0.8307
  161MOL0     H21244   6.425   2.800   8.683  1.2326  0.9088 -0.5276
  161MOL0     H21245   6.358   2.960   8.680 -2.2573 -0.7409  0.2715
  161MOL0     H21246   6.624   2.915   8.824  0.8266  0.7852  0.2555
  161MOL0     H21247   6.535   3.068   8.816  0.5207 -0.4744  1.5501
  161MOL0     H21248   6.703   2.917   8.616  0.5237 -0.4105 -0.1897
  161MOL0     H21249   6.564   2.996   8.547  0.0299  1.3359  0.5497
  161MOL0     H21250   6.774   3.345   8.624  0.2431 -0.1595 -0.0808
  161MOL0     H21251   6.228   2.682   9.051  1.2984  0.8110 -0.2624
  161MOL0     H21252   6.066   2.709   9.234 -2.1074  0.0860  0.9471
  162MOL0     O21253   7.780   7.304   8.799 -0.2089  0.6141  0.5028
  162MOL0     C21254   7.857   7.211   8.806  0.9715  0.5473  1.0316
  162MOL0     O21255   7.822   7.083   8.859  0.0707  0.2650  0.3635
  162MOL0     C21256   7.686   7.064   8.891  0.3354 -0.5674 -0.3813
  162MOL0     C21257   7.600   7.013   8.798  0.4584  0.7478 -0.4450
  162MOL0     C21258   7.456   7.027   8.821 -0.1477  0.3570  0.3660
  162MOL0     C21259   7.406   7.071   8.944  0.0269  0.5333  0.5304
  162MOL0     O21260   7.277   7.077   8.969 -0.1419  0.1885 -0.4675
  162MOL0     C21261   7.224   7.191   9.041  0.8523 -1.2389  0.6362
  162MOL0     C21262   7.139   7.148   9.164  0.6263 -0.4516  0.3396
  162MOL0     C21263   6.983   7.121   9.138 -0.1020 -0.1027  0.0892
  162MOL0     C21264   6.959   7.008   9.032  0.1906 -0.6099 -0.4586
  162MOL0     C21265   6.819   6.961   9.032 -0.6097  0.2698  0.0020
  162MOL0     C21266   6.727   7.070   8.963  0.1182 -0.0077 -0.5600
  162MOL0     C21267   6.585   7.018   8.974 -0.3811  0.3534 -0.2334
  162MOL0     C21268   6.501   7.110   8.889  0.0589 -0.4539  0.0619
  162MOL0     N21269   6.367   7.054   8.866  0.1385  0.7849  0.5222
  162MOL0     C21270   6.278   7.032   8.966 -0.1891 -1.5847 -0.3714
  162MOL0     C21271   6.163   6.990   8.904 -0.8352  0.1604 -0.4330
  162MOL0     C21272   6.037   6.943   8.979  0.7185  0.2322 -0.1909
  162MOL0     C21273   5.927   6.863   8.900  0.5883 -0.0054 -0.3407
  162MOL0     C21274   5.783   6.851   8.969 -0.7190 -0.3935 -0.3557
  162MOL0     C21275   5.695   6.748   8.900 -0.1698 -0.3815 -0.2840
  162MOL0     O21276   5.747   6.616   8.904  0.1956  0.2479 -0.1806
  162MOL0     C21277   5.675   6.515   8.856 -0.3050 -0.4334 -0.0407
  162MOL0     C21278   5.568   6.534   8.778 -0.1066  0.4595  0.1727
  162MOL0     C21279   5.486   6.420   8.735  0.9780 -0.0722 -0.4611
  162MOL0     C21280   5.522   6.286   8.767  0.2351 -1.1252 -0.0080
  162MOL0     C21281   5.433   6.176   8.730  0.1979  0.2105 -1.2485
  162MOL0     O21282   5.358   6.197   8.623  0.4292 -0.0927  0.0293
  162MOL0     C21283   5.249   6.107   8.607 -0.5879  0.0910  0.2007
  162MOL0     C21284   5.166   6.079   8.716 -0.6603  0.3357  0.7996
  162MOL0     C21285   5.058   5.994   8.704  1.0777 -0.2652 -0.2694
  162MOL0     C21286   5.019   5.949   8.577 -0.3996 -0.0239  0.6777
  162MOL0     O21287   4.921   5.854   8.578  0.3137  0.0593  0.3188
  162MOL0     C21288   4.923   5.759   8.465 -0.1144 -0.2311 -0.3699
  162MOL0     C21289   4.837   5.633   8.492  0.8530  0.4947 -0.0536
  162MOL0     C21290   4.794   5.602   8.638 -0.4270 -0.2749  0.1510
  162MOL0     C21291   4.670   5.691   8.683 -0.4611  0.1067  0.8299
  162MOL0     C21292   4.608   5.623   8.807 -0.0691  0.2283  0.3149
  162MOL0     C21293   4.695   5.608   8.940 -0.0082  0.8121  0.5237
  162MOL0     C21294   4.598   5.547   9.050  0.5154  0.6221 -0.3056
  162MOL0     C21295   4.555   5.402   9.034 -0.5081 -1.4346  0.0203
  162MOL0    Cl21296   4.377   5.397   8.999  0.0025  0.0335 -0.1713
  162MOL0     C21297   5.092   5.994   8.461 -0.6768  0.2423 -0.2484
  162MOL0     C21298   5.199   6.081   8.474 -0.0393 -0.1172  0.2498
  162MOL0     O21299   5.443   6.078   8.805  0.2734 -0.1419  0.7161
  162MOL0     C21300   5.637   6.278   8.847 -0.1467  0.6946 -0.2336
  162MOL0     C21301   5.713   6.387   8.893  1.1655  0.9972 -1.7959
  162MOL0     N21302   6.184   6.990   8.769 -0.1198  0.0165 -0.0948
  162MOL0     N21303   6.307   7.032   8.744  0.4133 -0.6870  0.2321
  162MOL0     C21304   7.508   7.110   9.041 -0.2155  0.1311 -0.1116
  162MOL0     C21305   7.642   7.105   9.017 -0.8422 -0.0954 -0.2025
  162MOL0     C21306   7.994   7.221   8.760  0.3048 -0.5074  0.6599
  162MOL0     C21307   8.035   7.317   8.666  0.8054  0.4701  0.4456
  162MOL0     C21308   8.159   7.320   8.613  0.6290  0.4101 -0.1670
  162MOL0     C21309   8.264   7.242   8.671 -0.0843 -0.2483 -0.4909
  162MOL0     O21310   8.392   7.241   8.629  0.0169  0.1597  0.3212
  162MOL0     C21311   8.440   7.363   8.568  0.3383 -0.2563  0.0299
  162MOL0     C21312   8.593   7.341   8.543 -0.6357 -1.1797 -0.1208
  162MOL0     C21313   8.673   7.461   8.474 -0.7231 -0.4382  0.1508
  162MOL0     C21314   8.675   7.449   8.323  0.3624  0.1864 -1.2258
  162MOL0     C21315   8.561   7.522   8.263 -1.2749 -0.1180  0.0300
  162MOL0     C21316   8.462   7.575   8.225  0.5489 -0.7867 -0.2748
  162MOL0     C21317   8.231   7.158   8.782 -0.4316 -0.1499  0.0884
  162MOL0     C21318   8.097   7.153   8.824  0.9810  0.1647  0.2791
  162MOL0     H21319   7.640   6.974   8.705 -0.4774 -1.3896 -0.0062
  162MOL0     H21320   7.391   6.989   8.743 -1.9227 -0.5844  2.1997
  162MOL0     H21321   7.142   7.235   8.983 -1.1098 -2.1013  2.5883
  162MOL0     H21322   7.295   7.264   9.081  1.0795  0.2966 -2.2874
  162MOL0     H21323   7.147   7.230   9.236 -0.3741  0.4919 -0.5868
  162MOL0     H21324   7.185   7.056   9.202  0.1013 -1.3204 -1.0549
  162MOL0     H21325   6.946   7.218   9.103 -0.5134  0.0845  1.0095
  162MOL0     H21326   6.934   7.100   9.234  0.8840  1.0642  0.8894
  162MOL0     H21327   6.999   7.042   8.937 -3.0234  0.2027 -1.6515
  162MOL0     H21328   7.024   6.924   9.061  2.1565  0.1301 -2.4731
  162MOL0     H21329   6.791   6.939   9.136  4.0279  1.8663  1.8163
  162MOL0     H21330   6.826   6.863   8.983  2.0172  1.4351 -2.1556
  162MOL0     H21331   6.749   7.080   8.856 -0.4777 -1.8334 -0.8840
  162MOL0     H21332   6.719   7.159   9.026 -3.8546 -0.0443 -0.7164
  162MOL0     H21333   6.583   6.912   8.945 -0.7171  0.7659 -1.8596
  162MOL0     H21334   6.554   7.016   9.079 -0.8765 -0.2225 -0.3828
  162MOL0     H21335   6.532   7.125   8.785 -0.2740  1.6563  0.2237
  162MOL0     H21336   6.482   7.209   8.930 -0.6112  0.4151 -2.1746
  162MOL0     H21337   6.300   7.064   9.067  0.8541 -2.3298 -0.3463
  162MOL0     H21338   5.988   7.034   9.017  0.1875  0.8052 -2.1210
  162MOL0     H21339   6.068   6.878   9.061 -0.3741  3.3480  3.0053
  162MOL0     H21340   5.961   6.764   8.871  1.2352  0.4145 -1.0648
  162MOL0     H21341   5.931   6.928   8.812  0.7277  1.9923  1.0740
  162MOL0     H21342   5.805   6.826   9.073  1.2999 -0.4764 -0.7591
  162MOL0     H21343   5.736   6.950   8.978  0.7402  0.3278 -0.3809
  162MOL0     H21344   5.674   6.784   8.799 -3.1128 -1.5517 -0.1832
  162MOL0     H21345   5.599   6.748   8.951 -0.1453 -2.2974 -0.1466
  162MOL0     H21346   5.541   6.637   8.757  2.8247  1.3158  0.1441
  162MOL0     H21347   5.392   6.454   8.692  0.2260 -0.4868  0.7888
  162MOL0     H21348   5.191   6.123   8.812  1.7860  1.7816 -0.3908
  162MOL0     H21349   4.989   5.984   8.788  1.4246  1.8797  0.3089
  162MOL0     H21350   5.028   5.728   8.457  0.0035 -0.6923  2.2437
  162MOL0     H21351   4.895   5.810   8.372  1.0381  2.1129  0.4941
  162MOL0     H21352   4.889   5.545   8.453 -0.9531 -0.9085  0.5886
  162MOL0     H21353   4.748   5.642   8.429 -0.7449  0.1583  2.0260
  162MOL0     H21354   4.873   5.631   8.708 -1.7783  1.9163  0.8511
  162MOL0     H21355   4.765   5.497   8.649  0.3866 -0.7257 -1.6508
  162MOL0     H21356   4.708   5.791   8.703  1.2276  0.1093 -1.8046
  162MOL0     H21357   4.605   5.706   8.596  0.3771 -2.0429 -0.2674
  162MOL0     H21358   4.582   5.521   8.776  1.5156  0.4869 -2.1376
  162MOL0     H21359   4.513   5.668   8.839  0.4261  0.2876  1.7957
  162MOL0     H21360   4.735   5.703   8.977  3.2863 -0.1149 -0.3836
  162MOL0     H21361   4.776   5.538   8.919 -0.7096  0.3333 -0.6693
  162MOL0     H21362   4.655   5.568   9.141 -1.7975  1.2456  1.0830
  162MOL0     H21363   4.504   5.602   9.061  0.4775 -0.0314  4.4815
  162MOL0     H21364   4.574   5.342   9.124  1.9721  1.9229  1.9739
  162MOL0     H21365   4.606   5.362   8.946  1.6118  2.8194 -0.9561
  162MOL0     H21366   5.066   5.965   8.360 -0.5628 -1.9455  0.2944
  162MOL0     H21367   5.245   6.127   8.387 -0.6342  2.6485  1.2890
  162MOL0     H21368   5.667   6.182   8.889  1.5399  0.3871 -2.0064
  162MOL0     H21369   5.802   6.362   8.949  0.6414 -1.6835 -2.0349
  162MOL0     H21370   7.474   7.146   9.137 -1.1826 -4.5393  1.5749
  162MOL0     H21371   7.726   7.137   9.078 -0.5775  0.7290 -0.9815
  162MOL0     H21372   7.970   7.399   8.636  0.8001  0.4885  0.5078
  162MOL0     H21373   8.172   7.398   8.539  0.8429  0.6627  0.1334
  162MOL0     H21374   8.421   7.446   8.636 -0.7452  0.5211 -1.1602
  162MOL0     H21375   8.379   7.370   8.477 -1.0198 -2.2618  0.6994
  162MOL0     H21376   8.648   7.329   8.636 -1.0292  1.5559  0.5332
  162MOL0     H21377   8.606   7.246   8.490  1.9334 -0.5031 -0.8539
  162MOL0     H21378   8.771   7.471   8.521 -0.6865  1.2117 -0.2248
  162MOL0     H21379   8.624   7.555   8.502 -0.2834 -1.0048  3.1014
  162MOL0     H21380   8.767   7.482   8.274 -0.2644 -1.7303 -3.8564
  162MOL0     H21381   8.665   7.341   8.311 -0.5850  0.4996 -3.8048
  162MOL0     H21382   8.372   7.611   8.179  0.0406 -0.5026  0.9119
  162MOL0     H21383   8.315   7.102   8.823  1.5994  1.6915 -1.2758
  162MOL0     H21384   8.063   7.093   8.908 -3.0162  0.9813 -0.5891
  163MOL0     O21385  10.360   0.811   0.500 -0.0359  0.2405 -0.3089
  163MOL0     C21386  10.402   0.744   0.406  0.2056 -0.6952 -0.2339
  163MOL0     O21387  10.333   0.713   0.288 -0.0485  0.3328  0.1324
  163MOL0     C21388  10.200   0.736   0.303  1.3256  0.2278  0.1473
  163MOL0     C21389  10.120   0.657   0.393 -0.5097 -0.5369 -1.4180
  163MOL0     C21390   9.979   0.674   0.379 -0.0898 -0.2760 -0.1059
  163MOL0     C21391   9.913   0.754   0.290 -0.4173 -0.0931  0.0502
  163MOL0     O21392   9.778   0.761   0.267  0.4252 -0.5082 -0.8215
  163MOL0     C21393   9.697   0.671   0.349  1.0518 -0.9633  0.1816
  163MOL0     C21394   9.548   0.710   0.330  0.4583  0.3044  0.0422
  163MOL0     C21395   9.464   0.631   0.228  0.5524 -0.3610  0.1923
  163MOL0     C21396   9.323   0.684   0.236  0.5412  0.4830  0.1618
  163MOL0     C21397   9.245   0.596   0.134 -1.2540  0.1452  0.5720
  163MOL0     C21398   9.094   0.613   0.151 -0.4604  0.7244  0.1612
  163MOL0     C21399   9.052   0.756   0.132  0.0973 -0.0735  0.0639
  163MOL0     C21400   8.909   0.766   0.167  1.0072  0.1969 -0.2421
  163MOL0     N21401   8.813   0.697   0.076 -0.5721  0.3420 -1.0297
  163MOL0     C21402   8.802   0.743  -0.048 -0.4628  0.1097  0.1953
  163MOL0     C21403   8.730   0.647  -0.111  0.5605  0.1735 -0.7543
  163MOL0     C21404   8.713   0.613  -0.256 -0.1943 -0.2341 -0.7696
  163MOL0     C21405   8.569   0.616  -0.286  0.5500 -0.3015  0.5185
  163MOL0     C21406   8.546   0.528  -0.412 -0.7091 -0.7206  0.8141
  163MOL0     C21407   8.399   0.522  -0.457  0.1554 -0.0061  0.1034
  163MOL0     O21408   8.386   0.443  -0.579 -0.5795  0.0457  0.2993
  163MOL0     C21409   8.270   0.457  -0.644  0.0244  0.2404  0.4661
  163MOL0     C21410   8.266   0.405  -0.775 -0.2480 -1.2900  0.0483
  163MOL0     C21411   8.145   0.409  -0.840  0.9808  0.8128  1.1107
  163MOL0     C21412   8.030   0.461  -0.786 -0.0163  0.3697  0.3521
  163MOL0     C21413   7.901   0.457  -0.861  0.3645 -0.0989 -0.9490
  163MOL0     O21414   7.873   0.359  -0.947  0.5787 -0.0847  0.8211
  163MOL0     C21415   7.749   0.366  -1.002 -0.3350 -0.1848 -0.1669
  163MOL0     C21416   7.665   0.257  -0.979 -0.1592  0.2203  0.9443
  163MOL0     C21417   7.526   0.265  -1.014 -0.6053 -0.1886  0.5994
  163MOL0     C21418   7.478   0.377  -1.083  0.5628  0.2668  0.2208
  163MOL0     O21419   7.349   0.393  -1.121 -0.6685  0.7217  0.4196
  163MOL0     C21420   7.264   0.294  -1.074 -0.7485 -0.1951 -0.1504
  163MOL0     C21421   7.125   0.291  -1.140 -0.5798  0.2546 -0.1210
  163MOL0     C21422   7.129   0.220  -1.276 -0.1510 -0.4355  0.0285
  163MOL0     C21423   7.078   0.073  -1.281  0.0900 -1.1306  0.2090
  163MOL0     C21424   6.929   0.076  -1.258  0.0361  0.0892  0.3290
  163MOL0     C21425   6.865  -0.060  -1.286 -0.4884 -1.0318  0.6418
  163MOL0     C21426   6.862  -0.106  -1.431 -0.4472 -0.2829  0.3280
  163MOL0     C21427   6.786  -0.234  -1.447 -0.0924 -0.1259  0.5219
  163MOL0    Cl21428   6.623  -0.240  -1.378 -0.5337 -0.0715 -0.4227
  163MOL0     C21429   7.560   0.475  -1.122 -0.8496  0.4414 -0.1845
  163MOL0     C21430   7.697   0.475  -1.081  0.8708  0.2462  0.3534
  163MOL0     O21431   7.825   0.549  -0.833  0.4057 -0.5418 -0.2776
  163MOL0     C21432   8.029   0.510  -0.654 -0.6348 -0.1112 -0.1705
  163MOL0     C21433   8.153   0.506  -0.581 -0.2595 -1.0993  0.5072
  163MOL0     N21434   8.699   0.542  -0.022 -0.2487 -0.1212  0.1817
  163MOL0     N21435   8.746   0.581   0.096 -0.4251 -0.2099  0.7869
  163MOL0     C21436   9.994   0.835   0.209  0.2397  0.5969 -0.6372
  163MOL0     C21437  10.135   0.823   0.215  0.4455  0.2104  0.0340
  163MOL0     C21438  10.544   0.702   0.410 -0.1622 -0.4487 -1.0710
  163MOL0     C21439  10.605   0.620   0.307  0.1963  1.2443 -1.2393
  163MOL0     C21440  10.734   0.571   0.330 -0.2241  0.6593 -0.1838
  163MOL0     C21441  10.805   0.596   0.451 -0.7195 -0.1707  0.0492
  163MOL0     O21442  10.938   0.549   0.460  1.2799  0.2477  0.0778
  163MOL0     C21443  10.978   0.512   0.594  0.0640 -0.4095 -0.3035
  163MOL0     C21444  11.098   0.413   0.609  0.7152 -0.2876  0.2351
  163MOL0     C21445  11.234   0.460   0.547  0.0989  0.4813  0.3160
  163MOL0     C21446  11.349   0.370   0.568  0.1573  0.1271 -0.4263
  163MOL0     C21447  11.451   0.404   0.466  0.5810 -0.4428 -0.3621
  163MOL0     C21448  11.532   0.437   0.382 -0.0565 -0.1188  0.2064
  163MOL0     C21449  10.748   0.691   0.544  0.4564  0.0575 -0.2092
  163MOL0     C21450  10.621   0.737   0.524  0.0331  0.0985 -0.0859
  163MOL0     H21451  10.162   0.578   0.454 -1.7967 -0.1642  0.0318
  163MOL0     H21452   9.919   0.595   0.425 -2.8477  1.6940 -0.0530
  163MOL0     H21453   9.708   0.694   0.455  0.6058  0.9205 -0.1390
  163MOL0     H21454   9.720   0.569   0.318  4.2153  0.0715 -1.2914
  163MOL0     H21455   9.556   0.817   0.305  3.3383  0.5275  1.5289
  163MOL0     H21456   9.498   0.718   0.427  0.5964 -0.3365  0.1702
  163MOL0     H21457   9.475   0.523   0.240  2.5752 -0.5606 -2.4620
  163MOL0     H21458   9.505   0.647   0.128  0.7537 -1.1420  0.1414
  163MOL0     H21459   9.290   0.666   0.339  1.3243 -0.1279  0.3256
  163MOL0     H21460   9.323   0.791   0.216 -1.2411  0.1279 -2.1620
  163MOL0     H21461   9.269   0.491   0.155 -0.3807  0.6002  1.9554
  163MOL0     H21462   9.273   0.608   0.028  1.2483 -1.1907  0.9801
  163MOL0     H21463   9.050   0.579   0.245  1.7288  1.1456  1.4282
  163MOL0     H21464   9.057   0.548   0.071 -1.9687 -2.0288  2.9153
  163MOL0     H21465   9.105   0.814   0.209  0.6306 -2.4581  1.6091
  163MOL0     H21466   9.074   0.797   0.033  3.7548 -0.0423  0.7519
  163MOL0     H21467   8.886   0.872   0.181  0.3261 -0.1279  1.3347
  163MOL0     H21468   8.910   0.732   0.271  1.8670  1.6700  0.2565
  163MOL0     H21469   8.835   0.837  -0.090  0.7360 -0.2874  0.2073
  163MOL0     H21470   8.758   0.515  -0.275 -1.1503 -0.3071 -2.9815
  163MOL0     H21471   8.768   0.685  -0.316 -2.3169 -0.2746 -2.9288
  163MOL0     H21472   8.538   0.718  -0.313  1.2863 -0.7247 -2.2338
  163MOL0     H21473   8.504   0.568  -0.212  0.9163 -1.5200  0.0657
  163MOL0     H21474   8.602   0.550  -0.503 -1.6379 -2.6219 -0.2740
  163MOL0     H21475   8.578   0.430  -0.376 -0.6172  0.0926  3.1632
  163MOL0     H21476   8.380   0.626  -0.487  1.0741 -0.0141 -0.5526
  163MOL0     H21477   8.339   0.493  -0.370  2.4855 -0.1432  1.7401
  163MOL0     H21478   8.357   0.376  -0.826  1.4442  0.7458  1.7167
  163MOL0     H21479   8.141   0.377  -0.943  1.5773 -1.2694  1.6806
  163MOL0     H21480   7.707   0.181  -0.914  0.7824 -0.3531 -0.3033
  163MOL0     H21481   7.460   0.193  -0.967 -2.8628 -0.0186 -2.0650
  163MOL0     H21482   7.253   0.306  -0.966  1.6914 -0.2681  0.1468
  163MOL0     H21483   7.307   0.196  -1.098 -2.4271 -0.4910 -2.3614
  163MOL0     H21484   7.091   0.393  -1.158  1.4428  1.2444  1.2770
  163MOL0     H21485   7.056   0.245  -1.068  0.4786 -2.3119 -0.6360
  163MOL0     H21486   7.228   0.225  -1.322 -0.7910 -0.2247 -1.3730
  163MOL0     H21487   7.074   0.283  -1.345 -2.3332 -0.7478  1.3878
  163MOL0     H21488   7.102   0.037  -1.382 -1.6681  2.4688 -1.7260
  163MOL0     H21489   7.128   0.012  -1.206  1.0551 -1.5233 -0.7141
  163MOL0     H21490   6.886   0.145  -1.331  1.4568 -1.6999 -2.3281
  163MOL0     H21491   6.904   0.109  -1.156 -1.7359  2.9098 -0.8906
  163MOL0     H21492   6.761  -0.040  -1.261 -0.2311  0.2572  0.7656
  163MOL0     H21493   6.916  -0.138  -1.229  0.2925  0.0778  1.5001
  163MOL0     H21494   6.807  -0.039  -1.498 -0.3726  1.1246  1.6302
  163MOL0     H21495   6.954  -0.103  -1.489 -1.7252 -1.1399 -1.9151
  163MOL0     H21496   6.843  -0.306  -1.388 -1.4135 -1.8294 -0.1937
  163MOL0     H21497   6.786  -0.265  -1.552  1.5812  3.8391 -0.8602
  163MOL0     H21498   7.516   0.553  -1.184 -2.1910 -2.8075 -3.7223
  163MOL0     H21499   7.759   0.561  -1.107  0.3835  0.5661  0.2247
  163MOL0     H21500   7.942   0.543  -0.599 -0.6969  0.4321 -0.5997
  163MOL0     H21501   8.154   0.538  -0.477  2.2641 -2.6217  1.0540
  163MOL0     H21502   9.954   0.909   0.141  1.9195  1.6553 -0.5041
  163MOL0     H21503  10.202   0.880   0.152  0.1306  0.8300  0.2488
  163MOL0     H21504  10.538   0.590   0.227 -1.5424  3.9540 -0.9286
  163MOL0     H21505  10.782   0.506   0.257  0.0488  0.3165  0.2949
  163MOL0     H21506  10.901   0.447   0.636  1.5203 -1.6167  0.6261
  163MOL0     H21507  10.997   0.594   0.663  0.0908 -0.7188  0.0627
  163MOL0     H21508  11.115   0.401   0.716  2.3298  4.5184  0.7458
  163MOL0     H21509  11.063   0.322   0.559 -0.3447 -0.8076  1.8611
  163MOL0     H21510  11.255   0.561   0.584 -0.1396  0.9667 -0.8204
  163MOL0     H21511  11.217   0.463   0.439 -1.1736 -0.4164  0.4736
  163MOL0     H21512  11.388   0.371   0.671  1.2152 -3.2656 -0.7018
  163MOL0     H21513  11.316   0.268   0.548  1.8905 -0.2427 -1.6329
  163MOL0     H21514  11.591   0.463   0.296 -0.8746 -1.6373 -0.8385
  163MOL0     H21515  10.788   0.714   0.642  1.6193 -1.4127 -0.3144
  163MOL0     H21516  10.591   0.805   0.604  2.1063  0.4964  0.3943
  164MOL0     O21517   4.634   8.700   1.204 -0.1479 -0.5182 -0.2334
  164MOL0     C21518   4.669   8.601   1.269  0.4539  0.4150  0.1162
  164MOL0     O21519   4.587   8.501   1.318  1.0037 -0.7661 -0.3136
  164MOL0     C21520   4.449   8.502   1.289  0.6351  0.4659  0.0090
  164MOL0     C21521   4.349   8.514   1.386 -0.2141 -0.0170  0.4641
  164MOL0     C21522   4.216   8.517   1.350  0.6025 -0.1456 -0.1785
  164MOL0     C21523   4.178   8.494   1.222  0.1672  0.1200  0.0843
  164MOL0     O21524   4.047   8.474   1.191 -0.2809 -0.6181  0.3878
  164MOL0     C21525   3.957   8.412   1.287  1.0846  0.7238 -1.4873
  164MOL0     C21526   3.812   8.453   1.254  0.0341 -0.2306 -0.0188
  164MOL0     C21527   3.786   8.609   1.260 -0.1701  0.2118 -0.2219
  164MOL0     C21528   3.636   8.635   1.264 -0.8159  0.4080 -0.0852
  164MOL0     C21529   3.554   8.558   1.155 -0.3973  0.2625  0.0478
  164MOL0     C21530   3.438   8.645   1.097  0.5446 -0.2554  0.2279
  164MOL0     C21531   3.361   8.583   0.975  0.2353  0.4514 -0.6147
  164MOL0     C21532   3.422   8.634   0.838 -0.1801  0.1499 -0.1249
  164MOL0     N21533   3.336   8.598   0.725 -0.0153  0.4592  0.4850
  164MOL0     C21534   3.227   8.673   0.685  0.2467  0.0403 -0.5093
  164MOL0     C21535   3.194   8.619   0.561  0.3864  0.1022  0.4921
  164MOL0     C21536   3.082   8.654   0.466  0.4849  0.0571 -0.1564
  164MOL0     C21537   2.941   8.650   0.530  0.3031 -0.2902 -0.7539
  164MOL0     C21538   2.911   8.525   0.600  0.3736 -0.8756 -0.2099
  164MOL0     C21539   2.947   8.397   0.526 -0.1096 -0.1263  1.0635
  164MOL0     O21540   2.872   8.399   0.403  0.3776 -0.0287 -0.2039
  164MOL0     C21541   2.747   8.342   0.394 -0.3528  0.0104  0.1685
  164MOL0     C21542   2.701   8.337   0.268  1.0794 -0.5560  1.4532
  164MOL0     C21543   2.569   8.287   0.238 -0.2726 -0.0705 -0.4042
  164MOL0     C21544   2.492   8.228   0.334 -0.0643  0.3641 -0.4599
  164MOL0     C21545   2.347   8.183   0.305 -0.0572  0.2519  0.9879
  164MOL0     O21546   2.300   8.101   0.400  0.3468 -0.4371  0.0690
  164MOL0     C21547   2.171   8.056   0.371  0.9061  0.3332  0.1734
  164MOL0     C21548   2.056   8.117   0.423  0.5293  0.3353  0.2230
  164MOL0     C21549   1.932   8.086   0.378  1.2455  1.2916 -0.0772
  164MOL0     C21550   1.917   7.992   0.274  0.1877 -0.3177 -0.4002
  164MOL0     O21551   1.799   7.974   0.214  0.4505  0.0117 -0.1455
  164MOL0     C21552   1.747   7.839   0.209  0.1757  0.3528  0.4438
  164MOL0     C21553   1.600   7.844   0.242  0.9370  0.9390  0.3431
  164MOL0     C21554   1.514   7.953   0.166 -0.2483 -0.6594  0.9262
  164MOL0     C21555   1.371   7.936   0.207 -0.3525  0.3679 -0.6492
  164MOL0     C21556   1.276   8.036   0.132  0.3129  0.0802  0.5385
  164MOL0     C21557   1.137   7.978   0.103 -0.1220  0.1508  0.5621
  164MOL0     C21558   1.037   8.081   0.053 -0.0457 -0.7314 -0.0352
  164MOL0     C21559   0.915   8.005  -0.012 -0.5297 -0.0308  0.3731
  164MOL0    Cl21560   0.785   8.124  -0.046  0.2201 -0.6017  0.3352
  164MOL0     C21561   2.027   7.928   0.226  0.0207  0.0730 -0.3312
  164MOL0     C21562   2.152   7.961   0.270  0.6019  0.7734  0.1567
  164MOL0     O21563   2.285   8.217   0.201 -0.5892 -0.6473 -0.0884
  164MOL0     C21564   2.553   8.212   0.464  0.5049  0.6505  0.2221
  164MOL0     C21565   2.673   8.271   0.495  0.6512 -0.2046  0.8709
  164MOL0     N21566   3.290   8.515   0.530 -0.6226 -0.2732 -0.4226
  164MOL0     N21567   3.370   8.508   0.631  0.1810 -0.2800 -0.4185
  164MOL0     C21568   4.269   8.493   1.120  0.3520  0.9174  0.7906
  164MOL0     C21569   4.405   8.495   1.153  0.1054  0.7710 -0.6857
  164MOL0     C21570   4.815   8.566   1.281  0.7917 -0.3729 -0.5068
  164MOL0     C21571   4.842   8.440   1.342  0.7611  0.1064  0.2024
  164MOL0     C21572   4.979   8.397   1.349  1.9472  0.4461  0.5736
  164MOL0     C21573   5.081   8.483   1.300  0.7909  0.4980 -0.7835
  164MOL0     O21574   5.205   8.429   1.321 -0.6205  0.6667  0.0678
  164MOL0     C21575   5.332   8.503   1.290 -0.2928 -0.1100  0.3894
  164MOL0     C21576   5.446   8.415   1.323  0.6796 -0.0120 -0.9078
  164MOL0     C21577   5.569   8.497   1.286 -0.9817 -1.0220 -0.0508
  164MOL0     C21578   5.707   8.414   1.305  1.4199  0.4039 -0.1178
  164MOL0     C21579   5.826   8.503   1.308  0.1657  0.4362  0.0523
  164MOL0     C21580   5.912   8.593   1.306  0.2491 -0.0025  0.0107
  164MOL0     C21581   5.045   8.600   1.231  0.5029  0.4603 -0.2727
  164MOL0     C21582   4.918   8.644   1.226  0.1053  0.5408 -0.1334
  164MOL0     H21583   4.379   8.528   1.489  0.9751 -0.2037  0.1652
  164MOL0     H21584   4.147   8.541   1.431  0.6922  0.4642 -0.2789
  164MOL0     H21585   3.978   8.443   1.390 -1.2907 -0.2712 -0.6268
  164MOL0     H21586   3.963   8.302   1.281  1.0562  0.3763  2.3279
  164MOL0     H21587   3.752   8.419   1.339  1.6198  1.4910  1.9058
  164MOL0     H21588   3.779   8.406   1.161 -1.7680 -0.3915  0.6747
  164MOL0     H21589   3.832   8.651   1.170  1.7220  2.0361  1.4650
  164MOL0     H21590   3.840   8.656   1.343 -0.3333 -0.0352  0.0237
  164MOL0     H21591   3.599   8.612   1.364 -0.8660 -0.6256 -0.3274
  164MOL0     H21592   3.624   8.742   1.247 -0.7209  0.0702 -2.6579
  164MOL0     H21593   3.509   8.468   1.197  0.7734 -0.6925 -0.7007
  164MOL0     H21594   3.620   8.523   1.075 -1.1977 -0.9246 -0.1175
  164MOL0     H21595   3.477   8.740   1.062 -2.6144  0.5870 -1.3364
  164MOL0     H21596   3.370   8.672   1.178 -2.6415 -0.9325 -2.0173
  164MOL0     H21597   3.383   8.476   0.976 -0.0413  0.3953 -0.3928
  164MOL0     H21598   3.253   8.601   0.982  0.1250 -0.8407  2.6446
  164MOL0     H21599   3.521   8.591   0.821 -0.1513  0.0648  0.2457
  164MOL0     H21600   3.418   8.743   0.848  1.5229  0.1312  1.1922
  164MOL0     H21601   3.178   8.756   0.735  0.1766  1.1711 -2.3867
  164MOL0     H21602   3.076   8.607   0.367 -1.3384  0.2700 -0.1722
  164MOL0     H21603   3.108   8.755   0.432  1.8157 -0.3759 -0.4703
  164MOL0     H21604   2.871   8.665   0.447  0.5130  2.3499 -0.5219
  164MOL0     H21605   2.928   8.737   0.595  1.7179  0.7384 -1.7805
  164MOL0     H21606   2.952   8.518   0.701  2.0796  0.1241 -0.7954
  164MOL0     H21607   2.801   8.524   0.606  0.4223  0.0563  1.1080
  164MOL0     H21608   2.936   8.310   0.591  2.8131 -0.6005  1.0809
  164MOL0     H21609   3.055   8.400   0.508  0.0505 -1.4355  1.6708
  164MOL0     H21610   2.759   8.394   0.197 -1.5225  0.2789 -0.1485
  164MOL0     H21611   2.537   8.292   0.134  0.3399  1.4258 -0.5403
  164MOL0     H21612   2.059   8.174   0.516  3.5911 -0.3775  0.6763
  164MOL0     H21613   1.846   8.125   0.432  1.9421 -1.0750  2.9798
  164MOL0     H21614   1.798   7.771   0.278  0.8202  0.0911 -0.2844
  164MOL0     H21615   1.763   7.797   0.110  1.1961  2.4532 -0.3437
  164MOL0     H21616   1.588   7.859   0.350  0.2919 -2.3302  0.8393
  164MOL0     H21617   1.565   7.746   0.207 -0.7153  1.4312  0.5396
  164MOL0     H21618   1.518   7.948   0.057 -1.1917 -1.2727  0.9122
  164MOL0     H21619   1.547   8.057   0.174 -0.4837 -0.5819  0.8796
  164MOL0     H21620   1.333   7.838   0.177  0.2353  0.1081 -0.5660
  164MOL0     H21621   1.366   7.950   0.316  0.2182  1.5591 -0.7587
  164MOL0     H21622   1.327   8.054   0.037 -1.0787 -3.3803 -1.0227
  164MOL0     H21623   1.265   8.123   0.199 -1.5082  0.2312  0.1010
  164MOL0     H21624   1.104   7.933   0.197  2.7967 -2.0650  0.6675
  164MOL0     H21625   1.140   7.897   0.029 -1.8881 -0.7356  1.3846
  164MOL0     H21626   1.001   8.153   0.127 -0.8529 -1.4313  0.2743
  164MOL0     H21627   1.080   8.145  -0.024 -2.8530  1.2481 -0.1395
  164MOL0     H21628   0.879   7.941   0.068 -0.7518 -0.1703  0.1653
  164MOL0     H21629   0.948   7.944  -0.097  0.8809 -2.8647  2.8084
  164MOL0     H21630   2.024   7.863   0.139  0.8270  0.3337 -0.5650
  164MOL0     H21631   2.238   7.925   0.215 -0.5723 -1.1073 -0.5813
  164MOL0     H21632   2.508   8.155   0.545  3.2949 -0.3588  1.2226
  164MOL0     H21633   2.705   8.258   0.598  0.5243  0.9287  1.0697
  164MOL0     H21634   4.241   8.475   1.017  0.5998  1.4836  0.6219
  164MOL0     H21635   4.483   8.496   1.077  0.9081 -3.1268 -0.1551
  164MOL0     H21636   4.768   8.371   1.382  0.0122  0.0635 -1.2045
  164MOL0     H21637   4.998   8.302   1.398  1.4816  0.0073 -0.0834
  164MOL0     H21638   5.339   8.592   1.352 -0.5411 -1.3207  2.2376
  164MOL0     H21639   5.348   8.529   1.185  2.2758  1.0838  0.9980
  164MOL0     H21640   5.443   8.399   1.431  1.8430 -1.9688 -1.1147
  164MOL0     H21641   5.439   8.313   1.283 -3.2215 -1.8254  3.5516
  164MOL0     H21642   5.572   8.583   1.352 -0.8254 -2.4053  1.8179
  164MOL0     H21643   5.570   8.537   1.184  0.4594  2.0927  1.0562
  164MOL0     H21644   5.706   8.361   1.400 -0.7721  1.1408  0.3269
  164MOL0     H21645   5.720   8.342   1.224 -1.5224  0.8983 -1.1600
  164MOL0     H21646   5.980   8.676   1.306 -0.4567  0.5974  0.3954
  164MOL0     H21647   5.112   8.660   1.170 -1.7128  0.1033 -3.3267
  164MOL0     H21648   4.909   8.743   1.182  2.6177  0.5074 -0.8286
  165MOL0     O21649   7.789   5.820   9.332  0.1997  0.1356 -0.1576
  165MOL0     C21650   7.802   5.773   9.452 -0.3633  0.3771  1.4169
  165MOL0     O21651   7.700   5.758   9.545 -0.5122  0.7168 -0.3393
  165MOL0     C21652   7.571   5.790   9.530  0.0670 -0.0413 -0.8648
  165MOL0     C21653   7.497   5.818   9.647  0.2257  0.4211 -0.6941
  165MOL0     C21654   7.366   5.858   9.634  0.3545 -0.1086 -0.2098
  165MOL0     C21655   7.292   5.858   9.512  0.5485  0.2268 -0.0426
  165MOL0     O21656   7.161   5.897   9.525  0.1218 -0.4949  0.0731
  165MOL0     C21657   7.066   5.859   9.428  0.5078 -0.3422  0.6555
  165MOL0     C21658   6.922   5.887   9.471  0.0572 -0.3735  0.1986
  165MOL0     C21659   6.826   5.878   9.349  0.0462 -0.5932 -0.0686
  165MOL0     C21660   6.685   5.888   9.393  0.6046 -0.1307 -0.6573
  165MOL0     C21661   6.580   5.866   9.283  0.0988 -0.1662 -0.1431
  165MOL0     C21662   6.437   5.915   9.326 -0.5868  0.2286 -0.2696
  165MOL0     C21663   6.344   5.946   9.213  0.6930  0.5069  0.1661
  165MOL0     C21664   6.195   5.965   9.245 -0.1717 -0.9074  0.4558
  165MOL0     N21665   6.144   5.858   9.330 -0.3516  0.5121  0.5517
  165MOL0     C21666   6.118   5.877   9.459  0.1699  0.1954  0.0442
  165MOL0     C21667   6.015   5.783   9.488  0.2030  1.3606 -0.8794
  165MOL0     C21668   5.955   5.755   9.620 -0.1597  0.1753 -0.7981
  165MOL0     C21669   5.835   5.861   9.648 -0.8511 -0.0086 -0.6139
  165MOL0     C21670   5.781   5.843   9.788  0.1690  0.3621 -0.2823
  165MOL0     C21671   5.632   5.900   9.789 -0.2743 -0.0343 -0.0311
  165MOL0     O21672   5.625   6.038   9.741 -0.5504 -0.5868 -0.0612
  165MOL0     C21673   5.503   6.098   9.726  0.3236  0.1306  0.4119
  165MOL0     C21674   5.497   6.214   9.651  0.1634  0.0266 -0.0248
  165MOL0     C21675   5.374   6.273   9.631 -1.0263  0.0260 -1.2245
  165MOL0     C21676   5.252   6.233   9.689 -0.0343 -0.4851  0.4959
  165MOL0     C21677   5.131   6.306   9.666 -0.4702 -1.0756 -0.1557
  165MOL0     O21678   5.021   6.256   9.720 -0.0536 -0.0720  0.8548
  165MOL0     C21679   4.891   6.285   9.675 -0.0200  0.1428 -0.2047
  165MOL0     C21680   4.810   6.360   9.757 -0.1450  0.0229 -0.3209
  165MOL0     C21681   4.682   6.405   9.712  0.2457 -0.0044 -0.5639
  165MOL0     C21682   4.634   6.361   9.589  0.0588 -0.1225 -0.0719
  165MOL0     O21683   4.509   6.397   9.541 -0.1540 -0.7086 -0.6720
  165MOL0     C21684   4.412   6.362   9.633  0.7229 -0.0990  0.0158
  165MOL0     C21685   4.297   6.292   9.558  0.8466  0.3424  0.8012
  165MOL0     C21686   4.168   6.307   9.633  0.2955 -0.5334 -0.3774
  165MOL0     C21687   4.067   6.208   9.573 -0.0493  0.7335  0.5589
  165MOL0     C21688   3.945   6.180   9.662 -0.1766 -0.2411  0.3117
  165MOL0     C21689   3.883   6.319   9.717  0.4396 -0.5645  0.7561
  165MOL0     C21690   3.844   6.414   9.603 -0.2151  0.7319  0.3079
  165MOL0     C21691   3.744   6.529   9.642  0.3146 -0.3111 -0.1901
  165MOL0    Cl21692   3.830   6.630   9.776 -0.1857 -0.5861  0.1402
  165MOL0     C21693   4.711   6.289   9.501  0.7627  1.0089 -0.2870
  165MOL0     C21694   4.837   6.253   9.545  0.1948  1.3354  0.2853
  165MOL0     O21695   5.144   6.416   9.603 -0.2025  0.2631  0.0633
  165MOL0     C21696   5.262   6.117   9.764 -0.0423 -0.4369 -0.1507
  165MOL0     C21697   5.383   6.045   9.775 -0.2416 -0.4279 -0.4338
  165MOL0     N21698   6.007   5.706   9.380  0.0204 -0.2472  1.0361
  165MOL0     N21699   6.081   5.747   9.281  0.1021 -0.5394 -0.4279
  165MOL0     C21700   7.369   5.829   9.399 -1.0256  1.0089  0.2352
  165MOL0     C21701   7.504   5.793   9.407 -0.3615  0.3616 -0.5506
  165MOL0     C21702   7.936   5.743   9.504  0.3137 -0.1529 -0.1351
  165MOL0     C21703   8.045   5.723   9.416 -0.1109  1.2994 -0.7949
  165MOL0     C21704   8.177   5.715   9.461 -0.3179 -0.1910 -0.6549
  165MOL0     C21705   8.205   5.737   9.597 -0.5019  0.6813  0.1292
  165MOL0     O21706   8.335   5.742   9.631  0.1412 -0.3687 -0.0646
  165MOL0     C21707   8.382   5.738   9.770  0.0997  0.3945  1.1494
  165MOL0     C21708   8.521   5.695   9.771 -0.3464  0.2196  0.2376
  165MOL0     C21709   8.610   5.791   9.691 -0.0289  0.0491  0.4833
  165MOL0     C21710   8.761   5.766   9.705  0.4977 -1.1564  0.0916
  165MOL0     C21711   8.816   5.635   9.684 -0.2542 -0.9259  0.1709
  165MOL0     C21712   8.870   5.530   9.680 -0.1930 -0.0175 -0.0044
  165MOL0     C21713   8.101   5.738   9.686 -0.4551  0.2397  0.7176
  165MOL0     C21714   7.973   5.746   9.640 -0.0307  0.8073 -0.0316
  165MOL0     H21715   7.539   5.812   9.747 -2.0188  2.9574  0.5124
  165MOL0     H21716   7.319   5.884   9.728 -1.6627 -1.9359 -0.6684
  165MOL0     H21717   7.079   5.753   9.404  0.2368 -0.1299 -0.4889
  165MOL0     H21718   7.081   5.911   9.333  3.5385  1.2903  1.9007
  165MOL0     H21719   6.907   5.989   9.506 -1.3591  1.1809 -4.3328
  165MOL0     H21720   6.896   5.809   9.544  1.1932 -2.3762 -1.4006
  165MOL0     H21721   6.836   5.781   9.300  0.1825 -0.1857 -0.8772
  165MOL0     H21722   6.849   5.952   9.271 -0.5863  1.5218  1.6513
  165MOL0     H21723   6.665   5.823   9.478  1.2770 -0.0287 -0.4138
  165MOL0     H21724   6.668   5.991   9.427  1.0033 -0.1128 -0.5051
  165MOL0     H21725   6.565   5.760   9.262 -1.8333 -0.7812  3.5122
  165MOL0     H21726   6.615   5.916   9.192 -1.3467  0.1336 -0.5714
  165MOL0     H21727   6.459   6.007   9.382  3.4621 -1.1418  0.6932
  165MOL0     H21728   6.396   5.847   9.401 -0.5140  0.1245 -0.3230
  165MOL0     H21729   6.386   6.039   9.174 -0.8395  1.1012 -0.1691
  165MOL0     H21730   6.347   5.874   9.130  2.9022  2.7345 -1.8541
  165MOL0     H21731   6.139   5.961   9.151  1.2226  1.1689 -0.5167
  165MOL0     H21732   6.178   6.059   9.299 -1.1364 -1.9470  2.0718
  165MOL0     H21733   6.170   5.951   9.518  0.8040  0.5744 -0.9687
  165MOL0     H21734   6.029   5.760   9.700  1.6742 -0.0219 -2.4057
  165MOL0     H21735   5.915   5.654   9.607  2.7312 -1.2130  0.2314
  165MOL0     H21736   5.757   5.848   9.573  0.4004  0.9646 -2.1294
  165MOL0     H21737   5.894   5.952   9.639 -3.0103  1.5724  0.4079
  165MOL0     H21738   5.793   5.740   9.823  2.3689  0.8160  0.4865
  165MOL0     H21739   5.850   5.899   9.853 -0.1165 -0.8722  1.1323
  165MOL0     H21740   5.587   5.891   9.888 -2.1567 -0.5961 -0.8780
  165MOL0     H21741   5.577   5.840   9.716 -1.4472  0.6137  0.2932
  165MOL0     H21742   5.591   6.261   9.624  1.7403 -3.1336 -0.4599
  165MOL0     H21743   5.376   6.373   9.589 -0.1866  0.0460 -1.1614
  165MOL0     H21744   4.853   6.394   9.851  2.8489  0.1342 -1.6474
  165MOL0     H21745   4.613   6.455   9.779 -0.1701 -1.8188  0.4141
  165MOL0     H21746   4.376   6.458   9.672  0.9410 -0.6739  1.6873
  165MOL0     H21747   4.441   6.303   9.720 -1.1424  0.3063  0.9447
  165MOL0     H21748   4.325   6.188   9.542  0.1125  0.3024 -0.3103
  165MOL0     H21749   4.283   6.333   9.458  1.6727  0.0384  0.5557
  165MOL0     H21750   4.143   6.413   9.624 -0.1010 -0.4302  1.4658
  165MOL0     H21751   4.192   6.266   9.732 -0.6648 -2.5952 -0.9375
  165MOL0     H21752   4.037   6.253   9.478  2.1355  1.4939  0.1753
  165MOL0     H21753   4.120   6.114   9.556 -0.2145  0.6618  0.4392
  165MOL0     H21754   3.969   6.108   9.741 -2.5572 -0.5841  0.7976
  165MOL0     H21755   3.862   6.130   9.610  0.5032 -0.3230 -0.7117
  165MOL0     H21756   3.945   6.378   9.785 -1.0689  1.9470  0.0712
  165MOL0     H21757   3.793   6.292   9.772  1.3513 -1.9669  1.6139
  165MOL0     H21758   3.931   6.472   9.572  0.3644 -0.1981  0.1777
  165MOL0     H21759   3.814   6.351   9.519  2.2396 -1.3179  0.8404
  165MOL0     H21760   3.653   6.486   9.684 -1.4506  3.1819 -0.0355
  165MOL0     H21761   3.721   6.588   9.553  2.9500  2.0856  0.5599
  165MOL0     H21762   4.671   6.288   9.400 -0.3662 -0.9008  0.1211
  165MOL0     H21763   4.899   6.204   9.470 -0.8360 -0.3556  0.4927
  165MOL0     H21764   5.180   6.092   9.830 -0.9592  1.5652 -0.4747
  165MOL0     H21765   5.385   5.962   9.845  0.3924 -0.4503 -0.4761
  165MOL0     H21766   7.320   5.835   9.302  0.9244  0.5953 -0.8347
  165MOL0     H21767   7.548   5.759   9.314  1.4401  0.7809  0.1097
  165MOL0     H21768   8.025   5.714   9.310  0.2533  1.3565 -0.8693
  165MOL0     H21769   8.256   5.711   9.386  0.5493 -1.1342  0.2789
  165MOL0     H21770   8.325   5.674   9.838 -1.3432 -0.0648 -0.4029
  165MOL0     H21771   8.373   5.834   9.821 -1.4692 -0.0140  1.7099
  165MOL0     H21772   8.562   5.696   9.872  0.1953 -0.1276  0.0338
  165MOL0     H21773   8.526   5.591   9.735 -0.8164 -0.1369  1.1936
  165MOL0     H21774   8.588   5.890   9.733  0.0581  1.1738 -1.9425
  165MOL0     H21775   8.582   5.802   9.585  0.2094  0.9330  0.5009
  165MOL0     H21776   8.795   5.833   9.625 -2.5719 -0.8726 -1.1143
  165MOL0     H21777   8.781   5.792   9.809 -1.9244 -3.0114  1.1183
  165MOL0     H21778   8.913   5.432   9.682  0.4139  0.2585  0.9111
  165MOL0     H21779   8.104   5.747   9.794  0.3448  0.1231  0.7126
  165MOL0     H21780   7.907   5.763   9.724 -0.7381  4.4696 -1.1164
  166MOL0     O21781   6.274   6.224   2.462  0.0982  0.5115  0.2005
  166MOL0     C21782   6.356   6.313   2.471  0.6423  0.1340  0.1673
  166MOL0     O21783   6.325   6.435   2.506  0.0578  0.2668  0.1505
  166MOL0     C21784   6.193   6.465   2.521 -0.8229 -0.2586 -0.4217
  166MOL0     C21785   6.095   6.394   2.605 -0.7745  0.2345 -0.1677
  166MOL0     C21786   5.962   6.430   2.615 -0.1575 -0.4065  0.3323
  166MOL0     C21787   5.914   6.540   2.541  0.3733 -0.2890 -0.3401
  166MOL0     O21788   5.781   6.561   2.540 -0.3690  0.9478 -0.3697
  166MOL0     C21789   5.746   6.678   2.609  0.1378 -0.4687  1.0076
  166MOL0     C21790   5.592   6.679   2.587  0.7653 -0.0889  0.4011
  166MOL0     C21791   5.517   6.793   2.654  0.0763 -0.6228  0.3695
  166MOL0     C21792   5.368   6.755   2.625  0.1037  0.1542 -0.8889
  166MOL0     C21793   5.299   6.863   2.706 -0.3094  0.0314 -0.0082
  166MOL0     C21794   5.160   6.885   2.658 -0.2135  0.6234 -0.2042
  166MOL0     C21795   5.094   6.990   2.756  1.2217  0.1429  0.2754
  166MOL0     C21796   4.937   7.000   2.733  0.1503  0.4543  0.4355
  166MOL0     N21797   4.874   7.121   2.799  0.8880  1.1860  0.1099
  166MOL0     C21798   4.758   7.182   2.754  0.2565  0.1903  0.2379
  166MOL0     C21799   4.730   7.253   2.866  0.1810 -0.2601 -0.3719
  166MOL0     C21800   4.615   7.345   2.877  0.7855 -0.0636 -0.5030
  166MOL0     C21801   4.645   7.492   2.832 -0.3688  0.9839 -0.1271
  166MOL0     C21802   4.688   7.585   2.947  0.2037  0.1254  0.0309
  166MOL0     C21803   4.568   7.610   3.048 -0.0111 -0.7726  0.3972
  166MOL0     O21804   4.476   7.714   2.998  0.3975  0.8780  1.1064
  166MOL0     C21805   4.358   7.740   3.068 -0.6738  0.7974  0.0836
  166MOL0     C21806   4.341   7.719   3.201  0.3858 -0.3623 -0.5240
  166MOL0     C21807   4.226   7.771   3.259  0.0579 -0.3014  0.4228
  166MOL0     C21808   4.120   7.817   3.179  0.0002 -0.1300  0.1897
  166MOL0     C21809   3.994   7.852   3.246  0.5197 -0.3443  0.0157
  166MOL0     O21810   3.881   7.862   3.161 -0.0477 -0.4917  0.2638
  166MOL0     C21811   3.758   7.895   3.205 -0.4524  0.0004  0.1777
  166MOL0     C21812   3.681   7.992   3.140 -0.3313 -0.5586  0.4454
  166MOL0     C21813   3.557   8.032   3.175  0.0552  0.6010  0.3836
  166MOL0     C21814   3.497   7.982   3.291 -0.2800  0.7897  0.4872
  166MOL0     O21815   3.377   8.012   3.339  0.2386 -0.2306  0.5076
  166MOL0     C21816   3.289   8.103   3.267 -0.4175  0.3329  0.1416
  166MOL0     C21817   3.162   8.128   3.353 -0.1550  0.0927  0.5115
  166MOL0     C21818   3.059   8.020   3.342  0.1436 -0.2296  0.3546
  166MOL0     C21819   2.954   8.045   3.445 -0.2269 -0.1222 -0.0097
  166MOL0     C21820   2.819   7.979   3.430 -0.7593  0.0073  0.3826
  166MOL0     C21821   2.706   8.035   3.520  0.0264  0.4211  0.9972
  166MOL0     C21822   2.575   7.959   3.509  0.6076 -0.5418 -0.1223
  166MOL0     C21823   2.470   7.999   3.614 -0.2601  0.1735  0.3188
  166MOL0    Cl21824   2.500   7.896   3.753  0.6050  0.1724  0.5143
  166MOL0     C21825   3.560   7.881   3.355  0.4202  0.5335 -0.3636
  166MOL0     C21826   3.688   7.835   3.312 -0.6426  0.5640  0.0554
  166MOL0     O21827   3.987   7.843   3.366  0.1231 -0.1992  0.5326
  166MOL0     C21828   4.141   7.834   3.044 -0.7704 -0.3309  0.7935
  166MOL0     C21829   4.262   7.802   2.987 -0.0053  0.1519 -0.1202
  166MOL0     N21830   4.832   7.250   2.949 -0.0251 -0.1321  0.0649
  166MOL0     N21831   4.916   7.161   2.923 -0.0308  0.3523 -0.2671
  166MOL0     C21832   6.000   6.606   2.459 -0.1996 -0.2619  0.0512
  166MOL0     C21833   6.139   6.575   2.451  0.8241  0.1569 -0.2415
  166MOL0     C21834   6.498   6.280   2.458 -0.2576  0.0424 -0.2670
  166MOL0     C21835   6.596   6.374   2.419  0.3495 -0.2147 -0.3373
  166MOL0     C21836   6.735   6.356   2.439  0.4629 -0.2653  0.3119
  166MOL0     C21837   6.775   6.224   2.484 -0.5963 -0.3597  0.7107
  166MOL0     O21838   6.908   6.189   2.501 -0.4908 -0.5796 -0.5776
  166MOL0     C21839   6.990   6.196   2.384  0.0930 -0.9453  0.2075
  166MOL0     C21840   6.955   6.075   2.300  0.0923 -0.2297  0.5026
  166MOL0     C21841   7.064   5.970   2.299 -0.3361  0.7201 -0.4628
  166MOL0     C21842   7.101   5.914   2.433 -0.5900 -0.1611  0.3785
  166MOL0     C21843   6.988   5.834   2.469 -0.0018  0.8167 -0.9431
  166MOL0     C21844   6.892   5.759   2.492  0.1637  0.5119 -0.3680
  166MOL0     C21845   6.678   6.131   2.514  0.1007  0.1255  0.2161
  166MOL0     C21846   6.543   6.151   2.501 -0.0927 -0.4527  0.7945
  166MOL0     H21847   6.131   6.303   2.652 -2.1384 -1.5918 -2.4057
  166MOL0     H21848   5.894   6.380   2.682 -1.2232 -1.0964 -1.1947
  166MOL0     H21849   5.794   6.761   2.555  0.5495 -1.5675 -0.3830
  166MOL0     H21850   5.782   6.674   2.712  0.5798 -1.6677  0.8278
  166MOL0     H21851   5.550   6.592   2.638  1.1478  1.2727  3.2116
  166MOL0     H21852   5.574   6.673   2.479 -0.1903 -1.1292  0.6080
  166MOL0     H21853   5.532   6.885   2.596 -1.5817 -1.4280 -1.4532
  166MOL0     H21854   5.538   6.796   2.762  1.9807  2.3224  0.0446
  166MOL0     H21855   5.351   6.759   2.517  2.6980 -0.4368 -1.3806
  166MOL0     H21856   5.342   6.657   2.667  2.6350  0.1521  0.8927
  166MOL0     H21857   5.354   6.957   2.691 -0.4918 -0.0342 -1.2297
  166MOL0     H21858   5.294   6.837   2.812  0.6632  0.2944  0.1156
  166MOL0     H21859   5.110   6.791   2.683  1.3908  0.0725  1.0702
  166MOL0     H21860   5.155   6.906   2.550  1.7087 -0.8024 -0.6137
  166MOL0     H21861   5.116   6.959   2.859  1.8483  0.9090  0.3770
  166MOL0     H21862   5.145   7.085   2.738  1.7051 -0.4266 -1.5490
  166MOL0     H21863   4.892   6.911   2.777  1.7739 -1.2131 -1.1298
  166MOL0     H21864   4.916   6.995   2.626 -0.9265 -1.9337  0.7054
  166MOL0     H21865   4.707   7.164   2.659  2.2138 -3.3696 -0.3080
  166MOL0     H21866   4.582   7.337   2.981  0.9503 -2.5376 -0.5859
  166MOL0     H21867   4.532   7.310   2.815 -2.6910  1.9320  2.5878
  166MOL0     H21868   4.567   7.532   2.767 -0.5614 -0.7294 -1.0282
  166MOL0     H21869   4.726   7.488   2.758 -0.1670 -1.9727  0.1298
  166MOL0     H21870   4.761   7.550   3.020  0.3408  0.1168 -0.1095
  166MOL0     H21871   4.734   7.677   2.910  4.3515 -1.1028  1.6257
  166MOL0     H21872   4.603   7.646   3.146 -3.9940  3.1397  0.6797
  166MOL0     H21873   4.502   7.524   3.060 -1.3684 -0.0241 -1.2765
  166MOL0     H21874   4.416   7.676   3.267  0.3046  0.8452  0.3825
  166MOL0     H21875   4.208   7.757   3.365 -1.5609 -0.7336  0.1146
  166MOL0     H21876   3.723   8.034   3.049  1.2793  0.6607  1.6914
  166MOL0     H21877   3.512   8.107   3.111 -1.0935 -0.6416 -0.3404
  166MOL0     H21878   3.260   8.063   3.169 -2.7732  1.0142  0.4875
  166MOL0     H21879   3.344   8.197   3.258 -1.7278  1.2561  1.3076
  166MOL0     H21880   3.120   8.226   3.331  1.6681  0.7113 -0.4131
  166MOL0     H21881   3.194   8.127   3.458  1.3277 -0.8525  0.0811
  166MOL0     H21882   3.096   7.918   3.358 -3.2249 -1.3277  2.0892
  166MOL0     H21883   3.019   8.031   3.241 -0.6271  0.8835  0.7709
  166MOL0     H21884   2.991   7.999   3.537 -1.1487 -2.6955 -0.8218
  166MOL0     H21885   2.946   8.151   3.470  1.1389  0.3174 -1.2614
  166MOL0     H21886   2.824   7.871   3.448  0.4865 -0.4512 -2.1638
  166MOL0     H21887   2.789   7.990   3.325 -0.7629 -1.4681  0.2049
  166MOL0     H21888   2.676   8.139   3.500 -0.5268  0.0465 -0.1767
  166MOL0     H21889   2.742   8.023   3.623 -0.1408  2.9023  1.4258
  166MOL0     H21890   2.531   7.991   3.414  2.2637 -1.4604 -1.2361
  166MOL0     H21891   2.595   7.852   3.501  0.8821 -0.7988  2.8340
  166MOL0     H21892   2.369   7.977   3.578  0.3176 -0.3318 -1.0450
  166MOL0     H21893   2.474   8.107   3.635  0.1757  0.7766 -2.4720
  166MOL0     H21894   3.512   7.822   3.432  1.9826 -1.4047 -0.8008
  166MOL0     H21895   3.743   7.760   3.368 -1.6872  0.8402  1.5054
  166MOL0     H21896   4.061   7.885   2.990  0.3126  3.0201  2.0746
  166MOL0     H21897   4.294   7.831   2.887 -1.0468  1.7581 -0.0196
  166MOL0     H21898   5.957   6.662   2.377  1.5732  1.0983 -0.0113
  166MOL0     H21899   6.201   6.628   2.378  0.6005  0.3594 -0.2863
  166MOL0     H21900   6.575   6.466   2.365 -0.1761 -0.2163 -0.1353
  166MOL0     H21901   6.807   6.433   2.414  0.2931 -0.1737  0.1100
  166MOL0     H21902   7.097   6.194   2.406 -0.2105 -1.3137  1.7825
  166MOL0     H21903   6.976   6.290   2.331 -0.0779 -1.7899 -1.3251
  166MOL0     H21904   6.859   6.025   2.318  1.0786 -2.3790  0.1578
  166MOL0     H21905   6.938   6.105   2.196 -1.9052  0.4360  0.9659
  166MOL0     H21906   7.148   6.019   2.250 -1.5249  0.7783 -2.5553
  166MOL0     H21907   7.023   5.894   2.231 -1.0536  1.6590 -1.1162
  166MOL0     H21908   7.177   5.840   2.409  0.5094  1.0897 -0.1145
  166MOL0     H21909   7.143   5.991   2.498 -1.0810  1.5327 -1.2088
  166MOL0     H21910   6.807   5.701   2.519 -0.9949  1.0669 -2.6025
  166MOL0     H21911   6.712   6.036   2.554 -1.4279 -0.8283 -0.6584
  166MOL0     H21912   6.473   6.075   2.535  0.0158 -0.0067  2.0985
  167MOL0     O21913   5.603   2.145   9.482 -0.5447 -0.2504  0.8835
  167MOL0     C21914   5.687   2.144   9.385  0.0210 -0.4951 -0.3344
  167MOL0     O21915   5.668   2.097   9.259  0.1812 -0.2230 -0.3534
  167MOL0     C21916   5.564   2.008   9.246 -0.3343 -0.2147 -0.3818
  167MOL0     C21917   5.470   2.037   9.146  0.0940 -0.4818  0.4712
  167MOL0     C21918   5.376   1.941   9.110 -0.0920  0.4912 -0.3214
  167MOL0     C21919   5.363   1.823   9.185  0.4373  0.7130 -0.0156
  167MOL0     O21920   5.267   1.730   9.145 -0.2197 -0.4223  0.0351
  167MOL0     C21921   5.220   1.717   9.015 -0.2694  0.3372 -0.3997
  167MOL0     C21922   5.147   1.582   9.001  0.1359 -0.8997 -0.6929
  167MOL0     C21923   5.024   1.570   9.093  0.6718  1.0046 -0.6360
  167MOL0     C21924   4.930   1.445   9.068  0.4702  0.3978 -0.2236
  167MOL0     C21925   4.779   1.486   9.073 -0.6886  0.1514 -0.0284
  167MOL0     C21926   4.702   1.356   9.054  0.3247  1.1083 -0.2965
  167MOL0     C21927   4.552   1.380   9.064  0.4618 -0.4976 -0.0852
  167MOL0     C21928   4.468   1.240   9.050  0.4645 -1.2597 -0.3573
  167MOL0     N21929   4.500   1.139   9.155 -1.0372  0.5323  0.3174
  167MOL0     C21930   4.516   1.171   9.287  0.0281 -0.3679 -0.2722
  167MOL0     C21931   4.586   1.064   9.335 -0.6583  0.3031 -1.0983
  167MOL0     C21932   4.654   1.068   9.476 -0.3065 -0.3356 -0.0704
  167MOL0     C21933   4.554   1.094   9.589 -0.4282 -0.2435  0.1770
  167MOL0     C21934   4.504   0.947   9.629 -0.6422 -1.3097 -0.8876
  167MOL0     C21935   4.376   0.958   9.707  0.8059 -0.3581  0.6936
  167MOL0     O21936   4.319   0.828   9.699  0.1033 -1.1629 -0.4260
  167MOL0     C21937   4.212   0.794   9.777  0.6721  0.7356 -0.4854
  167MOL0     C21938   4.191   0.841   9.914  0.3672  1.3125  0.1287
  167MOL0     C21939   4.080   0.783   9.980 -0.8309  0.4888  0.3325
  167MOL0     C21940   3.980   0.712   9.909  0.8385  0.3614 -0.1773
  167MOL0     C21941   3.854   0.673   9.971  0.7446 -0.4790 -0.7717
  167MOL0     O21942   3.751   0.614   9.893 -0.0288 -0.1664  0.3932
  167MOL0     C21943   3.616   0.645   9.918 -0.6759  0.8455 -0.1104
  167MOL0     C21944   3.547   0.751   9.859 -0.5510 -0.3570 -0.1321
  167MOL0     C21945   3.409   0.765   9.890  0.5478  0.5099  0.6207
  167MOL0     C21946   3.343   0.683   9.978 -0.3599  1.4059 -0.2143
  167MOL0     O21947   3.207   0.694  10.012  0.8051  0.1993 -0.2851
  167MOL0     C21948   3.119   0.762   9.916  1.3189  0.1268 -0.1462
  167MOL0     C21949   2.980   0.721   9.954  0.1343  0.1278 -0.3036
  167MOL0     C21950   2.940   0.784  10.087  1.0346  0.0854  0.2339
  167MOL0     C21951   2.804   0.724  10.127 -0.5339  0.3767  0.1361
  167MOL0     C21952   2.752   0.796  10.252 -0.3754  0.7244  0.3647
  167MOL0     C21953   2.625   0.722  10.289  0.0959  0.6146 -0.7673
  167MOL0     C21954   2.539   0.794  10.397 -0.3451  0.2547 -0.4236
  167MOL0     C21955   2.431   0.701  10.449  0.0856  0.2624 -0.2130
  167MOL0    Cl21956   2.317   0.800  10.554  0.3033 -0.2155 -0.0362
  167MOL0     C21957   3.414   0.577  10.036 -0.2969 -0.5531  0.1617
  167MOL0     C21958   3.552   0.570  10.018  0.4960 -0.0026  0.6177
  167MOL0     O21959   3.837   0.709  10.089  0.5220  0.6572  0.1090
  167MOL0     C21960   4.001   0.674   9.775 -0.0492 -1.0014 -0.2564
  167MOL0     C21961   4.121   0.712   9.714  0.1401 -0.2032 -0.2107
  167MOL0     N21962   4.624   0.982   9.237  0.0874 -0.0468 -0.2478
  167MOL0     N21963   4.568   1.020   9.126 -0.2121  0.2288 -1.2567
  167MOL0     C21964   5.463   1.792   9.277  0.4214  0.2019 -0.4470
  167MOL0     C21965   5.567   1.885   9.306 -0.3077  0.9290 -0.7443
  167MOL0     C21966   5.821   2.207   9.419 -0.1300 -0.0242  0.0146
  167MOL0     C21967   5.861   2.226   9.557  0.2095  0.4930 -0.1501
  167MOL0     C21968   5.983   2.289   9.584  1.1665  0.1882 -0.2100
  167MOL0     C21969   6.066   2.337   9.480 -0.2096 -0.1945 -0.3267
  167MOL0     O21970   6.178   2.421   9.496 -0.5037 -0.1888 -0.1692
  167MOL0     C21971   6.296   2.351   9.530  0.1371 -0.1581 -0.5902
  167MOL0     C21972   6.320   2.366   9.680  0.4417  0.6640  0.9676
  167MOL0     C21973   6.428   2.267   9.720 -0.1727  0.0738 -0.1758
  167MOL0     C21974   6.384   2.122   9.722  0.1914  0.9966 -0.8240
  167MOL0     C21975   6.485   2.043   9.791 -0.1325  0.0320 -0.3252
  167MOL0     C21976   6.568   1.958   9.832  0.4980 -0.2531 -0.4334
  167MOL0     C21977   6.026   2.315   9.347  0.6533  0.2823 -0.0720
  167MOL0     C21978   5.909   2.247   9.316  0.0777 -0.1266  0.4587
  167MOL0     H21979   5.466   2.129   9.089  0.4730 -0.2100  0.8737
  167MOL0     H21980   5.302   1.963   9.034  1.8319  0.4671 -2.3150
  167MOL0     H21981   5.298   1.725   8.939 -1.4925  0.4438 -1.6849
  167MOL0     H21982   5.149   1.797   8.993  0.8624  1.3924 -0.3167
  167MOL0     H21983   5.213   1.495   9.011 -1.9128 -2.6185 -1.3815
  167MOL0     H21984   5.124   1.586   8.894 -1.2961  1.0010 -0.3628
  167MOL0     H21985   4.962   1.660   9.086 -2.6071 -1.1554 -1.8833
  167MOL0     H21986   5.046   1.548   9.197 -2.8158  1.1153  0.2453
  167MOL0     H21987   4.950   1.413   8.966  0.5109  1.2869 -0.5010
  167MOL0     H21988   4.958   1.366   9.139  0.7377  0.5482 -0.1620
  167MOL0     H21989   4.772   1.552   8.986 -0.3178  1.3704  0.8534
  167MOL0     H21990   4.758   1.544   9.163  2.3012 -1.0505  1.6054
  167MOL0     H21991   4.722   1.284   9.134 -0.0685 -1.2025 -2.1669
  167MOL0     H21992   4.729   1.302   8.963  1.1858 -1.2516  1.2622
  167MOL0     H21993   4.521   1.441   9.149  0.5317 -0.9242  0.2479
  167MOL0     H21994   4.522   1.432   8.972 -2.1446  2.7857  2.3768
  167MOL0     H21995   4.498   1.192   8.957 -1.0568 -2.2462 -0.3642
  167MOL0     H21996   4.361   1.258   9.035  0.6645  0.3068 -0.0818
  167MOL0     H21997   4.513   1.261   9.348 -2.3920 -1.3180  1.1615
  167MOL0     H21998   4.719   1.156   9.471 -2.0866  1.0425  0.0534
  167MOL0     H21999   4.717   0.981   9.497 -1.8428 -1.0243  1.9373
  167MOL0     H22000   4.471   1.155   9.553  1.5560  0.8594 -2.8952
  167MOL0     H22001   4.610   1.150   9.664 -3.5265  2.8198  0.4432
  167MOL0     H22002   4.479   0.882   9.544 -2.5179 -2.5399  0.5337
  167MOL0     H22003   4.581   0.889   9.682 -0.6547 -1.0529 -0.5866
  167MOL0     H22004   4.310   1.024   9.651 -1.9331 -3.0166  0.5235
  167MOL0     H22005   4.383   1.007   9.805 -1.0564 -0.1064  0.7338
  167MOL0     H22006   4.264   0.904   9.965 -2.0872  5.6246 -1.1191
  167MOL0     H22007   4.070   0.804  10.085  0.0675  0.5794  0.4109
  167MOL0     H22008   3.596   0.823   9.794 -0.6130  1.6618  1.9224
  167MOL0     H22009   3.360   0.841   9.830  1.7703 -1.2286 -2.8639
  167MOL0     H22010   3.151   0.727   9.818  0.7364  0.9374 -0.6428
  167MOL0     H22011   3.133   0.871   9.919  0.8456  0.3305 -3.0586
  167MOL0     H22012   2.970   0.612   9.962  0.4572  0.0916 -0.3856
  167MOL0     H22013   2.913   0.750   9.873  1.7676 -0.6381 -1.9939
  167MOL0     H22014   2.930   0.892  10.074 -4.0480 -0.3154 -1.0897
  167MOL0     H22015   3.003   0.762  10.174 -1.4826  0.0684  2.1724
  167MOL0     H22016   2.733   0.731  10.044  0.1676 -0.8663 -0.5977
  167MOL0     H22017   2.812   0.616  10.148  0.8226  0.5038  0.3657
  167MOL0     H22018   2.745   0.903  10.229 -1.6956  0.7329  0.7230
  167MOL0     H22019   2.821   0.789  10.337 -2.8566 -2.9148  2.3399
  167MOL0     H22020   2.659   0.629  10.336  2.5134  0.2675 -2.9888
  167MOL0     H22021   2.571   0.696  10.197  0.8460 -1.8268 -0.5904
  167MOL0     H22022   2.599   0.837  10.478 -2.5041  1.9052  0.4068
  167MOL0     H22023   2.499   0.883  10.349  0.2030  1.4630  1.2697
  167MOL0     H22024   2.478   0.620  10.506  0.0454 -0.9446 -1.8176
  167MOL0     H22025   2.381   0.658  10.362  0.4511 -2.4543  0.8076
  167MOL0     H22026   3.370   0.506  10.105 -2.3204 -2.0037 -2.3986
  167MOL0     H22027   3.608   0.493  10.069 -0.2388  0.0201  1.4862
  167MOL0     H22028   3.923   0.628   9.716 -1.1075  1.0564 -0.5752
  167MOL0     H22029   4.136   0.681   9.612  2.4040 -1.5308  0.4617
  167MOL0     H22030   5.473   1.689   9.313  1.6581  0.2816 -0.4927
  167MOL0     H22031   5.652   1.852   9.365  0.0967  0.4176 -1.5999
  167MOL0     H22032   5.799   2.189   9.638  0.2006 -0.5354 -0.6170
  167MOL0     H22033   6.012   2.314   9.686  2.8392 -2.0520 -0.0568
  167MOL0     H22034   6.369   2.410   9.474  0.0532  0.5644  0.0582
  167MOL0     H22035   6.290   2.246   9.498 -3.7266 -0.7406  1.4129
  167MOL0     H22036   6.361   2.465   9.699  1.8505  0.2909  0.0377
  167MOL0     H22037   6.233   2.355   9.745  0.5747 -1.0321  0.9221
  167MOL0     H22038   6.475   2.305   9.811  1.7500  0.9541 -1.4669
  167MOL0     H22039   6.513   2.273   9.651  0.0922  4.9800  0.2156
  167MOL0     H22040   6.285   2.109   9.768  0.4365 -0.3308 -0.6394
  167MOL0     H22041   6.384   2.098   9.615  0.8703  0.9509 -0.8180
  167MOL0     H22042   6.652   1.901   9.867  0.6312  0.6523  0.7872
  167MOL0     H22043   6.083   2.347   9.260  1.2385 -2.0079 -0.5809
  167MOL0     H22044   5.877   2.228   9.214  0.1679  1.0965  0.1881
  168MOL0     O22045  10.979   0.300   1.895 -0.1303 -0.3582  0.0528
  168MOL0     C22046  10.915   0.379   1.821 -0.0415  0.4879 -0.1020
  168MOL0     O22047  10.788   0.422   1.844 -0.2577 -0.2732  0.5060
  168MOL0     C22048  10.741   0.383   1.966  0.3217 -0.4182 -0.4452
  168MOL0     C22049  10.754   0.467   2.078  0.5364  0.6125  0.2465
  168MOL0     C22050  10.689   0.431   2.195  0.8956 -0.4609 -0.0416
  168MOL0     C22051  10.623   0.313   2.209 -0.1715  0.3562 -0.7684
  168MOL0     O22052  10.554   0.293   2.335 -0.0943 -0.5317 -0.8104
  168MOL0     C22053  10.516   0.166   2.381 -0.0049 -0.3351 -0.3538
  168MOL0     C22054  10.446   0.183   2.521  0.4260  0.1248 -0.6000
  168MOL0     C22055  10.371   0.062   2.581 -0.4134 -0.4031  0.2111
  168MOL0     C22056  10.284   0.100   2.704 -0.3637 -0.5074  0.4762
  168MOL0     C22057  10.253  -0.037   2.772 -0.0331  0.1498  0.4099
  168MOL0     C22058  10.136  -0.029   2.872 -0.2310  0.1269  0.4541
  168MOL0     C22059   9.999   0.018   2.818 -0.0056  0.3605  0.0639
  168MOL0     C22060   9.888   0.001   2.930  0.4486 -0.0745  0.2558
  168MOL0     N22061   9.754   0.025   2.866 -0.7004 -0.2039 -0.2666
  168MOL0     C22062   9.717   0.154   2.831  0.2963 -0.1794 -0.7790
  168MOL0     C22063   9.589   0.131   2.790 -0.3263  0.0824 -0.4459
  168MOL0     C22064   9.497   0.248   2.770  0.2807 -0.8394 -0.1675
  168MOL0     C22065   9.351   0.216   2.804 -0.6334 -0.1916  0.4941
  168MOL0     C22066   9.324   0.190   2.953 -0.3328  0.0262 -0.5865
  168MOL0     C22067   9.184   0.145   2.986  0.1612 -0.2399  0.0827
  168MOL0     O22068   9.093   0.235   2.922  0.2341 -0.3437  0.2693
  168MOL0     C22069   8.996   0.193   2.833  0.4752  0.3675  0.2641
  168MOL0     C22070   8.883   0.263   2.813 -0.4225 -0.5800  0.4833
  168MOL0     C22071   8.796   0.229   2.711 -0.1774  0.1416  0.3092
  168MOL0     C22072   8.806   0.113   2.632 -1.0372  0.5671 -0.7315
  168MOL0     C22073   8.712   0.084   2.520  0.4008 -0.7546 -0.0011
  168MOL0     O22074   8.609   0.173   2.507 -0.5830 -0.0427  0.0426
  168MOL0     C22075   8.524   0.165   2.402 -0.4444 -0.1531 -0.1771
  168MOL0     C22076   8.557   0.137   2.272  0.0227 -0.2714 -0.4507
  168MOL0     C22077   8.465   0.115   2.178  0.1311 -0.0681  0.4750
  168MOL0     C22078   8.326   0.105   2.204  1.6196 -0.0274 -0.2133
  168MOL0     O22079   8.227   0.074   2.109  1.2031 -0.3376 -0.5024
  168MOL0     C22080   8.253  -0.027   2.015  0.3561  0.0299 -0.2654
  168MOL0     C22081   8.130  -0.044   1.940  0.5378 -0.2784 -0.1208
  168MOL0     C22082   8.006  -0.090   2.030  0.4191  0.1955  0.3823
  168MOL0     C22083   7.903  -0.136   1.938  0.0412  0.0519  0.6543
  168MOL0     C22084   7.769  -0.149   2.016 -0.1824 -0.3975 -0.6369
  168MOL0     C22085   7.648  -0.175   1.925  0.2137  0.5363  0.0606
  168MOL0     C22086   7.525  -0.208   2.013 -0.3741  0.0659 -0.1187
  168MOL0     C22087   7.401  -0.265   1.929 -0.9443 -0.5475 -0.6229
  168MOL0    Cl22088   7.359  -0.138   1.807  0.0961  0.5626  0.5654
  168MOL0     C22089   8.290   0.148   2.331  0.5145 -0.7688  0.0253
  168MOL0     C22090   8.386   0.185   2.428  0.0262 -0.3530  0.1175
  168MOL0     O22091   8.737  -0.000   2.435 -0.5360  0.5313  0.3197
  168MOL0     C22092   8.903   0.022   2.676 -0.3207  0.1712 -0.5240
  168MOL0     C22093   8.999   0.065   2.769 -0.1097 -0.6581 -0.2569
  168MOL0     N22094   9.548  -0.002   2.794 -0.0216 -0.7671 -0.2668
  168MOL0     N22095   9.656  -0.067   2.836  0.7189 -0.1732 -0.0252
  168MOL0     C22096  10.607   0.231   2.098  0.1447 -0.3364 -0.0531
  168MOL0     C22097  10.665   0.262   1.977 -0.1912 -0.6021 -0.1871
  168MOL0     C22098  10.979   0.463   1.711  0.0427 -0.4860 -0.1375
  168MOL0     C22099  11.091   0.411   1.637 -0.1800 -0.7276  0.8097
  168MOL0     C22100  11.150   0.500   1.542 -1.0428 -0.1763  0.4107
  168MOL0     C22101  11.105   0.633   1.528  0.0957  0.0701 -0.3303
  168MOL0     O22102  11.175   0.712   1.439  0.7258  0.0962 -0.0192
  168MOL0     C22103  11.113   0.817   1.366 -0.0862 -0.0726  0.2475
  168MOL0     C22104  11.132   0.777   1.221  0.0469 -0.5326 -0.5972
  168MOL0     C22105  11.050   0.861   1.124 -0.1121 -0.3922 -0.4763
  168MOL0     C22106  11.076   0.810   0.980  0.4582  0.0367 -0.0625
  168MOL0     C22107  10.972   0.715   0.943  0.8829 -0.0014  0.1498
  168MOL0     C22108  10.886   0.633   0.919 -0.0996  0.3537 -0.7028
  168MOL0     C22109  10.997   0.684   1.598 -0.3839  0.1515  0.5849
  168MOL0     C22110  10.944   0.604   1.691 -0.1702 -0.1923 -0.4600
  168MOL0     H22111  10.795   0.566   2.061  0.2342  1.0004  1.6778
  168MOL0     H22112  10.686   0.507   2.273 -0.8585  1.4871 -1.8600
  168MOL0     H22113  10.603   0.100   2.393 -1.1492 -2.2561 -1.9713
  168MOL0     H22114  10.452   0.116   2.308 -1.0894 -1.6470  1.4131
  168MOL0     H22115  10.374   0.264   2.514  0.2517  0.1533  1.0368
  168MOL0     H22116  10.518   0.218   2.596  0.0601 -0.7514  0.1885
  168MOL0     H22117  10.440  -0.016   2.614  2.4008 -0.4912 -4.8549
  168MOL0     H22118  10.301   0.030   2.503  0.2780  1.6100 -1.3352
  168MOL0     H22119  10.342   0.169   2.766  2.0727 -2.0970  0.1042
  168MOL0     H22120  10.198   0.144   2.654 -1.1361 -2.2038  0.2475
  168MOL0     H22121  10.350  -0.075   2.807 -0.1851 -3.2802 -2.3358
  168MOL0     H22122  10.224  -0.110   2.696 -1.6002  0.8166  0.3268
  168MOL0     H22123  10.170   0.032   2.956  1.2786  0.4475 -0.3493
  168MOL0     H22124  10.123  -0.126   2.921 -3.3585  0.2258  0.0193
  168MOL0     H22125  10.001   0.123   2.785  2.0820 -0.1073 -1.5350
  168MOL0     H22126   9.975  -0.045   2.732 -2.8327  2.4736 -0.8466
  168MOL0     H22127   9.909   0.071   3.012 -0.3333 -0.4293  0.7709
  168MOL0     H22128   9.888  -0.096   2.980  2.8655 -0.5861 -0.6188
  168MOL0     H22129   9.795   0.229   2.831  1.2938 -1.1421 -2.4200
  168MOL0     H22130   9.512   0.260   2.662 -1.7220 -0.8934 -0.4901
  168MOL0     H22131   9.522   0.337   2.827 -3.4546  0.4381 -0.2709
  168MOL0     H22132   9.326   0.124   2.750 -0.6714  1.2220 -2.0844
  168MOL0     H22133   9.279   0.294   2.777  2.0224  3.5495  3.0913
  168MOL0     H22134   9.393   0.111   2.984 -0.0276 -0.5565 -2.6285
  168MOL0     H22135   9.343   0.280   3.012 -0.9436  0.5046 -1.1185
  168MOL0     H22136   9.161   0.146   3.092 -1.3829 -1.7969 -0.1868
  168MOL0     H22137   9.170   0.041   2.955 -0.3628  0.0238 -0.5922
  168MOL0     H22138   8.859   0.357   2.862 -2.6424  0.0236 -1.5682
  168MOL0     H22139   8.728   0.304   2.672 -0.4997 -1.0606 -1.5968
  168MOL0     H22140   8.660   0.157   2.244 -1.3898  3.9333 -3.6790
  168MOL0     H22141   8.502   0.096   2.077  2.8086 -1.2070  1.5879
  168MOL0     H22142   8.282  -0.117   2.070  0.1762  0.4209  0.4953
  168MOL0     H22143   8.328   0.020   1.951 -0.5093  1.0181 -0.6021
  168MOL0     H22144   8.151  -0.107   1.854  1.3553  0.6856 -0.6365
  168MOL0     H22145   8.096   0.051   1.898 -0.2160 -1.4988 -2.4635
  168MOL0     H22146   7.968  -0.002   2.083 -1.0533 -1.9391  3.1281
  168MOL0     H22147   8.037  -0.166   2.103  2.8484 -0.7358 -1.4562
  168MOL0     H22148   7.887  -0.067   1.854 -2.9133 -0.8720  0.3446
  168MOL0     H22149   7.945  -0.222   1.885 -1.8777  0.4114 -1.6062
  168MOL0     H22150   7.755  -0.048   2.057 -2.0956  0.0284 -2.1865
  168MOL0     H22151   7.783  -0.221   2.097  2.8924  0.2114 -0.4931
  168MOL0     H22152   7.663  -0.263   1.861 -1.3509 -0.7740  1.4318
  168MOL0     H22153   7.623  -0.090   1.861 -2.6141 -0.5153 -0.3308
  168MOL0     H22154   7.549  -0.287   2.085 -1.6033 -1.6201 -1.4696
  168MOL0     H22155   7.505  -0.117   2.070  2.0849  1.1367 -0.7907
  168MOL0     H22156   7.319  -0.277   2.001 -0.6704  1.0912  0.0071
  168MOL0     H22157   7.437  -0.362   1.892 -0.1697 -1.9046  3.2094
  168MOL0     H22158   8.186   0.149   2.364  1.0073 -3.3492  1.9353
  168MOL0     H22159   8.342   0.212   2.524 -1.4235 -0.3181 -0.5350
  168MOL0     H22160   8.906  -0.074   2.625 -1.3827 -0.6516  0.8749
  168MOL0     H22161   9.079  -0.003   2.798 -0.1938 -0.0952  1.3897
  168MOL0     H22162  10.547   0.141   2.109  0.2746 -0.2132  2.1087
  168MOL0     H22163  10.640   0.202   1.890 -1.7328  2.5075 -2.0779
  168MOL0     H22164  11.133   0.321   1.681 -2.3930 -0.1191  4.6265
  168MOL0     H22165  11.227   0.461   1.476  0.5390  2.1917  0.7004
  168MOL0     H22166  11.166   0.910   1.386  0.0699  0.2942 -1.6498
  168MOL0     H22167  11.010   0.841   1.391 -0.3806 -0.1924 -0.7779
  168MOL0     H22168  11.236   0.800   1.199 -0.2370  0.3578 -1.0401
  168MOL0     H22169  11.109   0.671   1.206  0.2255 -0.1759 -4.5821
  168MOL0     H22170  11.086   0.963   1.115 -0.3068 -0.5055 -3.9921
  168MOL0     H22171  10.944   0.860   1.150 -0.6091  1.4318 -2.1729
  168MOL0     H22172  11.086   0.895   0.912  0.4474  0.8298  0.9082
  168MOL0     H22173  11.170   0.755   0.981  1.2470  1.3024 -1.0059
  168MOL0     H22174  10.812   0.564   0.884  1.8836 -1.4543 -1.6123
  168MOL0     H22175  10.971   0.789   1.592 -0.0736  0.1933 -0.0691
  168MOL0     H22176  10.863   0.653   1.743 -0.1583  0.5867 -1.1630
  169MOL0     O22177   4.468   7.981  10.728  0.5030  0.1816  0.7382
  169MOL0     C22178   4.533   7.884  10.683 -0.3108 -0.5177 -0.4229
  169MOL0     O22179   4.487   7.800  10.587 -0.2760 -0.3310 -0.4589
  169MOL0     C22180   4.355   7.801  10.543 -0.3057  0.6369  0.0333
  169MOL0     C22181   4.302   7.678  10.502 -0.1601 -0.0608 -0.7804
  169MOL0     C22182   4.168   7.656  10.471  0.1641  0.2958 -0.2900
  169MOL0     C22183   4.087   7.767  10.462  0.2788  0.3957 -0.5065
  169MOL0     O22184   3.951   7.774  10.445 -0.2101 -0.0040 -0.1066
  169MOL0     C22185   3.881   7.646  10.454 -0.1066  0.0004 -0.2851
  169MOL0     C22186   3.736   7.672  10.404  0.2052  0.5581  0.6016
  169MOL0     C22187   3.652   7.541  10.412 -0.2860 -0.5750 -1.0035
  169MOL0     C22188   3.511   7.562  10.366 -1.1423  0.1962  0.5973
  169MOL0     C22189   3.447   7.422  10.358 -0.1189 -0.1043 -0.4847
  169MOL0     C22190   3.299   7.440  10.328  0.3460  0.9632  0.5046
  169MOL0     C22191   3.216   7.303  10.303  0.6834 -0.8863 -0.1511
  169MOL0     C22192   3.066   7.324  10.273 -0.3961 -0.2438  0.0734
  169MOL0     N22193   3.047   7.428  10.152 -0.1114  0.3049 -0.1333
  169MOL0     C22194   3.065   7.564  10.149  0.1387  0.4699  0.0860
  169MOL0     C22195   3.053   7.597  10.014 -0.0718  0.2610 -0.6828
  169MOL0     C22196   3.095   7.729   9.957  0.2283  0.0652 -0.2285
  169MOL0     C22197   3.100   7.735   9.799  0.1477  0.6475 -0.7501
  169MOL0     C22198   3.004   7.829   9.728 -0.4057  0.0280  0.4216
  169MOL0     C22199   3.031   7.841   9.580  0.0882  0.1653 -0.3529
  169MOL0     O22200   2.949   7.950   9.520 -0.2228 -1.0410 -0.2916
  169MOL0     C22201   2.809   7.930   9.476 -0.3789 -0.3188 -0.0017
  169MOL0     C22202   2.741   7.811   9.499 -0.3625  0.2022 -0.6065
  169MOL0     C22203   2.609   7.789   9.461 -0.7734  0.0687 -0.3426
  169MOL0     C22204   2.539   7.888   9.392 -0.4705  0.1740  1.2848
  169MOL0     C22205   2.397   7.860   9.344 -0.5237  0.0101  0.1903
  169MOL0     O22206   2.338   7.955   9.263  0.2256  0.5089 -0.0444
  169MOL0     C22207   2.201   7.968   9.252 -0.3566  0.2668  0.1852
  169MOL0     C22208   2.159   8.079   9.180 -0.3356 -0.6306  0.4704
  169MOL0     C22209   2.027   8.103   9.142  0.6575 -1.0111 -0.4038
  169MOL0     C22210   1.933   8.015   9.192 -0.2762  0.1648 -0.0022
  169MOL0     O22211   1.808   8.043   9.148 -0.1895  0.0042  0.5343
  169MOL0     C22212   1.706   8.004   9.233  1.3404 -0.1195  0.2998
  169MOL0     C22213   1.583   8.100   9.220  0.2929 -0.2611  0.2639
  169MOL0     C22214   1.456   8.054   9.290  0.1775 -0.4245 -0.2450
  169MOL0     C22215   1.335   8.143   9.249 -0.0774  0.0123  0.0772
  169MOL0     C22216   1.220   8.127   9.345 -0.9987  0.1990 -0.9314
  169MOL0     C22217   1.092   8.186   9.306 -0.1028 -0.5134  0.6725
  169MOL0     C22218   0.965   8.144   9.394 -0.8717  0.2898 -0.4299
  169MOL0     C22219   0.840   8.230   9.383  0.2598 -0.1120 -0.0373
  169MOL0    Cl22220   0.874   8.371   9.473 -0.2140 -0.5498  0.0877
  169MOL0     C22221   1.975   7.902   9.267 -0.3174  0.3995  0.3856
  169MOL0     C22222   2.106   7.874   9.281 -0.9274  0.1734 -0.0744
  169MOL0     O22223   2.348   7.749   9.369 -0.3030  0.1458 -0.4405
  169MOL0     C22224   2.607   8.008   9.360 -0.2135  0.2845 -0.2775
  169MOL0     C22225   2.740   8.023   9.395  0.1924 -0.1689  0.3090
  169MOL0     N22226   3.016   7.485   9.943  0.8606 -0.1677 -0.5071
  169MOL0     N22227   3.008   7.386  10.027 -0.7904 -0.2877  0.1062
  169MOL0     C22228   4.145   7.893  10.485  0.5280  0.0845  0.3597
  169MOL0     C22229   4.273   7.915  10.533  0.9078  0.1085 -0.2329
  169MOL0     C22230   4.666   7.846  10.740 -0.4338 -0.5396 -0.0480
  169MOL0     C22231   4.721   7.719  10.723 -0.0186  0.1640  0.7603
  169MOL0     C22232   4.847   7.680  10.773 -0.2103 -0.1124  0.0217
  169MOL0     C22233   4.921   7.772  10.851 -0.3318 -0.6390  0.5195
  169MOL0     O22234   5.036   7.725  10.904 -0.2820 -0.1194 -0.3688
  169MOL0     C22235   5.129   7.815  10.973 -0.0455 -0.3241  0.1973
  169MOL0     C22236   5.274   7.755  10.991  0.5783  0.2304 -0.3096
  169MOL0     C22237   5.342   7.849  11.088  1.2035  0.2549 -0.2844
  169MOL0     C22238   5.493   7.825  11.101  0.6355 -0.4673 -0.2251
  169MOL0     C22239   5.536   7.946  11.175  0.8201  0.7883  0.2073
  169MOL0     C22240   5.565   8.031  11.252 -0.7140  0.6815  0.6143
  169MOL0     C22241   4.863   7.899  10.871  0.3398 -0.4718 -0.0698
  169MOL0     C22242   4.736   7.935  10.830 -0.1699 -0.2017 -0.2416
  169MOL0     H22243   4.367   7.593  10.524  1.0041  1.3749  1.8512
  169MOL0     H22244   4.136   7.553  10.454  0.0741  0.0646  1.1992
  169MOL0     H22245   3.886   7.602  10.554 -2.3959  1.1217  0.4004
  169MOL0     H22246   3.937   7.586  10.383  0.6488  0.1351  0.1816
  169MOL0     H22247   3.728   7.707  10.300 -0.6821  0.3977  0.6112
  169MOL0     H22248   3.682   7.743  10.466 -0.2405  2.0409 -1.3609
  169MOL0     H22249   3.654   7.522  10.519  0.3559  1.5854 -0.5764
  169MOL0     H22250   3.691   7.453  10.360  0.3221 -0.9615  0.0856
  169MOL0     H22251   3.454   7.624  10.436 -0.5862  1.8462 -0.3538
  169MOL0     H22252   3.510   7.615  10.270  1.6818  2.3932  1.6412
  169MOL0     H22253   3.463   7.355  10.444  2.7811  1.0407 -0.0211
  169MOL0     H22254   3.498   7.370  10.277  3.0412 -0.1874  1.3710
  169MOL0     H22255   3.304   7.497  10.235  1.3610  0.3357  0.1514
  169MOL0     H22256   3.244   7.505  10.397  0.0454 -1.7159  3.0007
  169MOL0     H22257   3.265   7.259  10.216 -0.4735 -0.9755 -0.7849
  169MOL0     H22258   3.232   7.233  10.386  1.6138 -0.8158 -0.2593
  169MOL0     H22259   3.027   7.374  10.362 -3.6426 -1.3761 -0.5825
  169MOL0     H22260   3.016   7.231  10.245 -0.4791 -0.4494  0.9018
  169MOL0     H22261   3.102   7.630  10.227 -1.9090  2.9904 -0.9187
  169MOL0     H22262   3.185   7.772  10.002  0.5205 -0.8307  0.0516
  169MOL0     H22263   3.007   7.791   9.980 -1.0626 -1.7200 -0.1532
  169MOL0     H22264   3.094   7.633   9.760  1.4507  0.1436  0.2867
  169MOL0     H22265   3.203   7.770   9.788  0.9616 -0.2970  2.6973
  169MOL0     H22266   2.902   7.793   9.745 -0.6764  0.4449 -0.2698
  169MOL0     H22267   3.020   7.930   9.766  1.1303  0.9711 -2.4524
  169MOL0     H22268   3.026   7.754   9.514  0.1446 -0.6232  0.6638
  169MOL0     H22269   3.132   7.884   9.578 -0.7369  2.1860 -0.8066
  169MOL0     H22270   2.782   7.732   9.561 -2.6156  2.3437  4.1604
  169MOL0     H22271   2.559   7.693   9.471 -0.1955 -0.2116 -0.1073
  169MOL0     H22272   2.231   8.149   9.139  0.2263  0.6738  3.3815
  169MOL0     H22273   2.007   8.186   9.074  3.1279  0.5709  0.6706
  169MOL0     H22274   1.740   8.006   9.337  0.1191 -3.4252  0.8660
  169MOL0     H22275   1.673   7.904   9.204 -0.0067  0.0235  1.2772
  169MOL0     H22276   1.558   8.116   9.115  1.9048 -1.5079 -0.3648
  169MOL0     H22277   1.615   8.200   9.252  1.0884 -0.6030  0.5880
  169MOL0     H22278   1.485   8.060   9.395 -0.6604  0.2321 -0.0420
  169MOL0     H22279   1.432   7.951   9.260  1.0825 -0.4432 -0.9659
  169MOL0     H22280   1.363   8.249   9.248  0.1698 -0.0276  1.1010
  169MOL0     H22281   1.306   8.121   9.146  1.8214  3.1757 -1.2944
  169MOL0     H22282   1.250   8.177   9.438  2.0518 -2.1278 -0.5179
  169MOL0     H22283   1.203   8.021   9.365 -0.3349 -0.1601 -2.1739
  169MOL0     H22284   1.062   8.163   9.203 -0.3812  0.0774  0.6151
  169MOL0     H22285   1.098   8.295   9.294 -3.3650 -0.1665  1.2602
  169MOL0     H22286   0.932   8.041   9.376 -0.9724  0.3094 -0.3628
  169MOL0     H22287   1.003   8.148   9.497 -0.2053  0.9286 -0.6960
  169MOL0     H22288   0.752   8.178   9.421 -0.4222 -0.9152 -2.4969
  169MOL0     H22289   0.808   8.255   9.281  0.1687 -1.7080 -0.4289
  169MOL0     H22290   1.907   7.828   9.307  0.9528 -2.0984 -1.7411
  169MOL0     H22291   2.130   7.776   9.321  2.7770  0.3208 -1.5443
  169MOL0     H22292   2.553   8.079   9.298  0.7984  0.6431 -0.7654
  169MOL0     H22293   2.787   8.116   9.364 -0.4204  0.3641  0.9498
  169MOL0     H22294   4.077   7.976  10.470  0.3529 -0.4900 -2.9607
  169MOL0     H22295   4.325   8.009  10.553  1.4049 -0.7120  2.7461
  169MOL0     H22296   4.666   7.649  10.660 -0.7036 -0.0516  1.5828
  169MOL0     H22297   4.879   7.580  10.748 -3.5851 -1.0685 -1.0575
  169MOL0     H22298   5.079   7.841  11.066  0.0837  0.8445 -0.0476
  169MOL0     H22299   5.124   7.907  10.915 -0.7186  0.0704  0.8620
  169MOL0     H22300   5.261   7.650  11.020 -3.8804  0.9596  1.1559
  169MOL0     H22301   5.333   7.753  10.899  2.0467  2.0310  0.5162
  169MOL0     H22302   5.285   7.836  11.180  0.2848 -2.8946 -1.1990
  169MOL0     H22303   5.323   7.951  11.051 -2.8691  1.3667  3.8866
  169MOL0     H22304   5.506   7.731  11.155 -1.8619 -1.9432 -2.0015
  169MOL0     H22305   5.537   7.825  11.001  1.1649  2.2906 -0.0780
  169MOL0     H22306   5.599   8.095  11.332  1.3363  0.0794  0.2865
  169MOL0     H22307   4.904   7.967  10.945 -2.7205  0.6167  0.7846
  169MOL0     H22308   4.695   8.028  10.865 -0.2876 -0.5629  0.5977
  170MOL0     O22309   2.960   1.796   7.545 -0.1180 -0.1594 -0.3904
  170MOL0     C22310   2.942   1.914   7.562 -0.6262 -0.1684 -0.6900
  170MOL0     O22311   2.827   1.972   7.616  0.1970 -0.6328  0.6797
  170MOL0     C22312   2.714   1.905   7.645 -0.0547  0.0649 -0.5665
  170MOL0     C22313   2.689   1.764   7.639  0.4806  0.0396 -0.3314
  170MOL0     C22314   2.565   1.714   7.675  0.0379 -0.4126 -0.2921
  170MOL0     C22315   2.456   1.805   7.714 -0.1902 -0.3388  0.0683
  170MOL0     O22316   2.340   1.751   7.759  0.2446  0.1441 -0.0129
  170MOL0     C22317   2.262   1.711   7.642 -0.5223 -0.1305 -0.7730
  170MOL0     C22318   2.116   1.668   7.694  1.0300  0.9347  0.2404
  170MOL0     C22319   2.131   1.530   7.764  0.0803 -0.4620 -0.5219
  170MOL0     C22320   1.993   1.471   7.798  0.3358 -0.3905  0.4879
  170MOL0     C22321   1.991   1.322   7.823 -0.2173 -0.0518 -0.0182
  170MOL0     C22322   2.081   1.260   7.931  0.0532  1.0896  0.0611
  170MOL0     C22323   2.092   1.334   8.062 -0.4866  0.5770  0.0139
  170MOL0     C22324   1.982   1.313   8.163  0.5180 -0.1126  0.2768
  170MOL0     N22325   1.845   1.335   8.125  0.2057 -0.0737  0.4263
  170MOL0     C22326   1.799   1.455   8.088  0.6679  0.1031 -0.3485
  170MOL0     C22327   1.672   1.438   8.055 -0.1390  0.7796  0.2815
  170MOL0     C22328   1.574   1.542   7.994  0.2769  0.7822  0.5458
  170MOL0     C22329   1.571   1.526   7.838 -0.1725  0.7977  0.8011
  170MOL0     C22330   1.473   1.621   7.765 -0.1664 -0.1417  1.0768
  170MOL0     C22331   1.479   1.768   7.809 -0.0614 -0.6224  0.2527
  170MOL0     O22332   1.413   1.807   7.928  1.0423 -0.2212 -0.9058
  170MOL0     C22333   1.278   1.804   7.908 -0.5182 -0.0477 -0.8873
  170MOL0     C22334   1.203   1.905   7.847  0.8055  0.1125  0.7178
  170MOL0     C22335   1.059   1.899   7.832 -0.1518 -0.2597 -0.3994
  170MOL0     C22336   0.988   1.797   7.901  0.3475  0.6134  0.3387
  170MOL0     C22337   0.841   1.794   7.900  0.3757  0.4041  0.2013
  170MOL0     O22338   0.789   1.700   7.978 -0.1962  0.0815 -0.2549
  170MOL0     C22339   0.654   1.667   7.961 -0.0582 -1.0773  1.0763
  170MOL0     C22340   0.607   1.620   7.834  0.9018  0.0071  0.3208
  170MOL0     C22341   0.474   1.594   7.808 -0.2807 -0.4043 -0.1384
  170MOL0     C22342   0.385   1.599   7.908 -0.4758 -0.3418  0.1131
  170MOL0     O22343   0.254   1.565   7.889 -0.0981 -0.4313 -0.2854
  170MOL0     C22344   0.190   1.572   7.761  0.1808  0.2174  0.4588
  170MOL0     C22345   0.041   1.541   7.775  0.3660  0.2770 -0.2616
  170MOL0     C22346  -0.039   1.639   7.864  0.5576  0.0464  0.1749
  170MOL0     C22347  -0.084   1.756   7.776 -0.0170 -0.4742  0.1182
  170MOL0     C22348  -0.161   1.871   7.846  0.5523 -0.4044 -0.1563
  170MOL0     C22349  -0.319   1.869   7.838  0.8722 -0.0199  0.6235
  170MOL0     C22350  -0.396   1.989   7.904  0.3900  0.4073  0.1676
  170MOL0     C22351  -0.547   1.967   7.899 -0.2831 -0.1635  0.3364
  170MOL0    Cl22352  -0.593   1.829   8.003  0.1605 -0.3257  0.4225
  170MOL0     C22353   0.422   1.639   8.033 -0.4989 -0.1819  0.0336
  170MOL0     C22354   0.556   1.676   8.062  0.1353  0.8442 -0.1634
  170MOL0     O22355   0.783   1.861   7.819  0.2081  0.2827  0.3234
  170MOL0     C22356   1.068   1.699   7.971  0.1587  0.0727 -0.8673
  170MOL0     C22357   1.207   1.708   7.974 -0.1625  0.6470 -0.3419
  170MOL0     N22358   1.634   1.310   8.099 -0.3627  0.6313  0.0073
  170MOL0     N22359   1.736   1.246   8.131 -0.0597 -0.6322  0.3593
  170MOL0     C22360   2.481   1.944   7.712 -0.9561  0.5130 -0.1176
  170MOL0     C22361   2.608   1.987   7.688  0.2722 -0.2814  0.6325
  170MOL0     C22362   3.068   2.002   7.542 -0.1429  0.0319 -0.1028
  170MOL0     C22363   3.178   1.961   7.470  0.5260 -0.4185 -0.7310
  170MOL0     C22364   3.298   2.034   7.457  0.1010 -0.5918  0.2340
  170MOL0     C22365   3.296   2.171   7.504  0.2837  0.1655 -0.3176
  170MOL0     O22366   3.402   2.250   7.472 -0.1394  0.4867  0.0024
  170MOL0     C22367   3.426   2.381   7.524  0.0421 -0.0645 -0.2831
  170MOL0     C22368   3.472   2.384   7.666 -0.2273  1.6862  0.7338
  170MOL0     C22369   3.590   2.291   7.695 -0.5186  0.3914  0.3113
  170MOL0     C22370   3.706   2.290   7.589 -0.0149  0.4435 -0.2261
  170MOL0     C22371   3.831   2.226   7.634  0.3535  0.2626  0.6607
  170MOL0     C22372   3.935   2.169   7.643  0.3147 -0.2058 -0.4793
  170MOL0     C22373   3.177   2.217   7.569 -0.2672  0.2752 -0.0633
  170MOL0     C22374   3.065   2.134   7.589 -0.2214 -0.0358 -0.7687
  170MOL0     H22375   2.761   1.686   7.615  1.0945  0.6471 -0.4979
  170MOL0     H22376   2.536   1.611   7.690 -2.6520  0.2479 -0.5232
  170MOL0     H22377   2.299   1.629   7.580 -1.7873 -1.3001 -0.0384
  170MOL0     H22378   2.254   1.804   7.584 -1.0930  1.6812  2.0351
  170MOL0     H22379   2.046   1.672   7.609  1.6191  1.0609 -0.2469
  170MOL0     H22380   2.086   1.738   7.773 -1.5290 -1.4179  1.5178
  170MOL0     H22381   2.199   1.546   7.848 -0.2555 -2.1505  0.1171
  170MOL0     H22382   2.182   1.461   7.696 -0.7630 -0.8085 -0.8215
  170MOL0     H22383   1.965   1.526   7.889 -0.6717  0.3605 -0.2467
  170MOL0     H22384   1.926   1.500   7.717  0.7718 -0.7262  0.0077
  170MOL0     H22385   2.018   1.272   7.729 -0.5222  0.7828 -0.5611
  170MOL0     H22386   1.887   1.292   7.834  0.0868 -2.3984 -2.4822
  170MOL0     H22387   2.181   1.241   7.890  0.2763 -3.9100  2.2363
  170MOL0     H22388   2.039   1.163   7.960  1.4628 -0.0973 -1.6234
  170MOL0     H22389   2.186   1.308   8.110 -0.1829  5.2608  2.5241
  170MOL0     H22390   2.099   1.439   8.034  0.3811  0.6817  0.5835
  170MOL0     H22391   2.007   1.370   8.253 -0.6442 -1.4691  1.4961
  170MOL0     H22392   1.969   1.209   8.192 -0.3541 -0.9340 -2.6702
  170MOL0     H22393   1.866   1.534   8.056  0.7943 -0.3260 -1.1787
  170MOL0     H22394   1.603   1.643   8.025  0.6842  0.6204  0.7046
  170MOL0     H22395   1.480   1.524   8.046  1.0746 -0.5579  1.5761
  170MOL0     H22396   1.555   1.421   7.810  5.7478  0.3868 -2.6367
  170MOL0     H22397   1.666   1.550   7.791 -0.5299  1.0010  0.1726
  170MOL0     H22398   1.496   1.606   7.659 -1.1848 -3.0668  1.1884
  170MOL0     H22399   1.375   1.576   7.779  0.6758 -1.7774  2.0155
  170MOL0     H22400   1.433   1.830   7.731  3.5122  1.3161 -0.5428
  170MOL0     H22401   1.583   1.800   7.815 -0.2809 -0.0078  0.8026
  170MOL0     H22402   1.252   1.996   7.813 -2.3152  2.1693  1.2340
  170MOL0     H22403   0.995   1.971   7.782  0.6998  1.9778  1.5249
  170MOL0     H22404   0.678   1.609   7.752  0.3147 -1.4854 -0.0149
  170MOL0     H22405   0.448   1.587   7.703  0.6768  3.4462 -0.7641
  170MOL0     H22406   0.221   1.494   7.692  0.0694  1.6527 -1.2962
  170MOL0     H22407   0.207   1.665   7.706 -0.1467  1.1463  1.8471
  170MOL0     H22408   0.052   1.441   7.817  0.0976 -0.0380 -0.9172
  170MOL0     H22409  -0.010   1.532   7.678 -0.6063 -2.7360  0.4223
  170MOL0     H22410   0.028   1.680   7.940 -0.1675  2.5333 -0.4151
  170MOL0     H22411  -0.119   1.588   7.919  0.1929 -1.1148 -1.3697
  170MOL0     H22412  -0.001   1.804   7.723  0.0522 -0.9809 -0.2400
  170MOL0     H22413  -0.142   1.710   7.695  0.3765  0.2616 -0.5902
  170MOL0     H22414  -0.142   1.966   7.795  1.3574 -2.1210 -3.3123
  170MOL0     H22415  -0.135   1.874   7.952 -1.2577  1.4189  0.3073
  170MOL0     H22416  -0.357   1.780   7.889  0.6549  0.8944  2.1180
  170MOL0     H22417  -0.355   1.866   7.735  1.1875 -0.8769  0.5293
  170MOL0     H22418  -0.366   2.011   8.006 -0.8842  0.5992  0.5130
  170MOL0     H22419  -0.367   2.078   7.847 -0.1526  1.7291  1.8987
  170MOL0     H22420  -0.580   1.953   7.795  0.5181 -0.8895  0.1638
  170MOL0     H22421  -0.597   2.049   7.950 -1.5976 -0.5782 -0.2526
  170MOL0     H22422   0.345   1.651   8.107  1.1418  4.7186  1.3761
  170MOL0     H22423   0.576   1.702   8.165  0.2849 -3.7419  1.1716
  170MOL0     H22424   1.032   1.609   8.020  2.7624 -1.5828 -1.8282
  170MOL0     H22425   1.261   1.634   8.034  1.0216  4.2160  3.4875
  170MOL0     H22426   2.397   2.009   7.734 -1.7705 -0.4663 -0.2991
  170MOL0     H22427   2.616   2.094   7.707  1.8981 -0.6309  2.1467
  170MOL0     H22428   3.178   1.866   7.417 -1.2633  0.0050 -1.5646
  170MOL0     H22429   3.383   1.995   7.403  0.1188 -1.6004  0.9497
  170MOL0     H22430   3.335   2.442   7.527 -0.2277 -0.4916  0.5006
  170MOL0     H22431   3.498   2.429   7.457 -1.2354  1.6344 -0.5278
  170MOL0     H22432   3.489   2.489   7.692 -2.2416  2.1793  0.1629
  170MOL0     H22433   3.398   2.351   7.739  1.5956 -1.3924  1.4070
  170MOL0     H22434   3.544   2.192   7.699 -0.5873  0.4337  0.6284
  170MOL0     H22435   3.627   2.327   7.791 -0.1932 -1.1467  0.7921
  170MOL0     H22436   3.672   2.221   7.511  1.8252 -0.7359 -0.0680
  170MOL0     H22437   3.728   2.380   7.533  3.7326 -1.0311 -1.4260
  170MOL0     H22438   4.025   2.112   7.642 -0.1965 -1.0302 -0.0902
  170MOL0     H22439   3.188   2.321   7.601 -0.5136  0.7025 -1.3305
  170MOL0     H22440   2.982   2.168   7.650  1.2697  0.7502  0.9053
  171MOL0     O22441   8.241   4.616   5.955 -0.1705  0.4292  0.2230
  171MOL0     C22442   8.279   4.692   6.038  0.3118  0.3394 -0.7311
  171MOL0     O22443   8.205   4.790   6.106 -0.0283  0.0398  0.0915
  171MOL0     C22444   8.076   4.808   6.074  0.2540  0.1703 -0.0432
  171MOL0     C22445   7.983   4.839   6.185 -0.0132  0.5267  0.9575
  171MOL0     C22446   7.839   4.859   6.164 -0.1623 -0.6388  0.4654
  171MOL0     C22447   7.788   4.853   6.031 -0.2120 -0.5644  0.1830
  171MOL0     O22448   7.660   4.884   5.992  0.0940 -0.2878  0.5979
  171MOL0     C22449   7.564   4.934   6.087 -0.2518 -1.0013  0.8179
  171MOL0     C22450   7.464   5.021   6.008  0.0678 -0.1035 -0.0809
  171MOL0     C22451   7.331   5.035   6.085 -0.3340  0.1341 -0.4628
  171MOL0     C22452   7.232   5.139   6.022 -0.0097  0.0080  0.6556
  171MOL0     C22453   7.109   5.181   6.107  0.1369 -1.1221  0.7931
  171MOL0     C22454   7.027   5.085   6.194  0.6768 -0.6988  0.5914
  171MOL0     C22455   6.979   4.966   6.117  0.4273 -0.8572  0.5120
  171MOL0     C22456   6.864   4.894   6.200 -0.4709 -0.4092  0.6086
  171MOL0     N22457   6.829   4.754   6.163  0.5112 -0.1547  0.1289
  171MOL0     C22458   6.911   4.650   6.203 -0.4640 -0.3633  1.2234
  171MOL0     C22459   6.837   4.542   6.164  0.4458  0.0848 -0.6403
  171MOL0     C22460   6.876   4.386   6.174  0.6666 -0.7251 -0.0710
  171MOL0     C22461   6.755   4.297   6.208 -0.6927  0.5797  0.0833
  171MOL0     C22462   6.703   4.322   6.356 -0.0254  0.0171  1.0272
  171MOL0     C22463   6.565   4.250   6.387 -0.2356 -0.3433 -0.0795
  171MOL0     O22464   6.466   4.285   6.285  0.1448 -0.0278 -0.4678
  171MOL0     C22465   6.340   4.219   6.289 -0.1036 -0.1044 -0.9790
  171MOL0     C22466   6.299   4.121   6.383 -0.3504 -0.3192  0.1739
  171MOL0     C22467   6.179   4.050   6.379  0.5638  0.2176 -0.2643
  171MOL0     C22468   6.080   4.084   6.285 -0.5125  1.0170 -0.2570
  171MOL0     C22469   5.961   4.002   6.271  0.0860 -0.2584  0.1166
  171MOL0     O22470   5.930   3.897   6.358  0.4517  0.3071 -0.6518
  171MOL0     C22471   5.801   3.846   6.344 -0.1284 -0.0112 -0.3241
  171MOL0     C22472   5.774   3.731   6.263 -0.4427  0.1323  0.1387
  171MOL0     C22473   5.645   3.681   6.248 -0.1956  0.6262  0.2265
  171MOL0     C22474   5.534   3.734   6.312  0.8523  0.6985 -0.6091
  171MOL0     O22475   5.412   3.675   6.317 -1.0021 -0.7404 -0.4926
  171MOL0     C22476   5.373   3.581   6.217  0.0389 -0.7093  0.8854
  171MOL0     C22477   5.226   3.566   6.222  0.3063 -0.2496  0.3610
  171MOL0     C22478   5.152   3.667   6.138  0.7230 -0.3306 -0.6530
  171MOL0     C22479   5.006   3.641   6.123 -0.5990  0.2909 -0.0095
  171MOL0     C22480   4.921   3.628   6.252  0.2396  0.4858  0.0075
  171MOL0     C22481   4.772   3.593   6.235  0.3934 -0.0495 -0.2300
  171MOL0     C22482   4.759   3.449   6.166  0.1288 -0.3109 -0.2503
  171MOL0     C22483   4.616   3.404   6.188  0.3465  0.1041 -0.1470
  171MOL0    Cl22484   4.502   3.497   6.090  0.3075 -0.4870  0.0254
  171MOL0     C22485   5.563   3.838   6.405  0.4971  0.5483  0.6379
  171MOL0     C22486   5.690   3.891   6.413 -0.6684 -0.6530  0.2915
  171MOL0     O22487   5.892   4.027   6.176  0.5736 -0.2394  0.6032
  171MOL0     C22488   6.111   4.185   6.196 -0.2747  0.3570  0.8951
  171MOL0     C22489   6.240   4.253   6.202  0.5823  0.1193  0.4283
  171MOL0     N22490   6.724   4.585   6.095  0.6516  0.3401 -0.5965
  171MOL0     N22491   6.720   4.711   6.079  0.2863 -1.2107 -0.6689
  171MOL0     C22492   7.878   4.838   5.924 -0.5359 -0.1793  0.1556
  171MOL0     C22493   8.018   4.816   5.946 -1.0486 -0.4844 -0.4949
  171MOL0     C22494   8.424   4.685   6.065  0.2158 -0.2672  0.1968
  171MOL0     C22495   8.484   4.789   6.138 -0.4847  0.0366 -0.7048
  171MOL0     C22496   8.622   4.788   6.177  0.5497 -0.0885 -0.3439
  171MOL0     C22497   8.704   4.678   6.135 -0.0719 -0.4349 -0.0628
  171MOL0     O22498   8.836   4.646   6.161 -0.4588  0.7937 -0.1361
  171MOL0     C22499   8.902   4.756   6.219  0.9353 -0.3189  0.5809
  171MOL0     C22500   9.046   4.713   6.231 -0.5885 -0.3238  0.8719
  171MOL0     C22501   9.139   4.830   6.247 -0.0144  0.0051  0.4161
  171MOL0     C22502   9.159   4.883   6.386  0.2639 -0.3118  0.5862
  171MOL0     C22503   9.217   4.788   6.480 -0.3848 -0.2725  0.2811
  171MOL0     C22504   9.275   4.716   6.561  0.4975  0.7443  0.1479
  171MOL0     C22505   8.634   4.575   6.059  0.5262  0.4892  0.0885
  171MOL0     C22506   8.502   4.579   6.025  0.4700  0.6347 -0.0346
  171MOL0     H22507   8.020   4.848   6.287  0.7928 -0.8103  0.8086
  171MOL0     H22508   7.781   4.875   6.254  1.7345 -3.1382  2.2645
  171MOL0     H22509   7.613   4.996   6.162  0.6361  1.2487 -1.4416
  171MOL0     H22510   7.523   4.848   6.140  0.5585 -1.3939  0.8111
  171MOL0     H22511   7.424   4.979   5.915 -2.8843  0.4513  0.8153
  171MOL0     H22512   7.518   5.111   5.979  3.4894 -1.9279  0.0586
  171MOL0     H22513   7.355   5.072   6.185 -2.2785  2.6166 -0.8060
  171MOL0     H22514   7.288   4.935   6.086 -1.4049  0.5779 -1.0621
  171MOL0     H22515   7.280   5.225   5.976 -1.6019 -1.1055 -3.5889
  171MOL0     H22516   7.199   5.082   5.934  1.1664  0.7954 -0.3341
  171MOL0     H22517   7.047   5.249   6.048  2.2988  0.2950  0.0288
  171MOL0     H22518   7.143   5.252   6.183 -0.4128 -0.8184  0.7672
  171MOL0     H22519   6.952   5.143   6.248 -0.8937 -1.6530 -0.4718
  171MOL0     H22520   7.089   5.039   6.272 -0.5395  0.6548  2.4260
  171MOL0     H22521   6.941   4.996   6.019 -0.0190 -1.0541  0.6212
  171MOL0     H22522   7.054   4.888   6.097  1.3875  0.6944 -2.5061
  171MOL0     H22523   6.767   4.943   6.199 -0.0064  0.5278  0.8530
  171MOL0     H22524   6.892   4.889   6.305 -1.1151  1.0761  0.8702
  171MOL0     H22525   7.005   4.654   6.257 -0.2450 -1.7596  0.9587
  171MOL0     H22526   6.948   4.375   6.256  0.2279  2.3366  0.8527
  171MOL0     H22527   6.913   4.343   6.080  3.3253 -0.9802  1.0054
  171MOL0     H22528   6.777   4.191   6.197  0.2855  0.8729 -0.9414
  171MOL0     H22529   6.674   4.321   6.139 -0.7849 -3.0000 -1.2486
  171MOL0     H22530   6.784   4.298   6.425  2.2987  3.1908 -0.3504
  171MOL0     H22531   6.691   4.429   6.375  1.7828  0.1647  1.5240
  171MOL0     H22532   6.544   4.286   6.487 -0.0043 -1.7438  0.5034
  171MOL0     H22533   6.581   4.142   6.382  0.5182 -0.3069  1.0854
  171MOL0     H22534   6.375   4.098   6.456 -0.3717 -1.2970 -0.0994
  171MOL0     H22535   6.165   3.965   6.446  1.1930  0.9278  0.8014
  171MOL0     H22536   5.863   3.687   6.221 -1.8520 -0.0232 -2.9718
  171MOL0     H22537   5.627   3.590   6.192 -1.9797  1.7211 -1.0835
  171MOL0     H22538   5.410   3.484   6.253 -0.1614 -0.5038  1.6781
  171MOL0     H22539   5.412   3.591   6.115 -0.1757 -1.4729  0.7220
  171MOL0     H22540   5.192   3.578   6.325  0.4984  2.1271  0.2082
  171MOL0     H22541   5.197   3.472   6.176 -0.7452 -0.0231  0.5501
  171MOL0     H22542   5.188   3.665   6.035  1.0779  0.2673 -0.5473
  171MOL0     H22543   5.179   3.767   6.176  2.6456 -1.4662  1.1970
  171MOL0     H22544   4.962   3.715   6.055 -1.0728 -1.2768 -1.4538
  171MOL0     H22545   4.995   3.545   6.074  0.8996 -0.8639  1.7509
  171MOL0     H22546   4.918   3.728   6.296  0.5965  1.1063 -1.3377
  171MOL0     H22547   4.970   3.563   6.326  1.8116  0.7021 -0.8132
  171MOL0     H22548   4.721   3.675   6.184 -2.0138 -1.2576  0.0546
  171MOL0     H22549   4.723   3.589   6.333  2.5747  0.1062  0.9231
  171MOL0     H22550   4.785   3.456   6.060  1.6571  0.6227  0.1621
  171MOL0     H22551   4.832   3.378   6.206  0.1661  0.7415  1.6639
  171MOL0     H22552   4.588   3.414   6.294 -2.9147  0.2076 -0.8999
  171MOL0     H22553   4.608   3.301   6.153 -0.0191  0.5389 -1.3942
  171MOL0     H22554   5.486   3.871   6.473  1.8448  1.7564  1.6437
  171MOL0     H22555   5.709   3.972   6.483  3.1220  0.2787 -1.5639
  171MOL0     H22556   6.044   4.212   6.115  0.8229 -0.0601 -0.1959
  171MOL0     H22557   6.267   4.332   6.132 -0.7130  0.7012  0.5529
  171MOL0     H22558   7.839   4.832   5.823  4.2344 -0.3974 -1.9234
  171MOL0     H22559   8.084   4.800   5.861  0.7398 -0.2360  0.7952
  171MOL0     H22560   8.417   4.874   6.148  0.2457  0.6374 -0.7748
  171MOL0     H22561   8.656   4.878   6.227  0.3544  0.5567 -1.3530
  171MOL0     H22562   8.856   4.772   6.317  0.2696  3.9212 -0.2618
  171MOL0     H22563   8.894   4.843   6.154  1.1272 -0.4652  0.3591
  171MOL0     H22564   9.067   4.646   6.315 -0.1443 -0.1633  0.8886
  171MOL0     H22565   9.075   4.664   6.138 -1.4070  0.2259  0.3172
  171MOL0     H22566   9.111   4.908   6.175 -0.7658  0.7887  1.5303
  171MOL0     H22567   9.238   4.795   6.215 -0.7501  0.2185 -2.3751
  171MOL0     H22568   9.244   4.952   6.378  0.6668 -0.9512 -0.9319
  171MOL0     H22569   9.068   4.936   6.413  0.2780  0.0601 -0.0977
  171MOL0     H22570   9.320   4.657   6.638 -0.0932  0.5127  0.3239
  171MOL0     H22571   8.689   4.488   6.026  1.0243  0.3422  1.2528
  171MOL0     H22572   8.463   4.492   5.974 -0.8721  1.3748 -0.3015
  172MOL0     O22573   2.061   0.850   4.205  0.0349 -0.0913  0.1289
  172MOL0     C22574   2.063   0.731   4.194  0.0578  0.2379  0.5893
  172MOL0     O22575   1.968   0.638   4.240 -1.0123 -0.5742 -0.0374
  172MOL0     C22576   1.858   0.672   4.305  0.6055  0.9603  0.3166
  172MOL0     C22577   1.800   0.574   4.396 -0.2347  0.2879  0.0349
  172MOL0     C22578   1.678   0.594   4.458  0.1098  0.4315 -0.3098
  172MOL0     C22579   1.613   0.716   4.452  0.4633 -0.0574  0.0758
  172MOL0     O22580   1.488   0.758   4.485  0.1294  0.5276  0.2841
  172MOL0     C22581   1.413   0.677   4.575  0.1183  0.2292 -1.1107
  172MOL0     C22582   1.287   0.753   4.617  0.1758 -0.2454  0.1800
  172MOL0     C22583   1.220   0.683   4.739 -0.5988  0.2633 -0.5676
  172MOL0     C22584   1.071   0.720   4.765 -0.7222  0.1164 -0.0117
  172MOL0     C22585   1.011   0.651   4.890  0.1683 -0.8830  0.2350
  172MOL0     C22586   0.875   0.717   4.916 -0.1205 -0.2780 -0.5012
  172MOL0     C22587   0.759   0.636   4.851  0.0024 -0.5106  0.0212
  172MOL0     C22588   0.620   0.705   4.869 -1.2091  0.6121  0.1974
  172MOL0     N22589   0.511   0.620   4.796  0.1226  0.5158 -0.2649
  172MOL0     C22590   0.490   0.484   4.796  0.1916  0.2866  0.3937
  172MOL0     C22591   0.369   0.472   4.729  0.5195  0.0253  0.6394
  172MOL0     C22592   0.292   0.342   4.735  0.4850 -0.1060  1.1952
  172MOL0     C22593   0.349   0.236   4.646 -0.0430 -0.1899 -0.4305
  172MOL0     C22594   0.287   0.100   4.666  0.4441 -0.0773 -0.0696
  172MOL0     C22595   0.138   0.085   4.626 -0.1810  0.7857  0.4131
  172MOL0     O22596   0.066   0.118   4.737  0.2349 -0.2073 -0.3068
  172MOL0     C22597  -0.074   0.138   4.738 -0.7869  0.1623  0.6479
  172MOL0     C22598  -0.153   0.121   4.626 -0.5508 -0.4985 -0.6293
  172MOL0     C22599  -0.295   0.123   4.644 -0.1834 -0.1040  0.2950
  172MOL0     C22600  -0.366   0.152   4.767  0.0676 -1.1062  0.6264
  172MOL0     C22601  -0.519   0.153   4.767  0.8279  1.0973  0.7601
  172MOL0     O22602  -0.581   0.125   4.894  0.3287  0.1065 -0.7449
  172MOL0     C22603  -0.717   0.124   4.880  0.2752 -0.0290 -0.1649
  172MOL0     C22604  -0.799   0.235   4.896 -0.4501 -0.1101 -0.1982
  172MOL0     C22605  -0.940   0.224   4.899  0.2494  0.7674 -0.1214
  172MOL0     C22606  -0.994   0.090   4.899 -0.3287 -0.2263  1.4290
  172MOL0     O22607  -1.131   0.083   4.909 -0.0349 -0.4879  0.4063
  172MOL0     C22608  -1.197  -0.036   4.950 -0.7327  0.2388  0.7718
  172MOL0     C22609  -1.343  -0.000   4.970 -0.5182  0.7480  1.3651
  172MOL0     C22610  -1.428  -0.111   5.032  0.7929 -0.0647  1.0880
  172MOL0     C22611  -1.419  -0.239   4.967  0.0831  0.0863  0.6316
  172MOL0     C22612  -1.542  -0.317   5.005  0.1827  0.2912 -1.1009
  172MOL0     C22613  -1.662  -0.278   4.917 -0.3510  0.2118  0.1053
  172MOL0     C22614  -1.782  -0.371   4.935  0.1204  0.0053  0.4006
  172MOL0     C22615  -1.914  -0.320   4.883  0.9211 -0.0726  0.7689
  172MOL0    Cl22616  -2.052  -0.431   4.931  0.3052 -0.1346  0.0472
  172MOL0     C22617  -0.917  -0.021   4.889 -0.3899 -0.7935  0.3319
  172MOL0     C22618  -0.780  -0.004   4.883 -0.0528 -0.3900  0.7907
  172MOL0     O22619  -0.582   0.186   4.667  0.0612 -0.1093 -0.1333
  172MOL0     C22620  -0.277   0.182   4.876 -0.5483 -0.1151  1.0281
  172MOL0     C22621  -0.132   0.175   4.861  0.4071 -0.2227  0.1181
  172MOL0     N22622   0.341   0.594   4.667  0.8205  0.5933  0.4978
  172MOL0     N22623   0.425   0.679   4.705  0.7203 -0.9429 -0.0236
  172MOL0     C22624   1.675   0.817   4.377  0.1720 -0.1922  0.3706
  172MOL0     C22625   1.790   0.797   4.305  0.2924  0.5539  0.6010
  172MOL0     C22626   2.187   0.667   4.136 -0.3322 -0.1849  0.3428
  172MOL0     C22627   2.210   0.526   4.163  0.4087 -0.2010  0.6372
  172MOL0     C22628   2.322   0.467   4.115 -0.3964 -1.1227  0.6163
  172MOL0     C22629   2.404   0.553   4.031  0.4179  0.8661 -0.2418
  172MOL0     O22630   2.516   0.499   3.981 -0.8488  0.4142  0.1394
  172MOL0     C22631   2.522   0.502   3.832  0.3476  0.5093 -0.3275
  172MOL0     C22632   2.492   0.371   3.768 -0.5475 -0.2304 -0.0709
  172MOL0     C22633   2.567   0.258   3.831 -0.6182 -0.2130  0.6305
  172MOL0     C22634   2.556   0.146   3.732  0.7449  0.3135 -0.7003
  172MOL0     C22635   2.646   0.175   3.620 -0.2796 -0.0173  0.6586
  172MOL0     C22636   2.721   0.198   3.532 -0.9072  0.9504  0.0634
  172MOL0     C22637   2.383   0.694   4.012 -0.7652  0.1766  0.1132
  172MOL0     C22638   2.276   0.746   4.066 -0.1097 -0.6136  0.3158
  172MOL0     H22639   1.848   0.477   4.402 -0.3836  0.2815  3.9200
  172MOL0     H22640   1.636   0.512   4.517 -0.2133  2.3281  2.2900
  172MOL0     H22641   1.465   0.653   4.668 -0.3895 -0.7527 -1.0678
  172MOL0     H22642   1.385   0.583   4.526 -2.9611 -1.0292  2.5808
  172MOL0     H22643   1.212   0.746   4.538 -0.7409 -1.9005  1.1343
  172MOL0     H22644   1.317   0.857   4.630 -0.0937 -0.1111 -0.2527
  172MOL0     H22645   1.276   0.706   4.831  0.6685 -0.0182 -1.2537
  172MOL0     H22646   1.219   0.574   4.734 -0.5897 -0.0975  3.4757
  172MOL0     H22647   1.073   0.829   4.776 -1.7467  0.1901 -0.4354
  172MOL0     H22648   1.010   0.704   4.676 -0.7057 -1.1758  0.1798
  172MOL0     H22649   1.075   0.667   4.978 -1.3930 -1.6126  1.5556
  172MOL0     H22650   1.012   0.541   4.891  2.1099 -0.8962  1.1588
  172MOL0     H22651   0.861   0.821   4.882 -0.7206  0.5344  2.0108
  172MOL0     H22652   0.859   0.704   5.023 -0.2406 -4.4779 -0.8714
  172MOL0     H22653   0.789   0.620   4.747 -0.1852  0.9580 -0.2834
  172MOL0     H22654   0.751   0.545   4.910 -1.9056 -0.7789 -0.5833
  172MOL0     H22655   0.623   0.806   4.828  2.3170  0.8628  0.7495
  172MOL0     H22656   0.605   0.734   4.974 -1.7730  2.9561 -0.4712
  172MOL0     H22657   0.536   0.400   4.848 -1.9012 -1.8119 -0.9460
  172MOL0     H22658   0.187   0.364   4.711  0.7135  0.8420  0.9989
  172MOL0     H22659   0.299   0.302   4.837  1.4759 -1.4778  0.6051
  172MOL0     H22660   0.457   0.227   4.663  0.1805  2.9678  0.4250
  172MOL0     H22661   0.340   0.266   4.541  3.0831 -2.4323 -1.5122
  172MOL0     H22662   0.344   0.028   4.607 -0.8665 -1.6618  0.4982
  172MOL0     H22663   0.299   0.067   4.770  0.1451 -1.6209 -0.4959
  172MOL0     H22664   0.107  -0.011   4.583 -2.3648  2.0000 -0.9038
  172MOL0     H22665   0.127   0.167   4.554  1.9376  4.7815  4.1643
  172MOL0     H22666  -0.099   0.094   4.536  0.4238 -0.9954  0.0930
  172MOL0     H22667  -0.355   0.106   4.555  1.8541  1.3305 -1.4626
  172MOL0     H22668  -0.755   0.334   4.904  0.6188 -0.7061  1.9304
  172MOL0     H22669  -1.004   0.305   4.931  0.3962 -0.7925  4.9606
  172MOL0     H22670  -1.157  -0.075   5.044  1.4382  2.7002  0.9877
  172MOL0     H22671  -1.188  -0.114   4.874 -3.6336  1.1512 -0.6735
  172MOL0     H22672  -1.395   0.018   4.876 -1.4555  0.2878  1.7851
  172MOL0     H22673  -1.343   0.095   5.025  0.2163  1.2201  0.5794
  172MOL0     H22674  -1.532  -0.077   5.028  0.6972 -0.4393 -0.9063
  172MOL0     H22675  -1.401  -0.133   5.136  1.3586  0.1536  0.9929
  172MOL0     H22676  -1.418  -0.216   4.860 -1.0715  1.7007  0.9200
  172MOL0     H22677  -1.327  -0.294   4.985  1.0930  1.0122 -1.4367
  172MOL0     H22678  -1.572  -0.299   5.109 -0.5782  0.2898 -1.3149
  172MOL0     H22679  -1.529  -0.422   4.978 -2.3435 -0.1140 -0.9922
  172MOL0     H22680  -1.631  -0.289   4.812  0.3088 -0.3062  0.3437
  172MOL0     H22681  -1.696  -0.179   4.946 -4.1314 -1.1730  0.9090
  172MOL0     H22682  -1.766  -0.464   4.880 -0.2851 -0.7448  1.5064
  172MOL0     H22683  -1.803  -0.386   5.042 -0.3471  1.2360  0.4988
  172MOL0     H22684  -1.911  -0.318   4.774 -0.9207 -0.8760  0.6784
  172MOL0     H22685  -1.936  -0.218   4.916 -1.0018  0.6941 -2.4554
  172MOL0     H22686  -0.953  -0.124   4.890 -1.3853 -0.4555  0.6228
  172MOL0     H22687  -0.716  -0.092   4.879  1.3646  0.6229  0.4592
  172MOL0     H22688  -0.311   0.215   4.974  0.0396 -2.2258  1.9947
  172MOL0     H22689  -0.072   0.190   4.951 -0.2799  0.9494  0.4033
  172MOL0     H22690   1.622   0.911   4.365  0.0675 -0.3155 -0.1236
  172MOL0     H22691   1.828   0.876   4.241 -1.9602 -1.2518 -3.3940
  172MOL0     H22692   2.144   0.472   4.230 -1.7550  1.5994  0.0888
  172MOL0     H22693   2.358   0.366   4.129  0.1453 -0.9399  0.5402
  172MOL0     H22694   2.622   0.536   3.806  2.1077 -0.2028  4.4897
  172MOL0     H22695   2.445   0.570   3.795  1.5001  1.0208 -1.8694
  172MOL0     H22696   2.384   0.358   3.778 -0.9668  2.4556 -0.2943
  172MOL0     H22697   2.506   0.377   3.660 -1.5789  1.3328 -0.1548
  172MOL0     H22698   2.521   0.226   3.925  0.1639 -0.9764  0.7691
  172MOL0     H22699   2.670   0.289   3.847 -0.0630  0.9989 -3.9109
  172MOL0     H22700   2.578   0.049   3.778 -1.9602 -0.0836 -0.0534
  172MOL0     H22701   2.451   0.141   3.700  0.6390  3.5791 -1.2341
  172MOL0     H22702   2.788   0.229   3.454  0.9471  2.0797  1.9899
  172MOL0     H22703   2.446   0.766   3.960 -1.2034  1.7404  1.6457
  172MOL0     H22704   2.262   0.853   4.062  0.2266 -0.5899 -0.5858
  173MOL0     O22705  10.922   2.402   3.223  0.2269 -0.2284 -0.4339
  173MOL0     C22706  10.962   2.504   3.278 -0.9131 -0.0520  0.3530
  173MOL0     O22707  11.089   2.563   3.253  1.1751 -0.3472 -0.0786
  173MOL0     C22708  11.193   2.500   3.199 -0.5798  1.3554 -0.4751
  173MOL0     C22709  11.212   2.354   3.196 -0.7883  0.2955  0.6253
  173MOL0     C22710  11.328   2.302   3.133  0.3848  0.0627 -1.5037
  173MOL0     C22711  11.417   2.392   3.079  0.4181 -0.5207 -0.0332
  173MOL0     O22712  11.547   2.361   3.032  0.4027  1.1825  0.2846
  173MOL0     C22713  11.601   2.235   3.016  0.6871  0.1765 -0.6128
  173MOL0     C22714  11.740   2.226   3.088  0.0221  0.2816 -0.0324
  173MOL0     C22715  11.800   2.092   3.062 -0.7103 -0.2841 -0.0560
  173MOL0     C22716  11.837   2.076   2.915  1.0377  0.1207 -0.4502
  173MOL0     C22717  11.944   1.969   2.890  0.3253 -0.2142  0.2103
  173MOL0     C22718  11.952   1.920   2.737  0.4105 -0.0551  0.0624
  173MOL0     C22719  12.013   1.783   2.728  0.4285 -0.7386 -0.0854
  173MOL0     C22720  11.987   1.736   2.588 -0.1793  0.2389 -0.0378
  173MOL0     N22721  12.057   1.613   2.569  0.1689 -0.1345 -0.2736
  173MOL0     C22722  12.001   1.487   2.585 -0.2954 -0.2624 -0.2872
  173MOL0     C22723  12.082   1.397   2.527  0.3703  0.2934 -0.2229
  173MOL0     C22724  12.044   1.252   2.502 -0.1026  0.6455 -0.0206
  173MOL0     C22725  11.916   1.227   2.417  0.0608  0.4205 -0.1757
  173MOL0     C22726  11.901   1.073   2.398  0.5377 -0.5377  0.0878
  173MOL0     C22727  11.762   1.037   2.345  0.3307  0.1192 -0.5191
  173MOL0     O22728  11.671   1.064   2.447  0.1987 -0.9854 -0.0913
  173MOL0     C22729  11.531   1.085   2.427 -0.4665 -0.4518  0.5630
  173MOL0     C22730  11.475   1.082   2.297  0.5072 -0.9936 -0.1908
  173MOL0     C22731  11.342   1.113   2.274 -0.0669 -0.7559  0.1727
  173MOL0     C22732  11.258   1.139   2.384 -0.0471 -0.2572 -0.1460
  173MOL0     C22733  11.118   1.188   2.373 -0.2059  1.2886 -0.9898
  173MOL0     O22734  11.066   1.252   2.481  0.2780 -0.8067  0.3855
  173MOL0     C22735  10.928   1.269   2.506 -0.3566  0.5119  0.6805
  173MOL0     C22736  10.874   1.220   2.625 -0.1384  0.3444 -0.8195
  173MOL0     C22737  10.738   1.218   2.664 -0.3164  0.1502 -0.3853
  173MOL0     C22738  10.651   1.268   2.570  0.8023  0.1431 -1.0340
  173MOL0     O22739  10.515   1.289   2.590 -0.0496 -0.5148  0.4689
  173MOL0     C22740  10.473   1.309   2.724  0.2806 -0.0512 -0.2720
  173MOL0     C22741  10.318   1.307   2.741  0.5669 -0.3222 -0.1890
  173MOL0     C22742  10.248   1.367   2.620  0.6075  0.8131  0.6031
  173MOL0     C22743  10.098   1.356   2.621  0.0490  0.6488  0.1939
  173MOL0     C22744  10.035   1.404   2.493  1.4076  0.7032  0.7847
  173MOL0     C22745   9.877   1.388   2.516 -0.0067  0.2821  0.4591
  173MOL0     C22746   9.801   1.453   2.402 -0.1990  0.5780  0.2860
  173MOL0     C22747   9.657   1.492   2.437  0.9418  0.0135  0.0716
  173MOL0    Cl22748   9.573   1.598   2.311  0.0531  0.3656  0.1776
  173MOL0     C22749  10.703   1.301   2.443  0.1471 -0.4992 -0.7646
  173MOL0     C22750  10.837   1.300   2.408  0.2101 -0.2285 -0.7608
  173MOL0     O22751  11.057   1.172   2.271  0.0845  0.5074  0.2366
  173MOL0     C22752  11.311   1.115   2.512  0.1673 -0.5621 -0.6036
  173MOL0     C22753  11.440   1.093   2.531  0.2987  0.0537  0.1495
  173MOL0     N22754  12.186   1.472   2.479  0.1897 -0.1893 -0.3108
  173MOL0     N22755  12.168   1.599   2.495  0.6876 -0.6093 -0.1027
  173MOL0     C22756  11.397   2.529   3.083  0.4523 -0.0395  0.4020
  173MOL0     C22757  11.293   2.582   3.147  0.2780 -0.5952 -0.2419
  173MOL0     C22758  10.864   2.577   3.359  0.2425  0.5295  0.5992
  173MOL0     C22759  10.891   2.695   3.419  0.2770 -0.5960  0.7993
  173MOL0     C22760  10.809   2.764   3.499  0.6957  0.3778 -0.9749
  173MOL0     C22761  10.671   2.728   3.520 -0.5531  1.2220 -0.5950
  173MOL0     O22762  10.574   2.792   3.588  0.1616  0.2376 -0.3957
  173MOL0     C22763  10.596   2.918   3.642  0.3331 -0.6950 -0.5953
  173MOL0     C22764  10.501   2.936   3.761  0.8917 -0.5151  0.6577
  173MOL0     C22765  10.456   3.088   3.757 -0.2187  0.2047  0.4338
  173MOL0     C22766  10.343   3.125   3.856  0.1434 -0.7149 -0.3500
  173MOL0     C22767  10.225   3.059   3.815 -0.1676  0.4690 -0.4612
  173MOL0     C22768  10.127   3.008   3.760  0.3048 -0.4711 -0.0300
  173MOL0     C22769  10.631   2.608   3.453  0.6064 -0.3887  0.0685
  173MOL0     C22770  10.728   2.530   3.373  1.0261  0.2506  1.0882
  173MOL0     H22771  11.136   2.288   3.237  0.8561  1.1201  5.7752
  173MOL0     H22772  11.340   2.194   3.129 -0.7241 -0.2823  1.8315
  173MOL0     H22773  11.615   2.217   2.909  4.7899 -2.0067  0.0879
  173MOL0     H22774  11.534   2.159   3.058 -0.9188  2.4323  1.1963
  173MOL0     H22775  11.730   2.236   3.197  0.2224  0.1035  0.0027
  173MOL0     H22776  11.798   2.312   3.053 -0.0369  1.0282  1.6003
  173MOL0     H22777  11.725   2.020   3.094 -1.6157  0.1092 -1.1828
  173MOL0     H22778  11.892   2.081   3.120  1.1931  3.0471 -2.0613
  173MOL0     H22779  11.744   2.058   2.861 -0.4899  0.5245  1.8877
  173MOL0     H22780  11.874   2.170   2.874  0.1605  1.2278  1.1601
  173MOL0     H22781  11.912   1.884   2.952 -2.3725  0.9271  0.5225
  173MOL0     H22782  12.044   2.002   2.919  0.1042  1.7993 -1.1652
  173MOL0     H22783  12.008   1.985   2.670 -0.6414  1.5566  0.6713
  173MOL0     H22784  11.850   1.917   2.697  0.0916 -0.2687  0.8577
  173MOL0     H22785  12.118   1.794   2.757 -0.3188  0.7763  2.3018
  173MOL0     H22786  11.972   1.717   2.804  0.9308  3.0020  3.8070
  173MOL0     H22787  12.016   1.806   2.509  1.4648  0.5849  0.8254
  173MOL0     H22788  11.879   1.724   2.574 -0.6400  4.1541 -0.7997
  173MOL0     H22789  11.908   1.457   2.634  1.2604 -2.3595  1.6425
  173MOL0     H22790  12.050   1.208   2.602  1.1751 -2.4571 -1.3192
  173MOL0     H22791  12.126   1.207   2.445 -0.0243  3.5724 -2.4937
  173MOL0     H22792  11.935   1.282   2.324  2.6912 -2.3470 -1.4441
  173MOL0     H22793  11.827   1.264   2.469 -0.2728 -0.5952 -0.0119
  173MOL0     H22794  11.975   1.035   2.328 -0.7890  0.9493 -2.2942
  173MOL0     H22795  11.909   1.024   2.495 -0.9372  0.9041  1.0073
  173MOL0     H22796  11.768   0.931   2.316 -0.4094  0.2126 -1.0260
  173MOL0     H22797  11.740   1.113   2.270 -1.4241  1.2077  0.9966
  173MOL0     H22798  11.546   1.087   2.216 -2.4665  4.1480 -3.0275
  173MOL0     H22799  11.305   1.120   2.172  0.2598  1.0258  0.1325
  173MOL0     H22800  10.941   1.178   2.700 -1.8852 -2.1704 -0.5510
  173MOL0     H22801  10.713   1.187   2.765  1.3122 -0.3180 -0.0957
  173MOL0     H22802  10.519   1.403   2.757  3.0664 -1.5597  0.3747
  173MOL0     H22803  10.509   1.236   2.797  2.0780  0.9521 -0.1035
  173MOL0     H22804  10.290   1.363   2.831  0.5870 -2.4234  1.1963
  173MOL0     H22805  10.301   1.201   2.759 -1.2255  0.2032  1.5895
  173MOL0     H22806  10.287   1.311   2.534  2.0526 -0.1231  1.8231
  173MOL0     H22807  10.279   1.472   2.614  0.8217  0.9870  3.5057
  173MOL0     H22808  10.061   1.258   2.652 -1.1680  1.4214  1.2848
  173MOL0     H22809  10.063   1.422   2.701 -3.2893 -0.1562 -0.4527
  173MOL0     H22810  10.068   1.338   2.414  2.0526 -0.8676  2.3067
  173MOL0     H22811  10.057   1.509   2.472  0.0445  0.9289  0.3466
  173MOL0     H22812   9.853   1.449   2.604  0.8550  1.4419 -0.0920
  173MOL0     H22813   9.847   1.286   2.544  0.7904 -0.8984 -2.5976
  173MOL0     H22814   9.845   1.552   2.386 -2.4056  1.6072  0.1102
  173MOL0     H22815   9.800   1.384   2.317  0.0989 -1.3145  1.7467
  173MOL0     H22816   9.645   1.552   2.528  0.5591 -0.0520  0.0632
  173MOL0     H22817   9.615   1.392   2.449  3.0240 -0.7380  2.1656
  173MOL0     H22818  10.620   1.333   2.381 -1.8803 -0.6396  1.6877
  173MOL0     H22819  10.869   1.325   2.308  0.0347  0.5145 -0.6404
  173MOL0     H22820  11.247   1.129   2.599 -0.4661 -2.2732 -0.7652
  173MOL0     H22821  11.482   1.090   2.631 -0.5241  0.6458  0.5193
  173MOL0     H22822  11.464   2.598   3.031 -2.7964  1.4257 -2.1654
  173MOL0     H22823  11.280   2.690   3.146  3.7252 -0.0720  0.1544
  173MOL0     H22824  10.991   2.734   3.404 -0.0339 -0.5748 -1.6717
  173MOL0     H22825  10.859   2.845   3.552  2.9684 -1.5163 -0.0658
  173MOL0     H22826  10.560   2.984   3.563 -2.5260 -0.5013  0.7543
  173MOL0     H22827  10.699   2.924   3.679 -0.7178 -0.4578  2.5900
  173MOL0     H22828  10.413   2.872   3.756  0.3538  0.2664 -0.3501
  173MOL0     H22829  10.554   2.927   3.856  0.2472  0.0978  1.0902
  173MOL0     H22830  10.428   3.117   3.655 -0.6765  0.4395  0.6220
  173MOL0     H22831  10.538   3.155   3.786 -0.9912  0.3681  2.3255
  173MOL0     H22832  10.364   3.103   3.961 -0.2783 -3.2950 -0.7208
  173MOL0     H22833  10.315   3.230   3.842 -0.8053 -0.3875  3.1317
  173MOL0     H22834  10.037   2.960   3.728  0.9020  0.2126 -3.1015
  173MOL0     H22835  10.526   2.579   3.459  0.5162 -0.3371 -1.0383
  173MOL0     H22836  10.686   2.441   3.327  1.5513  0.9308 -0.7800
  174MOL0     O22837   6.298   3.931   3.368 -0.1573  0.3297  0.1210
  174MOL0     C22838   6.294   3.911   3.487 -0.4681  0.1329 -0.7474
  174MOL0     O22839   6.202   3.840   3.544 -0.0662 -0.0314 -0.0632
  174MOL0     C22840   6.082   3.820   3.489 -0.8269  0.0774 -0.4043
  174MOL0     C22841   6.063   3.762   3.354  0.4390  0.2980 -0.9251
  174MOL0     C22842   5.924   3.752   3.318  0.6507 -1.2458 -0.2862
  174MOL0     C22843   5.818   3.784   3.401  0.0591 -0.3511 -0.1837
  174MOL0     O22844   5.690   3.760   3.354  0.1596  0.6030  0.3354
  174MOL0     C22845   5.569   3.742   3.441 -0.0598  0.2560 -0.1335
  174MOL0     C22846   5.452   3.703   3.362 -0.7083 -0.3267  0.7994
  174MOL0     C22847   5.467   3.558   3.311 -0.2652  0.9126 -0.1922
  174MOL0     C22848   5.425   3.459   3.418  0.6982  0.2086  0.1411
  174MOL0     C22849   5.285   3.399   3.406  1.0948  0.2491  0.3178
  174MOL0     C22850   5.255   3.326   3.539  0.1489  0.1943  0.2366
  174MOL0     C22851   5.131   3.246   3.541  0.0076  0.2365  0.4180
  174MOL0     C22852   5.124   3.121   3.436  0.5927  0.2419 -0.5881
  174MOL0     N22853   5.011   3.027   3.447 -0.0376  0.5042 -0.1511
  174MOL0     C22854   4.976   2.936   3.354  0.5748 -0.3245  0.7149
  174MOL0     C22855   4.866   2.881   3.416  0.3918  0.3986 -1.1957
  174MOL0     C22856   4.785   2.772   3.345  0.1203 -0.3656 -0.2104
  174MOL0     C22857   4.840   2.632   3.363  1.0018 -0.4332 -0.0539
  174MOL0     C22858   4.832   2.583   3.508 -0.0981 -0.3442  0.5346
  174MOL0     C22859   4.686   2.529   3.541 -0.7049  0.7994 -0.5373
  174MOL0     O22860   4.582   2.594   3.470  0.1713 -0.3482  0.2207
  174MOL0     C22861   4.464   2.598   3.545  0.5589  0.0241 -0.2142
  174MOL0     C22862   4.376   2.495   3.541  0.2955  0.4357 -0.0462
  174MOL0     C22863   4.257   2.498   3.608 -0.0376 -0.4149 -0.4269
  174MOL0     C22864   4.223   2.617   3.680 -0.2070 -0.2853 -0.2350
  174MOL0     C22865   4.087   2.628   3.744 -0.1012  0.1236 -0.1346
  174MOL0     O22866   4.077   2.707   3.863 -0.3771  0.2879  0.1178
  174MOL0     C22867   3.949   2.734   3.899 -0.4342  0.4278 -0.3903
  174MOL0     C22868   3.857   2.630   3.937 -0.0483  0.6535 -0.5710
  174MOL0     C22869   3.730   2.663   3.988  0.3477 -0.5476 -0.1580
  174MOL0     C22870   3.690   2.800   3.993 -0.0774  0.4321  0.3239
  174MOL0     O22871   3.573   2.837   4.047 -0.1315  0.9122 -0.3941
  174MOL0     C22872   3.493   2.745   4.124 -0.0132  0.4518 -0.7949
  174MOL0     C22873   3.368   2.818   4.170  0.5406  0.2148  0.0758
  174MOL0     C22874   3.273   2.856   4.060 -0.1504 -0.3412  0.7665
  174MOL0     C22875   3.156   2.942   4.103  1.1301  0.4946  0.3482
  174MOL0     C22876   3.070   2.880   4.222  0.2294  1.1372 -0.0563
  174MOL0     C22877   3.007   2.737   4.191 -0.6719 -1.1924  0.0563
  174MOL0     C22878   2.933   2.693   4.319  0.0511  0.8621  0.1609
  174MOL0     C22879   3.002   2.690   4.454  0.1885  0.0558 -0.4759
  174MOL0    Cl22880   3.142   2.585   4.438  0.0440  0.2787  0.1182
  174MOL0     C22881   3.779   2.898   3.949 -0.2669  0.6191 -0.6621
  174MOL0     C22882   3.907   2.866   3.905 -0.1327 -0.4612  0.8940
  174MOL0     O22883   4.002   2.549   3.704 -0.1509 -0.1090 -0.6993
  174MOL0     C22884   4.310   2.736   3.676  0.3651  0.0541  0.2640
  174MOL0     C22885   4.432   2.724   3.606  0.3700  0.2046  0.4265
  174MOL0     N22886   4.840   2.930   3.544 -0.3255 -0.8872 -0.4967
  174MOL0     N22887   4.936   3.017   3.562  0.2034 -0.2107 -0.4445
  174MOL0     C22888   5.842   3.835   3.521 -0.6073  0.0640 -0.5231
  174MOL0     C22889   5.976   3.850   3.567 -1.0316  0.7812  0.6068
  174MOL0     C22890   6.403   3.956   3.586 -0.3153 -0.0305 -0.4422
  174MOL0     C22891   6.403   3.913   3.722 -0.0862 -0.1347  0.4414
  174MOL0     C22892   6.506   3.952   3.805  0.3433  0.6464  0.1058
  174MOL0     C22893   6.619   4.020   3.757 -0.1934 -0.0853  0.2526
  174MOL0     O22894   6.728   4.052   3.832  0.8717  0.0689  0.6282
  174MOL0     C22895   6.754   3.994   3.956  1.0384 -0.1658  0.4943
  174MOL0     C22896   6.851   4.090   4.032 -0.8041  0.2572  0.1950
  174MOL0     C22897   6.774   4.207   4.094  0.2998  0.3413  0.4353
  174MOL0     C22898   6.848   4.304   4.181 -0.6057  0.3316  0.2233
  174MOL0     C22899   6.954   4.388   4.110  0.3439 -0.0167 -0.2932
  174MOL0     C22900   7.035   4.452   4.045  0.3210 -0.4312 -0.0770
  174MOL0     C22901   6.616   4.063   3.620  0.0750  0.6750 -0.5425
  174MOL0     C22902   6.512   4.029   3.540  0.3282 -0.1852  0.7405
  174MOL0     H22903   6.143   3.748   3.283  0.0282  2.8176 -1.9925
  174MOL0     H22904   5.889   3.704   3.227  1.0911 -0.7506 -0.7238
  174MOL0     H22905   5.541   3.839   3.483 -2.1324  0.7182 -2.3565
  174MOL0     H22906   5.581   3.665   3.517 -3.4127 -1.9729 -1.6604
  174MOL0     H22907   5.436   3.775   3.282  1.3505 -0.6626  0.0258
  174MOL0     H22908   5.357   3.718   3.414 -0.3325 -0.4905  1.5559
  174MOL0     H22909   5.570   3.536   3.282 -0.2970 -2.5010  1.8761
  174MOL0     H22910   5.410   3.540   3.219 -1.3289 -1.1432  0.8152
  174MOL0     H22911   5.506   3.386   3.421 -0.0792 -0.6570  0.9062
  174MOL0     H22912   5.423   3.519   3.510  0.0705  0.0412  0.2395
  174MOL0     H22913   5.288   3.329   3.322  1.0416 -0.7864  1.1540
  174MOL0     H22914   5.207   3.475   3.394 -1.1746 -1.8326  0.8757
  174MOL0     H22915   5.283   3.392   3.621  0.4903 -0.0643  0.3345
  174MOL0     H22916   5.333   3.248   3.536  1.0324  1.0829 -0.6125
  174MOL0     H22917   5.108   3.212   3.643 -0.6412 -0.3802  0.0725
  174MOL0     H22918   5.042   3.305   3.517  0.4935  1.6989  2.0009
  174MOL0     H22919   5.217   3.064   3.442  0.3160 -0.0443  2.0591
  174MOL0     H22920   5.113   3.161   3.335  0.2544 -1.4558 -1.2617
  174MOL0     H22921   5.019   2.910   3.257 -1.5345  1.4842 -0.8063
  174MOL0     H22922   4.768   2.795   3.239 -1.7216  0.8514  0.2987
  174MOL0     H22923   4.684   2.783   3.385 -1.5388 -3.7936 -2.9145
  174MOL0     H22924   4.940   2.629   3.320  0.9472  0.1221 -0.2297
  174MOL0     H22925   4.789   2.569   3.290 -1.8166  0.2119  1.2237
  174MOL0     H22926   4.904   2.501   3.512  1.6675  1.1136  0.2657
  174MOL0     H22927   4.843   2.665   3.580 -0.2221 -1.2325  1.5872
  174MOL0     H22928   4.658   2.538   3.646 -1.6487  3.0810 -0.9232
  174MOL0     H22929   4.674   2.426   3.504  0.3609  1.1480 -1.9488
  174MOL0     H22930   4.386   2.408   3.476 -0.3217 -0.0987  0.5518
  174MOL0     H22931   4.195   2.409   3.602 -0.6301 -0.0555  0.1978
  174MOL0     H22932   3.879   2.525   3.927  1.1939  1.0227 -2.1954
  174MOL0     H22933   3.671   2.580   4.027 -1.0499  0.7586  0.5900
  174MOL0     H22934   3.547   2.718   4.215 -0.4223 -0.6121 -0.8584
  174MOL0     H22935   3.458   2.655   4.074 -1.3803  0.3189  0.3584
  174MOL0     H22936   3.394   2.908   4.226 -1.5127 -0.0606  1.5999
  174MOL0     H22937   3.318   2.756   4.245  1.3755 -2.0050 -1.1335
  174MOL0     H22938   3.235   2.762   4.021 -2.0767  0.2584  1.0861
  174MOL0     H22939   3.324   2.897   3.972 -0.8913 -2.1665 -0.5685
  174MOL0     H22940   3.192   3.037   4.143 -1.4042  2.0090 -0.6987
  174MOL0     H22941   3.089   2.966   4.020 -2.0191 -1.3716  2.1612
  174MOL0     H22942   2.992   2.951   4.249 -0.9452  0.3387 -1.2526
  174MOL0     H22943   3.140   2.877   4.306 -0.9595  3.2196  1.1026
  174MOL0     H22944   3.086   2.664   4.170 -0.5627 -0.6950 -1.3386
  174MOL0     H22945   2.946   2.751   4.102  0.8027  0.3732 -0.7782
  174MOL0     H22946   2.858   2.772   4.331  2.7610  3.7800 -0.9134
  174MOL0     H22947   2.889   2.594   4.304  0.1546  1.1276 -2.3765
  174MOL0     H22948   2.933   2.653   4.530 -0.7447  1.3032 -0.6864
  174MOL0     H22949   3.042   2.788   4.482 -1.8103  0.6876  0.3090
  174MOL0     H22950   3.761   3.005   3.959 -3.9411 -0.0442  2.6486
  174MOL0     H22951   3.981   2.941   3.882 -0.8882 -0.5578 -2.2278
  174MOL0     H22952   4.287   2.829   3.728  0.2799  0.7892 -1.0451
  174MOL0     H22953   4.491   2.811   3.578 -1.0623  0.8411 -0.7282
  174MOL0     H22954   5.751   3.862   3.573 -1.0043  0.3241 -1.3359
  174MOL0     H22955   5.985   3.891   3.667 -0.4592 -2.0928  1.8250
  174MOL0     H22956   6.318   3.857   3.760 -1.1094  1.7478  1.0698
  174MOL0     H22957   6.504   3.914   3.907  0.0517 -2.2734 -0.8917
  174MOL0     H22958   6.809   3.902   3.937 -0.6182 -1.4582  1.7328
  174MOL0     H22959   6.666   3.970   4.017 -1.0190 -0.4940 -2.3859
  174MOL0     H22960   6.907   4.033   4.106  0.4607 -0.4778 -1.2795
  174MOL0     H22961   6.925   4.133   3.963 -0.6281  0.4622  0.5126
  174MOL0     H22962   6.695   4.155   4.148  0.9614 -2.4657 -1.0946
  174MOL0     H22963   6.726   4.266   4.014 -0.0805  1.9689  1.8061
  174MOL0     H22964   6.779   4.378   4.225  0.6222  1.3982  0.4096
  174MOL0     H22965   6.899   4.253   4.263 -0.2084  0.5954  0.1398
  174MOL0     H22966   7.109   4.515   4.000  0.3843  0.5567  1.3514
  174MOL0     H22967   6.704   4.119   3.588  2.1203 -2.6445 -1.2554
  174MOL0     H22968   6.521   4.054   3.435 -3.1361  0.9170  0.5746
  175MOL0     O22969  10.905   0.443   8.167  0.0287  0.1777 -0.1238
  175MOL0     C22970  10.907   0.335   8.222 -0.2707 -0.2873 -0.3982
  175MOL0     O22971  10.794   0.258   8.253 -0.3940 -0.4730 -1.1284
  175MOL0     C22972  10.666   0.280   8.200 -0.4287 -0.0811 -0.2434
  175MOL0     C22973  10.564   0.213   8.269 -0.0282  0.2277  0.7688
  175MOL0     C22974  10.426   0.224   8.226  0.7111 -0.2216 -0.3939
  175MOL0     C22975  10.398   0.307   8.114  0.1467  1.1968 -0.6348
  175MOL0     O22976  10.267   0.310   8.060 -0.0471 -0.8738 -0.4258
  175MOL0     C22977  10.188   0.192   8.052 -0.7620 -0.2082 -0.6022
  175MOL0     C22978  10.065   0.226   7.964  0.2399 -0.4866  0.6495
  175MOL0     C22979   9.951   0.124   7.968  0.6861  0.8430 -0.3896
  175MOL0     C22980   9.997  -0.017   7.936 -0.2694  0.3293 -0.6544
  175MOL0     C22981   9.902  -0.138   7.957 -0.2714 -0.2459  0.9593
  175MOL0     C22982   9.822  -0.132   8.088  0.2581  0.8163 -0.3962
  175MOL0     C22983   9.761  -0.269   8.114  0.1619  0.0025 -0.1924
  175MOL0     C22984   9.661  -0.268   8.234 -0.1021  0.7674  0.9687
  175MOL0     N22985   9.583  -0.390   8.237  0.3349 -0.3276 -0.5956
  175MOL0     C22986   9.622  -0.518   8.242  0.0861  0.8590  0.3110
  175MOL0     C22987   9.500  -0.592   8.232  0.6646 -0.6317 -0.2718
  175MOL0     C22988   9.510  -0.743   8.232  0.5293  0.8509 -0.2961
  175MOL0     C22989   9.447  -0.802   8.105 -0.9379 -0.0528 -0.7618
  175MOL0     C22990   9.297  -0.809   8.106 -0.3523 -0.0037  0.6141
  175MOL0     C22991   9.240  -0.745   7.979  0.2812 -0.2371  0.4441
  175MOL0     O22992   9.097  -0.770   7.978  0.1131  0.0052 -0.2896
  175MOL0     C22993   9.017  -0.683   8.058  0.2048  0.2720  0.0105
  175MOL0     C22994   9.055  -0.574   8.139 -0.4420 -0.2939  1.4743
  175MOL0     C22995   8.965  -0.498   8.219 -0.5966 -0.1002  0.0515
  175MOL0     C22996   8.832  -0.548   8.226 -0.0431  0.0486  0.1966
  175MOL0     C22997   8.734  -0.461   8.290 -0.3040 -0.5318  0.0499
  175MOL0     O22998   8.605  -0.496   8.280 -0.5983 -0.0118  0.1220
  175MOL0     C22999   8.499  -0.435   8.345 -0.0839  0.3980 -0.1871
  175MOL0     C23000   8.393  -0.525   8.375  0.1835  0.1052  0.1898
  175MOL0     C23001   8.284  -0.475   8.451  0.3782  0.1909 -0.1573
  175MOL0     C23002   8.272  -0.339   8.472 -1.2309 -0.1665 -0.5617
  175MOL0     O23003   8.153  -0.296   8.526 -0.7307 -0.3280 -0.0461
  175MOL0     C23004   8.182  -0.222   8.653  0.1564  0.0462  0.4166
  175MOL0     C23005   8.065  -0.242   8.751  0.3921  0.3239 -0.3768
  175MOL0     C23006   7.937  -0.172   8.697  0.3451  0.2282  0.2086
  175MOL0     C23007   7.819  -0.203   8.790  0.2508 -0.2229  0.0229
  175MOL0     C23008   7.702  -0.128   8.745 -0.0038  0.4636  0.4167
  175MOL0     C23009   7.584  -0.111   8.844  0.4371 -1.1871 -0.6398
  175MOL0     C23010   7.623  -0.000   8.950 -0.3583  0.4434 -0.2218
  175MOL0     C23011   7.554  -0.035   9.079 -0.5264 -0.4282  0.1285
  175MOL0    Cl23012   7.581   0.097   9.201  0.0720 -0.1515  0.2245
  175MOL0     C23013   8.382  -0.245   8.452  0.5645  0.6868  0.9794
  175MOL0     C23014   8.488  -0.299   8.387 -0.9891 -0.3266 -1.1186
  175MOL0     O23015   8.783  -0.356   8.348  0.3302 -0.1022  0.0160
  175MOL0     C23016   8.785  -0.650   8.140 -0.1763 -0.0608  0.4340
  175MOL0     C23017   8.886  -0.719   8.071 -0.1727 -0.0244  0.6767
  175MOL0     N23018   9.392  -0.507   8.238 -0.0429 -0.4125  0.1974
  175MOL0     N23019   9.439  -0.394   8.231 -0.5968  0.4305 -0.1089
  175MOL0     C23020  10.497   0.370   8.051  0.2536 -0.1737 -0.4640
  175MOL0     C23021  10.632   0.359   8.087  0.3302  0.6451 -0.1342
  175MOL0     C23022  11.051   0.279   8.249  0.7965 -0.6887 -0.8283
  175MOL0     C23023  11.156   0.368   8.276  0.2821  0.7584 -0.4172
  175MOL0     C23024  11.278   0.305   8.301  0.3105  0.4361 -0.8293
  175MOL0     C23025  11.299   0.159   8.294 -0.6301 -0.1737 -0.7502
  175MOL0     O23026  11.421   0.096   8.299 -0.7101 -0.5152 -0.2261
  175MOL0     C23027  11.531   0.188   8.301 -0.9901 -0.3829 -0.3679
  175MOL0     C23028  11.663   0.105   8.284  0.0366 -0.7764 -0.1207
  175MOL0     C23029  11.783   0.201   8.322  1.3490  0.3409  0.4641
  175MOL0     C23030  11.914   0.132   8.294 -0.5977 -0.1720 -0.3181
  175MOL0     C23031  11.937   0.094   8.152 -0.2068  0.3809 -0.1070
  175MOL0     C23032  11.964   0.043   8.049  0.0499  0.2270  0.0413
  175MOL0     C23033  11.186   0.080   8.270  0.2078 -0.1898 -0.5011
  175MOL0     C23034  11.064   0.139   8.251 -0.2685  0.3478 -0.6201
  175MOL0     H23035  10.587   0.148   8.353  1.8449  1.1422  1.0257
  175MOL0     H23036  10.341   0.173   8.270 -1.7794  2.9198 -1.1661
  175MOL0     H23037  10.146   0.181   8.152  0.2934  0.6441 -0.0490
  175MOL0     H23038  10.230   0.104   8.004 -1.7476  0.2151 -2.3279
  175MOL0     H23039  10.092   0.232   7.858  0.5298 -1.1264  0.6773
  175MOL0     H23040  10.031   0.323   8.001 -2.0764 -1.4598  1.2180
  175MOL0     H23041   9.880   0.147   7.888 -0.5562 -3.3239 -0.7126
  175MOL0     H23042   9.889   0.133   8.057 -2.1025 -1.0908 -1.9913
  175MOL0     H23043  10.027  -0.026   7.831  0.0972  0.5674 -0.5721
  175MOL0     H23044  10.085  -0.032   7.999 -0.8996 -1.0221 -0.0487
  175MOL0     H23045   9.954  -0.233   7.948  0.4620  0.1028  1.4361
  175MOL0     H23046   9.825  -0.137   7.878  1.8672  0.4164 -1.2354
  175MOL0     H23047   9.738  -0.063   8.102 -0.8488 -0.5992  0.2035
  175MOL0     H23048   9.900  -0.116   8.164  1.0763 -0.6060 -0.8932
  175MOL0     H23049   9.707  -0.308   8.028 -2.7818 -1.2626  2.0334
  175MOL0     H23050   9.845  -0.335   8.136  0.3537  0.1164 -0.5806
  175MOL0     H23051   9.599  -0.177   8.228  0.7496  1.3773  1.1953
  175MOL0     H23052   9.715  -0.259   8.328 -1.8747  0.8969  2.0107
  175MOL0     H23053   9.723  -0.559   8.237 -0.4433 -0.3116 -1.8230
  175MOL0     H23054   9.455  -0.787   8.316 -0.8407 -0.3081 -1.7469
  175MOL0     H23055   9.613  -0.777   8.246  0.0363 -0.1991  1.0277
  175MOL0     H23056   9.474  -0.908   8.105 -1.0430 -0.0887 -1.4597
  175MOL0     H23057   9.485  -0.762   8.010 -3.0732 -0.4711 -1.8635
  175MOL0     H23058   9.267  -0.914   8.097  1.9423 -0.4819 -3.9559
  175MOL0     H23059   9.254  -0.768   8.198 -1.4008 -0.7536  0.4885
  175MOL0     H23060   9.282  -0.796   7.892  1.1140  0.4992  0.4100
  175MOL0     H23061   9.269  -0.640   7.983  1.3472 -0.5138  0.1130
  175MOL0     H23062   9.153  -0.528   8.141 -0.8753  0.6820  0.8448
  175MOL0     H23063   9.001  -0.412   8.276  1.6310  0.6439 -2.3114
  175MOL0     H23064   8.406  -0.624   8.333 -2.0726  0.7934 -2.4462
  175MOL0     H23065   8.200  -0.533   8.486  0.1635  0.6155  0.0363
  175MOL0     H23066   8.199  -0.117   8.628  0.2652 -0.3762 -1.3773
  175MOL0     H23067   8.276  -0.259   8.695  1.8003  2.8530 -0.4617
  175MOL0     H23068   8.089  -0.207   8.852  0.7688  0.7719 -0.6204
  175MOL0     H23069   8.048  -0.350   8.753  2.5076 -0.0498  1.7782
  175MOL0     H23070   7.911  -0.204   8.596  0.0154  0.4799  0.2082
  175MOL0     H23071   7.953  -0.064   8.694 -0.2573  0.3968  1.8621
  175MOL0     H23072   7.799  -0.311   8.788  0.0111 -0.1895 -2.6454
  175MOL0     H23073   7.838  -0.169   8.892 -5.5057  0.2300  1.2869
  175MOL0     H23074   7.661  -0.179   8.658 -1.3351 -1.2829  1.9777
  175MOL0     H23075   7.732  -0.027   8.716  0.1485 -0.0861 -1.4538
  175MOL0     H23076   7.558  -0.206   8.892 -1.1577 -1.2470 -1.5710
  175MOL0     H23077   7.497  -0.071   8.792  0.3233  1.0372  1.1213
  175MOL0     H23078   7.730   0.004   8.975 -0.6203  0.9728  0.8849
  175MOL0     H23079   7.594   0.102   8.926  1.6431  1.2532  0.5256
  175MOL0     H23080   7.586  -0.132   9.117  0.0392  0.4852  2.1100
  175MOL0     H23081   7.445  -0.038   9.076 -0.5838  0.7303  0.4356
  175MOL0     H23082   8.381  -0.138   8.468  2.7874  0.9962 -0.4334
  175MOL0     H23083   8.564  -0.225   8.364  0.1558 -0.7974  0.9189
  175MOL0     H23084   8.685  -0.692   8.140  0.3668 -1.3860  0.1666
  175MOL0     H23085   8.852  -0.812   8.024  2.2558 -0.2569 -0.8074
  175MOL0     H23086  10.481   0.431   7.963 -0.9885  3.8436  2.2838
  175MOL0     H23087  10.708   0.404   8.024  0.0575  0.1103 -0.8596
  175MOL0     H23088  11.147   0.476   8.270 -1.6689  0.7136  0.9697
  175MOL0     H23089  11.353   0.381   8.319  0.8401 -0.0013 -1.1808
  175MOL0     H23090  11.537   0.246   8.394 -1.8930 -0.5810 -0.1762
  175MOL0     H23091  11.520   0.265   8.225  1.8254  1.2231  0.7287
  175MOL0     H23092  11.662   0.025   8.358  3.5443  1.4024  2.6279
  175MOL0     H23093  11.674   0.071   8.180  1.1456  4.2831 -1.9635
  175MOL0     H23094  11.773   0.232   8.426  1.8479  3.4047 -0.2958
  175MOL0     H23095  11.774   0.296   8.269  2.9942  1.3150  1.8217
  175MOL0     H23096  11.999   0.191   8.331  0.8633 -4.1035  3.4091
  175MOL0     H23097  11.922   0.047   8.362  2.8853  1.9770  2.3048
  175MOL0     H23098  12.016   0.000   7.966  1.8897  0.6342  0.9277
  175MOL0     H23099  11.200  -0.027   8.262  3.8514  0.1575 -0.1471
  175MOL0     H23100  10.976   0.077   8.241 -0.8313  1.1574 -0.7890
  176MOL0     O23101   9.315   3.507   2.879 -0.2591 -0.5506 -0.3451
  176MOL0     C23102   9.350   3.399   2.925 -0.0286  0.0346  0.0434
  176MOL0     O23103   9.270   3.307   2.989  0.1238 -0.2954 -0.5453
  176MOL0     C23104   9.136   3.329   2.970  0.0729  0.3316 -0.9189
  176MOL0     C23105   9.062   3.401   3.058  0.2395 -0.3412 -0.4360
  176MOL0     C23106   8.926   3.416   3.044  0.7762 -0.2531 -0.3374
  176MOL0     C23107   8.861   3.351   2.945 -0.6137 -0.3877  1.2459
  176MOL0     O23108   8.720   3.355   2.930 -0.1698  0.3272  0.5285
  176MOL0     C23109   8.671   3.349   2.795 -0.1943 -0.2404  0.6540
  176MOL0     C23110   8.521   3.345   2.800  0.3001 -0.5446 -0.0028
  176MOL0     C23111   8.467   3.331   2.657 -0.1442 -0.2359 -0.4738
  176MOL0     C23112   8.315   3.325   2.660 -0.1676  0.6876 -0.2606
  176MOL0     C23113   8.264   3.318   2.513  0.1869  0.2862 -0.2420
  176MOL0     C23114   8.110   3.290   2.511 -1.2015  0.6484  0.5461
  176MOL0     C23115   8.047   3.263   2.376 -0.4667 -0.4490  0.2753
  176MOL0     C23116   7.893   3.257   2.383 -1.1410  0.1869 -0.1783
  176MOL0     N23117   7.830   3.318   2.265 -0.0756  0.1472 -0.2469
  176MOL0     C23118   7.823   3.452   2.236  0.3261 -0.3267 -0.5963
  176MOL0     C23119   7.798   3.455   2.103  0.6229  0.5387 -0.3260
  176MOL0     C23120   7.777   3.578   2.021 -0.4410  0.7025  0.1688
  176MOL0     C23121   7.643   3.636   2.063 -0.5588 -0.0414  0.2703
  176MOL0     C23122   7.607   3.769   2.008 -0.1338 -0.4616  0.1283
  176MOL0     C23123   7.460   3.813   2.032  0.3892 -0.3279 -0.1034
  176MOL0     O23124   7.433   3.937   1.964 -0.6634 -0.4206  0.6306
  176MOL0     C23125   7.303   3.979   1.951  0.2806  0.1269  0.4688
  176MOL0     C23126   7.276   4.070   1.852 -0.5759  0.6190 -0.2303
  176MOL0     C23127   7.146   4.120   1.824  0.0334 -0.0297  0.1986
  176MOL0     C23128   7.033   4.076   1.904 -0.7892  0.3733  0.2978
  176MOL0     C23129   6.896   4.133   1.885 -0.6795  0.2112 -0.2215
  176MOL0     O23130   6.889   4.224   1.783 -0.1744 -0.1162 -0.1038
  176MOL0     C23131   6.767   4.281   1.747 -0.0623  0.8857  0.3719
  176MOL0     C23132   6.673   4.324   1.843  0.8151 -0.5987  0.2065
  176MOL0     C23133   6.553   4.385   1.798  0.5603  0.2791 -0.0370
  176MOL0     C23134   6.536   4.408   1.660  0.3097 -0.7021  0.5297
  176MOL0     O23135   6.429   4.464   1.596  0.1377  0.4952  0.1096
  176MOL0     C23136   6.340   4.534   1.688 -0.5123 -0.7417  0.4244
  176MOL0     C23137   6.232   4.604   1.606 -0.0955  0.1064 -0.0709
  176MOL0     C23138   6.113   4.632   1.691 -0.8907 -1.0682 -0.7793
  176MOL0     C23139   5.992   4.663   1.597 -0.5145 -0.0810 -0.3509
  176MOL0     C23140   5.904   4.771   1.656  0.1701 -0.2259 -0.1317
  176MOL0     C23141   5.769   4.769   1.591 -0.1007  0.3585  0.1394
  176MOL0     C23142   5.653   4.837   1.665 -0.6482  0.0827  0.0510
  176MOL0     C23143   5.673   4.986   1.652  0.0906  0.0776  0.2130
  176MOL0    Cl23144   5.674   5.055   1.478 -0.0003 -0.5323 -0.0611
  176MOL0     C23145   6.625   4.375   1.568 -0.4985  0.3273 -0.2560
  176MOL0     C23146   6.736   4.301   1.609 -0.6763  0.2202 -0.6969
  176MOL0     O23147   6.809   4.076   1.944  0.0874  0.2833 -0.0770
  176MOL0     C23148   7.067   3.975   1.997  0.3674 -0.1175 -0.0455
  176MOL0     C23149   7.194   3.921   2.018  0.7386  0.2115 -0.2921
  176MOL0     N23150   7.784   3.324   2.058  0.2078 -0.5866  0.0748
  176MOL0     N23151   7.804   3.246   2.156 -0.1706 -0.4948  0.0052
  176MOL0     C23152   8.933   3.256   2.877  0.2433 -0.2464 -0.6110
  176MOL0     C23153   9.068   3.245   2.880 -0.9020  0.3133 -0.0735
  176MOL0     C23154   9.492   3.377   2.935 -0.2729 -0.7828  0.4147
  176MOL0     C23155   9.596   3.473   2.942  0.1673 -0.2900 -0.1763
  176MOL0     C23156   9.734   3.442   2.944  0.3210  0.2965  0.2246
  176MOL0     C23157   9.769   3.312   2.928  0.1760  0.5102 -1.3752
  176MOL0     O23158   9.901   3.286   2.931 -0.2267 -0.3970  0.2308
  176MOL0     C23159   9.957   3.147   2.929  0.8277 -0.4454  0.3978
  176MOL0     C23160  10.111   3.147   2.930 -0.1370 -0.8010 -0.5670
  176MOL0     C23161  10.170   3.205   2.804  0.4497 -0.6061 -0.3495
  176MOL0     C23162  10.315   3.160   2.778 -0.3834 -0.2895  0.0562
  176MOL0     C23163  10.371   3.178   2.643 -0.3161  0.4206  0.9325
  176MOL0     C23164  10.417   3.199   2.532 -0.2914  0.0085  0.3996
  176MOL0     C23165   9.672   3.216   2.919 -0.3774  0.9403  0.1348
  176MOL0     C23166   9.540   3.247   2.926 -0.3042 -0.0260  0.0139
  176MOL0     H23167   9.117   3.449   3.138  0.3697 -2.7342  1.0282
  176MOL0     H23168   8.870   3.486   3.105  0.0834  0.0102 -1.2530
  176MOL0     H23169   8.702   3.253   2.753 -0.3708  0.4407 -1.1005
  176MOL0     H23170   8.715   3.439   2.751  0.8705  0.0857  2.3062
  176MOL0     H23171   8.497   3.437   2.856  0.3826 -0.7075  0.3055
  176MOL0     H23172   8.488   3.257   2.856 -0.3642  0.0308  0.5386
  176MOL0     H23173   8.501   3.235   2.618  0.6435 -0.5678  0.9382
  176MOL0     H23174   8.492   3.419   2.597 -0.3611  0.0798 -0.1076
  176MOL0     H23175   8.282   3.234   2.712 -1.5168  0.1312 -2.0059
  176MOL0     H23176   8.268   3.417   2.696 -2.2202  0.9515 -3.2840
  176MOL0     H23177   8.321   3.250   2.448  0.0738 -0.8691  0.8251
  176MOL0     H23178   8.272   3.416   2.466  1.3209 -0.5100 -1.8286
  176MOL0     H23179   8.059   3.372   2.563  1.6870  2.6883  0.4247
  176MOL0     H23180   8.092   3.203   2.574 -0.5630 -1.3474 -1.8820
  176MOL0     H23181   8.079   3.343   2.309  2.1815 -0.4944  1.3570
  176MOL0     H23182   8.077   3.166   2.336 -1.8205 -0.7790  0.0155
  176MOL0     H23183   7.864   3.316   2.471 -0.0187 -1.6593  1.5310
  176MOL0     H23184   7.871   3.151   2.399 -0.2005 -0.4407 -2.5519
  176MOL0     H23185   7.850   3.535   2.300 -1.1384  0.1560 -0.5769
  176MOL0     H23186   7.779   3.555   1.914 -1.1941 -1.8875  0.6280
  176MOL0     H23187   7.864   3.643   2.035 -1.3356  1.8797  0.3567
  176MOL0     H23188   7.646   3.648   2.171 -0.1178  1.4371  0.1177
  176MOL0     H23189   7.565   3.566   2.033 -1.9708  1.4776  0.2088
  176MOL0     H23190   7.672   3.846   2.050 -0.3406  0.3783 -1.0553
  176MOL0     H23191   7.620   3.766   1.900  0.9231  3.7712 -0.0281
  176MOL0     H23192   7.443   3.821   2.140 -1.8656  2.4897 -0.5519
  176MOL0     H23193   7.385   3.745   1.988 -0.5570 -0.2761  1.3644
  176MOL0     H23194   7.360   4.111   1.797 -0.0494  1.5726  1.2490
  176MOL0     H23195   7.126   4.194   1.747 -1.0252 -0.1475  0.3374
  176MOL0     H23196   6.698   4.325   1.949  2.4386  1.1460 -0.1337
  176MOL0     H23197   6.486   4.412   1.880 -0.7253 -1.4646 -0.4586
  176MOL0     H23198   6.391   4.614   1.742  0.9660 -0.3331 -1.4728
  176MOL0     H23199   6.297   4.457   1.754 -1.9942  0.7607  1.2835
  176MOL0     H23200   6.206   4.527   1.533 -0.3337 -1.0521  1.1937
  176MOL0     H23201   6.266   4.690   1.548 -0.4254  0.3653  0.1137
  176MOL0     H23202   6.134   4.718   1.755  0.5773 -0.7284 -1.6716
  176MOL0     H23203   6.103   4.549   1.761  1.4597  1.0190  2.2787
  176MOL0     H23204   6.031   4.700   1.501  0.3129 -2.9080 -1.2151
  176MOL0     H23205   5.947   4.569   1.566  3.6319 -2.0777 -0.9942
  176MOL0     H23206   5.943   4.871   1.635 -3.8862  1.0666 -2.3640
  176MOL0     H23207   5.900   4.749   1.763  2.7957 -1.5059 -0.2024
  176MOL0     H23208   5.743   4.663   1.577  0.7355  0.1874 -0.1963
  176MOL0     H23209   5.789   4.810   1.491  1.5520  0.1443  0.3533
  176MOL0     H23210   5.562   4.802   1.616  0.9777 -0.8946 -2.4774
  176MOL0     H23211   5.650   4.799   1.768  0.7263 -0.2899 -0.0376
  176MOL0     H23212   5.765   5.018   1.702  0.1386  0.0501  0.1425
  176MOL0     H23213   5.596   5.027   1.719 -2.4092 -0.8891 -1.8970
  176MOL0     H23214   6.613   4.391   1.461 -0.6637  3.0518  0.0772
  176MOL0     H23215   6.810   4.271   1.535 -1.2875 -0.6547 -0.9687
  176MOL0     H23216   6.986   3.924   2.048  1.4344 -1.2141  0.6085
  176MOL0     H23217   7.203   3.853   2.103  0.2521  0.0701 -0.3483
  176MOL0     H23218   8.877   3.186   2.815 -0.4920 -1.1671  1.0243
  176MOL0     H23219   9.121   3.172   2.819 -0.1846  0.7181  0.0523
  176MOL0     H23220   9.582   3.581   2.933  1.9178 -0.1628 -2.0725
  176MOL0     H23221   9.816   3.512   2.950  1.6034 -1.2371  1.5993
  176MOL0     H23222   9.912   3.096   2.843 -1.8077  0.1211  1.3289
  176MOL0     H23223   9.927   3.097   3.022  0.3807  1.5263  1.3805
  176MOL0     H23224  10.148   3.205   3.015 -0.6682 -3.0955  1.3437
  176MOL0     H23225  10.142   3.043   2.947 -0.5442 -0.5460  2.3158
  176MOL0     H23226  10.174   3.314   2.814 -0.1002 -0.5586 -0.6180
  176MOL0     H23227  10.111   3.177   2.716 -0.0992 -2.8921  0.6766
  176MOL0     H23228  10.377   3.196   2.861 -1.2639 -2.4120  1.7103
  176MOL0     H23229  10.315   3.052   2.794 -0.5061 -0.6369 -1.9905
  176MOL0     H23230  10.450   3.235   2.437  0.2579  0.3075  0.6974
  176MOL0     H23231   9.692   3.110   2.911  0.1817  0.9681  1.0424
  176MOL0     H23232   9.460   3.175   2.908 -0.4235 -0.1551  1.0172
  177MOL0     O23233   4.258   5.665   9.514  0.1473 -0.0490  0.6501
  177MOL0     C23234   4.292   5.767   9.562  0.1036 -0.5484 -0.6011
  177MOL0     O23235   4.215   5.842   9.645 -0.2132  0.4363  0.3456
  177MOL0     C23236   4.074   5.844   9.610  0.1176  0.0801 -0.0763
  177MOL0     C23237   4.033   5.858   9.480  0.0589 -0.1600 -0.4865
  177MOL0     C23238   3.899   5.846   9.444 -0.2730 -0.3754 -1.3740
  177MOL0     C23239   3.807   5.823   9.547 -0.2739 -0.3895 -0.3214
  177MOL0     O23240   3.670   5.804   9.524 -0.2982 -0.0154 -0.0729
  177MOL0     C23241   3.605   5.896   9.429 -0.4454  0.4108 -0.3780
  177MOL0     C23242   3.595   6.035   9.463  0.3912 -0.9766 -0.5550
  177MOL0     C23243   3.496   6.112   9.382  0.0598 -0.0331 -0.4513
  177MOL0     C23244   3.482   6.264   9.416 -0.6310 -1.1879  0.0729
  177MOL0     C23245   3.376   6.349   9.351 -0.4456 -0.1443  0.1709
  177MOL0     C23246   3.418   6.492   9.320 -0.3091  0.0257 -0.2122
  177MOL0     C23247   3.525   6.503   9.208 -0.3117 -0.3458  0.0925
  177MOL0     C23248   3.552   6.650   9.174 -0.3081 -0.1758 -0.2199
  177MOL0     N23249   3.612   6.642   9.033  0.5204 -0.6581  0.2573
  177MOL0     C23250   3.737   6.584   9.005 -0.1909  1.2067  0.7841
  177MOL0     C23251   3.738   6.551   8.872  0.3855  0.8391 -0.0650
  177MOL0     C23252   3.842   6.490   8.780  0.1630 -0.4171  0.0827
  177MOL0     C23253   3.943   6.592   8.719  1.1592  0.3241  0.0234
  177MOL0     C23254   4.067   6.522   8.654 -0.0682  0.3702  0.3062
  177MOL0     C23255   4.159   6.624   8.582 -0.0325  0.0910 -0.8068
  177MOL0     O23256   4.274   6.651   8.657 -0.3636  0.1734 -0.3144
  177MOL0     C23257   4.393   6.701   8.606  0.0696 -0.0523 -0.2432
  177MOL0     C23258   4.427   6.709   8.467 -0.9133 -0.1150  0.3878
  177MOL0     C23259   4.552   6.769   8.439 -0.2300  0.3285 -0.3871
  177MOL0     C23260   4.630   6.816   8.547 -0.2295 -0.0566  0.6664
  177MOL0     C23261   4.762   6.870   8.520 -0.6457 -0.2058  0.0027
  177MOL0     O23262   4.835   6.924   8.627  0.5081 -0.3517  0.7817
  177MOL0     C23263   4.965   6.973   8.631 -0.2326 -1.4213 -0.6196
  177MOL0     C23264   5.073   6.933   8.555 -0.8622  0.6808 -0.7184
  177MOL0     C23265   5.207   6.985   8.576  0.2070  0.0426  0.1132
  177MOL0     C23266   5.232   7.075   8.675 -0.5929  0.3764 -0.9201
  177MOL0     O23267   5.360   7.124   8.705  0.8539 -0.0578 -0.5936
  177MOL0     C23268   5.465   7.054   8.669 -0.8234 -0.0317  0.6706
  177MOL0     C23269   5.587   7.093   8.762 -0.5419 -1.1230 -0.3203
  177MOL0     C23270   5.603   7.243   8.744  0.3241 -0.3484 -0.2489
  177MOL0     C23271   5.728   7.290   8.810 -0.0652  0.0515 -0.5008
  177MOL0     C23272   5.755   7.442   8.799 -0.4394  0.7395 -0.1580
  177MOL0     C23273   5.891   7.485   8.853 -0.1460  0.3634 -0.1229
  177MOL0     C23274   6.019   7.414   8.814  0.6149 -0.4066  0.3471
  177MOL0     C23275   6.145   7.486   8.866  1.0819 -0.2040  0.2951
  177MOL0    Cl23276   6.277   7.378   8.827  0.0893 -0.0319 -0.2100
  177MOL0     C23277   5.120   7.116   8.749 -0.1937 -0.4442  1.0120
  177MOL0     C23278   4.991   7.075   8.724  1.2353  0.6621 -0.3711
  177MOL0     O23279   4.809   6.864   8.407  0.1653 -0.3132 -0.7579
  177MOL0     C23280   4.597   6.799   8.682 -0.5759 -0.8674  0.8482
  177MOL0     C23281   4.475   6.752   8.710  0.6840 -0.7600  0.1994
  177MOL0     N23282   3.619   6.597   8.818 -1.0220  1.0286  0.1979
  177MOL0     N23283   3.544   6.650   8.916  0.6673 -0.2686 -0.3619
  177MOL0     C23284   3.846   5.804   9.672 -0.7830  0.6241  0.4438
  177MOL0     C23285   3.979   5.821   9.709 -1.0515  0.4259 -0.3911
  177MOL0     C23286   4.437   5.812   9.547  0.3458  0.2534 -0.9614
  177MOL0     C23287   4.501   5.918   9.620  0.3180  0.5042 -0.8093
  177MOL0     C23288   4.632   5.946   9.610 -0.7237  0.1051 -0.6598
  177MOL0     C23289   4.716   5.872   9.529  0.3622  0.3569 -0.7363
  177MOL0     O23290   4.846   5.912   9.519  0.0045 -0.5449  0.3325
  177MOL0     C23291   4.934   5.858   9.415  0.4242 -0.0013  0.1332
  177MOL0     C23292   5.076   5.898   9.476 -0.7399  1.1427  0.8583
  177MOL0     C23293   5.187   5.808   9.433 -0.0781 -0.6773 -0.0451
  177MOL0     C23294   5.313   5.839   9.516  0.0346 -0.6628 -0.0558
  177MOL0     C23295   5.424   5.755   9.476 -0.6100 -0.7269 -0.1225
  177MOL0     C23296   5.518   5.684   9.443  0.0305 -0.3961  0.0681
  177MOL0     C23297   4.655   5.765   9.451  0.2081 -0.1931 -0.4582
  177MOL0     C23298   4.519   5.744   9.456 -0.3970  0.0468  0.2823
  177MOL0     H23299   4.094   5.880   9.393 -3.6933 -0.6813 -3.5490
  177MOL0     H23300   3.863   5.836   9.342  1.0318 -0.9243 -1.8057
  177MOL0     H23301   3.500   5.868   9.413 -0.5025  1.5736 -2.3096
  177MOL0     H23302   3.647   5.887   9.329 -1.5985 -0.2895 -0.8211
  177MOL0     H23303   3.690   6.088   9.472 -0.4436  0.5401 -0.2980
  177MOL0     H23304   3.580   6.036   9.572  5.1546  0.4684  0.3415
  177MOL0     H23305   3.400   6.062   9.396  0.0091  0.5043  1.3986
  177MOL0     H23306   3.524   6.105   9.277 -1.1540  0.4438 -0.8180
  177MOL0     H23307   3.474   6.262   9.525 -0.9144 -0.6350  0.0621
  177MOL0     H23308   3.582   6.306   9.401 -1.4609  1.0410  0.4179
  177MOL0     H23309   3.292   6.354   9.421 -1.1020  0.4459 -0.6419
  177MOL0     H23310   3.340   6.300   9.260  0.4771 -3.7184  1.5389
  177MOL0     H23311   3.456   6.542   9.409  0.2299  1.0242 -0.9817
  177MOL0     H23312   3.329   6.542   9.281 -2.0773 -3.6316 -1.3422
  177MOL0     H23313   3.618   6.455   9.237  0.5084  0.1938 -1.5000
  177MOL0     H23314   3.485   6.443   9.125  2.2655 -1.3063 -0.5235
  177MOL0     H23315   3.621   6.691   9.248 -1.0081 -0.1678  0.4421
  177MOL0     H23316   3.461   6.710   9.187 -0.1160 -0.5231  4.6489
  177MOL0     H23317   3.822   6.567   9.071  1.3843 -1.4436 -1.6781
  177MOL0     H23318   3.797   6.429   8.701  2.9256 -1.9176 -0.4915
  177MOL0     H23319   3.902   6.420   8.839  0.3300 -1.7805 -1.6137
  177MOL0     H23320   3.979   6.652   8.803  0.1630 -0.9375  1.4230
  177MOL0     H23321   3.899   6.640   8.631 -2.8628 -2.5006  0.1965
  177MOL0     H23322   4.121   6.474   8.736  0.1146  1.0785  0.6061
  177MOL0     H23323   4.025   6.449   8.583 -0.8290 -0.0995  1.2141
  177MOL0     H23324   4.108   6.717   8.557  0.1604  0.1341 -1.0430
  177MOL0     H23325   4.195   6.580   8.489  1.0862 -1.1869  0.1926
  177MOL0     H23326   4.362   6.669   8.390 -1.8008 -0.4532  1.2855
  177MOL0     H23327   4.583   6.780   8.335 -0.2923  0.8100 -0.3595
  177MOL0     H23328   5.057   6.855   8.482  2.5726 -2.9219  1.9774
  177MOL0     H23329   5.281   6.945   8.507 -1.6021  0.0825 -1.9684
  177MOL0     H23330   5.500   7.071   8.566 -0.0598  0.1893  0.9586
  177MOL0     H23331   5.450   6.946   8.672  0.6360 -0.4172 -2.2612
  177MOL0     H23332   5.676   7.041   8.727  0.5497  1.2219 -1.2522
  177MOL0     H23333   5.570   7.061   8.865  1.7155 -3.1622 -0.4919
  177MOL0     H23334   5.524   7.304   8.789  0.7053 -0.4166  0.5389
  177MOL0     H23335   5.615   7.252   8.636 -0.1059 -2.5271 -0.5223
  177MOL0     H23336   5.717   7.276   8.918  0.1884  1.8456 -0.2020
  177MOL0     H23337   5.817   7.238   8.773  0.2917 -1.3755  2.1251
  177MOL0     H23338   5.678   7.505   8.844 -2.2402  0.0933 -2.1311
  177MOL0     H23339   5.746   7.468   8.693 -0.8457  0.2784 -0.2412
  177MOL0     H23340   5.881   7.485   8.962 -1.0663  1.9857 -0.1734
  177MOL0     H23341   5.895   7.591   8.826  0.3227 -0.3049 -3.0541
  177MOL0     H23342   6.020   7.313   8.856 -0.3619 -2.0293 -3.1679
  177MOL0     H23343   6.018   7.407   8.705  2.1624  2.9139  0.0026
  177MOL0     H23344   6.130   7.499   8.974 -3.4285  1.3627 -0.3207
  177MOL0     H23345   6.148   7.585   8.820 -1.7138  0.0238  0.4333
  177MOL0     H23346   5.138   7.180   8.835  0.1812  1.1633 -0.2073
  177MOL0     H23347   4.917   7.115   8.792  2.2976  1.0625  0.5953
  177MOL0     H23348   4.655   6.837   8.765 -1.6149 -1.6097  1.9545
  177MOL0     H23349   4.444   6.740   8.813  1.9984  0.3318  0.7497
  177MOL0     H23350   3.777   5.789   9.754 -0.0707  2.5880  1.4509
  177MOL0     H23351   4.004   5.794   9.811 -0.1907  0.9978 -0.4404
  177MOL0     H23352   4.456   5.976   9.701  0.1067 -2.0267  0.9949
  177MOL0     H23353   4.673   6.019   9.679 -2.6346 -0.0575  0.7222
  177MOL0     H23354   4.919   5.891   9.312  0.0392 -0.6582 -0.0291
  177MOL0     H23355   4.925   5.750   9.405 -0.1778 -0.1209  1.5785
  177MOL0     H23356   5.102   6.002   9.453 -0.1305  0.4069 -2.2626
  177MOL0     H23357   5.069   5.891   9.585 -0.7998  1.1962  0.8579
  177MOL0     H23358   5.194   5.816   9.324 -3.6782  0.6116 -0.2920
  177MOL0     H23359   5.154   5.708   9.462 -0.5479 -0.1111  1.4335
  177MOL0     H23360   5.343   5.942   9.494 -0.7162  0.5114  3.6149
  177MOL0     H23361   5.288   5.836   9.623  0.3095  0.7641  0.0797
  177MOL0     H23362   5.602   5.622   9.418 -1.8479 -2.9971 -0.1712
  177MOL0     H23363   4.693   5.707   9.368 -0.7057  0.9647 -1.7582
  177MOL0     H23364   4.479   5.656   9.408  1.1625 -0.4639 -0.1391
  178MOL0     O23365  10.549   2.867  10.598 -0.1865  0.4692  0.1821
  178MOL0     C23366  10.581   2.976  10.570  0.6198  0.2665  0.0905
  178MOL0     O23367  10.500   3.084  10.567  0.1376  0.0581  0.3936
  178MOL0     C23368  10.360   3.069  10.546 -0.7228 -0.4494 -0.5039
  178MOL0     C23369  10.295   2.963  10.477  0.2270 -0.4578  0.3356
  178MOL0     C23370  10.157   2.966  10.441  0.7339  0.1865 -0.2855
  178MOL0     C23371  10.086   3.087  10.480  0.4794  0.4991 -0.1903
  178MOL0     O23372   9.955   3.111  10.454  0.1640  0.3501  0.5162
  178MOL0     C23373   9.865   3.009  10.395  0.0816  0.3501 -0.1729
  178MOL0     C23374   9.746   3.079  10.329 -0.2367  0.3430 -0.2715
  178MOL0     C23375   9.797   3.195  10.233 -0.5733  1.3567 -0.2679
  178MOL0     C23376   9.674   3.239  10.154  0.6533  0.7416  0.1693
  178MOL0     C23377   9.727   3.354  10.057 -0.6799 -0.4324 -0.8406
  178MOL0     C23378   9.633   3.389   9.948  0.0715 -0.2747 -0.5975
  178MOL0     C23379   9.514   3.463   9.998  0.9428 -0.7514  0.5762
  178MOL0     C23380   9.387   3.382  10.023 -0.7111  0.2909 -0.3154
  178MOL0     N23381   9.350   3.289   9.923 -0.3275  0.8290 -0.2014
  178MOL0     C23382   9.281   3.327   9.809  0.5156 -0.3057 -0.4831
  178MOL0     C23383   9.267   3.207   9.746  1.8198 -0.6398 -0.7535
  178MOL0     C23384   9.193   3.177   9.616  0.5146  0.4589 -0.9957
  178MOL0     C23385   9.292   3.161   9.503  0.8474  0.8093 -0.2784
  178MOL0     C23386   9.225   3.082   9.398  0.3379  0.2658  0.6933
  178MOL0     C23387   9.316   3.072   9.281 -0.6554  0.6239  0.3841
  178MOL0     O23388   9.378   3.201   9.238  0.4720 -0.8681 -0.6965
  178MOL0     C23389   9.320   3.275   9.139 -0.2585 -0.1851  0.1170
  178MOL0     C23390   9.408   3.364   9.079 -0.4255 -0.1140 -1.0468
  178MOL0     C23391   9.374   3.448   8.970  0.0728  0.4848 -0.4196
  178MOL0     C23392   9.242   3.447   8.935 -0.4072 -0.1268  0.1819
  178MOL0     C23393   9.195   3.545   8.833 -0.3923 -0.1542  0.1224
  178MOL0     O23394   9.057   3.551   8.809 -0.4860 -0.6664 -0.0783
  178MOL0     C23395   9.028   3.618   8.691  0.1488  0.5081  0.0999
  178MOL0     C23396   9.017   3.557   8.568 -0.2304 -0.0692  0.2727
  178MOL0     C23397   8.963   3.625   8.452  0.2219  0.2815 -1.2021
  178MOL0     C23398   8.918   3.758   8.463 -0.0621  0.5892 -0.2297
  178MOL0     O23399   8.864   3.833   8.363 -0.3091 -0.3900  0.1273
  178MOL0     C23400   8.793   3.765   8.257 -0.0323 -0.3415  0.1479
  178MOL0     C23401   8.695   3.863   8.186 -0.8723  0.2906  0.2303
  178MOL0     C23402   8.573   3.887   8.253 -0.2947 -0.2859 -0.5809
  178MOL0     C23403   8.483   3.983   8.175  0.0373  0.0831 -0.1203
  178MOL0     C23404   8.362   4.019   8.252 -0.1959 -0.2901 -0.0890
  178MOL0     C23405   8.277   4.111   8.166 -0.2173 -0.0152  0.0476
  178MOL0     C23406   8.136   4.123   8.227  0.1020 -0.7946 -0.0466
  178MOL0     C23407   8.049   4.202   8.140  0.1857  0.5202  0.8105
  178MOL0    Cl23408   7.885   4.229   8.215 -0.3537 -0.2500  0.3102
  178MOL0     C23409   8.939   3.817   8.594 -0.0002  0.2601 -0.0559
  178MOL0     C23410   8.992   3.750   8.705 -0.3615 -0.0590 -0.4916
  178MOL0     O23411   9.276   3.613   8.774 -0.3552  0.3868 -0.0958
  178MOL0     C23412   9.152   3.361   8.990 -0.2999  1.1269 -0.1310
  178MOL0     C23413   9.189   3.276   9.093 -0.2165  0.4942  0.2142
  178MOL0     N23414   9.331   3.107   9.820 -0.4273  0.1844 -0.3097
  178MOL0     N23415   9.381   3.157   9.928 -0.0173  0.0676  0.4408
  178MOL0     C23416  10.147   3.188  10.551 -0.2034 -0.4539 -0.4053
  178MOL0     C23417  10.279   3.177  10.582 -0.1251 -0.1039 -0.2055
  178MOL0     C23418  10.721   3.017  10.560  0.3955 -0.2049 -0.6927
  178MOL0     C23419  10.820   2.911  10.550 -0.8628 -0.6075 -0.9739
  178MOL0     C23420  10.956   2.942  10.554 -0.2182  0.3381 -0.0793
  178MOL0     C23421  10.999   3.071  10.559  0.5519 -0.2045  0.5598
  178MOL0     O23422  11.136   3.075  10.550  0.0501  0.0953  0.2870
  178MOL0     C23423  11.197   3.201  10.520 -0.3651 -0.2040 -0.6486
  178MOL0     C23424  11.176   3.249  10.386 -0.3311 -0.1750  0.1056
  178MOL0     C23425  11.224   3.389  10.356  0.5635 -0.5179 -0.3227
  178MOL0     C23426  11.176   3.447  10.223 -0.2117  0.1162 -0.0690
  178MOL0     C23427  11.229   3.577  10.208 -0.3771 -0.4390  0.1268
  178MOL0     C23428  11.260   3.694  10.204 -0.7348 -0.1690  0.4465
  178MOL0     C23429  10.904   3.176  10.563  0.3458  0.0617  0.6321
  178MOL0     C23430  10.770   3.147  10.578  0.1199  0.1719 -0.4822
  178MOL0     H23431  10.352   2.872  10.458  3.1402  0.4727  3.5407
  178MOL0     H23432  10.109   2.880  10.395  0.1026 -0.2123  1.0571
  178MOL0     H23433   9.826   2.934  10.464 -1.2456 -0.1469 -1.4352
  178MOL0     H23434   9.913   2.957  10.312 -1.3337  0.8358 -1.3516
  178MOL0     H23435   9.666   3.115  10.394 -1.7136  0.9074 -2.3454
  178MOL0     H23436   9.708   3.001  10.263  3.8888 -1.7506 -0.5200
  178MOL0     H23437   9.876   3.155  10.168 -0.9138 -1.4488  0.9088
  178MOL0     H23438   9.835   3.279  10.292 -0.3878 -0.1462  1.8474
  178MOL0     H23439   9.634   3.156  10.094  2.4814 -0.5189  0.6283
  178MOL0     H23440   9.611   3.278  10.234  1.7080  0.1337  1.3349
  178MOL0     H23441   9.821   3.324  10.011  0.0707  1.4632 -0.6415
  178MOL0     H23442   9.736   3.446  10.116 -3.1021 -1.0831  0.7105
  178MOL0     H23443   9.609   3.303   9.884 -1.7550 -1.3841  1.4417
  178MOL0     H23444   9.689   3.459   9.885 -1.0024  1.0927 -0.0797
  178MOL0     H23445   9.538   3.534  10.078 -0.5387  1.7069 -1.0560
  178MOL0     H23446   9.492   3.534   9.918 -1.6973 -0.3093  1.5893
  178MOL0     H23447   9.304   3.452  10.035 -0.4396  0.8990 -1.7576
  178MOL0     H23448   9.402   3.323  10.114 -1.2043 -2.6226 -1.9815
  178MOL0     H23449   9.238   3.413   9.758 -1.8579 -2.4769 -2.4104
  178MOL0     H23450   9.123   3.258   9.593 -0.2203 -0.4328 -2.0412
  178MOL0     H23451   9.134   3.087   9.636 -0.0793  0.9123 -0.7090
  178MOL0     H23452   9.376   3.102   9.540 -1.0205 -0.5224  2.1146
  178MOL0     H23453   9.320   3.261   9.466 -0.4623  1.6470  0.9087
  178MOL0     H23454   9.201   2.980   9.431  0.1449 -0.2204 -0.8863
  178MOL0     H23455   9.131   3.124   9.361  1.5585  0.9950 -1.7941
  178MOL0     H23456   9.251   3.024   9.207  0.9753 -1.8010  0.4117
  178MOL0     H23457   9.388   2.993   9.302  1.6732  2.7993  1.1092
  178MOL0     H23458   9.508   3.364   9.120 -1.4089  3.0759  1.8675
  178MOL0     H23459   9.450   3.516   8.933  1.8417 -0.4832  1.2440
  178MOL0     H23460   9.051   3.454   8.573 -3.5299 -1.2330  0.8639
  178MOL0     H23461   8.951   3.567   8.362 -0.1906 -1.7015  0.0676
  178MOL0     H23462   8.743   3.685   8.313 -1.1979  0.8416  0.8619
  178MOL0     H23463   8.862   3.725   8.182 -0.4295  0.9150 -0.9245
  178MOL0     H23464   8.676   3.819   8.087  1.5852 -1.3762  0.4190
  178MOL0     H23465   8.746   3.959   8.177  1.1246 -0.7439  0.1393
  178MOL0     H23466   8.585   3.924   8.355  2.0808 -2.3794  0.0120
  178MOL0     H23467   8.525   3.791   8.271 -0.5036  0.0324  0.6755
  178MOL0     H23468   8.539   4.075   8.154  5.4094 -2.5072  0.9996
  178MOL0     H23469   8.456   3.941   8.078  1.6289  1.8513 -1.4184
  178MOL0     H23470   8.391   4.073   8.343  2.2843 -3.0025  0.8983
  178MOL0     H23471   8.310   3.927   8.282 -0.8169  0.6145  1.7288
  178MOL0     H23472   8.264   4.071   8.064 -0.3615 -1.9048  0.7553
  178MOL0     H23473   8.335   4.203   8.167  1.1474 -0.8345  1.8482
  178MOL0     H23474   8.095   4.025   8.250 -0.3240 -0.4753  0.6059
  178MOL0     H23475   8.137   4.172   8.325  1.8471 -0.7223 -0.0716
  178MOL0     H23476   8.034   4.158   8.040 -0.4832 -1.7262  1.8306
  178MOL0     H23477   8.086   4.302   8.114 -3.2807  2.0622  1.1665
  178MOL0     H23478   8.909   3.918   8.620 -2.3901 -0.9462  2.3577
  178MOL0     H23479   8.989   3.787   8.807 -1.2900 -4.2451  1.1976
  178MOL0     H23480   9.049   3.360   8.957 -0.4530  1.0307  0.3470
  178MOL0     H23481   9.113   3.216   9.142 -1.1362  1.8946  0.5544
  178MOL0     H23482  10.095   3.279  10.577 -2.7340 -0.9181 -3.2608
  178MOL0     H23483  10.320   3.255  10.645  0.8689 -2.0661  1.7053
  178MOL0     H23484  10.783   2.811  10.533 -0.5080 -0.6507 -1.4713
  178MOL0     H23485  11.027   2.861  10.542 -2.2748 -1.1949 -3.0474
  178MOL0     H23486  11.306   3.194  10.532  0.0771 -0.7589 -3.9224
  178MOL0     H23487  11.156   3.280  10.584 -0.2656  0.1336 -0.9961
  178MOL0     H23488  11.225   3.184  10.314  0.7375  2.3327 -1.5612
  178MOL0     H23489  11.070   3.248  10.357 -0.1173 -2.1984 -0.7892
  178MOL0     H23490  11.332   3.397  10.367  0.2865  4.5964  1.2984
  178MOL0     H23491  11.199   3.458  10.437  3.7694 -2.5669  2.6584
  178MOL0     H23492  11.219   3.391  10.139 -3.1318  0.6583 -2.0821
  178MOL0     H23493  11.068   3.449  10.207 -1.0455  2.6452  4.2749
  178MOL0     H23494  11.294   3.795  10.194 -2.0880  0.2372 -0.3238
  178MOL0     H23495  10.921   3.282  10.575 -1.4000  0.3891  0.4362
  178MOL0     H23496  10.702   3.231  10.594  0.2485  0.3984 -1.0986
  179MOL0     O23497   7.419   7.485   3.276 -0.2325 -0.3945 -0.1131
  179MOL0     C23498   7.431   7.500   3.160  0.4401 -0.0559  0.7000
  179MOL0     O23499   7.335   7.548   3.079  0.0572  0.4675  0.3635
  179MOL0     C23500   7.213   7.571   3.135 -0.0411  0.2556  0.3254
  179MOL0     C23501   7.170   7.703   3.185  1.0888 -0.4994  0.3007
  179MOL0     C23502   7.032   7.729   3.218  0.4984 -0.2954 -0.3536
  179MOL0     C23503   6.936   7.629   3.200 -0.2934  0.3262 -0.4757
  179MOL0     O23504   6.805   7.653   3.205  0.3503  0.2898  0.6626
  179MOL0     C23505   6.756   7.715   3.325 -0.4703  0.5633 -0.4921
  179MOL0     C23506   6.613   7.676   3.350  0.2832  0.1117  0.5415
  179MOL0     C23507   6.547   7.739   3.475 -0.3673 -0.3646  0.4855
  179MOL0     C23508   6.415   7.682   3.513  0.2370  0.3476 -0.9569
  179MOL0     C23509   6.436   7.551   3.592 -0.2674  0.7222  0.3001
  179MOL0     C23510   6.336   7.533   3.699  1.3158  0.2030 -0.0659
  179MOL0     C23511   6.376   7.410   3.775  0.2673 -0.1584 -0.5543
  179MOL0     C23512   6.303   7.390   3.916  0.6983  0.5124 -0.1440
  179MOL0     N23513   6.168   7.329   3.893  0.5704  0.9994  0.0288
  179MOL0     C23514   6.140   7.192   3.875 -0.7941  0.7713 -0.3207
  179MOL0     C23515   6.004   7.179   3.895  0.0249 -0.3430  0.7726
  179MOL0     C23516   5.927   7.043   3.883 -0.8200  1.1748 -0.3390
  179MOL0     C23517   5.775   7.064   3.880 -0.5569  0.0824  0.2487
  179MOL0     C23518   5.691   6.931   3.886 -0.6988 -0.8981  0.3738
  179MOL0     C23519   5.670   6.880   4.032  0.0691 -0.8690 -0.4801
  179MOL0     O23520   5.546   6.937   4.068 -0.7141 -0.3928 -0.4206
  179MOL0     C23521   5.444   6.862   4.036  0.0074 -0.8636 -0.6555
  179MOL0     C23522   5.439   6.757   3.945  0.3966 -0.3032  0.2557
  179MOL0     C23523   5.315   6.705   3.921 -0.3047  0.4081 -0.3066
  179MOL0     C23524   5.195   6.744   3.983 -0.7397 -0.5666  0.2463
  179MOL0     C23525   5.066   6.684   3.964  1.2138 -0.3208  0.8134
  179MOL0     O23526   5.065   6.564   3.894 -0.3743  0.1626  0.5773
  179MOL0     C23527   4.951   6.484   3.891  0.6972 -0.2150  0.7787
  179MOL0     C23528   4.957   6.356   3.943 -0.1737  0.1820  0.5190
  179MOL0     C23529   4.857   6.266   3.925 -0.0467 -0.2062 -0.3456
  179MOL0     C23530   4.740   6.302   3.853 -0.0645  0.5411  0.1236
  179MOL0     O23531   4.630   6.217   3.824 -0.5213 -0.1515  0.1361
  179MOL0     C23532   4.646   6.080   3.843  0.8017  0.1974  0.1864
  179MOL0     C23533   4.513   5.997   3.818 -0.9623  0.0769  0.5235
  179MOL0     C23534   4.381   6.056   3.863 -0.2418 -0.5305  0.8635
  179MOL0     C23535   4.375   6.063   4.011  0.3001  0.2529  0.0287
  179MOL0     C23536   4.399   5.923   4.085  0.0715 -0.2521  0.2258
  179MOL0     C23537   4.334   5.791   4.032 -0.4006 -0.0349  0.5284
  179MOL0     C23538   4.368   5.667   4.109  0.1895 -0.7221  0.4339
  179MOL0     C23539   4.518   5.654   4.130  0.8956 -0.2392  0.2045
  179MOL0    Cl23540   4.547   5.492   4.190  0.2239  0.0134 -0.0997
  179MOL0     C23541   4.729   6.436   3.810  0.3288 -0.2717 -0.0823
  179MOL0     C23542   4.834   6.527   3.827  0.2440 -0.6436  0.1315
  179MOL0     O23543   4.960   6.744   3.994 -0.7933 -0.4553 -0.4407
  179MOL0     C23544   5.204   6.856   4.067 -0.1397  0.1868 -0.7134
  179MOL0     C23545   5.330   6.916   4.097 -0.0471 -0.2656  0.5646
  179MOL0     N23546   5.944   7.305   3.897 -0.1469  0.7560  0.0805
  179MOL0     N23547   6.046   7.391   3.908  0.1495 -0.1688 -0.1768
  179MOL0     C23548   6.980   7.502   3.149 -0.0078  0.0111 -0.3602
  179MOL0     C23549   7.111   7.475   3.121  0.8164  0.1346 -0.1537
  179MOL0     C23550   7.551   7.473   3.085  0.4569  0.0980  1.0608
  179MOL0     C23551   7.668   7.444   3.159 -0.4420 -0.2693 -0.1388
  179MOL0     C23552   7.787   7.428   3.096  0.2727  1.1151  0.0637
  179MOL0     C23553   7.798   7.441   2.956 -0.0415 -0.3782  0.4251
  179MOL0     O23554   7.922   7.412   2.903 -0.3299 -0.5771 -0.1093
  179MOL0     C23555   7.971   7.511   2.806 -0.5063  0.6896  0.4264
  179MOL0     C23556   8.108   7.456   2.755 -0.0911  0.2872  0.0695
  179MOL0     C23557   8.178   7.549   2.654 -0.3140  0.6204  0.1439
  179MOL0     C23558   8.313   7.501   2.606  0.7185 -0.1879  0.3685
  179MOL0     C23559   8.400   7.472   2.720  0.1785 -1.0361  0.1054
  179MOL0     C23560   8.480   7.478   2.813 -0.3863  0.0858  0.5363
  179MOL0     C23561   7.682   7.463   2.878 -0.9312  0.1816 -0.7578
  179MOL0     C23562   7.561   7.485   2.936  0.4670  0.1852 -0.5214
  179MOL0     H23563   7.254   7.770   3.201  1.3576 -1.3099  2.6450
  179MOL0     H23564   7.001   7.829   3.247 -2.4436 -0.8536 -1.2210
  179MOL0     H23565   6.758   7.823   3.309 -2.4930  0.5077 -1.3885
  179MOL0     H23566   6.811   7.693   3.417  0.8046  0.7167 -1.1994
  179MOL0     H23567   6.616   7.568   3.364  0.1329  0.1101  0.5556
  179MOL0     H23568   6.561   7.699   3.257  0.1956  1.3988  0.8882
  179MOL0     H23569   6.544   7.846   3.455 -0.3970 -0.3424  0.6068
  179MOL0     H23570   6.621   7.732   3.555  1.1401 -2.0564 -0.9461
  179MOL0     H23571   6.363   7.755   3.576  0.9614  0.4890 -0.5101
  179MOL0     H23572   6.355   7.660   3.424  0.6979  0.5184 -1.3140
  179MOL0     H23573   6.536   7.560   3.636 -0.2918  0.4731  0.4080
  179MOL0     H23574   6.430   7.460   3.532 -1.0508 -0.9653  2.8151
  179MOL0     H23575   6.234   7.521   3.661  0.6917  2.4229  0.7428
  179MOL0     H23576   6.346   7.622   3.762  4.4336  0.6146 -1.0050
  179MOL0     H23577   6.348   7.318   3.723 -1.5098 -0.5957  1.0871
  179MOL0     H23578   6.483   7.410   3.799  0.2751 -0.5438 -0.5838
  179MOL0     H23579   6.303   7.485   3.970 -1.5168  1.4589 -1.6719
  179MOL0     H23580   6.361   7.322   3.979  0.9767 -1.0419 -1.9650
  179MOL0     H23581   6.213   7.114   3.856 -1.8845 -0.8801  1.7733
  179MOL0     H23582   5.956   6.988   3.973  0.7247  2.3557 -0.0686
  179MOL0     H23583   5.964   6.987   3.796  0.6020  1.6502 -0.0668
  179MOL0     H23584   5.748   7.128   3.796  0.3461  0.1938  0.0369
  179MOL0     H23585   5.753   7.115   3.974 -0.0367 -0.0450  0.4419
  179MOL0     H23586   5.604   6.948   3.821  0.4624  0.4901 -0.8944
  179MOL0     H23587   5.741   6.853   3.828 -0.0875  0.3494 -0.8320
  179MOL0     H23588   5.747   6.923   4.098 -1.6610 -0.8278  1.6149
  179MOL0     H23589   5.682   6.772   4.028 -2.4494 -1.2589  0.5250
  179MOL0     H23590   5.523   6.708   3.896  1.4951  0.6276  1.1341
  179MOL0     H23591   5.316   6.617   3.858 -1.3816 -0.3205  0.6559
  179MOL0     H23592   5.047   6.322   3.994  1.3959  0.6713 -1.7926
  179MOL0     H23593   4.856   6.167   3.969 -2.4151  0.0346  0.3127
  179MOL0     H23594   4.671   6.068   3.949  1.9597  1.0444  0.0316
  179MOL0     H23595   4.726   6.047   3.775  2.8793  2.2868  1.4526
  179MOL0     H23596   4.525   5.896   3.859  0.8934  0.0333 -0.0625
  179MOL0     H23597   4.510   5.969   3.712 -0.2964  0.6023  0.3647
  179MOL0     H23598   4.302   5.990   3.828  0.5009 -2.7437  3.0384
  179MOL0     H23599   4.372   6.154   3.817 -1.4651 -0.1090  1.9499
  179MOL0     H23600   4.443   6.137   4.055  2.9543 -2.7059  1.2890
  179MOL0     H23601   4.270   6.081   4.037 -0.5381 -1.4547 -1.8490
  179MOL0     H23602   4.383   5.927   4.193 -0.6586 -2.9283  0.2859
  179MOL0     H23603   4.506   5.903   4.071 -0.0387 -0.5693 -0.1622
  179MOL0     H23604   4.351   5.774   3.925  1.2444 -0.8301  0.8765
  179MOL0     H23605   4.227   5.807   4.044 -0.5699 -1.5266  1.2430
  179MOL0     H23606   4.312   5.667   4.203 -2.1707  1.8865 -0.8021
  179MOL0     H23607   4.323   5.585   4.052 -0.6787  2.8355 -4.7430
  179MOL0     H23608   4.552   5.724   4.207  0.0573  0.2984  0.0923
  179MOL0     H23609   4.571   5.671   4.036 -1.6624 -0.7154 -1.4191
  179MOL0     H23610   4.642   6.462   3.750 -1.0965 -3.8695  0.1859
  179MOL0     H23611   4.824   6.627   3.785 -2.7897 -0.2088  1.5952
  179MOL0     H23612   5.113   6.888   4.116 -1.2896 -1.9797 -1.2957
  179MOL0     H23613   5.333   7.014   4.144  0.0872 -0.3251  0.6791
  179MOL0     H23614   6.905   7.425   3.137  0.8520 -0.5190 -2.7188
  179MOL0     H23615   7.123   7.378   3.075 -1.4101  0.1980 -1.0176
  179MOL0     H23616   7.678   7.430   3.266  0.5895 -2.6061 -0.4607
  179MOL0     H23617   7.875   7.391   3.149 -1.1098 -2.6333  0.0712
  179MOL0     H23618   7.984   7.609   2.852 -1.4773  0.9971  0.0642
  179MOL0     H23619   7.914   7.539   2.717 -0.1396  2.3052  0.6632
  179MOL0     H23620   8.174   7.427   2.837 -1.1412 -3.9910 -0.3678
  179MOL0     H23621   8.093   7.364   2.698 -2.8550  0.6350  0.1253
  179MOL0     H23622   8.194   7.649   2.693  3.7772 -0.6855  2.4401
  179MOL0     H23623   8.117   7.539   2.563 -2.0376 -2.9230  1.4941
  179MOL0     H23624   8.296   7.406   2.556  1.5627  0.2179 -0.7133
  179MOL0     H23625   8.362   7.566   2.533 -0.4109 -0.2657 -0.4948
  179MOL0     H23626   8.550   7.482   2.894  1.2662  1.4522 -0.8819
  179MOL0     H23627   7.706   7.454   2.773 -0.2579  0.2561 -0.6160
  179MOL0     H23628   7.470   7.500   2.878  0.1584 -3.8522 -1.3887
  180MOL0     O23629   1.881   0.131   3.167  0.1434 -0.3306  0.5496
  180MOL0     C23630   1.903   0.094   3.054  0.3016 -0.6655  0.6886
  180MOL0     O23631   1.804   0.083   2.956 -0.4774  0.3817 -0.0213
  180MOL0     C23632   1.673   0.135   2.962 -0.8196  0.8480 -0.8212
  180MOL0     C23633   1.562   0.073   2.906  0.1944 -0.6893  0.4924
  180MOL0     C23634   1.437   0.122   2.923 -0.2761 -0.0458 -0.2482
  180MOL0     C23635   1.409   0.243   2.996 -0.1958  1.0479  0.0673
  180MOL0     O23636   1.287   0.300   3.025  0.6670 -0.0120 -0.2202
  180MOL0     C23637   1.182   0.260   2.941  0.6755 -0.5344 -0.2776
  180MOL0     C23638   1.059   0.334   2.995 -0.5086 -0.1281  0.2249
  180MOL0     C23639   1.056   0.328   3.148 -0.2985 -0.5603 -0.4276
  180MOL0     C23640   0.922   0.344   3.213  0.3347 -0.3449 -1.0176
  180MOL0     C23641   0.931   0.360   3.369  0.1450  0.5671  0.2092
  180MOL0     C23642   0.798   0.362   3.437  0.3135 -0.9482 -0.1552
  180MOL0     C23643   0.801   0.395   3.593  0.5000 -0.4687  0.2998
  180MOL0     C23644   0.658   0.372   3.651 -0.6514  0.3564 -1.0557
  180MOL0     N23645   0.617   0.242   3.712  0.1549  0.1254  0.4949
  180MOL0     C23646   0.688   0.162   3.801 -0.1879  0.4220  0.3453
  180MOL0     C23647   0.608   0.059   3.829  0.0556  0.1900  0.0779
  180MOL0     C23648   0.644  -0.039   3.942 -0.1813  0.3506 -0.4449
  180MOL0     C23649   0.505  -0.110   3.981  0.5483 -0.2368  0.1026
  180MOL0     C23650   0.525  -0.203   4.100  0.5204 -0.2097 -0.7659
  180MOL0     C23651   0.391  -0.270   4.159 -0.8708 -0.2326  0.1545
  180MOL0     O23652   0.319  -0.178   4.248  0.0023 -0.4944  0.6982
  180MOL0     C23653   0.190  -0.206   4.282 -0.1921 -0.0828  0.2186
  180MOL0     C23654   0.108  -0.093   4.312  0.2639  0.0465 -0.3173
  180MOL0     C23655  -0.028  -0.103   4.336  0.0946  0.6005  0.9217
  180MOL0     C23656  -0.092  -0.233   4.340 -0.6221  0.2626  0.3884
  180MOL0     C23657  -0.236  -0.247   4.367 -0.2212  0.1440  0.4159
  180MOL0     O23658  -0.300  -0.131   4.361  0.6648 -0.0872  0.1184
  180MOL0     C23659  -0.436  -0.133   4.381  0.0907 -0.2066  0.0929
  180MOL0     C23660  -0.481  -0.135   4.513  0.1101 -0.0917  0.3274
  180MOL0     C23661  -0.618  -0.122   4.542 -0.2915 -0.4363 -0.1215
  180MOL0     C23662  -0.708  -0.103   4.430  0.0009  0.5505  0.0448
  180MOL0     O23663  -0.842  -0.082   4.432  0.0841  0.0572 -0.6694
  180MOL0     C23664  -0.884  -0.028   4.560  0.3275  0.0980 -0.0692
  180MOL0     C23665  -1.035   0.031   4.545 -0.4925  0.7551 -0.5255
  180MOL0     C23666  -1.145  -0.078   4.554 -0.1078  0.2563  0.3538
  180MOL0     C23667  -1.280  -0.011   4.557  0.8442  0.0658 -0.1500
  180MOL0     C23668  -1.400  -0.115   4.552  0.0127  0.6089 -0.0833
  180MOL0     C23669  -1.535  -0.041   4.580  0.4707  0.2338  0.0576
  180MOL0     C23670  -1.661  -0.132   4.535 -0.8218  0.4253 -0.6071
  180MOL0     C23671  -1.782  -0.044   4.544  0.0003  0.3326 -0.6152
  180MOL0    Cl23672  -1.819  -0.005   4.725 -0.5884  0.1249  0.3120
  180MOL0     C23673  -0.663  -0.101   4.303  0.2485 -0.2054  0.1296
  180MOL0     C23674  -0.523  -0.120   4.277 -0.3083  0.3086  0.2812
  180MOL0     O23675  -0.277  -0.359   4.371 -0.2507 -0.2217  0.0719
  180MOL0     C23676  -0.007  -0.345   4.308 -0.4749  0.2383 -0.5876
  180MOL0     C23677   0.133  -0.329   4.281  0.8510 -0.8223  0.3080
  180MOL0     N23678   0.498   0.065   3.753  0.7505 -0.1371  0.6933
  180MOL0     N23679   0.510   0.167   3.679  0.2830 -0.3199  0.3002
  180MOL0     C23680   1.524   0.301   3.054  0.0973 -0.1725 -0.0763
  180MOL0     C23681   1.647   0.239   3.046 -0.4823  0.5135  0.7653
  180MOL0     C23682   2.038   0.042   3.024 -0.2109  0.2048 -1.2396
  180MOL0     C23683   2.077  -0.001   2.891 -0.2446 -0.4930  0.2050
  180MOL0     C23684   2.201  -0.058   2.867  0.0011  0.2582 -0.3915
  180MOL0     C23685   2.300  -0.071   2.963  0.0939  0.5803 -0.3720
  180MOL0     O23686   2.419  -0.136   2.938 -0.3031  0.5249  0.0469
  180MOL0     C23687   2.532  -0.041   2.960  0.3787  0.3138 -0.1201
  180MOL0     C23688   2.660  -0.115   2.916 -0.0644 -0.1774  0.7780
  180MOL0     C23689   2.689  -0.133   2.765  0.9529  0.6917  0.0216
  180MOL0     C23690   2.822  -0.195   2.749 -0.2090  0.7609 -0.5733
  180MOL0     C23691   2.933  -0.106   2.770  0.3696 -0.7603  0.3005
  180MOL0     C23692   3.032  -0.039   2.769 -0.5451  1.1511  0.8836
  180MOL0     C23693   2.259  -0.037   3.095 -0.2869 -0.6062  0.7870
  180MOL0     C23694   2.139   0.029   3.125 -0.0826 -0.6331 -0.4046
  180MOL0     H23695   1.580  -0.010   2.839 -0.8592  0.1917 -0.9271
  180MOL0     H23696   1.359   0.066   2.874  0.5429 -0.2784 -1.3173
  180MOL0     H23697   1.173   0.152   2.950  1.7719 -0.4960  1.7974
  180MOL0     H23698   1.204   0.291   2.838  0.7773  0.0305 -0.0924
  180MOL0     H23699   0.972   0.276   2.963 -1.3071 -0.1944  2.3829
  180MOL0     H23700   1.057   0.440   2.966 -1.1370 -0.5325 -1.3085
  180MOL0     H23701   1.125   0.407   3.180  0.3220 -0.4884 -1.8462
  180MOL0     H23702   1.092   0.228   3.172  0.8396 -0.6331 -2.2278
  180MOL0     H23703   0.884   0.438   3.172  1.0280 -0.0107 -0.9163
  180MOL0     H23704   0.853   0.265   3.183  0.2552 -1.8033  2.5365
  180MOL0     H23705   0.986   0.452   3.392 -1.5249  2.2789 -2.1106
  180MOL0     H23706   0.981   0.271   3.409  0.3744  0.0746 -1.0996
  180MOL0     H23707   0.755   0.262   3.423  1.6197 -1.5231 -0.1848
  180MOL0     H23708   0.741   0.438   3.382 -0.2227 -2.1673 -1.3543
  180MOL0     H23709   0.867   0.327   3.648  1.7938 -0.9647 -1.7883
  180MOL0     H23710   0.842   0.492   3.622 -0.4379 -0.1114  0.4905
  180MOL0     H23711   0.590   0.389   3.567 -0.6770 -0.4255 -1.1989
  180MOL0     H23712   0.645   0.446   3.731  4.6133  1.4218 -0.8331
  180MOL0     H23713   0.781   0.194   3.846  1.8643 -3.2815 -0.9179
  180MOL0     H23714   0.680   0.021   4.026  1.5892 -0.8491 -0.3070
  180MOL0     H23715   0.728  -0.104   3.916  0.0145  0.4629 -0.1046
  180MOL0     H23716   0.480  -0.162   3.888  1.4612 -1.8604  0.7245
  180MOL0     H23717   0.415  -0.051   3.999 -0.8516 -2.6194  1.3103
  180MOL0     H23718   0.596  -0.278   4.064  1.7575  0.7577 -0.4150
  180MOL0     H23719   0.565  -0.136   4.177  1.1709 -0.9824 -0.4146
  180MOL0     H23720   0.414  -0.364   4.208 -1.1420  0.6067  1.9631
  180MOL0     H23721   0.326  -0.281   4.071  1.6869  0.7102 -2.0148
  180MOL0     H23722   0.152   0.005   4.324  0.5977 -0.2815  1.4445
  180MOL0     H23723  -0.089  -0.013   4.334  0.2530  0.7060 -0.2883
  180MOL0     H23724  -0.417  -0.132   4.601 -2.1271 -0.7119  2.0427
  180MOL0     H23725  -0.663  -0.127   4.640 -0.4065  1.6886 -0.0228
  180MOL0     H23726  -0.821   0.057   4.586  0.5054 -1.0257  3.7106
  180MOL0     H23727  -0.883  -0.109   4.633 -1.2957 -0.6221 -0.7826
  180MOL0     H23728  -1.056   0.089   4.455 -2.1618 -2.0412 -2.1006
  180MOL0     H23729  -1.044   0.099   4.630 -1.9019 -1.3370  1.1181
  180MOL0     H23730  -1.142  -0.141   4.643  1.7128  0.8520  0.7572
  180MOL0     H23731  -1.134  -0.146   4.469  2.3896  0.2445  0.5915
  180MOL0     H23732  -1.276   0.034   4.656 -1.4369 -1.8090  0.8627
  180MOL0     H23733  -1.290   0.058   4.472  4.7133 -1.3713 -2.0188
  180MOL0     H23734  -1.395  -0.192   4.630  1.4216  0.3273 -0.4279
  180MOL0     H23735  -1.402  -0.178   4.463  2.8890  0.5094 -0.1567
  180MOL0     H23736  -1.538   0.057   4.532 -2.8694  1.1266  1.7448
  180MOL0     H23737  -1.543  -0.021   4.687  3.5776  1.3451  0.1819
  180MOL0     H23738  -1.648  -0.168   4.432  0.2122 -0.8765 -0.0513
  180MOL0     H23739  -1.679  -0.205   4.615 -2.6557  2.5681  1.0557
  180MOL0     H23740  -1.859  -0.107   4.499  0.9464 -1.5431  0.2977
  180MOL0     H23741  -1.763   0.051   4.492  0.1314  1.5660  1.5362
  180MOL0     H23742  -0.725  -0.081   4.217  1.9717  2.1421 -0.6613
  180MOL0     H23743  -0.504  -0.106   4.171 -0.6787 -0.7466  0.0599
  180MOL0     H23744  -0.042  -0.447   4.291 -1.4459  0.5602 -0.5576
  180MOL0     H23745   0.196  -0.410   4.246 -1.3124 -1.7555 -1.7533
  180MOL0     H23746   1.505   0.393   3.108 -1.2127 -0.6069  0.2297
  180MOL0     H23747   1.726   0.297   3.092 -0.0269  0.8017 -0.3525
  180MOL0     H23748   2.014   0.021   2.806 -0.6946 -2.2685  0.0302
  180MOL0     H23749   2.213  -0.089   2.764 -3.3843  0.1147 -0.8424
  180MOL0     H23750   2.542  -0.017   3.066  2.2827 -1.7580  0.2261
  180MOL0     H23751   2.537   0.055   2.908  3.0265 -0.3799 -1.3431
  180MOL0     H23752   2.747  -0.060   2.953  0.4661 -0.6906  0.3151
  180MOL0     H23753   2.653  -0.220   2.947  1.6151 -1.5112 -2.7818
  180MOL0     H23754   2.664  -0.044   2.706 -1.0450  0.4209  0.3827
  180MOL0     H23755   2.621  -0.210   2.726 -0.5133 -0.4236  4.2523
  180MOL0     H23756   2.842  -0.264   2.831  0.8347  2.7640  0.9653
  180MOL0     H23757   2.837  -0.249   2.655  1.5429  0.2920 -0.0700
  180MOL0     H23758   3.122   0.018   2.784  0.9207 -1.1703  1.4912
  180MOL0     H23759   2.335  -0.058   3.169  1.3288 -2.5252 -1.2371
  180MOL0     H23760   2.126   0.055   3.230 -0.6129  3.6941 -1.3558
  181MOL0     O23761   9.250  10.990   0.101  0.1787  0.4434 -0.2488
  181MOL0     C23762   9.311  10.918   0.187  0.4998 -1.1445  0.8802
  181MOL0     O23763   9.248  10.833   0.268  0.4818  0.9828 -0.2049
  181MOL0     C23764   9.115  10.799   0.252 -0.5085  0.3351  0.2684
  181MOL0     C23765   9.038  10.787   0.369  0.1091 -0.3507  0.1770
  181MOL0     C23766   8.901  10.754   0.360 -0.0052 -0.3827  0.0517
  181MOL0     C23767   8.836  10.739   0.232 -0.9121  0.5036  0.1875
  181MOL0     O23768   8.693  10.755   0.229  0.6312  0.2655 -0.6327
  181MOL0     C23769   8.604  10.712   0.113  0.1185  0.3061 -0.0704
  181MOL0     C23770   8.565  10.561   0.127  0.6152 -0.0458 -0.7457
  181MOL0     C23771   8.476  10.528   0.257 -0.2293  0.2479 -0.0740
  181MOL0     C23772   8.344  10.605   0.267 -0.0971  0.7788 -0.5266
  181MOL0     C23773   8.256  10.549   0.381  0.0665 -0.1592  0.2918
  181MOL0     C23774   8.128  10.622   0.403  0.3340  0.5323 -0.0351
  181MOL0     C23775   8.038  10.598   0.281 -0.0797 -0.3330 -0.6592
  181MOL0     C23776   7.907  10.680   0.296  0.0522  0.4606  0.5258
  181MOL0     N23777   7.829  10.675   0.172 -0.3959  0.8823  0.2750
  181MOL0     C23778   7.779  10.561   0.110 -0.4841 -0.2872  0.4369
  181MOL0     C23779   7.716  10.605   0.005  0.5883 -0.5267  0.2131
  181MOL0     C23780   7.654  10.515  -0.097 -0.4630  0.2592  0.2910
  181MOL0     C23781   7.504  10.522  -0.116 -0.8094 -0.2578 -0.1993
  181MOL0     C23782   7.459  10.661  -0.145 -0.7025 -1.4639 -0.5785
  181MOL0     C23783   7.331  10.665  -0.216  0.4713 -0.6729  0.1579
  181MOL0     O23784   7.228  10.632  -0.121  0.6035 -0.4244 -0.3344
  181MOL0     C23785   7.096  10.646  -0.165  0.0973  0.1170 -0.8843
  181MOL0     C23786   6.998  10.590  -0.084 -0.0267 -0.1193  0.1955
  181MOL0     C23787   6.861  10.608  -0.108 -0.4684  0.4691  0.4855
  181MOL0     C23788   6.818  10.656  -0.230 -0.2780 -0.2256  0.0658
  181MOL0     C23789   6.679  10.678  -0.275  0.6230  0.2236  0.2253
  181MOL0     O23790   6.654  10.727  -0.396 -0.5547 -0.8785 -0.5525
  181MOL0     C23791   6.537  10.679  -0.451  0.1422 -0.0518  0.3947
  181MOL0     C23792   6.423  10.749  -0.423 -0.4053 -0.7155  0.3095
  181MOL0     C23793   6.301  10.705  -0.483  0.9428  0.3955 -0.1670
  181MOL0     C23794   6.302  10.586  -0.562  0.0905 -0.6589  0.6130
  181MOL0     O23795   6.196  10.524  -0.623 -0.6068 -0.5398  0.0791
  181MOL0     C23796   6.072  10.585  -0.648  0.7848  0.3275 -0.4951
  181MOL0     C23797   5.971  10.481  -0.697 -0.1096  0.1834 -0.9817
  181MOL0     C23798   5.831  10.541  -0.723 -0.8463  0.3518  0.3661
  181MOL0     C23799   5.815  10.616  -0.843 -0.5218  0.6186  0.2224
  181MOL0     C23800   5.674  10.674  -0.879 -0.1802 -0.1128  0.1826
  181MOL0     C23801   5.588  10.565  -0.939  0.0251  0.0883  0.0505
  181MOL0     C23802   5.448  10.616  -0.971 -0.9969 -0.1778 -0.1526
  181MOL0     C23803   5.373  10.498  -1.004  1.1712  1.1040  0.2874
  181MOL0    Cl23804   5.216  10.539  -1.096  0.3743 -0.4989 -0.0949
  181MOL0     C23805   6.421  10.521  -0.600 -0.6599 -0.0005  0.2671
  181MOL0     C23806   6.540  10.571  -0.539  0.6138  1.0565  0.2383
  181MOL0     O23807   6.589  10.659  -0.191  0.3422  0.3437  0.2171
  181MOL0     C23808   6.917  10.709  -0.311  0.6962  0.2019  0.2280
  181MOL0     C23809   7.049  10.703  -0.283  0.1604  0.3941  0.0731
  181MOL0     N23810   7.730  10.741  -0.009  0.2208 -0.1335  0.0717
  181MOL0     N23811   7.799  10.788   0.095  0.7396  0.2797  0.5959
  181MOL0     C23812   8.922  10.739   0.115 -0.5153  0.6963  0.1274
  181MOL0     C23813   9.060  10.758   0.132  0.0145 -0.2290 -0.5523
  181MOL0     C23814   9.461  10.935   0.195 -0.7521  0.6565  0.1250
  181MOL0     C23815   9.519  11.051   0.135  0.5783  0.2031 -0.2145
  181MOL0     C23816   9.650  11.085   0.148 -0.1735 -0.4631 -0.7183
  181MOL0     C23817   9.732  11.015   0.235 -0.1016  1.1853  0.3267
  181MOL0     O23818   9.865  11.048   0.237 -0.0307  0.3453  0.2329
  181MOL0     C23819   9.951  10.981   0.337  0.9666 -0.5296 -0.4921
  181MOL0     C23820  10.081  11.066   0.364 -0.3969  0.6422  0.0368
  181MOL0     C23821  10.158  11.000   0.491  0.5594  0.1145  0.2625
  181MOL0     C23822  10.294  11.059   0.508  0.0011  0.6419  0.0841
  181MOL0     C23823  10.375  11.001   0.621 -0.5775 -0.7999  0.3423
  181MOL0     C23824  10.437  10.948   0.704  0.6246  0.3738 -0.6805
  181MOL0     C23825   9.676  10.902   0.306 -0.8093 -0.6174  0.2874
  181MOL0     C23826   9.548  10.869   0.282  0.8294 -0.5549 -0.0217
  181MOL0     H23827   9.076  10.814   0.467 -0.8460 -0.7044  0.6679
  181MOL0     H23828   8.826  10.766   0.438  0.4820  2.6125  0.1803
  181MOL0     H23829   8.655  10.732   0.019  3.9128 -2.3102  1.1937
  181MOL0     H23830   8.511  10.770   0.124  1.4370  2.4901  0.2587
  181MOL0     H23831   8.656  10.503   0.145 -0.3427 -0.6596  3.2724
  181MOL0     H23832   8.513  10.528   0.036  1.0587 -3.8170  0.1702
  181MOL0     H23833   8.524  10.569   0.347 -2.2974  2.4107  0.1598
  181MOL0     H23834   8.458  10.421   0.264 -1.4928  0.3159 -1.6778
  181MOL0     H23835   8.363  10.710   0.293  0.8528  1.5453 -3.8200
  181MOL0     H23836   8.297  10.594   0.169  0.9393  0.1713 -0.9711
  181MOL0     H23837   8.323  10.573   0.465  2.2109 -1.5555 -0.9111
  181MOL0     H23838   8.246  10.440   0.369  1.1523 -0.6850  3.2438
  181MOL0     H23839   8.142  10.728   0.422  0.2142  0.9315 -1.9075
  181MOL0     H23840   8.083  10.593   0.498  1.4798 -0.4568  0.2336
  181MOL0     H23841   8.083  10.640   0.191  3.5574  2.3508  2.1141
  181MOL0     H23842   8.015  10.492   0.271  1.5045 -0.6528 -1.1227
  181MOL0     H23843   7.931  10.786   0.301  0.0433  0.5898 -1.6402
  181MOL0     H23844   7.852  10.649   0.386  0.2986  2.5286  1.4348
  181MOL0     H23845   7.799  10.458   0.136 -0.7165 -0.9257 -1.6848
  181MOL0     H23846   7.674  10.417  -0.052 -0.0395  0.7813  1.2593
  181MOL0     H23847   7.706  10.512  -0.194  0.7414  1.6295  0.8736
  181MOL0     H23848   7.454  10.492  -0.023  1.0335  1.3629  1.3863
  181MOL0     H23849   7.469  10.451  -0.192 -0.5234  0.4720 -1.0247
  181MOL0     H23850   7.460  10.720  -0.053 -0.1746 -0.6301 -1.1021
  181MOL0     H23851   7.539  10.705  -0.205 -0.1595  0.1911  1.2312
  181MOL0     H23852   7.324  10.600  -0.304 -3.4336  0.8345 -0.8403
  181MOL0     H23853   7.320  10.769  -0.246 -0.6580 -0.8122  0.0422
  181MOL0     H23854   7.024  10.550   0.014  0.9062  0.9796  0.4182
  181MOL0     H23855   6.795  10.584  -0.025 -0.6096 -0.3564  0.1355
  181MOL0     H23856   6.423  10.837  -0.360  0.3077 -0.7000  0.2908
  181MOL0     H23857   6.213  10.762  -0.456 -0.6181 -1.3180 -1.4371
  181MOL0     H23858   6.074  10.657  -0.731  1.0786  0.8459 -0.0433
  181MOL0     H23859   6.027  10.629  -0.559 -0.4741  0.1397 -1.0073
  181MOL0     H23860   5.974  10.418  -0.607  1.5184 -1.5294 -2.1709
  181MOL0     H23861   6.007  10.423  -0.782  0.2999  0.6465 -1.1292
  181MOL0     H23862   5.796  10.608  -0.643  3.3090  1.7242  1.2608
  181MOL0     H23863   5.763  10.455  -0.721  1.1768 -1.3872 -1.2320
  181MOL0     H23864   5.879  10.704  -0.830  1.7907 -0.9247 -0.1981
  181MOL0     H23865   5.859  10.553  -0.921  0.8295 -1.6118  2.6198
  181MOL0     H23866   5.684  10.745  -0.961  1.6388 -0.9071 -0.3184
  181MOL0     H23867   5.632  10.733  -0.796 -1.3065  2.3606 -1.9974
  181MOL0     H23868   5.594  10.474  -0.879 -0.9822 -1.3723 -1.9292
  181MOL0     H23869   5.645  10.546  -1.030  1.9629 -0.3193  1.2856
  181MOL0     H23870   5.399  10.670  -0.890 -2.1622  0.6601 -1.3669
  181MOL0     H23871   5.459  10.682  -1.058 -1.3158 -2.5530 -2.1399
  181MOL0     H23872   5.345  10.426  -0.927  1.8338 -3.1545 -3.0632
  181MOL0     H23873   5.432  10.440  -1.075 -2.1136 -1.0424 -0.9626
  181MOL0     H23874   6.425  10.440  -0.672 -2.7130 -0.9231  1.0973
  181MOL0     H23875   6.638  10.525  -0.551 -0.6247 -2.1209  1.3801
  181MOL0     H23876   6.901  10.762  -0.404  2.0578 -2.6324 -1.7947
  181MOL0     H23877   7.128  10.743  -0.345  0.9644  1.6657  1.8210
  181MOL0     H23878   8.880  10.739   0.015  0.5274 -0.8604 -0.3454
  181MOL0     H23879   9.128  10.767   0.048  1.2104 -0.2136  0.3882
  181MOL0     H23880   9.452  11.118   0.081 -2.1152 -0.5573  1.9380
  181MOL0     H23881   9.687  11.177   0.104 -0.4059  1.1598  2.2052
  181MOL0     H23882   9.950  10.879   0.298  0.3128  0.7881 -4.3281
  181MOL0     H23883   9.899  10.979   0.434 -2.3534 -2.4486 -2.1060
  181MOL0     H23884  10.140  11.067   0.272 -1.7530 -2.7345 -1.0354
  181MOL0     H23885  10.052  11.167   0.395 -2.0678  0.2264 -0.0564
  181MOL0     H23886  10.171  10.894   0.465  0.9329  0.3247 -0.4261
  181MOL0     H23887  10.102  11.014   0.584  1.1343 -0.9894  0.7928
  181MOL0     H23888  10.353  11.036   0.419 -0.4337 -2.8810  0.5645
  181MOL0     H23889  10.286  11.168   0.512  1.8207  0.8459 -0.8181
  181MOL0     H23890  10.494  10.892   0.776 -1.4715 -3.0707 -1.4555
  181MOL0     H23891   9.719  10.837   0.381 -1.8592 -1.7802 -0.0790
  181MOL0     H23892   9.502  10.793   0.345 -0.9631 -0.3079 -0.9748
  182MOL0     O23893   8.620   8.315   6.255  0.2407 -0.6295  0.2299
  182MOL0     C23894   8.635   8.433   6.219  0.3736 -0.1356  0.6826
  182MOL0     O23895   8.532   8.525   6.191  0.3138 -0.0432 -0.5208
  182MOL0     C23896   8.407   8.473   6.215  0.5896 -0.4253 -0.6397
  182MOL0     C23897   8.350   8.438   6.338 -0.4597 -0.1585  0.7669
  182MOL0     C23898   8.227   8.380   6.353  0.6802  0.6000 -0.1466
  182MOL0     C23899   8.153   8.369   6.232  0.9075  0.4671 -0.7531
  182MOL0     O23900   8.022   8.318   6.235  0.0432 -0.0135 -0.4278
  182MOL0     C23901   7.946   8.377   6.339 -0.2833  0.2738 -0.0469
  182MOL0     C23902   7.808   8.386   6.289  0.6264 -0.2110 -0.5746
  182MOL0     C23903   7.721   8.467   6.385 -0.2164  0.5507 -0.1659
  182MOL0     C23904   7.578   8.466   6.338 -0.8623  0.4628 -0.9400
  182MOL0     C23905   7.484   8.536   6.442  0.3291  0.2378 -0.3995
  182MOL0     C23906   7.493   8.685   6.441  0.4527  0.2301 -0.3465
  182MOL0     C23907   7.395   8.760   6.529 -0.8456  0.5880 -0.4470
  182MOL0     C23908   7.422   8.911   6.511 -0.1205  0.4926  0.4671
  182MOL0     N23909   7.320   8.998   6.576 -0.6262 -1.0261 -0.3935
  182MOL0     C23910   7.193   9.000   6.536 -0.5359 -1.7425  0.7603
  182MOL0     C23911   7.129   9.073   6.627  1.2328 -0.1110 -0.4419
  182MOL0     C23912   6.984   9.096   6.613 -0.4104  0.1845 -0.4220
  182MOL0     C23913   6.904   8.987   6.686  0.1791 -0.1917 -0.2936
  182MOL0     C23914   6.916   8.852   6.605 -0.8900 -0.2667 -0.1286
  182MOL0     C23915   6.812   8.748   6.641 -0.6633  0.3828 -0.3196
  182MOL0     O23916   6.679   8.802   6.616  0.5656 -0.0351 -0.3492
  182MOL0     C23917   6.573   8.720   6.626  1.5490 -0.3166 -0.8909
  182MOL0     C23918   6.569   8.596   6.697 -0.2183  0.2753  0.4637
  182MOL0     C23919   6.448   8.526   6.713  0.1632 -0.0953 -0.3985
  182MOL0     C23920   6.330   8.569   6.657  0.4377  0.4551  0.1225
  182MOL0     C23921   6.212   8.482   6.656 -0.8267 -0.4179  0.7954
  182MOL0     O23922   6.103   8.542   6.591  0.1941  0.5011 -0.0503
  182MOL0     C23923   5.982   8.475   6.589 -0.0256 -0.3437 -0.1827
  182MOL0     C23924   5.859   8.541   6.621 -0.3519 -0.4933  1.4825
  182MOL0     C23925   5.744   8.475   6.616  0.1013  0.0973 -0.8546
  182MOL0     C23926   5.728   8.345   6.564 -1.1787 -0.8752  0.1406
  182MOL0     O23927   5.615   8.274   6.534  0.0617 -0.4559 -0.0348
  182MOL0     C23928   5.497   8.321   6.603  1.0181  0.5501  0.2828
  182MOL0     C23929   5.384   8.225   6.587 -0.6098  0.1570 -0.5980
  182MOL0     C23930   5.250   8.291   6.626 -0.3127  0.3068 -0.6144
  182MOL0     C23931   5.140   8.197   6.578  0.2856 -0.1706  0.7182
  182MOL0     C23932   5.000   8.234   6.630 -0.1791  0.1568 -0.0534
  182MOL0     C23933   4.888   8.141   6.570 -0.3694  0.2859  1.0267
  182MOL0     C23934   4.774   8.145   6.675 -0.4705 -0.1195  0.2005
  182MOL0     C23935   4.659   8.061   6.628  0.3507  0.5707 -0.0484
  182MOL0    Cl23936   4.708   7.884   6.616 -0.5317 -0.4059  0.1665
  182MOL0     C23937   5.846   8.285   6.516 -0.2536  0.7109 -0.2244
  182MOL0     C23938   5.969   8.349   6.539 -0.4279  0.1822  0.6591
  182MOL0     O23939   6.224   8.369   6.699  0.2417  0.1020  0.1533
  182MOL0     C23940   6.334   8.694   6.593  0.3693 -0.1047 -0.9208
  182MOL0     C23941   6.454   8.766   6.579  0.0249 -0.1379  0.3800
  182MOL0     N23942   7.214   9.120   6.722  0.4345  0.2283 -0.2304
  182MOL0     N23943   7.326   9.058   6.702 -0.0017  0.5933 -0.4363
  182MOL0     C23944   8.200   8.409   6.103  0.0234 -0.4668 -0.6681
  182MOL0     C23945   8.328   8.459   6.100 -0.0201  0.2324 -0.1739
  182MOL0     C23946   8.778   8.475   6.197  0.2790 -0.2878 -0.1653
  182MOL0     C23947   8.883   8.381   6.201 -0.3424  0.0003  0.1584
  182MOL0     C23948   9.017   8.427   6.169  0.0260 -0.7483 -0.3833
  182MOL0     C23949   9.042   8.561   6.120 -0.0460 -0.2614 -0.4261
  182MOL0     O23950   9.167   8.612   6.086  0.3152  0.3218 -0.0281
  182MOL0     C23951   9.283   8.531   6.100 -0.9034 -0.0848 -0.4534
  182MOL0     C23952   9.385   8.585   5.988  0.8176  0.2080 -0.2413
  182MOL0     C23953   9.520   8.522   6.005  0.2341  0.0858  0.5629
  182MOL0     C23954   9.591   8.556   6.145  0.1057  0.4164  0.0321
  182MOL0     C23955   9.729   8.599   6.131  1.0248 -0.1319  0.7379
  182MOL0     C23956   9.842   8.624   6.119 -0.3936  0.1046 -0.0243
  182MOL0     C23957   8.931   8.640   6.107  1.0233 -0.2348  0.8245
  182MOL0     C23958   8.810   8.605   6.149  0.5071 -0.6196 -0.3654
  182MOL0     H23959   8.411   8.456   6.426 -2.4210 -2.6022  2.7852
  182MOL0     H23960   8.202   8.347   6.454 -0.0581 -2.9778 -1.3620
  182MOL0     H23961   7.982   8.478   6.358  2.0788 -0.5485  0.0793
  182MOL0     H23962   7.956   8.313   6.428 -0.8107 -2.9440 -2.1341
  182MOL0     H23963   7.764   8.287   6.273 -0.4791  0.1062  0.3786
  182MOL0     H23964   7.812   8.427   6.187  1.7757 -2.5080 -1.5543
  182MOL0     H23965   7.770   8.564   6.399  2.3073 -0.2514 -2.5290
  182MOL0     H23966   7.734   8.414   6.479 -0.9777 -1.6144 -1.2146
  182MOL0     H23967   7.576   8.524   6.246  0.6686  3.0681  0.5576
  182MOL0     H23968   7.552   8.359   6.341  0.9446 -0.1204  4.0490
  182MOL0     H23969   7.504   8.493   6.541 -2.9176 -2.7839 -0.8712
  182MOL0     H23970   7.379   8.517   6.421  0.5406 -2.2614  0.4964
  182MOL0     H23971   7.486   8.729   6.341  1.3750  2.4332  0.5000
  182MOL0     H23972   7.590   8.698   6.489  2.2468 -1.1738 -3.2937
  182MOL0     H23973   7.296   8.732   6.492  0.2350  0.2627 -3.3671
  182MOL0     H23974   7.413   8.736   6.634  0.8404 -0.2779 -0.8999
  182MOL0     H23975   7.421   8.939   6.406  1.3461  1.2686  0.6458
  182MOL0     H23976   7.513   8.951   6.557 -0.3358  0.0151  1.3328
  182MOL0     H23977   7.148   8.952   6.450  1.2000  0.0467 -1.2863
  182MOL0     H23978   6.958   9.099   6.507  0.4128 -0.5456 -0.6480
  182MOL0     H23979   6.953   9.185   6.669 -2.3811  0.2656 -1.5466
  182MOL0     H23980   6.798   9.013   6.689  0.3264  0.6647 -1.7079
  182MOL0     H23981   6.946   8.977   6.787  4.5121 -0.2084 -1.8812
  182MOL0     H23982   6.892   8.878   6.502  0.6055  1.1525 -0.1687
  182MOL0     H23983   7.016   8.812   6.623 -2.0160 -2.4358  1.9731
  182MOL0     H23984   6.814   8.717   6.746 -2.2632  0.1777 -0.3175
  182MOL0     H23985   6.840   8.664   6.577  1.4482  1.2691 -0.6194
  182MOL0     H23986   6.657   8.555   6.745 -0.5065  0.6786  1.3635
  182MOL0     H23987   6.449   8.430   6.764 -1.0399  0.3464  0.5210
  182MOL0     H23988   5.858   8.634   6.676 -3.1302  0.9430 -0.7212
  182MOL0     H23989   5.660   8.527   6.660  1.3662  2.1181 -0.7191
  182MOL0     H23990   5.468   8.419   6.564  0.6795  0.1635 -0.4662
  182MOL0     H23991   5.526   8.325   6.708 -0.1663 -1.6141  0.7429
  182MOL0     H23992   5.396   8.134   6.646 -2.5219 -0.5739 -1.2524
  182MOL0     H23993   5.384   8.195   6.482 -0.6650 -1.4630 -0.1617
  182MOL0     H23994   5.253   8.382   6.566  1.0984  0.9646  0.3913
  182MOL0     H23995   5.253   8.314   6.733 -0.2570 -0.7959 -0.3693
  182MOL0     H23996   5.128   8.215   6.471 -1.5393  1.1250  1.0818
  182MOL0     H23997   5.166   8.092   6.596  2.8776 -0.1878 -2.2742
  182MOL0     H23998   4.979   8.338   6.607  0.5986  1.0127  2.6435
  182MOL0     H23999   5.003   8.228   6.740  0.2992  0.8237 -0.0219
  182MOL0     H24000   4.935   8.042   6.561 -0.0519  0.5782 -0.8352
  182MOL0     H24001   4.859   8.178   6.472 -1.3585  2.1477  1.9731
  182MOL0     H24002   4.814   8.105   6.769  1.6130  0.4130 -0.4057
  182MOL0     H24003   4.733   8.246   6.681 -1.0903 -0.4020  0.8534
  182MOL0     H24004   4.620   8.094   6.531  1.7484 -0.8803 -1.1588
  182MOL0     H24005   4.573   8.070   6.695  1.1778  0.8948  0.9816
  182MOL0     H24006   5.830   8.194   6.460 -4.5011 -0.2708  2.1344
  182MOL0     H24007   6.063   8.303   6.509 -1.2444 -1.1600  0.0611
  182MOL0     H24008   6.244   8.735   6.548  0.4153 -0.8634 -1.7461
  182MOL0     H24009   6.461   8.869   6.546 -3.0370 -0.4208 -1.6438
  182MOL0     H24010   8.138   8.420   6.015  1.3536  0.9210 -1.4727
  182MOL0     H24011   8.366   8.487   6.002 -1.2714  1.7516 -0.2803
  182MOL0     H24012   8.870   8.281   6.243 -1.0538  0.3010  0.6760
  182MOL0     H24013   9.097   8.354   6.182  0.2347 -0.9090 -2.1862
  182MOL0     H24014   9.263   8.424   6.086 -1.2877 -0.1993  0.8770
  182MOL0     H24015   9.323   8.547   6.201  1.2870 -0.8137 -1.1425
  182MOL0     H24016   9.348   8.541   5.895  2.0044 -0.8193 -0.2496
  182MOL0     H24017   9.380   8.694   5.981 -1.3894  0.0746 -1.9904
  182MOL0     H24018   9.593   8.562   5.933  0.3344 -1.2754 -0.1109
  182MOL0     H24019   9.505   8.415   5.992 -1.5974 -0.0720  3.2846
  182MOL0     H24020   9.545   8.634   6.206 -1.4241  0.3756 -1.0279
  182MOL0     H24021   9.595   8.467   6.209  1.7877  1.2952  1.2276
  182MOL0     H24022   9.946   8.651   6.115  0.0995 -0.7441  3.5755
  182MOL0     H24023   8.957   8.733   6.057 -0.8884  0.6390  1.3600
  182MOL0     H24024   8.732   8.682   6.152  0.7119 -0.4263  0.4298
  183MOL0     O24025   5.524   5.620   3.174 -0.0805  0.0649  0.0896
  183MOL0     C24026   5.574   5.682   3.078  0.2000  0.1051 -0.0094
  183MOL0     O24027   5.500   5.765   2.997  0.4426  0.0694  0.0642
  183MOL0     C24028   5.364   5.766   3.011  0.5808 -0.8898 -0.5773
  183MOL0     C24029   5.278   5.715   2.911  0.1195 -0.0671 -0.7922
  183MOL0     C24030   5.142   5.738   2.921 -0.3594 -0.4702  0.5696
  183MOL0     C24031   5.081   5.816   3.022 -0.2953 -0.3700 -0.6461
  183MOL0     O24032   4.945   5.845   3.038 -0.1682  0.1173 -1.1031
  183MOL0     C24033   4.857   5.783   2.943  0.7790  0.1565  0.2427
  183MOL0     C24034   4.723   5.844   2.946  0.4834 -0.1751 -0.9332
  183MOL0     C24035   4.659   5.808   3.082  0.1977  0.3689 -0.5818
  183MOL0     C24036   4.537   5.889   3.116  1.4283 -0.0469 -0.4561
  183MOL0     C24037   4.482   5.863   3.264 -0.0141 -0.1709  0.7871
  183MOL0     C24038   4.426   5.724   3.275 -0.0208  0.0300  0.2025
  183MOL0     C24039   4.319   5.716   3.387  0.3406  0.1733 -0.0672
  183MOL0     C24040   4.393   5.719   3.520 -0.0569 -0.0579  1.0711
  183MOL0     N24041   4.300   5.693   3.626 -0.0513 -0.4519 -0.2630
  183MOL0     C24042   4.183   5.772   3.650 -0.1165  0.8512  0.3170
  183MOL0     C24043   4.125   5.693   3.745 -0.4611 -0.4784  0.6264
  183MOL0     C24044   3.988   5.726   3.789  0.7204  0.3414 -0.0096
  183MOL0     C24045   3.973   5.868   3.838  0.2814  0.1405  0.2251
  183MOL0     C24046   3.825   5.899   3.885 -0.6669 -0.5305 -0.0338
  183MOL0     C24047   3.816   6.053   3.935  0.1060  0.2067  0.8844
  183MOL0     O24048   3.690   6.112   3.895  0.9605 -0.0423  0.1612
  183MOL0     C24049   3.588   6.089   3.985  1.3420 -0.2905  0.4684
  183MOL0     C24050   3.567   6.168   4.102 -0.2416 -0.1147  0.2205
  183MOL0     C24051   3.459   6.142   4.187 -0.0459  1.2967  0.2707
  183MOL0     C24052   3.375   6.028   4.170 -0.4758  0.5010  0.2588
  183MOL0     C24053   3.256   6.001   4.248 -0.6487 -0.1363  0.9896
  183MOL0     O24054   3.163   5.915   4.186 -0.2601 -0.5141  0.5100
  183MOL0     C24055   3.034   5.886   4.228 -0.2930 -0.4087  0.1678
  183MOL0     C24056   2.938   5.872   4.128 -0.4802  0.0927  0.1310
  183MOL0     C24057   2.810   5.833   4.171  0.8547 -0.1528  0.2185
  183MOL0     C24058   2.768   5.820   4.303  0.2648  0.0619 -0.1043
  183MOL0     O24059   2.635   5.783   4.323 -0.1647 -0.2937  0.8101
  183MOL0     C24060   2.587   5.777   4.456 -0.1431 -0.2583 -0.5972
  183MOL0     C24061   2.440   5.755   4.462  0.6744 -0.0744 -0.4796
  183MOL0     C24062   2.387   5.770   4.608  0.0616 -0.5957 -0.0498
  183MOL0     C24063   2.242   5.709   4.614  0.2588  0.1847 -0.5234
  183MOL0     C24064   2.164   5.753   4.738  0.1662 -0.3109  0.1037
  183MOL0     C24065   2.025   5.694   4.754  1.0935  0.0062  0.6739
  183MOL0     C24066   1.976   5.739   4.893 -1.0898 -0.3630  0.5578
  183MOL0     C24067   1.830   5.722   4.913  0.3015  0.4585  0.2195
  183MOL0    Cl24068   1.732   5.849   4.828  0.0685 -0.2536  0.0975
  183MOL0     C24069   2.868   5.845   4.402 -0.2806 -0.4466  0.2835
  183MOL0     C24070   3.002   5.868   4.365  0.3779  0.6662  0.7751
  183MOL0     O24071   3.235   6.074   4.344  0.0816 -0.0209 -0.0097
  183MOL0     C24072   3.400   5.945   4.061 -0.1455  0.4098  0.7791
  183MOL0     C24073   3.500   5.982   3.967 -0.5223  0.6054 -0.9911
  183MOL0     N24074   4.201   5.579   3.781  0.3362 -0.2788 -0.0829
  183MOL0     N24075   4.309   5.584   3.711  0.2165  0.1586 -1.0479
  183MOL0     C24076   5.169   5.861   3.122  0.4532 -0.5621  0.3810
  183MOL0     C24077   5.308   5.836   3.120 -0.1006 -0.2754  0.3940
  183MOL0     C24078   5.720   5.669   3.061 -0.3093 -0.4095  0.1863
  183MOL0     C24079   5.806   5.599   3.155 -0.3222 -0.4725  0.3067
  183MOL0     C24080   5.945   5.592   3.139  0.4008  0.0764  0.6795
  183MOL0     C24081   6.006   5.650   3.028 -0.6257 -0.0399  0.6763
  183MOL0     O24082   6.144   5.637   3.015  0.5990 -0.0979 -0.2424
  183MOL0     C24083   6.194   5.596   2.889  0.0440 -0.9100 -0.6276
  183MOL0     C24084   6.225   5.446   2.906  0.4407  0.6066  0.4127
  183MOL0     C24085   6.105   5.347   2.940 -0.3255 -0.8528 -0.3271
  183MOL0     C24086   5.996   5.341   2.833 -0.5609 -0.6791 -0.5506
  183MOL0     C24087   5.907   5.238   2.866 -0.2402  0.6002  0.2902
  183MOL0     C24088   5.827   5.150   2.904  0.0915  0.4430  0.4740
  183MOL0     C24089   5.919   5.709   2.931  0.1187 -0.3257  0.0359
  183MOL0     C24090   5.785   5.723   2.949 -0.2168 -0.0859  0.1008
  183MOL0     H24091   5.327   5.665   2.828  0.5439 -0.3367 -0.3890
  183MOL0     H24092   5.071   5.699   2.848 -0.7992 -2.1590  1.8470
  183MOL0     H24093   4.856   5.674   2.956  2.2674  0.0127 -0.5940
  183MOL0     H24094   4.895   5.795   2.841  1.7628 -1.4452  0.3871
  183MOL0     H24095   4.656   5.801   2.871 -1.3617 -0.6490  0.8840
  183MOL0     H24096   4.729   5.952   2.929  1.1286  0.1889  1.3450
  183MOL0     H24097   4.737   5.823   3.157 -0.1052 -2.6723  0.4749
  183MOL0     H24098   4.630   5.703   3.073 -0.8597  0.7839 -2.7780
  183MOL0     H24099   4.550   5.997   3.109  1.4499  0.2331  2.5736
  183MOL0     H24100   4.455   5.854   3.053 -1.1265  4.2324  0.0800
  183MOL0     H24101   4.403   5.934   3.288  1.8296  2.7128 -0.9983
  183MOL0     H24102   4.565   5.878   3.334  1.2100  1.0170 -0.8208
  183MOL0     H24103   4.510   5.658   3.299  0.0511  0.2081  0.4458
  183MOL0     H24104   4.372   5.695   3.185  0.0629 -0.9628  0.4556
  183MOL0     H24105   4.259   5.806   3.374  0.8492  0.6341  0.6944
  183MOL0     H24106   4.260   5.624   3.378 -0.8536  0.6509  2.2469
  183MOL0     H24107   4.441   5.812   3.550  2.1483 -1.3121  1.6269
  183MOL0     H24108   4.475   5.648   3.509  1.2532  1.5741 -0.3722
  183MOL0     H24109   4.149   5.864   3.605  1.5890  0.6486 -1.5462
  183MOL0     H24110   3.956   5.651   3.862  3.8943 -3.3968 -2.0232
  183MOL0     H24111   3.922   5.703   3.705  0.2720  0.1078  0.4022
  183MOL0     H24112   3.989   5.936   3.754 -0.7188 -0.4764 -0.4889
  183MOL0     H24113   4.045   5.878   3.920  1.7174  2.5969 -1.2309
  183MOL0     H24114   3.748   5.875   3.811 -0.6336 -1.1656  0.1389
  183MOL0     H24115   3.787   5.835   3.964 -4.4548  1.4165 -0.0371
  183MOL0     H24116   3.896   6.108   3.885  0.6375 -0.9407  0.4174
  183MOL0     H24117   3.839   6.055   4.042  0.1923  0.0977  0.8686
  183MOL0     H24118   3.643   6.245   4.111 -0.5964  0.1114  1.5248
  183MOL0     H24119   3.462   6.198   4.280  1.8909  0.4460  0.7802
  183MOL0     H24120   2.974   5.882   4.026  2.7737  2.4565  1.3276
  183MOL0     H24121   2.731   5.829   4.097  0.7337  1.4433  0.2118
  183MOL0     H24122   2.619   5.864   4.515  2.4930 -2.3883  1.4098
  183MOL0     H24123   2.638   5.692   4.503  1.1592 -0.1655 -1.7697
  183MOL0     H24124   2.409   5.659   4.420 -2.3678  1.0439 -1.0046
  183MOL0     H24125   2.390   5.836   4.408 -1.0465  0.5838  1.9696
  183MOL0     H24126   2.391   5.875   4.637  2.2766 -1.0574  1.5693
  183MOL0     H24127   2.464   5.724   4.671  2.4604  0.2814 -2.1694
  183MOL0     H24128   2.185   5.745   4.528  1.0698 -1.0819 -1.6272
  183MOL0     H24129   2.241   5.600   4.615 -4.5258 -0.0038 -0.3684
  183MOL0     H24130   2.164   5.862   4.733  1.3838 -0.2625  0.7680
  183MOL0     H24131   2.226   5.717   4.821 -3.3695  1.5052  3.8698
  183MOL0     H24132   2.033   5.585   4.744  1.8917  0.2081 -1.4250
  183MOL0     H24133   1.965   5.738   4.674  0.4396  1.0255  1.6905
  183MOL0     H24134   2.022   5.675   4.969 -2.7011 -0.8261  1.1741
  183MOL0     H24135   2.006   5.843   4.906 -3.3624  0.7796 -2.3048
  183MOL0     H24136   1.829   5.753   5.018  1.6285  2.6775 -0.3489
  183MOL0     H24137   1.798   5.620   4.891  4.5268 -1.3281  1.4917
  183MOL0     H24138   2.852   5.825   4.508  0.1659 -0.8121  0.2844
  183MOL0     H24139   3.087   5.876   4.433  3.0414 -1.9683 -1.9584
  183MOL0     H24140   3.349   5.856   4.026  2.0307  0.4745 -3.0299
  183MOL0     H24141   3.530   5.926   3.879  0.4798  0.6173 -0.6683
  183MOL0     H24142   5.121   5.913   3.204  1.7527  2.5292 -0.6601
  183MOL0     H24143   5.382   5.868   3.193  0.1125 -2.6174  1.2671
  183MOL0     H24144   5.771   5.558   3.249 -2.2452  2.7400  1.1766
  183MOL0     H24145   6.004   5.538   3.212 -0.6823  0.2773  1.7551
  183MOL0     H24146   6.288   5.647   2.867  0.7302 -2.8028 -2.3919
  183MOL0     H24147   6.119   5.611   2.810 -2.9539 -2.6884  1.6288
  183MOL0     H24148   6.266   5.400   2.816 -4.5578 -2.3401 -0.7583
  183MOL0     H24149   6.295   5.433   2.990  1.0527  1.0672 -0.0114
  183MOL0     H24150   6.067   5.373   3.039  0.9701 -2.2049  0.5613
  183MOL0     H24151   6.151   5.249   2.956  0.6689 -0.3467 -0.0488
  183MOL0     H24152   5.953   5.440   2.817  0.3914 -0.3796 -1.3784
  183MOL0     H24153   6.045   5.309   2.740  2.5640 -1.1522  1.1042
  183MOL0     H24154   5.749   5.079   2.918  1.1612 -0.7010  0.8335
  183MOL0     H24155   5.954   5.754   2.838  1.1544 -0.8483  0.1605
  183MOL0     H24156   5.727   5.785   2.881  0.9109  3.5618  2.1900
  184MOL0     O24157   8.401  10.398   1.574  0.1893  0.6450 -0.1269
  184MOL0     C24158   8.426  10.285   1.625 -0.4272 -0.2112  0.1534
  184MOL0     O24159   8.337  10.190   1.657  0.5432  1.0235  0.5395
  184MOL0     C24160   8.203  10.210   1.630  0.4104  0.7539 -0.1191
  184MOL0     C24161   8.143  10.148   1.521  0.1882  0.7231 -1.1046
  184MOL0     C24162   8.002  10.171   1.498 -1.2555  0.1706 -0.7144
  184MOL0     C24163   7.928  10.243   1.594 -0.3508 -0.2019  0.2516
  184MOL0     O24164   7.793  10.234   1.564 -0.1257 -0.1044 -0.2180
  184MOL0     C24165   7.694  10.277   1.663 -0.4928  0.7726  0.7353
  184MOL0     C24166   7.562  10.294   1.594 -0.0806 -0.7646 -1.0729
  184MOL0     C24167   7.457  10.355   1.681 -0.6195 -0.6633 -0.5581
  184MOL0     C24168   7.318  10.350   1.615 -0.8361  0.1504 -0.0907
  184MOL0     C24169   7.301  10.399   1.470  0.6098 -0.0979  0.3314
  184MOL0     C24170   7.164  10.372   1.398 -0.2921 -0.2500  0.1506
  184MOL0     C24171   7.097  10.241   1.436  0.6609 -0.1975  0.0895
  184MOL0     C24172   6.963  10.244   1.357  0.6830  0.4236  0.2128
  184MOL0     N24173   6.847  10.281   1.450  0.6655 -0.0389  0.0231
  184MOL0     C24174   6.812  10.406   1.496 -0.2978 -0.3984 -0.5827
  184MOL0     C24175   6.701  10.385   1.568  0.3084 -0.0293 -1.1850
  184MOL0     C24176   6.636  10.504   1.634  0.3457 -0.2578  0.3682
  184MOL0     C24177   6.483  10.483   1.666  0.4699  0.5525 -0.3435
  184MOL0     C24178   6.396  10.470   1.537 -0.0150  0.0755 -0.1115
  184MOL0     C24179   6.263  10.405   1.561  0.0928  0.3424 -0.0740
  184MOL0     O24180   6.185  10.395   1.442  0.4717  0.1227 -0.1476
  184MOL0     C24181   6.048  10.389   1.438  0.3440  0.1135  0.0853
  184MOL0     C24182   5.968  10.376   1.550  0.3906 -0.5200  0.5101
  184MOL0     C24183   5.828  10.376   1.542 -0.5863 -0.1908 -0.0258
  184MOL0     C24184   5.761  10.385   1.414  0.7019 -0.1250 -0.9348
  184MOL0     C24185   5.612  10.392   1.400 -0.1241  0.5593  0.8053
  184MOL0     O24186   5.533  10.457   1.495 -0.0297  0.1127 -0.5482
  184MOL0     C24187   5.397  10.450   1.477  0.8096 -0.3042  0.2643
  184MOL0     C24188   5.323  10.326   1.469  0.7368 -0.9709  0.5358
  184MOL0     C24189   5.186  10.320   1.439  0.3083  0.0403 -0.0111
  184MOL0     C24190   5.117  10.446   1.421 -0.1979  0.5270 -0.7168
  184MOL0     O24191   4.981  10.457   1.417 -0.7049 -0.0912 -0.2302
  184MOL0     C24192   4.889  10.351   1.446 -0.2115 -0.3566  0.9191
  184MOL0     C24193   4.746  10.405   1.430  0.1802  0.1099 -0.3805
  184MOL0     C24194   4.707  10.466   1.293 -0.3539  0.0572  0.3241
  184MOL0     C24195   4.569  10.538   1.295 -0.6073  0.0621 -0.0127
  184MOL0     C24196   4.573  10.670   1.380 -0.2822  0.6170 -1.0185
  184MOL0     C24197   4.443  10.741   1.371  0.7264  0.3968 -0.2104
  184MOL0     C24198   4.448  10.884   1.431 -0.1111 -1.0263 -0.9779
  184MOL0     C24199   4.439  10.887   1.580  0.0593  0.2590  0.0405
  184MOL0    Cl24200   4.427  11.057   1.618 -0.3135 -0.5547 -0.1654
  184MOL0     C24201   5.188  10.563   1.421  0.2177  0.0592  0.0955
  184MOL0     C24202   5.323  10.570   1.442 -0.7092 -0.4145 -0.0436
  184MOL0     O24203   5.570  10.326   1.302  0.2658 -0.2791  0.3145
  184MOL0     C24204   5.846  10.379   1.304 -0.4921 -0.3302  0.2920
  184MOL0     C24205   5.982  10.384   1.317  0.0361  0.4995  0.1441
  184MOL0     N24206   6.680  10.247   1.565 -0.0079 -0.2840  0.0869
  184MOL0     N24207   6.772  10.186   1.502 -0.6643  0.3285 -0.4035
  184MOL0     C24208   7.994  10.301   1.706  0.4893  0.5867 -0.2647
  184MOL0     C24209   8.131  10.292   1.719  0.6268  0.2247  0.6996
  184MOL0     C24210   8.574  10.247   1.642  0.2972 -0.0893  0.6993
  184MOL0     C24211   8.615  10.124   1.694  0.3018 -0.5452  0.0811
  184MOL0     C24212   8.751  10.101   1.707 -0.7983 -0.4068  0.0259
  184MOL0     C24213   8.852  10.196   1.669 -0.3348  0.3848  0.4267
  184MOL0     O24214   8.981  10.169   1.706 -0.0640  0.0518  0.5213
  184MOL0     C24215   9.078  10.280   1.701 -0.6301  0.7264  0.0940
  184MOL0     C24216   9.193  10.241   1.797 -0.2629 -0.3726  0.4354
  184MOL0     C24217   9.261  10.361   1.874  0.2330  0.8481 -0.1558
  184MOL0     C24218   9.352  10.445   1.782  0.0074 -0.3354  0.1628
  184MOL0     C24219   9.283  10.512   1.668  0.1037  0.5799 -0.9320
  184MOL0     C24220   9.259  10.584   1.577 -0.1885  0.2910 -0.1285
  184MOL0     C24221   8.803  10.308   1.598  0.6291 -0.3097 -0.0945
  184MOL0     C24222   8.666  10.330   1.586 -0.3417 -0.0524  0.3702
  184MOL0     H24223   8.200  10.079   1.459  1.1822 -1.9612  2.4887
  184MOL0     H24224   7.947  10.127   1.415 -2.8168 -1.9956  1.3271
  184MOL0     H24225   7.725  10.368   1.715 -3.9324  2.1307  0.5935
  184MOL0     H24226   7.678  10.199   1.739 -3.2015  1.2669  0.7496
  184MOL0     H24227   7.532  10.197   1.552  0.4544 -1.1890 -0.5074
  184MOL0     H24228   7.581  10.365   1.513 -0.2361 -2.6046 -2.8235
  184MOL0     H24229   7.498  10.453   1.709  1.5899 -1.0947 -2.0239
  184MOL0     H24230   7.448  10.296   1.772 -1.4445  0.3636  0.0476
  184MOL0     H24231   7.291  10.244   1.623 -2.2697  0.3344 -1.8776
  184MOL0     H24232   7.252  10.414   1.675 -0.8722 -0.3063  0.3654
  184MOL0     H24233   7.385  10.351   1.419  0.9212 -1.4758  2.0699
  184MOL0     H24234   7.323  10.506   1.462  2.4286 -0.2205  2.7031
  184MOL0     H24235   7.194  10.375   1.292  1.5067 -1.4388  0.5962
  184MOL0     H24236   7.095  10.452   1.425 -0.6683 -1.1339  1.9306
  184MOL0     H24237   7.157  10.154   1.406  0.7811  0.4832 -1.8065
  184MOL0     H24238   7.074  10.233   1.542 -0.0253 -1.4920 -0.1275
  184MOL0     H24239   6.951  10.142   1.321 -0.3546  0.3729  0.6482
  184MOL0     H24240   6.958  10.303   1.265 -0.1280  0.4531  0.2599
  184MOL0     H24241   6.857  10.504   1.481 -3.2513  1.0994 -0.3595
  184MOL0     H24242   6.644  10.592   1.570 -0.7667 -0.7425 -0.4700
  184MOL0     H24243   6.684  10.521   1.730  0.3458  1.0094  0.1531
  184MOL0     H24244   6.440  10.562   1.728 -1.4172 -0.7475  0.0765
  184MOL0     H24245   6.481  10.389   1.721  0.2888  1.7807  1.8509
  184MOL0     H24246   6.390  10.568   1.490 -0.3138  0.9161  1.5950
  184MOL0     H24247   6.459  10.418   1.464  1.9813 -0.1349  1.6484
  184MOL0     H24248   6.207  10.467   1.631  2.5091  2.1649  0.3545
  184MOL0     H24249   6.264  10.299   1.590  2.3965  0.5228  0.6870
  184MOL0     H24250   6.014  10.348   1.645  0.3552 -1.7151  0.1901
  184MOL0     H24251   5.780  10.346   1.635  0.1787 -0.5089  0.2805
  184MOL0     H24252   5.371  10.233   1.495  0.4952 -1.0365  0.7557
  184MOL0     H24253   5.129  10.227   1.434 -0.7002  0.6836 -1.3524
  184MOL0     H24254   4.906  10.309   1.546  0.4394  0.3226  1.0996
  184MOL0     H24255   4.906  10.273   1.371 -1.8312  0.0207  0.1241
  184MOL0     H24256   4.735  10.486   1.503 -1.0067  0.4020 -0.8478
  184MOL0     H24257   4.679  10.320   1.448 -1.1000  1.4424  1.6410
  184MOL0     H24258   4.710  10.397   1.209 -4.2134  0.2292 -0.1177
  184MOL0     H24259   4.778  10.547   1.272  0.2286 -0.6485 -0.4557
  184MOL0     H24260   4.538  10.551   1.191  0.1981 -1.4336 -0.4653
  184MOL0     H24261   4.505  10.462   1.340  1.1654 -1.9950 -0.8096
  184MOL0     H24262   4.646  10.739   1.337 -0.1255  1.7804  1.0080
  184MOL0     H24263   4.585  10.649   1.487 -0.3952 -0.7372 -1.2570
  184MOL0     H24264   4.374  10.677   1.424 -2.3860  2.4152 -1.5407
  184MOL0     H24265   4.424  10.746   1.263 -0.3032  0.6732 -0.0218
  184MOL0     H24266   4.540  10.938   1.409 -0.8222  1.2672  1.1727
  184MOL0     H24267   4.361  10.932   1.386 -0.1042 -0.7304 -0.6748
  184MOL0     H24268   4.524  10.838   1.626  1.1066  1.3031 -0.7302
  184MOL0     H24269   4.343  10.843   1.609  0.7860 -0.2392  1.8016
  184MOL0     H24270   5.124  10.649   1.407  1.7544  1.1475 -0.5657
  184MOL0     H24271   5.361  10.672   1.446 -2.3633  0.2113  0.6126
  184MOL0     H24272   5.798  10.387   1.207 -3.8407 -1.3258  1.7257
  184MOL0     H24273   6.027  10.385   1.218 -0.8517  0.1689 -0.2725
  184MOL0     H24274   7.946  10.343   1.793  1.4214 -2.0814  1.6792
  184MOL0     H24275   8.183  10.342   1.800  1.1981  1.6890 -0.5338
  184MOL0     H24276   8.540  10.047   1.710  0.5147 -0.4440  1.7030
  184MOL0     H24277   8.783  10.008   1.754  0.4978  1.0447  2.1858
  184MOL0     H24278   9.028  10.372   1.733 -4.0697 -1.5318  1.8104
  184MOL0     H24279   9.111  10.291   1.597 -1.1560 -2.7148 -0.5579
  184MOL0     H24280   9.153  10.172   1.872  1.4086  0.2623  1.9845
  184MOL0     H24281   9.274  10.192   1.741 -2.1785 -0.9403 -2.0214
  184MOL0     H24282   9.339  10.324   1.940 -2.6844  1.4326  3.9949
  184MOL0     H24283   9.185  10.416   1.931  1.4336  1.5767  0.8086
  184MOL0     H24284   9.399  10.520   1.847 -0.1122  1.6197 -1.9192
  184MOL0     H24285   9.434  10.389   1.737  0.1477  2.1276 -2.9569
  184MOL0     H24286   9.250  10.653   1.495 -1.7760  1.7581  1.2083
  184MOL0     H24287   8.879  10.368   1.549  2.0526 -2.8765 -1.2182
  184MOL0     H24288   8.629  10.410   1.523  1.3654 -0.4076 -1.1579
  185MOL0     O24289   8.570   0.763   8.771 -0.3464 -0.4605  0.1351
  185MOL0     C24290   8.584   0.720   8.654  0.1095 -0.0874 -0.4166
  185MOL0     O24291   8.490   0.663   8.576 -0.2902  0.1199  1.2022
  185MOL0     C24292   8.367   0.679   8.629 -0.3846 -0.6077  0.4569
  185MOL0     C24293   8.318   0.587   8.716  0.3683 -0.1147 -0.3086
  185MOL0     C24294   8.183   0.576   8.739 -0.3042  0.5842  0.1468
  185MOL0     C24295   8.089   0.665   8.681  0.4474 -0.6918 -0.4415
  185MOL0     O24296   7.956   0.642   8.706 -0.2780 -0.6078  0.0923
  185MOL0     C24297   7.852   0.720   8.646  0.2711  0.3026  0.8195
  185MOL0     C24298   7.712   0.660   8.678 -1.0821 -0.3565  0.1060
  185MOL0     C24299   7.703   0.510   8.666 -0.6552  0.3274 -0.8724
  185MOL0     C24300   7.561   0.474   8.670  0.2424  0.5477  0.1590
  185MOL0     C24301   7.568   0.318   8.667  0.7870 -0.8916  0.3482
  185MOL0     C24302   7.436   0.246   8.677 -0.1509 -0.5518 -0.4142
  185MOL0     C24303   7.339   0.285   8.560 -0.1522  0.2130 -0.6283
  185MOL0     C24304   7.244   0.400   8.606  0.1280  0.1729 -0.5341
  185MOL0     N24305   7.149   0.447   8.501  0.7393 -0.3227 -0.5733
  185MOL0     C24306   7.037   0.378   8.458  0.0884  0.5039 -0.2701
  185MOL0     C24307   6.974   0.455   8.366  0.1162 -0.0358 -0.1681
  185MOL0     C24308   6.844   0.442   8.301 -0.1784 -0.1370  0.5802
  185MOL0     C24309   6.722   0.515   8.369  0.1103 -0.3321 -0.5130
  185MOL0     C24310   6.599   0.468   8.288  0.6371  0.4674 -1.0193
  185MOL0     C24311   6.592   0.510   8.142  0.4835 -0.4217  0.5702
  185MOL0     O24312   6.472   0.460   8.083  0.1783  0.7031  0.0364
  185MOL0     C24313   6.349   0.519   8.092 -0.3730  0.2067 -0.2003
  185MOL0     C24314   6.245   0.465   8.019  0.1024  0.6311 -0.1807
  185MOL0     C24315   6.111   0.519   8.025 -0.2950 -0.1959  0.0825
  185MOL0     C24316   6.097   0.636   8.100  0.7291 -0.5823  0.0500
  185MOL0     C24317   5.967   0.688   8.128 -0.2581 -0.6605 -0.9614
  185MOL0     O24318   5.869   0.622   8.061  0.3682  0.0657  0.4620
  185MOL0     C24319   5.734   0.655   8.075  0.8127 -0.3879  0.2317
  185MOL0     C24320   5.672   0.755   8.153  0.1264 -0.7631  0.1504
  185MOL0     C24321   5.538   0.802   8.150 -0.7172  0.1716 -0.8598
  185MOL0     C24322   5.459   0.748   8.056  0.8127 -0.4418 -0.7706
  185MOL0     O24323   5.333   0.799   8.041 -0.2961  0.0255 -0.1037
  185MOL0     C24324   5.323   0.860   7.907  0.1257  0.3970  0.0325
  185MOL0     C24325   5.213   0.959   7.871  1.1102 -0.0349 -0.8962
  185MOL0     C24326   5.074   0.894   7.893  0.3126 -0.4950 -0.2027
  185MOL0     C24327   4.948   0.981   7.858 -0.1803 -0.0003 -0.2737
  185MOL0     C24328   4.815   0.914   7.889 -0.4206  0.3152 -0.8379
  185MOL0     C24329   4.795   0.884   8.038  0.2932  0.1312  0.2610
  185MOL0     C24330   4.702   0.768   8.066  0.2030 -0.2392 -0.0934
  185MOL0     C24331   4.700   0.714   8.204  0.0373  0.2489  0.4306
  185MOL0    Cl24332   4.642   0.825   8.329 -0.2437 -0.3774  0.0144
  185MOL0     C24333   5.510   0.647   7.967  0.2324 -0.1438  1.0221
  185MOL0     C24334   5.644   0.604   7.976 -0.2802 -0.2169  0.0474
  185MOL0     O24335   5.952   0.771   8.217  0.4367  0.1221 -0.1823
  185MOL0     C24336   6.204   0.696   8.169  0.5186 -0.2610  0.6836
  185MOL0     C24337   6.327   0.638   8.162  0.4368  0.4916 -0.3547
  185MOL0     N24338   7.052   0.563   8.354  0.4672 -0.5888 -0.3538
  185MOL0     N24339   7.154   0.561   8.438  0.8032  0.1988 -0.2990
  185MOL0     C24340   8.147   0.761   8.600  0.3153 -0.0107  0.5968
  185MOL0     C24341   8.278   0.764   8.573  0.4764  0.2290 -0.8473
  185MOL0     C24342   8.723   0.697   8.609 -0.0549 -0.7719 -1.0596
  185MOL0     C24343   8.762   0.579   8.546  0.6866  0.5207 -0.3052
  185MOL0     C24344   8.895   0.560   8.511  0.0484 -0.3181 -0.1319
  185MOL0     C24345   8.990   0.653   8.548 -0.8456 -0.4797  0.4371
  185MOL0     O24346   9.124   0.654   8.504 -0.2687 -0.6147 -0.1601
  185MOL0     C24347   9.169   0.543   8.432 -0.6472  0.5954 -0.3888
  185MOL0     C24348   9.320   0.531   8.408 -1.0349  0.0783 -0.3582
  185MOL0     C24349   9.394   0.498   8.542  0.5843  0.1119  0.6198
  185MOL0     C24350   9.541   0.483   8.523  0.6944  0.2300  0.5286
  185MOL0     C24351   9.596   0.436   8.645 -0.3743 -0.0655 -1.2239
  185MOL0     C24352   9.642   0.408   8.759  0.6674 -0.2477  0.2309
  185MOL0     C24353   8.952   0.762   8.624  0.5117  0.0350  0.5476
  185MOL0     C24354   8.819   0.793   8.653  0.5881 -0.3405 -0.1314
  185MOL0     H24355   8.398   0.519   8.746  3.2553  3.1716  0.1303
  185MOL0     H24356   8.141   0.500   8.805 -3.4313  0.0486 -2.2102
  185MOL0     H24357   7.870   0.730   8.539  1.5871 -2.5317  0.6803
  185MOL0     H24358   7.845   0.820   8.689 -1.4582  0.5080  0.1525
  185MOL0     H24359   7.641   0.701   8.605 -0.0505  0.4763 -0.4632
  185MOL0     H24360   7.688   0.690   8.781 -0.9311 -1.7848  0.5791
  185MOL0     H24361   7.759   0.464   8.748 -0.0923  0.0210 -1.4249
  185MOL0     H24362   7.755   0.469   8.579  2.0862 -2.7810  1.9796
  185MOL0     H24363   7.522   0.491   8.770 -1.5870 -0.8823 -0.2536
  185MOL0     H24364   7.506   0.515   8.584 -1.3877  0.4917  1.1402
  185MOL0     H24365   7.632   0.281   8.747  1.6371  2.8985  1.5928
  185MOL0     H24366   7.615   0.291   8.572 -1.0888  2.8820 -1.8746
  185MOL0     H24367   7.391   0.258   8.776 -0.2049 -1.8844 -0.2526
  185MOL0     H24368   7.452   0.138   8.682 -2.1224 -0.8612  0.0394
  185MOL0     H24369   7.408   0.306   8.477  1.4766 -2.0428  0.0419
  185MOL0     H24370   7.275   0.205   8.521 -1.7132  0.3773  1.4472
  185MOL0     H24371   7.299   0.491   8.630  2.2436 -1.7938  2.9009
  185MOL0     H24372   7.198   0.377   8.702  3.1411  0.9194  1.2209
  185MOL0     H24373   6.998   0.286   8.500  1.6642 -0.1861 -0.2565
  185MOL0     H24374   6.821   0.335   8.299  1.2530 -0.4649 -0.2461
  185MOL0     H24375   6.845   0.481   8.198  1.2152  3.8957  1.9271
  185MOL0     H24376   6.740   0.623   8.362  2.2543 -0.6231 -0.2421
  185MOL0     H24377   6.711   0.489   8.474 -1.1150  1.1000 -0.2407
  185MOL0     H24378   6.585   0.360   8.301  0.6422  0.6034  0.2125
  185MOL0     H24379   6.507   0.507   8.333  0.3581 -2.6550  1.4601
  185MOL0     H24380   6.668   0.461   8.082  0.2595  0.4569 -0.4784
  185MOL0     H24381   6.601   0.619   8.144 -0.2961 -0.3530  1.8399
  185MOL0     H24382   6.260   0.369   7.971  0.6248  0.2135  0.7802
  185MOL0     H24383   6.031   0.472   7.969 -3.5756  3.0560  1.5997
  185MOL0     H24384   5.724   0.820   8.223 -0.3139  0.0533 -0.2707
  185MOL0     H24385   5.507   0.895   8.196  0.2871  1.0980 -1.9623
  185MOL0     H24386   5.310   0.773   7.842  2.1857  1.0369 -1.3586
  185MOL0     H24387   5.416   0.906   7.873  0.1163 -0.6419 -1.5225
  185MOL0     H24388   5.211   0.995   7.768  0.1357  0.0511 -0.8554
  185MOL0     H24389   5.227   1.046   7.936  4.0718 -0.5760 -0.6678
  185MOL0     H24390   5.066   0.860   7.996 -0.6468 -1.1813 -0.4853
  185MOL0     H24391   5.077   0.811   7.821  2.4760  0.9183 -1.8884
  185MOL0     H24392   4.947   1.081   7.903 -2.4716 -0.0639 -0.0516
  185MOL0     H24393   4.961   1.003   7.752  2.4544  0.5563  0.1098
  185MOL0     H24394   4.813   0.821   7.832  2.6066 -0.8515  0.7015
  185MOL0     H24395   4.731   0.972   7.849 -0.4185  0.5063 -0.5696
  185MOL0     H24396   4.761   0.973   8.091  1.5388  0.7663  0.0376
  185MOL0     H24397   4.886   0.852   8.089 -0.0203 -0.0387  0.7134
  185MOL0     H24398   4.605   0.808   8.035  1.8638  3.5174 -0.9771
  185MOL0     H24399   4.732   0.693   7.992  5.0226 -0.3174  1.5812
  185MOL0     H24400   4.801   0.676   8.226  0.8008  1.5431 -0.6204
  185MOL0     H24401   4.638   0.624   8.200  2.1541 -1.3520 -4.1393
  185MOL0     H24402   5.452   0.614   7.882 -1.0819  0.8062  1.5323
  185MOL0     H24403   5.685   0.542   7.897 -0.2615  0.6400 -0.6247
  185MOL0     H24404   6.189   0.788   8.226 -1.2357  0.6330 -1.0927
  185MOL0     H24405   6.407   0.692   8.212  0.2872  0.6146 -0.2464
  185MOL0     H24406   8.085   0.820   8.533 -0.8558 -0.8947  0.8768
  185MOL0     H24407   8.314   0.840   8.504  3.4117  2.3084  2.5847
  185MOL0     H24408   8.680   0.514   8.517  1.0392 -0.6058  1.1432
  185MOL0     H24409   8.910   0.466   8.459 -1.0100 -0.1212 -0.8350
  185MOL0     H24410   9.131   0.540   8.329  2.5912 -1.7140 -1.6977
  185MOL0     H24411   9.135   0.450   8.479 -0.7741  0.4805 -0.7060
  185MOL0     H24412   9.323   0.445   8.339  2.9764  1.3223 -2.0426
  185MOL0     H24413   9.365   0.617   8.357  1.5834  0.6258  2.6059
  185MOL0     H24414   9.344   0.405   8.572 -0.5912  1.0235  1.6240
  185MOL0     H24415   9.364   0.565   8.623 -0.6164 -0.1879  0.4436
  185MOL0     H24416   9.568   0.412   8.445  0.4212  1.1249 -0.3982
  185MOL0     H24417   9.591   0.578   8.503 -0.1736  1.0256  1.9120
  185MOL0     H24418   9.667   0.392   8.862 -0.7267  1.8670  0.9683
  185MOL0     H24419   9.024   0.837   8.655  1.3687 -1.1864  1.6415
  185MOL0     H24420   8.788   0.875   8.716 -0.8098 -0.5595 -0.5072
  186MOL0     O24421   7.036   3.780  10.700  0.2337  0.3427 -0.5079
  186MOL0     C24422   7.112   3.766  10.793  0.0622  0.3108 -0.2726
  186MOL0     O24423   7.085   3.797  10.919  0.0654 -0.8106 -0.3238
  186MOL0     C24424   6.966   3.860  10.947  0.3847 -0.4213  0.0716
  186MOL0     C24425   6.951   3.998  10.966 -0.0274 -0.1236 -0.3443
  186MOL0     C24426   6.831   4.054  10.984 -0.3622 -0.0461 -0.1769
  186MOL0     C24427   6.717   3.974  11.003  0.1072 -0.0081 -0.3454
  186MOL0     O24428   6.593   4.005  11.022  0.1575  0.0500  0.3262
  186MOL0     C24429   6.535   4.111  10.945  0.2645  0.0966 -0.1506
  186MOL0     C24430   6.465   4.195  11.042  0.4214  0.2061 -0.8945
  186MOL0     C24431   6.571   4.257  11.146 -0.6263  0.8169  0.2221
  186MOL0     C24432   6.514   4.317  11.273 -0.2214  0.1468  0.3285
  186MOL0     C24433   6.399   4.404  11.255 -0.0004 -0.2962  0.3952
  186MOL0     C24434   6.340   4.459  11.383  0.1989 -0.4215  0.1159
  186MOL0     C24435   6.239   4.577  11.362  0.9655  0.2418  0.3409
  186MOL0     C24436   6.200   4.650  11.491  0.1905 -0.6092 -0.4850
  186MOL0     N24437   6.058   4.625  11.527  0.0134 -0.3047 -0.1070
  186MOL0     C24438   5.959   4.713  11.499 -0.0290  0.0293  0.5845
  186MOL0     C24439   5.851   4.663  11.565  0.5348  0.3219  0.4238
  186MOL0     C24440   5.715   4.728  11.566  0.0121  0.5873 -0.1380
  186MOL0     C24441   5.718   4.832  11.681  0.3654 -0.8033  0.4820
  186MOL0     C24442   5.590   4.929  11.675  0.1959 -0.4625 -0.7697
  186MOL0     C24443   5.464   4.856  11.730  0.1583  0.7887  0.1640
  186MOL0     O24444   5.414   4.767  11.627  0.0814 -0.0143  0.1428
  186MOL0     C24445   5.289   4.713  11.637  0.5591 -0.7420 -0.0174
  186MOL0     C24446   5.185   4.772  11.709 -0.1781  0.4718 -1.0267
  186MOL0     C24447   5.054   4.714  11.701  0.4687  0.2968  0.6019
  186MOL0     C24448   5.022   4.608  11.617 -0.0687  0.3507 -0.3123
  186MOL0     C24449   4.878   4.569  11.600 -0.0635  0.2600 -0.1418
  186MOL0     O24450   4.786   4.642  11.672  0.1447 -0.1196  0.3546
  186MOL0     C24451   4.654   4.601  11.657 -0.6436 -0.4284 -0.4574
  186MOL0     C24452   4.591   4.583  11.533  0.4785  0.0592  0.8196
  186MOL0     C24453   4.450   4.551  11.537 -0.0182 -0.3112 -0.2482
  186MOL0     C24454   4.377   4.553  11.657 -0.7450  0.4776 -0.2857
  186MOL0     O24455   4.240   4.528  11.645 -0.3579  0.1293 -0.0008
  186MOL0     C24456   4.169   4.520  11.769  0.4469 -0.4663  0.2665
  186MOL0     C24457   4.017   4.488  11.741 -0.0629 -0.4272  0.3542
  186MOL0     C24458   3.948   4.416  11.858 -0.2791 -0.3901 -0.2805
  186MOL0     C24459   3.804   4.420  11.806 -1.0959 -0.8422  0.2142
  186MOL0     C24460   3.701   4.367  11.905 -0.2598  0.6024 -0.1070
  186MOL0     C24461   3.573   4.438  11.872 -0.0396  0.2011 -0.6528
  186MOL0     C24462   3.454   4.364  11.944  0.0598 -0.3870 -0.4513
  186MOL0     C24463   3.321   4.433  11.928  0.6743 -0.6156  0.1397
  186MOL0    Cl24464   3.269   4.423  11.754 -0.2008  0.5188  0.2960
  186MOL0     C24465   4.441   4.573  11.773  0.0290 -0.6841  0.1963
  186MOL0     C24466   4.580   4.597  11.774  0.7251  0.3046  0.5985
  186MOL0     O24467   4.860   4.475  11.524  0.5647 -1.1035 -0.2543
  186MOL0     C24468   5.132   4.540  11.562  1.0749 -0.2748 -1.1058
  186MOL0     C24469   5.260   4.595  11.566  0.0042 -0.7104 -0.0263
  186MOL0     N24470   5.888   4.544  11.621 -0.0588 -0.2134  0.3862
  186MOL0     N24471   6.009   4.523  11.588  0.2512 -0.1736 -0.5382
  186MOL0     C24472   6.732   3.837  10.992  0.4641  0.6855  1.0296
  186MOL0     C24473   6.850   3.779  10.964 -0.5370 -0.3447 -0.9383
  186MOL0     C24474   7.243   3.693  10.763 -0.0099  0.0919  0.4056
  186MOL0     C24475   7.327   3.658  10.868  0.0588  0.6078 -0.0732
  186MOL0     C24476   7.441   3.575  10.846  0.3968  0.2236 -0.5405
  186MOL0     C24477   7.471   3.530  10.718 -0.1004 -0.2993  0.2947
  186MOL0     O24478   7.590   3.459  10.687 -0.3297 -0.1895 -0.4602
  186MOL0     C24479   7.626   3.349  10.783 -0.6238 -0.0726 -0.1349
  186MOL0     C24480   7.775   3.318  10.783 -0.3750  0.9743  0.6179
  186MOL0     C24481   7.796   3.188  10.871  0.4049 -0.2774  0.2888
  186MOL0     C24482   7.932   3.132  10.856  0.1311  0.2857 -0.1742
  186MOL0     C24483   7.958   2.999  10.931  0.4016 -0.9059 -0.3238
  186MOL0     C24484   7.975   2.896  10.994  0.1574 -0.5104  0.9787
  186MOL0     C24485   7.386   3.570  10.609  0.3012  0.1009 -0.4041
  186MOL0     C24486   7.268   3.645  10.635 -0.4207 -0.2514 -0.8156
  186MOL0     H24487   7.039   4.061  10.968  0.0864 -0.2870 -0.2034
  186MOL0     H24488   6.822   4.162  10.992 -2.4735 -0.2643  1.2272
  186MOL0     H24489   6.464   4.072  10.872  0.2067 -3.0201  1.4071
  186MOL0     H24490   6.604   4.170  10.883 -0.2744  1.3396  0.4101
  186MOL0     H24491   6.388   4.134  11.090  0.0944 -0.5697 -2.3437
  186MOL0     H24492   6.406   4.272  10.992  0.7042  1.3558  0.4648
  186MOL0     H24493   6.637   4.330  11.098 -0.6256  0.4951 -0.2780
  186MOL0     H24494   6.636   4.176  11.180  0.9631  1.3077 -1.4893
  186MOL0     H24495   6.474   4.236  11.335 -5.1119  1.1317 -1.1307
  186MOL0     H24496   6.596   4.362  11.329 -0.9694  1.8805  0.0807
  186MOL0     H24497   6.320   4.348  11.204 -1.5575  1.8197  0.3917
  186MOL0     H24498   6.433   4.488  11.194 -2.5207  0.0599 -0.6218
  186MOL0     H24499   6.422   4.498  11.445 -1.2487 -2.9964  4.0738
  186MOL0     H24500   6.302   4.383  11.452 -0.1798 -0.7084 -0.4071
  186MOL0     H24501   6.278   4.640  11.281 -0.4313 -0.0696 -0.6114
  186MOL0     H24502   6.144   4.537  11.325  1.3650  0.5480 -1.1152
  186MOL0     H24503   6.212   4.757  11.472  1.2469 -0.4253  1.0588
  186MOL0     H24504   6.270   4.637  11.574 -0.6624 -0.7560  0.2232
  186MOL0     H24505   5.950   4.799  11.434 -3.2202  0.7835  1.8313
  186MOL0     H24506   5.635   4.655  11.582  0.4449  0.3427  0.9330
  186MOL0     H24507   5.696   4.777  11.470  2.7198 -2.7434 -2.6403
  186MOL0     H24508   5.806   4.889  11.651  0.8112 -1.5698  0.3067
  186MOL0     H24509   5.722   4.776  11.775 -3.1231 -1.7138  0.2496
  186MOL0     H24510   5.615   5.014  11.739  1.8619 -0.9934 -0.6593
  186MOL0     H24511   5.566   4.973  11.578  2.0307 -0.6700 -1.3661
  186MOL0     H24512   5.395   4.936  11.756 -0.8279 -0.2765  0.9136
  186MOL0     H24513   5.486   4.809  11.827 -2.3401  2.3192  1.5879
  186MOL0     H24514   5.205   4.863  11.763  1.7692  1.7745 -3.7001
  186MOL0     H24515   4.971   4.763  11.750 -1.8136 -0.1617 -2.4989
  186MOL0     H24516   4.642   4.592  11.438 -0.3315 -0.9452  0.2737
  186MOL0     H24517   4.386   4.530  11.452 -0.6550  1.6068 -0.2971
  186MOL0     H24518   4.178   4.618  11.818  0.5807 -0.7654  0.8489
  186MOL0     H24519   4.211   4.435  11.823 -2.7460 -1.8190  0.8602
  186MOL0     H24520   4.015   4.421  11.655 -1.1266 -1.3431  1.0606
  186MOL0     H24521   3.990   4.592  11.721  0.7874 -0.4785 -1.1806
  186MOL0     H24522   3.959   4.477  11.947  1.7672  0.4634 -1.0527
  186MOL0     H24523   3.976   4.312  11.877 -3.3054 -2.2765 -4.5608
  186MOL0     H24524   3.786   4.527  11.795 -0.1046 -0.7357 -0.4689
  186MOL0     H24525   3.793   4.373  11.708 -0.5300  0.3487 -0.4407
  186MOL0     H24526   3.721   4.375  12.012  1.1075  1.9247 -0.4394
  186MOL0     H24527   3.703   4.260  11.881 -1.8834  1.0401 -2.6313
  186MOL0     H24528   3.557   4.432  11.764 -2.3118 -2.5576 -0.2984
  186MOL0     H24529   3.577   4.542  11.904 -1.3362 -0.9067  3.9136
  186MOL0     H24530   3.450   4.265  11.898  1.7771 -1.0710  0.7870
  186MOL0     H24531   3.482   4.350  12.048  0.5638  0.4297 -0.4670
  186MOL0     H24532   3.329   4.538  11.958 -1.8970  1.1995 -4.4888
  186MOL0     H24533   3.247   4.382  11.991 -1.2603 -0.3054 -1.7641
  186MOL0     H24534   4.393   4.564  11.870  2.3415  0.5865  1.5474
  186MOL0     H24535   4.624   4.620  11.870 -2.6680 -1.2480  2.7338
  186MOL0     H24536   5.108   4.457  11.496  2.1973 -2.6653  1.3042
  186MOL0     H24537   5.331   4.531  11.513 -3.4026 -2.5730 -2.8092
  186MOL0     H24538   6.650   3.768  11.011  1.8015 -1.8449 -1.5835
  186MOL0     H24539   6.867   3.672  10.958  2.0078 -0.3066  2.5076
  186MOL0     H24540   7.300   3.686  10.969 -0.4679  0.2247 -0.1042
  186MOL0     H24541   7.498   3.544  10.933  0.5734  1.2556 -0.2738
  186MOL0     H24542   7.566   3.262  10.758 -3.0170  0.8005  2.0868
  186MOL0     H24543   7.595   3.373  10.885 -0.3718  0.6116 -0.2097
  186MOL0     H24544   7.808   3.289  10.683  2.1506  1.7237  1.1672
  186MOL0     H24545   7.838   3.399  10.820  0.6093 -0.8567  3.2606
  186MOL0     H24546   7.721   3.115  10.839 -2.6801  3.3282 -1.5420
  186MOL0     H24547   7.780   3.219  10.975  0.6058 -2.5697  1.0559
  186MOL0     H24548   7.961   3.102  10.755  4.2643 -2.7287  1.6010
  186MOL0     H24549   8.007   3.205  10.888  0.6698  0.6204 -2.0925
  186MOL0     H24550   7.975   2.813  11.062 -0.0617 -1.4843 -0.1677
  186MOL0     H24551   7.406   3.547  10.505 -0.2254 -0.3684 -0.4031
  186MOL0     H24552   7.190   3.653  10.559  0.0937  1.4321 -1.2180
  187MOL0     O24553   9.530   6.043   8.558  0.5935 -0.3198  1.2089
  187MOL0     C24554   9.520   5.933   8.610 -0.1514 -0.1690  0.4643
  187MOL0     O24555   9.427   5.836   8.582  0.1949  0.3451  0.1638
  187MOL0     C24556   9.332   5.871   8.490 -0.0260  0.1333  0.1490
  187MOL0     C24557   9.325   5.816   8.360  0.1916  0.3315  0.0951
  187MOL0     C24558   9.211   5.827   8.277  0.8102  0.2252 -0.3522
  187MOL0     C24559   9.114   5.917   8.317  0.6820  0.4688 -0.2799
  187MOL0     O24560   9.026   5.947   8.224  0.1637  0.3350  0.4480
  187MOL0     C24561   8.939   6.058   8.250 -0.1485 -0.2390  0.4971
  187MOL0     C24562   8.864   6.084   8.124  0.2253 -0.0816  0.9771
  187MOL0     C24563   8.760   5.974   8.087 -0.2028 -0.4018  0.0029
  187MOL0     C24564   8.717   5.990   7.942 -0.1297  0.1482  0.2816
  187MOL0     C24565   8.644   5.859   7.902  0.0398 -0.2439  0.0796
  187MOL0     C24566   8.509   5.845   7.985 -0.2314  0.2271 -0.2362
  187MOL0     C24567   8.420   5.741   7.919 -0.4499  0.6841 -0.0481
  187MOL0     C24568   8.317   5.682   8.017 -0.2630  0.1919  0.6385
  187MOL0     N24569   8.226   5.586   7.955 -0.6009 -0.1540  0.2205
  187MOL0     C24570   8.151   5.606   7.845  0.7719 -0.1713  0.4495
  187MOL0     C24571   8.084   5.490   7.846  0.1247 -0.0776  0.0131
  187MOL0     C24572   7.981   5.451   7.748  0.4981  0.0316  0.2022
  187MOL0     C24573   8.017   5.332   7.657  0.2385 -0.5952  0.2578
  187MOL0     C24574   8.162   5.331   7.600 -0.1341 -0.6571  0.2526
  187MOL0     C24575   8.179   5.186   7.538  0.4543  0.3947 -0.3682
  187MOL0     O24576   8.300   5.177   7.472 -0.2779 -0.7530 -0.0263
  187MOL0     C24577   8.417   5.171   7.547 -0.0113  0.2768 -0.2057
  187MOL0     C24578   8.434   5.187   7.689 -0.5000 -0.6145 -0.0750
  187MOL0     C24579   8.559   5.162   7.752 -0.3765  0.5096  0.2250
  187MOL0     C24580   8.672   5.121   7.686  0.2948  0.0380  0.4922
  187MOL0     C24581   8.803   5.099   7.744 -0.1447  0.4713  0.2693
  187MOL0     O24582   8.830   5.162   7.860  0.3781  0.3699 -0.6306
  187MOL0     C24583   8.950   5.146   7.920  0.4926  0.2400 -0.3340
  187MOL0     C24584   8.952   5.185   8.053  0.0752  0.0857  0.0939
  187MOL0     C24585   9.058   5.160   8.139  0.3804  0.1803 -0.3618
  187MOL0     C24586   9.180   5.110   8.092  1.1585  0.2710 -0.2749
  187MOL0     O24587   9.284   5.087   8.179 -0.1692  0.3588 -0.3023
  187MOL0     C24588   9.334   4.953   8.161 -0.1091 -0.5748  0.1783
  187MOL0     C24589   9.443   4.922   8.266 -0.0028  0.8054 -0.4014
  187MOL0     C24590   9.555   5.022   8.254  0.0301  0.3764  0.4662
  187MOL0     C24591   9.655   5.006   8.141 -0.3640  1.4322  0.0144
  187MOL0     C24592   9.745   5.125   8.110  0.6004  0.2176  0.2797
  187MOL0     C24593   9.855   5.153   8.220 -0.6499 -0.0860 -0.3955
  187MOL0     C24594   9.951   5.274   8.204  0.4122 -0.2769 -0.5260
  187MOL0     C24595  10.058   5.280   8.312 -1.0715  0.5223  0.1522
  187MOL0    Cl24596  10.161   5.130   8.295 -0.0224  0.9272 -0.0156
  187MOL0     C24597   9.182   5.070   7.955 -0.3244 -0.3931 -0.5870
  187MOL0     C24598   9.074   5.097   7.868 -0.3675  0.1598  0.0988
  187MOL0     O24599   8.878   5.039   7.676  0.1060 -0.0455  0.0818
  187MOL0     C24600   8.653   5.112   7.543 -0.1727 -0.7141  0.3443
  187MOL0     C24601   8.534   5.138   7.479  0.0638 -0.1169 -0.3734
  187MOL0     N24602   8.115   5.407   7.955  0.2391 -0.3132  0.2417
  187MOL0     N24603   8.205   5.469   8.020  0.2895  0.0809  0.7406
  187MOL0     C24604   9.124   5.971   8.448  0.0191  0.7207 -0.1199
  187MOL0     C24605   9.234   5.959   8.529  0.2843  0.5511 -0.1551
  187MOL0     C24606   9.619   5.904   8.717 -0.0570 -0.0979 -0.3945
  187MOL0     C24607   9.733   5.986   8.737  0.3721 -0.6943 -0.5833
  187MOL0     C24608   9.820   5.964   8.848  0.7128 -0.5336  0.0034
  187MOL0     C24609   9.813   5.845   8.914  0.1498  0.6481 -0.7538
  187MOL0     O24610   9.919   5.837   9.002 -0.3412 -0.2315  0.3262
  187MOL0     C24611   9.961   5.713   9.056  0.1774 -0.7364 -0.1371
  187MOL0     C24612  10.024   5.624   8.946 -0.5570  0.6412  0.5501
  187MOL0     C24613  10.174   5.651   8.942  0.1813  0.6880  0.0651
  187MOL0     C24614  10.232   5.557   8.837 -0.0651  0.4644  0.1761
  187MOL0     C24615  10.374   5.599   8.833  0.0242  0.1514  0.2124
  187MOL0     C24616  10.491   5.632   8.829  0.6316 -0.3432  0.0021
  187MOL0     C24617   9.709   5.754   8.893  0.3002 -0.5535  0.5249
  187MOL0     C24618   9.614   5.788   8.794 -0.2166 -0.1034  0.4998
  187MOL0     H24619   9.402   5.744   8.333 -0.0238 -1.0466  2.7770
  187MOL0     H24620   9.219   5.778   8.181  0.3290  0.7169 -0.6433
  187MOL0     H24621   8.999   6.146   8.276  0.4674  1.2142 -4.6766
  187MOL0     H24622   8.867   6.034   8.329 -2.7361  0.6235 -1.4721
  187MOL0     H24623   8.939   6.081   8.044 -1.9717 -0.1820 -1.1983
  187MOL0     H24624   8.823   6.185   8.110  1.9524  0.2346 -3.2845
  187MOL0     H24625   8.679   5.977   8.160  0.0257  2.2281  0.2321
  187MOL0     H24626   8.803   5.874   8.093 -0.2087 -0.4346 -0.4353
  187MOL0     H24627   8.657   6.078   7.916  1.9903  1.5030 -0.3860
  187MOL0     H24628   8.806   6.001   7.879  2.1499 -1.5587  2.9812
  187MOL0     H24629   8.706   5.769   7.905  0.1808 -0.1227  1.0749
  187MOL0     H24630   8.617   5.866   7.796  2.4929 -1.0492 -0.6607
  187MOL0     H24631   8.455   5.940   7.993 -2.8656 -1.3152  1.7918
  187MOL0     H24632   8.534   5.813   8.086  3.0512  3.6010  0.2389
  187MOL0     H24633   8.370   5.789   7.834  1.6269  0.5473 -1.4080
  187MOL0     H24634   8.474   5.657   7.874 -2.0146 -0.1734 -0.3854
  187MOL0     H24635   8.256   5.754   8.074 -2.1124 -1.3680  0.7254
  187MOL0     H24636   8.360   5.632   8.104 -2.0988 -1.0014  0.9223
  187MOL0     H24637   8.156   5.692   7.779  1.0801 -0.4390  0.1225
  187MOL0     H24638   7.969   5.547   7.696  0.2523 -0.5166 -0.7885
  187MOL0     H24639   7.889   5.418   7.796 -0.9668 -0.8377 -2.9475
  187MOL0     H24640   7.955   5.325   7.567  0.6365  0.8275 -0.1557
  187MOL0     H24641   8.001   5.239   7.710 -0.9329 -2.2905 -2.7919
  187MOL0     H24642   8.180   5.411   7.528  1.4457 -0.6905  0.5706
  187MOL0     H24643   8.236   5.335   7.681  0.7189  0.7078 -0.5551
  187MOL0     H24644   8.100   5.184   7.462 -0.7589  1.9943  0.7703
  187MOL0     H24645   8.168   5.106   7.612 -0.3368  2.1157  1.4775
  187MOL0     H24646   8.352   5.207   7.756 -0.3293  0.3903 -0.1446
  187MOL0     H24647   8.562   5.181   7.859  3.2752 -1.6516  0.6765
  187MOL0     H24648   8.861   5.222   8.099 -0.1241 -2.0573  1.5609
  187MOL0     H24649   9.056   5.179   8.246 -1.3222 -2.7487  0.2431
  187MOL0     H24650   9.377   4.942   8.061 -0.7038  0.4926 -0.2060
  187MOL0     H24651   9.252   4.882   8.176 -0.3719 -0.2527  0.2886
  187MOL0     H24652   9.479   4.818   8.271 -0.4511  0.4522 -2.9133
  187MOL0     H24653   9.410   4.932   8.370  1.0002 -0.9548  0.1306
  187MOL0     H24654   9.612   5.014   8.348 -0.0114 -0.4347  0.4331
  187MOL0     H24655   9.532   5.128   8.241  2.0626  0.6440 -1.5991
  187MOL0     H24656   9.720   4.921   8.162 -0.3442  1.7314  1.2136
  187MOL0     H24657   9.600   4.978   8.050  0.3594  0.5330 -0.1541
  187MOL0     H24658   9.677   5.207   8.087 -1.0514 -0.4389  2.5128
  187MOL0     H24659   9.802   5.090   8.023 -2.5005 -2.5627 -0.8451
  187MOL0     H24660   9.913   5.060   8.219 -0.2342  0.0939  1.6534
  187MOL0     H24661   9.803   5.171   8.314  0.3815 -1.3850  0.4606
  187MOL0     H24662  10.001   5.262   8.107  0.9193 -1.2969 -0.1508
  187MOL0     H24663   9.889   5.363   8.199 -2.8192 -2.0549  2.9639
  187MOL0     H24664  10.013   5.280   8.412 -1.5436  1.1784 -0.0565
  187MOL0     H24665  10.113   5.371   8.289  1.5528 -1.4846 -2.2502
  187MOL0     H24666   9.267   5.020   7.910  0.4078 -0.1928  0.5182
  187MOL0     H24667   9.081   5.061   7.766  0.8295  3.1612 -0.9852
  187MOL0     H24668   8.739   5.090   7.480 -0.2162  4.0644 -1.8668
  187MOL0     H24669   8.530   5.132   7.371  1.0498 -0.3396 -0.4011
  187MOL0     H24670   9.043   6.016   8.504 -0.1253 -0.2075  0.4310
  187MOL0     H24671   9.242   6.007   8.626  1.8506 -1.1650  0.6261
  187MOL0     H24672   9.746   6.075   8.676  1.4084  0.9985  1.9408
  187MOL0     H24673   9.910   6.024   8.862  0.9091 -1.0324  0.9910
  187MOL0     H24674   9.882   5.656   9.106  0.6453 -4.1674 -2.9079
  187MOL0     H24675  10.038   5.741   9.128  1.4728  0.8713 -2.0406
  187MOL0     H24676  10.011   5.518   8.973 -0.2413  0.7296  1.0675
  187MOL0     H24677   9.972   5.631   8.850 -0.1109 -0.3881  0.2157
  187MOL0     H24678  10.218   5.626   9.039  0.3411  0.2917 -0.1066
  187MOL0     H24679  10.194   5.754   8.911  0.1875  0.7488  0.2741
  187MOL0     H24680  10.210   5.452   8.857 -1.2670  0.1294 -2.4373
  187MOL0     H24681  10.179   5.573   8.742  0.4298 -0.1773 -0.2158
  187MOL0     H24682  10.594   5.658   8.830  0.6150 -0.2505 -0.6055
  187MOL0     H24683   9.709   5.666   8.956 -1.7232 -2.5628 -2.0490
  187MOL0     H24684   9.526   5.724   8.789  0.1552 -0.6291  0.5903
  188MOL0     O24685   2.953   3.296   1.841 -0.3805 -0.1345 -0.1623
  188MOL0     C24686   2.967   3.395   1.916 -0.5515  0.3883  0.1106
  188MOL0     O24687   2.970   3.527   1.875 -0.0995  1.1066 -0.0561
  188MOL0     C24688   2.942   3.558   1.739 -0.5584  0.1482  1.2708
  188MOL0     C24689   3.005   3.678   1.679 -0.3374  0.1316  0.0243
  188MOL0     C24690   2.970   3.729   1.551  0.2293  0.5592 -0.4363
  188MOL0     C24691   2.875   3.664   1.471 -0.4038 -0.3641  0.1416
  188MOL0     O24692   2.822   3.718   1.351 -0.1370 -0.2294  0.5246
  188MOL0     C24693   2.821   3.864   1.325  0.2313  0.3403  0.8155
  188MOL0     C24694   2.761   3.956   1.424  1.0225  0.7212 -0.5248
  188MOL0     C24695   2.612   3.918   1.447  0.2130 -0.0943  0.0663
  188MOL0     C24696   2.505   3.927   1.332 -0.3246 -0.7592 -0.6457
  188MOL0     C24697   2.364   3.924   1.394 -0.5534  1.0208 -0.2547
  188MOL0     C24698   2.314   4.059   1.453 -0.7849  0.5994 -1.2658
  188MOL0     C24699   2.160   4.051   1.474  0.5425 -0.2394 -0.4354
  188MOL0     C24700   2.111   4.176   1.541  0.5313  0.0695 -0.7875
  188MOL0     N24701   2.122   4.301   1.458 -0.0216  0.1808  0.5667
  188MOL0     C24702   2.171   4.418   1.502 -0.1975 -0.5020  0.4732
  188MOL0     C24703   2.157   4.500   1.399 -0.1010 -0.0363  0.2027
  188MOL0     C24704   2.176   4.645   1.396 -0.7851  0.6426  0.0895
  188MOL0     C24705   2.318   4.692   1.414 -0.0995 -0.1766  0.2810
  188MOL0     C24706   2.328   4.838   1.418 -0.2762 -0.3415  0.3211
  188MOL0     C24707   2.466   4.908   1.402 -0.2291 -0.5558 -0.2897
  188MOL0     O24708   2.557   4.831   1.473  0.0889 -0.5435  0.1679
  188MOL0     C24709   2.692   4.860   1.460  0.1166 -0.3827  0.3264
  188MOL0     C24710   2.754   4.966   1.396 -0.2755  0.6424 -0.1332
  188MOL0     C24711   2.899   4.972   1.379 -0.8018 -0.0685 -0.8236
  188MOL0     C24712   2.980   4.875   1.436 -0.1851  0.2209 -0.7970
  188MOL0     C24713   3.128   4.879   1.417  0.5434  0.8919  0.1284
  188MOL0     O24714   3.186   4.947   1.311  0.2619  0.1672  0.4637
  188MOL0     C24715   3.321   4.988   1.308  0.0197 -1.0797  0.4999
  188MOL0     C24716   3.379   4.974   1.181  0.2260  0.1641 -0.0870
  188MOL0     C24717   3.517   4.993   1.168  0.3724  0.3144  0.7894
  188MOL0     C24718   3.597   5.023   1.271  0.6367 -0.1461  0.0989
  188MOL0     O24719   3.731   5.044   1.275  0.3985 -0.1264 -0.0003
  188MOL0     C24720   3.819   4.972   1.185 -0.3152 -0.2334 -0.0099
  188MOL0     C24721   3.901   5.080   1.113 -0.8169 -0.6765 -0.2286
  188MOL0     C24722   4.032   5.109   1.196 -0.0233  0.2191  0.0303
  188MOL0     C24723   4.116   5.225   1.126 -0.4956 -0.9471 -0.8949
  188MOL0     C24724   4.168   5.202   0.984 -0.2165  0.0405  0.0998
  188MOL0     C24725   4.321   5.202   0.990  0.2695 -0.6291 -0.3214
  188MOL0     C24726   4.385   5.175   0.856 -0.3877 -0.3239  0.0551
  188MOL0     C24727   4.369   5.281   0.746  0.4238 -0.0142 -0.2656
  188MOL0    Cl24728   4.419   5.436   0.819 -0.4781 -0.2931  0.0324
  188MOL0     C24729   3.537   5.040   1.397  0.3181  0.0147  0.0201
  188MOL0     C24730   3.402   5.024   1.413 -0.8162 -0.3899 -0.5829
  188MOL0     O24731   3.195   4.815   1.498 -0.1277 -0.2163  0.3538
  188MOL0     C24732   2.909   4.786   1.526 -0.4084 -0.3117 -0.0678
  188MOL0     C24733   2.771   4.771   1.537  0.7367  0.4865  0.8510
  188MOL0     N24734   2.105   4.432   1.291 -1.2337 -0.1329 -0.4951
  188MOL0     N24735   2.082   4.313   1.330 -0.5676 -0.4316  0.1813
  188MOL0     C24736   2.823   3.540   1.520  0.1125 -0.2162 -0.0927
  188MOL0     C24737   2.860   3.486   1.648 -0.2234 -1.3378  0.4073
  188MOL0     C24738   2.964   3.373   2.056  1.3203  0.4180  0.0179
  188MOL0     C24739   2.900   3.256   2.108 -0.1399 -0.8080  1.0276
  188MOL0     C24740   2.895   3.230   2.241 -0.0957 -0.1281  0.8148
  188MOL0     C24741   2.969   3.302   2.326 -0.5500 -0.0600  0.1738
  188MOL0     O24742   2.985   3.277   2.464  0.3566  0.0286  0.3228
  188MOL0     C24743   2.869   3.268   2.545 -0.2133  0.3484 -0.0532
  188MOL0     C24744   2.912   3.279   2.693 -0.3996 -0.1457 -0.8234
  188MOL0     C24745   2.965   3.417   2.731 -0.2123  0.0997 -0.0478
  188MOL0     C24746   2.900   3.532   2.665  0.4443  0.6461  0.2367
  188MOL0     C24747   2.922   3.653   2.743 -0.8606  0.4048  0.1672
  188MOL0     C24748   2.927   3.755   2.808 -0.2893  0.3271  0.7796
  188MOL0     C24749   3.035   3.416   2.280 -0.5136  0.7669 -0.3439
  188MOL0     C24750   3.032   3.455   2.149 -0.6315  0.6103  0.4846
  188MOL0     H24751   3.086   3.728   1.731 -1.0361  0.2940  0.9886
  188MOL0     H24752   3.015   3.821   1.515 -0.1439  1.6837  1.7716
  188MOL0     H24753   2.761   3.873   1.234 -0.9905  2.1274  1.7411
  188MOL0     H24754   2.923   3.899   1.305  1.2335 -3.2713 -1.2796
  188MOL0     H24755   2.758   4.060   1.391 -0.2439  1.7844  2.5669
  188MOL0     H24756   2.793   3.951   1.529  2.6086  2.5380 -0.8703
  188MOL0     H24757   2.570   3.966   1.535 -0.0448  1.5207 -0.8775
  188MOL0     H24758   2.617   3.812   1.471  1.7011 -0.7555 -2.6592
  188MOL0     H24759   2.524   4.012   1.266 -0.2170 -0.5690 -0.3745
  188MOL0     H24760   2.514   3.833   1.277 -5.0513 -2.1932  0.5709
  188MOL0     H24761   2.359   3.852   1.476 -1.1970  0.3147 -0.9009
  188MOL0     H24762   2.284   3.886   1.329 -0.9872 -2.0420  1.8440
  188MOL0     H24763   2.340   4.140   1.385  1.8661  0.9532  0.0673
  188MOL0     H24764   2.360   4.096   1.545 -1.5445  5.1773 -2.5176
  188MOL0     H24765   2.110   4.040   1.378 -3.0470 -1.5401  1.4145
  188MOL0     H24766   2.131   3.962   1.531 -0.5495  0.0519 -0.5293
  188MOL0     H24767   2.172   4.179   1.631  0.2603 -2.0087 -0.4952
  188MOL0     H24768   2.006   4.171   1.573  0.9603 -0.6168  0.5938
  188MOL0     H24769   2.210   4.442   1.601 -0.8592  0.9606  0.4177
  188MOL0     H24770   2.123   4.682   1.484 -2.1949 -0.5141 -0.2262
  188MOL0     H24771   2.131   4.690   1.308  1.0746 -0.4210 -1.4918
  188MOL0     H24772   2.382   4.663   1.330 -0.6269 -1.6515  0.3422
  188MOL0     H24773   2.354   4.643   1.505 -1.1742  0.5703  1.1191
  188MOL0     H24774   2.259   4.889   1.350 -0.2676 -0.4774  0.2095
  188MOL0     H24775   2.306   4.857   1.523  0.3774 -1.2111  0.6311
  188MOL0     H24776   2.460   5.010   1.440 -0.0672 -0.0573 -1.5453
  188MOL0     H24777   2.467   4.919   1.293 -0.0044  0.2052 -0.2199
  188MOL0     H24778   2.698   5.048   1.353 -2.2941 -1.0050 -0.8145
  188MOL0     H24779   2.928   5.060   1.323  0.6121  0.4569  0.6457
  188MOL0     H24780   3.326   4.963   1.086  0.5027 -0.5555 -0.1720
  188MOL0     H24781   3.561   4.985   1.069 -1.7523 -1.9349 -0.0768
  188MOL0     H24782   3.757   4.923   1.109 -2.2327  1.0830  0.6473
  188MOL0     H24783   3.881   4.906   1.246 -0.0111 -1.5879 -1.6827
  188MOL0     H24784   3.839   5.168   1.094 -0.3304 -0.2867 -0.0355
  188MOL0     H24785   3.932   5.029   1.022  1.1445  0.3162 -0.1785
  188MOL0     H24786   4.095   5.020   1.205  1.5721  1.4635  1.7873
  188MOL0     H24787   4.006   5.139   1.298  1.7081  0.4571  0.4303
  188MOL0     H24788   4.046   5.308   1.118 -0.3447 -0.7454 -0.1557
  188MOL0     H24789   4.194   5.253   1.197 -1.7667 -3.7403  1.8313
  188MOL0     H24790   4.135   5.283   0.919  1.3429  0.4008 -0.2750
  188MOL0     H24791   4.138   5.104   0.946  2.6827 -1.4751  1.3247
  188MOL0     H24792   4.348   5.129   1.067 -3.2878 -0.5946  1.1291
  188MOL0     H24793   4.352   5.298   1.033 -0.5059  0.5560 -2.2727
  188MOL0     H24794   4.491   5.157   0.874 -0.0045 -3.0541 -3.7685
  188MOL0     H24795   4.350   5.081   0.812 -0.6971 -0.8296  1.3329
  188MOL0     H24796   4.263   5.298   0.725 -0.1736 -1.4656  1.3286
  188MOL0     H24797   4.424   5.261   0.653  0.3879 -1.8450  0.0727
  188MOL0     H24798   3.605   5.068   1.477 -2.3485  0.7762  2.1963
  188MOL0     H24799   3.360   5.040   1.511 -0.4087 -1.7694 -0.1664
  188MOL0     H24800   2.975   4.718   1.578  1.1425  0.8859 -0.3852
  188MOL0     H24801   2.711   4.709   1.602 -2.2443 -0.7146 -2.6833
  188MOL0     H24802   2.751   3.492   1.455 -2.4132 -1.3864  3.2451
  188MOL0     H24803   2.810   3.394   1.675  0.3938 -1.9954 -0.6211
  188MOL0     H24804   2.835   3.197   2.045 -1.2943 -0.2710  1.6809
  188MOL0     H24805   2.847   3.137   2.270  0.5019  0.1658  2.8685
  188MOL0     H24806   2.819   3.172   2.528  0.4380  0.2685 -1.6972
  188MOL0     H24807   2.794   3.345   2.524 -2.1792 -0.8553  2.0887
  188MOL0     H24808   2.825   3.278   2.759  0.1383 -1.9209 -0.0809
  188MOL0     H24809   2.990   3.209   2.726 -1.3684 -0.2394  1.4354
  188MOL0     H24810   3.073   3.419   2.712 -0.2884 -2.8871 -1.3680
  188MOL0     H24811   2.956   3.426   2.839  1.0318 -0.0428  0.0862
  188MOL0     H24812   2.923   3.547   2.560 -0.8053  1.3014  0.0359
  188MOL0     H24813   2.791   3.521   2.670  0.7020 -2.0388  1.4139
  188MOL0     H24814   2.936   3.849   2.858 -0.6404 -0.0063  1.4750
  188MOL0     H24815   3.107   3.465   2.344 -0.0457 -0.8003  0.3945
  188MOL0     H24816   3.100   3.530   2.110  0.4172 -1.6846 -2.5807
  189MOL0     O24817   8.202   9.835   7.291  0.3224  0.1558 -0.3024
  189MOL0     C24818   8.185   9.712   7.301  0.0650 -0.4765 -0.4258
  189MOL0     O24819   8.080   9.642   7.252 -0.5138  0.6441  0.0796
  189MOL0     C24820   7.974   9.698   7.188  0.2320  0.3690  0.2674
  189MOL0     C24821   7.911   9.615   7.085 -0.8788 -0.1291  0.1148
  189MOL0     C24822   7.786   9.653   7.026  0.0176  0.2477  0.2752
  189MOL0     C24823   7.724   9.767   7.079 -0.0182  0.7711 -0.0323
  189MOL0     O24824   7.602   9.813   7.034  0.2841  0.3090  0.2700
  189MOL0     C24825   7.550   9.753   6.912  0.1081  1.1046  0.1971
  189MOL0     C24826   7.424   9.832   6.867 -0.2430 -0.4485  0.3662
  189MOL0     C24827   7.321   9.831   6.982  0.3389 -0.0244  0.4953
  189MOL0     C24828   7.192   9.880   6.924 -0.2019 -0.0272  0.2071
  189MOL0     C24829   7.070   9.838   7.010  0.1867  0.0623  0.4640
  189MOL0     C24830   6.939   9.868   6.952  0.1199  0.4832 -0.1445
  189MOL0     C24831   6.831   9.829   7.058  0.3173  0.0742  0.4122
  189MOL0     C24832   6.692   9.865   7.000  0.4591  0.0329 -0.5890
  189MOL0     N24833   6.579   9.855   7.102  0.5244  0.2559  0.6869
  189MOL0     C24834   6.560   9.772   7.208 -0.3132  0.9165  0.3353
  189MOL0     C24835   6.437   9.809   7.253 -1.5812 -0.5393  1.1662
  189MOL0     C24836   6.363   9.715   7.340 -0.0556  0.0124  0.0298
  189MOL0     C24837   6.219   9.684   7.280  0.1880 -0.4743 -0.1677
  189MOL0     C24838   6.166   9.544   7.315 -0.6204  0.2651  0.2992
  189MOL0     C24839   6.027   9.513   7.261  0.1015  0.2204 -0.0365
  189MOL0     O24840   5.928   9.601   7.324 -0.1243 -0.6720 -0.0052
  189MOL0     C24841   5.794   9.581   7.306  0.4891 -0.0513  0.0442
  189MOL0     C24842   5.738   9.503   7.202  0.1208 -0.1830 -0.1309
  189MOL0     C24843   5.597   9.511   7.181 -0.8724  0.7653 -0.6185
  189MOL0     C24844   5.512   9.571   7.275  0.6260  0.0711 -0.4733
  189MOL0     C24845   5.359   9.579   7.257 -0.5146 -0.3646  0.0491
  189MOL0     O24846   5.286   9.622   7.358 -0.2888  0.8897 -0.2655
  189MOL0     C24847   5.152   9.636   7.329  1.4564 -0.4627  0.1500
  189MOL0     C24848   5.101   9.742   7.250 -0.1720  0.4875 -0.4378
  189MOL0     C24849   4.968   9.750   7.217  0.1779  0.3973 -0.3689
  189MOL0     C24850   4.879   9.653   7.278 -0.4793 -0.5219 -0.8351
  189MOL0     O24851   4.750   9.680   7.256 -1.1050  0.6238 -0.0761
  189MOL0     C24852   4.635   9.598   7.303 -0.1380  0.1688  0.9292
  189MOL0     C24853   4.512   9.653   7.239 -0.0039 -0.8402  0.0899
  189MOL0     C24854   4.399   9.551   7.271 -0.7403 -0.6189  0.2501
  189MOL0     C24855   4.262   9.619   7.290  0.5317 -0.7363 -0.9167
  189MOL0     C24856   4.146   9.522   7.306  0.1023 -0.2493  0.1354
  189MOL0     C24857   4.015   9.596   7.288  0.4248  0.6067 -0.5571
  189MOL0     C24858   3.897   9.502   7.276 -0.1878 -0.5197  0.0813
  189MOL0     C24859   3.849   9.450   7.411 -0.0033  0.2145 -0.3461
  189MOL0    Cl24860   3.731   9.327   7.402 -0.1104 -0.2304 -0.0793
  189MOL0     C24861   4.928   9.554   7.358  0.1043 -0.1342  0.1137
  189MOL0     C24862   5.063   9.545   7.384 -0.3847  0.4083  0.1446
  189MOL0     O24863   5.321   9.544   7.143 -0.1772 -0.9846 -0.1943
  189MOL0     C24864   5.578   9.639   7.387 -0.6181 -0.6490  0.3673
  189MOL0     C24865   5.718   9.663   7.396 -0.2009  0.7679  0.6938
  189MOL0     N24866   6.385   9.916   7.174  0.6436  0.2401 -0.1057
  189MOL0     N24867   6.470   9.936   7.082  0.2429 -0.3121 -0.0012
  189MOL0     C24868   7.777   9.837   7.187 -0.2080 -0.1310 -0.2193
  189MOL0     C24869   7.905   9.804   7.243 -0.0485  0.6054  0.0910
  189MOL0     C24870   8.283   9.637   7.386  0.0233 -0.2500 -0.0356
  189MOL0     C24871   8.263   9.502   7.421 -0.2448  0.7712 -0.7289
  189MOL0     C24872   8.361   9.443   7.500  0.7383 -0.2544 -0.1695
  189MOL0     C24873   8.480   9.505   7.533  0.5144  0.5108  0.6674
  189MOL0     O24874   8.568   9.429   7.610  0.1318 -0.0760  0.2885
  189MOL0     C24875   8.696   9.396   7.549  0.3053  0.2298 -0.0611
  189MOL0     C24876   8.677   9.311   7.418 -0.4905  0.3443 -0.3737
  189MOL0     C24877   8.817   9.299   7.350 -0.0767  0.2807  0.2655
  189MOL0     C24878   8.803   9.282   7.199 -0.8014  0.8848  0.5023
  189MOL0     C24879   8.930   9.276   7.125 -0.6825  0.2450 -0.0550
  189MOL0     C24880   9.028   9.279   7.053 -0.1648 -0.9831 -0.4534
  189MOL0     C24881   8.497   9.634   7.496 -0.2646  0.6114 -0.2487
  189MOL0     C24882   8.402   9.704   7.416  0.2203  0.0699 -0.4627
  189MOL0     H24883   7.970   9.533   7.045  1.6857  1.7440 -0.2239
  189MOL0     H24884   7.749   9.595   6.942  1.1154  0.5613 -0.4434
  189MOL0     H24885   7.515   9.651   6.928  2.8069  0.0002 -0.4183
  189MOL0     H24886   7.618   9.755   6.826 -0.3850  5.0961 -0.2824
  189MOL0     H24887   7.390   9.780   6.777  0.6968 -0.9377  0.2784
  189MOL0     H24888   7.449   9.933   6.834  0.4786 -1.1119 -1.2077
  189MOL0     H24889   7.341   9.896   7.068 -4.2714  3.7230 -0.8213
  189MOL0     H24890   7.309   9.733   7.029 -2.9796  0.1181  0.1938
  189MOL0     H24891   7.189   9.987   6.899 -2.2865 -0.2930 -0.9108
  189MOL0     H24892   7.189   9.842   6.821 -0.5488  0.6288 -0.0316
  189MOL0     H24893   7.075   9.891   7.106 -0.7147  0.3406  0.3691
  189MOL0     H24894   7.075   9.730   7.027 -0.5724  0.2205  1.9233
  189MOL0     H24895   6.931   9.820   6.853  3.3381 -0.5200 -0.0217
  189MOL0     H24896   6.936   9.974   6.925  1.0080  0.4248 -0.5000
  189MOL0     H24897   6.834   9.721   7.076 -1.7221  0.1344  1.4162
  189MOL0     H24898   6.854   9.893   7.144  1.6645  2.9426 -1.9058
  189MOL0     H24899   6.682   9.799   6.913  0.3713 -1.6903  0.6802
  189MOL0     H24900   6.704   9.966   6.960 -2.1808  0.4092 -0.6023
  189MOL0     H24901   6.618   9.692   7.253  0.9676  1.5363 -0.1605
  189MOL0     H24902   6.351   9.765   7.437 -2.3436 -0.2733 -0.0499
  189MOL0     H24903   6.413   9.618   7.348 -0.1689 -0.4080 -3.0784
  189MOL0     H24904   6.223   9.694   7.171  3.0856  0.2687 -0.0926
  189MOL0     H24905   6.158   9.767   7.316  0.8678 -0.2940  0.5958
  189MOL0     H24906   6.238   9.473   7.275 -0.3502  1.6128 -1.7853
  189MOL0     H24907   6.162   9.537   7.424 -0.8298  0.2624  0.2912
  189MOL0     H24908   6.000   9.409   7.283  2.1739 -0.5582 -0.8885
  189MOL0     H24909   6.033   9.527   7.153 -2.1133 -0.9953 -0.3789
  189MOL0     H24910   5.792   9.449   7.125 -0.4043  0.7058 -1.1379
  189MOL0     H24911   5.560   9.459   7.094  0.6682 -0.7500 -0.4318
  189MOL0     H24912   5.162   9.808   7.190  1.1148 -1.0239 -0.8521
  189MOL0     H24913   4.941   9.819   7.138 -0.1841 -1.9623 -2.4219
  189MOL0     H24914   4.634   9.589   7.412 -0.6908 -3.2710  0.7543
  189MOL0     H24915   4.647   9.503   7.250 -0.7337  0.1531  0.8101
  189MOL0     H24916   4.527   9.661   7.131  1.6197 -1.6899  0.2153
  189MOL0     H24917   4.483   9.749   7.283  0.9585  0.2723 -1.6171
  189MOL0     H24918   4.415   9.502   7.368 -1.4505 -0.4278  0.4717
  189MOL0     H24919   4.401   9.477   7.192 -0.5426  1.3580 -1.6888
  189MOL0     H24920   4.277   9.665   7.388  0.6412  0.4799 -1.4729
  189MOL0     H24921   4.246   9.693   7.211  1.0145  2.0855  1.4314
  189MOL0     H24922   4.165   9.479   7.405 -0.4473 -1.1323 -0.1328
  189MOL0     H24923   4.147   9.434   7.242  3.3622 -4.2720  4.9180
  189MOL0     H24924   4.015   9.650   7.193  1.1638  0.6741 -0.5255
  189MOL0     H24925   4.001   9.672   7.366  0.3409  0.1205 -0.0924
  189MOL0     H24926   3.810   9.564   7.254 -0.9925 -1.3588  0.7864
  189MOL0     H24927   3.905   9.426   7.198  2.7312  1.4664 -1.7597
  189MOL0     H24928   3.794   9.533   7.456 -0.1755  0.9311 -1.8033
  189MOL0     H24929   3.927   9.414   7.479 -0.3300  1.1130  0.5207
  189MOL0     H24930   4.863   9.474   7.393  1.7071 -2.0921 -1.1493
  189MOL0     H24931   5.104   9.467   7.448  1.6848  1.8183  0.6148
  189MOL0     H24932   5.509   9.696   7.450 -0.0010  2.3454 -1.4748
  189MOL0     H24933   5.773   9.728   7.464  3.2248 -0.4374 -0.7119
  189MOL0     H24934   7.715   9.912   7.235  1.7942 -0.0083  2.3807
  189MOL0     H24935   7.949   9.860   7.325  3.9078 -1.1214 -0.6038
  189MOL0     H24936   8.174   9.451   7.386 -0.5932  1.5788 -1.0220
  189MOL0     H24937   8.355   9.335   7.510  0.2795 -0.3017 -0.8678
  189MOL0     H24938   8.760   9.356   7.628  2.4057  1.6336 -0.9612
  189MOL0     H24939   8.744   9.487   7.511  0.4818 -1.4865 -4.5007
  189MOL0     H24940   8.643   9.211   7.444 -0.1200  0.2642 -0.1838
  189MOL0     H24941   8.604   9.360   7.354 -1.9548  2.6751  2.8129
  189MOL0     H24942   8.876   9.219   7.395 -0.7412 -0.0652  0.5403
  189MOL0     H24943   8.875   9.390   7.369 -2.8675  2.4643 -1.0013
  189MOL0     H24944   8.741   9.196   7.171  1.5798  0.0193 -2.7302
  189MOL0     H24945   8.744   9.370   7.171 -0.0647  0.9623 -0.9411
  189MOL0     H24946   9.110   9.283   6.984 -1.0821 -1.8054 -1.6410
  189MOL0     H24947   8.588   9.689   7.521 -0.2473  0.3425  0.3065
  189MOL0     H24948   8.422   9.805   7.379 -1.0454 -0.0914 -1.6890
  190MOL0     O24949   3.431   7.118   6.951 -0.4484 -0.1613 -0.1974
  190MOL0     C24950   3.528   7.126   7.018 -1.0217  0.0335  0.3231
  190MOL0     O24951   3.527   7.095   7.157 -0.1604  0.2609  0.1665
  190MOL0     C24952   3.418   7.099   7.239  0.7688  0.2161  0.0831
  190MOL0     C24953   3.312   7.193   7.233 -0.6583 -0.0093  0.1878
  190MOL0     C24954   3.201   7.180   7.317  0.6521 -0.0525 -0.2706
  190MOL0     C24955   3.185   7.072   7.405 -0.0183 -0.6031 -0.5058
  190MOL0     O24956   3.080   7.042   7.484 -0.4068  0.4870 -0.4249
  190MOL0     C24957   2.980   7.145   7.509  0.2915 -0.2472  0.1680
  190MOL0     C24958   2.879   7.078   7.615  0.0212  0.1008  0.5648
  190MOL0     C24959   2.771   7.185   7.643  0.6278 -0.8268 -0.0655
  190MOL0     C24960   2.651   7.122   7.713 -0.3758 -0.1581 -0.4054
  190MOL0     C24961   2.548   7.223   7.767  0.3199  0.0276 -0.5509
  190MOL0     C24962   2.605   7.306   7.877  0.0806 -0.6974 -0.7209
  190MOL0     C24963   2.511   7.423   7.921  0.4623 -0.5800 -0.4530
  190MOL0     C24964   2.571   7.494   8.037  0.1177 -0.2489 -0.3384
  190MOL0     N24965   2.693   7.574   8.001  0.1688  0.2457 -0.1459
  190MOL0     C24966   2.820   7.518   8.018 -0.3015 -0.4356  0.9962
  190MOL0     C24967   2.897   7.628   8.043 -0.6415  0.1917 -0.8884
  190MOL0     C24968   3.041   7.631   8.072  0.1444 -0.2967 -0.3193
  190MOL0     C24969   3.129   7.635   7.941 -0.5292  0.0597 -0.1311
  190MOL0     C24970   3.280   7.617   7.992 -0.0736  0.1107 -0.0004
  190MOL0     C24971   3.384   7.598   7.882  0.0255 -0.2867 -0.0232
  190MOL0     O24972   3.505   7.596   7.954  0.4200  0.5628 -0.8270
  190MOL0     C24973   3.627   7.557   7.899 -0.4142  0.3023  0.6281
  190MOL0     C24974   3.741   7.587   7.968 -0.6801 -0.8723 -0.1296
  190MOL0     C24975   3.874   7.565   7.930  0.1221  0.3864  0.5717
  190MOL0     C24976   3.891   7.504   7.809 -0.3577 -0.3391  0.0544
  190MOL0     C24977   4.024   7.468   7.759  0.4444  0.0619  0.1889
  190MOL0     O24978   4.121   7.502   7.846 -0.6515  0.2107  0.5357
  190MOL0     C24979   4.253   7.485   7.805 -0.2535  0.3081  0.0261
  190MOL0     C24980   4.309   7.360   7.782  0.0170 -1.2390  0.2301
  190MOL0     C24981   4.439   7.343   7.754 -1.4326  0.3515  0.4622
  190MOL0     C24982   4.531   7.455   7.751  0.0959  0.8643  0.0516
  190MOL0     O24983   4.666   7.441   7.732  0.6544  0.8792  0.4481
  190MOL0     C24984   4.721   7.312   7.698 -0.4298  0.8911  0.0430
  190MOL0     C24985   4.873   7.345   7.680  1.1857 -0.2387  0.5027
  190MOL0     C24986   4.960   7.318   7.796  0.6748  1.1515  0.3387
  190MOL0     C24987   5.093   7.393   7.802  0.0852  0.4010  0.0537
  190MOL0     C24988   5.087   7.540   7.840 -0.0665  0.1839 -0.1134
  190MOL0     C24989   5.226   7.600   7.812  0.8593  0.5993  0.0206
  190MOL0     C24990   5.212   7.743   7.877 -0.2693 -0.0423 -0.1230
  190MOL0     C24991   5.324   7.840   7.825  0.5511 -0.1321  0.0767
  190MOL0    Cl24992   5.290   7.890   7.656 -0.4324 -0.2651  0.7159
  190MOL0     C24993   4.471   7.579   7.773 -0.2998  1.0234 -0.2055
  190MOL0     C24994   4.339   7.592   7.809  0.1247 -0.7885 -0.6709
  190MOL0     O24995   4.043   7.425   7.645  0.1120 -0.4573  0.2208
  190MOL0     C24996   3.779   7.481   7.733  0.6492  0.1686 -0.4515
  190MOL0     C24997   3.647   7.500   7.775  0.0817  0.4821  0.2612
  190MOL0     N24998   2.819   7.745   8.039  0.0732  0.1776 -0.0298
  190MOL0     N24999   2.694   7.710   8.013  0.6146  1.2951 -0.8490
  190MOL0     C25000   3.299   6.989   7.416 -0.4661 -0.8493  0.5218
  190MOL0     C25001   3.417   7.006   7.337 -0.4774 -0.1379  0.1247
  190MOL0     C25002   3.654   7.169   6.950  0.8488 -0.0790 -0.0664
  190MOL0     C25003   3.657   7.197   6.819  0.1555 -1.1056 -0.3390
  190MOL0     C25004   3.764   7.233   6.750 -0.2074 -0.6240 -0.6800
  190MOL0     C25005   3.889   7.251   6.813  0.4714 -0.3779 -0.0462
  190MOL0     O25006   3.991   7.302   6.732 -0.9145 -0.0187 -0.1568
  190MOL0     C25007   4.112   7.229   6.737  0.6310  0.4095  0.1241
  190MOL0     C25008   4.220   7.331   6.713 -0.3784  0.1590 -0.1865
  190MOL0     C25009   4.265   7.402   6.837  0.4832 -0.2040 -0.1591
  190MOL0     C25010   4.340   7.531   6.789  0.7091 -0.8080 -0.3747
  190MOL0     C25011   4.353   7.623   6.905 -0.5694 -0.1590 -0.1818
  190MOL0     C25012   4.360   7.697   7.005 -0.8247 -0.3438 -0.8686
  190MOL0     C25013   3.897   7.224   6.951 -0.0549  0.5486 -0.3725
  190MOL0     C25014   3.785   7.180   7.018  0.1793  0.7934 -0.2115
  190MOL0     H25015   3.316   7.287   7.177 -1.5509  1.4115  2.3652
  190MOL0     H25016   3.120   7.252   7.306 -0.8060 -1.2916  1.6469
  190MOL0     H25017   2.935   7.173   7.414  5.0668  0.6728 -2.1682
  190MOL0     H25018   3.033   7.228   7.558  0.1496  0.1741 -0.3914
  190MOL0     H25019   2.937   7.046   7.701 -2.2687 -1.3196  1.6707
  190MOL0     H25020   2.836   6.991   7.564  1.7785 -0.5938  0.2033
  190MOL0     H25021   2.718   7.216   7.553 -0.8296 -1.2994  0.6089
  190MOL0     H25022   2.816   7.270   7.695  0.4121 -0.9844  0.3793
  190MOL0     H25023   2.606   7.044   7.652  1.9891 -1.0894 -1.0243
  190MOL0     H25024   2.692   7.068   7.799 -1.5314  2.7243  2.1577
  190MOL0     H25025   2.465   7.173   7.817 -1.5223  2.7775 -0.6794
  190MOL0     H25026   2.500   7.276   7.685 -0.0401 -0.7350 -0.8421
  190MOL0     H25027   2.702   7.350   7.852 -0.6796  0.3575 -1.9761
  190MOL0     H25028   2.619   7.238   7.961 -0.4830  1.3280  1.1231
  190MOL0     H25029   2.482   7.484   7.835  1.1460  0.9340  0.3611
  190MOL0     H25030   2.432   7.369   7.975  1.7264  1.0474  3.3511
  190MOL0     H25031   2.597   7.423   8.117 -3.9734 -2.0296 -0.3330
  190MOL0     H25032   2.498   7.565   8.077  1.0438 -0.2045  1.3811
  190MOL0     H25033   2.845   7.415   7.993  0.9666  0.3024 -0.9494
  190MOL0     H25034   3.060   7.539   8.127 -1.0475  0.1187  0.8608
  190MOL0     H25035   3.079   7.711   8.137 -0.7932  0.1291 -0.2734
  190MOL0     H25036   3.125   7.731   7.890  1.1730 -0.2870 -0.9794
  190MOL0     H25037   3.105   7.558   7.866 -1.1290 -1.6102  1.6935
  190MOL0     H25038   3.311   7.695   8.061  2.1699 -1.7538  1.2465
  190MOL0     H25039   3.269   7.524   8.048 -1.1704  0.8865  1.1265
  190MOL0     H25040   3.389   7.677   7.806  3.9264 -1.1089 -0.8148
  190MOL0     H25041   3.358   7.506   7.829 -0.7961 -0.0271 -0.0858
  190MOL0     H25042   3.720   7.629   8.066 -2.2658 -0.6167 -0.5484
  190MOL0     H25043   3.962   7.591   7.987  1.3522 -1.7400 -0.2501
  190MOL0     H25044   4.252   7.268   7.785  1.7975 -2.5029 -1.8217
  190MOL0     H25045   4.477   7.245   7.727 -2.7509  0.0493 -0.3797
  190MOL0     H25046   4.680   7.261   7.611 -2.7593 -0.6968  1.9092
  190MOL0     H25047   4.708   7.241   7.780 -2.6574 -1.0395 -1.8327
  190MOL0     H25048   4.886   7.444   7.635 -1.1079  0.1204  0.5433
  190MOL0     H25049   4.910   7.283   7.598  1.2691 -0.2244  0.5291
  190MOL0     H25050   4.983   7.211   7.791  0.8489  1.1466  1.0907
  190MOL0     H25051   4.905   7.318   7.891 -0.3195 -0.9294 -0.1681
  190MOL0     H25052   5.157   7.340   7.873  0.4335 -3.4063 -2.7841
  190MOL0     H25053   5.145   7.382   7.706  1.1046 -2.9482  0.8792
  190MOL0     H25054   5.078   7.543   7.949  2.8805 -0.7513  0.2335
  190MOL0     H25055   4.998   7.595   7.809 -1.4208  0.3690  3.5835
  190MOL0     H25056   5.245   7.589   7.704  0.9265  0.9427 -0.0057
  190MOL0     H25057   5.306   7.544   7.860  0.2472  0.1073  0.4790
  190MOL0     H25058   5.116   7.792   7.855  0.1786  0.4914 -0.9588
  190MOL0     H25059   5.223   7.740   7.985  1.4440  1.7455 -0.1873
  190MOL0     H25060   5.420   7.788   7.815  1.5376  1.6292 -0.1576
  190MOL0     H25061   5.322   7.925   7.894 -0.1741  1.7673 -2.1252
  190MOL0     H25062   4.534   7.667   7.771  1.1438  0.0182 -1.5311
  190MOL0     H25063   4.299   7.687   7.843 -0.3546 -2.4109  4.0337
  190MOL0     H25064   3.797   7.449   7.630  1.5012 -3.2817  0.6270
  190MOL0     H25065   3.562   7.479   7.712 -0.5168  0.6813  0.9859
  190MOL0     H25066   3.298   6.913   7.493 -2.9418 -1.3084  0.1447
  190MOL0     H25067   3.505   6.944   7.348 -0.5998  0.1829  4.6573
  190MOL0     H25068   3.565   7.181   6.764  0.4820 -0.5734 -1.0512
  190MOL0     H25069   3.747   7.258   6.646 -1.3331  0.1266 -0.3274
  190MOL0     H25070   4.109   7.151   6.660  1.1902  0.0493  0.4640
  190MOL0     H25071   4.127   7.180   6.833 -1.4639  0.8287  0.7079
  190MOL0     H25072   4.306   7.278   6.671  2.2841  3.4068  0.7736
  190MOL0     H25073   4.188   7.409   6.642 -0.7957 -0.3549 -0.5712
  190MOL0     H25074   4.328   7.333   6.893 -0.5976 -1.0533  0.0309
  190MOL0     H25075   4.180   7.414   6.906  1.8441 -2.4130  2.0598
  190MOL0     H25076   4.441   7.510   6.754  1.2189  1.3441 -0.3634
  190MOL0     H25077   4.278   7.584   6.716 -0.2686  0.7763  1.5039
  190MOL0     H25078   4.380   7.754   7.093  2.3426 -1.1943 -0.9207
  190MOL0     H25079   3.981   7.239   7.017  0.9845  0.8347 -1.7078
  190MOL0     H25080   3.781   7.163   7.125  0.0304  2.5649  0.0919
  191MOL0     O25081  10.072   0.664   0.807 -0.3422 -0.0167 -0.1875
  191MOL0     C25082  10.079   0.557   0.756  0.2376 -0.9839 -1.1631
  191MOL0     O25083   9.978   0.473   0.733  0.6954 -0.3953  0.3853
  191MOL0     C25084   9.844   0.511   0.717  0.0552 -0.0854 -0.2255
  191MOL0     C25085   9.757   0.413   0.658 -1.3693 -0.7146  0.7402
  191MOL0     C25086   9.623   0.430   0.648  0.3815 -1.5938  0.8620
  191MOL0     C25087   9.560   0.551   0.686 -1.0475 -0.8926 -0.5173
  191MOL0     O25088   9.428   0.584   0.667 -0.3595 -0.3452 -0.6943
  191MOL0     C25089   9.358   0.494   0.590  0.1217  0.0973 -0.1375
  191MOL0     C25090   9.206   0.528   0.581  0.0132 -0.5159  0.3103
  191MOL0     C25091   9.119   0.430   0.497 -0.5351  0.5215 -0.5055
  191MOL0     C25092   8.977   0.465   0.531  0.3068  0.4542 -0.2592
  191MOL0     C25093   8.880   0.389   0.443 -0.8165  0.3419  0.3422
  191MOL0     C25094   8.744   0.444   0.438  0.0734 -0.1486  0.5866
  191MOL0     C25095   8.660   0.375   0.334 -0.1710 -0.5713  0.0634
  191MOL0     C25096   8.519   0.437   0.337 -0.1388 -0.4865 -0.4401
  191MOL0     N25097   8.427   0.379   0.245  0.1791  0.1705  0.3904
  191MOL0     C25098   8.424   0.405   0.114 -0.4913 -0.5218  1.1122
  191MOL0     C25099   8.313   0.346   0.061  0.4454  0.5058 -0.5990
  191MOL0     C25100   8.272   0.388  -0.076 -0.1732 -0.1410 -0.0326
  191MOL0     C25101   8.158   0.291  -0.134 -0.1602 -0.5628  0.0897
  191MOL0     C25102   8.086   0.349  -0.246 -0.3019 -0.6347  0.5117
  191MOL0     C25103   7.951   0.279  -0.268  0.0448  0.0044  0.0254
  191MOL0     O25104   7.888   0.318  -0.392 -0.3242  0.7768 -0.4145
  191MOL0     C25105   7.761   0.281  -0.420  0.0503 -0.0954 -0.0636
  191MOL0     C25106   7.691   0.181  -0.348 -0.1701 -0.2639 -0.1822
  191MOL0     C25107   7.561   0.142  -0.390  0.1781 -0.1691  0.9043
  191MOL0     C25108   7.502   0.205  -0.503 -0.6030 -0.0401  0.1867
  191MOL0     C25109   7.375   0.165  -0.560 -0.3799  0.2912  0.6875
  191MOL0     O25110   7.327   0.235  -0.674 -0.2863  0.6403  0.0614
  191MOL0     C25111   7.211   0.186  -0.730  0.0552  0.1154  0.6284
  191MOL0     C25112   7.209   0.080  -0.821 -0.1379 -0.3770  0.2059
  191MOL0     C25113   7.083   0.055  -0.874  0.3651  0.6379  0.3789
  191MOL0     C25114   6.964   0.118  -0.835  0.3818 -0.0209  0.4672
  191MOL0     O25115   6.845   0.060  -0.891  0.2963  0.3554 -0.0277
  191MOL0     C25116   6.733   0.143  -0.923  0.6815  0.4869 -0.2394
  191MOL0     C25117   6.619   0.049  -0.946 -0.2675 -0.3269 -0.6319
  191MOL0     C25118   6.482   0.122  -0.942 -0.2083 -0.5817 -0.2826
  191MOL0     C25119   6.374   0.023  -0.935  0.1542 -0.3195  0.4144
  191MOL0     C25120   6.244   0.084  -0.915  0.2024 -0.9214 -0.0028
  191MOL0     C25121   6.135   0.031  -1.004  0.1177 -0.1082  0.2775
  191MOL0     C25122   5.993   0.088  -0.973  0.2133 -0.2240  0.3664
  191MOL0     C25123   5.886   0.026  -1.053 -0.0059  0.3110  0.1412
  191MOL0    Cl25124   5.930   0.025  -1.239 -0.0355  0.0876 -0.2822
  191MOL0     C25125   6.968   0.215  -0.734 -0.0819  0.6963  0.1210
  191MOL0     C25126   7.093   0.245  -0.685  0.1423 -0.1850  0.0630
  191MOL0     O25127   7.310   0.081  -0.499 -0.1295 -0.4280  0.3580
  191MOL0     C25128   7.573   0.304  -0.572 -0.3485  0.0372  0.2499
  191MOL0     C25129   7.703   0.337  -0.534 -0.7873 -0.0039 -0.4560
  191MOL0     N25130   8.252   0.275   0.169 -0.1865 -0.4168  0.0285
  191MOL0     N25131   8.323   0.297   0.280 -0.2907  0.2169 -0.2807
  191MOL0     C25132   9.643   0.653   0.745  0.2950 -0.1200 -0.5979
  191MOL0     C25133   9.785   0.632   0.765  0.0807  0.6193 -0.1861
  191MOL0     C25134  10.217   0.506   0.728  0.7361  0.2777  0.0445
  191MOL0     C25135  10.326   0.585   0.736 -0.5856 -0.1718  0.7816
  191MOL0     C25136  10.456   0.533   0.727 -0.0649  0.7618 -0.2727
  191MOL0     C25137  10.478   0.397   0.701  0.4562 -0.1085 -0.1902
  191MOL0     O25138  10.609   0.351   0.705 -0.1512  0.3105 -0.4320
  191MOL0     C25139  10.644   0.215   0.670  0.1543 -0.4973 -0.7774
  191MOL0     C25140  10.649   0.191   0.516  0.2307 -0.4272 -0.0302
  191MOL0     C25141  10.664   0.048   0.486 -0.1662 -0.5025 -0.4623
  191MOL0     C25142  10.660   0.020   0.339 -0.3354  0.0996 -0.1024
  191MOL0     C25143  10.703  -0.122   0.308  0.1667 -0.3841 -0.1274
  191MOL0     C25144  10.761  -0.219   0.262 -1.0776 -0.2567 -1.0612
  191MOL0     C25145  10.367   0.316   0.681  0.5815 -0.3182  0.3984
  191MOL0     C25146  10.235   0.366   0.693 -0.0696 -0.5071 -0.0332
  191MOL0     H25147   9.805   0.317   0.643  1.8093  0.9495 -0.7785
  191MOL0     H25148   9.552   0.353   0.622 -0.3746 -0.6665  0.1063
  191MOL0     H25149   9.354   0.396   0.640  0.8639 -0.0152 -0.2880
  191MOL0     H25150   9.400   0.494   0.489 -0.6294  3.9268 -0.6175
  191MOL0     H25151   9.186   0.626   0.536 -1.7706 -1.2980 -0.7312
  191MOL0     H25152   9.163   0.534   0.681 -1.2445 -0.6456 -0.1987
  191MOL0     H25153   9.130   0.327   0.532  2.1295  0.3646 -1.5599
  191MOL0     H25154   9.142   0.446   0.392  0.5565 -0.8879 -0.5150
  191MOL0     H25155   8.966   0.439   0.637  1.5721 -2.5447 -0.7661
  191MOL0     H25156   8.972   0.572   0.509  1.0018  0.5516  0.0278
  191MOL0     H25157   8.871   0.282   0.467  0.0058  0.0977 -0.3666
  191MOL0     H25158   8.919   0.395   0.341  0.3510  1.0816  0.8105
  191MOL0     H25159   8.760   0.549   0.409 -2.2065  0.0838 -0.0154
  191MOL0     H25160   8.705   0.439   0.540  0.0052 -0.5234  0.5439
  191MOL0     H25161   8.702   0.376   0.233  0.5205 -1.4826  0.3353
  191MOL0     H25162   8.639   0.273   0.367 -0.3385 -0.2852  0.8462
  191MOL0     H25163   8.542   0.543   0.330 -0.1579 -0.5502 -1.7257
  191MOL0     H25164   8.485   0.421   0.440 -0.5265 -1.8606 -0.7580
  191MOL0     H25165   8.490   0.481   0.073 -1.4853  0.5082  1.3607
  191MOL0     H25166   8.350   0.399  -0.151 -0.7491 -2.0395 -0.9694
  191MOL0     H25167   8.222   0.484  -0.061 -2.1898 -1.2581  0.8599
  191MOL0     H25168   8.083   0.262  -0.060 -1.3501  1.7551 -0.1467
  191MOL0     H25169   8.218   0.205  -0.167  0.6755 -0.6275  1.6537
  191MOL0     H25170   8.069   0.456  -0.230 -0.7822 -0.3976 -1.3260
  191MOL0     H25171   8.138   0.347  -0.342  1.0614  0.6647  1.1839
  191MOL0     H25172   7.892   0.314  -0.183 -0.0170  0.8361 -0.3437
  191MOL0     H25173   7.963   0.171  -0.272 -0.4838 -0.1151  1.3524
  191MOL0     H25174   7.738   0.132  -0.263  1.7608 -1.9595 -2.0749
  191MOL0     H25175   7.501   0.062  -0.348 -1.9621  0.1679 -1.2734
  191MOL0     H25176   7.300   0.027  -0.848  0.3172  0.7171 -0.4465
  191MOL0     H25177   7.069  -0.033  -0.936  0.5540  0.2022  0.9436
  191MOL0     H25178   6.739   0.210  -1.009  0.1209 -0.7396 -1.2635
  191MOL0     H25179   6.700   0.199  -0.835  0.7210 -1.5655  1.1467
  191MOL0     H25180   6.635  -0.028  -0.870 -1.0615  1.9733  2.0469
  191MOL0     H25181   6.633   0.013  -1.048 -0.1927 -0.4614 -0.5728
  191MOL0     H25182   6.477   0.188  -1.029  2.1289 -1.0163 -0.8213
  191MOL0     H25183   6.470   0.171  -0.845 -1.8129  0.1090 -0.7970
  191MOL0     H25184   6.390  -0.049  -1.017 -0.8068 -3.1430  2.5484
  191MOL0     H25185   6.388  -0.038  -0.845 -2.1006  3.6266  3.7456
  191MOL0     H25186   6.241   0.187  -0.953 -0.7942 -0.4860  1.1819
  191MOL0     H25187   6.211   0.077  -0.811  0.0105  0.0736  0.0187
  191MOL0     H25188   6.125  -0.076  -0.985  1.8307 -0.2101  0.7878
  191MOL0     H25189   6.167   0.040  -1.108 -1.0583  0.0598 -0.0808
  191MOL0     H25190   5.976   0.090  -0.865 -1.1080  3.4545  0.2473
  191MOL0     H25191   5.998   0.195  -0.998  0.7579  0.6401  3.6618
  191MOL0     H25192   5.788   0.069  -1.031 -0.5683 -1.1264  0.5854
  191MOL0     H25193   5.872  -0.075  -1.013  0.3101  0.8384  1.6470
  191MOL0     H25194   6.872   0.257  -0.706 -2.0070  0.0800 -4.6417
  191MOL0     H25195   7.094   0.322  -0.608 -1.7924 -0.2328  0.1991
  191MOL0     H25196   7.526   0.360  -0.652  1.1700 -1.4062 -1.7544
  191MOL0     H25197   7.760   0.406  -0.597  1.1729 -0.7369  0.4360
  191MOL0     H25198   9.598   0.746   0.777 -0.8312 -1.3588  1.6547
  191MOL0     H25199   9.843   0.716   0.801 -0.0922 -0.0040  1.6561
  191MOL0     H25200  10.306   0.690   0.759  0.7361  1.0158 -2.7687
  191MOL0     H25201  10.539   0.603   0.729  0.3827  0.3018 -1.7117
  191MOL0     H25202  10.580   0.142   0.720  3.1302 -1.2826  2.2262
  191MOL0     H25203  10.743   0.199   0.713 -0.0927 -1.3441 -0.5179
  191MOL0     H25204  10.559   0.229   0.468  0.2874 -0.8258 -0.4567
  191MOL0     H25205  10.740   0.236   0.475 -0.9208  1.4772 -0.6226
  191MOL0     H25206  10.583  -0.008   0.534 -0.3767 -0.1471 -0.4006
  191MOL0     H25207  10.762   0.025   0.530  0.4559  0.0158 -1.5162
  191MOL0     H25208  10.558   0.038   0.304 -0.2553 -0.9097 -0.8966
  191MOL0     H25209  10.721   0.091   0.283 -0.2246  0.4367  0.4365
  191MOL0     H25210  10.794  -0.314   0.224 -1.0764 -1.3413  1.4528
  191MOL0     H25211  10.389   0.213   0.652 -2.1784 -0.4155 -1.6450
  191MOL0     H25212  10.146   0.304   0.690 -0.1542 -0.4409  0.7913
  192MOL0     O25213   2.867   1.442   3.929  0.1339 -0.1113 -0.3922
  192MOL0     C25214   2.841   1.389   3.826  0.5255 -0.4881  1.3362
  192MOL0     O25215   2.734   1.308   3.807  0.8167  0.6171  0.3201
  192MOL0     C25216   2.681   1.231   3.908  0.0416 -0.0079  0.3178
  192MOL0     C25217   2.551   1.256   3.942 -0.1368 -0.1404  0.3908
  192MOL0     C25218   2.490   1.191   4.052 -0.4721 -0.4243  0.5629
  192MOL0     C25219   2.569   1.099   4.127  0.5801  0.2392 -0.3499
  192MOL0     O25220   2.522   1.039   4.245  0.3152 -0.4732 -0.2229
  192MOL0     C25221   2.391   1.059   4.292  0.4572  0.4834  0.5413
  192MOL0     C25222   2.360   1.199   4.351  0.5627  0.3674  0.6270
  192MOL0     C25223   2.202   1.212   4.346  0.7524  0.5790  0.3587
  192MOL0     C25224   2.135   1.126   4.456 -0.2140  0.7375  1.0421
  192MOL0     C25225   1.989   1.154   4.456  0.6367 -0.6861 -0.3063
  192MOL0     C25226   1.896   1.066   4.553 -0.4822 -0.1642  0.1976
  192MOL0     C25227   1.759   1.133   4.569 -0.7082  0.2116  0.5796
  192MOL0     C25228   1.767   1.262   4.649 -0.3909 -0.0278  0.1012
  192MOL0     N25229   1.640   1.291   4.720  0.6166  0.0162 -0.2691
  192MOL0     C25230   1.587   1.425   4.732 -0.7203  0.8313  0.0676
  192MOL0     C25231   1.490   1.407   4.817  1.3369  0.2905 -0.6167
  192MOL0     C25232   1.393   1.517   4.859  0.4587 -1.0131  0.3694
  192MOL0     C25233   1.280   1.538   4.757  0.0151  0.1298 -0.7519
  192MOL0     C25234   1.146   1.600   4.802  0.0377  0.4252  0.1251
  192MOL0     C25235   1.047   1.613   4.689  0.3083 -0.3397 -0.2494
  192MOL0     O25236   0.934   1.700   4.729  0.3893  0.6291  0.5973
  192MOL0     C25237   0.812   1.655   4.785  0.2431 -0.7872 -0.0402
  192MOL0     C25238   0.794   1.529   4.837 -0.0954  0.1997  1.0073
  192MOL0     C25239   0.673   1.498   4.902  0.0055  0.2308 -0.2403
  192MOL0     C25240   0.564   1.590   4.920  0.4079 -0.6418 -1.0239
  192MOL0     C25241   0.447   1.549   5.000 -0.2927  0.2230 -0.6863
  192MOL0     O25242   0.320   1.597   4.957  0.0906  0.7380 -0.1308
  192MOL0     C25243   0.208   1.554   5.030 -0.5085 -0.1177  0.4005
  192MOL0     C25244   0.184   1.414   5.051  1.1401  0.2636 -0.9398
  192MOL0     C25245   0.077   1.364   5.127  0.4727  0.9174 -0.0919
  192MOL0     C25246   0.002   1.453   5.199  0.9420  0.0029  0.8510
  192MOL0     O25247  -0.089   1.415   5.291 -0.4940 -0.6805 -0.7319
  192MOL0     C25248  -0.062   1.297   5.367  0.3109  0.0716  0.6990
  192MOL0     C25249  -0.142   1.185   5.288 -0.5795  0.1935  0.8747
  192MOL0     C25250  -0.131   1.045   5.358 -0.1304  0.4906 -1.0449
  192MOL0     C25251  -0.227   0.944   5.292  0.4795 -0.3178 -0.2384
  192MOL0     C25252  -0.262   0.819   5.370 -0.3035 -0.6774 -0.2109
  192MOL0     C25253  -0.366   0.839   5.479 -0.6054  0.1750  0.9157
  192MOL0     C25254  -0.441   0.707   5.502  0.7214 -0.5620 -1.3314
  192MOL0     C25255  -0.562   0.712   5.602  0.0731  0.5858 -0.4410
  192MOL0    Cl25256  -0.674   0.587   5.546 -0.1325 -0.5502  0.3982
  192MOL0     C25257   0.018   1.586   5.175  0.8432 -0.0806 -0.3668
  192MOL0     C25258   0.116   1.632   5.093  0.2067  0.2732  0.0938
  192MOL0     O25259   0.472   1.472   5.100  0.6922  0.2712  0.3600
  192MOL0     C25260   0.583   1.714   4.851  0.2811  0.0549  0.6617
  192MOL0     C25261   0.708   1.752   4.793 -0.3802 -0.2953 -0.2616
  192MOL0     N25262   1.494   1.278   4.871  0.9225 -0.2013 -0.2655
  192MOL0     N25263   1.592   1.224   4.826 -0.7206  0.5847  0.0614
  192MOL0     C25264   2.699   1.069   4.088  0.0381 -0.4914 -0.3536
  192MOL0     C25265   2.758   1.137   3.982  0.2050 -0.3117  0.1766
  192MOL0     C25266   2.940   1.404   3.723  0.1678 -0.1288  0.3103
  192MOL0     C25267   2.917   1.352   3.595 -0.2591  0.4094 -0.0500
  192MOL0     C25268   3.011   1.371   3.489 -0.4525  0.0959  0.5342
  192MOL0     C25269   3.118   1.452   3.510  0.9023  0.3810  0.0085
  192MOL0     O25270   3.210   1.491   3.419 -0.3066  0.4598  0.1049
  192MOL0     C25271   3.214   1.434   3.294  0.3950  0.9522 -0.2145
  192MOL0     C25272   3.330   1.491   3.210  0.2045  0.2807  0.4545
  192MOL0     C25273   3.473   1.443   3.259 -0.2915 -0.3219  0.8705
  192MOL0     C25274   3.575   1.498   3.154 -0.2305  0.2798 -0.5458
  192MOL0     C25275   3.712   1.464   3.184 -0.7475 -0.2696 -0.1157
  192MOL0     C25276   3.835   1.448   3.195 -0.5031  0.4290 -0.5289
  192MOL0     C25277   3.137   1.512   3.631 -0.5256 -0.3151  0.7147
  192MOL0     C25278   3.054   1.482   3.744 -0.0891 -0.1664 -0.6892
  192MOL0     H25279   2.490   1.315   3.875 -2.7369 -1.9398  1.0441
  192MOL0     H25280   2.389   1.227   4.071 -0.2560  0.8693 -0.5483
  192MOL0     H25281   2.381   0.987   4.374  1.0398  0.7334  0.8373
  192MOL0     H25282   2.318   1.034   4.214 -1.1607  0.3036  2.0306
  192MOL0     H25283   2.400   1.280   4.289 -2.3908  0.3448 -1.5312
  192MOL0     H25284   2.396   1.201   4.454  1.1595 -0.2941  0.4400
  192MOL0     H25285   2.161   1.176   4.250 -1.2629 -0.5164  1.5530
  192MOL0     H25286   2.167   1.313   4.370  0.0100 -0.2350  3.0761
  192MOL0     H25287   2.164   1.022   4.434 -1.0133  0.4013  1.5518
  192MOL0     H25288   2.176   1.148   4.555  1.5310 -0.1967  0.5800
  192MOL0     H25289   1.949   1.145   4.354 -3.4490  0.0804  1.0302
  192MOL0     H25290   1.981   1.261   4.481 -3.2007 -0.4349 -1.9576
  192MOL0     H25291   1.950   1.057   4.647  0.7424 -0.0539 -0.4802
  192MOL0     H25292   1.879   0.975   4.494 -1.7033 -0.1852  0.5558
  192MOL0     H25293   1.718   1.168   4.474  0.0231  0.4916  0.3602
  192MOL0     H25294   1.688   1.060   4.610 -1.1885 -0.4552 -1.3157
  192MOL0     H25295   1.789   1.349   4.587  0.3490 -0.4800 -0.2925
  192MOL0     H25296   1.838   1.242   4.730  0.2221 -2.5638 -0.9621
  192MOL0     H25297   1.617   1.517   4.683 -1.0093 -0.1373 -2.0340
  192MOL0     H25298   1.437   1.615   4.880 -0.2145 -0.6878  0.2630
  192MOL0     H25299   1.350   1.490   4.956  2.4587 -0.3763  1.5114
  192MOL0     H25300   1.251   1.445   4.708 -0.6053  0.2805 -0.6865
  192MOL0     H25301   1.324   1.601   4.678  1.4546 -0.7010 -0.6448
  192MOL0     H25302   1.105   1.533   4.878  1.3786  1.7331  2.1191
  192MOL0     H25303   1.161   1.697   4.852  0.8248 -0.2545  1.2670
  192MOL0     H25304   1.013   1.518   4.646 -0.3581  0.1299 -0.7927
  192MOL0     H25305   1.090   1.671   4.607  1.1838  1.5690  1.4759
  192MOL0     H25306   0.882   1.465   4.833  0.2853  0.6511  1.8679
  192MOL0     H25307   0.673   1.400   4.950  0.5610  0.5865  0.5147
  192MOL0     H25308   0.249   1.333   5.019 -1.4654 -1.7587 -1.4068
  192MOL0     H25309   0.063   1.258   5.144 -2.0837  1.3749  1.1696
  192MOL0     H25310  -0.100   1.303   5.470  0.7497  1.7762  0.8020
  192MOL0     H25311   0.043   1.269   5.382  0.5459  0.9232  0.6947
  192MOL0     H25312  -0.106   1.169   5.186  0.0211  0.8234  0.9744
  192MOL0     H25313  -0.247   1.215   5.280 -0.9285 -1.4362 -1.9480
  192MOL0     H25314  -0.154   1.039   5.465 -1.9093 -0.0220 -1.4193
  192MOL0     H25315  -0.028   1.013   5.342 -0.5875 -1.7017  0.0333
  192MOL0     H25316  -0.315   0.999   5.259  1.2506  0.2535 -1.4444
  192MOL0     H25317  -0.183   0.912   5.197 -2.2820 -0.1074 -1.6830
  192MOL0     H25318  -0.168   0.774   5.402  0.4383  0.9972  0.1036
  192MOL0     H25319  -0.305   0.757   5.291  0.8828 -0.3501 -1.1383
  192MOL0     H25320  -0.442   0.909   5.444  1.2411  1.1604 -1.3880
  192MOL0     H25321  -0.317   0.878   5.570  4.8917  1.9265 -2.3117
  192MOL0     H25322  -0.479   0.668   5.407 -1.4445 -0.0394 -0.7374
  192MOL0     H25323  -0.368   0.631   5.531  0.2364 -0.7893 -0.6876
  192MOL0     H25324  -0.622   0.803   5.592 -0.4655  0.1654 -1.2290
  192MOL0     H25325  -0.542   0.707   5.709 -0.8465  2.6415 -0.1418
  192MOL0     H25326  -0.055   1.647   5.227  0.8468 -1.3228  1.1985
  192MOL0     H25327   0.136   1.738   5.077 -0.7769  0.5052  0.2901
  192MOL0     H25328   0.500   1.783   4.854  0.2181  0.1057 -1.2110
  192MOL0     H25329   0.727   1.850   4.749 -1.2823  0.7875  1.6138
  192MOL0     H25330   2.767   1.010   4.148  0.2431 -1.3269 -1.3933
  192MOL0     H25331   2.864   1.122   3.962  0.5805  0.5381  1.3917
  192MOL0     H25332   2.832   1.284   3.585 -0.9628  0.5953  3.3473
  192MOL0     H25333   3.016   1.306   3.402  0.0372  1.3556 -0.4190
  192MOL0     H25334   3.121   1.459   3.243 -0.1758  0.0667  0.3598
  192MOL0     H25335   3.222   1.325   3.295 -0.3088  0.8834 -0.8546
  192MOL0     H25336   3.307   1.462   3.107  0.3147  2.7889 -0.3328
  192MOL0     H25337   3.319   1.599   3.218 -1.7697  0.2134 -0.5713
  192MOL0     H25338   3.484   1.335   3.272 -1.1790 -0.3106  1.8312
  192MOL0     H25339   3.504   1.493   3.352  1.8783  0.5292 -0.2326
  192MOL0     H25340   3.555   1.456   3.055 -1.5647  2.6092 -1.3403
  192MOL0     H25341   3.562   1.605   3.139  1.3123  0.5392 -0.1503
  192MOL0     H25342   3.937   1.418   3.212 -0.2103  0.1265 -2.5871
  192MOL0     H25343   3.217   1.586   3.633  0.1467 -1.0309  0.7597
  192MOL0     H25344   3.079   1.536   3.835 -1.8427  2.5597 -1.7048
  193MOL0     O25345   4.916   1.857   6.942 -0.0490 -0.3376 -0.1420
  193MOL0     C25346   4.979   1.963   6.934 -0.6343 -0.4449  0.5246
  193MOL0     O25347   4.933   2.084   6.917 -0.1172 -0.3043  0.3288
  193MOL0     C25348   4.800   2.102   6.878  0.2240 -0.1503 -0.3771
  193MOL0     C25349   4.754   2.144   6.753 -0.7329 -0.8346  0.3730
  193MOL0     C25350   4.616   2.164   6.745  0.0745  1.0879  0.1303
  193MOL0     C25351   4.530   2.143   6.850  0.3117  0.6350  0.2761
  193MOL0     O25352   4.401   2.167   6.823 -0.2748  0.2672 -0.4204
  193MOL0     C25353   4.299   2.104   6.913  0.4662 -0.7188  0.1805
  193MOL0     C25354   4.182   2.056   6.821 -0.3748 -0.0594 -0.0060
  193MOL0     C25355   4.052   1.993   6.883  0.6011 -0.1970  0.2904
  193MOL0     C25356   4.077   1.915   7.006  0.9863  0.1782  0.2756
  193MOL0     C25357   3.946   1.863   7.062  0.3708 -0.1994  0.3809
  193MOL0     C25358   3.836   1.806   6.960 -0.5483  0.3042  0.9211
  193MOL0     C25359   3.732   1.734   7.043  0.3841  0.0890 -0.5432
  193MOL0     C25360   3.609   1.824   7.069  0.0658  0.4483  0.0893
  193MOL0     N25361   3.510   1.762   7.159 -0.2678 -0.4933  0.2099
  193MOL0     C25362   3.403   1.696   7.106 -0.4881  1.2635 -0.0036
  193MOL0     C25363   3.350   1.630   7.210 -0.4419 -0.1942  0.3403
  193MOL0     C25364   3.222   1.553   7.193 -0.1490 -0.5626  0.6900
  193MOL0     C25365   3.096   1.646   7.186 -0.5337  0.4962 -1.1193
  193MOL0     C25366   2.971   1.554   7.176 -0.1659 -0.0505  0.1507
  193MOL0     C25367   2.841   1.633   7.210 -0.5357  0.7407  0.3162
  193MOL0     O25368   2.726   1.553   7.171 -0.2079 -0.8551 -0.0511
  193MOL0     C25369   2.589   1.602   7.176  0.3106 -0.1328 -0.1908
  193MOL0     C25370   2.551   1.722   7.250 -0.4228  0.3800 -0.1440
  193MOL0     C25371   2.424   1.756   7.267  0.5300  0.1181 -0.8527
  193MOL0     C25372   2.315   1.670   7.222 -0.8949 -0.6920  0.1326
  193MOL0     C25373   2.177   1.699   7.252  0.4334 -0.5163 -0.0078
  193MOL0     O25374   2.091   1.597   7.223  0.2897 -0.8918 -0.5387
  193MOL0     C25375   1.950   1.613   7.256  0.7048  0.1450  0.0059
  193MOL0     C25376   1.899   1.515   7.337  0.1872  0.8859  0.0052
  193MOL0     C25377   1.756   1.513   7.363 -0.5665 -0.6487 -0.2313
  193MOL0     C25378   1.670   1.612   7.310 -0.7408  0.1394  0.4548
  193MOL0     O25379   1.549   1.622   7.366  0.2748 -0.3843  0.0687
  193MOL0     C25380   1.465   1.735   7.330  0.2317 -0.3028  1.0928
  193MOL0     C25381   1.339   1.708   7.410  0.0519 -0.6667 -0.1068
  193MOL0     C25382   1.248   1.833   7.406  0.5884  0.1325  0.0804
  193MOL0     C25383   1.113   1.800   7.461 -0.2304  0.4631 -0.2829
  193MOL0     C25384   1.020   1.925   7.458  0.3495  0.2605 -0.1470
  193MOL0     C25385   0.892   1.899   7.516  0.0878  0.8481  0.5756
  193MOL0     C25386   0.815   2.031   7.523  0.0444 -0.2434 -0.1358
  193MOL0     C25387   0.662   2.020   7.534  0.4732 -0.2235  0.5633
  193MOL0    Cl25388   0.605   1.964   7.373 -0.3895 -0.0302  0.4593
  193MOL0     C25389   1.729   1.708   7.227  0.5538  1.4461 -0.2514
  193MOL0     C25390   1.866   1.719   7.203  0.0146 -0.1853 -0.1616
  193MOL0     O25391   2.140   1.808   7.309 -0.1185  0.1797  0.7543
  193MOL0     C25392   2.347   1.558   7.140 -0.4707 -0.1433 -0.8480
  193MOL0     C25393   2.488   1.524   7.118  0.0419 -0.0216  0.4543
  193MOL0     N25394   3.435   1.656   7.321 -0.7843 -1.3723  0.3297
  193MOL0     N25395   3.535   1.728   7.283 -0.3821  0.1183  0.0649
  193MOL0     C25396   4.570   2.098   6.968  0.3391  0.0625 -0.2552
  193MOL0     C25397   4.707   2.086   6.982  0.0700  0.2755 -0.6091
  193MOL0     C25398   5.123   1.951   6.968 -0.7755  0.6551  0.8869
  193MOL0     C25399   5.223   2.032   6.898 -0.9465 -0.3087 -0.3456
  193MOL0     C25400   5.359   2.019   6.922 -1.0410  0.6384  0.2470
  193MOL0     C25401   5.399   1.925   7.011 -0.2896 -0.4608 -0.6418
  193MOL0     O25402   5.529   1.929   7.044 -0.0369 -0.6798 -0.3633
  193MOL0     C25403   5.584   1.840   7.150 -0.2333  0.0265  0.8453
  193MOL0     C25404   5.739   1.838   7.143  0.7834  0.3917 -0.0328
  193MOL0     C25405   5.813   1.958   7.216  0.1515  0.5475  0.3969
  193MOL0     C25406   5.864   1.932   7.364 -0.9425  0.1483  0.0417
  193MOL0     C25407   5.758   1.918   7.456  0.6860  0.4383 -0.6600
  193MOL0     C25408   5.663   1.906   7.535 -0.0034  0.4492 -0.5280
  193MOL0     C25409   5.301   1.833   7.064  0.8548  0.1011 -0.0351
  193MOL0     C25410   5.168   1.846   7.044 -0.2367 -0.4304 -0.6794
  193MOL0     H25411   4.815   2.166   6.665  0.9463  0.4515  1.7913
  193MOL0     H25412   4.579   2.198   6.648 -0.7265 -1.7619 -0.6593
  193MOL0     H25413   4.264   2.178   6.986  1.6821  0.9558 -0.8679
  193MOL0     H25414   4.335   2.018   6.969  0.3378  0.2978  1.9081
  193MOL0     H25415   4.222   1.978   6.756 -0.2575 -0.4119  0.4762
  193MOL0     H25416   4.156   2.144   6.762 -0.2696  2.8837  3.8849
  193MOL0     H25417   4.006   1.924   6.812  0.1050 -0.3812  0.7858
  193MOL0     H25418   3.981   2.071   6.912 -0.3502 -1.0933  0.4348
  193MOL0     H25419   4.140   1.832   6.972  0.0674 -0.8850  1.1119
  193MOL0     H25420   4.129   1.981   7.076  2.4267  1.2490 -1.6878
  193MOL0     H25421   3.898   1.947   7.113  0.9521 -0.2963  1.0957
  193MOL0     H25422   3.971   1.793   7.142  1.8813  0.5798  0.6246
  193MOL0     H25423   3.875   1.731   6.890 -3.4495 -1.5650  1.1474
  193MOL0     H25424   3.802   1.891   6.901  1.6499  3.6323  4.0182
  193MOL0     H25425   3.693   1.647   6.989  1.3074 -3.1205  3.4722
  193MOL0     H25426   3.778   1.711   7.139 -0.2857  5.0725  1.2753
  193MOL0     H25427   3.555   1.836   6.975 -1.0758  0.3715  0.7150
  193MOL0     H25428   3.640   1.923   7.104 -2.1882  1.6662 -1.1106
  193MOL0     H25429   3.352   1.690   7.011 -1.2373  0.7033  0.4208
  193MOL0     H25430   3.208   1.488   7.281  0.6228  0.7074  1.7910
  193MOL0     H25431   3.217   1.481   7.111 -1.1481 -0.9557  1.0766
  193MOL0     H25432   3.109   1.713   7.101  3.3116 -1.4383 -2.3049
  193MOL0     H25433   3.091   1.713   7.273 -2.1625 -1.2089  0.1791
  193MOL0     H25434   2.980   1.504   7.079  2.6235  0.3643  0.1262
  193MOL0     H25435   2.980   1.466   7.240  1.0477  1.0358  1.5162
  193MOL0     H25436   2.825   1.732   7.166 -0.0952  0.9710  0.6707
  193MOL0     H25437   2.827   1.654   7.316 -2.2334  1.3220  0.0143
  193MOL0     H25438   2.623   1.786   7.300  1.3843 -0.1335 -1.9415
  193MOL0     H25439   2.395   1.836   7.334 -2.5324 -2.6061  1.4607
  193MOL0     H25440   1.956   1.431   7.375  1.4540  1.2510 -1.0647
  193MOL0     H25441   1.718   1.433   7.425 -0.6780 -1.8232 -1.7370
  193MOL0     H25442   1.453   1.739   7.222  1.2316 -1.9523  0.8956
  193MOL0     H25443   1.506   1.832   7.359 -0.6445  1.1996 -2.1917
  193MOL0     H25444   1.374   1.692   7.512 -1.0336 -0.9582  0.2293
  193MOL0     H25445   1.282   1.624   7.368 -1.1303  0.3466 -0.5942
  193MOL0     H25446   1.234   1.860   7.301 -1.7854  2.1572  0.8250
  193MOL0     H25447   1.299   1.911   7.462  1.0906  1.1077 -1.6711
  193MOL0     H25448   1.080   1.717   7.398  0.8868 -1.1337  1.1414
  193MOL0     H25449   1.124   1.765   7.564 -1.4104 -2.5108 -1.0627
  193MOL0     H25450   1.010   1.964   7.356  0.1919  0.2158 -0.1497
  193MOL0     H25451   1.061   2.008   7.515 -0.6677  0.4754  0.2893
  193MOL0     H25452   0.920   1.854   7.612 -1.2356 -0.3127  0.4539
  193MOL0     H25453   0.842   1.813   7.470 -3.0560  1.1177  3.1108
  193MOL0     H25454   0.843   2.088   7.612 -1.4368  2.9045 -1.5583
  193MOL0     H25455   0.846   2.098   7.444 -0.3239  1.4478  1.0994
  193MOL0     H25456   0.629   2.123   7.551  2.3815  0.3397  1.1503
  193MOL0     H25457   0.628   1.948   7.609 -0.6540 -0.3662 -0.0633
  193MOL0     H25458   1.671   1.793   7.193 -0.1634  0.8921 -0.4361
  193MOL0     H25459   1.919   1.793   7.144  2.5035 -0.6497  1.2962
  193MOL0     H25460   2.272   1.493   7.097  0.2770 -0.4188 -1.7793
  193MOL0     H25461   2.521   1.444   7.052  1.0987  0.8737 -0.1205
  193MOL0     H25462   4.508   2.076   7.054  1.5433  1.8709  1.1489
  193MOL0     H25463   4.740   2.037   7.073 -1.9795 -0.5158 -0.2247
  193MOL0     H25464   5.192   2.110   6.830  0.3279  0.9899  0.5104
  193MOL0     H25465   5.430   2.087   6.878 -2.5001  1.4029 -1.0094
  193MOL0     H25466   5.543   1.741   7.128  0.2042 -0.0157  0.1904
  193MOL0     H25467   5.554   1.853   7.254  1.5193  1.0471  1.2546
  193MOL0     H25468   5.763   1.742   7.189 -0.8433 -1.0342 -1.9695
  193MOL0     H25469   5.774   1.843   7.039  1.7795 -1.7099  0.1520
  193MOL0     H25470   5.750   2.047   7.208 -2.3336 -1.1847 -1.0029
  193MOL0     H25471   5.906   1.971   7.160 -0.8783  3.2312 -0.8488
  193MOL0     H25472   5.917   1.836   7.363 -3.7231 -1.4988  1.3233
  193MOL0     H25473   5.928   2.011   7.405 -0.8942  0.3372 -0.3894
  193MOL0     H25474   5.579   1.890   7.599  0.2708 -1.9399 -0.6691
  193MOL0     H25475   5.307   1.754   7.139 -5.2823 -1.5622 -0.7748
  193MOL0     H25476   5.102   1.788   7.108  0.2817  0.2497  0.5253
  194MOL0     O25477   8.097   7.731   3.531  0.5114 -0.0869 -0.4945
  194MOL0     C25478   8.133   7.800   3.623  0.4778  0.1828 -0.3223
  194MOL0     O25479   8.141   7.935   3.618  0.2161  0.2979 -0.3870
  194MOL0     C25480   8.074   7.997   3.513  0.1557 -0.5316  0.3307
  194MOL0     C25481   7.931   8.023   3.515 -0.0352 -0.3429  0.7151
  194MOL0     C25482   7.876   8.100   3.410  0.0799  0.3646  0.2404
  194MOL0     C25483   7.962   8.164   3.307  0.4847  0.2504 -0.8179
  194MOL0     O25484   7.916   8.229   3.199 -0.2910  0.3187 -0.1381
  194MOL0     C25485   7.786   8.285   3.206 -0.3185 -0.1360  0.3528
  194MOL0     C25486   7.761   8.352   3.072 -0.2709 -0.2076  0.0174
  194MOL0     C25487   7.612   8.355   3.036 -0.1720 -0.1138  0.0936
  194MOL0     C25488   7.537   8.460   3.115  0.1070  0.2524 -0.1245
  194MOL0     C25489   7.392   8.452   3.076  0.6250  0.3139 -0.7548
  194MOL0     C25490   7.355   8.482   2.934 -0.7756 -0.3993 -0.3315
  194MOL0     C25491   7.211   8.505   2.922  0.5463 -0.2555  1.2124
  194MOL0     C25492   7.159   8.504   2.777 -0.2374  0.1072  0.6875
  194MOL0     N25493   7.044   8.599   2.781  0.4672  1.2544  0.2660
  194MOL0     C25494   6.923   8.556   2.809  0.4156  0.2492  0.5923
  194MOL0     C25495   6.856   8.674   2.818  0.8375 -0.8634 -0.2982
  194MOL0     C25496   6.712   8.677   2.865  0.5308 -0.5221  0.1390
  194MOL0     C25497   6.612   8.637   2.762  0.3396 -0.6592 -0.0793
  194MOL0     C25498   6.635   8.710   2.630  0.2382 -0.7558  0.2177
  194MOL0     C25499   6.508   8.735   2.544  0.3031  0.3454 -0.3565
  194MOL0     O25500   6.426   8.835   2.611  0.3512 -0.3156  0.0121
  194MOL0     C25501   6.287   8.832   2.599 -0.0340  0.1567  0.8525
  194MOL0     C25502   6.209   8.905   2.691 -0.4755 -0.9317  0.1960
  194MOL0     C25503   6.070   8.895   2.708 -0.3222  1.2146  0.9383
  194MOL0     C25504   6.001   8.808   2.622  0.6722 -0.1094  0.6114
  194MOL0     C25505   5.850   8.794   2.629  0.6627  0.1551 -0.1433
  194MOL0     O25506   5.782   8.865   2.728  0.0018 -0.0372  0.2012
  194MOL0     C25507   5.645   8.862   2.723  0.8300  0.5004  0.0796
  194MOL0     C25508   5.571   8.970   2.674 -0.3093 -0.1078  0.3946
  194MOL0     C25509   5.435   8.971   2.664 -0.5856  0.7104  0.2371
  194MOL0     C25510   5.359   8.865   2.708  0.4561  0.6614 -0.4348
  194MOL0     O25511   5.223   8.850   2.702  0.6510 -0.0784 -0.9708
  194MOL0     C25512   5.150   8.948   2.629  0.7016  0.8320 -0.4707
  194MOL0     C25513   5.004   8.909   2.646 -0.4515  0.1129  0.4098
  194MOL0     C25514   4.908   8.995   2.565 -0.3670 -1.0287 -0.4199
  194MOL0     C25515   4.766   8.943   2.594 -1.0176  0.3856 -0.0841
  194MOL0     C25516   4.671   9.036   2.532  0.2371 -0.3117  0.1014
  194MOL0     C25517   4.529   8.971   2.556 -0.2429 -0.6244  0.6027
  194MOL0     C25518   4.422   9.078   2.540  1.0269 -0.0227  0.1128
  194MOL0     C25519   4.274   9.030   2.575  0.0665  0.6125  0.1057
  194MOL0    Cl25520   4.257   8.963   2.734  0.1173  0.0507 -0.2387
  194MOL0     C25521   5.429   8.754   2.774 -0.2432 -0.8077 -0.6203
  194MOL0     C25522   5.573   8.747   2.772 -0.4103 -0.6448  0.0273
  194MOL0     O25523   5.793   8.732   2.545 -0.3408 -0.3802  0.1401
  194MOL0     C25524   6.074   8.742   2.521 -0.3463 -0.2064  0.6386
  194MOL0     C25525   6.214   8.756   2.516 -0.3730 -0.0164  0.4444
  194MOL0     N25526   6.932   8.782   2.789  0.2329  0.1729 -0.7264
  194MOL0     N25527   7.050   8.735   2.770  0.1751  0.6176 -0.1111
  194MOL0     C25528   8.099   8.150   3.320 -0.1630  0.8363 -0.2136
  194MOL0     C25529   8.153   8.067   3.420 -0.7640  0.0446 -0.6646
  194MOL0     C25530   8.172   7.733   3.750  0.7029 -0.7429 -0.7382
  194MOL0     C25531   8.124   7.604   3.779  0.9554 -0.5863  0.7738
  194MOL0     C25532   8.174   7.530   3.882 -0.2504 -0.1486 -0.4672
  194MOL0     C25533   8.275   7.581   3.972 -0.5879 -0.8029  0.2648
  194MOL0     O25534   8.334   7.514   4.076  0.3040 -0.6034  0.3570
  194MOL0     C25535   8.241   7.487   4.182  0.1066 -0.2285  0.0293
  194MOL0     C25536   8.325   7.406   4.281 -0.2543  0.0357 -1.0204
  194MOL0     C25537   8.455   7.474   4.334  0.1419 -0.8347  0.0676
  194MOL0     C25538   8.514   7.389   4.448  0.1631 -0.4547  1.3909
  194MOL0     C25539   8.648   7.448   4.476  0.0859  0.4042 -0.8792
  194MOL0     C25540   8.759   7.478   4.507  0.0186  0.3113 -0.5987
  194MOL0     C25541   8.307   7.717   3.953 -0.6509  0.2345 -0.1677
  194MOL0     C25542   8.253   7.789   3.846 -0.2996 -0.4705  0.1176
  194MOL0     H25543   7.868   7.974   3.588 -1.4763 -0.1985 -0.3797
  194MOL0     H25544   7.769   8.110   3.403 -0.3105 -2.7326  0.3750
  194MOL0     H25545   7.773   8.350   3.292 -1.1658 -0.2654  0.3249
  194MOL0     H25546   7.706   8.213   3.224 -0.1735 -0.0697  1.3082
  194MOL0     H25547   7.808   8.293   2.993  1.0672 -0.2070  0.7927
  194MOL0     H25548   7.798   8.454   3.060  1.7619 -0.6205  2.0938
  194MOL0     H25549   7.562   8.258   3.032 -0.6322  0.1110  0.3588
  194MOL0     H25550   7.617   8.377   2.929 -0.3032  0.3619  0.1825
  194MOL0     H25551   7.554   8.445   3.222 -2.0100 -1.4158  0.0595
  194MOL0     H25552   7.580   8.555   3.082 -0.0235 -0.5328 -2.7508
  194MOL0     H25553   7.339   8.513   3.150  1.0392 -0.2163  0.0068
  194MOL0     H25554   7.351   8.353   3.097  1.4225 -0.2415 -1.7665
  194MOL0     H25555   7.385   8.394   2.877  1.3186 -1.1609  1.7865
  194MOL0     H25556   7.408   8.568   2.893 -0.5894 -1.1204 -1.6931
  194MOL0     H25557   7.151   8.438   2.985 -1.9083  0.1161 -0.5841
  194MOL0     H25558   7.196   8.608   2.955  2.6874  1.2133 -1.8598
  194MOL0     H25559   7.121   8.408   2.742 -0.6998  0.1070  1.1702
  194MOL0     H25560   7.234   8.544   2.708 -0.8286 -0.7110 -0.4711
  194MOL0     H25561   6.894   8.451   2.811 -0.5973  0.3900 -2.2630
  194MOL0     H25562   6.680   8.776   2.899  0.6660 -0.9966  1.7722
  194MOL0     H25563   6.698   8.610   2.950  1.3680 -1.7078 -0.6265
  194MOL0     H25564   6.516   8.673   2.802 -0.3131 -0.4485 -1.7656
  194MOL0     H25565   6.611   8.528   2.758  1.6672 -0.6778 -0.2114
  194MOL0     H25566   6.691   8.803   2.646  1.8180 -1.6805  0.2691
  194MOL0     H25567   6.696   8.647   2.565 -0.1399 -1.7124  0.7689
  194MOL0     H25568   6.459   8.639   2.525  2.7041 -0.6746 -1.9032
  194MOL0     H25569   6.549   8.779   2.453 -0.5601 -2.1411 -2.0604
  194MOL0     H25570   6.253   8.969   2.767  1.5867 -0.1662 -1.5542
  194MOL0     H25571   6.016   8.961   2.774 -0.3837  2.8408 -0.6364
  194MOL0     H25572   5.610   9.063   2.634 -2.6673  0.6281 -0.3299
  194MOL0     H25573   5.384   9.047   2.605  0.4837  0.9139 -0.4518
  194MOL0     H25574   5.176   8.951   2.523  0.3456  2.8642 -0.5263
  194MOL0     H25575   5.170   9.046   2.673 -0.6211  0.4302  1.1333
  194MOL0     H25576   4.978   8.910   2.752  0.0532 -0.6572  0.5467
  194MOL0     H25577   4.998   8.803   2.622 -0.9087  0.0522  0.7732
  194MOL0     H25578   4.920   8.985   2.457  2.4206 -0.6726 -0.2180
  194MOL0     H25579   4.914   9.101   2.592  1.1722 -1.3724  0.6941
  194MOL0     H25580   4.758   8.842   2.554  1.6661 -0.1207  0.4824
  194MOL0     H25581   4.745   8.939   2.701 -1.6920  1.2466 -0.1783
  194MOL0     H25582   4.685   9.056   2.425 -0.0405 -2.6614 -0.4306
  194MOL0     H25583   4.668   9.131   2.587 -2.7089 -1.1007  1.5339
  194MOL0     H25584   4.508   8.938   2.658 -2.3145  1.3462  0.8971
  194MOL0     H25585   4.510   8.896   2.479  2.6953 -1.5203  0.6053
  194MOL0     H25586   4.442   9.159   2.611 -0.6285  0.4466  0.0875
  194MOL0     H25587   4.424   9.116   2.437 -0.6598  0.4848  0.2423
  194MOL0     H25588   4.241   8.963   2.496 -0.1010  0.9623 -0.1226
  194MOL0     H25589   4.215   9.121   2.588  0.7800  1.0021  0.7476
  194MOL0     H25590   5.370   8.684   2.833  0.4577  1.0265  2.4914
  194MOL0     H25591   5.622   8.662   2.820 -2.0655 -2.1280 -0.7961
  194MOL0     H25592   6.020   8.671   2.459 -1.1281 -0.1775  1.2844
  194MOL0     H25593   6.270   8.698   2.443  1.6439  0.9746  1.1316
  194MOL0     H25594   8.174   8.201   3.260 -0.2790  2.5090  1.0056
  194MOL0     H25595   8.259   8.047   3.430 -1.4504 -3.8920  0.7543
  194MOL0     H25596   8.051   7.565   3.709  3.5362 -0.4384 -2.2041
  194MOL0     H25597   8.135   7.433   3.912  1.2854 -0.1507  1.7726
  194MOL0     H25598   8.158   7.430   4.140  0.2512  0.9777 -2.0325
  194MOL0     H25599   8.207   7.580   4.230  0.6266  1.3162 -2.4213
  194MOL0     H25600   8.261   7.401   4.369  1.8261 -0.0724  0.5510
  194MOL0     H25601   8.354   7.310   4.239 -2.8289 -0.4548 -1.8582
  194MOL0     H25602   8.432   7.572   4.377 -0.0685 -1.1249  0.6284
  194MOL0     H25603   8.527   7.489   4.254 -0.7817 -0.7890 -0.7700
  194MOL0     H25604   8.459   7.396   4.543 -1.8858 -0.2503  0.2531
  194MOL0     H25605   8.532   7.284   4.428  0.2228 -0.0639 -0.8309
  194MOL0     H25606   8.862   7.493   4.534  0.0628 -1.0377  0.0345
  194MOL0     H25607   8.375   7.764   4.023 -1.6582  0.3644  0.7568
  194MOL0     H25608   8.292   7.887   3.820 -2.8811  0.1276 -2.0374
  195MOL0     O25609   9.871   6.257   9.856  0.0387  0.5499  0.2102
  195MOL0     C25610   9.976   6.192   9.879 -0.0092  1.8861 -0.0117
  195MOL0     O25611   9.970   6.077   9.947  0.2926 -0.0372  0.1383
  195MOL0     C25612   9.861   6.018  10.004  0.4863 -0.0017  0.0206
  195MOL0     C25613   9.869   5.978  10.137 -0.4420 -0.6017  0.2169
  195MOL0     C25614   9.754   5.932  10.202 -0.8741  0.2524 -0.5451
  195MOL0     C25615   9.631   5.926  10.130  0.2712  0.7592 -1.1702
  195MOL0     O25616   9.511   5.877  10.186  0.3789 -0.6458 -0.1769
  195MOL0     C25617   9.494   5.901  10.332  0.3913  0.5826  0.6432
  195MOL0     C25618   9.366   5.854  10.378 -0.0311 -0.7666  0.0236
  195MOL0     C25619   9.244   5.931  10.336 -0.4227 -0.0835 -0.4348
  195MOL0     C25620   9.202   5.895  10.197 -0.1293 -0.6821  0.5127
  195MOL0     C25621   9.054   5.900  10.179 -0.3304  0.8602 -0.1636
  195MOL0     C25622   9.002   6.043  10.196  0.1789 -0.2236 -0.6112
  195MOL0     C25623   8.852   6.057  10.176 -0.9813 -0.9083  0.2384
  195MOL0     C25624   8.796   6.018  10.040  0.2374 -0.0393 -0.7213
  195MOL0     N25625   8.645   6.028  10.039  0.1125  0.1622  0.1725
  195MOL0     C25626   8.564   6.136  10.065 -0.6414 -0.0540  0.8822
  195MOL0     C25627   8.439   6.083  10.107  0.0015  0.2501 -0.5576
  195MOL0     C25628   8.322   6.162  10.166 -0.7838  0.7960 -0.5565
  195MOL0     C25629   8.192   6.082  10.161 -0.0747  0.2368  0.2233
  195MOL0     C25630   8.121   6.104  10.021 -0.0064 -0.4173 -0.4153
  195MOL0     C25631   7.976   6.055  10.028  0.1485  0.3176 -0.0373
  195MOL0     O25632   7.959   5.918   9.985  0.1282  0.0035  0.2828
  195MOL0     C25633   7.825   5.873   9.996 -0.7584 -0.3852 -0.1104
  195MOL0     C25634   7.716   5.960  10.023  0.0037  0.8082  0.2764
  195MOL0     C25635   7.586   5.906  10.036  0.8344  0.4398  0.8683
  195MOL0     C25636   7.561   5.765  10.016 -0.6362 -0.0831  0.1710
  195MOL0     C25637   7.420   5.703  10.033 -0.3784 -0.7086 -0.5913
  195MOL0     O25638   7.318   5.795  10.053  0.4107  0.0408 -0.1478
  195MOL0     C25639   7.202   5.740  10.068  0.6435 -0.2879  0.2342
  195MOL0     C25640   7.142   5.719  10.195  0.3821 -0.5665 -0.4014
  195MOL0     C25641   7.015   5.646  10.213  0.0579 -0.3408 -0.4521
  195MOL0     C25642   6.942   5.616  10.098  0.4571  0.1831 -0.1271
  195MOL0     O25643   6.824   5.559  10.125  0.3719 -0.0840  0.0292
  195MOL0     C25644   6.731   5.559  10.017  0.7105  1.1807 -0.1454
  195MOL0     C25645   6.586   5.548  10.079  0.1096  0.0776  0.6120
  195MOL0     C25646   6.472   5.495   9.978 -0.0355 -1.0232  1.3816
  195MOL0     C25647   6.328   5.519  10.028 -0.0831 -0.7112 -0.0411
  195MOL0     C25648   6.218   5.500   9.927 -0.0635  0.1150  1.0741
  195MOL0     C25649   6.095   5.560   9.987  0.1128 -0.2501 -0.0524
  195MOL0     C25650   6.014   5.447  10.065  0.6649  0.2014  0.5507
  195MOL0     C25651   5.885   5.505  10.137 -0.5001 -0.2434  0.3388
  195MOL0    Cl25652   5.765   5.379  10.176 -0.0871  0.2707 -0.1243
  195MOL0     C25653   6.999   5.645   9.973 -0.1277  0.3224 -0.2561
  195MOL0     C25654   7.121   5.706   9.954  0.4521  0.5845 -0.2250
  195MOL0     O25655   7.408   5.584  10.027  0.3776 -0.1424  0.2773
  195MOL0     C25656   7.668   5.682   9.980 -0.0238 -0.2286 -1.0872
  195MOL0     C25657   7.798   5.731   9.980  0.0475 -0.3504 -0.0605
  195MOL0     N25658   8.457   5.946  10.085  1.0416 -0.4771 -0.0467
  195MOL0     N25659   8.573   5.910  10.052 -0.4006 -0.1588 -0.0123
  195MOL0     C25660   9.626   5.960  10.002  1.0791 -0.2418  0.0651
  195MOL0     C25661   9.745   6.007   9.936 -0.1084  0.0240 -0.0473
  195MOL0     C25662  10.111   6.244   9.840  0.5075  0.3093  0.1851
  195MOL0     C25663  10.113   6.373   9.792  0.1356 -0.3301 -0.4744
  195MOL0     C25664  10.232   6.439   9.760 -0.4770 -0.1018  0.5746
  195MOL0     C25665  10.358   6.376   9.782 -1.3431  0.5036  0.1615
  195MOL0     O25666  10.484   6.417   9.740  0.5898  0.3873 -0.0541
  195MOL0     C25667  10.496   6.547   9.676  0.0917 -0.2068  0.2031
  195MOL0     C25668  10.642   6.587   9.636  0.0993 -0.7268 -0.1466
  195MOL0     C25669  10.733   6.594   9.761  0.1372  0.4324 -0.7700
  195MOL0     C25670  10.771   6.739   9.792 -0.0583 -0.4924 -0.7672
  195MOL0     C25671  10.846   6.803   9.691  0.3747  0.6496 -0.7832
  195MOL0     C25672  10.917   6.859   9.611 -0.2493  0.6319 -0.1016
  195MOL0     C25673  10.354   6.249   9.840 -0.0506  0.4238 -0.1032
  195MOL0     C25674  10.231   6.188   9.870  0.4703 -0.1664  0.6005
  195MOL0     H25675   9.965   5.983  10.187 -0.1158 -2.9528 -0.0296
  195MOL0     H25676   9.760   5.898  10.304 -0.6603 -0.2126 -0.7103
  195MOL0     H25677   9.510   6.006  10.355  1.5743  1.0399 -1.8849
  195MOL0     H25678   9.571   5.848  10.389  0.7274  2.7969  2.3868
  195MOL0     H25679   9.369   5.866  10.487 -2.0162 -1.0909  0.1512
  195MOL0     H25680   9.350   5.746  10.374  0.0334 -0.9462  2.7963
  195MOL0     H25681   9.258   6.040  10.341 -1.1109  0.0074 -0.3204
  195MOL0     H25682   9.164   5.912  10.409  0.9265 -0.7785  0.9177
  195MOL0     H25683   9.250   5.966  10.128 -1.4840 -0.7088 -0.4867
  195MOL0     H25684   9.242   5.796  10.176  0.2030 -0.3708 -0.3419
  195MOL0     H25685   8.997   5.839  10.251 -1.4243 -0.4412 -2.0484
  195MOL0     H25686   9.029   5.871  10.077 -1.1376  0.8930  0.0122
  195MOL0     H25687   9.055   6.122  10.142 -0.5368  1.3304  0.9013
  195MOL0     H25688   9.024   6.074  10.298 -0.0016  2.7650 -1.3831
  195MOL0     H25689   8.798   5.994  10.247  0.5815 -0.9124  1.4560
  195MOL0     H25690   8.833   6.161  10.206  0.4905 -0.3382 -0.6979
  195MOL0     H25691   8.832   5.917  10.021 -2.3327 -1.0605 -0.4843
  195MOL0     H25692   8.844   6.081   9.964 -0.1284 -1.3329 -2.0534
  195MOL0     H25693   8.589   6.241  10.076 -1.9196  0.3198  0.3934
  195MOL0     H25694   8.313   6.259  10.118 -0.5130  0.3639 -1.5108
  195MOL0     H25695   8.341   6.196  10.268 -0.0174  1.4590 -0.9040
  195MOL0     H25696   8.134   6.121  10.246  0.7548  0.8784  0.5104
  195MOL0     H25697   8.215   5.977  10.180  0.2394  0.0953 -0.8895
  195MOL0     H25698   8.123   6.213  10.009  1.0777 -0.4322 -0.4528
  195MOL0     H25699   8.173   6.051   9.941 -2.2472 -1.4391 -1.2724
  195MOL0     H25700   7.920   6.118   9.957  1.5494 -2.7117 -4.2524
  195MOL0     H25701   7.948   6.067  10.133  0.1806 -0.9111  0.1237
  195MOL0     H25702   7.722   6.068  10.028 -0.9441  0.8191  1.5273
  195MOL0     H25703   7.502   5.973  10.051 -0.6124 -0.9750 -0.4801
  195MOL0     H25704   7.200   5.760  10.277 -1.8194  0.1385  0.8630
  195MOL0     H25705   6.972   5.626  10.311 -0.6557 -0.0069 -0.6838
  195MOL0     H25706   6.738   5.474   9.948  0.9983  3.0160 -2.4671
  195MOL0     H25707   6.741   5.649   9.957 -2.7074  0.6550 -1.7961
  195MOL0     H25708   6.562   5.648  10.118 -1.6357  0.4963 -1.3649
  195MOL0     H25709   6.587   5.491  10.172 -1.4022  0.6566  1.0094
  195MOL0     H25710   6.489   5.392   9.947  0.1261 -0.6285  0.0888
  195MOL0     H25711   6.491   5.548   9.884  1.4322 -0.4769  1.9650
  195MOL0     H25712   6.322   5.449  10.112  2.6205  1.6569  2.3374
  195MOL0     H25713   6.318   5.615  10.079  1.7387 -0.9386  0.8465
  195MOL0     H25714   6.200   5.393   9.912 -0.0876  0.2241  0.3074
  195MOL0     H25715   6.234   5.540   9.827 -1.7783  2.4315  1.6355
  195MOL0     H25716   6.025   5.592   9.909  0.2129  3.4990  1.2215
  195MOL0     H25717   6.112   5.650  10.046 -1.7578 -0.3555  0.7160
  195MOL0     H25718   5.991   5.364   9.998  0.0213  0.8322 -0.0333
  195MOL0     H25719   6.067   5.406  10.152 -0.3579  1.7178  1.9568
  195MOL0     H25720   5.836   5.563  10.058  0.7101 -1.4014 -1.3316
  195MOL0     H25721   5.913   5.571  10.219  0.5735  0.9547 -0.9538
  195MOL0     H25722   6.937   5.620   9.888  1.9548 -3.8130 -0.8001
  195MOL0     H25723   7.148   5.744   9.856  1.4399  2.3799  0.6881
  195MOL0     H25724   7.661   5.575   9.998  1.6380  0.0990  2.3810
  195MOL0     H25725   7.883   5.665   9.967  2.6672  1.6686  4.3472
  195MOL0     H25726   9.532   5.941   9.950  2.3613  1.6751 -3.2323
  195MOL0     H25727   9.728   6.042   9.835  0.2655  1.4990  0.3759
  195MOL0     H25728  10.021   6.431   9.783  0.0283 -0.6007 -1.1342
  195MOL0     H25729  10.235   6.536   9.712  1.2157 -0.0224  0.7828
  195MOL0     H25730  10.455   6.630   9.734 -0.1243 -0.8351  0.9813
  195MOL0     H25731  10.440   6.546   9.582  5.8964 -1.2019 -3.8089
  195MOL0     H25732  10.691   6.506   9.581 -0.6113 -1.3137  0.0677
  195MOL0     H25733  10.641   6.673   9.569 -0.8498 -1.1833 -0.7341
  195MOL0     H25734  10.822   6.536   9.735 -0.1825  0.3770 -1.7651
  195MOL0     H25735  10.686   6.546   9.847  0.2868  1.6616  0.0334
  195MOL0     H25736  10.674   6.788   9.807 -0.6570 -1.4602 -1.2975
  195MOL0     H25737  10.823   6.742   9.888  0.9793  1.4675 -1.3578
  195MOL0     H25738  10.970   6.925   9.546 -1.2916 -0.0461 -1.6876
  195MOL0     H25739  10.442   6.188   9.856 -0.1207  0.5506  0.7990
  195MOL0     H25740  10.240   6.091   9.917  5.7063 -0.2663  0.0288
  196MOL0     O25741   2.156   0.312   6.372  0.1665 -0.1060 -0.8070
  196MOL0     C25742   2.144   0.337   6.253 -0.3981 -0.1447 -0.6318
  196MOL0     O25743   2.026   0.354   6.188  0.5871  0.3394 -0.0341
  196MOL0     C25744   1.913   0.323   6.259  0.1774  0.2383 -0.2281
  196MOL0     C25745   1.823   0.234   6.203 -0.2660  0.2235  0.1117
  196MOL0     C25746   1.697   0.214   6.268  0.0146 -0.3786 -0.1559
  196MOL0     C25747   1.664   0.288   6.383  0.1771 -0.1041 -0.1928
  196MOL0     O25748   1.546   0.282   6.458  0.0660  0.8026 -0.1067
  196MOL0     C25749   1.484   0.154   6.459  0.0991 -0.5844 -0.0529
  196MOL0     C25750   1.579   0.035   6.507  0.5512 -0.2782 -0.1850
  196MOL0     C25751   1.659   0.071   6.635 -0.3968 -0.1748 -0.4337
  196MOL0     C25752   1.699  -0.047   6.720  0.7752 -0.9907  0.2670
  196MOL0     C25753   1.822  -0.008   6.802  0.1572 -0.6487 -0.5791
  196MOL0     C25754   1.856  -0.100   6.930  0.8369 -0.4269 -0.0551
  196MOL0     C25755   1.970  -0.053   7.025 -0.2497  0.8252 -0.2578
  196MOL0     C25756   1.934   0.073   7.101  1.2039  0.0078 -0.0185
  196MOL0     N25757   2.031   0.108   7.204  0.4542  0.2681  0.0590
  196MOL0     C25758   2.153   0.174   7.191  0.1532 -0.1043 -0.1579
  196MOL0     C25759   2.198   0.186   7.311  0.2886 -0.0740 -0.4056
  196MOL0     C25760   2.325   0.242   7.358 -0.4007  0.3688  0.3774
  196MOL0     C25761   2.437   0.148   7.391 -0.2633 -0.6497  0.0298
  196MOL0     C25762   2.542   0.221   7.467  0.2080  0.4736  0.7675
  196MOL0     C25763   2.677   0.141   7.471 -0.5275 -0.3708  1.4884
  196MOL0     O25764   2.778   0.204   7.553 -0.1066  0.2353  0.5502
  196MOL0     C25765   2.854   0.304   7.503 -0.5236 -0.0448  0.2163
  196MOL0     C25766   2.833   0.362   7.385  0.0339  0.5239 -0.0981
  196MOL0     C25767   2.914   0.454   7.329 -0.7414  0.4833 -0.2784
  196MOL0     C25768   3.028   0.508   7.392  0.0888  0.6252  0.5206
  196MOL0     C25769   3.113   0.611   7.332  0.4875  0.8078  0.2175
  196MOL0     O25770   3.223   0.648   7.402  0.1166  0.0907 -0.4518
  196MOL0     C25771   3.307   0.751   7.372 -0.3627 -0.5946  0.6085
  196MOL0     C25772   3.411   0.781   7.465  1.0163  0.4818  0.1963
  196MOL0     C25773   3.498   0.894   7.449 -0.6650 -0.9250 -0.3825
  196MOL0     C25774   3.501   0.965   7.328  0.9948 -0.1456 -0.3597
  196MOL0     O25775   3.573   1.083   7.331 -0.1951  0.6091 -0.3388
  196MOL0     C25776   3.539   1.194   7.247 -1.0249  0.9285 -0.0855
  196MOL0     C25777   3.579   1.331   7.294  1.0519 -0.4485 -0.1785
  196MOL0     C25778   3.715   1.326   7.365  0.1043  0.0551 -0.0314
  196MOL0     C25779   3.764   1.469   7.378 -0.5574  0.3855 -0.0952
  196MOL0     C25780   3.907   1.449   7.441 -0.2457  1.0326  0.3406
  196MOL0     C25781   3.989   1.579   7.447  0.0572 -1.0571 -0.2058
  196MOL0     C25782   3.899   1.701   7.495 -0.3297  0.5718  0.9375
  196MOL0     C25783   3.981   1.798   7.574 -1.2226  0.8716  0.1169
  196MOL0    Cl25784   4.101   1.886   7.466 -0.3335 -0.2036  0.1656
  196MOL0     C25785   3.409   0.925   7.228  0.2752 -0.4081 -0.7203
  196MOL0     C25786   3.317   0.819   7.246 -0.7111  0.2397  0.4964
  196MOL0     O25787   3.067   0.665   7.240  0.6985  0.0569 -0.5784
  196MOL0     C25788   3.050   0.451   7.520 -0.4731  0.8915 -0.4756
  196MOL0     C25789   2.964   0.356   7.576 -0.3320  0.4542 -0.0445
  196MOL0     N25790   2.115   0.123   7.398 -0.0227 -0.8085 -0.5723
  196MOL0     N25791   2.012   0.075   7.334 -0.0993  0.4234  0.4198
  196MOL0     C25792   1.758   0.382   6.433 -0.3986 -0.7308 -0.0292
  196MOL0     C25793   1.890   0.398   6.381 -0.0190 -0.6932  0.4363
  196MOL0     C25794   2.272   0.380   6.196  0.3150 -0.1305  0.6283
  196MOL0     C25795   2.258   0.442   6.074 -0.7354  0.0537  0.5026
  196MOL0     C25796   2.374   0.495   6.009 -0.2391  0.2931 -0.5320
  196MOL0     C25797   2.497   0.485   6.070  0.1109  0.1263  0.7824
  196MOL0     O25798   2.601   0.548   6.000  0.2957  0.1441 -0.0071
  196MOL0     C25799   2.728   0.567   6.064  0.2180 -0.8215  0.7254
  196MOL0     C25800   2.813   0.683   6.016 -0.0291  0.3367  0.0656
  196MOL0     C25801   2.758   0.820   6.062  0.2193 -0.3973 -0.1768
  196MOL0     C25802   2.800   0.868   6.201 -0.1591  0.0427 -0.7432
  196MOL0     C25803   2.727   0.819   6.314 -0.5514  1.2344 -0.1277
  196MOL0     C25804   2.664   0.774   6.414 -0.4984  0.3668  0.3412
  196MOL0     C25805   2.511   0.430   6.197  0.0422 -0.2154 -0.9323
  196MOL0     C25806   2.397   0.371   6.255 -0.4351  0.8072 -0.3443
  196MOL0     H25807   1.841   0.171   6.116 -2.6347  0.7992 -0.8754
  196MOL0     H25808   1.625   0.149   6.219 -3.3282  1.7321  1.6027
  196MOL0     H25809   1.439   0.136   6.361 -0.7052 -0.7127  0.3388
  196MOL0     H25810   1.399   0.163   6.526  0.2231 -1.3804  0.2181
  196MOL0     H25811   1.649  -0.004   6.433  0.3723 -0.2818 -0.3547
  196MOL0     H25812   1.520  -0.050   6.543  1.1335  0.8401  3.9353
  196MOL0     H25813   1.608   0.150   6.691  1.3281 -0.0106  0.9948
  196MOL0     H25814   1.750   0.110   6.588 -0.9520  0.8402 -0.6982
  196MOL0     H25815   1.610  -0.072   6.778 -0.6314  2.1231 -0.3304
  196MOL0     H25816   1.728  -0.127   6.651  1.9563  0.4086 -0.9380
  196MOL0     H25817   1.794   0.091   6.838 -3.0295 -0.9154 -1.9677
  196MOL0     H25818   1.908   0.007   6.736 -1.0823 -0.7185 -2.2689
  196MOL0     H25819   1.869  -0.201   6.891 -1.1483  0.2097 -2.6455
  196MOL0     H25820   1.760  -0.098   6.983 -0.8952  2.7910 -2.9409
  196MOL0     H25821   2.001  -0.133   7.093  0.1674  1.3009  0.1166
  196MOL0     H25822   2.064  -0.046   6.968 -0.1616 -1.5246 -0.5104
  196MOL0     H25823   1.837   0.057   7.149  2.0121 -1.3690  1.2746
  196MOL0     H25824   1.929   0.156   7.030  0.5021 -0.2156 -0.2356
  196MOL0     H25825   2.189   0.198   7.091  2.5409 -4.0851 -0.4792
  196MOL0     H25826   2.305   0.296   7.451 -0.0564 -0.8265  1.1708
  196MOL0     H25827   2.367   0.312   7.284 -0.3888 -1.4110 -1.3932
  196MOL0     H25828   2.482   0.100   7.303 -0.4465  0.8269 -0.9025
  196MOL0     H25829   2.407   0.061   7.449  0.5114 -0.3541  0.8944
  196MOL0     H25830   2.572   0.315   7.419 -0.2634  0.5623  0.6397
  196MOL0     H25831   2.515   0.235   7.572  5.8247 -1.5273  2.8441
  196MOL0     H25832   2.716   0.116   7.372 -0.4482 -2.1320  1.9229
  196MOL0     H25833   2.656   0.039   7.506 -1.2999 -0.6151  0.3439
  196MOL0     H25834   2.745   0.338   7.326 -0.8157  1.0580  0.9253
  196MOL0     H25835   2.896   0.476   7.224  1.8873  1.1715 -0.6530
  196MOL0     H25836   3.409   0.729   7.561  1.3195 -2.1079 -1.1267
  196MOL0     H25837   3.563   0.928   7.530  0.0768 -1.7536 -0.6133
  196MOL0     H25838   3.432   1.205   7.230 -1.5961 -0.4164  2.2180
  196MOL0     H25839   3.593   1.182   7.152 -0.3690  1.2434  0.2441
  196MOL0     H25840   3.496   1.377   7.347  0.5371 -1.1903 -0.3206
  196MOL0     H25841   3.577   1.398   7.207  2.8182 -1.0713 -0.7475
  196MOL0     H25842   3.782   1.277   7.294  0.5388 -3.0681  2.3302
  196MOL0     H25843   3.720   1.275   7.462  0.3389  2.9412  1.5710
  196MOL0     H25844   3.773   1.531   7.288  1.3340  1.4997  0.8075
  196MOL0     H25845   3.694   1.518   7.447 -1.4315 -1.4011  0.3571
  196MOL0     H25846   3.960   1.378   7.377 -0.2745  0.3704  1.0405
  196MOL0     H25847   3.899   1.404   7.540  0.0198 -0.7040 -0.3906
  196MOL0     H25848   4.039   1.602   7.352 -1.8630 -1.9572 -1.5151
  196MOL0     H25849   4.065   1.569   7.525 -1.3985  1.5815  1.6770
  196MOL0     H25850   3.850   1.745   7.408  0.7481 -0.3324 -0.1579
  196MOL0     H25851   3.829   1.661   7.569  1.6548  0.4963  2.8792
  196MOL0     H25852   4.036   1.746   7.653  0.5880  0.9344 -1.0418
  196MOL0     H25853   3.918   1.877   7.616 -0.0921  2.3296 -0.8326
  196MOL0     H25854   3.411   0.991   7.142 -1.0204  1.6726  0.7612
  196MOL0     H25855   3.261   0.790   7.158  2.5150 -0.9520 -1.3387
  196MOL0     H25856   3.138   0.484   7.573  0.4465 -0.8588 -0.8269
  196MOL0     H25857   2.995   0.320   7.674  0.1464  2.8068  0.7403
  196MOL0     H25858   1.737   0.430   6.528 -1.3006  1.2870 -1.2042
  196MOL0     H25859   1.960   0.468   6.425 -1.5756 -0.4916  2.7728
  196MOL0     H25860   2.162   0.457   6.025  0.4399 -0.2391 -2.0723
  196MOL0     H25861   2.365   0.544   5.913 -5.0150  0.1198 -0.4017
  196MOL0     H25862   2.788   0.476   6.061  1.8038  0.2218 -0.5832
  196MOL0     H25863   2.708   0.586   6.170  1.2498  2.2087  0.4510
  196MOL0     H25864   2.922   0.678   6.030 -0.3069  0.1858  2.7821
  196MOL0     H25865   2.807   0.668   5.908  0.6006 -2.3262  0.3276
  196MOL0     H25866   2.650   0.822   6.045 -0.3487  4.1946  2.4206
  196MOL0     H25867   2.800   0.894   5.994 -0.0520  1.7372  1.8443
  196MOL0     H25868   2.904   0.842   6.223 -0.5396 -0.6940  0.2707
  196MOL0     H25869   2.780   0.975   6.196  1.8651  0.4711 -0.4648
  196MOL0     H25870   2.626   0.746   6.510 -0.0281 -0.7013  0.2333
  196MOL0     H25871   2.603   0.425   6.255  0.7498 -0.5901 -2.0502
  196MOL0     H25872   2.419   0.328   6.353  0.0952  0.2502 -0.7035
  197MOL0     O25873   0.858   8.693   6.827  0.2985 -0.0678 -0.0355
  197MOL0     C25874   0.891   8.585   6.786 -0.9234  0.6259 -0.2876
  197MOL0     O25875   0.799   8.495   6.729 -0.1237 -0.0445 -0.3726
  197MOL0     C25876   0.667   8.534   6.731 -0.5524  0.5841 -0.1053
  197MOL0     C25877   0.611   8.564   6.611  0.2185 -0.1796 -0.2847
  197MOL0     C25878   0.474   8.585   6.589  0.0849 -0.5209 -0.8936
  197MOL0     C25879   0.383   8.584   6.698  0.2596 -0.4192  0.4833
  197MOL0     O25880   0.254   8.626   6.671 -0.3053  0.4538 -0.2448
  197MOL0     C25881   0.168   8.674   6.777 -0.2490 -0.0804  0.0327
  197MOL0     C25882   0.039   8.736   6.713 -0.2611  0.6880 -1.3813
  197MOL0     C25883  -0.049   8.624   6.639 -0.3799  0.0150 -1.0331
  197MOL0     C25884  -0.179   8.689   6.601  0.8894 -0.1259  0.2447
  197MOL0     C25885  -0.279   8.587   6.534 -0.5395 -0.9753 -0.7538
  197MOL0     C25886  -0.404   8.662   6.484 -0.1087  0.2553  0.7297
  197MOL0     C25887  -0.413   8.692   6.333  0.8660 -0.6786  0.9627
  197MOL0     C25888  -0.299   8.790   6.299  0.1735 -0.2966 -0.1358
  197MOL0     N25889  -0.320   8.876   6.178 -0.8715 -0.2205 -0.5134
  197MOL0     C25890  -0.332   8.827   6.047  0.5168  0.2751  0.1876
  197MOL0     C25891  -0.357   8.944   5.976  0.3339  0.8008  0.5031
  197MOL0     C25892  -0.379   8.951   5.830  0.3901 -0.2069  1.0475
  197MOL0     C25893  -0.529   8.932   5.795 -0.2043  0.5768 -0.2140
  197MOL0     C25894  -0.582   9.064   5.788  0.2973 -0.6653  0.8929
  197MOL0     C25895  -0.735   9.066   5.767 -0.1192  0.9913 -0.1623
  197MOL0     O25896  -0.800   9.005   5.875 -0.1361 -0.3190  0.7647
  197MOL0     C25897  -0.937   9.002   5.881  0.8307  1.0199  0.2224
  197MOL0     C25898  -1.019   9.027   5.768  0.6542  0.3106 -0.2309
  197MOL0     C25899  -1.162   9.022   5.782  0.4644 -0.6329  0.7866
  197MOL0     C25900  -1.225   8.985   5.905  0.2054 -0.5339 -0.5535
  197MOL0     C25901  -1.373   8.975   5.913  0.8946  0.0994 -0.3895
  197MOL0     O25902  -1.447   8.967   5.799  0.1469  0.3249  0.4000
  197MOL0     C25903  -1.581   8.987   5.804 -0.6205 -0.3002  0.6132
  197MOL0     C25904  -1.673   8.885   5.760 -0.0143 -0.5078  0.6321
  197MOL0     C25905  -1.819   8.913   5.775  0.3677 -0.7591 -0.3314
  197MOL0     C25906  -1.865   9.026   5.841  0.1092 -0.3934  0.3302
  197MOL0     O25907  -2.003   9.033   5.855  0.4451 -0.0937  0.8664
  197MOL0     C25908  -2.050   9.111   5.966 -0.3978  0.4163  0.2703
  197MOL0     C25909  -2.195   9.091   5.986 -0.3789 -0.7113 -0.5534
  197MOL0     C25910  -2.282   9.156   5.891 -0.1102 -0.6848  0.5705
  197MOL0     C25911  -2.434   9.127   5.892  0.1785 -0.1298 -0.0158
  197MOL0     C25912  -2.514   9.199   5.782 -0.2071 -0.4621  0.7338
  197MOL0     C25913  -2.663   9.171   5.794  0.6114 -0.2288 -0.2656
  197MOL0     C25914  -2.733   9.242   5.675 -0.4177  0.5298 -0.3584
  197MOL0     C25915  -2.880   9.202   5.650  0.0039  0.3860 -0.6692
  197MOL0    Cl25916  -2.965   9.198   5.797  0.0635 -0.2648 -0.0068
  197MOL0     C25917  -1.770   9.127   5.884  0.0595  0.7675  0.0502
  197MOL0     C25918  -1.628   9.105   5.859  0.6645 -0.1829  0.6439
  197MOL0     O25919  -1.419   8.979   6.029 -0.4844 -0.1731  0.2492
  197MOL0     C25920  -1.136   8.953   6.016  0.5229 -0.1795  0.2194
  197MOL0     C25921  -0.997   8.961   6.000  0.1568 -0.3819  0.0560
  197MOL0     N25922  -0.368   9.051   6.062 -0.1271 -0.7317 -0.7524
  197MOL0     N25923  -0.346   9.007   6.182  0.0793  0.4132  0.2674
  197MOL0     C25924   0.440   8.553   6.820 -0.8269 -0.2300  0.1833
  197MOL0     C25925   0.582   8.536   6.839 -0.0793  0.0670 -0.1045
  197MOL0     C25926   1.020   8.536   6.815 -0.2271 -0.0031  0.3838
  197MOL0     C25927   1.034   8.402   6.848 -0.6447  0.2270 -0.1558
  197MOL0     C25928   1.159   8.350   6.879 -0.2742 -0.8970 -0.1294
  197MOL0     C25929   1.277   8.434   6.884  0.1123 -0.2578 -0.4087
  197MOL0     O25930   1.396   8.375   6.905  0.5635 -0.2639  0.3449
  197MOL0     C25931   1.503   8.447   6.975 -0.3225  0.2651  1.1304
  197MOL0     C25932   1.638   8.380   6.966  0.3521 -0.3056  0.7036
  197MOL0     C25933   1.698   8.362   6.825  0.1402  0.6899 -0.8066
  197MOL0     C25934   1.844   8.309   6.829 -0.1350  0.2388 -1.2237
  197MOL0     C25935   1.908   8.336   6.699  0.3242 -0.0085  1.3419
  197MOL0     C25936   1.966   8.361   6.595 -0.3549 -0.1686 -0.4482
  197MOL0     C25937   1.256   8.577   6.863 -0.6520  0.7938  0.5129
  197MOL0     C25938   1.131   8.626   6.825 -0.3414 -0.8132 -0.1771
  197MOL0     H25939   0.681   8.564   6.528  2.3099  2.8830  1.3078
  197MOL0     H25940   0.444   8.590   6.485  2.4672  0.8869 -1.6013
  197MOL0     H25941   0.226   8.749   6.832  0.6145 -0.5740 -0.1828
  197MOL0     H25942   0.146   8.582   6.833  0.7211 -0.2789  0.1126
  197MOL0     H25943   0.068   8.815   6.643  1.9316  1.0226 -0.1855
  197MOL0     H25944  -0.016   8.802   6.781  0.1205  2.4458 -2.6993
  197MOL0     H25945  -0.062   8.535   6.702 -0.1058  0.1638 -0.7620
  197MOL0     H25946   0.008   8.586   6.554  2.8941  0.1651  0.8922
  197MOL0     H25947  -0.232   8.729   6.688 -1.3161  2.9091 -2.2418
  197MOL0     H25948  -0.162   8.775   6.535 -2.3923 -0.1575 -0.7840
  197MOL0     H25949  -0.325   8.524   6.610  1.1430  0.3085  1.4597
  197MOL0     H25950  -0.229   8.530   6.455  0.2039 -0.0750 -0.9460
  197MOL0     H25951  -0.415   8.754   6.541 -1.1383  0.6105 -0.0034
  197MOL0     H25952  -0.498   8.611   6.510 -0.9211  0.3687 -1.7135
  197MOL0     H25953  -0.414   8.604   6.268 -2.1416 -0.3498  0.4189
  197MOL0     H25954  -0.510   8.742   6.323  0.4888 -1.5733 -0.1470
  197MOL0     H25955  -0.203   8.741   6.281  1.6229  2.0661  0.7298
  197MOL0     H25956  -0.282   8.851   6.388  0.3563 -1.1817  0.4555
  197MOL0     H25957  -0.318   8.725   6.013  1.9166 -0.1912  2.0220
  197MOL0     H25958  -0.317   8.875   5.780  1.0751  0.6724  0.5297
  197MOL0     H25959  -0.349   9.045   5.783 -4.6448  2.4265  2.4170
  197MOL0     H25960  -0.583   8.887   5.879 -1.6523  1.6509 -0.5302
  197MOL0     H25961  -0.536   8.877   5.700 -2.3065 -0.1935  0.3312
  197MOL0     H25962  -0.550   9.106   5.884  1.9517 -0.2191  0.1864
  197MOL0     H25963  -0.542   9.123   5.705 -0.9759  0.3662  0.9758
  197MOL0     H25964  -0.759   9.025   5.668  0.0363  0.3164  0.0738
  197MOL0     H25965  -0.764   9.171   5.775  0.0797  0.9018  2.9487
  197MOL0     H25966  -0.981   9.040   5.667  0.4290 -0.1748 -0.3817
  197MOL0     H25967  -1.229   9.039   5.698 -1.2258 -1.2125  1.9596
  197MOL0     H25968  -1.629   8.801   5.707  0.4851 -1.1789  2.0577
  197MOL0     H25969  -1.894   8.841   5.746  0.6616 -1.9951  1.7866
  197MOL0     H25970  -2.028   9.215   5.938 -0.0377  0.0108 -1.0018
  197MOL0     H25971  -1.995   9.073   6.053 -2.2298 -1.5351  0.6521
  197MOL0     H25972  -2.229   9.123   6.085  0.7379 -1.3869  0.0674
  197MOL0     H25973  -2.211   8.982   5.984  1.6996 -1.0599 -1.8699
  197MOL0     H25974  -2.249   9.131   5.789 -3.0304  1.8368 -1.1813
  197MOL0     H25975  -2.267   9.262   5.913  0.1584 -1.2028  3.1160
  197MOL0     H25976  -2.454   9.020   5.886 -1.6883  0.2481 -1.5267
  197MOL0     H25977  -2.468   9.170   5.986 -2.9956  0.5811 -1.3544
  197MOL0     H25978  -2.475   9.147   5.694  0.0977  0.7813  0.1119
  197MOL0     H25979  -2.496   9.306   5.771 -3.9504  0.0733 -2.5483
  197MOL0     H25980  -2.700   9.213   5.888  0.5963 -1.6201  0.3770
  197MOL0     H25981  -2.688   9.066   5.809  0.6383 -0.4184 -1.4070
  197MOL0     H25982  -2.720   9.348   5.700  1.3240  0.6782 -1.6687
  197MOL0     H25983  -2.680   9.229   5.580  0.8191  0.0736  0.3683
  197MOL0     H25984  -2.888   9.103   5.603 -0.7335  1.0144 -1.9103
  197MOL0     H25985  -2.917   9.276   5.578  0.6322  0.4502 -0.9364
  197MOL0     H25986  -1.801   9.210   5.948 -2.9802  1.4304 -2.0686
  197MOL0     H25987  -1.570   9.191   5.890  0.9199  0.9138 -2.5002
  197MOL0     H25988  -1.180   8.933   6.114  0.5942  0.6313  0.4252
  197MOL0     H25989  -0.927   8.938   6.081  1.1576  3.0123  0.3378
  197MOL0     H25990   0.369   8.558   6.902 -0.3038 -1.5051  0.7328
  197MOL0     H25991   0.620   8.514   6.938  0.1916  0.5234 -0.1056
  197MOL0     H25992   0.951   8.332   6.843 -3.5952  3.4226  0.3889
  197MOL0     H25993   1.172   8.243   6.889  2.1007 -0.6810 -0.4527
  197MOL0     H25994   1.463   8.458   7.077  0.9239  0.6691  1.5977
  197MOL0     H25995   1.513   8.544   6.925  2.9219 -0.6459 -0.2005
  197MOL0     H25996   1.707   8.445   7.020 -1.8842  2.1790  0.8097
  197MOL0     H25997   1.635   8.284   7.018  1.5794 -0.5051  0.4395
  197MOL0     H25998   1.686   8.457   6.772  1.8904  1.2810 -0.2242
  197MOL0     H25999   1.639   8.281   6.780  1.0617 -1.0482  0.9830
  197MOL0     H26000   1.891   8.358   6.914 -1.1208 -3.3688  1.6450
  197MOL0     H26001   1.851   8.200   6.843  0.8990  0.6101  1.8743
  197MOL0     H26002   2.011   8.393   6.503 -1.9566  1.4361 -0.7204
  197MOL0     H26003   1.326   8.660   6.868 -1.5426  1.6137 -0.1816
  197MOL0     H26004   1.115   8.732   6.812  0.7563 -0.8666 -2.7135
  198MOL0     O26005   1.962   4.872  10.220  0.4270  0.0315 -0.0987
  198MOL0     C26006   1.989   4.980  10.163 -0.1818  0.0977  0.3288
  198MOL0     O26007   1.902   5.076  10.123  0.9775 -0.2346  0.1145
  198MOL0     C26008   1.772   5.045  10.112 -0.2581  0.4812  0.4110
  198MOL0     C26009   1.724   5.030   9.978  0.0564 -1.0118 -0.7801
  198MOL0     C26010   1.587   4.994   9.974  0.1027  0.4581 -0.3882
  198MOL0     C26011   1.503   4.978  10.081 -0.0892 -0.1698 -0.5688
  198MOL0     O26012   1.372   4.950  10.053 -0.1420  0.0506 -0.1136
  198MOL0     C26013   1.290   4.917  10.168 -0.0408  0.2796 -0.3214
  198MOL0     C26014   1.156   4.868  10.131  0.3722  1.0305 -0.0510
  198MOL0     C26015   1.075   4.800  10.248  0.1331  0.1702 -0.5781
  198MOL0     C26016   0.926   4.790  10.224 -0.2950  0.0554 -0.1754
  198MOL0     C26017   0.855   4.718  10.340  0.7687  0.0242  0.4114
  198MOL0     C26018   0.708   4.697  10.285 -0.2321 -0.0700 -0.5870
  198MOL0     C26019   0.608   4.650  10.387 -0.2933 -0.2169  1.1843
  198MOL0     C26020   0.471   4.611  10.323  0.1135  0.2647 -0.3909
  198MOL0     N26021   0.396   4.728  10.278  0.0780  1.8393 -0.6065
  198MOL0     C26022   0.411   4.801  10.163  0.4114  0.0698  0.0647
  198MOL0     C26023   0.305   4.886  10.177 -0.8589 -0.5956  0.0947
  198MOL0     C26024   0.286   5.010  10.089  0.0934  0.0688  0.2406
  198MOL0     C26025   0.186   4.983   9.976  0.0750  0.9748  0.2712
  198MOL0     C26026   0.229   4.904   9.852 -0.2863 -0.1630  0.0774
  198MOL0     C26027   0.358   4.928   9.789  0.1950 -0.0154 -0.3016
  198MOL0     O26028   0.380   5.069   9.765  0.4998 -0.9700 -0.0578
  198MOL0     C26029   0.515   5.087   9.770 -0.3582  0.3365 -0.8053
  198MOL0     C26030   0.598   5.021   9.681  0.7874  0.8502 -0.5927
  198MOL0     C26031   0.739   5.046   9.685  0.0022 -0.7274  1.0579
  198MOL0     C26032   0.799   5.133   9.776  0.2255 -0.8064  0.1937
  198MOL0     C26033   0.942   5.166   9.772 -0.0078 -0.2005  0.1739
  198MOL0     O26034   0.975   5.306   9.801  0.6712 -0.4695 -0.1253
  198MOL0     C26035   1.107   5.340   9.808 -0.3822  0.0022 -0.0658
  198MOL0     C26036   1.203   5.253   9.858 -0.2375  1.0046 -0.3244
  198MOL0     C26037   1.340   5.281   9.846 -0.0759  0.6451 -0.3923
  198MOL0     C26038   1.378   5.406   9.799 -0.6038 -0.5981 -0.4487
  198MOL0     O26039   1.514   5.440   9.793  0.3373  0.8910 -0.1120
  198MOL0     C26040   1.618   5.346   9.779 -0.0143 -0.2801 -0.6643
  198MOL0     C26041   1.748   5.413   9.731 -0.8119  0.7170  0.4794
  198MOL0     C26042   1.830   5.450   9.842 -0.6810  0.2698 -1.2503
  198MOL0     C26043   1.949   5.540   9.806  0.2063  0.9750 -1.2418
  198MOL0     C26044   2.010   5.597   9.935  0.9906  0.0662 -0.0945
  198MOL0     C26045   2.108   5.712   9.900  0.1322 -0.0502 -0.4573
  198MOL0     C26046   2.246   5.661   9.845 -0.4440  0.0585  0.3633
  198MOL0     C26047   2.338   5.590   9.946  0.2817  0.1274 -0.3605
  198MOL0    Cl26048   2.509   5.607   9.906 -0.1061  0.1228 -0.0875
  198MOL0     C26049   1.286   5.503   9.753 -0.2521  0.6024 -0.2640
  198MOL0     C26050   1.152   5.464   9.761 -0.3255 -0.8970 -0.2154
  198MOL0     O26051   1.021   5.072   9.752  0.3720 -0.8942 -0.4481
  198MOL0     C26052   0.708   5.206   9.856  0.3392 -0.2766 -1.4386
  198MOL0     C26053   0.571   5.189   9.847 -0.5490  0.5543 -0.4529
  198MOL0     N26054   0.239   4.868  10.298  0.1103  0.6277 -0.3400
  198MOL0     N26055   0.290   4.770  10.354  0.6987 -0.5907 -0.9423
  198MOL0     C26056   1.556   4.999  10.211 -0.8663 -1.1291  0.7978
  198MOL0     C26057   1.696   5.032  10.231 -0.0161  0.9634  0.6117
  198MOL0     C26058   2.132   5.026  10.178 -0.1683  0.3404  0.3795
  198MOL0     C26059   2.239   4.940  10.200  0.2988 -0.5561 -0.2568
  198MOL0     C26060   2.374   4.982  10.201 -0.2946 -0.1195  0.6545
  198MOL0     C26061   2.404   5.119  10.202  0.8878  0.2298  0.5072
  198MOL0     O26062   2.531   5.171  10.200 -0.3153 -0.0754  0.1293
  198MOL0     C26063   2.648   5.087  10.224  0.5995 -0.6174  0.5498
  198MOL0     C26064   2.655   5.082  10.379  0.2068  0.8528 -0.6149
  198MOL0     C26065   2.771   5.001  10.440  0.1671  0.0367 -0.2874
  198MOL0     C26066   2.910   5.067  10.426  0.1850  0.1468 -0.2747
  198MOL0     C26067   2.914   5.205  10.465  0.2060 -1.4883 -0.4988
  198MOL0     C26068   2.914   5.317  10.512 -0.0810  0.4324  0.4204
  198MOL0     C26069   2.292   5.204  10.177 -0.1927  0.8488  0.1971
  198MOL0     C26070   2.164   5.160  10.168  0.5549 -0.2705  0.0678
  198MOL0     H26071   1.790   5.055   9.895  0.5339  1.6799  0.2968
  198MOL0     H26072   1.537   4.971   9.880  0.2715  0.4089 -0.4649
  198MOL0     H26073   1.281   5.006  10.232  2.2719 -0.6419  1.4529
  198MOL0     H26074   1.335   4.842  10.233 -1.6828 -0.2750  0.2169
  198MOL0     H26075   1.167   4.790  10.056  2.7238  0.2899  0.9676
  198MOL0     H26076   1.102   4.954  10.092  0.4328  0.4235 -1.5266
  198MOL0     H26077   1.090   4.867  10.334  2.0956  0.2998 -0.9873
  198MOL0     H26078   1.110   4.699  10.268  0.8396 -0.5370 -4.6546
  198MOL0     H26079   0.881   4.887  10.203 -0.0686  0.3677  0.7213
  198MOL0     H26080   0.920   4.726  10.136  1.7499 -1.3613  0.6397
  198MOL0     H26081   0.842   4.781  10.428 -0.9672  0.6828 -0.2819
  198MOL0     H26082   0.913   4.626  10.357  1.2318  0.6027  2.1245
  198MOL0     H26083   0.701   4.617  10.210 -0.2186  0.6231 -1.3424
  198MOL0     H26084   0.670   4.792  10.247 -0.2241 -0.6091 -1.9991
  198MOL0     H26085   0.640   4.562  10.444 -0.4882 -0.8053  0.4094
  198MOL0     H26086   0.592   4.730  10.458  0.5960 -0.0530  1.2116
  198MOL0     H26087   0.416   4.576  10.411  0.9927  0.6930  0.3465
  198MOL0     H26088   0.478   4.531  10.249  0.7829 -1.3548  1.3341
  198MOL0     H26089   0.476   4.790  10.076  0.1236 -2.0650  0.0658
  198MOL0     H26090   0.382   5.052  10.057  0.8905 -0.0442  2.3375
  198MOL0     H26091   0.230   5.082  10.148 -0.8574 -0.5767  0.1568
  198MOL0     H26092   0.138   5.075   9.941 -1.0874 -0.0385 -0.9380
  198MOL0     H26093   0.106   4.932  10.030  0.6630 -1.0173 -0.6628
  198MOL0     H26094   0.215   4.798   9.875 -0.1740 -0.9978 -3.2731
  198MOL0     H26095   0.157   4.924   9.772 -1.6833 -1.9863  0.8198
  198MOL0     H26096   0.351   4.878   9.692 -0.0308 -1.9384  0.6481
  198MOL0     H26097   0.439   4.883   9.846 -0.2188  1.3790  1.4691
  198MOL0     H26098   0.570   4.940   9.615  0.0955  1.1709 -0.6998
  198MOL0     H26099   0.806   4.991   9.620  0.1679  0.9099 -0.2574
  198MOL0     H26100   1.196   5.152   9.899  1.8098  0.3656 -1.4198
  198MOL0     H26101   1.423   5.216   9.872 -0.7226 -0.4559 -1.0297
  198MOL0     H26102   1.593   5.263   9.711  0.4588 -2.8882  2.1005
  198MOL0     H26103   1.635   5.300   9.877 -1.6241  2.4073  1.0159
  198MOL0     H26104   1.718   5.502   9.674  0.3357 -0.3881 -2.0148
  198MOL0     H26105   1.805   5.343   9.669  1.7978  2.4731  0.7029
  198MOL0     H26106   1.865   5.359   9.890  0.3225  1.0822 -0.4037
  198MOL0     H26107   1.765   5.492   9.919 -1.8967 -1.9683 -0.9689
  198MOL0     H26108   2.025   5.484   9.751  3.4568  0.6730  3.0069
  198MOL0     H26109   1.926   5.624   9.740 -0.8647  1.9799  0.3489
  198MOL0     H26110   2.061   5.515   9.987 -1.1613 -0.4226  1.3450
  198MOL0     H26111   1.933   5.625  10.006  1.0880  1.5245 -0.5378
  198MOL0     H26112   2.125   5.760   9.997 -2.4256 -1.0636  0.5736
  198MOL0     H26113   2.057   5.786   9.837 -0.8951 -1.4858 -1.3607
  198MOL0     H26114   2.233   5.614   9.748  0.0689  1.3713 -0.3713
  198MOL0     H26115   2.306   5.751   9.826 -0.0102  0.0807  1.6810
  198MOL0     H26116   2.306   5.485   9.948  0.0970  0.1402 -1.6244
  198MOL0     H26117   2.324   5.635  10.045 -0.8686  1.8599 -1.2559
  198MOL0     H26118   1.312   5.601   9.712  1.1272  0.2809 -0.1834
  198MOL0     H26119   1.084   5.544   9.731 -0.2407 -0.1781  1.4188
  198MOL0     H26120   0.734   5.270   9.940 -0.0708 -0.2550 -1.3245
  198MOL0     H26121   0.498   5.231   9.917  0.2535 -0.8987  1.3573
  198MOL0     H26122   1.500   4.992  10.304 -2.4435  0.0794 -0.0186
  198MOL0     H26123   1.753   5.044  10.322  1.4663 -1.1402  0.0346
  198MOL0     H26124   2.230   4.832  10.199  0.1028 -0.5470  0.2872
  198MOL0     H26125   2.452   4.907  10.207  0.1769  0.3055 -0.0836
  198MOL0     H26126   2.728   5.138  10.171 -0.0292  0.1853  0.3548
  198MOL0     H26127   2.642   4.984  10.188 -1.0388 -0.0218 -1.0417
  198MOL0     H26128   2.658   5.188  10.407  2.3248  1.9052 -4.1761
  198MOL0     H26129   2.564   5.043  10.426  1.1429  1.2251  1.6278
  198MOL0     H26130   2.779   4.901  10.397 -3.6769  0.8588 -3.4982
  198MOL0     H26131   2.742   4.993  10.546  1.8767 -1.1105  0.1294
  198MOL0     H26132   2.982   5.020  10.493 -0.6221  2.0556  2.0923
  198MOL0     H26133   2.945   5.059  10.322  2.0941  0.9491  0.2678
  198MOL0     H26134   2.923   5.415  10.556  0.4300  1.8334 -2.5695
  198MOL0     H26135   2.312   5.310  10.166  2.1412  0.7418  2.4115
  198MOL0     H26136   2.087   5.236  10.160  1.9648  1.2713  0.7216
  199MOL0     O26137   9.332   9.274   0.196 -0.0216  0.0157  0.4306
  199MOL0     C26138   9.414   9.346   0.134 -0.5502  0.3108 -0.3589
  199MOL0     O26139   9.388   9.424   0.021 -0.0946  0.2167  0.0209
  199MOL0     C26140   9.259   9.442  -0.023 -0.1410  0.0558 -0.0649
  199MOL0     C26141   9.143   9.437   0.054  0.3381  0.1926 -0.2360
  199MOL0     C26142   9.017   9.443  -0.005  0.2825 -0.6777 -0.1150
  199MOL0     C26143   9.005   9.464  -0.142  0.1290 -0.0902 -0.5428
  199MOL0     O26144   8.888   9.470  -0.215  0.1657 -0.4836 -0.1056
  199MOL0     C26145   8.762   9.427  -0.145  0.1821 -0.7635  0.4405
  199MOL0     C26146   8.643   9.429  -0.242  0.1527  0.0745  0.2415
  199MOL0     C26147   8.507   9.409  -0.176 -0.3294  0.7983  0.6643
  199MOL0     C26148   8.393   9.393  -0.286  0.2095  0.6154 -0.6206
  199MOL0     C26149   8.262   9.364  -0.212  0.0742  0.7320 -0.6960
  199MOL0     C26150   8.151   9.340  -0.315  0.2344  0.7032 -0.0890
  199MOL0     C26151   8.022   9.323  -0.243  0.4926  0.7301 -0.4158
  199MOL0     C26152   7.895   9.333  -0.334 -0.2374 -0.0787 -0.1335
  199MOL0     N26153   7.772   9.339  -0.264  0.5923 -0.5769 -0.3467
  199MOL0     C26154   7.708   9.458  -0.238 -0.5179 -0.2231  0.0801
  199MOL0     C26155   7.596   9.428  -0.166 -0.6476  0.4661  0.5960
  199MOL0     C26156   7.495   9.531  -0.106  0.3716 -0.0338 -0.6271
  199MOL0     C26157   7.348   9.526  -0.158 -0.2254 -0.3676  0.7684
  199MOL0     C26158   7.315   9.615  -0.279 -0.1705  0.0420  0.0893
  199MOL0     C26159   7.403   9.605  -0.404 -0.0608 -0.2737  0.0097
  199MOL0     O26160   7.365   9.696  -0.513 -0.5430  0.0534  0.2203
  199MOL0     C26161   7.262   9.659  -0.597  0.3184  0.4161 -0.5620
  199MOL0     C26162   7.290   9.566  -0.698 -0.0824  0.2551 -0.1369
  199MOL0     C26163   7.192   9.525  -0.780  0.0386 -0.2072 -0.7951
  199MOL0     C26164   7.061   9.567  -0.752  0.7802 -0.0736  0.2006
  199MOL0     C26165   6.947   9.527  -0.845 -0.6007  1.0945  0.0388
  199MOL0     O26166   6.832   9.594  -0.830  0.6149 -1.0252 -0.1779
  199MOL0     C26167   6.738   9.577  -0.923  0.4634 -0.0134  0.2252
  199MOL0     C26168   6.606   9.558  -0.887  0.7794 -0.3114 -0.2283
  199MOL0     C26169   6.503   9.535  -0.982 -0.3702 -0.9121 -0.7186
  199MOL0     C26170   6.526   9.548  -1.115  0.4435  0.0546  0.0188
  199MOL0     O26171   6.433   9.507  -1.200 -0.9107  0.2546  0.2718
  199MOL0     C26172   6.311   9.584  -1.192  0.2524  0.5881 -0.5279
  199MOL0     C26173   6.256   9.577  -1.330  0.7178 -0.0148  1.0960
  199MOL0     C26174   6.149   9.468  -1.358 -0.0053 -0.1822 -0.3923
  199MOL0     C26175   6.106   9.466  -1.507 -0.8383  1.0867 -1.4149
  199MOL0     C26176   5.984   9.373  -1.530 -0.7164 -0.6429 -0.8777
  199MOL0     C26177   5.979   9.329  -1.676  0.2326 -0.5370 -0.6955
  199MOL0     C26178   5.887   9.202  -1.687 -0.4944  0.8646 -0.2884
  199MOL0     C26179   5.746   9.204  -1.627  0.0853 -0.0576 -0.3474
  199MOL0    Cl26180   5.647   9.351  -1.666 -0.1986  0.0581  0.0809
  199MOL0     C26181   6.655   9.587  -1.156  0.6037 -1.0947  0.2605
  199MOL0     C26182   6.757   9.609  -1.064  0.2127  0.1611  0.3006
  199MOL0     O26183   6.976   9.431  -0.917 -0.1892 -0.8464  0.7287
  199MOL0     C26184   7.029   9.662  -0.649 -0.1297  0.5902 -0.0085
  199MOL0     C26185   7.135   9.713  -0.573 -0.3915 -0.2127 -0.4331
  199MOL0     N26186   7.590   9.290  -0.145 -0.4772 -0.7048  0.2040
  199MOL0     N26187   7.696   9.238  -0.206 -0.4230 -0.7364  0.2834
  199MOL0     C26188   9.126   9.477  -0.217 -0.1032 -0.0885  0.0079
  199MOL0     C26189   9.254   9.457  -0.161  0.4380 -0.0247  0.1061
  199MOL0     C26190   9.556   9.347   0.178 -0.1228  0.1939  0.1406
  199MOL0     C26191   9.594   9.282   0.297  0.4863 -0.7099 -0.1132
  199MOL0     C26192   9.727   9.273   0.328 -0.7375 -0.2730  0.3963
  199MOL0     C26193   9.834   9.327   0.253 -0.4579  0.3478  0.6996
  199MOL0     O26194   9.960   9.303   0.282  0.0741  1.2653  0.0362
  199MOL0     C26195  10.056   9.406   0.247 -0.1831  0.2243  0.3087
  199MOL0     C26196  10.184   9.410   0.338 -0.5110  0.0158  0.6082
  199MOL0     C26197  10.164   9.441   0.483 -0.3137  0.2603  0.4795
  199MOL0     C26198  10.086   9.563   0.515  1.2935 -0.8623  0.8364
  199MOL0     C26199  10.082   9.583   0.659  0.5549  0.3350  0.3745
  199MOL0     C26200  10.067   9.590   0.779  0.3534  0.2420  0.2602
  199MOL0     C26201   9.802   9.385   0.125  0.0893 -0.3892 -0.0597
  199MOL0     C26202   9.660   9.393   0.094 -0.3555  0.7243 -0.4000
  199MOL0     H26203   9.139   9.436   0.163 -1.6581 -0.1550 -0.2701
  199MOL0     H26204   8.927   9.434   0.056  1.6728  0.6813  2.3005
  199MOL0     H26205   8.738   9.498  -0.065  2.4610 -1.9412  2.2942
  199MOL0     H26206   8.771   9.328  -0.101  0.6136  0.0534  2.2669
  199MOL0     H26207   8.652   9.350  -0.318  1.2980  1.3442 -1.0157
  199MOL0     H26208   8.642   9.527  -0.291 -0.1360  0.4779  1.0417
  199MOL0     H26209   8.484   9.493  -0.110 -0.9401 -0.0294  1.5210
  199MOL0     H26210   8.507   9.320  -0.112  2.5515  0.8330  0.8447
  199MOL0     H26211   8.396   9.482  -0.349  0.6210  1.4896  0.6005
  199MOL0     H26212   8.409   9.311  -0.357 -0.6134 -0.4851  0.4259
  199MOL0     H26213   8.248   9.455  -0.154 -1.0836  0.6066 -0.7430
  199MOL0     H26214   8.276   9.276  -0.148 -1.7053 -0.9104 -2.4166
  199MOL0     H26215   8.173   9.257  -0.383 -1.2826 -0.0429  0.2892
  199MOL0     H26216   8.143   9.434  -0.370  1.8136  0.8764 -0.0729
  199MOL0     H26217   8.023   9.224  -0.197  0.6800  0.0357 -1.8644
  199MOL0     H26218   8.012   9.411  -0.178 -0.2359  1.0975 -1.0097
  199MOL0     H26219   7.888   9.240  -0.391 -0.7471 -0.4033  0.4465
  199MOL0     H26220   7.898   9.417  -0.404 -2.0775 -0.7368 -1.0694
  199MOL0     H26221   7.749   9.556  -0.259  1.3494  0.2465  4.7296
  199MOL0     H26222   7.525   9.636  -0.112 -2.0325  0.7096 -0.7178
  199MOL0     H26223   7.487   9.512   0.001  0.0727  1.2136 -0.4161
  199MOL0     H26224   7.275   9.550  -0.080 -1.2444 -0.2136 -0.2054
  199MOL0     H26225   7.325   9.421  -0.179  0.4877 -0.9518  2.7003
  199MOL0     H26226   7.217   9.581  -0.313 -0.8283  1.7630  0.1641
  199MOL0     H26227   7.311   9.720  -0.249 -1.5980  0.8812 -2.7316
  199MOL0     H26228   7.395   9.504  -0.445  1.4177 -1.2151  1.8587
  199MOL0     H26229   7.507   9.616  -0.371 -0.8037  0.4274  2.2768
  199MOL0     H26230   7.389   9.525  -0.719 -0.3037 -0.2141 -0.2724
  199MOL0     H26231   7.221   9.465  -0.866 -3.6000 -0.5451 -1.9599
  199MOL0     H26232   6.574   9.543  -0.784  0.2843 -0.7430 -0.4377
  199MOL0     H26233   6.402   9.513  -0.947 -0.0436 -0.0335  0.8892
  199MOL0     H26234   6.334   9.688  -1.166  2.0453 -0.1866  1.2371
  199MOL0     H26235   6.240   9.548  -1.117 -1.2663 -0.3956 -2.3566
  199MOL0     H26236   6.337   9.569  -1.404  0.5568 -0.7672  0.9978
  199MOL0     H26237   6.220   9.679  -1.343  0.1027 -0.1132  1.9328
  199MOL0     H26238   6.070   9.481  -1.283 -0.2488 -2.3390 -0.2041
  199MOL0     H26239   6.192   9.370  -1.334 -0.5016  0.1456  2.1673
  199MOL0     H26240   6.088   9.569  -1.538  2.2183  1.3097 -2.9063
  199MOL0     H26241   6.189   9.420  -1.563  0.8912 -0.2117  1.9640
  199MOL0     H26242   5.892   9.427  -1.508  0.0664  1.6506 -2.8117
  199MOL0     H26243   6.001   9.279  -1.475 -0.3231 -0.3110 -0.4190
  199MOL0     H26244   6.081   9.304  -1.706  1.5264  0.5945  2.3743
  199MOL0     H26245   5.948   9.403  -1.750  1.2763 -1.8169 -2.4815
  199MOL0     H26246   5.887   9.173  -1.792  0.3279 -0.8862  0.1581
  199MOL0     H26247   5.938   9.111  -1.655 -2.1756 -0.2046 -0.5325
  199MOL0     H26248   5.760   9.212  -1.519  4.0715  2.1480 -0.7918
  199MOL0     H26249   5.695   9.116  -1.666 -0.8337 -0.4414  1.6207
  199MOL0     H26250   6.651   9.611  -1.261  0.4238 -5.7012 -0.9937
  199MOL0     H26251   6.857   9.632  -1.097  1.0092 -1.1258  1.6911
  199MOL0     H26252   6.929   9.698  -0.628 -0.4999 -0.6151  0.3712
  199MOL0     H26253   7.142   9.791  -0.497  3.7746 -0.4942 -0.3064
  199MOL0     H26254   9.117   9.495  -0.324  0.7668 -0.1922 -0.0879
  199MOL0     H26255   9.343   9.454  -0.222  0.8948 -0.1674  0.7771
  199MOL0     H26256   9.520   9.238   0.362 -2.8582  3.5853 -0.5150
  199MOL0     H26257   9.765   9.222   0.416 -0.2656 -0.1319  0.2800
  199MOL0     H26258  10.024   9.510   0.233  2.7354  1.0096 -1.3548
  199MOL0     H26259  10.089   9.385   0.145 -3.1429 -2.3279 -0.2758
  199MOL0     H26260  10.227   9.311   0.322 -1.6263  0.0884 -4.1865
  199MOL0     H26261  10.264   9.476   0.302  0.6431 -1.8417 -0.3389
  199MOL0     H26262  10.264   9.449   0.528  0.3236  0.2625 -0.8888
  199MOL0     H26263  10.121   9.349   0.524  1.5982 -0.8760  0.0564
  199MOL0     H26264  10.114   9.653   0.460 -0.6222 -0.7821 -0.0890
  199MOL0     H26265   9.981   9.552   0.487  1.6449  0.1614 -1.0229
  199MOL0     H26266  10.057   9.589   0.886  1.7416 -0.0809  0.4049
  199MOL0     H26267   9.880   9.432   0.065  0.2576  1.2626  1.3559
  199MOL0     H26268   9.632   9.441   0.000  0.7753  1.3462 -0.4335
  200MOL0     O26269   6.746   6.247   4.492  0.0888  0.6838 -0.5687
  200MOL0     C26270   6.662   6.337   4.508 -0.1032 -0.4816 -0.5055
  200MOL0     O26271   6.534   6.329   4.478  0.4935  0.5485  0.8524
  200MOL0     C26272   6.492   6.200   4.432  0.1736 -0.0465 -0.1569
  200MOL0     C26273   6.530   6.161   4.302 -0.1081 -0.2232 -0.7425
  200MOL0     C26274   6.463   6.056   4.241  0.2702  0.2569 -0.0625
  200MOL0     C26275   6.375   5.977   4.310 -0.4883 -0.2817 -0.4048
  200MOL0     O26276   6.318   5.866   4.257  0.1065 -0.2191  0.3052
  200MOL0     C26277   6.210   5.795   4.311  0.1733 -0.5121 -0.0096
  200MOL0     C26278   6.081   5.885   4.298  0.9579 -0.3164 -0.4311
  200MOL0     C26279   5.974   5.838   4.397 -0.1231 -0.2829 -0.1216
  200MOL0     C26280   5.835   5.890   4.348  0.3338  0.4815  0.5646
  200MOL0     C26281   5.738   5.913   4.464  0.3739  0.3609 -0.0861
  200MOL0     C26282   5.601   5.987   4.444  0.4499  0.5989  0.0370
  200MOL0     C26283   5.502   5.908   4.349 -0.2407  0.3747 -0.0154
  200MOL0     C26284   5.370   5.979   4.316 -0.4414  0.1721  0.0507
  200MOL0     N26285   5.273   5.954   4.421  0.5049  1.3533  0.6988
  200MOL0     C26286   5.258   6.023   4.534  0.4186  0.1837  0.1560
  200MOL0     C26287   5.163   5.953   4.599  0.4321  0.8740  0.3316
  200MOL0     C26288   5.117   5.998   4.730 -0.1213 -0.5556 -0.3505
  200MOL0     C26289   4.964   6.026   4.724  0.0159 -0.5323  0.1934
  200MOL0     C26290   4.920   6.090   4.857 -0.7707  0.1116 -0.4225
  200MOL0     C26291   4.767   6.095   4.877 -0.5139 -0.7715 -1.2282
  200MOL0     O26292   4.724   6.185   4.979  0.0538  0.3694 -0.5790
  200MOL0     C26293   4.722   6.318   4.951  0.3626 -0.2870 -0.8094
  200MOL0     C26294   4.652   6.405   5.039 -0.4120 -0.4544 -0.0631
  200MOL0     C26295   4.639   6.544   5.009 -0.4046  0.2723  1.1329
  200MOL0     C26296   4.691   6.596   4.888 -0.4899  0.0262  0.5252
  200MOL0     C26297   4.673   6.743   4.855  0.3037 -0.6661 -0.2164
  200MOL0     O26298   4.703   6.782   4.730  0.3033  0.1229 -0.3790
  200MOL0     C26299   4.658   6.904   4.684 -0.7172  0.2878  0.2513
  200MOL0     C26300   4.520   6.920   4.646 -0.6300  0.0166  1.0847
  200MOL0     C26301   4.486   7.048   4.594 -0.4159 -0.3710  0.0230
  200MOL0     C26302   4.580   7.158   4.598  0.3284 -0.3825  0.2570
  200MOL0     O26303   4.537   7.290   4.577 -0.1567  0.3222 -0.1490
  200MOL0     C26304   4.604   7.399   4.653 -1.1126  0.0925  0.0771
  200MOL0     C26305   4.510   7.517   4.677 -0.1557 -0.2747  0.3690
  200MOL0     C26306   4.419   7.543   4.559 -0.2099 -0.9121 -0.4793
  200MOL0     C26307   4.337   7.676   4.589 -0.6213 -0.3680  0.3142
  200MOL0     C26308   4.250   7.714   4.467  0.2032  1.0182 -0.3359
  200MOL0     C26309   4.212   7.857   4.464  0.4529 -0.0988  0.4056
  200MOL0     C26310   4.122   7.893   4.594 -0.6396 -0.4716  0.5205
  200MOL0     C26311   4.068   8.034   4.576  0.2660 -0.2963 -0.7769
  200MOL0    Cl26312   3.944   8.048   4.446  0.0885  0.3269  0.0432
  200MOL0     C26313   4.711   7.135   4.640  0.9210  0.1405 -1.0886
  200MOL0     C26314   4.751   7.008   4.677  0.8547  0.9840 -0.1953
  200MOL0     O26315   4.635   6.817   4.943 -0.5149  0.2360 -0.1433
  200MOL0     C26316   4.763   6.512   4.806 -0.0735  0.4479 -0.3483
  200MOL0     C26317   4.778   6.377   4.834  0.2837  0.4504 -0.3547
  200MOL0     N26318   5.129   5.838   4.536  0.0658  0.6644  0.5686
  200MOL0     N26319   5.195   5.834   4.429  0.4561 -1.3986  0.2530
  200MOL0     C26320   6.340   6.016   4.442  0.0972  0.0989  0.7587
  200MOL0     C26321   6.398   6.131   4.498 -0.6013  0.1880 -0.5952
  200MOL0     C26322   6.704   6.465   4.552 -0.2913 -0.5132 -0.6770
  200MOL0     C26323   6.608   6.553   4.593 -0.3832 -0.3570 -0.1878
  200MOL0     C26324   6.649   6.675   4.656  0.6346 -0.6000  0.2429
  200MOL0     C26325   6.786   6.716   4.661  0.1045 -0.2731  0.6338
  200MOL0     O26326   6.799   6.834   4.723  0.6624  0.4592  0.3420
  200MOL0     C26327   6.928   6.890   4.713  0.4523 -0.2959 -0.7880
  200MOL0     C26328   6.932   7.019   4.784  0.3503 -0.0715 -0.8679
  200MOL0     C26329   7.080   7.074   4.779 -0.4363 -0.2860  0.3633
  200MOL0     C26330   7.076   7.206   4.846  0.1669 -0.6408  0.5203
  200MOL0     C26331   7.206   7.270   4.828  0.1996 -0.6999  0.8697
  200MOL0     C26332   7.310   7.321   4.804 -0.2834 -0.5242 -0.7210
  200MOL0     C26333   6.883   6.617   4.625 -0.3303  0.5512  0.0827
  200MOL0     C26334   6.842   6.501   4.564  0.0811  0.1031  0.3468
  200MOL0     H26335   6.597   6.230   4.251  0.5286 -0.4520 -0.2231
  200MOL0     H26336   6.480   6.035   4.136  0.2671  0.9228 -0.2057
  200MOL0     H26337   6.218   5.766   4.416 -0.2728 -3.0810 -0.6149
  200MOL0     H26338   6.198   5.705   4.251 -0.2673 -1.1236  0.9812
  200MOL0     H26339   6.046   5.865   4.196 -2.1817 -0.2923  0.5287
  200MOL0     H26340   6.091   5.994   4.305 -1.8941  0.1401 -1.9661
  200MOL0     H26341   6.009   5.860   4.498 -0.4200  0.5241 -0.1900
  200MOL0     H26342   5.960   5.730   4.388  0.2795 -0.4064  0.6481
  200MOL0     H26343   5.831   5.986   4.295 -0.5650 -0.0251 -0.3144
  200MOL0     H26344   5.798   5.815   4.277 -0.8228  1.2637  0.3118
  200MOL0     H26345   5.795   5.973   4.536  1.0545 -0.9184  0.4873
  200MOL0     H26346   5.714   5.816   4.509  0.3857  0.4285  0.0689
  200MOL0     H26347   5.617   6.087   4.402  0.9916  0.6031  0.2426
  200MOL0     H26348   5.552   6.002   4.540  2.7630  3.3403  0.9370
  200MOL0     H26349   5.556   5.873   4.260 -0.0255  0.0221  0.2514
  200MOL0     H26350   5.472   5.816   4.398 -1.4699  1.0649  0.5753
  200MOL0     H26351   5.339   5.941   4.218  0.9042 -2.4597  0.5682
  200MOL0     H26352   5.391   6.086   4.305 -0.8093  0.2807  0.3940
  200MOL0     H26353   5.305   6.115   4.567 -2.1150  0.6868  2.8349
  200MOL0     H26354   5.181   6.084   4.751  0.7321 -1.5701  1.3866
  200MOL0     H26355   5.142   5.915   4.797  1.2772  1.5214  1.8494
  200MOL0     H26356   4.915   5.930   4.714 -2.7286  0.4097  3.0484
  200MOL0     H26357   4.937   6.092   4.641 -1.7520  2.0981  2.6459
  200MOL0     H26358   4.963   6.021   4.930 -0.0419 -0.8175 -1.6786
  200MOL0     H26359   4.962   6.190   4.871 -1.1597  0.2343 -0.1302
  200MOL0     H26360   4.731   5.996   4.906 -0.7779 -0.4339 -0.3358
  200MOL0     H26361   4.723   6.120   4.780  1.7801 -1.2142 -2.4410
  200MOL0     H26362   4.608   6.356   5.125  0.6578  0.9042  1.3315
  200MOL0     H26363   4.591   6.618   5.072 -1.9289  0.2870  0.0149
  200MOL0     H26364   4.446   6.842   4.662 -0.7098 -0.6355 -1.9009
  200MOL0     H26365   4.379   7.056   4.580 -0.1761  0.1801 -1.6696
  200MOL0     H26366   4.694   7.435   4.604  0.6573 -0.6444  2.6116
  200MOL0     H26367   4.647   7.362   4.747 -0.9033  1.2813  0.4697
  200MOL0     H26368   4.584   7.595   4.697  0.2180  0.5477 -3.5732
  200MOL0     H26369   4.459   7.498   4.772 -0.0446 -3.6271 -0.1372
  200MOL0     H26370   4.358   7.453   4.545  0.0036 -1.2587  0.7141
  200MOL0     H26371   4.478   7.555   4.468  1.1461 -1.3564  0.3148
  200MOL0     H26372   4.274   7.662   4.678 -1.0966  0.8144  0.1882
  200MOL0     H26373   4.412   7.754   4.605 -0.6820  0.0255 -1.1799
  200MOL0     H26374   4.166   7.643   4.478 -0.1434  1.2731 -1.2909
  200MOL0     H26375   4.300   7.685   4.375 -2.2917 -1.1116 -1.1738
  200MOL0     H26376   4.161   7.893   4.374  0.1376  0.1453  0.6784
  200MOL0     H26377   4.303   7.918   4.462 -1.1493  2.4683 -1.3733
  200MOL0     H26378   4.034   7.831   4.609 -0.6194 -1.0658 -1.4781
  200MOL0     H26379   4.194   7.878   4.674 -1.3131  0.8093  1.4038
  200MOL0     H26380   4.149   8.101   4.545 -1.9578  1.2849 -3.6525
  200MOL0     H26381   4.031   8.069   4.673  0.8265 -0.2947 -0.5609
  200MOL0     H26382   4.793   7.205   4.640  0.8334  0.2879  0.5495
  200MOL0     H26383   4.853   6.978   4.701  1.1023  0.2584 -1.9984
  200MOL0     H26384   4.817   6.545   4.718  1.9742 -1.2659  0.1815
  200MOL0     H26385   4.838   6.321   4.764  2.4950  1.3773  0.7199
  200MOL0     H26386   6.271   5.966   4.509 -1.7832  0.9826 -0.4429
  200MOL0     H26387   6.371   6.169   4.596  3.4974  1.0015  0.4058
  200MOL0     H26388   6.501   6.535   4.600 -0.3454 -0.0573  1.6208
  200MOL0     H26389   6.577   6.738   4.707  0.8946  0.3484 -0.5278
  200MOL0     H26390   6.950   6.911   4.608 -2.1661 -1.0807 -1.5653
  200MOL0     H26391   7.000   6.823   4.762  0.4293  0.7209  0.7057
  200MOL0     H26392   6.858   7.081   4.733 -0.6765 -1.3118 -0.9113
  200MOL0     H26393   6.931   7.015   4.894  0.9097  2.7230 -0.6847
  200MOL0     H26394   7.112   7.084   4.674  0.3867 -0.6667  0.5684
  200MOL0     H26395   7.145   7.010   4.839 -0.3466 -1.1810 -0.6462
  200MOL0     H26396   7.008   7.274   4.793  0.7317 -1.4446 -1.3173
  200MOL0     H26397   7.053   7.205   4.953  4.3684  0.5000  1.6091
  200MOL0     H26398   7.398   7.369   4.767 -0.7765  0.9564 -0.0412
  200MOL0     H26399   6.990   6.636   4.635  0.3328 -1.6244 -2.0301
  200MOL0     H26400   6.919   6.436   4.524  1.4196 -1.1971  4.5046
  201MOL0     O26401   2.297   7.420   4.009  0.0684  0.3335 -0.1884
  201MOL0     C26402   2.339   7.491   4.100  0.9989 -0.4073 -0.3393
  201MOL0     O26403   2.268   7.544   4.196  0.5310 -0.2751 -0.7983
  201MOL0     C26404   2.138   7.506   4.200  0.0945  0.4380 -0.2507
  201MOL0     C26405   2.048   7.588   4.133  0.2704  0.1131  0.4603
  201MOL0     C26406   1.912   7.569   4.146 -0.0951 -0.4233  0.1628
  201MOL0     C26407   1.857   7.460   4.220  0.7115 -0.5644  0.5944
  201MOL0     O26408   1.721   7.450   4.235 -0.1364  0.0665 -0.2134
  201MOL0     C26409   1.682   7.442   4.374  0.0040  0.0281 -0.1554
  201MOL0     C26410   1.537   7.464   4.377  0.6824 -0.3832 -0.5694
  201MOL0     C26411   1.491   7.613   4.379 -0.6212  0.1638  0.2326
  201MOL0     C26412   1.346   7.617   4.339 -0.4504 -0.0742  0.7112
  201MOL0     C26413   1.306   7.763   4.312 -0.0826  0.0677  0.1929
  201MOL0     C26414   1.209   7.775   4.191 -0.3309 -0.8590  0.1653
  201MOL0     C26415   1.271   7.749   4.051  0.1115 -0.4692 -0.8093
  201MOL0     C26416   1.179   7.800   3.937 -0.7336  0.0025  0.0883
  201MOL0     N26417   1.045   7.735   3.938  0.0115  0.3483  0.0238
  201MOL0     C26418   0.922   7.801   3.921  0.5985  0.2915 -0.2531
  201MOL0     C26419   0.831   7.709   3.877  0.3631 -0.1876 -0.5088
  201MOL0     C26420   0.685   7.724   3.851 -0.5640  0.0555 -0.7168
  201MOL0     C26421   0.641   7.804   3.720 -0.4291 -0.8602  0.1630
  201MOL0     C26422   0.639   7.714   3.594 -0.2177  0.6559  0.1634
  201MOL0     C26423   0.526   7.608   3.594  0.2175 -0.6924 -0.4368
  201MOL0     O26424   0.407   7.689   3.596  0.8069  0.4883  0.2271
  201MOL0     C26425   0.285   7.628   3.577  0.1287 -0.0793 -0.7630
  201MOL0     C26426   0.269   7.492   3.590  1.2764 -0.7826 -0.2781
  201MOL0     C26427   0.148   7.427   3.576  0.0780 -1.0854  0.0735
  201MOL0     C26428   0.033   7.502   3.544  0.2472 -0.1135 -0.0641
  201MOL0     C26429  -0.094   7.430   3.527  0.1346 -0.6398  1.7633
  201MOL0     O26430  -0.205   7.510   3.503  0.0420 -0.7299 -0.0803
  201MOL0     C26431  -0.329   7.450   3.480  0.2423 -0.2013 -0.6370
  201MOL0     C26432  -0.384   7.351   3.563 -0.4659  0.2854 -0.2420
  201MOL0     C26433  -0.511   7.305   3.542  0.5588  0.1259  0.1533
  201MOL0     C26434  -0.602   7.366   3.448 -0.1606 -0.2766  0.1764
  201MOL0     O26435  -0.732   7.322   3.418  0.3642  0.3653  1.0751
  201MOL0     C26436  -0.770   7.195   3.474  0.0056  0.1101  0.2421
  201MOL0     C26437  -0.900   7.144   3.405  0.2824 -0.2637 -0.4842
  201MOL0     C26438  -0.912   7.082   3.264 -0.2476 -0.3275 -0.1703
  201MOL0     C26439  -0.830   7.165   3.159  0.4874 -1.3587 -0.4539
  201MOL0     C26440  -0.888   7.140   3.021 -0.4816 -0.5435 -0.3635
  201MOL0     C26441  -0.807   7.199   2.901 -0.7665 -0.3604  0.3875
  201MOL0     C26442  -0.787   7.347   2.904 -0.1086 -0.0491 -0.1786
  201MOL0     C26443  -0.727   7.395   2.775 -0.8537  0.5341 -0.3127
  201MOL0    Cl26444  -0.717   7.567   2.784  0.5043  0.0519 -0.0558
  201MOL0     C26445  -0.549   7.470   3.377 -1.1367  0.5525  0.1413
  201MOL0     C26446  -0.413   7.506   3.381  0.1450 -0.5866 -1.1283
  201MOL0     O26447  -0.088   7.308   3.503  0.3368 -0.0413 -0.0875
  201MOL0     C26448   0.044   7.645   3.529 -0.0069  0.3003 -0.4217
  201MOL0     C26449   0.170   7.710   3.549 -0.8070 -0.2277 -0.3477
  201MOL0     N26450   0.903   7.591   3.853  0.8743  0.0992 -0.2668
  201MOL0     N26451   1.024   7.604   3.896 -0.1525 -0.3306 -0.0824
  201MOL0     C26452   1.953   7.373   4.285  0.4366  0.0616 -0.2447
  201MOL0     C26453   2.089   7.399   4.276 -0.2112  0.3348 -0.1437
  201MOL0     C26454   2.489   7.524   4.106 -0.0401  0.0777  0.2874
  201MOL0     C26455   2.542   7.612   4.206 -0.4415 -0.2778  0.6316
  201MOL0     C26456   2.676   7.641   4.209 -0.0961 -0.4726 -0.0417
  201MOL0     C26457   2.766   7.588   4.119  0.1238  0.5429 -0.4063
  201MOL0     O26458   2.891   7.629   4.132  0.5163 -0.8279  0.3432
  201MOL0     C26459   2.997   7.595   4.041  0.1686  0.8806  0.4532
  201MOL0     C26460   3.002   7.665   3.902  0.2855 -1.0604 -0.1831
  201MOL0     C26461   3.014   7.818   3.908 -0.5510 -0.1129 -0.1900
  201MOL0     C26462   2.875   7.879   3.916  0.5876  0.5989 -0.1952
  201MOL0     C26463   2.900   8.021   3.882 -0.2701 -1.4465 -0.0154
  201MOL0     C26464   2.932   8.137   3.851  1.2586  0.6245  0.0122
  201MOL0     C26465   2.718   7.497   4.020  0.4516  0.2622  0.1708
  201MOL0     C26466   2.578   7.461   4.019 -1.3139 -0.1364  0.3868
  201MOL0     H26467   2.083   7.671   4.071  0.2352  0.0650  0.3763
  201MOL0     H26468   1.845   7.648   4.111  1.8061  1.9918  1.6806
  201MOL0     H26469   1.745   7.513   4.428  4.1661 -0.3756 -3.8779
  201MOL0     H26470   1.693   7.338   4.407  2.3370 -0.3643 -1.9244
  201MOL0     H26471   1.484   7.417   4.460 -1.0228  0.9736 -0.8427
  201MOL0     H26472   1.508   7.412   4.285 -1.5104  1.6359 -1.1124
  201MOL0     H26473   1.548   7.663   4.300  0.6278 -0.3271  0.7918
  201MOL0     H26474   1.522   7.661   4.473  1.0877  1.2347 -0.8121
  201MOL0     H26475   1.333   7.555   4.249  2.1011 -1.1910  1.0390
  201MOL0     H26476   1.284   7.567   4.414 -2.6215 -2.0240 -2.1116
  201MOL0     H26477   1.390   7.830   4.290 -1.0177  0.8485 -1.1267
  201MOL0     H26478   1.254   7.787   4.405  0.1026 -3.8672  1.4849
  201MOL0     H26479   1.154   7.870   4.189 -2.9464 -2.2995 -1.2770
  201MOL0     H26480   1.131   7.704   4.220 -0.3912 -1.1962 -0.8142
  201MOL0     H26481   1.367   7.801   4.042 -0.4254  0.4042 -1.7340
  201MOL0     H26482   1.298   7.644   4.037  1.4995 -0.0460 -1.5395
  201MOL0     H26483   1.231   7.785   3.842 -2.6752  1.7095 -1.3499
  201MOL0     H26484   1.178   7.910   3.940  1.3693  0.1327 -1.5591
  201MOL0     H26485   0.905   7.906   3.945  1.0616  0.8245 -2.1098
  201MOL0     H26486   0.644   7.767   3.942  0.4903 -1.8905  0.7482
  201MOL0     H26487   0.646   7.622   3.843 -1.1170  0.2406 -0.4188
  201MOL0     H26488   0.702   7.894   3.706 -1.1653 -0.3624  0.0725
  201MOL0     H26489   0.539   7.837   3.744  0.2508  2.1370 -0.5838
  201MOL0     H26490   0.636   7.760   3.494 -1.4314 -2.9529 -1.6550
  201MOL0     H26491   0.729   7.651   3.596 -0.6422  0.0111 -0.3301
  201MOL0     H26492   0.531   7.536   3.677  3.7646 -2.4308 -1.9488
  201MOL0     H26493   0.528   7.553   3.499 -1.7307  0.3874 -1.1594
  201MOL0     H26494   0.353   7.432   3.621  0.6388 -0.2263  2.7985
  201MOL0     H26495   0.135   7.321   3.591 -1.2472 -0.5488  3.3268
  201MOL0     H26496  -0.315   7.296   3.627  0.1430 -1.7009 -2.4770
  201MOL0     H26497  -0.538   7.223   3.609 -0.2118  0.5128  0.3281
  201MOL0     H26498  -0.798   7.194   3.579 -1.9275 -1.2347 -0.2441
  201MOL0     H26499  -0.690   7.120   3.471  0.4684  0.5751  0.8357
  201MOL0     H26500  -0.973   7.226   3.401  0.7338  0.1672  0.0066
  201MOL0     H26501  -0.947   7.072   3.473  2.8026 -3.2506 -1.6683
  201MOL0     H26502  -1.016   7.064   3.233 -1.5806  0.6154  3.3223
  201MOL0     H26503  -0.880   6.978   3.264 -0.2595 -0.3453 -1.2078
  201MOL0     H26504  -0.852   7.269   3.183  0.9627 -0.9484 -1.7059
  201MOL0     H26505  -0.722   7.152   3.169  0.8831  1.5496 -0.3493
  201MOL0     H26506  -0.994   7.165   3.025 -1.3836 -4.0576  2.9006
  201MOL0     H26507  -0.881   7.031   3.013 -2.5959 -1.0196  2.5452
  201MOL0     H26508  -0.860   7.159   2.813 -1.2075 -1.2733  1.0435
  201MOL0     H26509  -0.707   7.156   2.911 -0.8707 -0.6638  0.1465
  201MOL0     H26510  -0.883   7.398   2.917  0.3204  0.3644  1.4835
  201MOL0     H26511  -0.727   7.390   2.984  1.6208  0.8587 -1.8601
  201MOL0     H26512  -0.787   7.354   2.693  0.5818 -0.8251 -0.7352
  201MOL0     H26513  -0.625   7.358   2.756 -0.7394 -0.4417  1.8618
  201MOL0     H26514  -0.614   7.508   3.299  0.0734 -2.5897 -2.5980
  201MOL0     H26515  -0.371   7.587   3.322  2.5021  0.2028  1.3973
  201MOL0     H26516  -0.041   7.711   3.517 -1.3203 -1.3270 -0.4049
  201MOL0     H26517   0.170   7.819   3.552  0.4084 -0.2435  1.3183
  201MOL0     H26518   1.925   7.295   4.354  1.7736 -0.8256 -0.6732
  201MOL0     H26519   2.168   7.346   4.329  0.5531  3.6482  2.3419
  201MOL0     H26520   2.482   7.665   4.279  1.0466  0.8834  1.0549
  201MOL0     H26521   2.719   7.702   4.288  0.6424 -1.4660  0.3528
  201MOL0     H26522   2.981   7.489   4.019 -1.0236  0.8281  1.4888
  201MOL0     H26523   3.095   7.609   4.088 -0.6242  0.0870  2.4467
  201MOL0     H26524   3.097   7.640   3.855  1.0594  1.6047 -0.1685
  201MOL0     H26525   2.911   7.635   3.849  0.2387 -2.6385  0.7222
  201MOL0     H26526   3.070   7.847   3.819  0.7137 -0.8887  0.3225
  201MOL0     H26527   3.064   7.864   3.993 -0.3587  3.1829 -1.9238
  201MOL0     H26528   2.805   7.828   3.849  0.9373 -2.5518  1.6561
  201MOL0     H26529   2.828   7.844   4.008  1.0075 -0.9300 -0.5426
  201MOL0     H26530   2.967   8.224   3.800  1.0190  0.6262 -0.1502
  201MOL0     H26531   2.786   7.465   3.942  4.2387  2.3030  2.3298
  201MOL0     H26532   2.532   7.388   3.953  0.9486 -3.0086  1.8021
  202MOL0     O26533   8.751  11.058   3.429  0.4702 -0.2867 -1.1913
  202MOL0     C26534   8.830  11.146   3.390 -0.1842  0.1872  0.4650
  202MOL0     O26535   8.969  11.134   3.383 -0.1652 -0.2515  0.4328
  202MOL0     C26536   9.038  11.014   3.403  0.2478  1.0354  1.2995
  202MOL0     C26537   9.169  11.025   3.428 -0.8863  0.0997 -0.2153
  202MOL0     C26538   9.237  10.906   3.452 -0.6864 -0.0455  0.0959
  202MOL0     C26539   9.187  10.778   3.422 -0.6756  1.1917  0.5483
  202MOL0     O26540   9.259  10.667   3.406  0.0079 -0.4402 -1.3751
  202MOL0     C26541   9.391  10.673   3.357 -0.1226 -0.1102  0.2743
  202MOL0     C26542   9.432  10.531   3.330 -0.2878  0.2329 -0.8169
  202MOL0     C26543   9.585  10.521   3.309  0.2490 -0.0227  0.2688
  202MOL0     C26544   9.646  10.391   3.281  0.7122 -0.3467 -0.6309
  202MOL0     C26545   9.583  10.282   3.382 -0.5487 -1.5359  0.3133
  202MOL0     C26546   9.669  10.152   3.388  0.3554 -0.1768  0.7874
  202MOL0     C26547   9.623  10.046   3.488 -0.2021  0.1283  0.1175
  202MOL0     C26548   9.745   9.951   3.511  0.6024 -0.2309  0.3212
  202MOL0     N26549   9.700   9.849   3.605  0.3287 -1.0606  0.1018
  202MOL0     C26550   9.600   9.759   3.579 -0.7642  0.8904 -0.6188
  202MOL0     C26551   9.579   9.698   3.700  0.0635 -0.3007 -1.4126
  202MOL0     C26552   9.480   9.592   3.743  0.4440  0.3684  0.2379
  202MOL0     C26553   9.340   9.638   3.786 -0.2336 -0.3344  0.2940
  202MOL0     C26554   9.251   9.672   3.666 -0.1880 -0.3064 -0.7570
  202MOL0     C26555   9.113   9.695   3.686  0.8148 -0.2488 -0.1994
  202MOL0     O26556   9.039   9.626   3.587  0.4521  0.1189  0.0844
  202MOL0     C26557   8.903   9.630   3.585  0.8575 -0.0830 -1.2849
  202MOL0     C26558   8.813   9.705   3.667 -0.1001 -0.1012  0.4411
  202MOL0     C26559   8.678   9.703   3.657 -0.0574  0.3401  0.4258
  202MOL0     C26560   8.613   9.618   3.566 -0.0738 -0.2768 -0.4836
  202MOL0     C26561   8.466   9.622   3.545  0.2286 -0.3920 -1.0315
  202MOL0     O26562   8.415   9.536   3.458 -0.0471 -0.3183  0.6530
  202MOL0     C26563   8.284   9.546   3.426 -1.5083 -0.8596  0.3990
  202MOL0     C26564   8.260   9.553   3.292  0.4121  0.2951  0.3840
  202MOL0     C26565   8.126   9.569   3.248  0.7748  0.2610 -0.1364
  202MOL0     C26566   8.019   9.579   3.337  0.2471  1.2506 -0.1301
  202MOL0     O26567   7.899   9.610   3.282  1.0220  0.0499 -0.8000
  202MOL0     C26568   7.825   9.679   3.384  0.5932 -0.2907 -0.1004
  202MOL0     C26569   7.700   9.736   3.323  0.0806 -0.5462  0.4332
  202MOL0     C26570   7.588   9.768   3.426 -0.5411  0.1670 -0.1384
  202MOL0     C26571   7.461   9.828   3.375  0.4162 -0.2372  0.4725
  202MOL0     C26572   7.377   9.736   3.283  0.8188  0.5979 -0.8992
  202MOL0     C26573   7.338   9.602   3.345 -0.9828 -1.3069  0.0448
  202MOL0     C26574   7.276   9.489   3.252  0.0673 -0.2564  0.0978
  202MOL0     C26575   7.230   9.387   3.339  0.1053 -0.1197  0.2993
  202MOL0    Cl26576   7.220   9.231   3.243  0.6892 -0.1557  0.1955
  202MOL0     C26577   8.052   9.549   3.472 -0.4206  0.4636  0.2795
  202MOL0     C26578   8.181   9.538   3.516 -0.5497 -0.4226 -0.2148
  202MOL0     O26579   8.404   9.721   3.588  0.2518  0.0366  0.4584
  202MOL0     C26580   8.698   9.540   3.479 -0.5347 -0.8503  0.9259
  202MOL0     C26581   8.837   9.549   3.491  0.4359  0.2358 -1.2062
  202MOL0     N26582   9.650   9.768   3.796  0.4203  0.1040 -0.4127
  202MOL0     N26583   9.719   9.853   3.736  0.5587 -0.0316 -0.0240
  202MOL0     C26584   9.057  10.770   3.376  0.0216  0.7369  0.5088
  202MOL0     C26585   8.986  10.885   3.364  0.4058  0.2158  0.5756
  202MOL0     C26586   8.761  11.270   3.327 -0.0046 -0.7286  0.2240
  202MOL0     C26587   8.617  11.282   3.336  0.5134  0.4284  0.9088
  202MOL0     C26588   8.564  11.395   3.279  0.4038 -1.0451  0.6189
  202MOL0     C26589   8.639  11.499   3.223  0.1124  0.6463  0.5948
  202MOL0     O26590   8.571  11.609   3.190  0.4193  0.0586  0.7778
  202MOL0     C26591   8.489  11.668   3.298 -0.8358  0.2713 -0.3513
  202MOL0     C26592   8.331  11.668   3.286 -1.0326  0.7804 -0.5272
  202MOL0     C26593   8.296  11.730   3.157 -0.0804  0.2190  0.3675
  202MOL0     C26594   8.161  11.678   3.099  0.1252 -0.7395 -0.6524
  202MOL0     C26595   8.045  11.714   3.184 -0.7540 -0.2720 -0.0296
  202MOL0     C26596   7.952  11.753   3.243  0.1058  0.9529  0.9454
  202MOL0     C26597   8.779  11.484   3.216  0.5009 -0.7330 -0.1478
  202MOL0     C26598   8.840  11.367   3.267 -0.0437  0.7249 -0.2629
  202MOL0     H26599   9.203  11.128   3.436 -1.4745  0.2812 -0.0654
  202MOL0     H26600   9.338  10.933   3.482 -1.0807  1.1378  0.4015
  202MOL0     H26601   9.468  10.722   3.417  2.0684 -1.8990 -0.9365
  202MOL0     H26602   9.384  10.740   3.270 -1.1546  1.8066  1.7492
  202MOL0     H26603   9.374  10.482   3.252  1.8587 -2.1650 -1.0424
  202MOL0     H26604   9.410  10.462   3.412  1.3236 -0.8290 -1.2374
  202MOL0     H26605   9.638  10.560   3.396  3.5250 -0.9443 -1.1482
  202MOL0     H26606   9.614  10.580   3.221 -0.6111 -0.5552 -0.3903
  202MOL0     H26607   9.613  10.364   3.180 -0.6487  0.4680 -0.4244
  202MOL0     H26608   9.753  10.402   3.298  0.3210  0.6584  1.5108
  202MOL0     H26609   9.487  10.260   3.335  0.0463 -0.5793 -1.4339
  202MOL0     H26610   9.567  10.316   3.485  0.6469 -0.5066  0.1915
  202MOL0     H26611   9.769  10.187   3.415  0.6705 -1.0453  0.7873
  202MOL0     H26612   9.679  10.104   3.290  2.8548 -2.2284  1.9186
  202MOL0     H26613   9.593  10.092   3.582  1.1646  0.0289  0.6258
  202MOL0     H26614   9.537   9.993   3.446 -1.5121  0.9145  1.7127
  202MOL0     H26615   9.828  10.012   3.550  1.3204  0.3593 -2.0033
  202MOL0     H26616   9.789   9.902   3.424  2.5164  0.4396  0.8478
  202MOL0     H26617   9.555   9.732   3.485  1.2078  1.0013 -1.6540
  202MOL0     H26618   9.534   9.550   3.829  1.1778  3.0911  1.2075
  202MOL0     H26619   9.470   9.506   3.676 -3.2098  0.2383  0.7327
  202MOL0     H26620   9.357   9.733   3.838  0.1424  1.8220 -3.3941
  202MOL0     H26621   9.293   9.565   3.851 -1.6520 -0.8362 -1.2211
  202MOL0     H26622   9.311   9.746   3.613 -0.3655  1.0285  0.8059
  202MOL0     H26623   9.262   9.574   3.620  0.6481 -1.3759  1.5452
  202MOL0     H26624   9.096   9.803   3.681  1.7687 -0.1304 -1.3328
  202MOL0     H26625   9.085   9.667   3.789 -0.4923  4.3907  0.9572
  202MOL0     H26626   8.858   9.768   3.744  1.8078 -0.6913 -0.1354
  202MOL0     H26627   8.622   9.769   3.722  0.6519  4.0493 -2.3839
  202MOL0     H26628   8.342   9.540   3.222  0.8219  3.4386  0.1616
  202MOL0     H26629   8.108   9.580   3.142 -1.8513 -1.9987 -0.0389
  202MOL0     H26630   7.878   9.764   3.428 -1.5667  0.9159  0.3684
  202MOL0     H26631   7.790   9.615   3.465  1.0735  0.5094  0.7506
  202MOL0     H26632   7.661   9.663   3.251  0.5689 -0.4280  0.0451
  202MOL0     H26633   7.724   9.827   3.268 -1.8100 -0.0614  0.3333
  202MOL0     H26634   7.637   9.838   3.495 -1.4694 -0.2003  0.9341
  202MOL0     H26635   7.563   9.686   3.494 -0.3141  0.3482  0.1684
  202MOL0     H26636   7.400   9.868   3.457  0.9928  1.1431  0.2605
  202MOL0     H26637   7.492   9.914   3.315 -1.9857 -0.0893 -0.6665
  202MOL0     H26638   7.437   9.712   3.195  0.1984 -1.6480 -0.7767
  202MOL0     H26639   7.296   9.791   3.234  0.9364 -0.1790 -2.0249
  202MOL0     H26640   7.262   9.630   3.418 -1.8460  2.1605 -1.9512
  202MOL0     H26641   7.429   9.563   3.392 -1.2858 -0.3347  1.4751
  202MOL0     H26642   7.189   9.525   3.195 -0.3700  1.9239  2.0031
  202MOL0     H26643   7.357   9.444   3.193  0.4866  1.7359 -0.9348
  202MOL0     H26644   7.131   9.418   3.376 -0.4597  0.1895 -1.3818
  202MOL0     H26645   7.303   9.378   3.420 -1.6247  0.9754  2.1076
  202MOL0     H26646   7.974   9.541   3.547  0.1691  0.6254  0.9111
  202MOL0     H26647   8.202   9.517   3.621  1.1543  0.9331 -0.2428
  202MOL0     H26648   8.652   9.478   3.403  2.3127 -0.4539 -1.3390
  202MOL0     H26649   8.895   9.487   3.423  1.8810 -1.7881  1.6603
  202MOL0     H26650   9.024  10.674   3.337 -0.1562  1.0998 -0.2409
  202MOL0     H26651   8.884  10.884   3.327  0.9173 -0.0561 -0.8759
  202MOL0     H26652   8.556  11.207   3.385  1.6324 -0.1411  1.4829
  202MOL0     H26653   8.456  11.407   3.271  0.4496 -0.4236  0.8789
  202MOL0     H26654   8.511  11.775   3.312  0.3934  0.0986 -0.8233
  202MOL0     H26655   8.512  11.621   3.394 -2.8554  0.9188  0.5033
  202MOL0     H26656   8.291  11.566   3.296 -1.6993  1.0277 -0.6477
  202MOL0     H26657   8.292  11.732   3.366 -1.6020 -0.8862  0.5880
  202MOL0     H26658   8.376  11.734   3.082  0.8331  0.8280  1.3606
  202MOL0     H26659   8.282  11.836   3.178  2.3082  0.4888  0.8559
  202MOL0     H26660   8.148  11.706   2.994 -0.6108 -1.9637 -0.9157
  202MOL0     H26661   8.159  11.569   3.089  1.4009 -0.5955 -3.4596
  202MOL0     H26662   7.876  11.804   3.298 -2.0497  0.2063 -1.1549
  202MOL0     H26663   8.834  11.567   3.172 -0.7773  0.4372  0.4059
  202MOL0     H26664   8.948  11.363   3.273 -0.1462 -0.7080  1.6138
  203MOL0     O26665   8.692   9.941   5.305  0.3094  0.2201  0.2167
  203MOL0     C26666   8.730   9.880   5.403  0.1630  0.5448  0.8034
  203MOL0     O26667   8.686   9.746   5.438  0.0495 -1.0487 -0.1160
  203MOL0     C26668   8.572   9.695   5.377  0.0131  0.6074  0.4606
  203MOL0     C26669   8.459   9.774   5.343 -0.1826  0.0554 -0.0165
  203MOL0     C26670   8.344   9.725   5.282 -1.3242  0.1966 -0.3629
  203MOL0     C26671   8.346   9.582   5.246  0.7057  0.7238  0.1718
  203MOL0     O26672   8.238   9.549   5.174 -0.1877  0.8566  0.2799
  203MOL0     C26673   8.217   9.404   5.161  0.6223  0.5575  0.1214
  203MOL0     C26674   8.089   9.366   5.099 -0.1796 -0.3771  1.1356
  203MOL0     C26675   8.081   9.215   5.080  0.3576  0.6116  0.2680
  203MOL0     C26676   7.930   9.189   5.062 -0.5322  0.9794  0.6379
  203MOL0     C26677   7.919   9.038   5.057  0.1084  0.2320 -0.3453
  203MOL0     C26678   7.766   9.020   5.049  0.4924 -0.4520  1.0427
  203MOL0     C26679   7.727   8.875   5.026 -0.5564 -0.8934  0.0035
  203MOL0     C26680   7.575   8.853   5.035  0.2371 -0.4880 -0.1205
  203MOL0     N26681   7.499   8.927   4.927 -0.3131  0.3908 -0.2986
  203MOL0     C26682   7.491   8.892   4.794 -0.3563  0.1880 -0.4422
  203MOL0     C26683   7.393   8.967   4.739 -0.3594  1.4982 -0.4391
  203MOL0     C26684   7.319   8.941   4.606 -0.0802  0.5599  0.3928
  203MOL0     C26685   7.187   8.876   4.632  0.4723  0.4565  0.1891
  203MOL0     C26686   7.107   8.830   4.506 -0.6602 -0.6880  0.4241
  203MOL0     C26687   6.969   8.774   4.544  1.3915  0.3557  0.0185
  203MOL0     O26688   6.885   8.747   4.429  0.1467  0.8959  1.0615
  203MOL0     C26689   6.760   8.707   4.446  1.1848  0.3913  0.0816
  203MOL0     C26690   6.676   8.694   4.332  0.8790  0.1050  0.0778
  203MOL0     C26691   6.540   8.660   4.331 -0.3310 -0.5233  0.5112
  203MOL0     C26692   6.487   8.641   4.463  0.4476 -0.1910  0.4894
  203MOL0     C26693   6.346   8.594   4.475 -0.0127  0.5156  0.2648
  203MOL0     O26694   6.274   8.608   4.593 -0.0077 -0.1374  0.2041
  203MOL0     C26695   6.141   8.573   4.585 -0.0244 -0.6556  0.4587
  203MOL0     C26696   6.084   8.457   4.640  0.4440 -0.7698  0.1322
  203MOL0     C26697   5.949   8.431   4.624  0.4477  0.4469 -0.1333
  203MOL0     C26698   5.861   8.525   4.565 -0.7861 -0.1568  0.5619
  203MOL0     O26699   5.730   8.494   4.554 -0.0159 -0.2429 -0.7039
  203MOL0     C26700   5.631   8.596   4.532  0.0633 -0.0595  0.5620
  203MOL0     C26701   5.493   8.535   4.559  0.1237  0.1867 -0.2558
  203MOL0     C26702   5.385   8.632   4.526  0.4408 -0.3838 -0.0994
  203MOL0     C26703   5.253   8.553   4.516  0.7531  0.0107 -0.2856
  203MOL0     C26704   5.146   8.650   4.490  0.1269 -0.3808 -0.2865
  203MOL0     C26705   4.993   8.617   4.519 -0.2168 -0.2862 -0.6780
  203MOL0     C26706   4.942   8.641   4.667 -0.6457 -0.2407 -0.4337
  203MOL0     C26707   4.795   8.607   4.669 -0.1227 -0.3914  0.3443
  203MOL0    Cl26708   4.703   8.746   4.607  0.5996 -0.0810 -0.1895
  203MOL0     C26709   5.913   8.648   4.522  0.4718 -0.5583 -0.2990
  203MOL0     C26710   6.048   8.668   4.530  0.3048 -0.4283 -0.5209
  203MOL0     O26711   6.307   8.531   4.376  0.0890  0.0096  0.2092
  203MOL0     C26712   6.559   8.659   4.580  0.4361 -0.7738 -0.5901
  203MOL0     C26713   6.695   8.686   4.571 -0.6765 -0.4418 -0.2848
  203MOL0     N26714   7.350   9.062   4.830 -0.0318  0.6023  0.3208
  203MOL0     N26715   7.408   9.039   4.945 -0.0877  0.2436  1.1190
  203MOL0     C26716   8.458   9.501   5.274  0.1306  0.0735  0.3886
  203MOL0     C26717   8.561   9.553   5.355 -0.1685  0.4500  0.1003
  203MOL0     C26718   8.828   9.957   5.501 -0.2117 -0.0759 -0.1274
  203MOL0     C26719   8.884   9.894   5.609  1.2503  0.4476 -0.2434
  203MOL0     C26720   8.987   9.957   5.680  0.1427  0.5120  0.7927
  203MOL0     C26721   9.019  10.093   5.651  0.2067  0.5529 -0.9538
  203MOL0     O26722   9.100  10.176   5.731 -0.0448  0.1795  0.3673
  203MOL0     C26723   9.134  10.137   5.865  0.3265  0.0283  0.7681
  203MOL0     C26724   9.226  10.235   5.929 -0.3600 -0.2497 -0.3392
  203MOL0     C26725   9.168  10.373   5.951  0.5510 -0.5538 -0.2627
  203MOL0     C26726   9.057  10.374   6.056  0.1111  0.2945 -0.8974
  203MOL0     C26727   9.109  10.330   6.185 -0.2497  1.2178 -0.3253
  203MOL0     C26728   9.136  10.277   6.292 -0.0331  0.4612  0.1444
  203MOL0     C26729   8.959  10.157   5.530  0.7383 -0.5105  0.1563
  203MOL0     C26730   8.865  10.084   5.456  0.5172  0.3739 -0.2934
  203MOL0     H26731   8.460   9.880   5.363  0.1816  0.3999 -1.6768
  203MOL0     H26732   8.267   9.793   5.248  0.6487  2.7917  0.0715
  203MOL0     H26733   8.208   9.364   5.263  1.6796  0.3057  0.1302
  203MOL0     H26734   8.304   9.364   5.108  0.4091  1.7688 -1.1947
  203MOL0     H26735   8.088   9.410   4.999  1.3756  0.2536  1.3697
  203MOL0     H26736   8.003   9.399   5.159 -0.8538 -0.0788  0.0394
  203MOL0     H26737   8.131   9.177   5.170 -0.1236  1.9506  1.1211
  203MOL0     H26738   8.141   9.185   4.993 -1.6551 -1.0057 -0.6400
  203MOL0     H26739   7.863   9.236   5.135 -2.0607 -1.4657  0.9333
  203MOL0     H26740   7.900   9.233   4.966  1.0065 -0.3193 -0.4774
  203MOL0     H26741   7.958   8.991   5.148  3.6812  0.4354 -1.6547
  203MOL0     H26742   7.964   8.993   4.968 -0.3684 -0.7587 -0.1065
  203MOL0     H26743   7.739   9.085   4.965 -0.4020  0.3491  1.9255
  203MOL0     H26744   7.718   9.050   5.143  0.0946  0.3353  0.6008
  203MOL0     H26745   7.761   8.840   4.928  1.8752  1.0278  0.0855
  203MOL0     H26746   7.784   8.814   5.096 -1.7882 -0.1419  1.7146
  203MOL0     H26747   7.539   8.885   5.133  1.0738  0.7214 -0.1771
  203MOL0     H26748   7.562   8.745   5.023 -1.2357 -0.7929  3.1721
  203MOL0     H26749   7.533   8.804   4.746 -1.5207 -2.2976  2.7907
  203MOL0     H26750   7.366   8.877   4.531  1.3333 -1.1539  2.6173
  203MOL0     H26751   7.302   9.041   4.564  3.0711  0.9135 -0.2481
  203MOL0     H26752   7.135   8.956   4.685 -2.2746  0.5217 -2.3952
  203MOL0     H26753   7.199   8.786   4.693  1.4420 -1.2607 -2.3589
  203MOL0     H26754   7.087   8.922   4.452 -3.2460  0.1491  2.5538
  203MOL0     H26755   7.170   8.767   4.442  1.3339  2.6018 -1.0837
  203MOL0     H26756   6.913   8.837   4.613 -0.9088 -4.0690  2.7158
  203MOL0     H26757   6.992   8.689   4.609 -2.3107  0.4436  1.7294
  203MOL0     H26758   6.738   8.710   4.244 -1.8270  3.9359 -1.3900
  203MOL0     H26759   6.487   8.652   4.237  0.7088 -0.7540 -0.0677
  203MOL0     H26760   6.152   8.383   4.682  0.8654 -0.0029  0.8131
  203MOL0     H26761   5.909   8.331   4.640  1.0400 -0.1581 -2.0814
  203MOL0     H26762   5.640   8.637   4.431  2.9247  2.3038  1.6569
  203MOL0     H26763   5.656   8.681   4.596  2.1956 -1.6707  1.9946
  203MOL0     H26764   5.486   8.516   4.667  1.1819 -1.3397 -0.4185
  203MOL0     H26765   5.478   8.446   4.498  1.1596 -0.7722  0.8383
  203MOL0     H26766   5.397   8.664   4.422  0.2623  0.3563  0.1015
  203MOL0     H26767   5.387   8.714   4.599  1.2729 -0.5358  0.0566
  203MOL0     H26768   5.256   8.480   4.435  2.6670 -0.0559 -0.1866
  203MOL0     H26769   5.226   8.502   4.610 -1.5494 -1.8611 -1.8381
  203MOL0     H26770   5.137   8.679   4.385  0.7204 -1.3761 -0.6223
  203MOL0     H26771   5.147   8.741   4.551 -2.5869  1.0281 -2.1157
  203MOL0     H26772   4.970   8.514   4.489  0.1727 -1.0849  1.5806
  203MOL0     H26773   4.936   8.685   4.455 -0.0635  1.6993  1.1928
  203MOL0     H26774   4.994   8.576   4.738  0.0660  1.5801  0.7771
  203MOL0     H26775   4.960   8.746   4.690  2.2011 -0.8904  0.8430
  203MOL0     H26776   4.762   8.600   4.772  0.3106  1.9289  0.6978
  203MOL0     H26777   4.769   8.510   4.625  0.6800  0.0608 -1.2462
  203MOL0     H26778   5.849   8.727   4.485  2.9253  1.0762 -1.2974
  203MOL0     H26779   6.082   8.755   4.475 -0.7589  0.2137 -0.1865
  203MOL0     H26780   6.518   8.646   4.679  1.7078 -0.6085 -0.0192
  203MOL0     H26781   6.745   8.696   4.667  1.0687 -0.0725 -1.1934
  203MOL0     H26782   8.461   9.394   5.256  3.5061 -0.2177  1.8980
  203MOL0     H26783   8.635   9.477   5.379  1.3057  1.3563 -1.3458
  203MOL0     H26784   8.851   9.798   5.647 -0.1955  1.4937  1.2613
  203MOL0     H26785   9.036   9.899   5.758  0.5659 -0.0246  0.1385
  203MOL0     H26786   9.195  10.047   5.849  1.2225  1.1337 -3.0226
  203MOL0     H26787   9.045  10.119   5.927  1.0128 -3.6473  0.9243
  203MOL0     H26788   9.276  10.192   6.016  1.3488 -0.1537 -1.2158
  203MOL0     H26789   9.311  10.255   5.862 -0.3081  0.5265 -0.0550
  203MOL0     H26790   9.139  10.426   5.859 -1.3494  0.1903  0.7001
  203MOL0     H26791   9.252  10.433   5.987  0.6570  0.6512 -2.3240
  203MOL0     H26792   9.019  10.476   6.056 -0.1959  0.1815 -1.1052
  203MOL0     H26793   8.976  10.305   6.029  0.0151 -0.4636  1.1199
  203MOL0     H26794   9.145  10.216   6.380  1.9729 -2.1643 -1.7047
  203MOL0     H26795   8.971  10.264   5.515 -1.4446 -0.3968 -1.2561
  203MOL0     H26796   8.813  10.130   5.373 -2.0719  0.2025  1.1376
  204MOL0     O26797   6.736   1.506   2.984 -0.0516  0.4161 -0.4176
  204MOL0     C26798   6.791   1.495   2.873 -0.3361  0.0303  0.1554
  204MOL0     O26799   6.742   1.486   2.746 -0.3062  0.8403  0.0206
  204MOL0     C26800   6.606   1.472   2.748  0.3930 -0.4400 -0.1900
  204MOL0     C26801   6.534   1.555   2.656 -0.4246 -0.1081 -0.0735
  204MOL0     C26802   6.399   1.533   2.620 -0.2720  0.3065 -0.5778
  204MOL0     C26803   6.332   1.426   2.676 -0.2250  0.4071  0.3299
  204MOL0     O26804   6.199   1.400   2.638 -0.6048 -0.0992  0.5986
  204MOL0     C26805   6.107   1.411   2.740  1.1590 -0.5819  0.6924
  204MOL0     C26806   5.991   1.499   2.681  0.3026  0.0913  0.0773
  204MOL0     C26807   6.035   1.655   2.675 -0.3719  0.6015  0.4072
  204MOL0     C26808   5.933   1.739   2.598 -0.1770 -0.0963 -0.1594
  204MOL0     C26809   5.801   1.742   2.679  0.1742 -0.3351  0.3657
  204MOL0     C26810   5.813   1.832   2.809 -0.0910 -0.2871 -0.2887
  204MOL0     C26811   5.675   1.860   2.883  0.5110  0.4260  0.1338
  204MOL0     C26812   5.696   1.957   2.996  0.4034  0.1107 -0.1271
  204MOL0     N26813   5.562   2.003   3.043  0.6059 -0.1523 -0.4824
  204MOL0     C26814   5.468   1.930   3.124 -0.4648 -0.5967 -0.1977
  204MOL0     C26815   5.363   2.011   3.157 -0.0258 -0.0331  0.2218
  204MOL0     C26816   5.237   1.957   3.228 -0.5370 -0.6761  0.1923
  204MOL0     C26817   5.155   1.861   3.150 -0.1555  0.1432 -0.8242
  204MOL0     C26818   5.049   1.791   3.253 -1.4893 -0.7527 -0.1355
  204MOL0     C26819   4.958   1.685   3.211  1.3712 -0.1043  0.7537
  204MOL0     O26820   4.883   1.738   3.099 -0.2715 -0.1728 -0.4357
  204MOL0     C26821   4.749   1.741   3.108  0.3343 -0.0265  0.7337
  204MOL0     C26822   4.681   1.855   3.113 -0.7479 -0.0758 -0.6257
  204MOL0     C26823   4.539   1.861   3.118  0.8081 -0.7259 -0.7225
  204MOL0     C26824   4.464   1.731   3.126 -0.8681 -0.0671  0.0096
  204MOL0     C26825   4.315   1.733   3.129 -0.9197 -0.3874  0.1122
  204MOL0     O26826   4.258   1.854   3.126 -0.8496  0.3689 -0.1973
  204MOL0     C26827   4.132   1.864   3.092  0.7827 -0.4052  0.5101
  204MOL0     C26828   4.023   1.809   3.161 -0.7379  0.0369 -0.1273
  204MOL0     C26829   3.895   1.835   3.110 -0.2676  0.0732 -0.6394
  204MOL0     C26830   3.872   1.934   3.011 -0.2034 -0.7317 -0.1479
  204MOL0     O26831   3.748   1.972   2.976  0.1735  0.0834 -0.4375
  204MOL0     C26832   3.628   1.952   3.050 -0.1137  0.1270  0.6540
  204MOL0     C26833   3.640   2.009   3.196 -0.5733  0.6278  0.9175
  204MOL0     C26834   3.497   2.016   3.257 -0.9584 -0.1788 -0.6595
  204MOL0     C26835   3.509   2.045   3.408  0.3335 -0.5298 -0.4098
  204MOL0     C26836   3.375   2.048   3.474  0.3660 -0.4709 -0.3944
  204MOL0     C26837   3.257   2.129   3.411  0.5915  0.2328 -0.2341
  204MOL0     C26838   3.125   2.124   3.494  0.4044  0.6640 -0.7542
  204MOL0     C26839   3.008   2.172   3.410  0.8165 -0.0675  0.3849
  204MOL0    Cl26840   3.044   2.333   3.336  0.1405 -0.3462 -0.0849
  204MOL0     C26841   3.982   1.983   2.941 -1.2297 -0.2908  0.7172
  204MOL0     C26842   4.108   1.953   2.987 -0.3856 -0.5456 -1.1364
  204MOL0     O26843   4.250   1.625   3.136  0.0197 -0.3835 -0.3036
  204MOL0     C26844   4.542   1.618   3.118  0.5141 -0.1997  1.1124
  204MOL0     C26845   4.683   1.622   3.110  0.0228  0.0566  0.9693
  204MOL0     N26846   5.386   2.130   3.094 -0.8627 -0.1870 -0.6513
  204MOL0     N26847   5.498   2.120   3.017  0.0338  0.5243  0.1479
  204MOL0     C26848   6.399   1.352   2.771  0.0472 -0.0365 -0.7855
  204MOL0     C26849   6.535   1.370   2.802  0.2486  0.8007 -1.1552
  204MOL0     C26850   6.938   1.490   2.887 -0.7516  0.6641 -0.3869
  204MOL0     C26851   7.017   1.468   2.773 -0.4315  0.5888 -0.2353
  204MOL0     C26852   7.161   1.480   2.773  0.2848 -1.0290  0.0126
  204MOL0     C26853   7.230   1.507   2.895  0.5740 -0.1839  0.2877
  204MOL0     O26854   7.361   1.511   2.862  0.5128  0.3667 -0.3263
  204MOL0     C26855   7.458   1.507   2.963 -0.2885 -0.2400  0.3114
  204MOL0     C26856   7.497   1.652   3.000  0.3647  0.2587 -0.7611
  204MOL0     C26857   7.600   1.654   3.115 -0.4831  0.9569  0.2593
  204MOL0     C26858   7.738   1.657   3.061  0.7600  0.2302 -0.1200
  204MOL0     C26859   7.838   1.673   3.163  0.2488  0.2715 -0.1568
  204MOL0     C26860   7.926   1.682   3.242 -0.9164  0.7249 -1.5938
  204MOL0     C26861   7.147   1.514   3.020 -1.0224 -0.7945 -0.3936
  204MOL0     C26862   7.009   1.510   3.007  0.4790 -0.1400 -0.5384
  204MOL0     H26863   6.576   1.651   2.629 -3.3419  0.8599 -1.6247
  204MOL0     H26864   6.354   1.616   2.567  0.2068  0.9400 -0.0152
  204MOL0     H26865   6.140   1.464   2.830  4.3294 -1.0178 -0.0769
  204MOL0     H26866   6.065   1.314   2.766 -0.0289 -0.4984 -0.7618
  204MOL0     H26867   5.904   1.479   2.743 -1.6731 -0.6072 -2.7416
  204MOL0     H26868   5.969   1.460   2.582  2.4528 -2.0145  0.3289
  204MOL0     H26869   6.129   1.656   2.620  0.7351 -2.0267  2.0271
  204MOL0     H26870   6.056   1.713   2.766 -0.4260  2.3587 -0.6631
  204MOL0     H26871   5.964   1.844   2.593 -0.6270  0.0886  0.6328
  204MOL0     H26872   5.927   1.691   2.500  0.7699 -0.1272 -0.2064
  204MOL0     H26873   5.768   1.642   2.709 -0.7095  0.2558  1.4233
  204MOL0     H26874   5.717   1.784   2.624 -1.4681 -0.1319  2.8769
  204MOL0     H26875   5.857   1.929   2.786 -2.1287  0.5253 -0.9816
  204MOL0     H26876   5.880   1.779   2.877 -0.5281 -0.3612  0.0920
  204MOL0     H26877   5.591   1.886   2.818  1.1584  0.2100 -0.8008
  204MOL0     H26878   5.635   1.767   2.927 -2.1347 -1.2556 -5.0115
  204MOL0     H26879   5.752   2.047   2.969 -0.0446  0.7707  1.0627
  204MOL0     H26880   5.749   1.913   3.082  2.6211  1.9071 -0.4745
  204MOL0     H26881   5.491   1.831   3.163  0.0880 -1.0632 -1.6405
  204MOL0     H26882   5.171   2.041   3.255 -0.5793 -0.5877 -0.1814
  204MOL0     H26883   5.274   1.911   3.320 -1.7145  0.1942  1.1404
  204MOL0     H26884   5.226   1.797   3.098  0.1604  0.4685 -0.7971
  204MOL0     H26885   5.105   1.914   3.068  1.7637  1.5932 -1.1398
  204MOL0     H26886   5.104   1.756   3.340  1.4191 -0.7890 -1.8563
  204MOL0     H26887   4.986   1.875   3.282  0.9479  1.3244 -0.5447
  204MOL0     H26888   4.888   1.647   3.286 -1.7437 -0.4437 -2.0757
  204MOL0     H26889   5.018   1.600   3.178  0.4182 -1.1883  1.7408
  204MOL0     H26890   4.750   1.938   3.117  0.5760 -1.1813  0.6031
  204MOL0     H26891   4.487   1.956   3.122  1.0688 -0.6311  1.3041
  204MOL0     H26892   4.025   1.739   3.244 -1.3671  2.2549  1.8709
  204MOL0     H26893   3.818   1.795   3.175 -2.0922  0.8032 -2.2850
  204MOL0     H26894   3.611   1.845   3.066  0.0473 -0.2306 -1.2322
  204MOL0     H26895   3.544   1.990   2.991 -0.1201 -0.3353  0.3556
  204MOL0     H26896   3.675   2.112   3.185 -0.1797  0.6718  2.3949
  204MOL0     H26897   3.703   1.948   3.261  3.2445  3.7922  0.5698
  204MOL0     H26898   3.437   1.927   3.236 -2.7058  0.6764  0.4606
  204MOL0     H26899   3.446   2.101   3.210  2.3444  1.8166 -0.9338
  204MOL0     H26900   3.585   1.992   3.466 -1.5022 -0.3888  2.3389
  204MOL0     H26901   3.542   2.149   3.420 -1.4545  0.3139 -2.2017
  204MOL0     H26902   3.393   2.086   3.576  0.2454 -4.9238  1.5098
  204MOL0     H26903   3.342   1.944   3.484 -0.3047 -0.1495  1.0856
  204MOL0     H26904   3.227   2.070   3.324 -4.8152 -0.6673  1.8242
  204MOL0     H26905   3.287   2.227   3.375  3.9424 -0.8985 -0.8777
  204MOL0     H26906   3.103   2.023   3.532  0.1375  1.4251  1.2235
  204MOL0     H26907   3.142   2.195   3.575 -0.5793  2.4137 -2.0309
  204MOL0     H26908   2.918   2.183   3.471 -0.5561  0.3489 -1.6262
  204MOL0     H26909   2.988   2.099   3.331  1.7785  1.0809 -0.9718
  204MOL0     H26910   3.965   2.062   2.868  4.0888  0.1643 -0.4504
  204MOL0     H26911   4.193   2.005   2.943 -1.2111 -0.5239 -2.7565
  204MOL0     H26912   4.491   1.522   3.117 -1.8075  0.9643 -0.6807
  204MOL0     H26913   4.719   1.520   3.103  0.4164  0.2307  0.3649
  204MOL0     H26914   6.341   1.281   2.828  0.8171  1.4560  2.0081
  204MOL0     H26915   6.588   1.299   2.864  1.7315  3.0242  0.2863
  204MOL0     H26916   6.985   1.460   2.670 -0.5882  4.7780 -0.7111
  204MOL0     H26917   7.223   1.484   2.684  0.0362  3.8357 -0.2112
  204MOL0     H26918   7.543   1.444   2.934 -0.5224  0.1343 -1.2773
  204MOL0     H26919   7.415   1.471   3.057  0.2789  1.7621  1.3824
  204MOL0     H26920   7.527   1.702   2.907 -1.1499  1.6288 -0.5579
  204MOL0     H26921   7.403   1.701   3.028  0.4076  0.6755 -1.3194
  204MOL0     H26922   7.600   1.568   3.182  2.5034  0.2049 -0.5791
  204MOL0     H26923   7.586   1.749   3.167 -0.7417  0.7911  0.4934
  204MOL0     H26924   7.755   1.556   3.024  1.0125 -0.0815  0.8288
  204MOL0     H26925   7.739   1.735   2.984 -1.2670 -1.0660 -1.5504
  204MOL0     H26926   8.004   1.696   3.313  0.0405  1.5979 -2.7745
  204MOL0     H26927   7.193   1.503   3.118  0.0218 -2.2765 -1.0178
  204MOL0     H26928   6.955   1.504   3.101 -2.1093 -1.4563 -1.9868
  205MOL0     O26929  10.738   2.393   7.448  0.0093 -0.6328  0.0880
  205MOL0     C26930  10.761   2.286   7.497  0.1505 -0.2962  0.6627
  205MOL0     O26931  10.673   2.221   7.578  0.5032  0.1691 -0.4948
  205MOL0     C26932  10.544   2.274   7.612 -0.8381 -0.2905  0.1930
  205MOL0     C26933  10.459   2.185   7.663 -0.0981  0.4144 -0.3452
  205MOL0     C26934  10.326   2.226   7.699 -0.2673 -0.7306 -1.3483
  205MOL0     C26935  10.283   2.361   7.676 -0.4321 -0.3191  0.1510
  205MOL0     O26936  10.156   2.410   7.701 -0.2230 -0.3404 -0.4584
  205MOL0     C26937  10.035   2.333   7.689  0.0263  1.1223 -0.8616
  205MOL0     C26938   9.911   2.418   7.710  0.2101 -0.7466 -0.4763
  205MOL0     C26939   9.783   2.332   7.716  0.0485  0.4381  0.9742
  205MOL0     C26940   9.664   2.410   7.771  0.2748 -0.4679 -0.5718
  205MOL0     C26941   9.521   2.360   7.725 -0.2017  0.3899 -0.1465
  205MOL0     C26942   9.418   2.423   7.819  0.5599 -0.7172 -0.1975
  205MOL0     C26943   9.289   2.397   7.752  0.2447  1.1848 -0.4088
  205MOL0     C26944   9.187   2.484   7.847  0.7846 -0.4885 -0.2543
  205MOL0     N26945   9.070   2.405   7.893 -0.6178  0.1136  0.0584
  205MOL0     C26946   9.080   2.292   7.975  0.4390 -0.7854 -0.6138
  205MOL0     C26947   8.947   2.255   7.993 -0.3735  0.3245 -0.1925
  205MOL0     C26948   8.883   2.132   8.055  0.3674 -0.4441 -0.4780
  205MOL0     C26949   8.771   2.071   7.973  0.1128 -0.2976 -0.9539
  205MOL0     C26950   8.741   1.938   8.032 -0.3875  0.3585  1.0024
  205MOL0     C26951   8.623   1.871   7.979  0.0399 -0.0960  1.6246
  205MOL0     O26952   8.568   1.766   8.057  0.1128 -0.7020  0.3523
  205MOL0     C26953   8.446   1.703   8.034  0.3404 -0.3285 -0.0094
  205MOL0     C26954   8.388   1.627   8.137  0.2067  0.7858  0.3274
  205MOL0     C26955   8.266   1.563   8.113  0.2273  0.8355  0.1650
  205MOL0     C26956   8.214   1.561   7.984  0.2669  0.2992 -0.0980
  205MOL0     C26957   8.096   1.473   7.957  0.0740 -0.2940  0.1696
  205MOL0     O26958   8.077   1.367   8.042 -0.3658  0.1493  0.2752
  205MOL0     C26959   8.006   1.267   8.000  0.3583  0.9182  0.5717
  205MOL0     C26960   7.869   1.263   8.035  0.4590  0.4585 -0.3214
  205MOL0     C26961   7.798   1.154   7.994 -0.6568  0.6040 -0.3291
  205MOL0     C26962   7.855   1.035   7.941  1.0145 -0.7945 -0.0466
  205MOL0     O26963   7.783   0.931   7.899  0.5946  0.1099  0.9798
  205MOL0     C26964   7.654   0.939   7.849 -0.5227 -0.1474  1.1155
  205MOL0     C26965   7.567   0.888   7.959 -0.8258 -0.2178  0.0556
  205MOL0     C26966   7.431   0.837   7.914 -0.4366 -1.3158 -1.0132
  205MOL0     C26967   7.344   0.810   8.040  0.3406  0.9694  0.1938
  205MOL0     C26968   7.210   0.741   7.996  0.6780 -0.6999  0.7693
  205MOL0     C26969   7.124   0.840   7.912  0.0534  0.1147  0.6331
  205MOL0     C26970   7.006   0.769   7.861 -0.2387 -0.0714 -0.1739
  205MOL0     C26971   6.896   0.753   7.969  0.2145 -0.0405 -0.3067
  205MOL0    Cl26972   6.794   0.904   7.999 -0.0113  0.2315 -0.3644
  205MOL0     C26973   7.987   1.038   7.906  1.1824  0.6312 -0.0600
  205MOL0     C26974   8.061   1.147   7.939 -0.0433 -0.6688 -1.0902
  205MOL0     O26975   8.035   1.491   7.851 -0.2590  0.2679  0.5452
  205MOL0     C26976   8.262   1.652   7.888 -0.1339 -0.3969  0.2222
  205MOL0     C26977   8.379   1.722   7.916  0.1573  0.1590  0.7165
  205MOL0     N26978   8.862   2.348   7.936 -0.3640 -0.0925 -0.0608
  205MOL0     N26979   8.939   2.436   7.874  1.1969  0.0093  0.5552
  205MOL0     C26980  10.382   2.453   7.633  0.5816  0.6271  0.0133
  205MOL0     C26981  10.513   2.413   7.615 -0.0761  0.6362 -0.9555
  205MOL0     C26982  10.887   2.222   7.469 -0.0654 -1.1017 -0.5989
  205MOL0     C26983  10.989   2.288   7.387  0.4802  0.1517 -0.4743
  205MOL0     C26984  11.107   2.225   7.352  0.6954  0.7447  0.7849
  205MOL0     C26985  11.136   2.102   7.411 -0.1297  0.0137  0.7427
  205MOL0     O26986  11.247   2.029   7.389 -0.0960  0.1542 -0.3802
  205MOL0     C26987  11.364   2.110   7.374  0.5853 -0.0450  0.3309
  205MOL0     C26988  11.486   2.022   7.425 -0.8925  0.3480  0.3397
  205MOL0     C26989  11.467   1.954   7.560 -0.1289 -0.5357  0.3378
  205MOL0     C26990  11.427   2.065   7.672  0.8159  0.9608  0.1054
  205MOL0     C26991  11.432   1.998   7.804  0.1151 -0.5623 -0.0429
  205MOL0     C26992  11.425   1.955   7.916  0.1331 -0.9193  0.7594
  205MOL0     C26993  11.040   2.034   7.490  0.6922 -0.7103  0.2228
  205MOL0     C26994  10.917   2.096   7.528 -0.8641 -0.3087  0.5126
  205MOL0     H26995  10.478   2.080   7.682 -2.8413 -0.3191 -1.1489
  205MOL0     H26996  10.259   2.144   7.721  0.0212 -0.9802 -1.4034
  205MOL0     H26997  10.046   2.259   7.768  0.7332  1.8812 -0.2342
  205MOL0     H26998  10.029   2.280   7.594 -2.6644  0.5570 -0.4768
  205MOL0     H26999   9.910   2.497   7.634  0.5781 -1.1104 -0.8623
  205MOL0     H27000   9.904   2.475   7.803 -1.6408  0.5626 -1.3603
  205MOL0     H27001   9.798   2.243   7.778 -0.7982 -1.1810 -1.0215
  205MOL0     H27002   9.770   2.294   7.614  1.5138 -3.2441  2.0003
  205MOL0     H27003   9.672   2.394   7.879  0.2484  0.8840 -0.3591
  205MOL0     H27004   9.674   2.514   7.741 -1.9183  0.2369  0.9063
  205MOL0     H27005   9.513   2.250   7.730 -0.3055  0.4429  2.6286
  205MOL0     H27006   9.516   2.398   7.623  0.3634  1.3258  0.1667
  205MOL0     H27007   9.441   2.530   7.817  0.1952 -0.6344 -0.0123
  205MOL0     H27008   9.405   2.386   7.922 -3.3796  2.3576  0.6417
  205MOL0     H27009   9.297   2.413   7.645  2.7116 -0.7165 -0.6120
  205MOL0     H27010   9.268   2.291   7.771  0.2198  1.6160  2.5176
  205MOL0     H27011   9.167   2.575   7.790  0.0921 -0.8460 -0.5882
  205MOL0     H27012   9.238   2.524   7.936  1.1565 -2.2484  0.3592
  205MOL0     H27013   9.166   2.236   8.011 -1.5907 -1.8320  3.1499
  205MOL0     H27014   8.848   2.167   8.153  1.8418  1.7219 -0.6571
  205MOL0     H27015   8.970   2.068   8.067  0.6157  0.1863  1.5071
  205MOL0     H27016   8.799   2.066   7.868  0.2328  0.2443 -0.9543
  205MOL0     H27017   8.685   2.138   7.976 -1.0861 -1.8136  1.1260
  205MOL0     H27018   8.819   1.862   8.017 -0.2154  0.4204  1.5532
  205MOL0     H27019   8.721   1.941   8.140  1.8009  0.5322  1.4575
  205MOL0     H27020   8.650   1.831   7.881  1.4406  1.9201  1.1212
  205MOL0     H27021   8.546   1.944   7.954  0.1919 -0.4578 -0.0030
  205MOL0     H27022   8.439   1.613   8.231 -0.0094 -0.7963  0.2310
  205MOL0     H27023   8.227   1.493   8.186 -0.2376 -1.4020 -2.0526
  205MOL0     H27024   7.833   1.350   8.088 -0.7830 -1.1996  1.7029
  205MOL0     H27025   7.694   1.166   8.021 -0.3513  2.1900  0.2361
  205MOL0     H27026   7.640   0.868   7.767  0.0221  1.7620 -0.7188
  205MOL0     H27027   7.636   1.043   7.819  0.1625 -0.7398 -1.6504
  205MOL0     H27028   7.550   0.969   8.030 -0.1664 -0.2654  0.2665
  205MOL0     H27029   7.627   0.814   8.013 -1.4903  0.0426  1.1995
  205MOL0     H27030   7.441   0.759   7.838 -1.7308  1.2420 -4.0597
  205MOL0     H27031   7.394   0.923   7.857  4.5525  1.3747 -0.7809
  205MOL0     H27032   7.394   0.741   8.108 -3.2069 -1.6301  0.5037
  205MOL0     H27033   7.318   0.902   8.092 -0.5758 -0.2672  2.0551
  205MOL0     H27034   7.155   0.712   8.085 -0.1443 -0.0412  0.4901
  205MOL0     H27035   7.230   0.656   7.931 -1.4850  0.2982 -1.3858
  205MOL0     H27036   7.191   0.879   7.835  0.5176 -2.5312 -0.4155
  205MOL0     H27037   7.091   0.922   7.976 -0.4615  0.9714 -0.6992
  205MOL0     H27038   6.987   0.813   7.763  1.3683  0.6967 -0.1571
  205MOL0     H27039   7.023   0.671   7.814 -0.3102  0.4876 -1.4137
  205MOL0     H27040   6.939   0.710   8.059 -0.3985 -1.4844 -0.6734
  205MOL0     H27041   6.839   0.666   7.933 -0.2599 -0.0923  0.5427
  205MOL0     H27042   8.030   0.947   7.867 -0.1895  0.4097 -1.1611
  205MOL0     H27043   8.168   1.157   7.929  0.3787  1.4772  3.2217
  205MOL0     H27044   8.209   1.667   7.794 -1.7438  1.2343  1.3345
  205MOL0     H27045   8.424   1.769   7.829  1.5808 -0.6529  0.9788
  205MOL0     H27046  10.358   2.558   7.621 -0.7017  0.9931  4.1653
  205MOL0     H27047  10.586   2.491   7.593 -0.4492  1.1364 -0.4517
  205MOL0     H27048  10.969   2.379   7.331 -3.0460 -0.5057 -0.4887
  205MOL0     H27049  11.177   2.262   7.278 -0.3045  1.5773  0.2096
  205MOL0     H27050  11.355   2.202   7.433 -1.5441 -1.6860  2.7781
  205MOL0     H27051  11.368   2.134   7.267  0.9953 -0.9473  0.1344
  205MOL0     H27052  11.496   1.944   7.348 -1.8199  0.5275  0.0189
  205MOL0     H27053  11.573   2.087   7.432 -0.9894  0.3550  1.9338
  205MOL0     H27054  11.563   1.909   7.587 -0.6116 -1.0284  1.3147
  205MOL0     H27055  11.391   1.875   7.562 -1.8639  1.0263  3.1920
  205MOL0     H27056  11.498   2.148   7.663  1.6860  0.3190  0.9294
  205MOL0     H27057  11.324   2.094   7.647  0.2338 -1.6968 -0.8361
  205MOL0     H27058  11.429   1.909   8.013  0.9848 -2.2304  0.1250
  205MOL0     H27059  11.059   1.941   7.543  0.3937 -0.5401  0.6426
  205MOL0     H27060  10.841   2.050   7.590 -0.3432 -0.8101  0.7954
  206MOL0     O27061   6.553   0.994   1.194 -0.3719 -0.1848  1.1816
  206MOL0     C27062   6.571   0.873   1.214 -0.1126 -0.1165 -0.2479
  206MOL0     O27063   6.481   0.769   1.191 -0.8082 -0.4059 -0.0708
  206MOL0     C27064   6.366   0.800   1.129 -0.3904  0.3760  0.4100
  206MOL0     C27065   6.252   0.744   1.174 -1.0146 -1.1068 -0.4791
  206MOL0     C27066   6.129   0.766   1.101 -0.3896  0.9178  0.4037
  206MOL0     C27067   6.134   0.822   0.970  0.3397  0.0029 -0.1563
  206MOL0     O27068   6.022   0.832   0.893 -0.6142  1.0374  0.2276
  206MOL0     C27069   5.978   0.700   0.865  0.5653 -0.5380  0.4311
  206MOL0     C27070   5.854   0.700   0.773 -0.1829 -0.9382  0.0206
  206MOL0     C27071   5.744   0.784   0.842 -0.1577 -0.4725  0.2265
  206MOL0     C27072   5.605   0.767   0.777  0.1040 -0.4147 -0.1121
  206MOL0     C27073   5.525   0.900   0.795 -0.4203  0.0651  0.3692
  206MOL0     C27074   5.380   0.885   0.766 -0.2502  0.2760 -0.0137
  206MOL0     C27075   5.305   1.009   0.807 -0.3155  0.2341 -0.2290
  206MOL0     C27076   5.154   0.996   0.788  0.6896  1.0355  0.3918
  206MOL0     N27077   5.097   1.127   0.765 -0.0811 -0.0717  0.4366
  206MOL0     C27078   4.961   1.141   0.752  0.1548 -0.1664  0.2994
  206MOL0     C27079   4.944   1.278   0.745 -0.4594  0.5163 -0.5598
  206MOL0     C27080   4.817   1.346   0.721  0.1863 -0.4408  0.4080
  206MOL0     C27081   4.731   1.361   0.849 -0.1730  0.3419 -0.2430
  206MOL0     C27082   4.619   1.468   0.822  0.3806  0.5596 -0.0042
  206MOL0     C27083   4.491   1.393   0.769 -0.3860 -0.5274 -0.2140
  206MOL0     O27084   4.405   1.492   0.724  0.1741  0.1930 -0.3512
  206MOL0     C27085   4.269   1.469   0.693 -1.8738  0.1723  0.5143
  206MOL0     C27086   4.204   1.564   0.612  0.3524  0.3245  0.4781
  206MOL0     C27087   4.065   1.551   0.583 -0.1418 -0.1705 -0.4495
  206MOL0     C27088   4.000   1.433   0.618 -0.3495 -0.0429 -0.6124
  206MOL0     C27089   3.863   1.403   0.581  0.1425  0.2643 -0.2485
  206MOL0     O27090   3.807   1.483   0.485  0.4245 -0.6352  0.8570
  206MOL0     C27091   3.690   1.444   0.422 -0.4755 -0.2558 -1.1133
  206MOL0     C27092   3.676   1.460   0.289  0.3517 -0.5497  0.2067
  206MOL0     C27093   3.571   1.408   0.216  0.4909  0.1305  0.3023
  206MOL0     C27094   3.466   1.352   0.283  0.6938  0.7136  0.0909
  206MOL0     O27095   3.363   1.305   0.200 -0.6597  0.0863 -0.2343
  206MOL0     C27096   3.219   1.309   0.234 -0.9006 -1.2839 -0.0296
  206MOL0     C27097   3.148   1.280   0.102 -0.6360 -0.6600 -0.3612
  206MOL0     C27098   3.003   1.257   0.119 -0.0352  0.2129  0.1435
  206MOL0     C27099   2.942   1.236  -0.020  0.1494 -0.3460  0.3722
  206MOL0     C27100   2.799   1.184  -0.002 -0.4026  0.1642  0.9145
  206MOL0     C27101   2.701   1.269   0.088  0.5219  0.7757  0.2489
  206MOL0     C27102   2.554   1.206   0.085 -0.0095  0.1893 -0.2215
  206MOL0     C27103   2.464   1.257   0.194 -0.8038  0.6505 -0.0682
  206MOL0    Cl27104   2.289   1.220   0.179 -0.2897 -0.3587  0.5896
  206MOL0     C27105   3.463   1.349   0.425 -0.2706 -0.4188 -0.7386
  206MOL0     C27106   3.580   1.394   0.495 -0.5353  0.4855 -0.0992
  206MOL0     O27107   3.821   1.292   0.619 -0.1454  0.0938 -0.5158
  206MOL0     C27108   4.079   1.329   0.688  0.4030  0.4841  0.4468
  206MOL0     C27109   4.207   1.356   0.733 -0.2607  0.1287 -0.8893
  206MOL0     N27110   5.065   1.338   0.762 -0.2310 -0.2013 -0.3186
  206MOL0     N27111   5.155   1.251   0.773  0.3269  0.1492 -0.1353
  206MOL0     C27112   6.253   0.869   0.928  1.0148 -0.4278  0.0989
  206MOL0     C27113   6.374   0.868   1.007 -0.3858  0.0569 -0.4911
  206MOL0     C27114   6.688   0.840   1.289  0.0406  0.1834 -1.0238
  206MOL0     C27115   6.798   0.931   1.288  0.3893 -0.2400 -0.6835
  206MOL0     C27116   6.910   0.907   1.361  0.2243  0.5506  0.5974
  206MOL0     C27117   6.914   0.803   1.451 -0.3821 -0.8654  0.5584
  206MOL0     O27118   7.026   0.798   1.533 -0.2808 -0.7565 -0.7868
  206MOL0     C27119   7.070   0.663   1.585  0.9399 -0.0397  0.5612
  206MOL0     C27120   7.186   0.683   1.676  0.1221 -0.3876 -1.8609
  206MOL0     C27121   7.298   0.717   1.577 -0.4699 -0.0710  1.0599
  206MOL0     C27122   7.406   0.798   1.664  0.1815 -0.2676  1.1898
  206MOL0     C27123   7.491   0.700   1.738 -0.8580  0.2892 -0.3162
  206MOL0     C27124   7.557   0.614   1.789  0.5079  0.1000 -0.4426
  206MOL0     C27125   6.805   0.714   1.448 -0.2554  0.5467 -0.1900
  206MOL0     C27126   6.699   0.725   1.366 -0.2632  0.0516 -0.0109
  206MOL0     H27127   6.247   0.704   1.274 -0.8929 -0.6230 -0.2741
  206MOL0     H27128   6.036   0.725   1.140  0.0773 -0.2952  0.2723
  206MOL0     H27129   5.947   0.644   0.953  0.1975 -1.5413 -0.3174
  206MOL0     H27130   6.056   0.641   0.817 -0.6047 -1.2024 -0.7416
  206MOL0     H27131   5.828   0.595   0.757  0.0541 -1.6800  3.7108
  206MOL0     H27132   5.883   0.743   0.676 -2.2363 -2.4374 -1.3451
  206MOL0     H27133   5.771   0.887   0.816 -0.8979 -0.1593  0.6855
  206MOL0     H27134   5.751   0.771   0.950  1.2726  2.1319  0.5321
  206MOL0     H27135   5.624   0.752   0.670  3.9159 -1.4613  0.5600
  206MOL0     H27136   5.562   0.675   0.817  0.2144 -0.1858  0.5321
  206MOL0     H27137   5.578   0.967   0.726  3.5866 -0.6159  2.5307
  206MOL0     H27138   5.526   0.946   0.894  0.4790 -0.2696  0.5136
  206MOL0     H27139   5.346   0.803   0.830  0.2522 -0.6052 -0.8352
  206MOL0     H27140   5.367   0.868   0.659  0.1990  0.5972 -0.1231
  206MOL0     H27141   5.325   1.026   0.913 -0.3312 -1.0919  0.0043
  206MOL0     H27142   5.356   1.086   0.748  0.2538  1.7794  2.1712
  206MOL0     H27143   5.102   0.936   0.863  0.4256  2.2333  1.1864
  206MOL0     H27144   5.150   0.942   0.693 -0.3748 -0.4075  1.2210
  206MOL0     H27145   4.888   1.065   0.726 -1.2459  0.0617  3.1649
  206MOL0     H27146   4.751   1.297   0.649 -0.4160 -0.3666  0.9031
  206MOL0     H27147   4.845   1.440   0.674  0.7605 -0.0678  1.4546
  206MOL0     H27148   4.800   1.387   0.930  1.7753 -3.1307 -0.5895
  206MOL0     H27149   4.691   1.265   0.882  2.1671 -0.6088  0.0264
  206MOL0     H27150   4.592   1.515   0.917  0.7943  2.0545 -0.5987
  206MOL0     H27151   4.647   1.542   0.746  0.9522  1.0539  0.6854
  206MOL0     H27152   4.455   1.345   0.861  1.2170  0.3971  0.9539
  206MOL0     H27153   4.515   1.319   0.693 -1.4189 -1.0651 -0.0394
  206MOL0     H27154   4.253   1.655   0.579 -2.2493  1.1074 -1.6310
  206MOL0     H27155   4.014   1.636   0.537 -2.2797 -0.1783  1.7253
  206MOL0     H27156   3.768   1.499   0.247  1.5128 -0.1476  2.9084
  206MOL0     H27157   3.571   1.426   0.109 -1.2922 -0.2519  0.2073
  206MOL0     H27158   3.195   1.407   0.277  2.9288 -1.5836  3.4034
  206MOL0     H27159   3.188   1.240   0.312 -2.1777  2.6974  3.3740
  206MOL0     H27160   3.198   1.191   0.064  0.4276 -0.6060  0.8232
  206MOL0     H27161   3.151   1.370   0.040 -1.4522  0.9236  1.7426
  206MOL0     H27162   2.959   1.348   0.160  0.3743  0.9459 -1.0116
  206MOL0     H27163   2.983   1.172   0.185  1.7931  0.1857  0.7148
  206MOL0     H27164   2.942   1.326  -0.082  1.1662 -1.3286 -1.1202
  206MOL0     H27165   2.997   1.160  -0.076  0.8834 -1.1149  2.0544
  206MOL0     H27166   2.805   1.084   0.041  0.7229  0.0090  0.4359
  206MOL0     H27167   2.747   1.167  -0.097  0.1051  1.3710  0.3907
  206MOL0     H27168   2.689   1.374   0.059 -1.4593 -0.3855 -3.7427
  206MOL0     H27169   2.737   1.271   0.191  0.1037  0.8312  0.3959
  206MOL0     H27170   2.503   1.224  -0.010  0.9794  2.8893 -0.3485
  206MOL0     H27171   2.556   1.097   0.092 -4.3915 -0.0305  1.0773
  206MOL0     H27172   2.481   1.364   0.205  0.0938  0.4352  0.8420
  206MOL0     H27173   2.493   1.215   0.291  0.4698 -1.1589 -1.1746
  206MOL0     H27174   3.374   1.320   0.480 -0.4993  1.0343 -0.3123
  206MOL0     H27175   3.586   1.390   0.603 -0.5240  0.3684 -0.1046
  206MOL0     H27176   4.023   1.236   0.697 -0.9852  0.8374 -2.9196
  206MOL0     H27177   4.243   1.274   0.794 -0.4338  1.1855  0.6866
  206MOL0     H27178   6.252   0.918   0.832  1.8357  1.3669  0.9561
  206MOL0     H27179   6.465   0.912   0.969  0.0359 -1.5547 -1.4512
  206MOL0     H27180   6.800   1.023   1.230 -1.2417  1.4318  1.7085
  206MOL0     H27181   6.998   0.970   1.355  0.7399 -0.1354  0.8613
  206MOL0     H27182   7.092   0.591   1.505 -0.1696  2.4839 -2.2453
  206MOL0     H27183   6.993   0.624   1.652 -1.1046 -0.9602 -2.1171
  206MOL0     H27184   7.168   0.769   1.742 -0.4877  0.6390 -3.3137
  206MOL0     H27185   7.204   0.591   1.732  0.1144  0.7734  0.1370
  206MOL0     H27186   7.262   0.793   1.506  1.5877 -0.4337 -0.4808
  206MOL0     H27187   7.340   0.645   1.506  0.7572  0.9966  0.6513
  206MOL0     H27188   7.471   0.852   1.595  3.4556 -2.0018  2.6609
  206MOL0     H27189   7.361   0.866   1.736  0.5819  0.2242  0.9792
  206MOL0     H27190   7.628   0.550   1.838  0.6465  0.2430 -0.4551
  206MOL0     H27191   6.803   0.637   1.525  0.0579 -0.0899 -0.8065
  206MOL0     H27192   6.617   0.655   1.374 -0.3858  0.1752 -0.1594
  207MOL0     O27193   0.165   8.196   4.905 -0.1779  0.1376  0.1687
  207MOL0     C27194   0.240   8.116   4.854 -0.4883  0.0820  1.0176
  207MOL0     O27195   0.235   8.062   4.724  0.4132 -0.2891  0.0340
  207MOL0     C27196   0.142   8.120   4.643 -0.9129  0.2174  0.5202
  207MOL0     C27197   0.039   8.049   4.593  0.0651 -0.3242 -0.0829
  207MOL0     C27198  -0.047   8.099   4.495  0.6537 -0.2615  0.3738
  207MOL0     C27199  -0.033   8.229   4.444  0.2504  0.2818 -0.3360
  207MOL0     O27200  -0.136   8.291   4.377 -0.4044  0.0355  0.0919
  207MOL0     C27201  -0.196   8.211   4.275  0.4372 -0.3513  0.2227
  207MOL0     C27202  -0.255   8.301   4.167  1.0453  0.2788  0.5112
  207MOL0     C27203  -0.320   8.210   4.060  0.3737  0.3311 -0.7944
  207MOL0     C27204  -0.391   8.295   3.953  0.1557  0.9474 -0.3764
  207MOL0     C27205  -0.293   8.345   3.855 -0.3282 -1.2303  0.2290
  207MOL0     C27206  -0.378   8.407   3.740 -0.9668 -0.0740  0.7222
  207MOL0     C27207  -0.284   8.433   3.615 -0.7753  0.2946  0.1910
  207MOL0     C27208  -0.347   8.513   3.506 -0.2638 -0.3963  0.4586
  207MOL0     N27209  -0.453   8.436   3.444  0.6505 -0.3497  0.6200
  207MOL0     C27210  -0.443   8.346   3.347 -0.0093 -0.1005  0.9595
  207MOL0     C27211  -0.566   8.312   3.300  0.0698  0.6804 -0.5210
  207MOL0     C27212  -0.594   8.217   3.183  0.0475 -0.0237 -0.1398
  207MOL0     C27213  -0.649   8.293   3.061 -0.4642  0.4346  0.0378
  207MOL0     C27214  -0.774   8.232   3.014 -0.1632  0.0824  0.8188
  207MOL0     C27215  -0.892   8.282   3.095 -0.9145  0.8721 -0.1047
  207MOL0     O27216  -1.017   8.231   3.051 -0.3694 -0.3788  0.0079
  207MOL0     C27217  -1.088   8.293   2.957 -0.6531 -0.4082  0.1709
  207MOL0     C27218  -1.222   8.255   2.953  0.1966 -1.2739 -0.6995
  207MOL0     C27219  -1.308   8.328   2.868 -0.0225 -0.6099  0.4208
  207MOL0     C27220  -1.261   8.427   2.781  0.2400 -0.2181  0.2245
  207MOL0     C27221  -1.348   8.487   2.687  0.3806  0.8143 -0.2872
  207MOL0     O27222  -1.289   8.532   2.576  0.1486  0.5139  0.5783
  207MOL0     C27223  -1.376   8.588   2.487 -0.5391 -0.4625  0.5002
  207MOL0     C27224  -1.380   8.726   2.453  0.2082  0.5594 -0.0027
  207MOL0     C27225  -1.465   8.772   2.355 -0.8442  0.3262  0.2747
  207MOL0     C27226  -1.549   8.689   2.287  0.9389  0.2198  0.2125
  207MOL0     O27227  -1.646   8.741   2.207  0.4282 -0.4040  0.3445
  207MOL0     C27228  -1.776   8.683   2.220 -1.0335  1.0331  0.2646
  207MOL0     C27229  -1.885   8.788   2.191  0.6129 -0.6605 -0.3402
  207MOL0     C27230  -2.030   8.763   2.229  0.1894  0.2260  0.1142
  207MOL0     C27231  -2.107   8.704   2.109 -0.0587 -0.1598 -0.0134
  207MOL0     C27232  -2.258   8.712   2.133 -0.5496 -0.6604  0.2034
  207MOL0     C27233  -2.338   8.651   2.017  0.5383  0.0365  0.0635
  207MOL0     C27234  -2.490   8.656   2.046  0.4297 -0.0212 -0.0320
  207MOL0     C27235  -2.565   8.601   1.925  0.2465 -0.0681 -0.7399
  207MOL0    Cl27236  -2.729   8.637   1.957 -0.5374  0.0693 -0.0024
  207MOL0     C27237  -1.539   8.552   2.319 -0.1689 -0.0512  0.1867
  207MOL0     C27238  -1.445   8.503   2.408 -0.0242  0.6758 -0.0153
  207MOL0     O27239  -1.472   8.485   2.702  0.3153  0.2577 -0.7545
  207MOL0     C27240  -1.120   8.460   2.780  0.1894  0.0158 -0.4154
  207MOL0     C27241  -1.038   8.388   2.864 -0.3118  0.1720 -1.0281
  207MOL0     N27242  -0.654   8.371   3.392 -0.3168  0.0096 -0.0723
  207MOL0     N27243  -0.587   8.452   3.465  0.2281  0.2753  0.1949
  207MOL0     C27244   0.068   8.301   4.493 -0.1580  0.2323  0.1237
  207MOL0     C27245   0.161   8.244   4.585 -0.0072  0.4007  0.4169
  207MOL0     C27246   0.358   8.082   4.934 -0.7149  0.0954 -1.0816
  207MOL0     C27247   0.460   7.997   4.875 -0.5237  0.8690 -0.0373
  207MOL0     C27248   0.558   7.940   4.953  0.5676  0.1638 -0.4109
  207MOL0     C27249   0.566   7.972   5.084 -0.3997 -0.0784 -0.8271
  207MOL0     O27250   0.665   7.924   5.173 -0.2187  0.1031  0.0633
  207MOL0     C27251   0.765   7.828   5.132  0.4346  0.5560  0.3732
  207MOL0     C27252   0.882   7.906   5.061  0.1877  1.3723 -0.1980
  207MOL0     C27253   0.948   7.980   5.175 -0.2883  0.6809  0.5086
  207MOL0     C27254   1.017   8.109   5.124  0.3484  0.1176  0.2672
  207MOL0     C27255   1.092   8.170   5.237  0.3003  0.1651  0.1718
  207MOL0     C27256   1.153   8.226   5.324  0.3383 -1.1019  0.4531
  207MOL0     C27257   0.467   8.051   5.145 -0.4596 -0.0961 -0.7785
  207MOL0     C27258   0.361   8.107   5.073  0.6016  0.4758 -0.4179
  207MOL0     H27259   0.014   7.949   4.627  1.8296 -1.6179 -2.2730
  207MOL0     H27260  -0.118   8.025   4.459  1.3730 -1.6913  1.7847
  207MOL0     H27261  -0.281   8.153   4.312  0.1724  0.9643  1.7874
  207MOL0     H27262  -0.121   8.142   4.236  1.8725  0.5914  1.2427
  207MOL0     H27263  -0.176   8.365   4.128 -0.6314  1.6491 -0.7790
  207MOL0     H27264  -0.332   8.363   4.213  1.1417 -0.2025  1.3493
  207MOL0     H27265  -0.393   8.147   4.112  0.9039 -0.1064 -0.5706
  207MOL0     H27266  -0.250   8.146   4.006 -0.1986  1.9862 -3.7121
  207MOL0     H27267  -0.465   8.227   3.908  1.0730  0.3069 -0.9667
  207MOL0     H27268  -0.441   8.377   4.005 -3.2280 -1.1066 -0.0986
  207MOL0     H27269  -0.219   8.277   3.813 -0.3975 -0.7327 -0.7313
  207MOL0     H27270  -0.233   8.421   3.905 -0.8423 -0.6697  0.0066
  207MOL0     H27271  -0.410   8.507   3.771  0.5256  0.3067  1.1422
  207MOL0     H27272  -0.456   8.345   3.695  1.4077 -1.4534 -1.8200
  207MOL0     H27273  -0.197   8.493   3.646 -0.8189  1.2773 -1.4840
  207MOL0     H27274  -0.254   8.338   3.570 -1.0173  1.3380 -2.3182
  207MOL0     H27275  -0.284   8.546   3.423 -2.5478  2.3942 -0.3060
  207MOL0     H27276  -0.380   8.606   3.554 -0.5522  0.8365 -2.0002
  207MOL0     H27277  -0.357   8.303   3.297 -0.8604 -0.2198 -0.4637
  207MOL0     H27278  -0.661   8.139   3.221  1.4043 -2.3447 -2.1770
  207MOL0     H27279  -0.502   8.171   3.146 -0.9184 -1.9514 -0.3027
  207MOL0     H27280  -0.575   8.297   2.980 -1.5795  1.7144 -0.9582
  207MOL0     H27281  -0.673   8.397   3.086 -0.9713 -0.1654  2.2900
  207MOL0     H27282  -0.785   8.282   2.917 -0.1544  1.6370  1.5808
  207MOL0     H27283  -0.775   8.123   3.009  0.3418  0.0706  0.9284
  207MOL0     H27284  -0.891   8.391   3.094 -1.3057  0.9707  2.6273
  207MOL0     H27285  -0.874   8.248   3.197  2.3171 -0.4438 -0.9867
  207MOL0     H27286  -1.254   8.178   3.023  1.0622 -0.8836  0.1589
  207MOL0     H27287  -1.414   8.301   2.866 -0.5271  1.1858 -2.1848
  207MOL0     H27288  -1.316   8.791   2.512 -1.0522  1.8438  0.0005
  207MOL0     H27289  -1.458   8.880   2.352  0.5471  0.2335 -0.9027
  207MOL0     H27290  -1.793   8.643   2.321  1.1812  0.9702  0.6804
  207MOL0     H27291  -1.788   8.614   2.136 -0.2647  2.4750 -1.0729
  207MOL0     H27292  -1.883   8.821   2.087 -3.7588 -0.7037 -0.6224
  207MOL0     H27293  -1.853   8.873   2.251  0.4542 -1.0074  0.2443
  207MOL0     H27294  -2.075   8.862   2.243 -2.0059 -0.7784  0.5569
  207MOL0     H27295  -2.047   8.706   2.321 -0.3674  1.1987  0.6255
  207MOL0     H27296  -2.091   8.755   2.014 -0.8632 -1.3551 -0.8087
  207MOL0     H27297  -2.085   8.598   2.091 -2.3794 -0.2828 -3.0132
  207MOL0     H27298  -2.282   8.818   2.144  1.8985  0.4027 -3.0177
  207MOL0     H27299  -2.284   8.658   2.225  0.8333 -1.8750 -0.0885
  207MOL0     H27300  -2.303   8.551   1.987 -2.4620 -0.0919 -3.7375
  207MOL0     H27301  -2.304   8.699   1.926 -1.1518 -0.7142 -1.0173
  207MOL0     H27302  -2.510   8.607   2.142  1.5141  0.8018  0.6347
  207MOL0     H27303  -2.504   8.764   2.052  1.8713  0.0952  2.9115
  207MOL0     H27304  -2.554   8.492   1.927  0.6382 -0.0262  1.2357
  207MOL0     H27305  -2.537   8.634   1.824 -2.4648  0.7752 -1.2877
  207MOL0     H27306  -1.602   8.477   2.272  1.7968 -0.2331 -2.3323
  207MOL0     H27307  -1.446   8.398   2.433  0.0905  0.2247 -1.7899
  207MOL0     H27308  -1.075   8.531   2.710  0.7362 -0.2296 -0.3150
  207MOL0     H27309  -0.933   8.415   2.875 -0.7263  1.1884  0.7437
  207MOL0     H27310   0.077   8.404   4.459  0.1256 -0.2685 -1.4262
  207MOL0     H27311   0.255   8.286   4.618  3.0568 -3.0825 -2.8050
  207MOL0     H27312   0.455   7.979   4.768 -2.1409 -0.6833  0.2501
  207MOL0     H27313   0.630   7.875   4.905  1.9098  1.7618 -0.6535
  207MOL0     H27314   0.725   7.756   5.060  1.2816 -0.1329  0.5605
  207MOL0     H27315   0.802   7.774   5.221 -1.5236  1.3566  1.7344
  207MOL0     H27316   0.954   7.832   5.025 -0.0156 -0.7272  3.2903
  207MOL0     H27317   0.853   7.966   4.974 -0.1415  0.2444 -0.8895
  207MOL0     H27318   1.026   7.910   5.207 -0.5707 -0.2830 -0.8461
  207MOL0     H27319   0.884   7.999   5.262  0.6739  2.7728  0.8135
  207MOL0     H27320   1.079   8.094   5.035 -0.8768 -0.6303 -0.4912
  207MOL0     H27321   0.939   8.176   5.086 -1.2504 -2.3350 -1.1183
  207MOL0     H27322   1.192   8.289   5.401 -0.7612  0.0306  0.1130
  207MOL0     H27323   0.465   8.060   5.253  0.4559  0.2062 -0.7785
  207MOL0     H27324   0.280   8.161   5.120 -0.1883 -1.3104  0.3792
  208MOL0     O27325   0.672   5.404   1.964 -0.0636 -0.0483 -0.1305
  208MOL0     C27326   0.608   5.479   2.041  0.1836 -0.1408 -0.4835
  208MOL0     O27327   0.469   5.496   2.047 -1.0230 -0.7237 -0.7997
  208MOL0     C27328   0.376   5.424   1.975  0.6111  0.6504 -0.6171
  208MOL0     C27329   0.250   5.488   1.947 -0.4172 -0.3379  0.2905
  208MOL0     C27330   0.148   5.419   1.882 -0.0928  0.2652  0.2330
  208MOL0     C27331   0.169   5.283   1.839  0.5726 -0.1368  0.0076
  208MOL0     O27332   0.079   5.200   1.774  0.1731  0.4996 -0.5935
  208MOL0     C27333  -0.049   5.247   1.728 -0.1141 -0.9741 -0.9040
  208MOL0     C27334  -0.120   5.134   1.651  0.3871 -0.2193  0.0180
  208MOL0     C27335  -0.271   5.167   1.624  0.5062  0.0001 -1.0205
  208MOL0     C27336  -0.295   5.300   1.552  0.1925 -0.9288 -0.1608
  208MOL0     C27337  -0.447   5.326   1.521  0.0711  0.0264  0.2200
  208MOL0     C27338  -0.451   5.455   1.435  0.4597 -0.1733  0.3762
  208MOL0     C27339  -0.598   5.487   1.417  0.0428 -0.5608  0.0697
  208MOL0     C27340  -0.626   5.619   1.337 -0.8977 -0.4875  1.2523
  208MOL0     N27341  -0.604   5.582   1.196  0.5133  0.2697  0.6341
  208MOL0     C27342  -0.699   5.508   1.132 -0.6863  0.6532  0.2304
  208MOL0     C27343  -0.650   5.491   1.004 -1.0244  0.2656 -0.1455
  208MOL0     C27344  -0.702   5.429   0.882 -0.6608  0.4352 -0.1067
  208MOL0     C27345  -0.853   5.429   0.877 -0.1385  1.1050 -0.8694
  208MOL0     C27346  -0.894   5.308   0.793  0.7781 -0.0617 -0.6816
  208MOL0     C27347  -1.049   5.282   0.796 -0.5269 -0.4658 -0.0703
  208MOL0     O27348  -1.129   5.358   0.707 -1.0567 -0.0221 -0.2745
  208MOL0     C27349  -1.261   5.385   0.742 -0.6734 -0.0341 -0.2512
  208MOL0     C27350  -1.344   5.309   0.815 -0.4047 -0.2793 -0.0954
  208MOL0     C27351  -1.474   5.352   0.851 -0.1862  0.2978 -0.5055
  208MOL0     C27352  -1.521   5.484   0.810 -0.4652  0.4708  0.0134
  208MOL0     C27353  -1.655   5.531   0.860 -0.8486  1.5843 -0.1636
  208MOL0     O27354  -1.744   5.435   0.883 -0.2054  0.5501 -0.0360
  208MOL0     C27355  -1.878   5.458   0.913  0.8776 -0.0551  0.4600
  208MOL0     C27356  -1.955   5.573   0.885  0.1856 -0.3361 -0.9686
  208MOL0     C27357  -2.087   5.578   0.917 -0.1354  0.5501 -0.0907
  208MOL0     C27358  -2.145   5.478   1.000  0.2078  0.8559  0.0985
  208MOL0     O27359  -2.273   5.491   1.038  1.3449  0.2236  0.5665
  208MOL0     C27360  -2.310   5.406   1.145 -0.2019 -0.0252  0.6804
  208MOL0     C27361  -2.440   5.444   1.211  0.4335  0.6387  0.5314
  208MOL0     C27362  -2.554   5.368   1.128 -0.0320  0.1754 -0.3934
  208MOL0     C27363  -2.692   5.407   1.180  0.3775  0.5064 -0.1855
  208MOL0     C27364  -2.810   5.359   1.087  0.2100 -0.3585 -0.0146
  208MOL0     C27365  -2.873   5.485   1.015 -0.1461 -0.2903 -0.0405
  208MOL0     C27366  -2.976   5.428   0.920 -0.3169  0.1544  0.7373
  208MOL0     C27367  -3.056   5.544   0.852 -0.0993 -0.0610  0.2911
  208MOL0    Cl27368  -3.196   5.481   0.760  0.4010 -0.0305 -0.3196
  208MOL0     C27369  -2.069   5.365   1.030  0.1277  0.7642 -0.7792
  208MOL0     C27370  -1.935   5.354   0.989  0.5511 -0.0574 -0.7723
  208MOL0     O27371  -1.669   5.650   0.885 -0.0702 -0.7396  0.4583
  208MOL0     C27372  -1.433   5.560   0.737 -0.9595 -0.3697 -0.0938
  208MOL0     C27373  -1.305   5.514   0.708  0.0669  0.4514 -0.2903
  208MOL0     N27374  -0.522   5.544   1.006 -0.4941 -0.1637 -0.6119
  208MOL0     N27375  -0.493   5.603   1.117 -0.0734  0.0249 -0.7184
  208MOL0     C27376   0.286   5.214   1.864  0.1524 -0.4182 -1.0992
  208MOL0     C27377   0.390   5.288   1.928  0.1430  0.1831  0.8414
  208MOL0     C27378   0.692   5.551   2.134 -0.2884  0.1915  0.6332
  208MOL0     C27379   0.631   5.640   2.224 -0.0859 -0.2211 -0.4525
  208MOL0     C27380   0.696   5.725   2.319 -0.2566 -0.4853  0.0995
  208MOL0     C27381   0.836   5.722   2.316 -0.2046  0.2611  0.6362
  208MOL0     O27382   0.925   5.784   2.400 -0.1516  0.0684  0.0403
  208MOL0     C27383   0.892   5.771   2.538  0.1042  0.1835 -0.5640
  208MOL0     C27384   0.953   5.638   2.582  0.2212 -0.1287 -0.0152
  208MOL0     C27385   1.104   5.620   2.558  0.3758  0.7469 -0.4100
  208MOL0     C27386   1.178   5.733   2.626  0.3940  0.2010 -0.4786
  208MOL0     C27387   1.317   5.727   2.600 -1.1299 -0.5915 -0.2250
  208MOL0     C27388   1.431   5.725   2.568 -0.7686  0.4842 -0.9138
  208MOL0     C27389   0.897   5.646   2.216 -0.2114  0.2390  0.2098
  208MOL0     C27390   0.830   5.556   2.131  0.3089 -0.5162  0.5223
  208MOL0     H27391   0.232   5.593   1.971 -1.8193  0.1494 -2.4544
  208MOL0     H27392   0.061   5.476   1.851  0.2083 -0.9005 -3.1800
  208MOL0     H27393  -0.041   5.334   1.662  2.6738  1.0642  1.8292
  208MOL0     H27394  -0.110   5.275   1.814  0.2418 -1.5867 -0.4466
  208MOL0     H27395  -0.105   5.043   1.710 -2.4561  1.6998  4.2645
  208MOL0     H27396  -0.084   5.127   1.548 -2.0646  2.4215 -1.1584
  208MOL0     H27397  -0.334   5.160   1.713  1.4241  1.3384 -0.2343
  208MOL0     H27398  -0.317   5.089   1.563 -1.9917 -0.0893  0.8391
  208MOL0     H27399  -0.259   5.385   1.611 -0.1110 -1.2989  0.5726
  208MOL0     H27400  -0.246   5.290   1.455 -0.1331 -1.7727 -0.2409
  208MOL0     H27401  -0.493   5.342   1.619  0.4258 -3.9968  1.2218
  208MOL0     H27402  -0.486   5.235   1.475  0.4386  0.4446 -0.9394
  208MOL0     H27403  -0.413   5.442   1.333 -1.7538 -1.5501 -0.3286
  208MOL0     H27404  -0.396   5.541   1.475 -0.4272  0.6016 -0.0297
  208MOL0     H27405  -0.634   5.401   1.361 -0.4041 -0.0479 -0.4492
  208MOL0     H27406  -0.657   5.490   1.508 -1.9753  2.6693 -1.1446
  208MOL0     H27407  -0.554   5.695   1.370 -0.4436 -1.3870  2.3854
  208MOL0     H27408  -0.730   5.651   1.350 -1.0742  0.2911 -1.5145
  208MOL0     H27409  -0.790   5.476   1.182  0.1140  1.6483  2.4377
  208MOL0     H27410  -0.655   5.331   0.870 -1.7338 -0.2193  0.8585
  208MOL0     H27411  -0.671   5.482   0.792  1.0514 -0.3660 -0.0286
  208MOL0     H27412  -0.888   5.522   0.829  2.8718  2.0865 -1.3973
  208MOL0     H27413  -0.904   5.421   0.974  1.6178  3.8536  0.4199
  208MOL0     H27414  -0.859   5.315   0.690 -1.6010  2.6987 -1.4339
  208MOL0     H27415  -0.851   5.219   0.840  0.1585 -0.6794 -1.2477
  208MOL0     H27416  -1.074   5.302   0.901 -0.1054 -1.1744  0.1636
  208MOL0     H27417  -1.065   5.177   0.773 -1.7967  0.0282 -1.6126
  208MOL0     H27418  -1.309   5.217   0.860 -4.5049 -1.4392  1.2031
  208MOL0     H27419  -1.531   5.285   0.915  0.8081  0.4874  0.6161
  208MOL0     H27420  -1.909   5.661   0.841 -3.6635  3.4638  1.7367
  208MOL0     H27421  -2.136   5.673   0.895 -2.1269 -0.1905  0.9453
  208MOL0     H27422  -2.237   5.411   1.226  1.2607 -1.2310 -0.5160
  208MOL0     H27423  -2.322   5.304   1.108  0.4578 -0.4991  1.7239
  208MOL0     H27424  -2.448   5.552   1.230 -0.6785  1.1512 -2.4138
  208MOL0     H27425  -2.441   5.403   1.313 -1.1281  1.9006  1.0658
  208MOL0     H27426  -2.533   5.261   1.137  0.2537  0.0916 -1.8542
  208MOL0     H27427  -2.541   5.393   1.022  0.4604 -0.9870 -0.6203
  208MOL0     H27428  -2.694   5.352   1.275 -0.5968 -0.0934 -0.5414
  208MOL0     H27429  -2.696   5.514   1.204  0.7250  0.8204 -1.4788
  208MOL0     H27430  -2.891   5.308   1.139 -1.5608  0.3892 -1.8787
  208MOL0     H27431  -2.758   5.298   1.012 -0.4696  1.3509 -1.9712
  208MOL0     H27432  -2.802   5.548   0.961  0.4671 -1.3146 -0.4506
  208MOL0     H27433  -2.927   5.540   1.093 -1.0174 -2.9722  1.3816
  208MOL0     H27434  -2.924   5.366   0.846  0.5716  2.9656 -1.1531
  208MOL0     H27435  -3.039   5.361   0.979  0.0939 -0.2906  0.6774
  208MOL0     H27436  -3.001   5.600   0.777  2.0054 -0.9510  1.0787
  208MOL0     H27437  -3.105   5.612   0.921 -0.5048  2.7202 -2.5536
  208MOL0     H27438  -2.100   5.282   1.092  2.3093  2.0759  2.3891
  208MOL0     H27439  -1.884   5.264   1.022  0.4475 -0.0926 -0.7076
  208MOL0     H27440  -1.443   5.666   0.718  1.9130  0.3788  1.8252
  208MOL0     H27441  -1.231   5.575   0.657  1.5649 -1.0588 -0.0215
  208MOL0     H27442   0.295   5.111   1.831  2.0905 -0.9710  0.9947
  208MOL0     H27443   0.485   5.239   1.946 -0.6059 -1.8103 -0.2427
  208MOL0     H27444   0.523   5.645   2.234  0.0420 -0.0175  1.1145
  208MOL0     H27445   0.637   5.793   2.379 -3.0318 -0.7107 -2.1286
  208MOL0     H27446   0.785   5.773   2.558  0.1865  0.2343 -0.1090
  208MOL0     H27447   0.940   5.855   2.590  0.0408  0.8854 -1.6023
  208MOL0     H27448   0.926   5.607   2.683 -1.9915 -2.0482 -1.1284
  208MOL0     H27449   0.916   5.553   2.525  1.1536 -0.9351  0.5320
  208MOL0     H27450   1.131   5.628   2.452  0.1999  1.5760 -0.4037
  208MOL0     H27451   1.132   5.524   2.601 -0.2983 -0.0990 -1.8225
  208MOL0     H27452   1.147   5.832   2.592  3.9269  1.4224 -0.5749
  208MOL0     H27453   1.152   5.741   2.732 -0.9491  0.1180 -0.7838
  208MOL0     H27454   1.537   5.728   2.554 -0.5926 -0.6565 -0.0075
  208MOL0     H27455   1.002   5.665   2.198 -0.7063  1.6975 -1.5355
  208MOL0     H27456   0.877   5.501   2.049 -0.5331  0.0652 -0.3716
  209MOL0     O27457   5.157   3.774   3.620 -0.2532 -0.5868 -0.2877
  209MOL0     C27458   5.167   3.698   3.716 -0.1095  0.3902  0.2056
  209MOL0     O27459   5.256   3.685   3.816  0.3931  0.3219 -0.4416
  209MOL0     C27460   5.361   3.764   3.830 -1.0160  0.6734 -0.1369
  209MOL0     C27461   5.413   3.861   3.750  0.2926 -0.2149 -0.5638
  209MOL0     C27462   5.507   3.956   3.793  1.0438  0.0749 -0.4774
  209MOL0     C27463   5.566   3.946   3.927  0.5108 -0.7568  0.0803
  209MOL0     O27464   5.669   4.026   3.972 -0.0213 -0.3733  0.1444
  209MOL0     C27465   5.748   4.105   3.887 -1.1869 -0.0742  0.6037
  209MOL0     C27466   5.862   4.166   3.959 -0.1975  0.5126 -0.9891
  209MOL0     C27467   5.974   4.213   3.860  0.2887  0.2837  0.7502
  209MOL0     C27468   6.042   4.344   3.890  0.0465 -0.2000  0.2629
  209MOL0     C27469   6.161   4.321   3.985 -0.2790 -0.3733  0.1702
  209MOL0     C27470   6.246   4.438   4.002 -0.6565 -0.0064  0.5912
  209MOL0     C27471   6.357   4.415   4.104 -0.4034  0.0234 -0.4501
  209MOL0     C27472   6.412   4.555   4.155 -0.4324 -0.2163 -0.2914
  209MOL0     N27473   6.493   4.607   4.051 -0.4196  0.0470  0.5004
  209MOL0     C27474   6.620   4.576   4.037 -0.5788 -0.1094 -0.7116
  209MOL0     C27475   6.653   4.634   3.921  0.0786  0.9209  0.1341
  209MOL0     C27476   6.771   4.613   3.832  0.4016 -0.2675  0.5658
  209MOL0     C27477   6.787   4.479   3.771 -0.5674 -0.1003 -0.8248
  209MOL0     C27478   6.778   4.475   3.611 -0.6455  0.1653 -0.2189
  209MOL0     C27479   6.649   4.513   3.547 -0.6198 -0.7306 -0.1206
  209MOL0     O27480   6.575   4.386   3.564  0.3777 -0.9046  0.7277
  209MOL0     C27481   6.437   4.386   3.540 -0.3918  0.2261  0.1845
  209MOL0     C27482   6.361   4.288   3.595  0.9383  0.5560  0.3398
  209MOL0     C27483   6.223   4.266   3.569  0.4868 -0.6492 -0.0355
  209MOL0     C27484   6.163   4.347   3.469 -1.1791  0.0820 -0.2339
  209MOL0     C27485   6.031   4.322   3.428 -0.3414  1.0897  0.1067
  209MOL0     O27486   5.942   4.254   3.508 -0.0168  0.1450 -0.1953
  209MOL0     C27487   5.820   4.216   3.455  0.0676 -0.0601  0.4939
  209MOL0     C27488   5.707   4.282   3.494  0.3951 -0.5969 -1.0767
  209MOL0     C27489   5.585   4.242   3.443  0.6816 -0.0839 -0.3226
  209MOL0     C27490   5.568   4.146   3.350 -0.0540  0.1259  0.2195
  209MOL0     O27491   5.441   4.109   3.301 -0.7723  0.7128 -0.2608
  209MOL0     C27492   5.337   4.072   3.386  0.1057  0.1666 -0.4129
  209MOL0     C27493   5.194   4.106   3.332 -0.3422  0.1525  0.1900
  209MOL0     C27494   5.092   4.026   3.409 -0.1560 -0.2219 -0.8226
  209MOL0     C27495   4.963   4.015   3.321 -0.1539  0.3965 -0.1835
  209MOL0     C27496   4.883   3.906   3.399  0.3286 -0.1093  0.2001
  209MOL0     C27497   4.741   3.866   3.346  0.0661 -0.7094 -0.1620
  209MOL0     C27498   4.719   3.715   3.351 -0.6900  0.7752 -0.4306
  209MOL0     C27499   4.577   3.680   3.333  0.2355 -0.3145  0.5546
  209MOL0    Cl27500   4.574   3.496   3.308 -0.5713  0.3942 -0.1715
  209MOL0     C27501   5.683   4.081   3.301 -0.2145  0.8485 -0.4580
  209MOL0     C27502   5.806   4.112   3.357 -0.1029  0.0340 -0.3742
  209MOL0     O27503   6.009   4.381   3.321 -0.1642 -0.3241 -0.0774
  209MOL0     C27504   6.234   4.459   3.412 -0.5977 -0.0638  0.3180
  209MOL0     C27505   6.371   4.479   3.450 -0.8528  0.1018  0.1344
  209MOL0     N27506   6.555   4.714   3.880 -0.1002  0.0329  0.0057
  209MOL0     N27507   6.450   4.696   3.958  0.5751 -0.3262 -0.3175
  209MOL0     C27508   5.526   3.832   4.003 -0.0320  0.7321 -0.4879
  209MOL0     C27509   5.433   3.738   3.952 -0.1633  0.2245  0.0597
  209MOL0     C27510   5.056   3.605   3.739 -0.1541 -0.1250 -0.0626
  209MOL0     C27511   4.967   3.562   3.637 -0.7046 -0.2292  1.4013
  209MOL0     C27512   4.871   3.471   3.660 -0.0625 -0.2504 -0.0017
  209MOL0     C27513   4.830   3.436   3.792  0.4616 -0.9129  0.2729
  209MOL0     O27514   4.720   3.350   3.816  0.5242 -0.0608  0.3439
  209MOL0     C27515   4.660   3.282   3.700 -0.7549 -0.4150 -0.8145
  209MOL0     C27516   4.558   3.190   3.752  0.4120  0.5730  1.0169
  209MOL0     C27517   4.498   3.093   3.651  0.3522  0.1898  0.4342
  209MOL0     C27518   4.432   3.161   3.538  0.7813 -0.3902  0.0673
  209MOL0     C27519   4.396   3.066   3.438  0.5456  0.5761 -0.0546
  209MOL0     C27520   4.353   2.985   3.360 -0.6612 -0.4887  0.0380
  209MOL0     C27521   4.910   3.476   3.897 -0.1739 -1.1168  0.1110
  209MOL0     C27522   5.023   3.559   3.872  0.8266 -0.5628  0.5545
  209MOL0     H27523   5.369   3.879   3.652 -0.0882 -3.2022 -1.0230
  209MOL0     H27524   5.524   4.046   3.735  1.9585  1.7028  2.1244
  209MOL0     H27525   5.689   4.184   3.840 -0.5705 -0.7627 -1.4654
  209MOL0     H27526   5.784   4.043   3.804 -2.1212  0.1173  0.0345
  209MOL0     H27527   5.896   4.093   4.033  0.5794  1.9214  0.1014
  209MOL0     H27528   5.830   4.253   4.017  0.6830 -0.8747  1.8115
  209MOL0     H27529   5.927   4.216   3.761  2.0329 -0.2032 -0.1469
  209MOL0     H27530   6.043   4.129   3.870  2.5547  1.9181 -0.2576
  209MOL0     H27531   6.069   4.394   3.796 -2.7593 -0.4675 -0.7891
  209MOL0     H27532   5.966   4.408   3.934  1.1508  1.1953  0.2098
  209MOL0     H27533   6.221   4.239   3.946  0.3301 -0.8455  1.9901
  209MOL0     H27534   6.116   4.292   4.081  0.6263  0.1028  0.7527
  209MOL0     H27535   6.186   4.525   4.029  1.6304  1.2128  2.0527
  209MOL0     H27536   6.290   4.463   3.905  0.0002 -1.0426  0.6032
  209MOL0     H27537   6.330   4.350   4.188  0.9721 -1.7317 -1.2986
  209MOL0     H27538   6.436   4.353   4.061  0.7105  0.4933  0.8509
  209MOL0     H27539   6.478   4.561   4.242 -2.7913  2.2982  1.4499
  209MOL0     H27540   6.334   4.623   4.187 -0.1438 -0.9234  2.1388
  209MOL0     H27541   6.674   4.503   4.097  0.2890  2.9083  2.5410
  209MOL0     H27542   6.857   4.616   3.901  0.3022 -1.1185  0.7411
  209MOL0     H27543   6.776   4.694   3.759  2.8939 -0.9903 -0.1794
  209MOL0     H27544   6.714   4.407   3.808 -2.9596  1.6054 -1.9957
  209MOL0     H27545   6.887   4.439   3.793 -0.7529 -1.2730 -1.9806
  209MOL0     H27546   6.852   4.548   3.577  1.1278 -0.4629  2.0477
  209MOL0     H27547   6.808   4.377   3.574  0.0218  0.0599  0.5786
  209MOL0     H27548   6.669   4.548   3.446 -0.7010 -1.1797 -0.2976
  209MOL0     H27549   6.590   4.587   3.601  1.9014  0.1339  1.6129
  209MOL0     H27550   6.417   4.228   3.667 -0.9846 -0.8211  0.7663
  209MOL0     H27551   6.158   4.199   3.625  0.0369  0.5651  0.9458
  209MOL0     H27552   5.699   4.352   3.577  0.9317 -2.1950  0.3804
  209MOL0     H27553   5.497   4.294   3.480  1.0740 -0.4270  1.1410
  209MOL0     H27554   5.351   4.112   3.487 -0.5491 -1.4043  0.3426
  209MOL0     H27555   5.327   3.963   3.385 -1.5923  0.2746  1.0594
  209MOL0     H27556   5.193   4.095   3.224 -1.0996 -2.7262  0.3943
  209MOL0     H27557   5.181   4.214   3.344 -1.7824  0.2288 -1.5326
  209MOL0     H27558   5.059   4.072   3.503  0.1828  0.3218 -0.9652
  209MOL0     H27559   5.133   3.929   3.440  1.4035  0.8269  0.5353
  209MOL0     H27560   4.906   4.108   3.317 -0.1934  0.3788 -0.0426
  209MOL0     H27561   4.998   3.973   3.226  2.5864 -1.3758  1.4399
  209MOL0     H27562   4.889   3.940   3.503  2.9244  2.1091 -0.5510
  209MOL0     H27563   4.942   3.814   3.398 -1.9732 -1.7043 -2.5826
  209MOL0     H27564   4.724   3.900   3.243  1.2347  0.2363 -0.0692
  209MOL0     H27565   4.669   3.917   3.410  2.1863  4.7540 -1.5838
  209MOL0     H27566   4.780   3.669   3.272  1.5885  1.2487  0.9454
  209MOL0     H27567   4.755   3.675   3.447 -0.6250  2.0189  0.0777
  209MOL0     H27568   4.539   3.732   3.244  0.0966 -0.3287  0.6051
  209MOL0     H27569   4.521   3.724   3.417  2.1572  2.0740  0.7066
  209MOL0     H27570   5.670   3.998   3.232  1.7104 -0.5081  0.7111
  209MOL0     H27571   5.888   4.049   3.325 -0.9709 -0.6587 -1.2764
  209MOL0     H27572   6.195   4.516   3.328  0.7684 -0.0551 -0.3224
  209MOL0     H27573   6.431   4.562   3.414  0.7805  0.6240  3.6435
  209MOL0     H27574   5.567   3.819   4.103 -1.7431  2.7662  0.5506
  209MOL0     H27575   5.402   3.654   4.013  0.8865  1.3246  2.2228
  209MOL0     H27576   4.996   3.592   3.537 -1.2228  0.0502  1.3275
  209MOL0     H27577   4.821   3.438   3.569  2.2975  0.3205 -1.5922
  209MOL0     H27578   4.732   3.215   3.651 -0.2430 -1.6056  1.4353
  209MOL0     H27579   4.617   3.350   3.626  2.5448  0.6513 -1.9470
  209MOL0     H27580   4.605   3.142   3.839 -0.2119  2.1525  2.2728
  209MOL0     H27581   4.479   3.257   3.787  0.1197  2.1104 -2.2115
  209MOL0     H27582   4.421   3.035   3.701 -0.9058  1.5718  0.1620
  209MOL0     H27583   4.583   3.031   3.620  2.3636  2.5413  0.8659
  209MOL0     H27584   4.340   3.216   3.563  1.1585  0.8253 -1.1272
  209MOL0     H27585   4.494   3.240   3.494 -0.6480  2.5756  2.9055
  209MOL0     H27586   4.315   2.918   3.286  0.2546 -1.6386  0.5761
  209MOL0     H27587   4.880   3.445   3.997 -1.3619  0.7628  0.4014
  209MOL0     H27588   5.085   3.587   3.957 -0.9918 -0.7618  2.0225
  210MOL0     O27589   9.064   9.296   2.274  0.9898  0.1812  0.5520
  210MOL0     C27590   9.160   9.225   2.251 -0.7082  0.7666  0.2267
  210MOL0     O27591   9.160   9.113   2.158 -0.0700  0.3387  0.1577
  210MOL0     C27592   9.055   9.113   2.069 -0.7629  0.0369  0.2522
  210MOL0     C27593   9.074   9.150   1.940  1.0381 -0.0294  0.1011
  210MOL0     C27594   8.960   9.166   1.859  0.4123  0.7204 -0.2700
  210MOL0     C27595   8.829   9.147   1.910  0.5803  0.2774  0.1198
  210MOL0     O27596   8.730   9.180   1.818 -0.2671 -0.1385 -0.0952
  210MOL0     C27597   8.597   9.158   1.875 -0.8611 -0.1691 -0.0103
  210MOL0     C27598   8.495   9.172   1.763  0.3979  0.2865 -0.1536
  210MOL0     C27599   8.484   9.056   1.656 -0.5723 -0.1946 -0.8004
  210MOL0     C27600   8.422   8.927   1.718 -0.1848 -0.3571 -0.1097
  210MOL0     C27601   8.405   8.816   1.607  0.0933 -0.0342 -0.3317
  210MOL0     C27602   8.301   8.844   1.493 -0.1736  0.1918 -0.5572
  210MOL0     C27603   8.158   8.800   1.533  0.2848  0.3392 -0.5409
  210MOL0     C27604   8.051   8.901   1.473 -0.6995 -0.4410 -0.7174
  210MOL0     N27605   8.050   9.027   1.551  0.2587 -0.6171 -0.0222
  210MOL0     C27606   7.989   9.052   1.677  0.5764  0.5319 -0.1988
  210MOL0     C27607   8.030   9.169   1.718  0.0417 -0.0481  0.5668
  210MOL0     C27608   8.005   9.236   1.853  0.3709 -0.4831 -0.8539
  210MOL0     C27609   7.856   9.232   1.897 -0.4320  0.1531  0.2483
  210MOL0     C27610   7.757   9.315   1.821 -0.6061  0.3098  0.9386
  210MOL0     C27611   7.612   9.290   1.848  0.7088  0.3654  0.6860
  210MOL0     O27612   7.578   9.150   1.874  0.7165 -0.2159  0.0788
  210MOL0     C27613   7.452   9.117   1.915  0.6326  0.0690  0.3854
  210MOL0     C27614   7.357   9.211   1.937  0.3670  0.0514 -0.8121
  210MOL0     C27615   7.230   9.170   1.977 -0.0125  0.2894  0.4116
  210MOL0     C27616   7.198   9.037   2.006 -0.0895  0.3743 -0.2311
  210MOL0     C27617   7.061   9.005   2.049 -0.4406 -0.1746 -0.1107
  210MOL0     O27618   6.974   9.109   2.066  0.6566 -0.5260  0.2872
  210MOL0     C27619   6.837   9.082   2.088 -0.1034  0.7345  0.4100
  210MOL0     C27620   6.738   9.060   1.986 -0.4428 -0.0241  0.1684
  210MOL0     C27621   6.608   9.023   2.027 -0.2524  0.0722 -0.2509
  210MOL0     C27622   6.571   9.014   2.163 -0.2231 -0.9053 -0.5661
  210MOL0     O27623   6.445   8.972   2.216 -0.6031  0.2330  0.0007
  210MOL0     C27624   6.323   8.986   2.132 -0.0382 -0.1025 -0.3120
  210MOL0     C27625   6.202   8.950   2.220  0.2285 -1.4059  1.0638
  210MOL0     C27626   6.076   9.001   2.164  0.4829  0.3840 -0.0178
  210MOL0     C27627   5.967   8.977   2.268 -0.3422 -0.6050 -0.2429
  210MOL0     C27628   5.831   9.013   2.199 -0.4255  0.1952  0.9882
  210MOL0     C27629   5.715   9.008   2.294 -0.3870  0.8827 -0.6942
  210MOL0     C27630   5.588   9.058   2.228  1.2241  0.1818  0.2734
  210MOL0     C27631   5.462   9.025   2.304  0.1585 -0.1549  0.1813
  210MOL0    Cl27632   5.333   9.110   2.208 -0.0061 -0.0343  0.1300
  210MOL0     C27633   6.662   9.057   2.257 -0.6278 -0.8388  0.7590
  210MOL0     C27634   6.792   9.097   2.221 -0.2461  0.6279  0.5405
  210MOL0     O27635   7.029   8.887   2.060 -0.1027 -0.7356 -0.0863
  210MOL0     C27636   7.301   8.938   1.984 -0.1941 -0.0983 -0.3856
  210MOL0     C27637   7.426   8.979   1.937 -0.5890 -0.4043 -1.2315
  210MOL0     N27638   8.103   9.223   1.625  0.0020 -0.2307 -0.4628
  210MOL0     N27639   8.115   9.147   1.517 -0.6134 -0.2872 -0.5761
  210MOL0     C27640   8.816   9.101   2.041  0.0624  0.8317  0.2590
  210MOL0     C27641   8.929   9.080   2.118  0.3920  0.1994 -0.3460
  210MOL0     C27642   9.280   9.237   2.329 -0.6095 -0.6286 -0.8799
  210MOL0     C27643   9.281   9.316   2.450  0.4521 -0.3108  0.5449
  210MOL0     C27644   9.392   9.340   2.529  0.5102  0.4312 -0.5922
  210MOL0     C27645   9.520   9.313   2.473  0.0513 -0.0008  0.1375
  210MOL0     O27646   9.637   9.361   2.528  0.1456  0.8195 -0.2703
  210MOL0     C27647   9.621   9.449   2.635  0.0189 -0.1572 -0.2336
  210MOL0     C27648   9.750   9.515   2.656  0.2434 -0.2325  0.1202
  210MOL0     C27649   9.850   9.421   2.725  0.4833  0.0446 -0.7945
  210MOL0     C27650   9.977   9.506   2.756 -0.4214  0.3074  0.9526
  210MOL0     C27651   9.953   9.599   2.866  0.2451  0.7335  0.0377
  210MOL0     C27652   9.940   9.675   2.956  0.4089 -0.6459  0.5590
  210MOL0     C27653   9.520   9.231   2.356  0.4578 -0.2331  0.9355
  210MOL0     C27654   9.404   9.192   2.285  0.6445 -0.8195  0.0961
  210MOL0     H27655   9.173   9.165   1.898  0.6674 -1.3304 -1.3389
  210MOL0     H27656   8.983   9.201   1.759  0.8726 -0.1166 -0.4698
  210MOL0     H27657   8.576   9.234   1.950  0.8396  0.9471 -0.6040
  210MOL0     H27658   8.597   9.056   1.915  2.2150 -0.8870 -1.5229
  210MOL0     H27659   8.506   9.268   1.710 -0.3028  1.0219  0.9736
  210MOL0     H27660   8.393   9.168   1.803 -0.6435  2.6963 -2.2298
  210MOL0     H27661   8.582   9.035   1.613 -0.3122  1.0718 -0.8536
  210MOL0     H27662   8.427   9.087   1.568  4.3319  2.7029 -3.4049
  210MOL0     H27663   8.493   8.893   1.794  0.5042 -0.1301 -0.6498
  210MOL0     H27664   8.330   8.947   1.775 -0.1686 -0.8222  0.0877
  210MOL0     H27665   8.375   8.726   1.662 -2.3048  0.8082 -0.1621
  210MOL0     H27666   8.500   8.789   1.559  1.1221  0.5800  1.2859
  210MOL0     H27667   8.341   8.785   1.411  0.9034  0.5598 -0.3194
  210MOL0     H27668   8.309   8.947   1.457  0.9941 -0.0843 -1.1271
  210MOL0     H27669   8.157   8.701   1.488 -1.3298  0.5956 -1.1383
  210MOL0     H27670   8.148   8.786   1.641 -2.2770 -2.8090 -1.0427
  210MOL0     H27671   7.953   8.855   1.488 -2.3195  2.3405 -1.9918
  210MOL0     H27672   8.069   8.918   1.366 -0.5621  0.4773 -0.5566
  210MOL0     H27673   7.925   8.981   1.728 -0.1843  0.9536 -0.5576
  210MOL0     H27674   8.049   9.337   1.852  0.6595 -0.4658  2.2338
  210MOL0     H27675   8.061   9.188   1.934 -0.9355  1.1955  1.1742
  210MOL0     H27676   7.855   9.251   2.005  0.6649 -0.3522  0.3610
  210MOL0     H27677   7.835   9.125   1.889  1.9777 -0.3824  0.3203
  210MOL0     H27678   7.788   9.419   1.831 -0.0730  0.2785 -0.2811
  210MOL0     H27679   7.769   9.286   1.716  1.0715 -2.1207  1.7196
  210MOL0     H27680   7.547   9.315   1.763 -0.0874 -0.8439  0.9080
  210MOL0     H27681   7.589   9.353   1.934 -0.5074 -1.4245  1.7430
  210MOL0     H27682   7.366   9.319   1.928  0.1702  0.3277  1.7307
  210MOL0     H27683   7.156   9.247   1.994 -1.3125 -1.2268  1.9099
  210MOL0     H27684   6.778   9.057   1.886 -0.6264  0.6494  0.0676
  210MOL0     H27685   6.537   9.008   1.947 -1.0096  0.4424  0.3415
  210MOL0     H27686   6.319   8.917   2.047 -2.7543  0.9803 -1.1746
  210MOL0     H27687   6.331   9.089   2.095  0.9648 -0.3553 -0.8452
  210MOL0     H27688   6.223   9.006   2.312 -0.0004 -0.5066  0.5856
  210MOL0     H27689   6.190   8.844   2.243 -3.7322 -1.3011  0.2610
  210MOL0     H27690   6.055   8.941   2.075 -1.3730 -0.5490  0.9987
  210MOL0     H27691   6.084   9.104   2.129  0.0360 -0.1868 -1.9236
  210MOL0     H27692   5.963   8.872   2.296 -3.8178 -0.5741 -0.1945
  210MOL0     H27693   5.983   9.032   2.361 -1.5596 -0.6159 -0.0171
  210MOL0     H27694   5.815   8.941   2.118 -1.0077  0.9840  0.3848
  210MOL0     H27695   5.835   9.116   2.161  0.9489  0.3889  1.5765
  210MOL0     H27696   5.740   9.064   2.385  2.0949 -0.5842 -0.3867
  210MOL0     H27697   5.702   8.903   2.324  0.6263  0.5532 -1.3915
  210MOL0     H27698   5.591   9.167   2.227  2.1131  0.1585 -0.4169
  210MOL0     H27699   5.594   9.018   2.127  4.6582 -0.7331  0.6977
  210MOL0     H27700   5.468   9.070   2.404 -1.1251 -0.4935  0.4210
  210MOL0     H27701   5.436   8.919   2.307  0.5973 -0.2890  3.5465
  210MOL0     H27702   6.624   9.065   2.358 -1.7294  1.7168  0.2145
  210MOL0     H27703   6.865   9.118   2.298  0.2616  0.2101  0.1787
  210MOL0     H27704   7.264   8.841   2.015 -1.4274  1.2506  2.7794
  210MOL0     H27705   7.505   8.904   1.931 -0.4611 -0.3177 -0.6337
  210MOL0     H27706   8.724   9.065   2.085  0.8848  1.1850  2.4310
  210MOL0     H27707   8.919   9.044   2.220 -2.2849 -1.1199 -0.9794
  210MOL0     H27708   9.177   9.336   2.475  0.2095  1.0610 -1.3570
  210MOL0     H27709   9.383   9.402   2.617  0.8886  0.0497 -0.2800
  210MOL0     H27710   9.581   9.401   2.724 -0.9019  0.6009 -0.2172
  210MOL0     H27711   9.556   9.531   2.602 -1.7246 -1.1868  0.5385
  210MOL0     H27712   9.804   9.553   2.569  2.3286  0.2431  1.5580
  210MOL0     H27713   9.734   9.606   2.715 -1.2155 -0.4635  0.1208
  210MOL0     H27714   9.883   9.337   2.662 -0.9846 -0.5744 -0.7641
  210MOL0     H27715   9.812   9.386   2.822 -2.2909  4.4639 -0.0353
  210MOL0     H27716  10.054   9.439   2.795 -0.5940  0.0034  0.7715
  210MOL0     H27717  10.011   9.562   2.668 -1.7669 -2.3465 -1.4054
  210MOL0     H27718   9.916   9.743   3.035  1.3044  0.6413 -0.2355
  210MOL0     H27719   9.619   9.206   2.321 -0.0743 -0.2499 -0.6593
  210MOL0     H27720   9.411   9.146   2.187  2.3012 -0.3047 -0.0602
  211MOL0     O27721   1.763  10.441   7.755 -0.1846  0.0357  0.3158
  211MOL0     C27722   1.769  10.346   7.681  0.1391  0.0471 -0.3473
  211MOL0     O27723   1.669  10.306   7.597  0.1662  0.3722  0.1869
  211MOL0     C27724   1.564  10.389   7.568  0.3541  0.1232  0.1249
  211MOL0     C27725   1.480  10.421   7.675  0.8297 -0.2347 -0.0834
  211MOL0     C27726   1.361  10.495   7.655  0.6873 -0.2071 -0.3124
  211MOL0     C27727   1.322  10.534   7.531 -0.0574 -0.4019 -0.5817
  211MOL0     O27728   1.208  10.603   7.502 -0.6657  0.0867  0.3198
  211MOL0     C27729   1.120  10.619   7.614 -0.7014 -0.1864 -0.3783
  211MOL0     C27730   0.986  10.665   7.566 -0.2682 -0.4526  0.1187
  211MOL0     C27731   0.883  10.699   7.673  0.4520 -0.0769 -0.3616
  211MOL0     C27732   0.755  10.744   7.605  0.1740 -0.6694  1.1727
  211MOL0     C27733   0.653  10.802   7.701 -0.0036  0.1112 -0.6624
  211MOL0     C27734   0.692  10.934   7.761 -0.0327  0.1285 -0.3166
  211MOL0     C27735   0.580  11.045   7.750  0.3182 -1.2129  0.5400
  211MOL0     C27736   0.458  11.012   7.834 -0.2265 -0.6294 -0.8105
  211MOL0     N27737   0.354  11.111   7.810 -0.1062 -0.3702 -0.1535
  211MOL0     C27738   0.340  11.225   7.889  0.0859  0.2087  0.8350
  211MOL0     C27739   0.205  11.254   7.871  0.5696 -1.0134 -0.1865
  211MOL0     C27740   0.129  11.368   7.938 -0.3914 -0.6347  0.7586
  211MOL0     C27741   0.197  11.507   7.919  0.6226  0.7131  0.0489
  211MOL0     C27742   0.111  11.625   7.973  0.3648 -0.3053 -0.5425
  211MOL0     C27743  -0.031  11.615   7.938  0.2221 -0.0870 -1.0763
  211MOL0     O27744  -0.055  11.601   7.794 -0.0818 -0.0985 -0.9360
  211MOL0     C27745  -0.173  11.540   7.747  0.1736 -0.3192 -1.6561
  211MOL0     C27746  -0.172  11.465   7.633  0.0496  0.2944  0.4840
  211MOL0     C27747  -0.283  11.399   7.586 -0.1927  1.0669 -0.5025
  211MOL0     C27748  -0.411  11.431   7.633  0.3477 -0.1975 -0.5073
  211MOL0     C27749  -0.528  11.366   7.582  0.0763  0.5210 -0.3208
  211MOL0     O27750  -0.650  11.424   7.603  0.0237  0.0463 -0.8434
  211MOL0     C27751  -0.773  11.355   7.582 -0.4164 -0.4224  0.0358
  211MOL0     C27752  -0.794  11.217   7.543 -0.5557 -0.0762 -0.0290
  211MOL0     C27753  -0.928  11.161   7.539  0.0116 -0.0722  0.3698
  211MOL0     C27754  -1.033  11.249   7.553  0.3171  0.4164  1.2658
  211MOL0     O27755  -1.162  11.198   7.543 -0.8041  0.8147 -0.4005
  211MOL0     C27756  -1.284  11.272   7.555 -0.3560  0.2924  0.4389
  211MOL0     C27757  -1.406  11.180   7.569  1.0287  1.0710 -0.3688
  211MOL0     C27758  -1.524  11.267   7.599  0.3240 -0.2014 -0.0065
  211MOL0     C27759  -1.647  11.180   7.581  0.4231 -0.0657 -0.3918
  211MOL0     C27760  -1.775  11.262   7.616  0.1727  1.0880  0.4951
  211MOL0     C27761  -1.896  11.171   7.631  0.2230 -0.0846  0.2723
  211MOL0     C27762  -2.040  11.228   7.621 -0.3041 -0.0630  1.0165
  211MOL0     C27763  -2.135  11.108   7.604 -1.2325  0.3061 -0.3514
  211MOL0    Cl27764  -2.306  11.147   7.614  0.2025 -0.0336 -0.3582
  211MOL0     C27765  -1.016  11.383   7.581  0.1574 -0.2829 -0.4256
  211MOL0     C27766  -0.889  11.433   7.603 -0.3039 -0.5876  0.2577
  211MOL0     O27767  -0.503  11.260   7.523  0.0469 -0.0102 -0.0027
  211MOL0     C27768  -0.415  11.516   7.748  0.8503  0.3515  0.2061
  211MOL0     C27769  -0.299  11.570   7.814  0.7711  0.0838 -0.5452
  211MOL0     N27770   0.152  11.175   7.771  0.7545  0.1907 -0.5315
  211MOL0     N27771   0.238  11.086   7.748  0.1726 -1.1422 -0.5882
  211MOL0     C27772   1.409  10.506   7.425  0.3665 -1.0961 -0.9558
  211MOL0     C27773   1.533  10.433   7.437  0.0685 -0.5502 -0.0942
  211MOL0     C27774   1.882  10.255   7.684 -0.3161 -0.0602  0.2211
  211MOL0     C27775   1.996  10.279   7.767  0.4972 -0.1407 -0.6965
  211MOL0     C27776   2.100  10.188   7.783 -0.0282 -0.3251  0.6702
  211MOL0     C27777   2.093  10.074   7.712  0.5417  0.1160 -0.4115
  211MOL0     O27778   2.192   9.984   7.722 -0.1403 -0.1966 -0.4787
  211MOL0     C27779   2.311  10.012   7.642 -0.6069 -0.6654  0.2468
  211MOL0     C27780   2.315   9.942   7.506 -1.0818  0.1357  0.1460
  211MOL0     C27781   2.452   9.958   7.439  1.0235  0.3856 -0.3602
  211MOL0     C27782   2.471   9.889   7.299  0.3298  0.1780 -0.9803
  211MOL0     C27783   2.390   9.957   7.194 -0.0627 -0.7413 -0.5622
  211MOL0     C27784   2.329  10.007   7.102 -0.4373 -0.5487  0.0753
  211MOL0     C27785   1.986  10.052   7.624 -0.0542 -0.2092 -0.5420
  211MOL0     C27786   1.883  10.136   7.614 -0.0698  0.1968  0.3004
  211MOL0     H27787   1.494  10.389   7.778 -0.2827 -1.6867 -0.3453
  211MOL0     H27788   1.301  10.501   7.745  2.2009 -4.9564  1.3614
  211MOL0     H27789   1.155  10.688   7.691  0.2032 -2.1430  1.0478
  211MOL0     H27790   1.117  10.518   7.654  2.1164 -0.1692  0.0161
  211MOL0     H27791   0.942  10.595   7.494 -0.4185 -0.8024  0.5425
  211MOL0     H27792   1.000  10.750   7.500 -3.0682  0.3694  0.4249
  211MOL0     H27793   0.921  10.777   7.741 -1.7481  0.6472  0.1114
  211MOL0     H27794   0.864  10.610   7.735 -2.4182  0.6319 -0.1055
  211MOL0     H27795   0.789  10.818   7.533  1.8860 -1.2187  1.3823
  211MOL0     H27796   0.720  10.656   7.549 -1.0303  1.5580 -1.8780
  211MOL0     H27797   0.633  10.731   7.782 -2.6744  0.5917 -0.8131
  211MOL0     H27798   0.558  10.820   7.651 -0.5012 -0.2083  0.1470
  211MOL0     H27799   0.784  10.978   7.720 -0.9671  1.3963 -1.1430
  211MOL0     H27800   0.722  10.910   7.863 -2.1403 -1.2466  0.0278
  211MOL0     H27801   0.622  11.138   7.789 -1.0528  0.1855 -1.1326
  211MOL0     H27802   0.564  11.065   7.643  0.8740 -3.6985 -0.0619
  211MOL0     H27803   0.476  11.007   7.942 -0.8886  0.4231 -0.6326
  211MOL0     H27804   0.418  10.916   7.800  0.7727 -0.2114 -3.3989
  211MOL0     H27805   0.399  11.268   7.970 -0.6676 -0.3742  1.7075
  211MOL0     H27806   0.102  11.341   8.040 -0.8731 -2.4236  0.1980
  211MOL0     H27807   0.035  11.373   7.882  0.3160  1.0871 -0.3447
  211MOL0     H27808   0.212  11.530   7.812  0.9649  0.3129  0.0102
  211MOL0     H27809   0.301  11.506   7.952  0.0923  0.7118  1.8093
  211MOL0     H27810   0.126  11.636   8.080 -1.6055 -0.7138 -0.1801
  211MOL0     H27811   0.163  11.711   7.930  0.7098  0.5568  1.4961
  211MOL0     H27812  -0.084  11.706   7.966 -1.1191 -0.9751 -0.6514
  211MOL0     H27813  -0.082  11.545   8.004  4.4612 -0.1975  2.5127
  211MOL0     H27814  -0.088  11.421   7.580 -2.7209 -1.1718 -3.1754
  211MOL0     H27815  -0.266  11.319   7.515 -1.1143  2.6693 -2.6421
  211MOL0     H27816  -0.715  11.145   7.526 -1.8465 -1.6186  0.2352
  211MOL0     H27817  -0.954  11.056   7.524 -1.1828  0.3579 -0.7274
  211MOL0     H27818  -1.299  11.327   7.461 -0.1839  0.8319  0.7228
  211MOL0     H27819  -1.274  11.348   7.633  0.1148 -0.2033  0.8676
  211MOL0     H27820  -1.399  11.102   7.645 -0.3481 -0.3939 -1.6904
  211MOL0     H27821  -1.411  11.117   7.480 -0.1961 -1.6032  1.4746
  211MOL0     H27822  -1.538  11.349   7.528 -0.3753  1.7501  2.2202
  211MOL0     H27823  -1.513  11.309   7.700 -1.1637 -0.0373  0.1133
  211MOL0     H27824  -1.660  11.142   7.480 -1.1860 -1.7831  0.3951
  211MOL0     H27825  -1.647  11.093   7.649  0.2803 -1.0357 -1.6055
  211MOL0     H27826  -1.793  11.335   7.536  1.7363  0.3826 -0.5358
  211MOL0     H27827  -1.746  11.310   7.710  1.5941 -3.7221  2.8306
  211MOL0     H27828  -1.895  11.121   7.728 -4.0510 -0.9596  0.0632
  211MOL0     H27829  -1.884  11.088   7.560 -4.3498 -0.5004 -0.3015
  211MOL0     H27830  -2.051  11.290   7.710  1.0785  1.4409  0.2064
  211MOL0     H27831  -2.052  11.284   7.528 -1.5514 -3.1400 -0.8115
  211MOL0     H27832  -2.112  11.031   7.677  0.4993 -1.8622 -3.0067
  211MOL0     H27833  -2.123  11.051   7.512  1.3014 -1.2605  0.8306
  211MOL0     H27834  -1.100  11.446   7.607  1.7420  1.4614  0.7228
  211MOL0     H27835  -0.883  11.535   7.639  1.7849 -1.7077  3.4857
  211MOL0     H27836  -0.516  11.545   7.778  0.6557  0.6335 -0.6831
  211MOL0     H27837  -0.328  11.631   7.899 -1.6374  1.1271 -2.0140
  211MOL0     H27838   1.379  10.544   7.327  0.5788 -0.3172 -0.7278
  211MOL0     H27839   1.596  10.410   7.351 -0.1397 -0.0391 -0.3898
  211MOL0     H27840   1.989  10.361   7.837 -0.9972 -1.7784  1.1929
  211MOL0     H27841   2.174  10.204   7.860 -2.5803  3.3316  2.6716
  211MOL0     H27842   2.391   9.966   7.701  0.3248 -1.3796 -1.5168
  211MOL0     H27843   2.341  10.116   7.629 -2.4786 -0.1898 -0.6373
  211MOL0     H27844   2.293   9.835   7.510  2.1073 -0.5900  1.5566
  211MOL0     H27845   2.234   9.981   7.444  0.0063  1.7520 -0.3363
  211MOL0     H27846   2.513   9.904   7.512 -0.7512 -2.5423 -0.8688
  211MOL0     H27847   2.495  10.058   7.426  3.8244 -0.4438  1.4601
  211MOL0     H27848   2.575   9.910   7.272  0.9571  2.4173  2.5672
  211MOL0     H27849   2.451   9.782   7.311  0.3077  0.4779  3.1273
  211MOL0     H27850   2.284  10.069   7.028 -1.3244 -2.9745 -1.5518
  211MOL0     H27851   1.982   9.964   7.561  0.9650  0.2556 -1.3008
  211MOL0     H27852   1.804  10.114   7.543 -0.5727  1.0543  0.5740
  212MOL0     O27853   3.500   8.085   2.854  0.2744  0.1171  0.4534
  212MOL0     C27854   3.535   7.971   2.854 -0.3287  0.5645 -0.0567
  212MOL0     O27855   3.450   7.871   2.886  0.2555  0.5132  0.5381
  212MOL0     C27856   3.313   7.884   2.888 -0.2173 -0.9274  0.4846
  212MOL0     C27857   3.237   7.827   2.989  0.4567  0.7476  0.6001
  212MOL0     C27858   3.099   7.847   2.991  0.7049  1.3200 -0.7644
  212MOL0     C27859   3.029   7.925   2.892  0.1504  0.1203 -0.2407
  212MOL0     O27860   2.891   7.929   2.908  0.6768 -0.2482  0.4095
  212MOL0     C27861   2.812   7.820   2.846  0.3422  0.2249 -0.5235
  212MOL0     C27862   2.771   7.716   2.953 -0.6005  0.3394 -0.4127
  212MOL0     C27863   2.668   7.754   3.058  0.5213  0.0218  0.6120
  212MOL0     C27864   2.621   7.628   3.121 -0.1179 -0.3252 -0.0533
  212MOL0     C27865   2.514   7.652   3.231  0.8391 -0.2165 -0.2660
  212MOL0     C27866   2.387   7.710   3.170  0.0415  0.8019  0.0813
  212MOL0     C27867   2.279   7.713   3.279 -0.3694  0.7714 -0.1073
  212MOL0     C27868   2.162   7.797   3.233  0.4667  0.2127  0.1159
  212MOL0     N27869   2.043   7.791   3.313  0.3628 -0.1792  0.4248
  212MOL0     C27870   2.002   7.888   3.409 -0.2731  0.2441  0.0874
  212MOL0     C27871   1.899   7.834   3.475  0.1754  0.1604  0.5972
  212MOL0     C27872   1.818   7.915   3.581 -0.3271 -0.6019  0.1233
  212MOL0     C27873   1.711   7.979   3.492 -0.5568 -0.3005 -0.1436
  212MOL0     C27874   1.616   8.069   3.585  0.0090  0.1536  0.3928
  212MOL0     C27875   1.541   8.173   3.508  0.2673 -0.1912 -0.8214
  212MOL0     O27876   1.484   8.114   3.387  0.1325  0.0234 -0.1414
  212MOL0     C27877   1.369   8.039   3.396 -0.2126  0.2329 -0.3618
  212MOL0     C27878   1.285   8.037   3.506 -0.4095  0.3648 -0.3499
  212MOL0     C27879   1.158   7.978   3.503 -0.0634  0.1947 -0.5428
  212MOL0     C27880   1.114   7.908   3.385  0.4764 -0.6400 -0.3861
  212MOL0     C27881   0.973   7.853   3.378 -0.5238  0.9004 -0.3125
  212MOL0     O27882   0.925   7.849   3.248 -0.1341 -0.7423  0.3647
  212MOL0     C27883   0.801   7.784   3.230  0.4764  0.4730  0.8047
  212MOL0     C27884   0.759   7.655   3.274  0.1506 -0.3910 -0.0089
  212MOL0     C27885   0.631   7.608   3.251 -0.0519 -0.1716 -0.0707
  212MOL0     C27886   0.534   7.687   3.194  0.1379 -0.1201 -1.1685
  212MOL0     O27887   0.407   7.631   3.177 -0.0849  0.1394  0.4101
  212MOL0     C27888   0.298   7.728   3.168 -0.0962  0.1433 -0.1705
  212MOL0     C27889   0.172   7.644   3.210  0.2365 -0.8772 -0.1700
  212MOL0     C27890   0.132   7.528   3.106 -0.4166 -1.2199 -0.0977
  212MOL0     C27891   0.004   7.446   3.143 -0.2050 -0.6970 -0.0342
  212MOL0     C27892  -0.019   7.349   3.015 -0.6500  0.1627  0.1074
  212MOL0     C27893  -0.096   7.217   3.061 -0.9305 -0.0039  0.0214
  212MOL0     C27894  -0.226   7.244   3.132  0.5015 -0.9534  0.1424
  212MOL0     C27895  -0.317   7.329   3.050  0.5428  0.9325  0.1421
  212MOL0    Cl27896  -0.420   7.223   2.937  0.0461  0.2279 -0.3379
  212MOL0     C27897   0.572   7.815   3.149  0.3663 -0.2307  0.2707
  212MOL0     C27898   0.701   7.864   3.169  0.0387  0.4187  0.6534
  212MOL0     O27899   0.921   7.801   3.477  0.8795  0.1093  0.2214
  212MOL0     C27900   1.202   7.909   3.274 -0.2364 -0.3718  0.6143
  212MOL0     C27901   1.331   7.980   3.283  0.7133 -0.4251  0.9133
  212MOL0     N27902   1.879   7.704   3.429  0.3587 -0.4452  0.4476
  212MOL0     N27903   1.959   7.685   3.322 -0.0607  0.2940 -1.1122
  212MOL0     C27904   3.106   7.978   2.788 -0.2310  0.2245 -1.1193
  212MOL0     C27905   3.247   7.955   2.784  0.0621 -0.4802  0.9527
  212MOL0     C27906   3.676   7.941   2.818  0.6927 -0.3961  0.8613
  212MOL0     C27907   3.769   8.043   2.797  0.1636 -0.2934  0.1122
  212MOL0     C27908   3.895   8.017   2.763 -0.3011 -0.0339  0.7855
  212MOL0     C27909   3.939   7.894   2.740  0.0011 -0.7276 -0.0417
  212MOL0     O27910   4.066   7.880   2.699 -0.1023 -0.0068 -0.5358
  212MOL0     C27911   4.074   7.821   2.574  0.9262  0.7479  0.7062
  212MOL0     C27912   4.216   7.802   2.522  0.5308 -0.0006 -0.5299
  212MOL0     C27913   4.268   7.924   2.451  1.0581 -0.6682 -1.1362
  212MOL0     C27914   4.299   8.026   2.548 -0.1495 -0.8955  0.3755
  212MOL0     C27915   4.362   8.151   2.494 -0.2566  0.4131  0.3684
  212MOL0     C27916   4.420   8.249   2.457  0.4174 -0.0258  0.2969
  212MOL0     C27917   3.852   7.786   2.764  0.1343  0.4551 -0.1825
  212MOL0     C27918   3.720   7.812   2.804 -0.7189  0.6310  0.1375
  212MOL0     H27919   3.287   7.779   3.072 -0.1823  0.9655  1.1149
  212MOL0     H27920   3.044   7.790   3.064 -0.8788  2.0625 -1.3388
  212MOL0     H27921   2.863   7.770   2.763  0.6837  1.8722 -1.3564
  212MOL0     H27922   2.721   7.859   2.799  0.1467  2.2868  1.3917
  212MOL0     H27923   2.861   7.690   3.010 -0.0186  1.6213 -0.7153
  212MOL0     H27924   2.728   7.632   2.897 -0.4545  0.5215 -0.8009
  212MOL0     H27925   2.588   7.807   3.005 -0.9706 -1.7551  0.9650
  212MOL0     H27926   2.720   7.824   3.124 -1.0781  1.2102  0.6848
  212MOL0     H27927   2.582   7.555   3.050  1.5237 -2.0122  0.7211
  212MOL0     H27928   2.711   7.588   3.169 -0.6121  1.8011  2.9890
  212MOL0     H27929   2.556   7.711   3.313 -0.3720  0.8150 -0.3574
  212MOL0     H27930   2.498   7.552   3.272  2.1589 -0.7648 -1.0226
  212MOL0     H27931   2.364   7.652   3.081 -1.0413  3.0209 -1.1605
  212MOL0     H27932   2.419   7.810   3.139  1.4204  0.0782 -0.9773
  212MOL0     H27933   2.241   7.611   3.295  1.0178 -0.0501 -1.7214
  212MOL0     H27934   2.332   7.748   3.368 -0.2424  0.3590 -0.0169
  212MOL0     H27935   2.128   7.775   3.131  3.3949  3.0190 -1.6423
  212MOL0     H27936   2.195   7.901   3.225  0.9360  0.1577  1.1740
  212MOL0     H27937   2.047   7.985   3.429  1.9953 -0.9382  0.9984
  212MOL0     H27938   1.880   7.990   3.630 -1.4646  0.1584  0.4198
  212MOL0     H27939   1.770   7.851   3.655  0.9629  0.4227  1.9086
  212MOL0     H27940   1.652   7.907   3.435 -2.8237  0.0700  1.6121
  212MOL0     H27941   1.750   8.046   3.416 -1.3939 -1.6445 -1.8141
  212MOL0     H27942   1.539   8.004   3.628  0.5862 -0.2773  0.7788
  212MOL0     H27943   1.675   8.116   3.664 -0.3490 -0.6119  1.1320
  212MOL0     H27944   1.613   8.251   3.479 -1.0523  1.2528 -0.3038
  212MOL0     H27945   1.462   8.214   3.572  0.1273 -0.5338 -0.7759
  212MOL0     H27946   1.309   8.090   3.597 -3.1211  1.1015  0.0296
  212MOL0     H27947   1.088   7.994   3.584  3.1882  2.3536  2.1014
  212MOL0     H27948   0.825   7.587   3.327  2.6777  2.2084  0.4128
  212MOL0     H27949   0.595   7.520   3.303  0.0119  0.3820  0.9409
  212MOL0     H27950   0.304   7.776   3.070  1.9581  0.4630  0.0600
  212MOL0     H27951   0.308   7.811   3.239 -0.7384  0.6476 -0.6600
  212MOL0     H27952   0.096   7.722   3.217  1.9027  0.6843  1.4556
  212MOL0     H27953   0.197   7.599   3.307 -0.6598  0.5706  0.7648
  212MOL0     H27954   0.215   7.457   3.099  1.0804  0.2199  1.7215
  212MOL0     H27955   0.121   7.571   3.006  0.7036  0.2290  0.3563
  212MOL0     H27956   0.018   7.402   3.243 -0.9982 -0.5070  0.1672
  212MOL0     H27957  -0.070   7.525   3.155 -1.3798 -1.8345  0.4820
  212MOL0     H27958   0.073   7.319   2.964 -0.5621  0.1804  0.2545
  212MOL0     H27959  -0.075   7.410   2.943 -0.8271  1.1019  1.0117
  212MOL0     H27960  -0.043   7.164   3.141 -0.2828  1.2133  0.4224
  212MOL0     H27961  -0.110   7.155   2.972 -2.2756  1.3042 -0.7256
  212MOL0     H27962  -0.282   7.160   3.175  1.8410 -1.9417  0.0505
  212MOL0     H27963  -0.193   7.301   3.219  2.4960 -1.4372 -0.2222
  212MOL0     H27964  -0.262   7.405   2.993  1.9983  0.8613  1.3683
  212MOL0     H27965  -0.383   7.380   3.120  1.2528 -1.9627  3.2142
  212MOL0     H27966   0.501   7.885   3.106  1.2037  0.6909  0.3391
  212MOL0     H27967   0.721   7.969   3.148 -1.0394  0.2454 -1.4750
  212MOL0     H27968   1.162   7.869   3.182  0.2241 -1.5820  0.9232
  212MOL0     H27969   1.397   8.002   3.199 -0.9935 -0.7769 -0.5856
  212MOL0     H27970   3.061   8.050   2.720 -1.6885 -0.3558 -0.8178
  212MOL0     H27971   3.307   7.995   2.703  1.3873  0.2400  2.2403
  212MOL0     H27972   3.762   8.150   2.816  2.9767  1.0787 -4.7466
  212MOL0     H27973   3.972   8.094   2.767 -1.6436  1.5660 -1.5034
  212MOL0     H27974   4.009   7.868   2.499  2.4758  2.5416  0.4020
  212MOL0     H27975   4.037   7.719   2.587  3.0480  0.2193  3.6583
  212MOL0     H27976   4.285   7.774   2.602 -0.8973  1.3272  1.2456
  212MOL0     H27977   4.212   7.726   2.443 -3.0849  0.3248 -0.8597
  212MOL0     H27978   4.190   7.969   2.389  0.1164  4.3337  2.9853
  212MOL0     H27979   4.354   7.895   2.390  1.8309  2.0199 -1.4265
  212MOL0     H27980   4.207   8.052   2.601 -0.8932 -0.3253 -1.1560
  212MOL0     H27981   4.365   7.986   2.626  1.6299 -0.6829 -0.9557
  212MOL0     H27982   4.477   8.333   2.422  1.4977 -1.1395 -0.7099
  212MOL0     H27983   3.892   7.685   2.759 -3.9044 -1.3384  0.0638
  212MOL0     H27984   3.657   7.726   2.824  0.1820 -0.8608 -2.8816
  213MOL0     O27985   4.600   8.560   7.567 -0.7450 -0.3260 -0.2336
  213MOL0     C27986   4.645   8.446   7.535  0.2376 -0.5794  0.4788
  213MOL0     O27987   4.563   8.335   7.498  0.0660  0.4423  0.0878
  213MOL0     C27988   4.427   8.356   7.487  0.4424 -0.1759  0.2771
  213MOL0     C27989   4.348   8.327   7.596  0.4918 -0.1631 -0.0575
  213MOL0     C27990   4.208   8.343   7.577 -0.7158  0.0661 -0.6088
  213MOL0     C27991   4.149   8.360   7.459 -0.1229 -0.1448  0.9091
  213MOL0     O27992   4.016   8.362   7.428 -1.4785  0.5845  0.6075
  213MOL0     C27993   3.985   8.236   7.367 -0.4455 -1.1240  0.5490
  213MOL0     C27994   3.837   8.218   7.340  0.3880 -0.7448  0.9251
  213MOL0     C27995   3.792   8.078   7.298 -0.4733  0.4850 -0.0246
  213MOL0     C27996   3.892   8.009   7.208  1.0034  0.8609 -0.5391
  213MOL0     C27997   3.855   7.871   7.169  0.0504  0.5132  0.3393
  213MOL0     C27998   3.977   7.814   7.093  0.0239  0.3040  0.3697
  213MOL0     C27999   3.946   7.671   7.035  0.1408  0.2234 -0.1454
  213MOL0     C28000   3.962   7.554   7.138  0.1431  0.0682  0.4003
  213MOL0     N28001   3.856   7.550   7.233  0.6981 -0.2957 -0.0689
  213MOL0     C28002   3.726   7.507   7.195 -0.9212 -0.5265  0.2597
  213MOL0     C28003   3.653   7.514   7.316  0.1817 -0.3231 -0.2547
  213MOL0     C28004   3.507   7.473   7.347 -0.3359  0.3983 -0.2605
  213MOL0     C28005   3.428   7.580   7.425  0.7077  0.1470  0.1734
  213MOL0     C28006   3.280   7.531   7.438  0.3223  0.4622  0.6534
  213MOL0     C28007   3.196   7.607   7.537 -0.5454  0.4654 -0.7278
  213MOL0     O28008   3.092   7.524   7.597 -0.3401  0.1668 -0.4072
  213MOL0     C28009   2.968   7.531   7.557  0.4718  0.1216 -0.3801
  213MOL0     C28010   2.866   7.546   7.651 -0.7766  0.7273 -1.0141
  213MOL0     C28011   2.730   7.544   7.609 -0.0207  0.1867 -0.0662
  213MOL0     C28012   2.690   7.529   7.470 -0.1264 -0.0985  0.4345
  213MOL0     C28013   2.560   7.538   7.424 -0.8130  0.2958  0.0181
  213MOL0     O28014   2.538   7.574   7.295  0.5587  0.6734  0.6667
  213MOL0     C28015   2.414   7.615   7.255  0.4006  1.1471 -0.9175
  213MOL0     C28016   2.332   7.537   7.169  0.4101 -0.1023 -0.1842
  213MOL0     C28017   2.218   7.589   7.119  0.9244 -0.1086 -0.5201
  213MOL0     C28018   2.166   7.711   7.173 -0.8755 -0.1141 -0.0309
  213MOL0     O28019   2.049   7.755   7.117  0.6397  0.1196 -0.0358
  213MOL0     C28020   1.977   7.849   7.186  0.2627 -0.6073  0.6160
  213MOL0     C28021   1.842   7.868   7.121  0.3341  0.5445  0.4538
  213MOL0     C28022   1.746   7.741   7.137  0.1113  0.1490  0.2108
  213MOL0     C28023   1.609   7.765   7.080 -0.0601 -0.1691  0.3778
  213MOL0     C28024   1.521   7.644   7.084  0.3471  0.6264  0.0281
  213MOL0     C28025   1.485   7.595   7.219 -0.2833  0.7931 -0.5639
  213MOL0     C28026   1.393   7.464   7.205 -0.1240  0.4869 -0.5846
  213MOL0     C28027   1.377   7.409   7.344 -0.1104  0.1165 -0.6716
  213MOL0    Cl28028   1.260   7.281   7.344  0.6327  0.2767 -0.2998
  213MOL0     C28029   2.243   7.790   7.262 -0.2991 -0.1663  0.6728
  213MOL0     C28030   2.366   7.740   7.298 -0.6730  0.0305  0.1838
  213MOL0     O28031   2.472   7.527   7.504  0.1751  0.1903 -0.2580
  213MOL0     C28032   2.798   7.531   7.378  0.6432 -0.8414  0.4949
  213MOL0     C28033   2.931   7.529   7.419 -0.6759 -0.2190  0.1706
  213MOL0     N28034   3.734   7.576   7.410  0.6190 -0.2874  0.3603
  213MOL0     N28035   3.856   7.583   7.365  0.2918  0.2661 -0.0351
  213MOL0     C28036   4.229   8.395   7.350 -0.6988 -0.1517 -0.0259
  213MOL0     C28037   4.368   8.390   7.366  0.3425  0.4444 -0.1015
  213MOL0     C28038   4.799   8.420   7.525  0.9911 -0.1703  0.4007
  213MOL0     C28039   4.850   8.306   7.468 -0.3371  0.2022 -0.0419
  213MOL0     C28040   4.987   8.295   7.448  0.0974  0.9321 -0.4695
  213MOL0     C28041   5.075   8.390   7.505 -0.0781 -0.3381  0.2668
  213MOL0     O28042   5.213   8.391   7.475  0.3196 -0.0510 -0.2007
  213MOL0     C28043   5.271   8.298   7.380  0.0711 -0.1262  0.2456
  213MOL0     C28044   5.407   8.271   7.437 -0.7841  0.6008  0.1982
  213MOL0     C28045   5.473   8.138   7.398  0.2090  0.3351 -0.7513
  213MOL0     C28046   5.609   8.113   7.468  0.0716 -0.1481 -0.4447
  213MOL0     C28047   5.727   8.182   7.403  0.3329 -0.1285 -1.4181
  213MOL0     C28048   5.811   8.247   7.346  0.2181  0.2238 -0.1280
  213MOL0     C28049   5.020   8.505   7.557 -0.3565 -0.2514 -0.4761
  213MOL0     C28050   4.882   8.523   7.564  1.0569  0.0604  0.0967
  213MOL0     H28051   4.382   8.315   7.699  0.7237  0.8128 -0.0128
  213MOL0     H28052   4.142   8.343   7.664 -1.5354 -0.9073 -1.2145
  213MOL0     H28053   4.034   8.155   7.421 -0.5808 -1.7602 -0.2690
  213MOL0     H28054   4.019   8.242   7.263 -1.2041 -0.3512  0.3250
  213MOL0     H28055   3.795   8.286   7.265  1.1748  0.2825  1.3918
  213MOL0     H28056   3.779   8.236   7.430  1.8680  0.9480  1.6105
  213MOL0     H28057   3.691   8.077   7.256 -1.5173 -1.0802  2.2797
  213MOL0     H28058   3.789   8.020   7.390  0.0561  0.9533  0.2954
  213MOL0     H28059   3.909   8.071   7.120  0.5675  0.2103 -1.1000
  213MOL0     H28060   3.980   7.996   7.272  0.5814 -1.2645 -0.3078
  213MOL0     H28061   3.768   7.882   7.104 -1.2325 -1.8155  1.5644
  213MOL0     H28062   3.840   7.808   7.257  0.6058 -1.2298 -0.7587
  213MOL0     H28063   4.060   7.808   7.164  2.3482  1.3875 -2.1058
  213MOL0     H28064   4.003   7.882   7.011  0.8334  0.6517  0.9046
  213MOL0     H28065   3.847   7.670   6.989  0.1418 -1.3448 -0.1838
  213MOL0     H28066   4.014   7.654   6.952 -1.7042 -2.1163 -1.2834
  213MOL0     H28067   4.058   7.555   7.190  1.9042  1.4440 -2.6060
  213MOL0     H28068   3.976   7.467   7.074  1.4226  0.4850  0.0985
  213MOL0     H28069   3.684   7.459   7.108 -2.3274  1.5587 -0.3001
  213MOL0     H28070   3.498   7.383   7.407 -1.3945  1.1301  0.7160
  213MOL0     H28071   3.457   7.469   7.249 -3.6994  0.4259  1.3247
  213MOL0     H28072   3.436   7.677   7.376  0.2260 -0.9704 -2.3065
  213MOL0     H28073   3.466   7.594   7.526  0.8097  1.8516 -0.0709
  213MOL0     H28074   3.220   7.543   7.347  0.7410  2.5608  0.6178
  213MOL0     H28075   3.286   7.425   7.466 -0.7198  1.3536  4.8847
  213MOL0     H28076   3.153   7.695   7.488  2.7544  3.0096  0.5807
  213MOL0     H28077   3.258   7.638   7.622 -1.8272  2.6913 -0.5389
  213MOL0     H28078   2.900   7.553   7.754  0.0926 -3.1356 -0.9072
  213MOL0     H28079   2.656   7.562   7.686 -0.4981 -3.0210  0.3615
  213MOL0     H28080   2.368   7.438   7.142  1.1416  0.1113 -0.0254
  213MOL0     H28081   2.160   7.535   7.044  0.9641 -2.4860  1.0399
  213MOL0     H28082   2.036   7.941   7.186  2.4695 -1.9290  0.6258
  213MOL0     H28083   1.955   7.823   7.290 -2.6881  0.6708  0.4047
  213MOL0     H28084   1.853   7.900   7.016  0.5269 -0.8683  0.0294
  213MOL0     H28085   1.789   7.955   7.162 -0.4249  0.5118 -0.3923
  213MOL0     H28086   1.740   7.723   7.244 -1.5672  1.2022  0.3344
  213MOL0     H28087   1.797   7.664   7.078 -0.9542 -1.4838  1.3575
  213MOL0     H28088   1.554   7.844   7.132 -0.2126  1.1516 -1.6705
  213MOL0     H28089   1.624   7.805   6.979 -1.7040 -0.0448  0.1582
  213MOL0     H28090   1.584   7.564   7.044 -0.1476 -1.1047  2.4221
  213MOL0     H28091   1.427   7.658   7.031 -0.2624  1.5578  1.2999
  213MOL0     H28092   1.437   7.676   7.275 -1.9040  1.3748 -2.6562
  213MOL0     H28093   1.577   7.556   7.263 -1.2051  0.3653  1.0842
  213MOL0     H28094   1.297   7.503   7.170 -0.2616  1.5805  0.9045
  213MOL0     H28095   1.440   7.391   7.139 -0.6467 -0.3368 -0.0511
  213MOL0     H28096   1.359   7.487   7.419 -2.6900 -2.2917  1.4432
  213MOL0     H28097   1.469   7.358   7.375 -0.9232 -0.2660  1.2322
  213MOL0     H28098   2.214   7.891   7.288 -1.9483 -0.8369  1.5502
  213MOL0     H28099   2.426   7.809   7.356 -1.5073  1.9340 -1.1066
  213MOL0     H28100   2.766   7.531   7.275 -0.2540 -1.9992  0.7482
  213MOL0     H28101   3.002   7.557   7.342  1.3855  2.3867  2.8129
  213MOL0     H28102   4.177   8.409   7.256 -0.7613 -0.4944 -0.0444
  213MOL0     H28103   4.424   8.406   7.275 -0.2003  1.4183 -0.2834
  213MOL0     H28104   4.795   8.223   7.424  2.1176 -0.9080 -1.1990
  213MOL0     H28105   5.020   8.209   7.391  1.8316  1.7968 -0.8266
  213MOL0     H28106   5.278   8.345   7.282 -0.3708  0.1765  0.3584
  213MOL0     H28107   5.222   8.201   7.371  1.9515 -0.9061 -3.7971
  213MOL0     H28108   5.475   8.353   7.410  0.8258 -0.4115  1.0286
  213MOL0     H28109   5.398   8.279   7.546  0.3461  3.2025  0.1904
  213MOL0     H28110   5.486   8.137   7.290 -0.1530 -1.1667 -0.8099
  213MOL0     H28111   5.407   8.060   7.437  0.6584  0.7215  0.8847
  213MOL0     H28112   5.597   8.140   7.573  0.1600 -1.4078 -0.0905
  213MOL0     H28113   5.626   8.005   7.467 -1.6590 -0.4825  0.8591
  213MOL0     H28114   5.893   8.308   7.314 -0.3039  1.6966  1.1889
  213MOL0     H28115   5.080   8.579   7.609  1.5996 -1.9385 -0.1865
  213MOL0     H28116   4.836   8.616   7.596 -0.3013 -0.3918 -0.4673
  214MOL0     O28117   6.119   0.465   3.141  0.4389  0.3097  0.1595
  214MOL0     C28118   6.230   0.436   3.095  0.2888  1.1644 -0.0486
  214MOL0     O28119   6.250   0.355   2.985 -0.5734 -0.7227  0.0526
  214MOL0     C28120   6.152   0.284   2.918  0.0177  0.5556  0.3975
  214MOL0     C28121   6.042   0.235   2.984 -0.0410 -0.6257 -0.3129
  214MOL0     C28122   5.946   0.154   2.925  1.0325 -0.6605 -0.0318
  214MOL0     C28123   5.962   0.124   2.786  0.1488  0.9550 -0.5185
  214MOL0     O28124   5.861   0.072   2.708 -0.3823 -0.1480  0.0174
  214MOL0     C28125   5.722   0.087   2.751 -0.4749  0.5977  0.2010
  214MOL0     C28126   5.665   0.231   2.739  0.0914 -0.2708  0.2484
  214MOL0     C28127   5.536   0.250   2.822 -0.2593 -0.3404 -0.3337
  214MOL0     C28128   5.426   0.157   2.764 -0.1854  0.4362  0.3274
  214MOL0     C28129   5.297   0.172   2.844 -1.7145 -0.2828 -0.4669
  214MOL0     C28130   5.185   0.065   2.822  0.4014 -0.6474  0.6678
  214MOL0     C28131   5.075   0.063   2.928  0.4137  0.5447 -0.4882
  214MOL0     C28132   4.966  -0.045   2.885 -0.0989  0.8137  0.1307
  214MOL0     N28133   4.825   0.001   2.892 -0.5391 -0.1817  0.1890
  214MOL0     C28134   4.765   0.093   2.980  0.3885 -0.2280  0.9526
  214MOL0     C28135   4.650   0.127   2.913 -0.7744  0.1139  0.2157
  214MOL0     C28136   4.529   0.182   2.981  0.3364 -0.5532  0.3417
  214MOL0     C28137   4.522   0.330   2.931  0.6990  0.0956 -0.4176
  214MOL0     C28138   4.421   0.404   3.015 -0.5837  0.1765  0.7362
  214MOL0     C28139   4.427   0.557   2.985 -0.6962 -0.9844 -0.4023
  214MOL0     O28140   4.366   0.596   2.861 -0.6627  0.3111 -0.3151
  214MOL0     C28141   4.229   0.597   2.860  0.4341 -0.2379  0.0706
  214MOL0     C28142   4.137   0.566   2.959 -0.4007 -0.2506  0.5361
  214MOL0     C28143   3.999   0.570   2.933  0.7470  0.3627 -0.2633
  214MOL0     C28144   3.958   0.612   2.805  0.9769  0.5948 -0.3113
  214MOL0     C28145   3.808   0.639   2.781  0.6437  0.3261  0.3003
  214MOL0     O28146   3.721   0.611   2.886  0.0317  0.7142  0.5569
  214MOL0     C28147   3.596   0.626   2.861  0.5897 -0.6254  0.0531
  214MOL0     C28148   3.516   0.514   2.859 -0.1182  0.7946  0.2047
  214MOL0     C28149   3.373   0.525   2.860 -0.1571  0.9285 -0.3288
  214MOL0     C28150   3.305   0.648   2.864  0.1476 -0.0498 -1.4833
  214MOL0     O28151   3.165   0.656   2.855  0.4458  0.4735  0.4597
  214MOL0     C28152   3.111   0.792   2.856  0.1692  0.4601  0.2141
  214MOL0     C28153   2.965   0.780   2.890  0.7520 -0.3117 -0.3050
  214MOL0     C28154   2.924   0.762   3.039  1.0491  0.7979 -0.1306
  214MOL0     C28155   2.769   0.777   3.043 -1.1371 -0.0088 -0.3222
  214MOL0     C28156   2.704   0.751   3.181 -0.9795  0.5396  0.0444
  214MOL0     C28157   2.558   0.773   3.172 -0.1422 -0.5244 -0.5329
  214MOL0     C28158   2.480   0.743   3.299 -0.6160 -0.9767  0.3325
  214MOL0     C28159   2.484   0.850   3.411  0.6004 -0.1478 -0.2564
  214MOL0    Cl28160   2.373   0.771   3.536 -0.3306  0.7489 -0.0147
  214MOL0     C28161   3.402   0.760   2.874  0.2045 -0.9401  0.5126
  214MOL0     C28162   3.539   0.750   2.874  0.5109  0.4100 -0.2179
  214MOL0     O28163   3.777   0.691   2.672  0.0598 -0.0599  0.3409
  214MOL0     C28164   4.048   0.645   2.702 -0.3017  0.1985 -1.0645
  214MOL0     C28165   4.183   0.640   2.735 -0.1131  0.1523 -0.9942
  214MOL0     N28166   4.652   0.073   2.783 -0.6137  0.1131 -0.8651
  214MOL0     N28167   4.762   0.012   2.768  0.0169  0.7611 -0.1703
  214MOL0     C28168   6.082   0.157   2.720  0.4495 -0.6725 -0.1944
  214MOL0     C28169   6.177   0.233   2.786  0.0196 -0.2092  0.3045
  214MOL0     C28170   6.345   0.492   3.158  0.1020  0.6763 -0.1310
  214MOL0     C28171   6.468   0.478   3.098  0.0867 -0.2993 -0.3358
  214MOL0     C28172   6.585   0.537   3.150 -0.2200 -0.8172 -0.1508
  214MOL0     C28173   6.592   0.582   3.275  0.1431 -0.4103  0.6032
  214MOL0     O28174   6.701   0.642   3.331 -0.4257 -0.5937 -0.3568
  214MOL0     C28175   6.831   0.606   3.273  0.1907  0.7976 -0.6666
  214MOL0     C28176   6.939   0.637   3.381  0.3560 -0.6107 -0.4585
  214MOL0     C28177   7.083   0.652   3.311 -0.2579  1.2862 -0.0404
  214MOL0     C28178   7.192   0.664   3.421  0.3420  0.3587 -0.1058
  214MOL0     C28179   7.322   0.649   3.370 -1.1025 -0.4240 -0.1926
  214MOL0     C28180   7.431   0.660   3.318 -0.6155  0.9293 -0.0548
  214MOL0     C28181   6.472   0.585   3.347 -0.1049  0.3043 -0.7525
  214MOL0     C28182   6.349   0.534   3.289 -0.3618  0.3255 -1.0656
  214MOL0     H28183   6.024   0.248   3.090 -0.5217 -2.7108 -0.0906
  214MOL0     H28184   5.857   0.133   2.985  1.7011  1.3095  1.7679
  214MOL0     H28185   5.707   0.056   2.854 -0.4950  1.2623  0.4000
  214MOL0     H28186   5.667   0.018   2.686  0.5532 -0.6429  0.6079
  214MOL0     H28187   5.638   0.266   2.639  0.1241  0.1652  0.3898
  214MOL0     H28188   5.741   0.299   2.779  0.5397 -1.2110  1.0723
  214MOL0     H28189   5.507   0.355   2.814 -0.6506 -0.4826 -0.7683
  214MOL0     H28190   5.553   0.242   2.930 -2.5531 -1.3662  0.0184
  214MOL0     H28191   5.407   0.180   2.659 -1.3795 -0.7389  0.2514
  214MOL0     H28192   5.463   0.054   2.766  0.9642  0.8231 -0.3383
  214MOL0     H28193   5.250   0.269   2.823 -0.9265 -0.0974 -1.4820
  214MOL0     H28194   5.322   0.184   2.950 -0.3988 -2.2998 -0.4890
  214MOL0     H28195   5.216  -0.040   2.820 -2.2540 -1.5024 -0.1890
  214MOL0     H28196   5.152   0.085   2.720  2.9477 -0.2754 -0.1555
  214MOL0     H28197   5.121   0.016   3.015 -1.1971 -0.7402 -0.2676
  214MOL0     H28198   5.029   0.160   2.950 -1.6646 -0.7667  1.3954
  214MOL0     H28199   4.988  -0.141   2.934  3.1280 -0.4060 -3.2582
  214MOL0     H28200   4.993  -0.070   2.782  0.7978  1.0781  0.2955
  214MOL0     H28201   4.793   0.133   3.077 -1.1680  0.4435  1.1390
  214MOL0     H28202   4.539   0.172   3.090 -2.9516  0.6940  0.8710
  214MOL0     H28203   4.440   0.130   2.946  0.4849 -1.9319  1.8922
  214MOL0     H28204   4.497   0.350   2.826  0.2009 -1.7478 -0.6837
  214MOL0     H28205   4.617   0.382   2.947  0.3949 -0.1512  2.9182
  214MOL0     H28206   4.324   0.367   2.979  0.7491 -0.8871 -2.0492
  214MOL0     H28207   4.443   0.369   3.116  1.0262 -0.7032  0.1065
  214MOL0     H28208   4.534   0.580   2.980 -0.6857 -0.7622  0.5982
  214MOL0     H28209   4.382   0.615   3.067  0.6925  2.0059 -1.6097
  214MOL0     H28210   4.180   0.550   3.057 -0.3452  4.4031  1.5169
  214MOL0     H28211   3.923   0.555   3.008 -0.4748 -0.6875 -1.6457
  214MOL0     H28212   3.559   0.419   2.890 -2.2093  0.6027  2.8402
  214MOL0     H28213   3.330   0.425   2.859  0.4918  0.6170  0.8089
  214MOL0     H28214   3.122   0.829   2.753  0.0332 -0.3353 -0.0979
  214MOL0     H28215   3.158   0.859   2.927 -0.5486  0.3333  0.8191
  214MOL0     H28216   2.934   0.696   2.826  2.2851  0.0507 -1.5990
  214MOL0     H28217   2.911   0.871   2.861 -0.5191 -0.3621  1.7444
  214MOL0     H28218   2.967   0.838   3.105  0.1448  0.8538  0.4107
  214MOL0     H28219   2.957   0.663   3.073  0.0279  0.2266 -0.7304
  214MOL0     H28220   2.764   0.881   3.010  4.4158  0.8272  0.5087
  214MOL0     H28221   2.724   0.709   2.969  2.2074 -2.2247 -0.5525
  214MOL0     H28222   2.742   0.822   3.254 -0.3589 -1.9072  2.2321
  214MOL0     H28223   2.719   0.646   3.208 -0.9456 -0.0480 -2.0189
  214MOL0     H28224   2.516   0.719   3.087 -1.3289  0.2386 -0.4551
  214MOL0     H28225   2.545   0.878   3.144 -0.7626 -0.9880 -2.0551
  214MOL0     H28226   2.376   0.714   3.280 -0.5874  0.2501 -2.0627
  214MOL0     H28227   2.527   0.654   3.340 -1.4840 -1.5262  0.1695
  214MOL0     H28228   2.430   0.943   3.390 -0.1398  0.0268  2.0572
  214MOL0     H28229   2.582   0.871   3.455 -0.2070  3.3140  0.1902
  214MOL0     H28230   3.361   0.860   2.878  1.4018 -0.3476 -1.2552
  214MOL0     H28231   3.608   0.833   2.863  0.2108  0.7469  0.4675
  214MOL0     H28232   4.027   0.678   2.600 -2.5357  1.3188 -0.3058
  214MOL0     H28233   4.260   0.654   2.660 -0.7965 -2.4835 -2.2993
  214MOL0     H28234   6.096   0.118   2.620  0.6618 -3.1005  0.7043
  214MOL0     H28235   6.275   0.260   2.747  0.7870 -2.8583  0.2230
  214MOL0     H28236   6.481   0.428   3.002  2.6706  1.9501 -1.3128
  214MOL0     H28237   6.665   0.549   3.078 -0.3402  2.1155  0.0823
  214MOL0     H28238   6.845   0.661   3.180  2.8579  1.6474  0.1377
  214MOL0     H28239   6.838   0.499   3.252 -0.5586  1.0540 -2.3897
  214MOL0     H28240   6.917   0.727   3.438 -0.8069 -1.6154  0.7518
  214MOL0     H28241   6.938   0.547   3.443  2.1719 -0.5461 -0.2908
  214MOL0     H28242   7.096   0.740   3.249  4.5936  0.2519 -0.8739
  214MOL0     H28243   7.097   0.567   3.243 -0.1013  2.1230 -1.0742
  214MOL0     H28244   7.187   0.764   3.465  1.7006  0.6686 -0.5961
  214MOL0     H28245   7.184   0.601   3.510 -3.2440  0.8112  0.0418
  214MOL0     H28246   7.524   0.673   3.267 -0.3408  0.3749  0.2929
  214MOL0     H28247   6.477   0.614   3.451 -3.5484 -1.2384 -0.0139
  214MOL0     H28248   6.259   0.529   3.349  0.9181  0.5748  0.9932
  215MOL0     O28249   9.031   3.044   8.850  0.0760 -0.9549  0.5195
  215MOL0     C28250   9.076   2.993   8.742  0.5221 -0.8584 -0.4386
  215MOL0     O28251   9.018   3.013   8.620 -0.9083  0.2996 -0.0934
  215MOL0     C28252   8.909   3.093   8.598 -0.2508 -0.7316  0.5582
  215MOL0     C28253   8.900   3.223   8.640  0.2889  0.2766  0.2687
  215MOL0     C28254   8.788   3.300   8.600 -0.0186 -0.0106 -0.0712
  215MOL0     C28255   8.683   3.242   8.535  0.5713 -0.1063  0.0231
  215MOL0     O28256   8.577   3.310   8.473 -0.2432  0.2521  0.7042
  215MOL0     C28257   8.598   3.450   8.435 -0.7182  0.5831 -0.2028
  215MOL0     C28258   8.470   3.492   8.368  0.0584 -0.5227  0.1472
  215MOL0     C28259   8.484   3.423   8.216 -0.6366 -0.5619  0.3501
  215MOL0     C28260   8.366   3.476   8.132 -0.9907 -0.1522 -0.3051
  215MOL0     C28261   8.333   3.374   8.026 -0.5371 -0.4201  0.1186
  215MOL0     C28262   8.219   3.422   7.934 -0.3072 -0.4403 -0.8616
  215MOL0     C28263   8.255   3.503   7.812 -0.1896  0.2292  0.1589
  215MOL0     C28264   8.299   3.408   7.707 -0.8195  0.2036 -0.3058
  215MOL0     N28265   8.195   3.327   7.646  0.0446 -0.3430  0.8476
  215MOL0     C28266   8.180   3.192   7.676  0.7025  0.1922  0.1559
  215MOL0     C28267   8.074   3.158   7.603 -0.8261  0.2902  0.3373
  215MOL0     C28268   7.998   3.024   7.589  0.6687 -0.0225 -0.9325
  215MOL0     C28269   7.842   3.045   7.565 -0.4985 -0.4116 -0.4615
  215MOL0     C28270   7.777   2.905   7.549  1.0250  0.2298  0.1131
  215MOL0     C28271   7.620   2.890   7.562  0.5134  0.0751  0.6128
  215MOL0     O28272   7.549   2.935   7.445  0.1830 -0.4617 -0.0173
  215MOL0     C28273   7.416   2.899   7.430  0.1301  0.1598 -0.3694
  215MOL0     C28274   7.326   2.869   7.541 -0.1104  0.5468  0.1443
  215MOL0     C28275   7.188   2.841   7.518 -0.8301 -0.1115  0.2274
  215MOL0     C28276   7.143   2.847   7.390  0.4219 -0.4785 -0.2264
  215MOL0     C28277   7.004   2.789   7.371 -0.5694  0.1937  0.1193
  215MOL0     O28278   6.913   2.801   7.468  0.8171 -0.1366  0.0526
  215MOL0     C28279   6.779   2.782   7.445  0.1029 -0.4512 -0.1234
  215MOL0     C28280   6.708   2.708   7.346  0.1354  0.0417  0.1462
  215MOL0     C28281   6.574   2.703   7.346  0.4759  0.2765  0.7480
  215MOL0     C28282   6.503   2.779   7.437  0.2935  0.5552  0.0572
  215MOL0     O28283   6.361   2.790   7.436  0.3852  0.5210 -0.2753
  215MOL0     C28284   6.290   2.667   7.435  0.1273  0.0683  0.6450
  215MOL0     C28285   6.142   2.691   7.460 -0.7643 -0.4721 -0.0008
  215MOL0     C28286   6.056   2.580   7.403  0.0717 -0.0519  0.3297
  215MOL0     C28287   5.906   2.610   7.414 -0.1769  0.6794 -0.3536
  215MOL0     C28288   5.815   2.504   7.348  0.1280 -0.0218  0.5496
  215MOL0     C28289   5.666   2.523   7.348 -0.0961  0.0401  0.3755
  215MOL0     C28290   5.599   2.409   7.263 -1.0052 -0.3568 -0.3678
  215MOL0     C28291   5.598   2.272   7.328  0.2056 -0.1328  0.5941
  215MOL0    Cl28292   5.502   2.175   7.221  0.2942 -0.0174 -0.0321
  215MOL0     C28293   6.567   2.855   7.531 -0.4253 -0.8543  0.1228
  215MOL0     C28294   6.699   2.846   7.536  0.1511  0.2546 -0.8712
  215MOL0     O28295   6.991   2.724   7.265  0.2012  0.0196 -0.8322
  215MOL0     C28296   7.233   2.877   7.281 -0.5687 -0.0880 -0.1011
  215MOL0     C28297   7.366   2.902   7.299  0.1605 -0.1011  0.1324
  215MOL0     N28298   8.036   3.260   7.518 -0.6154  0.3547  0.2806
  215MOL0     N28299   8.107   3.357   7.545  0.6385 -1.0282 -0.4222
  215MOL0     C28300   8.685   3.102   8.503 -0.6016 -0.1254  0.0366
  215MOL0     C28301   8.805   3.029   8.533 -0.0150 -1.2279  0.1627
  215MOL0     C28302   9.202   2.914   8.743 -0.4153  0.3747 -0.0268
  215MOL0     C28303   9.230   2.809   8.648 -0.1927 -0.0431  0.0603
  215MOL0     C28304   9.345   2.738   8.646  0.2067  0.4495  0.2664
  215MOL0     C28305   9.439   2.765   8.744 -0.1035  0.1078  0.3118
  215MOL0     O28306   9.556   2.693   8.748 -0.0845 -0.1154 -0.2731
  215MOL0     C28307   9.641   2.715   8.634  0.2947 -0.1868 -0.1524
  215MOL0     C28308   9.787   2.696   8.682  0.2841  0.3266  0.0276
  215MOL0     C28309   9.829   2.560   8.652 -0.2968  0.0104 -0.0657
  215MOL0     C28310   9.976   2.532   8.670 -0.1907 -0.7126  0.5472
  215MOL0     C28311  10.028   2.555   8.804 -0.2791 -0.2823 -0.0311
  215MOL0     C28312  10.094   2.570   8.913 -0.0225  0.6659 -0.5123
  215MOL0     C28313   9.417   2.862   8.847  0.3670  0.2763  0.6541
  215MOL0     C28314   9.300   2.939   8.844 -0.5285  0.7327 -0.0089
  215MOL0     H28315   8.983   3.269   8.692  0.6350 -1.0540  0.9489
  215MOL0     H28316   8.784   3.407   8.621 -1.5522  0.0374 -0.5489
  215MOL0     H28317   8.684   3.463   8.369 -0.8012  2.9456  0.0834
  215MOL0     H28318   8.616   3.516   8.519  2.8144 -1.0957  0.5251
  215MOL0     H28319   8.457   3.601   8.375  3.0444 -0.0288 -0.4220
  215MOL0     H28320   8.390   3.446   8.425 -0.0682  1.8367  2.0535
  215MOL0     H28321   8.479   3.314   8.218 -0.8186 -0.5884 -1.0491
  215MOL0     H28322   8.575   3.443   8.159 -0.7384 -2.5565 -0.6038
  215MOL0     H28323   8.282   3.482   8.202 -0.2269 -1.9271  0.8375
  215MOL0     H28324   8.375   3.574   8.085  1.5123 -0.3782 -0.4213
  215MOL0     H28325   8.285   3.289   8.075 -0.8391 -1.0313 -1.2014
  215MOL0     H28326   8.415   3.328   7.971 -1.2542  0.5809 -1.9062
  215MOL0     H28327   8.162   3.485   8.004  1.1645  0.1246 -0.1348
  215MOL0     H28328   8.169   3.331   7.898  0.9626 -2.4698  2.0426
  215MOL0     H28329   8.171   3.568   7.785  0.9403  1.5118 -0.3684
  215MOL0     H28330   8.332   3.574   7.843 -2.1077  0.7428  4.6068
  215MOL0     H28331   8.371   3.342   7.756 -0.3848 -0.5667 -1.9082
  215MOL0     H28332   8.358   3.452   7.626 -0.6385  0.5215  0.0004
  215MOL0     H28333   8.235   3.129   7.745 -0.5165  1.4790  2.4357
  215MOL0     H28334   8.011   2.970   7.683  0.8235  0.3854 -0.7143
  215MOL0     H28335   8.030   2.967   7.501 -0.5474 -0.3308 -1.1895
  215MOL0     H28336   7.833   3.094   7.467  0.8723  1.9733  0.5177
  215MOL0     H28337   7.793   3.098   7.647 -0.2082 -0.9958  0.0925
  215MOL0     H28338   7.803   2.862   7.452  0.8290 -3.1391  1.4024
  215MOL0     H28339   7.824   2.846   7.629 -1.5957 -0.5966  1.1947
  215MOL0     H28340   7.582   2.945   7.649  0.4296  1.4312 -0.2610
  215MOL0     H28341   7.605   2.782   7.571 -2.7831  0.4381  0.6543
  215MOL0     H28342   7.361   2.867   7.644  0.9900 -1.3771 -0.2134
  215MOL0     H28343   7.132   2.810   7.606 -0.5887  0.9445  0.7792
  215MOL0     H28344   6.768   2.651   7.275 -2.8936 -4.2694  0.6534
  215MOL0     H28345   6.523   2.634   7.279 -0.0234 -0.9839  2.3747
  215MOL0     H28346   6.332   2.587   7.497 -1.0125 -1.8876 -0.9659
  215MOL0     H28347   6.295   2.632   7.332  1.4445 -3.0400  1.6436
  215MOL0     H28348   6.123   2.791   7.422 -1.4376 -0.0950  1.2736
  215MOL0     H28349   6.125   2.690   7.568  3.3718  1.6137  0.8628
  215MOL0     H28350   6.076   2.487   7.456 -1.0011 -0.4337  0.0809
  215MOL0     H28351   6.085   2.560   7.300 -0.5287 -3.9793  0.7750
  215MOL0     H28352   5.885   2.620   7.521 -0.2702  0.3827 -0.3441
  215MOL0     H28353   5.884   2.704   7.364  0.5571  1.2321  0.3323
  215MOL0     H28354   5.838   2.405   7.388 -0.7799 -1.2002 -1.6395
  215MOL0     H28355   5.849   2.502   7.244  0.9538  0.9618  0.7820
  215MOL0     H28356   5.645   2.623   7.308  2.7424 -0.1626 -1.9315
  215MOL0     H28357   5.641   2.527   7.455  1.5875 -0.2375  0.8140
  215MOL0     H28358   5.499   2.450   7.247 -0.0945  2.3484  0.2526
  215MOL0     H28359   5.642   2.403   7.162 -0.2057  2.8459 -0.3480
  215MOL0     H28360   5.558   2.277   7.430  1.7374  0.1754  1.2156
  215MOL0     H28361   5.701   2.236   7.330  0.5901  0.9518  1.4168
  215MOL0     H28362   6.515   2.916   7.604 -0.2876 -0.5113 -0.0633
  215MOL0     H28363   6.746   2.905   7.614  0.2563  0.5302 -1.1375
  215MOL0     H28364   7.192   2.866   7.181 -2.0854  0.8159  0.3806
  215MOL0     H28365   7.426   2.920   7.210  2.0983  0.4155  1.4905
  215MOL0     H28366   8.604   3.065   8.440 -0.3317 -0.2048 -0.2655
  215MOL0     H28367   8.818   2.928   8.498 -1.6723 -0.9944 -1.2579
  215MOL0     H28368   9.149   2.794   8.577  0.0892  0.8104 -0.4607
  215MOL0     H28369   9.369   2.663   8.571  1.6052  1.3135 -0.1935
  215MOL0     H28370   9.630   2.813   8.589  0.6031  0.4710  1.1412
  215MOL0     H28371   9.608   2.648   8.554  0.8023  1.8808 -2.1876
  215MOL0     H28372   9.836   2.773   8.621 -2.4091  1.7435 -0.5078
  215MOL0     H28373   9.805   2.717   8.788 -3.1834 -2.0678  1.2594
  215MOL0     H28374   9.802   2.525   8.552 -1.8345 -2.1560  1.0033
  215MOL0     H28375   9.776   2.498   8.725 -1.6282  1.4493  0.2299
  215MOL0     H28376  10.001   2.430   8.640 -1.4733 -0.3458 -2.0053
  215MOL0     H28377  10.030   2.599   8.602  0.5574 -1.5893  0.2703
  215MOL0     H28378  10.152   2.565   9.003  0.8415 -1.6473 -1.1115
  215MOL0     H28379   9.497   2.869   8.921  0.6965  0.1561  0.3129
  215MOL0     H28380   9.275   3.018   8.914 -0.2968  0.9716 -0.1882
  216MOL0     O28381   9.512   1.045   4.533  0.3374  0.0193 -0.3487
  216MOL0     C28382   9.593   1.106   4.465  0.1947 -0.9965  0.8306
  216MOL0     O28383   9.556   1.163   4.344 -0.0559  0.3560  0.0839
  216MOL0     C28384   9.421   1.157   4.314  0.1061 -0.2575  0.6000
  216MOL0     C28385   9.359   1.282   4.302 -0.6429 -0.8440 -0.6026
  216MOL0     C28386   9.224   1.289   4.260 -0.0282  1.0253  1.6362
  216MOL0     C28387   9.155   1.170   4.222 -0.3309 -0.1165 -0.4399
  216MOL0     O28388   9.029   1.160   4.175 -0.1518 -0.0607 -0.2839
  216MOL0     C28389   8.944   1.274   4.150  0.4921  0.4663 -0.3567
  216MOL0     C28390   8.806   1.227   4.095  0.4618 -0.1498  0.6719
  216MOL0     C28391   8.699   1.346   4.113  0.8240  0.5479 -0.7892
  216MOL0     C28392   8.561   1.302   4.069  0.4105 -0.0899  0.5143
  216MOL0     C28393   8.445   1.408   4.072 -0.1208 -0.1026 -0.1294
  216MOL0     C28394   8.436   1.472   3.929 -0.7780 -0.4660 -0.5310
  216MOL0     C28395   8.378   1.382   3.816 -0.4656 -0.9316 -0.6796
  216MOL0     C28396   8.229   1.356   3.821  0.3174  0.1836  0.2820
  216MOL0     N28397   8.174   1.284   3.709  0.7011 -0.5462  0.1324
  216MOL0     C28398   8.194   1.314   3.576 -0.0658 -0.6349 -0.6188
  216MOL0     C28399   8.129   1.220   3.503  0.3681  0.0545  1.0808
  216MOL0     C28400   8.147   1.220   3.356 -0.2795  0.7417  0.5499
  216MOL0     C28401   8.009   1.200   3.295  0.1397  0.2830 -0.1942
  216MOL0     C28402   7.898   1.303   3.333  0.0054 -0.3433  0.2285
  216MOL0     C28403   7.752   1.298   3.283  0.3904  0.4958 -0.9379
  216MOL0     O28404   7.691   1.169   3.311 -0.6524  0.4577 -0.4585
  216MOL0     C28405   7.569   1.146   3.266  0.5616 -0.4140 -0.1099
  216MOL0     C28406   7.521   1.020   3.256  0.0896 -0.0778 -0.3233
  216MOL0     C28407   7.392   0.992   3.226  0.3285  0.5225  1.2809
  216MOL0     C28408   7.305   1.095   3.190 -0.0616  1.3000  0.2805
  216MOL0     C28409   7.166   1.061   3.163  0.1680  0.2386  0.3523
  216MOL0     O28410   7.073   1.159   3.169  0.5344 -0.5553 -0.5042
  216MOL0     C28411   6.948   1.124   3.135  0.5359 -0.3371 -0.3418
  216MOL0     C28412   6.898   1.153   3.010  0.1180 -0.7693 -0.7790
  216MOL0     C28413   6.770   1.120   2.968  0.0286  0.0801  0.2919
  216MOL0     C28414   6.682   1.051   3.061 -0.4519 -0.1221  0.8309
  216MOL0     O28415   6.563   1.013   3.010  0.0122 -0.1401 -0.8886
  216MOL0     C28416   6.453   0.954   3.080  0.4606 -0.1381 -0.2186
  216MOL0     C28417   6.321   0.981   3.001 -0.1757  0.6857  0.2746
  216MOL0     C28418   6.213   0.933   3.089  0.1852  0.0229 -0.0521
  216MOL0     C28419   6.077   0.997   3.047 -0.5349  1.0329 -0.6246
  216MOL0     C28420   5.960   0.931   3.123 -0.0089 -0.3396 -0.3023
  216MOL0     C28421   5.828   0.980   3.044 -0.5472  0.4006 -0.9810
  216MOL0     C28422   5.705   0.904   3.098 -0.5316  0.6071  0.4254
  216MOL0     C28423   5.575   0.952   3.029  0.8567  0.5376 -0.5091
  216MOL0    Cl28424   5.565   1.129   3.085 -0.2976 -0.1177  0.1356
  216MOL0     C28425   6.733   1.015   3.188 -0.4324 -0.4571  0.0248
  216MOL0     C28426   6.861   1.050   3.223 -0.1008  0.0278 -0.4326
  216MOL0     O28427   7.138   0.948   3.124 -1.0320 -0.1767 -0.0045
  216MOL0     C28428   7.351   1.226   3.194  0.0793 -1.2079  0.0890
  216MOL0     C28429   7.479   1.254   3.232 -0.1662  0.6486 -0.4529
  216MOL0     N28430   8.064   1.141   3.590  1.3970 -0.0848 -0.2670
  216MOL0     N28431   8.097   1.172   3.712 -0.3124  0.0499  0.2436
  216MOL0     C28432   9.213   1.048   4.249 -0.7206  0.3948  0.7796
  216MOL0     C28433   9.345   1.041   4.283 -0.7211 -0.4982  0.3803
  216MOL0     C28434   9.725   1.133   4.524 -0.2595  0.3017 -0.5596
  216MOL0     C28435   9.831   1.186   4.457  1.0039 -0.2808 -0.0946
  216MOL0     C28436   9.945   1.224   4.524  0.3713 -0.8841 -0.2331
  216MOL0     C28437   9.965   1.203   4.661  0.2218  0.0246  0.3653
  216MOL0     O28438  10.089   1.222   4.713  0.0689 -0.0153 -0.0918
  216MOL0     C28439  10.130   1.174   4.852  0.1135  0.6896  0.1318
  216MOL0     C28440  10.166   1.020   4.852 -0.9514 -0.2556  0.4522
  216MOL0     C28441  10.247   0.992   4.980  0.1505  0.5364  0.5779
  216MOL0     C28442  10.404   1.026   4.961  1.4743  0.4162 -0.5216
  216MOL0     C28443  10.492   1.016   5.079 -0.2351 -1.3538 -0.2120
  216MOL0     C28444  10.570   1.009   5.169 -0.2174  0.4622  0.4135
  216MOL0     C28445   9.860   1.140   4.725  1.0401  0.7431 -0.2844
  216MOL0     C28446   9.740   1.113   4.666 -0.1566  0.0713 -0.7201
  216MOL0     H28447   9.412   1.371   4.334  0.4569 -1.5266 -0.4779
  216MOL0     H28448   9.182   1.388   4.253 -0.5104  0.7700  0.8891
  216MOL0     H28449   8.992   1.338   4.076  2.3123 -0.6693 -0.2062
  216MOL0     H28450   8.927   1.321   4.247  1.0098 -0.7126  0.3221
  216MOL0     H28451   8.770   1.140   4.149 -1.5897  0.2401  0.0251
  216MOL0     H28452   8.795   1.202   3.989  1.0529 -0.3253  0.6501
  216MOL0     H28453   8.728   1.429   4.048  0.4931  0.3961 -1.1343
  216MOL0     H28454   8.694   1.394   4.212  0.5062 -1.2013  0.0836
  216MOL0     H28455   8.573   1.268   3.966 -0.9345  3.1543 -0.8452
  216MOL0     H28456   8.534   1.216   4.131  2.6334  0.7979  2.8641
  216MOL0     H28457   8.472   1.477   4.152 -1.5874  2.8243 -2.0090
  216MOL0     H28458   8.346   1.366   4.094  0.3623  0.7097  4.8149
  216MOL0     H28459   8.533   1.513   3.899 -0.7214  1.4632  1.9217
  216MOL0     H28460   8.373   1.562   3.934 -0.2060 -0.1232  2.3316
  216MOL0     H28461   8.402   1.437   3.724  3.7889 -2.3545 -0.6708
  216MOL0     H28462   8.451   1.302   3.796  1.6167  0.5825  0.3900
  216MOL0     H28463   8.176   1.452   3.821 -2.1568 -1.1001  1.2044
  216MOL0     H28464   8.205   1.301   3.913  4.9335  1.3708  2.4979
  216MOL0     H28465   8.252   1.399   3.541  1.5624 -0.7764  1.5297
  216MOL0     H28466   8.211   1.137   3.324  0.5271  1.6017 -0.1571
  216MOL0     H28467   8.204   1.309   3.326  0.9885 -0.2752 -0.1586
  216MOL0     H28468   7.979   1.099   3.325 -1.7449  0.9616  0.3194
  216MOL0     H28469   8.020   1.192   3.186  2.0550 -1.8948  0.0821
  216MOL0     H28470   7.888   1.297   3.442 -0.2814 -0.6703  0.1837
  216MOL0     H28471   7.940   1.401   3.309  0.9086 -1.1853 -1.8164
  216MOL0     H28472   7.752   1.310   3.174 -2.0805 -1.1618 -1.2207
  216MOL0     H28473   7.700   1.378   3.336 -0.7981 -0.7147 -0.2200
  216MOL0     H28474   7.584   0.934   3.279 -0.6292 -0.6937 -0.5983
  216MOL0     H28475   7.347   0.893   3.220 -0.1188  0.7521 -3.2907
  216MOL0     H28476   6.975   1.205   2.953  2.1824 -1.5967  1.1122
  216MOL0     H28477   6.744   1.144   2.865 -0.8917 -1.7851  0.0430
  216MOL0     H28478   6.443   0.998   3.180 -0.7503 -1.0263  0.0790
  216MOL0     H28479   6.460   0.847   3.101  2.1227  0.3945  2.4990
  216MOL0     H28480   6.324   0.926   2.906  1.7495  0.1053  0.6274
  216MOL0     H28481   6.309   1.088   2.982 -1.0356  0.5409 -0.0193
  216MOL0     H28482   6.233   0.965   3.191  0.9771 -0.3637 -0.0806
  216MOL0     H28483   6.214   0.824   3.082  1.9646  0.0270 -0.3845
  216MOL0     H28484   6.084   1.104   3.070 -0.1129  0.9767 -0.4881
  216MOL0     H28485   6.054   0.978   2.941 -4.0894  2.3570 -0.2468
  216MOL0     H28486   5.959   0.962   3.228  0.2109  1.0930 -0.7025
  216MOL0     H28487   5.955   0.822   3.115  4.1799 -0.6972 -0.1494
  216MOL0     H28488   5.837   0.947   2.940  2.8061  0.4051 -0.7809
  216MOL0     H28489   5.825   1.089   3.054  0.8904  0.3303  0.6370
  216MOL0     H28490   5.713   0.797   3.075  1.3444  0.6539  0.6518
  216MOL0     H28491   5.699   0.924   3.206 -1.1642 -0.9812  0.7159
  216MOL0     H28492   5.483   0.898   3.051  2.5626 -2.3150  0.1781
  216MOL0     H28493   5.580   0.932   2.921  0.6764 -2.7608 -0.0270
  216MOL0     H28494   6.675   0.960   3.261  1.1973  1.6243  3.1127
  216MOL0     H28495   6.902   1.029   3.321 -0.9798 -1.3333 -0.3279
  216MOL0     H28496   7.285   1.309   3.172  3.4155  1.6522  0.0030
  216MOL0     H28497   7.506   1.359   3.238  2.3023  0.0546  0.2157
  216MOL0     H28498   9.162   0.954   4.231 -2.7125  0.8083  3.6598
  216MOL0     H28499   9.401   0.949   4.296  2.2399  0.9846 -0.8764
  216MOL0     H28500   9.827   1.194   4.349 -3.4607 -2.2440 -0.2897
  216MOL0     H28501  10.017   1.285   4.470 -0.8985  1.2695  0.4214
  216MOL0     H28502  10.050   1.194   4.924  0.1395  0.5067  0.2118
  216MOL0     H28503  10.214   1.240   4.875 -0.7697  1.5047  1.1488
  216MOL0     H28504  10.071   0.966   4.860 -1.4106  0.6375  1.2670
  216MOL0     H28505  10.226   0.995   4.764 -0.2030 -0.1478  0.9225
  216MOL0     H28506  10.239   0.887   5.009 -0.7023  0.5513  0.4192
  216MOL0     H28507  10.201   1.055   5.056  0.1567  0.8222  0.3452
  216MOL0     H28508  10.438   0.954   4.886 -1.7837 -1.2734 -0.5756
  216MOL0     H28509  10.411   1.128   4.923  0.7841  0.8438  0.4325
  216MOL0     H28510  10.654   1.001   5.236  2.3156  2.5244 -2.2584
  216MOL0     H28511   9.875   1.117   4.830 -0.4720 -1.4584 -0.4880
  216MOL0     H28512   9.662   1.081   4.734 -0.2097  0.5596 -0.5513
  217MOL0     O28513  10.161   1.841   4.249 -0.3991  0.4110  0.4917
  217MOL0     C28514  10.119   1.743   4.314 -0.3486  0.4204  0.2137
  217MOL0     O28515   9.984   1.727   4.356 -0.4680  0.6416 -0.0166
  217MOL0     C28516   9.883   1.820   4.326  0.4302 -0.0237  0.4829
  217MOL0     C28517   9.778   1.838   4.418  0.1001 -0.3150 -0.7798
  217MOL0     C28518   9.673   1.922   4.384  0.1263 -0.6802 -0.0543
  217MOL0     C28519   9.656   1.978   4.254 -0.7520  0.5319  0.3558
  217MOL0     O28520   9.552   2.053   4.211 -0.0963 -0.7541 -0.2368
  217MOL0     C28521   9.438   2.076   4.293  1.0233  0.3378  0.1375
  217MOL0     C28522   9.347   2.178   4.222 -0.1752 -0.3031 -0.4675
  217MOL0     C28523   9.229   2.208   4.310  0.5488 -0.1737 -0.7319
  217MOL0     C28524   9.274   2.278   4.444  0.5701  0.3828  0.7216
  217MOL0     C28525   9.165   2.389   4.472 -0.2172  0.0161 -0.5922
  217MOL0     C28526   9.031   2.325   4.503  0.1079  1.3933 -0.2757
  217MOL0     C28527   8.907   2.414   4.532  0.6320 -0.4246  0.1159
  217MOL0     C28528   8.838   2.484   4.410  0.3429 -0.2376  0.2772
  217MOL0     N28529   8.760   2.601   4.451 -0.1295  0.1989  0.0404
  217MOL0     C28530   8.784   2.732   4.420  0.0091  0.5016  0.7815
  217MOL0     C28531   8.686   2.799   4.477 -0.0124  0.2136  0.5100
  217MOL0     C28532   8.670   2.943   4.462  0.2477 -1.0258 -0.9509
  217MOL0     C28533   8.547   3.006   4.547 -0.3362 -0.5358  0.0210
  217MOL0     C28534   8.555   3.157   4.535  0.3175 -0.2436  0.2805
  217MOL0     C28535   8.423   3.233   4.567 -0.7331  0.2612 -0.7376
  217MOL0     O28536   8.341   3.249   4.452  0.0221 -0.3233 -0.1551
  217MOL0     C28537   8.207   3.267   4.463  0.5175  0.1882 -0.4689
  217MOL0     C28538   8.148   3.323   4.579  0.1666  0.0372 -0.5616
  217MOL0     C28539   8.005   3.339   4.589  0.2687 -0.5532  0.0998
  217MOL0     C28540   7.928   3.303   4.477  1.0717  0.9135  0.7004
  217MOL0     C28541   7.782   3.328   4.471 -0.1842 -0.3659 -0.6380
  217MOL0     O28542   7.727   3.362   4.590  0.0700  0.6116  0.2631
  217MOL0     C28543   7.588   3.353   4.607 -0.5381  0.2706  0.4942
  217MOL0     C28544   7.510   3.458   4.661  0.2624 -0.0871 -0.1463
  217MOL0     C28545   7.377   3.443   4.686 -0.1258 -0.1147  0.5722
  217MOL0     C28546   7.311   3.329   4.643  0.1193 -0.3938  0.0470
  217MOL0     O28547   7.175   3.326   4.664 -0.2824 -0.5654  0.2279
  217MOL0     C28548   7.107   3.223   4.585 -0.0230 -0.4164 -0.5421
  217MOL0     C28549   6.964   3.264   4.568  0.0629 -0.0152 -0.3023
  217MOL0     C28550   6.901   3.162   4.474 -0.3602  0.0037  0.1298
  217MOL0     C28551   6.761   3.202   4.420  0.4086 -0.3119 -0.0391
  217MOL0     C28552   6.688   3.094   4.343  0.1151 -0.8403 -0.4943
  217MOL0     C28553   6.563   3.140   4.262  0.3919  0.9040  0.7303
  217MOL0     C28554   6.488   3.016   4.215  0.0159 -0.0087 -0.1628
  217MOL0     C28555   6.354   3.059   4.170 -0.0880  0.0099  0.5614
  217MOL0    Cl28556   6.286   2.926   4.079  0.1890 -0.2928  0.1390
  217MOL0     C28557   7.390   3.224   4.599  0.3947  0.7736 -0.0735
  217MOL0     C28558   7.529   3.237   4.578 -0.5119 -0.2510 -0.5708
  217MOL0     O28559   7.725   3.323   4.364  0.1361  0.4520  0.3689
  217MOL0     C28560   7.991   3.244   4.364 -0.0871 -0.6896 -0.5704
  217MOL0     C28561   8.129   3.227   4.354 -0.0711 -0.4817 -0.8753
  217MOL0     N28562   8.622   2.709   4.560 -0.3293 -0.0858 -0.5619
  217MOL0     N28563   8.656   2.587   4.536  0.0667  0.0518 -0.0126
  217MOL0     C28564   9.760   1.967   4.171  0.6014  0.2777 -0.5239
  217MOL0     C28565   9.873   1.887   4.205 -0.1570  0.1331 -0.0816
  217MOL0     C28566  10.220   1.647   4.379  0.8102 -0.9941 -0.4179
  217MOL0     C28567  10.189   1.546   4.472  0.2230  0.4429  0.1674
  217MOL0     C28568  10.289   1.455   4.518  1.1627 -0.3678  0.0300
  217MOL0     C28569  10.421   1.473   4.463 -0.2267 -0.0252  0.8346
  217MOL0     O28570  10.529   1.390   4.483 -0.0901  0.6724  0.0735
  217MOL0     C28571  10.521   1.295   4.589 -0.3889  0.2740 -0.1800
  217MOL0     C28572  10.647   1.207   4.591 -0.2682 -0.4319 -0.3457
  217MOL0     C28573  10.666   1.116   4.467 -0.7436  0.3055 -0.4193
  217MOL0     C28574  10.761   0.993   4.484 -0.4431 -0.0620 -0.0277
  217MOL0     C28575  10.744   0.893   4.386  0.1912  0.6766 -1.4486
  217MOL0     C28576  10.725   0.799   4.315  0.7569 -0.3134 -0.2804
  217MOL0     C28577  10.453   1.564   4.372 -0.2684 -0.6928  0.8719
  217MOL0     C28578  10.352   1.656   4.335 -0.5552 -0.3999 -0.3716
  217MOL0     H28579   9.792   1.795   4.517  0.9499  0.8990 -0.3502
  217MOL0     H28580   9.594   1.936   4.456 -0.2012  1.2525 -0.7157
  217MOL0     H28581   9.466   2.120   4.389 -0.2754  1.7412 -0.0944
  217MOL0     H28582   9.380   1.984   4.305 -1.7026  1.7547 -1.1568
  217MOL0     H28583   9.299   2.133   4.135  1.0537 -0.1831 -1.2243
  217MOL0     H28584   9.401   2.269   4.196 -0.2664  0.3143  1.3785
  217MOL0     H28585   9.177   2.115   4.338 -1.1795  0.0910 -2.7772
  217MOL0     H28586   9.164   2.270   4.247  0.3213 -1.2920 -1.6374
  217MOL0     H28587   9.290   2.210   4.528 -0.3277 -0.9238 -0.1214
  217MOL0     H28588   9.367   2.331   4.422  0.8286 -0.8225 -1.3699
  217MOL0     H28589   9.158   2.455   4.385  1.3341 -0.2072 -0.9159
  217MOL0     H28590   9.207   2.452   4.551 -1.4053  0.3544 -0.2128
  217MOL0     H28591   9.051   2.271   4.597 -0.4185  3.4667  1.0900
  217MOL0     H28592   9.020   2.243   4.432  2.7476  1.0717 -0.3992
  217MOL0     H28593   8.827   2.344   4.559  1.8080 -0.7936  2.9950
  217MOL0     H28594   8.925   2.481   4.616  0.3931  1.4694 -1.2865
  217MOL0     H28595   8.772   2.414   4.358 -0.2653  1.8931 -2.0330
  217MOL0     H28596   8.903   2.528   4.334 -1.5283  1.7767 -0.2705
  217MOL0     H28597   8.860   2.758   4.347 -0.7884 -0.3912 -0.4178
  217MOL0     H28598   8.651   2.966   4.357  0.4670  3.9253 -0.1770
  217MOL0     H28599   8.766   2.991   4.481  0.4455 -1.8495  0.2805
  217MOL0     H28600   8.551   2.974   4.651  1.4380 -0.9915 -0.1474
  217MOL0     H28601   8.451   2.966   4.513  0.0616 -0.0922 -1.7833
  217MOL0     H28602   8.627   3.191   4.609  2.3841 -1.4019 -1.0954
  217MOL0     H28603   8.601   3.193   4.442 -0.4026  0.9142  0.3505
  217MOL0     H28604   8.437   3.336   4.600 -1.0840 -0.2044  0.9488
  217MOL0     H28605   8.363   3.186   4.646 -0.9766  2.5385  0.5185
  217MOL0     H28606   8.207   3.355   4.664  0.2953 -3.7148  0.9772
  217MOL0     H28607   7.976   3.375   4.687 -0.0053 -0.3760 -0.0481
  217MOL0     H28608   7.562   3.550   4.687  2.8040 -1.2514 -0.7686
  217MOL0     H28609   7.326   3.514   4.751  0.8216  0.0603  1.1585
  217MOL0     H28610   7.117   3.123   4.628  1.6739 -0.1912 -0.3354
  217MOL0     H28611   7.153   3.220   4.486  0.1197 -0.2962 -0.4801
  217MOL0     H28612   6.959   3.362   4.519  1.9276  1.3591  2.0402
  217MOL0     H28613   6.915   3.269   4.666  0.6012  1.6354 -0.0914
  217MOL0     H28614   6.898   3.070   4.533  1.0435 -1.1270 -1.4689
  217MOL0     H28615   6.963   3.152   4.384  2.0936  3.2903  1.2550
  217MOL0     H28616   6.705   3.233   4.509  1.9064  1.4215  0.3558
  217MOL0     H28617   6.782   3.281   4.348  0.2849 -0.1726  0.0781
  217MOL0     H28618   6.656   3.025   4.422 -1.7070 -0.0241 -0.4598
  217MOL0     H28619   6.766   3.053   4.279  0.1266  0.0192 -1.0371
  217MOL0     H28620   6.596   3.208   4.183 -1.9133  1.5782  0.2772
  217MOL0     H28621   6.505   3.207   4.327 -0.1301  2.8156 -1.5548
  217MOL0     H28622   6.543   2.969   4.133  0.3821  0.3956 -0.1561
  217MOL0     H28623   6.476   2.943   4.295  1.1072  0.1980  0.2028
  217MOL0     H28624   6.372   3.137   4.096  1.2149  0.5230  1.3891
  217MOL0     H28625   6.294   3.102   4.251  0.6857  4.4031 -0.9220
  217MOL0     H28626   7.339   3.134   4.565 -1.0449  1.2978  0.6164
  217MOL0     H28627   7.590   3.153   4.546  0.3306  0.0095  0.2915
  217MOL0     H28628   7.931   3.199   4.286  1.0615 -2.8876 -0.2723
  217MOL0     H28629   8.167   3.164   4.274  2.3650 -0.1466 -0.0574
  217MOL0     H28630   9.757   1.999   4.068 -0.5892  2.7729  0.2167
  217MOL0     H28631   9.945   1.863   4.127  1.0836 -0.7171  1.2800
  217MOL0     H28632  10.091   1.537   4.518  0.1054  1.4339  0.1339
  217MOL0     H28633  10.263   1.376   4.587  0.7985  0.2477  0.6085
  217MOL0     H28634  10.438   1.230   4.562 -1.5965  1.9765 -0.7712
  217MOL0     H28635  10.508   1.353   4.681  2.5833  1.8387 -0.5955
  217MOL0     H28636  10.738   1.268   4.595 -0.4163 -0.2639  0.9172
  217MOL0     H28637  10.647   1.149   4.684 -1.4608 -2.1139 -1.3448
  217MOL0     H28638  10.701   1.173   4.381 -0.2401 -1.8821 -1.7442
  217MOL0     H28639  10.563   1.090   4.438 -0.5929  1.0440 -1.6836
  217MOL0     H28640  10.867   1.019   4.487  0.3866 -3.1406  2.1270
  217MOL0     H28641  10.744   0.946   4.582 -1.4672  0.8259  0.2498
  217MOL0     H28642  10.701   0.728   4.239  0.5261 -0.5055 -0.0287
  217MOL0     H28643  10.548   1.562   4.321 -0.9595 -1.7582 -0.4500
  217MOL0     H28644  10.377   1.731   4.261  0.5302 -1.0525 -0.6882
  218MOL0     O28645   3.998   4.729   1.084 -0.2400  0.5148  0.4794
  218MOL0     C28646   4.021   4.730   0.962  0.3343  0.2847 -0.3175
  218MOL0     O28647   3.930   4.730   0.867 -0.0493  0.4032 -0.2574
  218MOL0     C28648   3.792   4.739   0.894 -0.5230  0.3416  0.2978
  218MOL0     C28649   3.709   4.829   0.827 -0.6837  0.4999 -0.0929
  218MOL0     C28650   3.574   4.838   0.856 -0.3829 -0.3502 -0.7418
  218MOL0     C28651   3.512   4.744   0.942  0.0173 -0.4411  0.2127
  218MOL0     O28652   3.369   4.743   0.936  0.7213 -0.3536 -0.2704
  218MOL0     C28653   3.295   4.665   1.043  0.0669 -0.6298  1.1091
  218MOL0     C28654   3.145   4.704   1.037 -0.0969  0.2717  0.3314
  218MOL0     C28655   3.061   4.628   1.149 -0.6793  0.2859 -0.0149
  218MOL0     C28656   2.917   4.668   1.139  0.9912 -1.3331  0.4841
  218MOL0     C28657   2.820   4.583   1.217 -0.2128  0.2575  0.2494
  218MOL0     C28658   2.670   4.585   1.161  0.6810 -0.7449 -0.4728
  218MOL0     C28659   2.637   4.443   1.122 -0.0578  0.0346 -0.7325
  218MOL0     C28660   2.503   4.443   1.058 -0.2580  0.2261  0.2868
  218MOL0     N28661   2.468   4.303   1.040 -0.3409 -0.7764 -0.2646
  218MOL0     C28662   2.354   4.246   1.093 -0.2282  1.3847  0.1989
  218MOL0     C28663   2.331   4.133   1.019  0.0202 -0.4730  0.0458
  218MOL0     C28664   2.217   4.033   1.046 -0.0975  0.1793 -0.3590
  218MOL0     C28665   2.089   4.097   1.039 -1.2045  0.0455 -0.2566
  218MOL0     C28666   1.975   3.998   1.067  0.6003  0.7173  0.3001
  218MOL0     C28667   1.834   4.070   1.089  0.4274  1.2540  0.8417
  218MOL0     O28668   1.727   3.973   1.100  0.3331  0.1645  0.0477
  218MOL0     C28669   1.595   4.013   1.098 -0.1053  0.2191 -0.0578
  218MOL0     C28670   1.518   3.929   1.173  0.0012 -0.4846  0.3230
  218MOL0     C28671   1.380   3.957   1.199 -0.8753  0.2797  0.3502
  218MOL0     C28672   1.319   4.074   1.151  0.1489  0.0432  0.1574
  218MOL0     C28673   1.182   4.106   1.187  0.4232 -0.3914 -0.4027
  218MOL0     O28674   1.132   4.048   1.296 -0.0644 -0.4144  0.6051
  218MOL0     C28675   0.994   4.033   1.311 -0.1258  0.7266 -0.8769
  218MOL0     C28676   0.888   4.056   1.215  0.4493 -0.0032 -0.3394
  218MOL0     C28677   0.752   4.040   1.259 -0.5922 -0.0260 -0.4024
  218MOL0     C28678   0.718   4.017   1.390 -0.2195  0.3558  0.1990
  218MOL0     O28679   0.585   4.008   1.428  0.2296  1.1088  0.4545
  218MOL0     C28680   0.495   4.113   1.385  0.5155 -0.2720 -0.0639
  218MOL0     C28681   0.365   4.126   1.460 -0.0863  0.4019  0.4719
  218MOL0     C28682   0.316   3.996   1.524 -0.0157  0.0039  0.6075
  218MOL0     C28683   0.168   3.999   1.567  0.1121  0.1609  0.1442
  218MOL0     C28684   0.128   3.889   1.670 -0.1812 -0.4127  0.3140
  218MOL0     C28685   0.156   3.738   1.633 -0.1530  0.0365 -0.4782
  218MOL0     C28686   0.069   3.693   1.518 -0.8340 -0.2881 -0.2220
  218MOL0     C28687   0.069   3.540   1.515  0.2552 -0.4218 -0.7994
  218MOL0    Cl28688   0.216   3.469   1.451  0.5179 -0.2456 -0.1896
  218MOL0     C28689   0.823   3.986   1.471 -0.9262  0.3598  0.1220
  218MOL0     C28690   0.955   3.987   1.436 -0.3282 -0.4252  0.2285
  218MOL0     O28691   1.122   4.188   1.116  0.5055 -0.0713 -0.1746
  218MOL0     C28692   1.391   4.157   1.069 -0.9463 -0.6336 -0.0119
  218MOL0     C28693   1.528   4.122   1.034 -0.1365 -0.0353  0.1076
  218MOL0     N28694   2.434   4.128   0.920  0.2116  0.0528  0.4862
  218MOL0     N28695   2.510   4.227   0.936  0.0602 -0.8325  0.5085
  218MOL0     C28696   3.588   4.648   1.002  0.2190 -0.3818  0.1514
  218MOL0     C28697   3.730   4.646   0.979 -0.9030 -1.3782 -0.2808
  218MOL0     C28698   4.163   4.757   0.921  1.1465 -0.1383 -0.1033
  218MOL0     C28699   4.194   4.787   0.790  0.5422  0.1714  0.3887
  218MOL0     C28700   4.322   4.835   0.757 -0.3060 -0.1249  0.4786
  218MOL0     C28701   4.426   4.824   0.851 -0.4765  0.7716 -0.2647
  218MOL0     O28702   4.558   4.848   0.818  0.8808 -0.5247 -0.8595
  218MOL0     C28703   4.584   4.915   0.690  0.6059 -0.4079 -0.6746
  218MOL0     C28704   4.730   4.939   0.662  0.4530 -0.4216  0.1586
  218MOL0     C28705   4.782   5.083   0.701  0.0808 -0.3421 -0.3237
  218MOL0     C28706   4.766   5.191   0.589  0.2814  0.4538 -0.2805
  218MOL0     C28707   4.868   5.170   0.486 -0.5394 -0.5270  0.5886
  218MOL0     C28708   4.957   5.181   0.403 -0.1499 -0.2471  0.1766
  218MOL0     C28709   4.398   4.773   0.978  0.4504 -0.0328 -0.3485
  218MOL0     C28710   4.268   4.738   1.018 -0.0593 -0.9584  0.0521
  218MOL0     H28711   3.757   4.899   0.759  0.4569  1.4102  1.5788
  218MOL0     H28712   3.510   4.912   0.810  0.4004 -0.2766 -1.7544
  218MOL0     H28713   3.334   4.686   1.143  0.1726  1.1034  0.7398
  218MOL0     H28714   3.312   4.557   1.035  0.7589 -0.4377 -0.6052
  218MOL0     H28715   3.101   4.679   0.940  0.6543 -0.5343  0.1849
  218MOL0     H28716   3.132   4.811   1.051  0.1798  0.4868 -0.9278
  218MOL0     H28717   3.086   4.650   1.253 -3.0673  2.0575  0.2695
  218MOL0     H28718   3.093   4.526   1.127  3.0513  1.4336 -0.6776
  218MOL0     H28719   2.912   4.775   1.162  1.7458 -1.8461  3.4966
  218MOL0     H28720   2.887   4.664   1.034 -2.9261  1.6655  1.2718
  218MOL0     H28721   2.821   4.614   1.322  2.5855 -0.4265  0.5024
  218MOL0     H28722   2.858   4.481   1.208 -1.6136 -0.3087  0.4630
  218MOL0     H28723   2.668   4.651   1.074  0.9541  0.4562  0.4156
  218MOL0     H28724   2.595   4.614   1.235  0.6224  0.5002 -1.0021
  218MOL0     H28725   2.715   4.404   1.056  1.0576 -3.6419  2.3941
  218MOL0     H28726   2.636   4.393   1.220 -0.7536  0.0020 -0.7536
  218MOL0     H28727   2.504   4.491   0.960 -0.8771  0.8151  0.5558
  218MOL0     H28728   2.425   4.485   1.123  0.4086  0.2253  1.0946
  218MOL0     H28729   2.287   4.289   1.167 -0.6503 -0.4737  0.9472
  218MOL0     H28730   2.239   3.996   1.147  1.8786  0.9957 -0.4329
  218MOL0     H28731   2.228   3.946   0.980  4.2319 -3.1392  3.9415
  218MOL0     H28732   2.065   4.154   0.949 -1.7310  1.8367  0.9693
  218MOL0     H28733   2.098   4.176   1.114 -1.3067  0.0024 -0.1983
  218MOL0     H28734   1.966   3.928   0.984 -0.8512  1.1120  0.0995
  218MOL0     H28735   1.998   3.937   1.155 -1.6888 -2.1001 -0.9121
  218MOL0     H28736   1.814   4.138   1.005  1.7393 -1.5177 -1.9111
  218MOL0     H28737   1.841   4.118   1.187 -0.0686  1.0246  0.9881
  218MOL0     H28738   1.575   3.849   1.219  4.3072 -0.0496 -3.5462
  218MOL0     H28739   1.329   3.884   1.262  2.2255 -1.7640  0.7358
  218MOL0     H28740   0.898   4.086   1.111 -1.7743  2.0146 -0.0678
  218MOL0     H28741   0.681   4.061   1.180 -0.9940  1.1183  0.2318
  218MOL0     H28742   0.468   4.108   1.279  0.4917  1.7830 -0.1894
  218MOL0     H28743   0.549   4.207   1.390  0.1030 -0.0341  0.0146
  218MOL0     H28744   0.287   4.163   1.393  0.0398 -3.9696 -2.5536
  218MOL0     H28745   0.394   4.197   1.537 -3.2917  1.7943  0.5078
  218MOL0     H28746   0.372   3.992   1.618 -0.9401 -1.0739  1.1370
  218MOL0     H28747   0.335   3.911   1.459  0.5436  1.7984 -1.7030
  218MOL0     H28748   0.149   4.097   1.613 -0.6747 -0.6256  1.5596
  218MOL0     H28749   0.105   4.000   1.477 -1.4065  0.2945  1.1556
  218MOL0     H28750   0.020   3.907   1.681 -0.2448 -0.4123 -0.2685
  218MOL0     H28751   0.180   3.918   1.762  0.7324 -1.0631  0.0142
  218MOL0     H28752   0.129   3.681   1.722  2.0435  0.4402  0.5280
  218MOL0     H28753   0.263   3.727   1.611 -0.3409  0.5356 -1.7581
  218MOL0     H28754  -0.034   3.723   1.537 -1.4539 -1.4331 -1.5870
  218MOL0     H28755   0.096   3.744   1.425 -1.9823  0.5163 -0.1326
  218MOL0     H28756  -0.016   3.505   1.456 -0.6782  0.3004  0.0750
  218MOL0     H28757   0.047   3.505   1.616  3.9049 -0.0662  0.2673
  218MOL0     H28758   0.794   3.949   1.568 -2.7183 -0.4112 -0.6529
  218MOL0     H28759   1.038   3.970   1.503  0.3171  0.1106 -0.4181
  218MOL0     H28760   1.355   4.248   1.023 -0.5931  0.9551  2.6525
  218MOL0     H28761   1.583   4.185   0.964  2.6796 -1.0935  1.2493
  218MOL0     H28762   3.546   4.570   1.064  1.7949 -0.6067  1.0065
  218MOL0     H28763   3.799   4.575   1.024  0.3808  0.3374  0.5883
  218MOL0     H28764   4.121   4.791   0.710  0.7496 -1.5064  0.0808
  218MOL0     H28765   4.339   4.870   0.656 -0.2935 -0.8505  0.2247
  218MOL0     H28766   4.531   5.010   0.673  1.6586  0.4387  0.6293
  218MOL0     H28767   4.550   4.845   0.613  1.6971 -0.9005 -0.7134
  218MOL0     H28768   4.793   4.872   0.721  1.5938  1.9715  1.8306
  218MOL0     H28769   4.748   4.919   0.556  0.1377  0.6245 -0.1077
  218MOL0     H28770   4.888   5.072   0.727 -0.0117 -1.3157 -0.2993
  218MOL0     H28771   4.722   5.105   0.789  1.7416  1.3301  0.4635
  218MOL0     H28772   4.665   5.193   0.548 -0.5426  2.1438  1.6670
  218MOL0     H28773   4.782   5.291   0.630 -2.0500  0.9732 -0.5355
  218MOL0     H28774   5.030   5.212   0.332 -0.0868  0.3516  0.4914
  218MOL0     H28775   4.479   4.747   1.046 -0.3955  2.3117  1.7133
  218MOL0     H28776   4.242   4.716   1.121  0.9872  0.6147  0.6907
  219MOL0     O28777   4.053   5.420   7.580  0.2024  0.4379  0.1775
  219MOL0     C28778   4.076   5.526   7.629  0.0401 -0.3824  0.0573
  219MOL0     O28779   3.986   5.616   7.683 -0.9653 -0.0289  0.0019
  219MOL0     C28780   3.867   5.556   7.716 -0.8475 -0.7753  0.3716
  219MOL0     C28781   3.762   5.524   7.617 -0.3183 -0.3285  0.0990
  219MOL0     C28782   3.636   5.472   7.654  0.0872  0.3710  0.4124
  219MOL0     C28783   3.598   5.454   7.783  0.0795  0.8701  1.1680
  219MOL0     O28784   3.476   5.398   7.808 -0.1948 -0.5344  0.8497
  219MOL0     C28785   3.419   5.435   7.937  0.2527 -1.2383 -0.3025
  219MOL0     C28786   3.273   5.409   7.953  0.4892 -0.2947 -0.0071
  219MOL0     C28787   3.244   5.254   7.948 -0.3594 -0.2433 -0.3298
  219MOL0     C28788   3.098   5.221   7.986 -0.0626 -0.1735 -0.2800
  219MOL0     C28789   3.007   5.246   7.864 -0.5570  0.2786  0.3838
  219MOL0     C28790   2.860   5.254   7.905  1.4784 -0.1146 -0.0689
  219MOL0     C28791   2.810   5.121   7.965  0.6323  0.0434 -0.3799
  219MOL0     C28792   2.848   4.997   7.887  0.1087 -0.1479  0.2017
  219MOL0     N28793   2.741   4.896   7.885 -0.4093  0.0828  0.6305
  219MOL0     C28794   2.623   4.906   7.823  0.2958 -0.3741  0.0803
  219MOL0     C28795   2.537   4.810   7.872 -0.6092  0.9730 -0.0871
  219MOL0     C28796   2.391   4.797   7.840 -0.0957 -0.6436 -0.3337
  219MOL0     C28797   2.316   4.938   7.843 -0.4205  1.2908  0.1777
  219MOL0     C28798   2.300   5.011   7.708 -0.0473  0.4123 -0.0388
  219MOL0     C28799   2.228   5.140   7.707 -0.1408 -0.2314  0.6059
  219MOL0     O28800   2.089   5.111   7.737 -0.3900  0.6007 -0.8166
  219MOL0     C28801   1.997   5.206   7.722 -0.3770 -0.7542  0.5291
  219MOL0     C28802   1.862   5.174   7.739 -0.6511 -0.7303 -0.2738
  219MOL0     C28803   1.761   5.273   7.716 -0.5577  0.7944  0.4805
  219MOL0     C28804   1.803   5.396   7.677  1.4788 -0.4189  0.2859
  219MOL0     C28805   1.699   5.502   7.652  0.4663 -0.7287  0.1958
  219MOL0     O28806   1.716   5.626   7.677 -0.3058 -0.5890  0.0092
  219MOL0     C28807   1.612   5.718   7.661  0.5038  0.0427 -1.7559
  219MOL0     C28808   1.590   5.819   7.758  0.3769 -0.7880  0.1574
  219MOL0     C28809   1.487   5.914   7.738 -1.1183  0.2427 -0.1031
  219MOL0     C28810   1.413   5.923   7.621  0.6838  0.6477 -0.3536
  219MOL0     O28811   1.316   6.015   7.609 -0.5955  0.0736  0.2306
  219MOL0     C28812   1.217   6.013   7.504 -0.0202  0.7425 -0.9631
  219MOL0     C28813   1.126   6.132   7.516 -0.0700  0.6240 -0.5269
  219MOL0     C28814   1.041   6.112   7.631 -1.1079  0.5949 -1.4691
  219MOL0     C28815   0.935   6.224   7.655 -0.0320 -0.8425 -0.0224
  219MOL0     C28816   0.848   6.199   7.783  0.0163 -0.5813 -0.2613
  219MOL0     C28817   0.732   6.297   7.795 -0.4953 -0.8628 -0.7758
  219MOL0     C28818   0.649   6.297   7.926  0.5620  0.8094 -1.6562
  219MOL0     C28819   0.720   6.279   8.063 -0.7075 -0.2948  0.2588
  219MOL0    Cl28820   0.851   6.394   8.090 -0.7769 -0.2886 -0.3255
  219MOL0     C28821   1.441   5.830   7.526 -0.7552 -0.1174  0.3254
  219MOL0     C28822   1.537   5.734   7.544 -0.1066 -0.3372  0.2892
  219MOL0     O28823   1.589   5.456   7.611 -0.2442  0.4759  0.1824
  219MOL0     C28824   1.935   5.432   7.668  0.2173 -0.3498  0.4029
  219MOL0     C28825   2.033   5.340   7.677 -0.6503 -0.2119  0.1567
  219MOL0     N28826   2.614   4.729   7.948 -0.2230 -0.6177  0.0260
  219MOL0     N28827   2.725   4.794   7.971  0.5737 -0.5703 -0.5295
  219MOL0     C28828   3.700   5.487   7.879 -0.3703  0.7573  0.8374
  219MOL0     C28829   3.825   5.531   7.848  0.0876 -0.2181  0.6041
  219MOL0     C28830   4.218   5.568   7.636 -0.0660  0.3120  1.0272
  219MOL0     C28831   4.318   5.493   7.565  0.6069 -0.8726  0.6318
  219MOL0     C28832   4.453   5.553   7.583  0.0431  0.2111  1.2190
  219MOL0     C28833   4.483   5.657   7.665 -0.0943 -0.2231  0.3642
  219MOL0     O28834   4.620   5.691   7.683  0.2807 -0.2620 -0.2435
  219MOL0     C28835   4.657   5.827   7.707  0.0467  0.4549 -0.0344
  219MOL0     C28836   4.806   5.840   7.682  0.1587 -0.5350  0.1822
  219MOL0     C28837   4.828   5.887   7.534  0.7539  0.3177 -0.0080
  219MOL0     C28838   4.978   5.858   7.505 -0.9749  0.1304  0.1645
  219MOL0     C28839   5.061   5.946   7.587 -0.5560 -1.2347 -0.3817
  219MOL0     C28840   5.134   6.010   7.659  0.3318  0.3105  0.8265
  219MOL0     C28841   4.387   5.725   7.729  0.7312 -0.6095  0.0220
  219MOL0     C28842   4.253   5.680   7.706 -0.1311 -0.8596  0.1148
  219MOL0     H28843   3.796   5.538   7.515  0.3675  0.0357  0.3731
  219MOL0     H28844   3.565   5.451   7.574 -0.5437  3.5026  0.0201
  219MOL0     H28845   3.429   5.543   7.956 -2.1260 -1.2977  1.7713
  219MOL0     H28846   3.482   5.380   8.008  5.4990  1.4566 -2.2946
  219MOL0     H28847   3.210   5.466   7.883 -0.3843 -0.9223  0.2497
  219MOL0     H28848   3.240   5.448   8.050  0.8140  1.6665 -0.6292
  219MOL0     H28849   3.305   5.204   8.024  2.1035  2.2007 -0.5325
  219MOL0     H28850   3.256   5.205   7.851 -1.1168  0.1110 -0.6061
  219MOL0     H28851   3.091   5.121   8.028  0.9079 -0.5217 -0.9025
  219MOL0     H28852   3.062   5.290   8.062 -2.0120 -0.2392 -1.0976
  219MOL0     H28853   3.022   5.168   7.788  1.3090  1.0356 -0.0926
  219MOL0     H28854   3.036   5.337   7.811  4.0425 -1.8351 -1.3484
  219MOL0     H28855   2.794   5.290   7.826 -0.3883 -2.1085  0.5095
  219MOL0     H28856   2.867   5.333   7.981 -0.7017  0.8657 -0.8213
  219MOL0     H28857   2.840   5.109   8.069 -0.4771  1.1723  0.0917
  219MOL0     H28858   2.701   5.122   7.970  0.4550  0.2880 -2.9225
  219MOL0     H28859   2.939   4.961   7.937  0.1214  1.7665  1.6875
  219MOL0     H28860   2.872   5.016   7.782 -0.4754  0.2059  0.1303
  219MOL0     H28861   2.594   4.975   7.745 -0.0069  2.4206  2.5057
  219MOL0     H28862   2.354   4.723   7.910  1.0672 -0.5439  0.4180
  219MOL0     H28863   2.387   4.767   7.735  3.1811  0.5671 -0.9472
  219MOL0     H28864   2.365   4.990   7.925  0.9004  0.5866 -0.1363
  219MOL0     H28865   2.214   4.923   7.881 -0.1900  0.6884  0.5946
  219MOL0     H28866   2.399   5.035   7.668 -0.5497 -0.8433 -2.2521
  219MOL0     H28867   2.251   4.938   7.643 -3.6162  1.2501  1.4444
  219MOL0     H28868   2.236   5.172   7.603 -0.5557 -2.5949 -0.2000
  219MOL0     H28869   2.279   5.195   7.787  2.0794 -0.3877 -0.6437
  219MOL0     H28870   1.835   5.076   7.775 -3.8571 -0.3558 -1.3523
  219MOL0     H28871   1.656   5.243   7.716 -0.2991 -0.1851 -0.1860
  219MOL0     H28872   1.643   5.825   7.853  1.5146 -4.0324 -0.1240
  219MOL0     H28873   1.467   5.988   7.814 -1.1526  0.7565 -0.6057
  219MOL0     H28874   1.165   5.917   7.502 -3.0621  2.2536 -0.1481
  219MOL0     H28875   1.272   6.029   7.410 -0.0623 -0.4202 -1.1994
  219MOL0     H28876   1.059   6.133   7.429 -1.9970  1.5209  0.8904
  219MOL0     H28877   1.187   6.223   7.518  5.3429 -2.5709 -1.1276
  219MOL0     H28878   1.098   6.101   7.724 -1.7874  1.9727 -0.8574
  219MOL0     H28879   0.991   6.015   7.626  0.2122 -0.2542  0.3973
  219MOL0     H28880   0.976   6.325   7.648  0.7607 -0.8791  2.8554
  219MOL0     H28881   0.871   6.219   7.566 -1.1790 -1.9921  0.8319
  219MOL0     H28882   0.916   6.212   7.868 -2.7693  2.0141  1.7848
  219MOL0     H28883   0.816   6.095   7.777  0.3870 -0.9134  2.2301
  219MOL0     H28884   0.658   6.285   7.716 -0.7657  2.0020 -1.0798
  219MOL0     H28885   0.776   6.398   7.800 -0.3580 -0.9887  2.5024
  219MOL0     H28886   0.582   6.383   7.919  0.2846  0.8265  0.4722
  219MOL0     H28887   0.577   6.215   7.933  0.4386  1.0350  3.6856
  219MOL0     H28888   0.761   6.178   8.060 -2.0389 -1.0106  3.1253
  219MOL0     H28889   0.647   6.298   8.142  1.0045  0.4174  1.7358
  219MOL0     H28890   1.401   5.827   7.425 -1.0895 -0.8237  0.4709
  219MOL0     H28891   1.542   5.655   7.470  3.1239 -1.2059  1.2735
  219MOL0     H28892   1.956   5.537   7.650  0.6404 -0.5265 -0.1414
  219MOL0     H28893   2.135   5.372   7.660 -0.7459 -0.1462 -0.2873
  219MOL0     H28894   3.678   5.468   7.983  1.8254  1.4081  1.4664
  219MOL0     H28895   3.877   5.555   7.941 -1.1167  1.8618  0.8047
  219MOL0     H28896   4.292   5.409   7.502  1.3823 -1.3894  0.9876
  219MOL0     H28897   4.531   5.496   7.533 -1.4431 -0.1189 -0.8797
  219MOL0     H28898   4.650   5.852   7.814  3.6318 -0.1627  0.4898
  219MOL0     H28899   4.599   5.891   7.640 -1.7981  2.0510  2.8780
  219MOL0     H28900   4.841   5.912   7.757  0.4703  0.7659 -1.1616
  219MOL0     H28901   4.856   5.746   7.707  0.2850 -0.6299 -0.4193
  219MOL0     H28902   4.796   5.990   7.519 -2.2873 -0.4276  0.6306
  219MOL0     H28903   4.765   5.828   7.467  0.2358 -0.3775  1.0450
  219MOL0     H28904   4.998   5.752   7.526 -0.3779  0.0281 -0.8258
  219MOL0     H28905   5.012   5.882   7.404 -1.0086  2.5063  0.6699
  219MOL0     H28906   5.180   6.085   7.720  0.7547  0.3718  0.4430
  219MOL0     H28907   4.406   5.807   7.798  0.6687 -1.0837  0.6166
  219MOL0     H28908   4.174   5.733   7.758  0.7465  0.4162  0.2239
  220MOL0     O28909   7.798   9.987   2.463 -0.0882  0.2880 -0.0067
  220MOL0     C28910   7.832   9.974   2.344 -0.0441 -0.7215 -0.8633
  220MOL0     O28911   7.954   9.955   2.298 -0.1287  0.5244  0.3175
  220MOL0     C28912   8.058   9.907   2.373  0.0719  0.0851 -0.5047
  220MOL0     C28913   8.182   9.918   2.310 -0.6554  0.3363 -0.0542
  220MOL0     C28914   8.300   9.865   2.371 -0.7972  0.4128 -0.4477
  220MOL0     C28915   8.298   9.813   2.506  0.0760 -0.9219  0.5402
  220MOL0     O28916   8.417   9.769   2.567  0.4682 -0.5230 -0.6341
  220MOL0     C28917   8.415   9.754   2.714 -0.4083  0.0135 -0.0877
  220MOL0     C28918   8.552   9.692   2.776  0.3019 -0.6947  0.0525
  220MOL0     C28919   8.547   9.705   2.926 -0.4009 -0.2634 -0.0531
  220MOL0     C28920   8.688   9.682   2.994 -0.2808 -0.0277  0.7606
  220MOL0     C28921   8.695   9.784   3.115 -0.8149  0.7496  0.5396
  220MOL0     C28922   8.582   9.767   3.216 -0.1396 -0.3826  0.7592
  220MOL0     C28923   8.546   9.893   3.302 -0.0124  0.1863 -0.2220
  220MOL0     C28924   8.666   9.948   3.370  0.8611  0.5876  0.4193
  220MOL0     N28925   8.640  10.032   3.486  0.7570 -0.1286  0.0032
  220MOL0     C28926   8.547  10.131   3.495 -0.0232 -0.1201 -0.8105
  220MOL0     C28927   8.556  10.182   3.615 -0.1463  0.7654  0.0049
  220MOL0     C28928   8.490  10.309   3.659  0.4250 -0.3397  0.1550
  220MOL0     C28929   8.334  10.309   3.666  0.1197 -0.2588 -0.1532
  220MOL0     C28930   8.287  10.270   3.805  0.0916  0.8373 -0.2165
  220MOL0     C28931   8.137  10.246   3.817  0.7812 -0.8324  0.0443
  220MOL0     O28932   8.084  10.166   3.709 -0.2339  0.4528 -0.5978
  220MOL0     C28933   7.947  10.166   3.701  0.2637  0.4885 -0.7287
  220MOL0     C28934   7.862  10.230   3.802  0.1442  0.0262 -0.5019
  220MOL0     C28935   7.731  10.254   3.780  0.5644  0.2063 -0.3623
  220MOL0     C28936   7.675  10.226   3.656  0.2614  0.1735  0.4810
  220MOL0     C28937   7.523  10.254   3.642 -0.3853  0.4326 -0.6551
  220MOL0     O28938   7.444  10.157   3.578 -0.1543 -0.3525  0.2528
  220MOL0     C28939   7.311  10.175   3.583  0.0963 -0.8799 -0.7465
  220MOL0     C28940   7.241  10.178   3.461 -0.0278 -0.5739 -0.0825
  220MOL0     C28941   7.102  10.180   3.456 -0.4887  0.2617  0.6671
  220MOL0     C28942   7.025  10.188   3.571  0.2664  0.4701  0.2298
  220MOL0     O28943   6.884  10.173   3.576 -0.3165  0.0736 -0.2822
  220MOL0     C28944   6.810  10.138   3.465  0.8806  0.0030  0.2781
  220MOL0     C28945   6.675  10.087   3.518 -0.6888 -0.1349  0.2101
  220MOL0     C28946   6.579  10.044   3.413 -0.0047  0.0115  0.9993
  220MOL0     C28947   6.439  10.017   3.471  0.3354  0.7382  0.4750
  220MOL0     C28948   6.427   9.902   3.578  0.5586 -0.5613  0.4106
  220MOL0     C28949   6.281   9.873   3.606  0.1465 -0.1768 -0.0397
  220MOL0     C28950   6.276   9.764   3.720  0.1792 -0.2224  0.2462
  220MOL0     C28951   6.136   9.731   3.763  0.8392  0.3100 -1.1678
  220MOL0    Cl28952   6.039   9.856   3.835 -0.5805 -0.9673  0.4465
  220MOL0     C28953   7.089  10.185   3.692  0.3582 -0.0881  0.3185
  220MOL0     C28954   7.232  10.186   3.694  0.8175 -0.3865 -0.3103
  220MOL0     O28955   7.488  10.363   3.679  0.2375  0.2724  0.2191
  220MOL0     C28956   7.747  10.161   3.556 -1.1515  0.1479 -0.6534
  220MOL0     C28957   7.884  10.132   3.586 -0.0333 -0.5909  0.7751
  220MOL0     N28958   8.655  10.107   3.685  0.2573  0.0483 -1.1566
  220MOL0     N28959   8.698  10.020   3.601 -0.8669 -0.6883 -0.2569
  220MOL0     C28960   8.171   9.792   2.561  0.3650  0.4847  0.4134
  220MOL0     C28961   8.049   9.838   2.493  0.6640  0.0241 -1.0884
  220MOL0     C28962   7.723  10.006   2.250  0.1814  0.3652  0.0036
  220MOL0     C28963   7.591  10.003   2.297  0.1432  0.6186 -0.0043
  220MOL0     C28964   7.488  10.055   2.212 -0.0581  0.3927 -0.4531
  220MOL0     C28965   7.507  10.089   2.078  0.3828  0.2080  0.0429
  220MOL0     O28966   7.404  10.141   1.994  0.0569 -0.1750 -0.1533
  220MOL0     C28967   7.275  10.165   2.052 -0.2462 -0.3006 -0.8373
  220MOL0     C28968   7.191  10.246   1.950 -0.2076 -0.9178 -0.0159
  220MOL0     C28969   7.049  10.274   1.988 -0.0883 -0.2385 -0.3033
  220MOL0     C28970   6.966  10.328   1.881  0.6097  0.1736  0.6917
  220MOL0     C28971   7.013  10.464   1.839  0.5368 -0.2339 -0.0458
  220MOL0     C28972   7.061  10.573   1.803  0.0101  0.7104 -0.9207
  220MOL0     C28973   7.638  10.100   2.044  0.3141  0.5170  0.7265
  220MOL0     C28974   7.747  10.061   2.123  0.5566  0.2846  1.1385
  220MOL0     H28975   8.186   9.951   2.207  0.0333 -4.1732 -1.6845
  220MOL0     H28976   8.389   9.887   2.312  0.0174 -1.2954  0.0756
  220MOL0     H28977   8.331   9.692   2.747 -1.3338  1.1023 -0.3570
  220MOL0     H28978   8.400   9.855   2.753 -1.3994 -0.0040 -0.3883
  220MOL0     H28979   8.637   9.752   2.742 -0.0068 -0.8108 -0.9373
  220MOL0     H28980   8.557   9.589   2.740 -0.2280 -0.7783  0.2112
  220MOL0     H28981   8.475   9.632   2.964 -0.1794 -0.4462  0.0163
  220MOL0     H28982   8.507   9.804   2.951  0.9978  0.8545 -2.0282
  220MOL0     H28983   8.691   9.582   3.037  0.6006 -0.2951  0.0890
  220MOL0     H28984   8.774   9.707   2.932 -0.0943  0.7571  1.3167
  220MOL0     H28985   8.696   9.880   3.062  1.3024 -0.5790 -2.0395
  220MOL0     H28986   8.788   9.778   3.173 -0.0085  2.3051 -0.5095
  220MOL0     H28987   8.607   9.683   3.282 -0.6939 -0.6769  0.6016
  220MOL0     H28988   8.483   9.748   3.173 -0.0532 -2.0426  1.2328
  220MOL0     H28989   8.501   9.974   3.244 -0.0498  0.2718 -0.0723
  220MOL0     H28990   8.473   9.849   3.370 -1.2042 -0.5470 -1.8882
  220MOL0     H28991   8.720  10.007   3.295  2.0595 -1.3193 -0.3032
  220MOL0     H28992   8.721   9.862   3.410  0.4005 -0.1141 -0.4327
  220MOL0     H28993   8.480  10.169   3.418 -0.5281 -2.6517 -1.7528
  220MOL0     H28994   8.523  10.393   3.599 -1.1739  0.1881 -0.0427
  220MOL0     H28995   8.532  10.324   3.759  1.6037  1.8129 -0.6052
  220MOL0     H28996   8.299  10.235   3.593 -0.9858 -1.1645  1.2539
  220MOL0     H28997   8.289  10.404   3.635  1.1787  1.4249  2.9971
  220MOL0     H28998   8.337  10.176   3.830 -0.5926 -0.1518 -2.3025
  220MOL0     H28999   8.306  10.344   3.883  2.5394  0.1114 -0.0370
  220MOL0     H29000   8.081  10.340   3.827  1.6861 -0.1000 -1.4070
  220MOL0     H29001   8.126  10.189   3.910 -0.6754 -0.2516  0.2597
  220MOL0     H29002   7.899  10.261   3.899  1.4574  0.4028 -1.1018
  220MOL0     H29003   7.673  10.285   3.866 -0.6600 -0.8752 -0.7626
  220MOL0     H29004   7.285  10.177   3.361 -0.6453  0.7995 -0.3909
  220MOL0     H29005   7.053  10.180   3.359  2.0137  1.5131 -0.6800
  220MOL0     H29006   6.840  10.050   3.407 -0.7119  1.1571 -2.4781
  220MOL0     H29007   6.796  10.223   3.398 -1.8229 -0.7563 -0.2547
  220MOL0     H29008   6.628  10.172   3.569 -0.4653  0.1414 -0.0452
  220MOL0     H29009   6.684  10.004   3.588  1.6376  0.7416  1.0173
  220MOL0     H29010   6.604   9.956   3.354  0.8305  1.7696 -1.4262
  220MOL0     H29011   6.574  10.123   3.337  0.8762  0.1238  1.0460
  220MOL0     H29012   6.389  10.108   3.506 -1.9052 -0.1322 -0.2996
  220MOL0     H29013   6.374   9.985   3.390  1.7243  0.8149 -0.7187
  220MOL0     H29014   6.466   9.945   3.671  0.2834 -1.9369  1.1957
  220MOL0     H29015   6.486   9.816   3.545  0.8807  0.9155 -3.2832
  220MOL0     H29016   6.225   9.840   3.518 -0.0512  0.4623 -0.1651
  220MOL0     H29017   6.243   9.969   3.643  1.2586  0.4191 -0.3824
  220MOL0     H29018   6.330   9.677   3.681  1.2617 -0.1554  1.5357
  220MOL0     H29019   6.329   9.792   3.811  0.4756  0.8066 -0.2271
  220MOL0     H29020   6.153   9.660   3.845  3.4011  0.9066 -1.1082
  220MOL0     H29021   6.085   9.674   3.685 -0.5274 -2.5503  1.5530
  220MOL0     H29022   7.031  10.189   3.784 -0.4081  1.9668 -0.2022
  220MOL0     H29023   7.286  10.180   3.788  3.8318  0.5854 -1.8582
  220MOL0     H29024   7.709  10.109   3.469  0.2509 -1.5511 -0.3022
  220MOL0     H29025   7.948  10.078   3.517 -2.7587 -1.9897 -0.8023
  220MOL0     H29026   8.163   9.736   2.654  1.9395  0.9587  0.8698
  220MOL0     H29027   7.948   9.828   2.532  1.5964  1.9104  2.1676
  220MOL0     H29028   7.573   9.958   2.394 -0.1568 -0.1090 -0.3884
  220MOL0     H29029   7.390  10.069   2.256 -0.2275  1.5924 -1.1378
  220MOL0     H29030   7.293  10.227   2.140 -0.5026 -0.2652 -0.8096
  220MOL0     H29031   7.219  10.077   2.086  0.1345 -0.1741  0.1461
  220MOL0     H29032   7.246  10.340   1.937 -2.1844  0.2871  0.0280
  220MOL0     H29033   7.184  10.198   1.852  2.1362 -2.4223  0.4638
  220MOL0     H29034   7.039  10.341   2.074 -2.9773 -1.0054  0.0453
  220MOL0     H29035   6.994  10.188   2.026  0.1034  0.4777  1.7137
  220MOL0     H29036   6.962  10.256   1.799  1.4786 -1.9210  2.3655
  220MOL0     H29037   6.866  10.339   1.925 -0.1091 -1.9504 -0.2534
  220MOL0     H29038   7.094  10.665   1.761 -2.4624  2.2319  0.2295
  220MOL0     H29039   7.670  10.147   1.952 -2.6901 -1.6796 -1.6744
  220MOL0     H29040   7.850  10.073   2.089  0.5585  1.9645  1.6285
  221MOL0     O29041   3.421   9.695   5.129  0.1415  0.5839 -0.3021
  221MOL0     C29042   3.496   9.598   5.147  0.6023 -0.6849 -0.9337
  221MOL0     O29043   3.471   9.481   5.215 -0.8102 -0.8365 -0.2765
  221MOL0     C29044   3.345   9.456   5.264  0.1308 -0.3544  0.4062
  221MOL0     C29045   3.276   9.547   5.349  0.1723 -0.1486  0.3100
  221MOL0     C29046   3.158   9.509   5.410  0.2791  0.8276  0.3840
  221MOL0     C29047   3.095   9.391   5.361  0.2687 -0.3531 -0.3848
  221MOL0     O29048   2.972   9.370   5.415  0.7662  0.5839  0.0690
  221MOL0     C29049   2.897   9.251   5.377  0.5983 -0.6364  0.5355
  221MOL0     C29050   2.932   9.116   5.449 -0.1652 -0.4555 -0.1721
  221MOL0     C29051   2.812   9.014   5.448  0.3234  0.2081  0.5844
  221MOL0     C29052   2.833   8.902   5.535  0.5071 -0.0982 -0.3034
  221MOL0     C29053   2.714   8.801   5.516  0.2152  0.2792  0.6678
  221MOL0     C29054   2.711   8.697   5.623 -0.3931 -0.7246  0.1140
  221MOL0     C29055   2.601   8.598   5.616  0.0951  0.6601 -0.0339
  221MOL0     C29056   2.470   8.649   5.664  0.7100  0.0094 -0.5691
  221MOL0     N29057   2.395   8.550   5.746  0.0164  0.6318 -0.4329
  221MOL0     C29058   2.287   8.575   5.839  0.6452  0.6478  0.1957
  221MOL0     C29059   2.266   8.463   5.904 -0.3717  0.2542 -0.0147
  221MOL0     C29060   2.183   8.449   6.023 -0.0422  0.1836 -0.5967
  221MOL0     C29061   2.124   8.306   6.035  0.7890 -0.4640  0.2425
  221MOL0     C29062   2.017   8.290   5.928 -0.6723  0.7915 -0.3400
  221MOL0     C29063   1.945   8.153   5.932  0.0889 -0.1161  0.0265
  221MOL0     O29064   1.839   8.154   5.827  0.7464 -0.1452  0.4099
  221MOL0     C29065   1.718   8.118   5.877  0.1916  0.3393 -0.8243
  221MOL0     C29066   1.678   7.974   5.876 -0.2955  0.1839 -0.3727
  221MOL0     C29067   1.556   7.927   5.922  0.2544  0.0513  0.2995
  221MOL0     C29068   1.469   8.021   5.980 -0.2457 -1.1413  0.1437
  221MOL0     C29069   1.340   7.981   6.054 -0.5019  0.4758  0.4450
  221MOL0     O29070   1.254   8.080   6.077  0.6898 -0.1331  0.1921
  221MOL0     C29071   1.120   8.048   6.083 -0.1690  0.1238 -0.0581
  221MOL0     C29072   1.057   7.928   6.058 -1.6736  0.0421  0.9843
  221MOL0     C29073   0.918   7.915   6.065  0.0479  0.4175  0.7899
  221MOL0     C29074   0.837   8.025   6.091  0.6749  0.4781 -0.2479
  221MOL0     O29075   0.701   8.017   6.079  0.4162 -0.2205 -0.2002
  221MOL0     C29076   0.641   7.899   6.122  0.2133 -0.0316 -0.6597
  221MOL0     C29077   0.488   7.917   6.117 -0.3004  1.0766  0.0153
  221MOL0     C29078   0.428   7.856   5.987  0.1570 -0.1807 -0.6023
  221MOL0     C29079   0.290   7.918   5.969 -0.5732 -0.1170 -0.1452
  221MOL0     C29080   0.195   7.830   5.892  0.7925  0.7318 -0.1214
  221MOL0     C29081   0.061   7.890   5.858  0.0823 -0.1099 -0.0165
  221MOL0     C29082  -0.022   7.937   5.972 -0.4739  0.3577  0.5063
  221MOL0     C29083  -0.170   7.914   5.936 -0.2340  0.4951 -0.0410
  221MOL0    Cl29084  -0.211   7.968   5.776  0.3955  0.0146  0.1981
  221MOL0     C29085   0.897   8.147   6.122 -0.3194  0.0284 -0.6776
  221MOL0     C29086   1.036   8.159   6.113  0.0111  0.1197 -0.0071
  221MOL0     O29087   1.320   7.859   6.086 -0.1765  0.4791 -0.5796
  221MOL0     C29088   1.511   8.161   5.978  0.0544  0.2415 -0.7194
  221MOL0     C29089   1.630   8.210   5.933 -1.4408 -0.1519  0.0407
  221MOL0     N29090   2.352   8.372   5.850  0.0707  0.6528 -0.0319
  221MOL0     N29091   2.429   8.420   5.764 -0.4690  0.2411  0.1008
  221MOL0     C29092   3.158   9.305   5.280 -0.1509  0.2021  0.0450
  221MOL0     C29093   3.290   9.333   5.239 -0.3994 -0.6805 -0.2122
  221MOL0     C29094   3.637   9.610   5.104  0.5466 -0.2259 -0.0130
  221MOL0     C29095   3.730   9.517   5.146  0.2010  0.4532 -0.1160
  221MOL0     C29096   3.855   9.524   5.098 -0.3632 -0.7318  0.3906
  221MOL0     C29097   3.901   9.627   5.009 -0.3148  0.2021 -1.1672
  221MOL0     O29098   4.023   9.635   4.947 -0.6040  0.5260  0.2836
  221MOL0     C29099   4.123   9.539   4.977  0.2527  0.5344  0.0380
  221MOL0     C29100   4.197   9.559   5.107 -0.2937 -0.2921  0.7519
  221MOL0     C29101   4.317   9.449   5.109  0.5319 -0.2980  0.0567
  221MOL0     C29102   4.426   9.473   5.210  0.0985  0.0779 -0.1993
  221MOL0     C29103   4.359   9.488   5.338  0.0871  0.4945 -0.3941
  221MOL0     C29104   4.311   9.494   5.450  0.1913 -0.1820 -0.0072
  221MOL0     C29105   3.812   9.729   4.980 -0.4196  0.5257 -0.4344
  221MOL0     C29106   3.684   9.721   5.030 -0.2534 -0.6489 -0.1001
  221MOL0     H29107   3.315   9.644   5.379 -0.8288 -0.1909  1.8668
  221MOL0     H29108   3.092   9.567   5.474 -1.0300 -1.6719  1.4736
  221MOL0     H29109   2.896   9.238   5.268  2.4021  1.8452  0.1355
  221MOL0     H29110   2.795   9.272   5.411  1.5442 -1.2912  4.2007
  221MOL0     H29111   2.946   9.139   5.555 -3.4841  2.1340 -0.1054
  221MOL0     H29112   3.022   9.063   5.417 -0.3337 -0.5785 -0.4465
  221MOL0     H29113   2.800   8.986   5.343 -0.4868  1.7591  0.2392
  221MOL0     H29114   2.724   9.068   5.484  0.1702  0.9218 -0.7979
  221MOL0     H29115   2.926   8.848   5.514  0.7254  0.9930 -2.3831
  221MOL0     H29116   2.843   8.942   5.636  2.6050 -1.0964 -0.0569
  221MOL0     H29117   2.746   8.749   5.425  0.7531 -0.5992  1.3386
  221MOL0     H29118   2.615   8.847   5.517 -0.8333 -1.8714  0.1401
  221MOL0     H29119   2.696   8.749   5.719 -0.0298  0.3716 -0.3994
  221MOL0     H29120   2.807   8.647   5.638  0.5301  1.5118  2.5235
  221MOL0     H29121   2.594   8.556   5.515 -0.1096  0.1087  0.2061
  221MOL0     H29122   2.634   8.518   5.683 -1.3363  1.1022  1.2588
  221MOL0     H29123   2.400   8.674   5.584 -1.2614 -2.9488  0.0848
  221MOL0     H29124   2.483   8.731   5.734  0.1004 -0.2453 -0.1481
  221MOL0     H29125   2.235   8.668   5.862 -3.6572 -1.6360  0.5779
  221MOL0     H29126   2.103   8.523   6.011 -0.1210 -0.0394 -1.4439
  221MOL0     H29127   2.236   8.485   6.112 -1.2829  2.3515 -0.6510
  221MOL0     H29128   2.092   8.293   6.139 -0.3439 -3.1534 -0.3546
  221MOL0     H29129   2.202   8.230   6.026  0.9748 -0.2699  0.2164
  221MOL0     H29130   1.948   8.373   5.945  0.9169  2.0106  0.4099
  221MOL0     H29131   2.069   8.303   5.832 -0.0061  0.3948 -0.0396
  221MOL0     H29132   1.904   8.124   6.029  0.8862 -0.3653  0.2901
  221MOL0     H29133   2.017   8.073   5.912  1.8859  0.0051  4.7347
  221MOL0     H29134   1.755   7.906   5.843 -2.2167 -1.6363 -1.3292
  221MOL0     H29135   1.531   7.823   5.940  0.2717 -0.0562 -0.2634
  221MOL0     H29136   1.105   7.835   6.030  1.2348  1.8633 -0.5696
  221MOL0     H29137   0.884   7.813   6.050  0.1261  0.2172  1.8844
  221MOL0     H29138   0.674   7.871   6.223  0.9728 -0.7219 -1.0924
  221MOL0     H29139   0.668   7.813   6.061 -0.0469 -1.2542  0.8880
  221MOL0     H29140   0.461   8.022   6.129  0.7975  1.3190  0.4524
  221MOL0     H29141   0.443   7.850   6.191  1.2011 -2.0534 -1.7214
  221MOL0     H29142   0.428   7.747   5.992 -0.0651 -0.1420  0.5249
  221MOL0     H29143   0.489   7.883   5.900  0.9487 -1.8944 -0.6296
  221MOL0     H29144   0.249   7.941   6.068  0.9733  0.3184  0.4285
  221MOL0     H29145   0.313   8.009   5.913 -1.1570 -1.2182 -2.2616
  221MOL0     H29146   0.175   7.737   5.945  1.8260  2.6858  4.1738
  221MOL0     H29147   0.257   7.801   5.807  2.7792 -1.3490  1.8819
  221MOL0     H29148  -0.005   7.819   5.807 -0.7310 -0.4088  1.4010
  221MOL0     H29149   0.075   7.973   5.788  1.7919 -1.3405 -1.2070
  221MOL0     H29150   0.011   7.888   6.064  0.3732 -0.3444 -0.1501
  221MOL0     H29151  -0.005   8.043   5.993 -0.8786  0.0140  2.8734
  221MOL0     H29152  -0.230   7.972   6.006  2.3242  0.0112  2.7510
  221MOL0     H29153  -0.199   7.809   5.948 -0.6494  0.6147  0.0195
  221MOL0     H29154   0.834   8.228   6.158  3.1242  3.1873 -1.1077
  221MOL0     H29155   1.063   8.259   6.144 -0.4552  0.1408  0.3426
  221MOL0     H29156   1.449   8.235   6.028  1.2566  0.1363  1.0137
  221MOL0     H29157   1.648   8.317   5.927 -0.3432 -0.2218  1.4633
  221MOL0     H29158   3.118   9.212   5.241 -2.6582  0.2027  2.3335
  221MOL0     H29159   3.352   9.273   5.173  1.0641  1.0678 -0.5113
  221MOL0     H29160   3.711   9.433   5.212 -2.6057 -1.1058 -2.6143
  221MOL0     H29161   3.919   9.440   5.125  3.7226  1.9386 -0.1654
  221MOL0     H29162   4.189   9.548   4.890  0.2377 -1.5030 -0.2194
  221MOL0     H29163   4.093   9.434   4.977  1.6785  0.0762  1.9865
  221MOL0     H29164   4.239   9.659   5.120  1.0162 -0.5384 -1.1218
  221MOL0     H29165   4.128   9.535   5.188  0.0265  2.3034  1.8774
  221MOL0     H29166   4.367   9.454   5.012  0.3467  0.4247 -0.0077
  221MOL0     H29167   4.281   9.346   5.115  3.2271 -1.2698  1.1143
  221MOL0     H29168   4.499   9.392   5.209  2.6568  2.1816 -3.4677
  221MOL0     H29169   4.480   9.564   5.182  1.2154 -0.1807  1.0285
  221MOL0     H29170   4.268   9.511   5.546  0.0173 -0.7088  0.0143
  221MOL0     H29171   3.844   9.817   4.926 -4.3224  1.3450 -1.7578
  221MOL0     H29172   3.623   9.807   5.004  0.9596 -0.2300 -1.6832
  222MOL0     O29173   9.496   3.802   4.328 -0.1629  0.3862  0.5161
  222MOL0     C29174   9.587   3.877   4.316 -0.4253  0.5637 -0.3208
  222MOL0     O29175   9.581   4.011   4.315  0.1734 -0.2717  0.0674
  222MOL0     C29176   9.456   4.074   4.327  0.1032 -0.0528 -0.5538
  222MOL0     C29177   9.346   4.029   4.255 -0.4660  0.9154 -0.5295
  222MOL0     C29178   9.228   4.100   4.262  0.4694 -0.3018 -0.4045
  222MOL0     C29179   9.208   4.212   4.342 -1.0797 -0.5530  0.5692
  222MOL0     O29180   9.089   4.274   4.362 -0.3966  0.9124  0.3995
  222MOL0     C29181   8.962   4.207   4.323 -0.1734 -0.0740  0.0122
  222MOL0     C29182   8.843   4.285   4.390 -0.3465 -0.2958  0.6940
  222MOL0     C29183   8.715   4.225   4.341  0.9566  0.6165  0.3338
  222MOL0     C29184   8.583   4.293   4.390  0.8263  0.4687  0.3950
  222MOL0     C29185   8.469   4.192   4.390 -0.0384 -0.0953 -0.5083
  222MOL0     C29186   8.347   4.247   4.468  0.1526  0.4733 -0.7353
  222MOL0     C29187   8.222   4.174   4.428 -0.2066  0.1713  0.1670
  222MOL0     C29188   8.102   4.234   4.495 -0.1608  0.5575  0.8965
  222MOL0     N29189   7.981   4.163   4.443 -0.6035 -0.0908  0.6853
  222MOL0     C29190   7.981   4.037   4.382  0.4812  0.0175  0.7391
  222MOL0     C29191   7.858   3.999   4.354  0.0219 -0.8645 -0.1838
  222MOL0     C29192   7.823   3.874   4.275 -1.1292 -0.4773 -0.7418
  222MOL0     C29193   7.694   3.815   4.329  0.3003 -0.9191  0.0538
  222MOL0     C29194   7.674   3.676   4.270  0.9859  0.4394 -0.3730
  222MOL0     C29195   7.533   3.628   4.274 -0.7602 -0.4877  0.0009
  222MOL0     O29196   7.459   3.705   4.180 -0.8856 -0.1432 -0.1613
  222MOL0     C29197   7.331   3.662   4.158 -0.5442 -0.6419  0.3611
  222MOL0     C29198   7.255   3.588   4.252 -1.1439  0.3705 -0.1883
  222MOL0     C29199   7.122   3.560   4.247 -0.7342  0.0598  0.2677
  222MOL0     C29200   7.053   3.592   4.126  0.5829 -0.4079 -0.1217
  222MOL0     C29201   6.909   3.562   4.106  0.4290  0.1266  0.2666
  222MOL0     O29202   6.848   3.612   3.998 -0.6560  0.4786  0.6564
  222MOL0     C29203   6.723   3.574   3.970 -0.2200 -0.3115  0.5635
  222MOL0     C29204   6.709   3.467   3.882  0.0581 -0.3403 -1.0065
  222MOL0     C29205   6.588   3.427   3.839  0.8319 -0.3434 -0.0278
  222MOL0     C29206   6.473   3.497   3.887  0.1397  0.4542  0.8205
  222MOL0     O29207   6.347   3.455   3.857  0.5883  0.0085 -0.1837
  222MOL0     C29208   6.332   3.325   3.803 -0.4764 -0.0914 -0.0844
  222MOL0     C29209   6.178   3.292   3.789  0.1452  0.3772 -0.9377
  222MOL0     C29210   6.153   3.157   3.718  0.0088 -0.2326  0.6699
  222MOL0     C29211   6.008   3.122   3.749  1.1305 -0.0872  0.3370
  222MOL0     C29212   5.963   2.982   3.714 -0.1489 -0.0438 -0.2779
  222MOL0     C29213   5.810   2.960   3.738 -0.0824  0.7267 -0.0090
  222MOL0     C29214   5.779   2.804   3.742 -0.0243  0.3832  0.0811
  222MOL0     C29215   5.678   2.759   3.625  0.0972 -0.4146 -0.7045
  222MOL0    Cl29216   5.642   2.587   3.671  0.3661  0.2671 -0.0821
  222MOL0     C29217   6.485   3.607   3.967 -0.0073 -0.3028  0.6366
  222MOL0     C29218   6.612   3.639   4.017 -0.8379 -0.5177 -0.2229
  222MOL0     O29219   6.853   3.504   4.202  0.0834  0.2778  0.0592
  222MOL0     C29220   7.122   3.667   4.026 -0.4418  0.7704  0.0189
  222MOL0     C29221   7.259   3.701   4.042  1.1149 -0.3515  0.5541
  222MOL0     N29222   7.775   4.113   4.388  0.8429 -0.1873  0.5043
  222MOL0     N29223   7.853   4.202   4.435 -0.3029  0.8311 -0.6029
  222MOL0     C29224   9.322   4.267   4.403  0.2295  0.6763 -0.2053
  222MOL0     C29225   9.443   4.195   4.399 -0.4868  0.7126 -0.4013
  222MOL0     C29226   9.721   3.816   4.309 -0.3384  0.5338  0.9164
  222MOL0     C29227   9.748   3.697   4.229  0.8934 -0.2273 -0.3529
  222MOL0     C29228   9.871   3.645   4.201 -0.1069 -0.1150 -0.1900
  222MOL0     C29229   9.979   3.709   4.239 -0.7191 -0.6902 -0.2261
  222MOL0     O29230  10.099   3.660   4.200  0.6758 -0.0069  0.3422
  222MOL0     C29231  10.221   3.718   4.237 -0.6180  0.0174  0.5608
  222MOL0     C29232  10.246   3.713   4.389 -0.8611  0.1932 -0.0035
  222MOL0     C29233  10.291   3.576   4.436 -0.8101  0.7603 -0.4807
  222MOL0     C29234  10.424   3.525   4.378 -0.4245 -0.4358  0.3269
  222MOL0     C29235  10.533   3.627   4.394  0.1168  0.0765  0.4729
  222MOL0     C29236  10.628   3.703   4.400 -0.5961  0.3700 -0.1991
  222MOL0     C29237   9.963   3.835   4.299 -0.9588 -0.2726 -0.0772
  222MOL0     C29238   9.837   3.887   4.346  0.2273  0.5052 -0.9328
  222MOL0     H29239   9.346   3.952   4.179 -2.2334 -0.0437  0.3878
  222MOL0     H29240   9.146   4.058   4.205 -0.0713  2.7077 -2.0787
  222MOL0     H29241   8.949   4.105   4.360 -0.3593  0.2702  0.9301
  222MOL0     H29242   8.941   4.218   4.216  1.1625  2.3503 -0.0594
  222MOL0     H29243   8.849   4.387   4.351 -0.7259  0.4012  2.3740
  222MOL0     H29244   8.852   4.279   4.499  3.0339  1.2533  0.6209
  222MOL0     H29245   8.698   4.120   4.365 -2.2117  0.7079 -0.9758
  222MOL0     H29246   8.716   4.235   4.232 -0.8787  4.9761  0.5101
  222MOL0     H29247   8.595   4.334   4.491  1.0572  1.7794 -0.1427
  222MOL0     H29248   8.553   4.371   4.320 -1.8504 -1.1615 -0.4217
  222MOL0     H29249   8.498   4.097   4.437 -2.9642 -0.6562  0.3112
  222MOL0     H29250   8.439   4.169   4.287  1.7188  0.3140 -1.1628
  222MOL0     H29251   8.347   4.357   4.469 -0.0680  0.4783  0.1193
  222MOL0     H29252   8.367   4.215   4.571  1.4254  1.2627 -0.7150
  222MOL0     H29253   8.199   4.188   4.322 -2.4782  0.8101  0.6916
  222MOL0     H29254   8.244   4.067   4.439  1.7323  0.5263  0.2446
  222MOL0     H29255   8.082   4.341   4.487  1.1484  0.9786  2.6701
  222MOL0     H29256   8.109   4.215   4.603 -1.6187  3.8952  1.7072
  222MOL0     H29257   8.071   3.980   4.364  2.4909  3.0326  0.6019
  222MOL0     H29258   7.903   3.800   4.283 -1.3799 -0.7212 -0.4965
  222MOL0     H29259   7.801   3.904   4.173 -2.5938  0.0576 -0.2945
  222MOL0     H29260   7.603   3.875   4.318  0.2051 -1.2847 -1.3220
  222MOL0     H29261   7.691   3.802   4.437 -2.7193  1.0124  0.3104
  222MOL0     H29262   7.703   3.671   4.165  2.6379  0.0730  0.0688
  222MOL0     H29263   7.737   3.610   4.330 -1.0482  1.7666  3.6340
  222MOL0     H29264   7.488   3.664   4.367  0.7016  3.4863 -0.6145
  222MOL0     H29265   7.531   3.520   4.262  3.5154 -0.8916  1.3529
  222MOL0     H29266   7.298   3.559   4.347 -0.1501  0.8725 -0.4702
  222MOL0     H29267   7.087   3.509   4.336  2.3407  2.1697  2.9055
  222MOL0     H29268   6.799   3.418   3.848 -0.2251 -1.0306 -0.7721
  222MOL0     H29269   6.581   3.340   3.775 -0.9695  1.3525 -2.3450
  222MOL0     H29270   6.381   3.242   3.854 -1.0318 -1.1777 -1.2393
  222MOL0     H29271   6.374   3.338   3.703 -1.2759  1.7740 -0.2216
  222MOL0     H29272   6.124   3.378   3.748  0.1496  1.0915  0.4971
  222MOL0     H29273   6.139   3.274   3.890 -0.7256  0.6434 -1.2159
  222MOL0     H29274   6.220   3.086   3.767 -2.1523 -1.1885  2.4047
  222MOL0     H29275   6.172   3.158   3.610  2.9129 -0.1357  1.0908
  222MOL0     H29276   5.992   3.133   3.857  1.0337  0.6400  0.2518
  222MOL0     H29277   5.951   3.190   3.686  0.4832  0.1574  1.1691
  222MOL0     H29278   6.026   2.922   3.780  0.1350  0.4128 -0.1346
  222MOL0     H29279   5.983   2.961   3.608 -0.3887 -2.3108  0.0764
  222MOL0     H29280   5.759   3.020   3.663 -0.3897  3.6439  2.3309
  222MOL0     H29281   5.791   3.002   3.838  4.3079  0.8406  1.0195
  222MOL0     H29282   5.860   2.732   3.726 -1.0220 -1.0474  1.2420
  222MOL0     H29283   5.731   2.788   3.839  0.9020 -1.7234  0.2371
  222MOL0     H29284   5.736   2.771   3.534 -2.7682  1.3183 -2.4513
  222MOL0     H29285   5.587   2.819   3.629 -0.3925 -1.1238 -1.0514
  222MOL0     H29286   6.402   3.675   3.984 -0.3748 -0.5219 -0.2025
  222MOL0     H29287   6.620   3.730   4.076 -1.5185  1.1018 -2.4854
  222MOL0     H29288   7.082   3.684   3.926 -1.1649 -0.4319  0.0901
  222MOL0     H29289   7.302   3.758   3.960  0.3811 -1.2514 -0.4823
  222MOL0     H29290   9.310   4.351   4.470 -0.0094  0.2938  0.2380
  222MOL0     H29291   9.537   4.225   4.443  0.9989 -1.6665 -1.7663
  222MOL0     H29292   9.668   3.643   4.180  2.0882 -0.0431 -2.6325
  222MOL0     H29293   9.878   3.555   4.142 -0.4253 -0.4485  0.2727
  222MOL0     H29294  10.219   3.820   4.197  4.1614  0.2609  0.3156
  222MOL0     H29295  10.309   3.673   4.191 -0.2269 -0.3518  1.6246
  222MOL0     H29296  10.327   3.779   4.421 -1.3802 -0.3460  2.6702
  222MOL0     H29297  10.161   3.746   4.449 -1.7499  2.1787 -2.1758
  222MOL0     H29298  10.209   3.511   4.404 -0.5092 -0.2346  0.7290
  222MOL0     H29299  10.305   3.568   4.544  3.2750  1.8021 -0.7945
  222MOL0     H29300  10.464   3.430   4.415 -1.0916 -1.4244 -1.3839
  222MOL0     H29301  10.401   3.507   4.273 -2.0216  0.0047  0.5819
  222MOL0     H29302  10.710   3.771   4.411  1.0465 -0.8321 -3.5097
  222MOL0     H29303  10.044   3.904   4.322 -0.9503 -0.3889  0.2600
  222MOL0     H29304   9.827   3.980   4.401  1.7051 -1.2435  2.5554
  223MOL0     O29305   5.733   7.004   9.337 -0.2305  0.3609  0.5186
  223MOL0     C29306   5.766   6.887   9.336 -0.4422 -0.3709  0.3518
  223MOL0     O29307   5.677   6.791   9.322 -0.5789 -0.2230 -0.4691
  223MOL0     C29308   5.546   6.805   9.278 -0.1042 -0.3744 -0.1311
  223MOL0     C29309   5.470   6.922   9.259  0.4552  0.7136  0.0230
  223MOL0     C29310   5.338   6.919   9.202  0.1516  0.1971 -0.7417
  223MOL0     C29311   5.283   6.794   9.175  0.2632  0.5284 -0.1705
  223MOL0     O29312   5.155   6.789   9.126  0.5686 -0.0908  0.0666
  223MOL0     C29313   5.075   6.671   9.125 -0.0975 -0.0186  0.4197
  223MOL0     C29314   4.944   6.710   9.056  0.3230  0.5279 -0.1307
  223MOL0     C29315   4.840   6.602   9.099 -0.0447  0.1590 -0.1333
  223MOL0     C29316   4.696   6.645   9.067  0.8974  0.0308 -0.1998
  223MOL0     C29317   4.599   6.537   9.123  0.9875 -0.6178 -0.2956
  223MOL0     C29318   4.454   6.593   9.151 -0.6779  0.6275  0.2158
  223MOL0     C29319   4.366   6.491   9.214 -0.2342  1.0652 -0.0363
  223MOL0     C29320   4.265   6.439   9.111  0.4290  0.1131  0.0420
  223MOL0     N29321   4.140   6.374   9.163 -0.1850  0.9565  0.3900
  223MOL0     C29322   4.104   6.246   9.132  0.5994  0.4939 -1.3930
  223MOL0     C29323   3.975   6.226   9.168 -1.2772 -0.9930  0.0474
  223MOL0     C29324   3.895   6.097   9.147  0.1973  0.0489 -0.1217
  223MOL0     C29325   3.746   6.124   9.115 -0.3848  0.5303  0.1286
  223MOL0     C29326   3.721   6.152   8.967  0.7364  0.3774  0.1099
  223MOL0     C29327   3.580   6.209   8.943 -0.6501 -0.1445 -0.8116
  223MOL0     O29328   3.472   6.136   9.001 -0.5353 -0.0038 -0.3604
  223MOL0     C29329   3.345   6.184   8.974 -0.4387  0.0121  0.3185
  223MOL0     C29330   3.323   6.302   8.898  0.2066  0.2840 -0.0428
  223MOL0     C29331   3.197   6.358   8.884  0.5005 -0.7356 -0.2334
  223MOL0     C29332   3.086   6.296   8.945  0.0484 -0.5285 -0.0632
  223MOL0     C29333   2.956   6.356   8.938  0.4715 -1.0001  0.3468
  223MOL0     O29334   2.859   6.296   9.012 -0.3063  0.6970 -0.1440
  223MOL0     C29335   2.748   6.370   9.048  0.8725  0.4860 -0.4386
  223MOL0     C29336   2.748   6.442   9.172 -0.2046 -0.1855 -0.2872
  223MOL0     C29337   2.631   6.513   9.203  0.6485  0.3216 -1.1756
  223MOL0     C29338   2.513   6.507   9.123 -0.5262  0.0563 -0.3860
  223MOL0     O29339   2.389   6.562   9.156  0.6230  0.0375  0.2078
  223MOL0     C29340   2.375   6.601   9.294  0.2416 -0.1267  0.7646
  223MOL0     C29341   2.262   6.715   9.308  0.8098  0.2693  0.4030
  223MOL0     C29342   2.117   6.660   9.303 -0.0861  0.8909 -0.9817
  223MOL0     C29343   2.013   6.771   9.312  0.2360  0.2085 -0.3837
  223MOL0     C29344   1.873   6.705   9.315  0.1499  0.7987 -0.3356
  223MOL0     C29345   1.773   6.815   9.279  0.1621  0.5417  0.8917
  223MOL0     C29346   1.633   6.774   9.307  0.5761  0.5721 -0.0357
  223MOL0     C29347   1.539   6.881   9.257  0.1980  0.0260  0.0003
  223MOL0    Cl29348   1.375   6.839   9.305  0.0822  0.5493 -0.0688
  223MOL0     C29349   2.523   6.436   9.003  0.4612 -1.1155 -0.2457
  223MOL0     C29350   2.636   6.371   8.965 -0.1356  0.5392  0.7406
  223MOL0     O29351   2.944   6.465   8.883  0.1024  0.3872 -0.0897
  223MOL0     C29352   3.110   6.184   9.035 -0.6853  0.1218  0.5540
  223MOL0     C29353   3.242   6.133   9.042  0.0713  0.4961 -0.0973
  223MOL0     N29354   3.940   6.351   9.220 -0.2442  0.0095  0.4953
  223MOL0     N29355   4.036   6.433   9.214 -0.5448  0.0044  0.7883
  223MOL0     C29356   5.354   6.679   9.202 -0.4667 -0.0347 -0.7564
  223MOL0     C29357   5.480   6.684   9.248 -0.6925 -0.1328  0.3669
  223MOL0     C29358   5.904   6.853   9.369 -0.5107  0.8166 -0.0331
  223MOL0     C29359   5.987   6.947   9.419  0.2342 -0.3269  0.2314
  223MOL0     C29360   6.123   6.916   9.447 -0.0196  0.6210  0.0450
  223MOL0     C29361   6.172   6.786   9.428 -0.5662  0.4026 -0.2014
  223MOL0     O29362   6.291   6.736   9.453  0.8014 -0.5536 -0.0483
  223MOL0     C29363   6.403   6.823   9.437  0.4987  0.3828  0.0441
  223MOL0     C29364   6.444   6.840   9.287  0.3303 -0.0470  0.2208
  223MOL0     C29365   6.498   6.701   9.230 -0.1025  0.6790 -0.5339
  223MOL0     C29366   6.390   6.634   9.148 -0.3352  0.4085  0.5578
  223MOL0     C29367   6.372   6.686   9.012 -0.0753 -0.1338  0.4193
  223MOL0     C29368   6.342   6.715   8.897  0.5369  0.3237 -0.5911
  223MOL0     C29369   6.089   6.695   9.359  0.8368 -0.0511  0.3227
  223MOL0     C29370   5.952   6.720   9.344  0.0428  0.4093 -0.2955
  223MOL0     H29371   5.512   7.019   9.284 -0.7734  1.4922 -0.8484
  223MOL0     H29372   5.283   7.010   9.182 -1.1785 -0.0351  1.5556
  223MOL0     H29373   5.064   6.644   9.230  1.5751 -1.6736  0.2222
  223MOL0     H29374   5.119   6.586   9.071 -1.2785  1.3907 -3.0714
  223MOL0     H29375   4.973   6.709   8.951  2.1660  0.2546  0.3406
  223MOL0     H29376   4.911   6.806   9.096  0.0658  0.2302  0.3917
  223MOL0     H29377   4.844   6.581   9.207  1.1789 -1.1430 -0.4035
  223MOL0     H29378   4.865   6.505   9.055  0.6807  0.0588  0.4753
  223MOL0     H29379   4.684   6.741   9.117  0.2612 -0.0421 -0.2009
  223MOL0     H29380   4.682   6.660   8.959 -1.6033 -0.4687 -0.0125
  223MOL0     H29381   4.638   6.497   9.218 -3.1086  0.0555  1.9285
  223MOL0     H29382   4.578   6.456   9.053  0.5787 -1.6057  0.9274
  223MOL0     H29383   4.421   6.650   9.063  2.2285  3.3458  0.6645
  223MOL0     H29384   4.459   6.683   9.215 -1.0036  0.9313 -0.1776
  223MOL0     H29385   4.420   6.413   9.268 -2.0108  0.7434  1.3933
  223MOL0     H29386   4.311   6.540   9.296 -1.8565  1.0430 -1.0690
  223MOL0     H29387   4.317   6.357   9.059 -1.3557 -1.1541  0.1679
  223MOL0     H29388   4.242   6.521   9.042  1.2425 -0.7225 -1.2859
  223MOL0     H29389   4.180   6.177   9.099  0.3159 -0.7738  0.4435
  223MOL0     H29390   3.912   6.036   9.236  0.2153  0.4717  0.1649
  223MOL0     H29391   3.939   6.050   9.058  0.9703 -0.0506  0.3052
  223MOL0     H29392   3.705   6.205   9.176 -1.4742 -0.5259  0.8380
  223MOL0     H29393   3.692   6.033   9.142 -0.1506  1.0555  2.5531
  223MOL0     H29394   3.798   6.217   8.923  1.4171  0.5640  1.5140
  223MOL0     H29395   3.721   6.061   8.908 -0.1755  0.8952 -0.7063
  223MOL0     H29396   3.557   6.202   8.837 -0.2624  3.8522 -1.3239
  223MOL0     H29397   3.585   6.312   8.980  2.9874 -0.3329 -0.4028
  223MOL0     H29398   3.403   6.356   8.849 -0.4689 -0.2537 -1.8255
  223MOL0     H29399   3.172   6.443   8.821  1.9851  1.0168  1.3959
  223MOL0     H29400   2.842   6.454   9.224 -0.4893  1.9160 -0.1415
  223MOL0     H29401   2.644   6.578   9.289 -0.3497  1.3247 -1.7411
  223MOL0     H29402   2.467   6.640   9.338  0.7000 -0.2800 -0.0462
  223MOL0     H29403   2.346   6.519   9.360 -1.1731  0.4316  0.8896
  223MOL0     H29404   2.274   6.785   9.225  1.1852  0.4352  0.5907
  223MOL0     H29405   2.276   6.770   9.402 -0.1712  1.4338 -0.1124
  223MOL0     H29406   2.106   6.601   9.394  0.1412  1.7435 -0.3905
  223MOL0     H29407   2.108   6.605   9.209 -1.6105  0.2664 -0.5114
  223MOL0     H29408   2.030   6.837   9.397  1.7495 -0.9035  0.2166
  223MOL0     H29409   2.015   6.833   9.222  1.3498  0.8934  0.0987
  223MOL0     H29410   1.854   6.666   9.416  3.3023  4.3160  1.8949
  223MOL0     H29411   1.865   6.622   9.245 -0.2690 -0.1806  0.8498
  223MOL0     H29412   1.781   6.815   9.170 -1.7589  0.5574  0.7092
  223MOL0     H29413   1.800   6.913   9.319 -0.8489  0.7076  1.2030
  223MOL0     H29414   1.612   6.679   9.257 -1.3569  0.7780  0.3011
  223MOL0     H29415   1.626   6.753   9.414 -2.9827  1.2317 -0.0215
  223MOL0     H29416   1.560   6.889   9.150  0.2590 -0.8573 -0.0672
  223MOL0     H29417   1.558   6.981   9.296 -1.5025  1.4711 -2.5751
  223MOL0     H29418   2.431   6.419   8.948  0.5349 -2.4321  0.0072
  223MOL0     H29419   2.645   6.314   8.873  1.3579  0.5805  0.8384
  223MOL0     H29420   3.033   6.128   9.087 -0.3626  0.3163  1.2658
  223MOL0     H29421   3.269   6.050   9.107 -0.2191 -0.0671 -0.6920
  223MOL0     H29422   5.312   6.584   9.173 -0.8158  0.6224 -2.5113
  223MOL0     H29423   5.534   6.591   9.265  2.0925  0.7857 -2.4138
  223MOL0     H29424   5.946   7.048   9.426 -0.5552 -0.6263  0.0149
  223MOL0     H29425   6.184   6.995   9.489  0.0812 -0.1126  1.3561
  223MOL0     H29426   6.485   6.782   9.495 -0.7679  2.1403  3.3481
  223MOL0     H29427   6.375   6.920   9.479 -0.3213  0.0932  0.1994
  223MOL0     H29428   6.364   6.886   9.229 -1.4953  0.2403  2.8090
  223MOL0     H29429   6.526   6.912   9.283 -0.4761  0.8107 -2.1509
  223MOL0     H29430   6.534   6.641   9.314 -0.8799  2.3696  1.0803
  223MOL0     H29431   6.583   6.738   9.172 -0.2129  1.2478 -0.3441
  223MOL0     H29432   6.412   6.527   9.143  3.0503  0.9880  0.4386
  223MOL0     H29433   6.293   6.652   9.194 -0.8812  0.4879 -0.5766
  223MOL0     H29434   6.319   6.734   8.794  2.1411 -0.9912 -1.2383
  223MOL0     H29435   6.125   6.597   9.327 -1.8787 -0.6730 -1.1931
  223MOL0     H29436   5.892   6.639   9.303  1.1419 -0.3428 -0.4618
  224MOL0     O29437   2.069   5.872   1.149  0.0258 -0.0118 -0.0373
  224MOL0     C29438   2.133   5.867   1.250  0.2708  0.5372 -0.4345
  224MOL0     O29439   2.096   5.795   1.357 -0.3223  0.1099  0.0571
  224MOL0     C29440   1.973   5.724   1.359  0.2688 -1.2408  0.2465
  224MOL0     C29441   1.940   5.625   1.271  0.0642 -0.9870 -0.5370
  224MOL0     C29442   1.822   5.550   1.279 -0.3281  0.5239  0.9538
  224MOL0     C29443   1.731   5.579   1.377 -0.3218 -1.2608  0.6518
  224MOL0     O29444   1.609   5.518   1.387 -0.4454 -0.5187 -0.0947
  224MOL0     C29445   1.511   5.551   1.284  0.4030  0.0693  0.8340
  224MOL0     C29446   1.404   5.439   1.289  0.5507 -0.2492 -0.4412
  224MOL0     C29447   1.297   5.460   1.175 -0.9516 -0.5333  0.1929
  224MOL0     C29448   1.178   5.360   1.195 -0.6416 -0.7039 -0.5078
  224MOL0     C29449   1.049   5.382   1.124  0.2763  0.6948  0.0338
  224MOL0     C29450   0.960   5.255   1.117  0.2212  0.2297  0.2941
  224MOL0     C29451   0.813   5.288   1.074 -0.6777 -0.6430 -0.0808
  224MOL0     C29452   0.719   5.166   1.049  0.8572  0.5959  0.0524
  224MOL0     N29453   0.590   5.206   0.982  0.3677 -0.1548 -0.1248
  224MOL0     C29454   0.572   5.236   0.851  0.3477 -0.9351  0.7587
  224MOL0     C29455   0.439   5.225   0.830  0.4467 -0.2740 -0.1406
  224MOL0     C29456   0.374   5.263   0.698 -0.4754  0.0260  0.2059
  224MOL0     C29457   0.221   5.306   0.707 -0.2018  0.1176 -0.2673
  224MOL0     C29458   0.144   5.247   0.579 -0.2287 -0.1355 -0.2040
  224MOL0     C29459   0.007   5.296   0.569 -0.7039  0.7928  0.0110
  224MOL0     O29460  -0.062   5.216   0.470 -0.4569 -0.2105  0.1640
  224MOL0     C29461  -0.191   5.252   0.431  0.0353  0.3440 -0.0079
  224MOL0     C29462  -0.270   5.353   0.506 -0.2537 -0.4534  0.3936
  224MOL0     C29463  -0.392   5.392   0.457 -0.3204  0.7343 -0.2623
  224MOL0     C29464  -0.451   5.336   0.338 -0.6784 -0.9426 -0.0191
  224MOL0     C29465  -0.582   5.370   0.288 -0.0239  1.2812  0.6918
  224MOL0     O29466  -0.655   5.468   0.350 -0.9938 -0.7812  0.0851
  224MOL0     C29467  -0.792   5.470   0.337  0.4688  0.4654  0.4042
  224MOL0     C29468  -0.848   5.579   0.282  0.4515 -0.0565  0.0458
  224MOL0     C29469  -0.994   5.578   0.280 -0.6537 -0.0904 -0.2385
  224MOL0     C29470  -1.077   5.474   0.325  0.3369 -0.1944 -1.0330
  224MOL0     O29471  -1.212   5.491   0.300  0.3339 -0.2575 -0.2368
  224MOL0     C29472  -1.305   5.396   0.345  0.2768 -0.7376 -0.2215
  224MOL0     C29473  -1.439   5.467   0.367 -0.6600 -0.6233  0.8615
  224MOL0     C29474  -1.531   5.376   0.447 -0.8821 -0.1331 -0.0175
  224MOL0     C29475  -1.675   5.423   0.454 -0.2042 -0.2551 -1.0501
  224MOL0     C29476  -1.777   5.310   0.493 -0.6995  0.7334  0.4471
  224MOL0     C29477  -1.915   5.347   0.452 -0.6089 -0.4930  0.2306
  224MOL0     C29478  -1.983   5.473   0.509 -0.3690 -0.0811  0.6905
  224MOL0     C29479  -2.129   5.461   0.498 -0.3257 -0.4889  0.6074
  224MOL0    Cl29480  -2.197   5.623   0.545 -0.0034 -0.3149 -0.5528
  224MOL0     C29481  -1.019   5.355   0.374  0.2635 -0.2671 -0.0927
  224MOL0     C29482  -0.872   5.356   0.385 -1.1393 -0.2400  0.0041
  224MOL0     O29483  -0.622   5.313   0.186 -0.1932  0.4112 -0.2024
  224MOL0     C29484  -0.375   5.228   0.275  0.5240 -0.1042  0.0151
  224MOL0     C29485  -0.240   5.203   0.312  0.0613  0.8628 -0.5334
  224MOL0     N29486   0.381   5.178   0.947 -0.7253 -0.3199  0.4556
  224MOL0     N29487   0.478   5.157   1.038 -0.1907 -0.0223  0.3582
  224MOL0     C29488   1.767   5.691   1.466  0.9203  0.6544 -0.4978
  224MOL0     C29489   1.881   5.757   1.455  0.4738 -0.5518 -0.3108
  224MOL0     C29490   2.253   5.953   1.256  1.0482  0.0470 -0.3632
  224MOL0     C29491   2.278   6.045   1.154  0.5041  0.6512 -0.0978
  224MOL0     C29492   2.394   6.123   1.157 -0.2967  0.7888  0.4585
  224MOL0     C29493   2.481   6.129   1.264  0.7655 -0.2936 -0.5432
  224MOL0     O29494   2.593   6.203   1.278 -0.1676  0.8232  1.1187
  224MOL0     C29495   2.626   6.306   1.185  0.2886  0.0620  0.1417
  224MOL0     C29496   2.781   6.305   1.193  0.1358 -0.2239  0.0962
  224MOL0     C29497   2.852   6.412   1.118 -0.3599 -1.1875  0.1732
  224MOL0     C29498   3.001   6.393   1.100  0.0875 -0.5628 -0.2191
  224MOL0     C29499   3.033   6.305   0.990 -0.4956 -0.3978  0.0803
  224MOL0     C29500   3.065   6.260   0.889 -0.7676 -0.9977  0.2438
  224MOL0     C29501   2.448   6.045   1.373  0.1822 -0.4618 -0.3513
  224MOL0     C29502   2.349   5.953   1.365  0.2639 -0.0803  0.2247
  224MOL0     H29503   2.022   5.593   1.208  3.2663 -0.3831  3.0187
  224MOL0     H29504   1.806   5.460   1.220  1.2680  0.4839  0.5422
  224MOL0     H29505   1.563   5.556   1.188  1.8523  2.5648  1.6588
  224MOL0     H29506   1.477   5.653   1.301  2.3787  1.1285 -1.0470
  224MOL0     H29507   1.352   5.456   1.384  0.9261 -0.1625 -0.2496
  224MOL0     H29508   1.444   5.338   1.298  1.0607 -0.1016 -0.9970
  224MOL0     H29509   1.339   5.447   1.075 -0.7113  0.6091  0.1301
  224MOL0     H29510   1.259   5.563   1.173 -2.9639 -1.2313 -1.5710
  224MOL0     H29511   1.225   5.265   1.165  4.0932  2.2358 -3.9332
  224MOL0     H29512   1.155   5.363   1.302 -0.4973 -0.3960 -0.4850
  224MOL0     H29513   1.078   5.409   1.022 -1.9259  1.8456 -0.3515
  224MOL0     H29514   1.005   5.472   1.167  1.0514  2.6494 -2.9512
  224MOL0     H29515   0.975   5.184   1.199 -1.5624 -3.0709 -2.0019
  224MOL0     H29516   0.996   5.202   1.029 -0.2134  0.7567 -0.2132
  224MOL0     H29517   0.774   5.363   1.144  1.4270  1.2166 -0.7585
  224MOL0     H29518   0.826   5.337   0.977 -1.0185  1.7411  0.9899
  224MOL0     H29519   0.696   5.108   1.139 -0.5349  1.2241  0.1319
  224MOL0     H29520   0.765   5.096   0.978  0.5164 -1.7970  2.0279
  224MOL0     H29521   0.638   5.251   0.766  0.7522 -0.1663  1.2043
  224MOL0     H29522   0.366   5.172   0.637  0.1265 -0.8079  1.3381
  224MOL0     H29523   0.426   5.345   0.648 -0.9594  0.8812  1.0668
  224MOL0     H29524   0.218   5.415   0.710 -0.4749  0.1197 -0.6443
  224MOL0     H29525   0.175   5.262   0.795  2.0484  1.1062  1.5110
  224MOL0     H29526   0.194   5.274   0.486 -0.9554  2.4792  0.0755
  224MOL0     H29527   0.139   5.138   0.581  1.2924 -0.3218 -2.5492
  224MOL0     H29528   0.013   5.400   0.536 -0.3653  0.5774 -0.6355
  224MOL0     H29529  -0.042   5.293   0.666  0.5558 -2.5491  0.6938
  224MOL0     H29530  -0.220   5.400   0.589  0.1196 -3.1544  1.8146
  224MOL0     H29531  -0.447   5.471   0.508  1.1600  2.2955 -0.9709
  224MOL0     H29532  -0.797   5.669   0.248  1.3984 -0.7941 -0.5291
  224MOL0     H29533  -1.039   5.671   0.247  1.5940  0.6204 -1.5605
  224MOL0     H29534  -1.274   5.356   0.443 -3.1217  1.0550  1.7658
  224MOL0     H29535  -1.313   5.317   0.269 -0.9444 -0.2456 -0.6152
  224MOL0     H29536  -1.486   5.483   0.270 -0.1549 -0.6276  0.6082
  224MOL0     H29537  -1.428   5.570   0.402  1.2859 -0.5642  0.2208
  224MOL0     H29538  -1.494   5.365   0.549 -0.0876 -0.6357 -0.3373
  224MOL0     H29539  -1.531   5.274   0.407 -1.2807  0.0588 -0.5108
  224MOL0     H29540  -1.680   5.492   0.538  0.3569 -2.7923  1.2162
  224MOL0     H29541  -1.694   5.470   0.357 -1.7633  2.7481  0.5746
  224MOL0     H29542  -1.768   5.288   0.600 -0.1690 -2.7030 -0.1900
  224MOL0     H29543  -1.752   5.222   0.432 -1.1226  2.0475 -1.7267
  224MOL0     H29544  -1.985   5.264   0.463 -1.6488  0.3427  0.1585
  224MOL0     H29545  -1.899   5.354   0.344  0.5639 -0.3365  0.4103
  224MOL0     H29546  -1.953   5.494   0.612  0.9191 -0.0298  0.3200
  224MOL0     H29547  -1.949   5.562   0.456  0.3942 -1.2457 -0.8353
  224MOL0     H29548  -2.161   5.368   0.544  0.8067 -1.6933 -0.9149
  224MOL0     H29549  -2.158   5.455   0.392  2.0861  0.2939 -0.1701
  224MOL0     H29550  -1.078   5.274   0.414 -0.3071  1.0555  1.9345
  224MOL0     H29551  -0.811   5.280   0.431  2.8037  2.1749 -0.7813
  224MOL0     H29552  -0.413   5.185   0.183 -1.5041  2.3492 -0.4072
  224MOL0     H29553  -0.192   5.144   0.234 -0.8729  2.3852 -2.3600
  224MOL0     H29554   1.694   5.704   1.546  1.2375  0.8566 -0.2397
  224MOL0     H29555   1.925   5.838   1.512  2.0622 -2.2505  1.0076
  224MOL0     H29556   2.214   6.050   1.067  0.8463 -1.6053 -0.5545
  224MOL0     H29557   2.405   6.188   1.070 -0.4246 -0.5477 -0.5764
  224MOL0     H29558   2.600   6.404   1.224 -0.8538  0.3107 -1.1614
  224MOL0     H29559   2.593   6.296   1.081 -1.4765  1.4521  0.5284
  224MOL0     H29560   2.802   6.318   1.300 -1.5939  0.2539  0.4205
  224MOL0     H29561   2.820   6.214   1.147  0.0418  0.0036 -0.4344
  224MOL0     H29562   2.830   6.496   1.184 -3.7728 -0.6773 -1.3934
  224MOL0     H29563   2.795   6.439   1.029 -0.5427  0.3857  0.7361
  224MOL0     H29564   3.047   6.491   1.087  2.2501 -1.4581  0.3444
  224MOL0     H29565   3.049   6.358   1.192  0.4206  0.9509  0.2064
  224MOL0     H29566   3.101   6.219   0.797  0.1404 -2.9741  1.3958
  224MOL0     H29567   2.523   6.035   1.451  1.7926 -1.0072 -1.8948
  224MOL0     H29568   2.334   5.891   1.453  1.4176 -0.3375  0.2643
  225MOL0     O29569   3.475   8.939   2.610 -0.5274  0.6250  0.1505
  225MOL0     C29570   3.500   9.012   2.518  0.3101 -0.9637 -0.0186
  225MOL0     O29571   3.409   9.078   2.449  0.1003 -0.0675 -0.2290
  225MOL0     C29572   3.277   9.041   2.460 -0.3070  0.0050  0.0155
  225MOL0     C29573   3.184   9.119   2.533 -0.4732  0.0803 -0.6090
  225MOL0     C29574   3.056   9.063   2.558  0.8128  0.0932 -0.1591
  225MOL0     C29575   3.007   8.959   2.483 -0.7519  0.3501 -0.5673
  225MOL0     O29576   2.884   8.908   2.487 -0.6883  0.0887 -0.0712
  225MOL0     C29577   2.775   8.960   2.577  0.9067 -0.4100 -0.4349
  225MOL0     C29578   2.653   8.889   2.539 -0.2880 -0.3754 -0.8019
  225MOL0     C29579   2.534   8.941   2.622  0.7118  0.1208 -0.6652
  225MOL0     C29580   2.395   8.916   2.553 -0.7956 -0.0417 -0.1415
  225MOL0     C29581   2.280   8.913   2.652 -0.6418 -0.2055 -0.0459
  225MOL0     C29582   2.148   8.897   2.573 -0.5207 -0.0272 -0.3952
  225MOL0     C29583   2.024   8.891   2.656  0.4859  0.1469  0.2229
  225MOL0     C29584   1.994   8.999   2.759 -0.9351 -0.4395 -0.6099
  225MOL0     N29585   1.857   8.989   2.809 -0.0316  0.0272  0.8841
  225MOL0     C29586   1.777   9.098   2.836 -0.6003  0.2710  0.4493
  225MOL0     C29587   1.658   9.046   2.885  0.5190  0.3869  0.3695
  225MOL0     C29588   1.542   9.133   2.936 -0.5289  0.1975 -0.1234
  225MOL0     C29589   1.406   9.065   2.934  0.7558  0.2529 -0.2012
  225MOL0     C29590   1.360   9.036   2.788 -0.2927  0.4869  0.0576
  225MOL0     C29591   1.221   9.103   2.763 -0.7411 -0.3519 -0.0916
  225MOL0     O29592   1.175   9.059   2.638  0.1579 -0.1240  0.1834
  225MOL0     C29593   1.039   9.074   2.617  0.3440 -0.8244 -0.2764
  225MOL0     C29594   0.993   8.987   2.522 -0.5663  0.1691 -0.8125
  225MOL0     C29595   0.857   8.986   2.492  0.4626 -0.1122  0.2829
  225MOL0     C29596   0.768   9.090   2.528 -0.2911  0.8941 -0.8321
  225MOL0     C29597   0.626   9.088   2.498 -0.4467 -0.3194 -0.3939
  225MOL0     O29598   0.593   8.999   2.407 -0.1682 -1.3648 -0.1924
  225MOL0     C29599   0.460   8.995   2.370  0.3436 -0.2482 -0.2205
  225MOL0     C29600   0.399   9.095   2.289  0.8603  0.0229 -0.7594
  225MOL0     C29601   0.257   9.085   2.270  0.2437 -0.6293  0.4633
  225MOL0     C29602   0.177   8.977   2.326 -1.0198  0.8665 -0.2822
  225MOL0     O29603   0.042   8.965   2.315  0.1957  0.0337  0.4302
  225MOL0     C29604  -0.035   9.080   2.280 -0.3183 -0.1025  0.8961
  225MOL0     C29605  -0.184   9.047   2.275  0.1862 -0.2564  0.0560
  225MOL0     C29606  -0.267   9.180   2.262  0.1748  0.3286  0.4018
  225MOL0     C29607  -0.417   9.154   2.273 -0.9814  0.2494 -0.4026
  225MOL0     C29608  -0.503   9.269   2.226  0.4763  0.2960 -0.1565
  225MOL0     C29609  -0.645   9.222   2.211  0.2194  0.1432  0.0224
  225MOL0     C29610  -0.754   9.316   2.163 -1.1261  0.2509  0.4534
  225MOL0     C29611  -0.710   9.396   2.036  0.3274 -0.2331  0.7218
  225MOL0    Cl29612  -0.852   9.496   1.991 -0.1327  0.0316 -0.4610
  225MOL0     C29613   0.249   8.881   2.399  0.1668  0.5204 -0.0746
  225MOL0     C29614   0.383   8.896   2.431  0.9392  0.3495  0.4379
  225MOL0     O29615   0.555   9.172   2.553  0.5127  0.2168 -0.2632
  225MOL0     C29616   0.822   9.188   2.616  0.6291 -0.0952  0.3231
  225MOL0     C29617   0.953   9.181   2.660 -0.7503 -0.0331 -0.3879
  225MOL0     N29618   1.675   8.907   2.883  0.5153 -0.5049  0.5714
  225MOL0     N29619   1.796   8.870   2.841  0.3207 -0.5887  0.1890
  225MOL0     C29620   3.100   8.885   2.401  0.4494  0.1325 -0.1455
  225MOL0     C29621   3.235   8.933   2.392  0.7840  0.4671 -0.3295
  225MOL0     C29622   3.640   9.039   2.477  0.0259 -0.0310  0.1051
  225MOL0     C29623   3.743   8.982   2.550  0.3449  0.6314  0.6766
  225MOL0     C29624   3.872   8.987   2.500 -0.1794  0.9532  0.6968
  225MOL0     C29625   3.911   9.060   2.382 -0.2590 -0.4142  0.0478
  225MOL0     O29626   4.052   9.083   2.365  0.8434  0.1165 -0.0963
  225MOL0     C29627   4.101   9.113   2.233  0.6997  0.8932  0.0245
  225MOL0     C29628   4.246   9.156   2.234 -0.3728 -0.1968  0.3286
  225MOL0     C29629   4.294   9.196   2.095  0.6912  0.5289 -0.2456
  225MOL0     C29630   4.353   9.081   2.017  0.2951  0.6975  0.1192
  225MOL0     C29631   4.470   9.014   2.071 -0.2594  0.1205  0.5725
  225MOL0     C29632   4.553   8.948   2.135 -0.1038 -0.2869  0.5746
  225MOL0     C29633   3.807   9.127   2.316 -0.1699 -0.0085 -0.1979
  225MOL0     C29634   3.677   9.119   2.367 -1.2450  0.3053  0.3595
  225MOL0     H29635   3.218   9.216   2.570  0.7861  0.3873 -2.4437
  225MOL0     H29636   2.985   9.112   2.625  1.0922 -2.0361  1.8347
  225MOL0     H29637   2.762   9.066   2.553 -0.0669 -0.6994 -1.2801
  225MOL0     H29638   2.797   8.944   2.683  1.5028  1.6356 -0.2100
  225MOL0     H29639   2.662   8.782   2.561 -0.3323 -0.7984 -2.6894
  225MOL0     H29640   2.641   8.903   2.432 -0.4885  0.2434 -0.6996
  225MOL0     H29641   2.541   9.049   2.638 -0.5759  0.2276 -0.6841
  225MOL0     H29642   2.529   8.876   2.710 -0.3112 -2.5060 -2.5430
  225MOL0     H29643   2.387   9.004   2.488  0.4735 -0.4219 -0.8432
  225MOL0     H29644   2.398   8.831   2.484  1.1640 -0.3551  0.2897
  225MOL0     H29645   2.283   9.003   2.713 -0.2958 -0.7140  0.6999
  225MOL0     H29646   2.289   8.830   2.723  0.6154  0.2387  0.3273
  225MOL0     H29647   2.157   8.820   2.495 -0.9748  1.1024 -1.6047
  225MOL0     H29648   2.131   8.994   2.526  1.8383  1.1662  1.0347
  225MOL0     H29649   1.940   8.910   2.588  0.1773 -0.0332  0.5477
  225MOL0     H29650   2.015   8.788   2.692 -0.7208  0.5038  1.0035
  225MOL0     H29651   2.016   9.091   2.704  0.7053  0.1538  0.9511
  225MOL0     H29652   2.061   8.993   2.845 -1.2029  0.7007 -0.3074
  225MOL0     H29653   1.812   9.200   2.825 -0.0079  0.0422  0.1372
  225MOL0     H29654   1.539   9.225   2.876 -0.7066  1.6092  1.9314
  225MOL0     H29655   1.560   9.171   3.037 -0.3602  0.9068 -0.4083
  225MOL0     H29656   1.340   9.136   2.984  0.6711  1.6286 -2.1644
  225MOL0     H29657   1.400   8.968   2.985 -0.2831  0.5371  0.2434
  225MOL0     H29658   1.424   9.080   2.711 -2.7753  0.5871 -2.0682
  225MOL0     H29659   1.351   8.929   2.764  0.5954  0.2908  0.5523
  225MOL0     H29660   1.234   9.211   2.760  2.3441 -0.6350 -1.5115
  225MOL0     H29661   1.147   9.073   2.838 -1.0139  0.8983  0.1560
  225MOL0     H29662   1.065   8.916   2.483 -1.0204 -0.4743 -0.4974
  225MOL0     H29663   0.813   8.913   2.425  0.5667  0.1891 -0.1234
  225MOL0     H29664   0.447   9.176   2.236 -0.0507  1.1511  0.1040
  225MOL0     H29665   0.208   9.158   2.207  0.9963 -0.6284 -0.1342
  225MOL0     H29666  -0.008   9.122   2.183 -4.2845 -1.5789 -1.0693
  225MOL0     H29667  -0.013   9.148   2.363 -0.2991  1.6477 -0.4805
  225MOL0     H29668  -0.220   8.990   2.362 -0.3934 -0.1751 -0.1241
  225MOL0     H29669  -0.191   8.991   2.181 -0.1927 -0.8648  0.4371
  225MOL0     H29670  -0.247   9.230   2.166  0.9164  0.2070  0.4846
  225MOL0     H29671  -0.225   9.246   2.338  3.0063 -1.9464  1.0039
  225MOL0     H29672  -0.430   9.064   2.213  3.0322  1.2670 -3.1663
  225MOL0     H29673  -0.445   9.134   2.377 -1.7888  1.0199 -0.4647
  225MOL0     H29674  -0.471   9.306   2.128 -1.5603 -1.3307 -1.5398
  225MOL0     H29675  -0.488   9.342   2.306  2.6272 -1.8601  1.5631
  225MOL0     H29676  -0.674   9.196   2.313  1.4859  0.3020  0.4436
  225MOL0     H29677  -0.644   9.129   2.153 -1.0573 -1.5830  2.5889
  225MOL0     H29678  -0.849   9.264   2.147 -0.7930 -0.9300  2.1897
  225MOL0     H29679  -0.776   9.392   2.238  1.8001  2.1683 -0.4622
  225MOL0     H29680  -0.678   9.325   1.960 -3.5788 -0.2538 -1.0922
  225MOL0     H29681  -0.626   9.459   2.069 -1.5977  1.7698  2.1029
  225MOL0     H29682   0.205   8.787   2.431 -0.3723  1.2413  1.3655
  225MOL0     H29683   0.418   8.808   2.485 -1.2556 -0.4744  0.6391
  225MOL0     H29684   0.769   9.276   2.652  1.0166  0.3711 -0.2209
  225MOL0     H29685   0.994   9.263   2.718 -0.8913  0.4875 -1.0025
  225MOL0     H29686   3.086   8.792   2.347  2.7119  0.4509 -1.4099
  225MOL0     H29687   3.305   8.882   2.328  0.5946 -0.5841  0.2767
  225MOL0     H29688   3.714   8.912   2.627  0.6829 -0.2011  0.0626
  225MOL0     H29689   3.951   8.927   2.544  1.1478  1.9096 -0.2886
  225MOL0     H29690   4.042   9.194   2.188 -1.7185 -1.7228 -1.8889
  225MOL0     H29691   4.095   9.019   2.178  2.9983 -1.8645  3.9859
  225MOL0     H29692   4.257   9.233   2.311 -2.4218 -0.7534  1.2190
  225MOL0     H29693   4.302   9.065   2.258  0.7420  0.4683  0.3243
  225MOL0     H29694   4.365   9.276   2.116  0.4403  0.7309 -0.1727
  225MOL0     H29695   4.207   9.231   2.038 -0.3843 -2.6119 -0.7819
  225MOL0     H29696   4.285   8.998   1.999  0.4055  0.2564  1.5851
  225MOL0     H29697   4.377   9.114   1.915  1.4997  2.2096  0.8424
  225MOL0     H29698   4.612   8.882   2.195 -1.5570  0.6255  3.1633
  225MOL0     H29699   3.814   9.199   2.234 -2.2303  2.1164  1.3680
  225MOL0     H29700   3.603   9.187   2.326 -1.3330 -1.5500 -2.8266
  226MOL0     O29701   9.964   0.128   5.925 -0.2353  0.3425 -0.2363
  226MOL0     C29702  10.000   0.244   5.935 -0.6712  0.9733  1.2913
  226MOL0     O29703   9.923   0.352   5.898  0.3286  0.5728  0.8359
  226MOL0     C29704   9.804   0.320   5.845  0.1128  0.0611 -0.4787
  226MOL0     C29705   9.692   0.349   5.917  0.2782 -0.1828  0.6838
  226MOL0     C29706   9.565   0.339   5.861 -0.3977 -0.6729  0.5517
  226MOL0     C29707   9.554   0.296   5.727  1.2529  0.2334 -0.4062
  226MOL0     O29708   9.424   0.267   5.683  0.3581 -0.1425 -0.2887
  226MOL0     C29709   9.389   0.263   5.549  0.0121  0.2593  0.1024
  226MOL0     C29710   9.235   0.250   5.543 -0.0249 -0.5448  0.4127
  226MOL0     C29711   9.180   0.116   5.594  0.0023 -0.3878 -0.1020
  226MOL0     C29712   9.032   0.146   5.627  0.4367  0.1549 -0.7346
  226MOL0     C29713   8.952   0.021   5.647 -0.0075 -0.8733 -0.2620
  226MOL0     C29714   8.884  -0.025   5.515 -0.5559  0.1338  0.9458
  226MOL0     C29715   8.820  -0.167   5.533  0.2619 -0.6697  0.5250
  226MOL0     C29716   8.696  -0.170   5.622 -0.3203 -0.4625 -0.5692
  226MOL0     N29717   8.601  -0.280   5.601 -0.4435 -0.1195 -0.7004
  226MOL0     C29718   8.564  -0.375   5.700 -0.0037  0.0555  0.0371
  226MOL0     C29719   8.506  -0.482   5.625 -1.0415 -0.1735  0.1056
  226MOL0     C29720   8.438  -0.604   5.672 -0.0566 -0.9514  0.1897
  226MOL0     C29721   8.290  -0.569   5.682 -0.2826 -0.3450 -0.4678
  226MOL0     C29722   8.210  -0.543   5.555 -0.9968 -1.1651 -0.4644
  226MOL0     C29723   8.126  -0.659   5.499  0.2198 -0.0517 -0.8790
  226MOL0     O29724   8.011  -0.697   5.583 -0.0984  0.9591 -0.1624
  226MOL0     C29725   7.882  -0.648   5.548  0.2667  1.0989  0.3006
  226MOL0     C29726   7.856  -0.532   5.469  0.6857 -0.2509  0.4146
  226MOL0     C29727   7.720  -0.482   5.455  0.4184  0.1211  1.0306
  226MOL0     C29728   7.616  -0.553   5.517 -0.0399  0.0068 -0.2441
  226MOL0     C29729   7.471  -0.505   5.507  0.6315  0.3081  0.7929
  226MOL0     O29730   7.375  -0.583   5.571 -0.0634 -0.1050  0.0147
  226MOL0     C29731   7.241  -0.555   5.564  1.1462 -0.0497  0.2471
  226MOL0     C29732   7.171  -0.470   5.468 -0.3603  0.1283  0.4203
  226MOL0     C29733   7.026  -0.463   5.468 -0.8285  0.6057  0.6726
  226MOL0     C29734   6.951  -0.531   5.572 -0.4413 -0.0459 -0.0822
  226MOL0     O29735   6.813  -0.538   5.588 -0.0867 -0.3479 -0.0409
  226MOL0     C29736   6.744  -0.487   5.476 -0.3138  0.2256 -0.4712
  226MOL0     C29737   6.594  -0.503   5.496  0.7540  0.1534  0.2115
  226MOL0     C29738   6.549  -0.433   5.619  0.3978 -0.2650 -0.9698
  226MOL0     C29739   6.396  -0.465   5.644 -0.2854  0.2750 -0.7572
  226MOL0     C29740   6.359  -0.406   5.782 -0.0263  0.4004 -0.0863
  226MOL0     C29741   6.222  -0.462   5.832  0.6553  0.7599  0.1971
  226MOL0     C29742   6.178  -0.423   5.974  1.2681  0.6448 -0.1805
  226MOL0     C29743   6.032  -0.466   5.987  0.5911 -0.1236 -0.5340
  226MOL0    Cl29744   6.027  -0.641   6.023 -0.1900 -0.6273  0.0910
  226MOL0     C29745   7.023  -0.608   5.660  0.0464 -0.7150  0.2536
  226MOL0     C29746   7.162  -0.619   5.657 -0.6613 -0.4485  0.1374
  226MOL0     O29747   7.450  -0.404   5.445  0.6323  0.2175  0.2500
  226MOL0     C29748   7.648  -0.663   5.593 -1.0561  0.4079 -0.3575
  226MOL0     C29749   7.779  -0.710   5.610  1.0798 -0.0991  0.6639
  226MOL0     N29750   8.505  -0.440   5.494  0.0459 -0.3032 -0.3087
  226MOL0     N29751   8.559  -0.328   5.477 -0.6704  0.0609 -0.6653
  226MOL0     C29752   9.671   0.273   5.651 -0.3648  0.0686  0.2800
  226MOL0     C29753   9.794   0.288   5.710 -0.2313 -0.8001  1.0357
  226MOL0     C29754  10.148   0.281   5.964  0.5107  0.5471 -0.8856
  226MOL0     C29755  10.189   0.409   5.998  0.8739 -1.6885  0.1546
  226MOL0     C29756  10.328   0.432   6.017  0.0914  0.7716 -0.1951
  226MOL0     C29757  10.425   0.329   6.004 -0.4421 -0.1725 -0.2713
  226MOL0     O29758  10.560   0.344   6.034  0.0260 -0.2387  1.0040
  226MOL0     C29759  10.589   0.325   6.172 -0.3071  1.3740  0.2404
  226MOL0     C29760  10.727   0.268   6.190  0.0749  0.2747 -0.6206
  226MOL0     C29761  10.727   0.180   6.313  0.2105  0.1329 -1.0291
  226MOL0     C29762  10.700   0.029   6.278 -0.2160  0.2095 -0.6422
  226MOL0     C29763  10.814  -0.022   6.205  0.4494  0.8392 -0.2469
  226MOL0     C29764  10.895  -0.072   6.126  0.3276 -0.1982  0.4633
  226MOL0     C29765  10.376   0.201   5.980  0.1664 -0.2460 -0.1637
  226MOL0     C29766  10.242   0.174   5.953  0.3814  0.1178  0.1914
  226MOL0     H29767   9.695   0.379   6.021 -0.9628 -1.9469  1.2803
  226MOL0     H29768   9.473   0.366   5.910 -0.7455 -0.3185 -0.2658
  226MOL0     H29769   9.442   0.172   5.518 -0.7129 -0.7791  1.7574
  226MOL0     H29770   9.433   0.352   5.502  2.5880  0.1831  2.1045
  226MOL0     H29771   9.196   0.261   5.441 -0.7068 -4.1617  0.1723
  226MOL0     H29772   9.186   0.324   5.607 -2.4886 -2.0040  0.3124
  226MOL0     H29773   9.237   0.075   5.678  0.9153 -1.5783 -1.2605
  226MOL0     H29774   9.195   0.033   5.525  2.9776 -2.3059  2.5458
  226MOL0     H29775   9.027   0.216   5.711  4.0016 -0.6873  0.3661
  226MOL0     H29776   8.992   0.210   5.548  1.1972  0.6219 -0.7579
  226MOL0     H29777   8.863   0.047   5.705  0.3207  2.4383 -1.0670
  226MOL0     H29778   9.003  -0.055   5.707 -0.5835 -0.1850  1.1484
  226MOL0     H29779   8.943  -0.043   5.425 -2.1750 -0.4109 -0.0543
  226MOL0     H29780   8.797   0.036   5.489  0.6004  0.5150 -2.5858
  226MOL0     H29781   8.775  -0.195   5.437 -3.0404  1.4937  1.2488
  226MOL0     H29782   8.899  -0.239   5.558  0.1408 -1.3620 -0.9494
  226MOL0     H29783   8.652  -0.075   5.588  1.9316  0.6561 -0.5217
  226MOL0     H29784   8.728  -0.161   5.726  0.5975 -1.6664 -0.7324
  226MOL0     H29785   8.580  -0.376   5.808 -0.7422 -1.2431  0.1608
  226MOL0     H29786   8.480  -0.630   5.770 -1.5562 -0.2604  1.0520
  226MOL0     H29787   8.457  -0.680   5.596  1.7390  0.0392 -0.4195
  226MOL0     H29788   8.285  -0.471   5.731  2.0817  0.8478 -2.3707
  226MOL0     H29789   8.254  -0.654   5.739  0.0356 -0.7993 -0.9367
  226MOL0     H29790   8.143  -0.458   5.570 -1.4542 -1.1282 -2.4571
  226MOL0     H29791   8.274  -0.502   5.476 -0.5800 -1.5510 -0.3334
  226MOL0     H29792   8.185  -0.748   5.479  0.5622  0.2875 -1.4233
  226MOL0     H29793   8.086  -0.628   5.402  0.5286 -1.7133 -1.5600
  226MOL0     H29794   7.935  -0.483   5.414 -0.2758  1.6897  0.6837
  226MOL0     H29795   7.710  -0.391   5.398  2.9981 -1.5575 -2.5076
  226MOL0     H29796   7.226  -0.420   5.389  1.6962 -0.6638  1.2704
  226MOL0     H29797   6.970  -0.409   5.392 -3.4596 -2.2544  0.4025
  226MOL0     H29798   6.782  -0.533   5.384 -1.0053  1.1322 -1.2316
  226MOL0     H29799   6.760  -0.379   5.464 -0.4885  0.2113 -0.8423
  226MOL0     H29800   6.580  -0.612   5.503  1.5761  0.1297  2.1145
  226MOL0     H29801   6.542  -0.462   5.409 -0.9238  0.9631  1.5318
  226MOL0     H29802   6.572  -0.326   5.627  0.0261 -0.2751  0.5611
  226MOL0     H29803   6.600  -0.471   5.708 -2.9671  1.0270  1.7637
  226MOL0     H29804   6.326  -0.424   5.571 -1.8692 -2.1569 -0.7047
  226MOL0     H29805   6.377  -0.572   5.641  1.0077  0.0229 -0.3485
  226MOL0     H29806   6.359  -0.297   5.777 -1.0453  0.3751 -3.8420
  226MOL0     H29807   6.425  -0.441   5.862 -0.8260  1.3201  1.0181
  226MOL0     H29808   6.229  -0.571   5.837 -0.2059  0.7370  1.0747
  226MOL0     H29809   6.148  -0.422   5.762  2.4552 -1.0990 -3.0458
  226MOL0     H29810   6.232  -0.472   6.056 -0.8489 -1.7093 -0.0739
  226MOL0     H29811   6.192  -0.315   5.979  4.1476  0.5507 -3.0751
  226MOL0     H29812   5.971  -0.442   5.899 -0.7203 -0.5591  0.2276
  226MOL0     H29813   5.979  -0.419   6.070  2.3032 -2.3238  1.9745
  226MOL0     H29814   6.970  -0.660   5.739 -0.9883  0.5802  0.4518
  226MOL0     H29815   7.204  -0.685   5.732 -0.6129  0.4152  0.9023
  226MOL0     H29816   7.571  -0.716   5.647 -0.0807 -1.3260 -0.5828
  226MOL0     H29817   7.781  -0.803   5.667 -0.3858  0.0006  0.9022
  226MOL0     H29818   9.649   0.244   5.548 -3.5149 -1.1458  1.1673
  226MOL0     H29819   9.885   0.271   5.654  0.8928  0.1174  2.5150
  226MOL0     H29820  10.112   0.485   6.008  1.0036 -1.6798  1.2059
  226MOL0     H29821  10.353   0.536   6.035  1.1401  0.3135  1.1956
  226MOL0     H29822  10.523   0.248   6.213  1.7464 -0.0681  0.9814
  226MOL0     H29823  10.571   0.421   6.222 -0.1704  0.8513  1.3108
  226MOL0     H29824  10.753   0.214   6.099 -0.4587  1.7455 -1.6958
  226MOL0     H29825  10.793   0.352   6.214 -0.3219  0.3822  0.1386
  226MOL0     H29826  10.651   0.215   6.384  1.0365 -0.9689  0.4800
  226MOL0     H29827  10.816   0.179   6.377 -0.7473  0.9155  0.3787
  226MOL0     H29828  10.696  -0.028   6.371  3.2806  0.2386 -0.3465
  226MOL0     H29829  10.617   0.017   6.208  2.4497  0.6144 -4.1785
  226MOL0     H29830  10.963  -0.108   6.050 -2.7972 -1.8704 -1.7804
  226MOL0     H29831  10.457   0.128   5.981  1.0441  0.6680  1.3146
  226MOL0     H29832  10.215   0.071   5.931  1.7497 -0.7698  2.2429
  227MOL0     O29833   6.516   3.628   4.408  0.0259  0.2747 -0.1526
  227MOL0     C29834   6.555   3.529   4.473  0.1131  0.6311 -0.4959
  227MOL0     O29835   6.475   3.418   4.494 -0.1818  0.3674 -0.9184
  227MOL0     C29836   6.356   3.403   4.430  0.1706 -0.0300 -0.5136
  227MOL0     C29837   6.243   3.371   4.509 -0.3066  0.3139  0.1635
  227MOL0     C29838   6.121   3.334   4.451  0.4862 -0.0639  0.7786
  227MOL0     C29839   6.104   3.341   4.311  0.1536  0.0295 -0.6119
  227MOL0     O29840   5.997   3.288   4.245  0.6161  0.2006 -0.4402
  227MOL0     C29841   5.893   3.199   4.305  0.1491 -0.6230  0.1151
  227MOL0     C29842   5.856   3.099   4.193  0.3499 -0.1231 -0.0929
  227MOL0     C29843   5.734   3.006   4.239 -0.4943 -0.8128 -0.3930
  227MOL0     C29844   5.739   2.867   4.174 -0.1694  0.2745 -0.0155
  227MOL0     C29845   5.662   2.749   4.253 -0.0723 -0.9205 -0.1195
  227MOL0     C29846   5.631   2.626   4.175  0.5529 -0.2158  0.1888
  227MOL0     C29847   5.544   2.656   4.061  0.3312  0.1034  0.9866
  227MOL0     C29848   5.496   2.526   3.980 -0.2851 -0.2202  0.2468
  227MOL0     N29849   5.393   2.437   4.039  0.5148  0.6190 -0.3888
  227MOL0     C29850   5.417   2.339   4.136  0.5453 -0.0761  0.3452
  227MOL0     C29851   5.299   2.264   4.143  0.1559 -0.2478  0.5149
  227MOL0     C29852   5.272   2.151   4.232  0.4278 -0.0612  0.3332
  227MOL0     C29853   5.337   2.025   4.184 -0.4005  0.4856  0.4128
  227MOL0     C29854   5.278   1.967   4.050  0.2898 -0.2149 -0.3797
  227MOL0     C29855   5.123   1.979   4.038 -0.1525 -0.0957 -0.3807
  227MOL0     O29856   5.054   1.917   4.153 -0.3479 -0.7772  0.0469
  227MOL0     C29857   4.921   1.894   4.129  0.1648  0.0131 -0.4779
  227MOL0     C29858   4.839   1.982   4.063 -0.3248  0.6232  0.4378
  227MOL0     C29859   4.696   1.963   4.053  0.0289 -0.1357  1.0349
  227MOL0     C29860   4.647   1.849   4.122  0.3766 -0.7801 -0.5590
  227MOL0     C29861   4.500   1.817   4.111 -0.4652  0.1170  0.0093
  227MOL0     O29862   4.421   1.906   4.041  0.0514  0.3179 -0.1374
  227MOL0     C29863   4.289   1.863   4.022 -0.0921  0.4416  0.0107
  227MOL0     C29864   4.214   1.893   4.129  0.1749 -0.2499  0.7111
  227MOL0     C29865   4.082   1.843   4.137  0.6618 -0.6055 -0.1440
  227MOL0     C29866   4.027   1.771   4.038  0.1173 -0.4621  0.6002
  227MOL0     O29867   3.898   1.724   4.036  0.5021  0.1624  0.2530
  227MOL0     C29868   3.841   1.711   4.161  0.3639  0.0379  0.2538
  227MOL0     C29869   3.699   1.655   4.151 -1.0774  0.4137 -0.7141
  227MOL0     C29870   3.608   1.764   4.098 -1.0315  0.4063  0.2409
  227MOL0     C29871   3.472   1.720   4.045 -0.6787 -0.3859  1.2173
  227MOL0     C29872   3.368   1.731   4.149 -0.0503 -0.0903 -0.1473
  227MOL0     C29873   3.222   1.729   4.097  0.3770  0.2934 -0.1863
  227MOL0     C29874   3.173   1.861   4.041  0.0396  0.3251 -0.3505
  227MOL0     C29875   3.072   1.843   3.925  0.6178 -0.7225  0.2384
  227MOL0    Cl29876   2.994   1.999   3.896 -0.0648  0.4172  0.0196
  227MOL0     C29877   4.104   1.732   3.927  0.1618 -0.1369  0.1234
  227MOL0     C29878   4.239   1.780   3.924  0.1826 -1.0723 -0.2329
  227MOL0     O29879   4.458   1.705   4.152 -0.3919 -0.5608 -0.0384
  227MOL0     C29880   4.737   1.769   4.195  0.2584 -0.2419 -0.6992
  227MOL0     C29881   4.867   1.790   4.203 -1.2124 -0.5194  0.3080
  227MOL0     N29882   5.211   2.324   4.057  0.5489  0.2353  0.9453
  227MOL0     N29883   5.263   2.432   3.999  0.5088 -0.0778  0.1273
  227MOL0     C29884   6.212   3.389   4.232 -0.7017  0.0832 -0.7356
  227MOL0     C29885   6.334   3.417   4.293  0.0676 -0.5837 -0.2448
  227MOL0     C29886   6.674   3.538   4.567 -0.3898 -0.8663  0.4023
  227MOL0     C29887   6.789   3.620   4.530 -0.0044  0.7400 -0.3582
  227MOL0     C29888   6.900   3.652   4.617  0.4593  0.3700 -1.0983
  227MOL0     C29889   6.884   3.601   4.752  0.5463  0.3916 -0.4779
  227MOL0     O29890   6.992   3.625   4.831 -0.0457  0.2803 -0.3757
  227MOL0     C29891   6.968   3.657   4.961  0.0301 -0.3592  0.0230
  227MOL0     C29892   7.100   3.711   5.032 -0.2224 -0.0258 -0.1148
  227MOL0     C29893   7.078   3.731   5.189  0.3963  0.3419  0.5850
  227MOL0     C29894   7.167   3.824   5.263  0.7314 -0.6710 -0.3147
  227MOL0     C29895   7.153   3.957   5.189 -0.4122  0.0277 -0.1447
  227MOL0     C29896   7.138   4.059   5.128 -0.8914  0.0634 -0.3398
  227MOL0     C29897   6.781   3.513   4.784  0.3524 -0.3274  0.1414
  227MOL0     C29898   6.677   3.477   4.695 -0.6747 -0.5490 -0.4615
  227MOL0     H29899   6.254   3.360   4.616  0.6150 -1.4631 -0.0844
  227MOL0     H29900   6.045   3.284   4.511 -0.8903 -1.3440 -1.8715
  227MOL0     H29901   5.803   3.252   4.337 -3.1658 -5.0428 -0.9507
  227MOL0     H29902   5.930   3.135   4.386 -0.5624 -2.1637 -0.7394
  227MOL0     H29903   5.943   3.046   4.151  0.6631 -1.6198  2.2691
  227MOL0     H29904   5.825   3.160   4.107  0.8153  0.4482  0.1341
  227MOL0     H29905   5.640   3.058   4.221  0.7681  1.5466 -0.5089
  227MOL0     H29906   5.743   2.982   4.346 -1.9499 -0.6651 -0.2212
  227MOL0     H29907   5.695   2.878   4.074 -0.4231 -1.6855 -0.1598
  227MOL0     H29908   5.841   2.829   4.166 -0.2169 -0.9558  3.4257
  227MOL0     H29909   5.578   2.786   4.313  0.1575 -0.0523 -0.3240
  227MOL0     H29910   5.739   2.722   4.327 -0.8985 -0.8240  0.7875
  227MOL0     H29911   5.580   2.556   4.241  0.0122  0.8478  0.9256
  227MOL0     H29912   5.721   2.579   4.134 -0.2277 -2.4934  0.9361
  227MOL0     H29913   5.456   2.713   4.094 -0.3823  0.0911 -0.7936
  227MOL0     H29914   5.609   2.713   3.993  1.2787 -1.1354  0.8254
  227MOL0     H29915   5.588   2.472   3.959  0.4329  0.9511  0.3167
  227MOL0     H29916   5.458   2.563   3.884  0.8414 -2.7379 -1.2626
  227MOL0     H29917   5.514   2.314   4.175  1.1303 -1.9181 -2.0627
  227MOL0     H29918   5.166   2.139   4.256  1.2297 -1.3379  3.7767
  227MOL0     H29919   5.321   2.183   4.325  0.9890 -3.1441  1.2137
  227MOL0     H29920   5.327   1.940   4.252  0.9519 -3.2250 -3.5356
  227MOL0     H29921   5.443   2.048   4.166 -0.5157  0.3716 -0.4597
  227MOL0     H29922   5.322   2.023   3.967 -3.8129  0.1684 -2.5411
  227MOL0     H29923   5.307   1.861   4.051 -1.3513 -0.6966  1.1994
  227MOL0     H29924   5.083   1.927   3.951 -1.4731  0.6839 -0.2682
  227MOL0     H29925   5.092   2.084   4.044  2.2957  0.6165  1.9982
  227MOL0     H29926   4.877   2.059   3.997  0.5130 -1.3499 -1.5385
  227MOL0     H29927   4.635   2.040   4.007  1.4995  1.2908  1.3349
  227MOL0     H29928   4.271   1.957   4.195  0.2065  1.6115 -1.0243
  227MOL0     H29929   4.015   1.870   4.218  0.0511  0.2789 -0.9409
  227MOL0     H29930   3.829   1.808   4.211  0.6616 -0.0232  0.4435
  227MOL0     H29931   3.899   1.642   4.222  1.7775  0.0750 -0.9720
  227MOL0     H29932   3.685   1.622   4.255  1.3405 -0.3449 -0.5589
  227MOL0     H29933   3.691   1.566   4.089  1.5742  0.3882 -1.1538
  227MOL0     H29934   3.655   1.830   4.025 -3.7448  2.0305 -0.2028
  227MOL0     H29935   3.610   1.835   4.181  4.2948  1.1064 -0.1452
  227MOL0     H29936   3.449   1.780   3.957  0.5603  0.4416  1.4480
  227MOL0     H29937   3.470   1.616   4.011 -1.6770 -0.2058  0.7019
  227MOL0     H29938   3.391   1.822   4.205  0.9527 -1.1583  1.2396
  227MOL0     H29939   3.386   1.643   4.212  0.9534 -0.3943 -0.8245
  227MOL0     H29940   3.151   1.700   4.175 -2.3147  2.1724 -1.7743
  227MOL0     H29941   3.216   1.648   4.023 -2.5714 -0.2703  0.5403
  227MOL0     H29942   3.116   1.914   4.118 -2.1850 -1.2014 -0.8522
  227MOL0     H29943   3.261   1.917   4.008 -0.4859  1.8162  0.6622
  227MOL0     H29944   3.012   1.755   3.952  2.4855 -2.0462  0.2962
  227MOL0     H29945   3.115   1.816   3.828 -0.6943  0.2346 -0.6329
  227MOL0     H29946   4.052   1.683   3.845  2.1134  1.6032 -2.2906
  227MOL0     H29947   4.293   1.756   3.833  0.4148 -0.6041 -0.2175
  227MOL0     H29948   4.700   1.683   4.250 -3.0714  0.6180 -1.3446
  227MOL0     H29949   4.933   1.724   4.258  0.7213  1.2686  0.2883
  227MOL0     H29950   6.193   3.414   4.128  2.8679 -2.2978 -2.1341
  227MOL0     H29951   6.411   3.461   4.231  0.2851  0.3105  0.6331
  227MOL0     H29952   6.778   3.677   4.439 -2.7354 -0.3561 -0.8065
  227MOL0     H29953   6.986   3.710   4.585  0.7258  1.7947  1.8888
  227MOL0     H29954   6.924   3.580   5.025 -2.5384  0.3074 -0.8375
  227MOL0     H29955   6.894   3.738   4.963  1.2286  0.7613  0.9038
  227MOL0     H29956   7.188   3.649   5.013 -0.1759  0.0342 -0.0967
  227MOL0     H29957   7.128   3.803   4.979 -2.9408  0.5161 -0.7702
  227MOL0     H29958   7.099   3.633   5.233 -1.4355  0.6838  2.3783
  227MOL0     H29959   6.973   3.759   5.199 -0.5747 -2.3124 -1.2271
  227MOL0     H29960   7.147   3.824   5.371  1.6050 -2.9760 -0.0986
  227MOL0     H29961   7.271   3.790   5.255  1.0953  0.1616  0.6481
  227MOL0     H29962   7.134   4.144   5.063  2.9483  1.9293  1.5069
  227MOL0     H29963   6.775   3.476   4.886 -0.1788 -1.0584 -0.1468
  227MOL0     H29964   6.602   3.409   4.736  2.6273 -2.7693  2.3855
  228MOL0     O29965   0.959   9.129   6.501 -0.2813  0.3750  0.3072
  228MOL0     C29966   0.922   9.045   6.580 -1.3553 -0.2242 -0.0315
  228MOL0     O29967   0.993   8.931   6.618  0.1267  0.0447 -0.2707
  228MOL0     C29968   1.119   8.920   6.598 -0.1047 -0.5170 -0.3898
  228MOL0     C29969   1.204   9.024   6.629 -0.5003  0.2196 -0.7646
  228MOL0     C29970   1.342   9.007   6.601 -0.3281  0.6923  0.0751
  228MOL0     C29971   1.386   8.885   6.535  0.1773 -0.5746 -0.1040
  228MOL0     O29972   1.519   8.869   6.499 -0.2204 -0.0262 -0.0789
  228MOL0     C29973   1.573   8.986   6.435 -0.3778 -0.3958  0.1621
  228MOL0     C29974   1.689   8.933   6.355 -0.1637  0.7404  0.5368
  228MOL0     C29975   1.798   9.044   6.354 -0.3944 -0.5823 -0.2092
  228MOL0     C29976   1.754   9.165   6.274 -0.2098 -1.0239  0.2461
  228MOL0     C29977   1.861   9.274   6.257  0.3081  0.8944 -0.6528
  228MOL0     C29978   1.966   9.258   6.131  0.1471  0.4227  0.8390
  228MOL0     C29979   2.038   9.386   6.102 -0.1584 -0.1248 -0.0244
  228MOL0     C29980   2.153   9.372   6.018 -1.1450  0.0665 -0.1471
  228MOL0     N29981   2.220   9.499   5.982 -0.0565 -0.0148 -0.2904
  228MOL0     C29982   2.264   9.595   6.068  0.5434 -0.6232  0.2947
  228MOL0     C29983   2.310   9.696   5.994  0.2070 -0.3098  1.2282
  228MOL0     C29984   2.368   9.826   6.055  0.2353 -0.9036 -0.2279
  228MOL0     C29985   2.254   9.928   6.089  0.1219  0.3793 -0.0012
  228MOL0     C29986   2.192   9.904   6.225  0.0218  0.0628 -0.0649
  228MOL0     C29987   2.080  10.007   6.257  0.7375  0.3960 -0.1774
  228MOL0     O29988   1.990   9.939   6.345  0.5901  0.0587 -0.2444
  228MOL0     C29989   1.894  10.017   6.400 -0.5912  0.0120  0.3805
  228MOL0     C29990   1.817   9.964   6.502 -0.4123  0.9707  1.0335
  228MOL0     C29991   1.714  10.035   6.569 -0.7452 -0.9918  0.4863
  228MOL0     C29992   1.685  10.170   6.531 -0.3294  0.6186  0.5996
  228MOL0     C29993   1.579  10.241   6.604 -0.8959 -0.2584  0.1998
  228MOL0     O29994   1.548  10.372   6.562 -0.0201 -0.0606  0.1472
  228MOL0     C29995   1.445  10.433   6.623  0.7024  0.5410 -0.0789
  228MOL0     C29996   1.305  10.389   6.604 -0.7881 -0.0816 -0.1747
  228MOL0     C29997   1.200  10.456   6.674 -0.6739  0.2933  0.1540
  228MOL0     C29998   1.221  10.588   6.729  0.9713 -0.0201  0.1632
  228MOL0     O29999   1.111  10.660   6.768  0.2699  0.8810  0.3835
  228MOL0     C30000   1.138  10.786   6.834 -0.7582 -0.0270  0.4210
  228MOL0     C30001   1.010  10.869   6.849  1.2542 -0.8460  0.1370
  228MOL0     C30002   0.901  10.788   6.914 -0.8438  0.0808  0.1366
  228MOL0     C30003   0.788  10.881   6.961  0.0652 -0.6754  0.0075
  228MOL0     C30004   0.826  10.950   7.090  0.2925 -1.0097 -0.1513
  228MOL0     C30005   0.710  10.938   7.193 -0.2110 -0.6242  0.1007
  228MOL0     C30006   0.749  11.016   7.325  0.6309  0.0468  0.9204
  228MOL0     C30007   0.742  11.172   7.317  0.2663 -1.2161 -0.2291
  228MOL0    Cl30008   0.581  11.233   7.340 -0.1799 -0.7322  0.1874
  228MOL0     C30009   1.358  10.614   6.753  0.5931 -0.2307  0.6503
  228MOL0     C30010   1.468  10.536   6.698  0.5876 -0.5909 -0.0873
  228MOL0     O30011   1.539  10.182   6.706 -0.0770 -0.1738  0.5631
  228MOL0     C30012   1.758  10.232   6.422 -0.0884  0.1643 -0.8572
  228MOL0     C30013   1.863  10.158   6.360 -0.0586  0.2080 -0.0311
  228MOL0     N30014   2.293   9.664   5.857 -1.0591  0.4188 -0.5989
  228MOL0     N30015   2.227   9.553   5.852 -0.0351  1.1137  0.7099
  228MOL0     C30016   1.298   8.783   6.508  0.4424 -0.1449 -0.3405
  228MOL0     C30017   1.159   8.799   6.545 -1.2093  0.5874  0.5132
  228MOL0     C30018   0.783   9.060   6.632 -0.4280  0.7229 -0.0307
  228MOL0     C30019   0.710   9.176   6.623  0.0166  0.0776 -0.4015
  228MOL0     C30020   0.570   9.183   6.662  0.2295  0.3961 -0.6471
  228MOL0     C30021   0.504   9.063   6.697 -0.4302 -1.5017 -0.6639
  228MOL0     O30022   0.373   9.050   6.728 -0.5794  0.1261 -0.1376
  228MOL0     C30023   0.289   9.161   6.689  0.4272 -0.4198 -0.0154
  228MOL0     C30024   0.156   9.102   6.705 -0.0555  0.3381  0.1744
  228MOL0     C30025   0.046   9.211   6.691 -0.8616  0.3096 -0.2683
  228MOL0     C30026  -0.092   9.151   6.720 -0.3127  0.3241  0.1711
  228MOL0     C30027  -0.194   9.260   6.740 -0.7000  0.2699 -0.2544
  228MOL0     C30028  -0.289   9.340   6.748  0.4912 -0.2089  0.6290
  228MOL0     C30029   0.575   8.945   6.684  0.5442 -0.0936 -0.4359
  228MOL0     C30030   0.710   8.939   6.654  0.2317  0.0141  0.2262
  228MOL0     H30031   1.159   9.103   6.688  1.1786  0.6611 -0.0261
  228MOL0     H30032   1.419   9.078   6.627  1.4881 -0.7079 -1.1770
  228MOL0     H30033   1.608   9.048   6.518 -0.4259  1.3790 -1.0829
  228MOL0     H30034   1.499   9.035   6.371 -1.0583 -2.7557 -0.9670
  228MOL0     H30035   1.652   8.907   6.256 -1.6021 -2.1322  1.7058
  228MOL0     H30036   1.731   8.843   6.400 -0.4598 -0.4499 -1.4846
  228MOL0     H30037   1.891   9.011   6.306  2.1047  2.7679  1.8702
  228MOL0     H30038   1.816   9.075   6.457 -1.6546  0.3415 -0.2565
  228MOL0     H30039   1.727   9.150   6.169  2.6407  0.3760 -0.7802
  228MOL0     H30040   1.664   9.201   6.325 -0.5046 -1.7830  0.2679
  228MOL0     H30041   1.913   9.284   6.353 -0.0870  0.2611 -0.3690
  228MOL0     H30042   1.825   9.376   6.239 -0.8544  0.6918  0.4165
  228MOL0     H30043   1.900   9.242   6.046  0.6698 -2.4196  0.8528
  228MOL0     H30044   2.035   9.174   6.142 -1.0160 -0.6875 -0.0622
  228MOL0     H30045   1.969   9.452   6.048 -0.5765 -1.0193 -0.6105
  228MOL0     H30046   2.064   9.439   6.194 -0.7196 -0.7903  0.5328
  228MOL0     H30047   2.135   9.313   5.927 -0.1563 -0.1012 -0.2533
  228MOL0     H30048   2.221   9.300   6.066 -1.0496 -0.8666 -1.6066
  228MOL0     H30049   2.262   9.581   6.176  0.7591 -2.9263  0.0557
  228MOL0     H30050   2.428   9.873   5.977  0.0250  2.9466  1.6919
  228MOL0     H30051   2.439   9.799   6.133 -0.6679 -0.3719  0.7981
  228MOL0     H30052   2.187   9.926   6.003  0.1605  1.9024 -0.0965
  228MOL0     H30053   2.295  10.030   6.089  2.3042 -0.3780 -2.8318
  228MOL0     H30054   2.148   9.804   6.232  0.0905  0.0519  0.2208
  228MOL0     H30055   2.269   9.911   6.303 -1.6315  1.2614  1.5323
  228MOL0     H30056   2.036  10.047   6.165  2.9329  3.4305 -0.0704
  228MOL0     H30057   2.133  10.089   6.307  1.6347  0.4078 -1.0961
  228MOL0     H30058   1.832   9.858   6.524  1.7724  1.4057  1.9321
  228MOL0     H30059   1.665   9.986   6.653 -0.3430 -0.9623  0.7407
  228MOL0     H30060   1.301  10.292   6.557  3.2913 -1.0264  1.0517
  228MOL0     H30061   1.101  10.415   6.663 -0.6668  0.2451  0.2664
  228MOL0     H30062   1.217  10.837   6.779 -1.1911 -0.2107 -0.3923
  228MOL0     H30063   1.178  10.775   6.935 -0.9084  0.2926  0.5177
  228MOL0     H30064   0.971  10.903   6.752 -0.0090  0.9336  1.2052
  228MOL0     H30065   1.043  10.948   6.917 -0.6146 -1.6226  2.0674
  228MOL0     H30066   0.942  10.737   7.002 -0.0775  0.8752  0.2541
  228MOL0     H30067   0.862  10.711   6.847 -2.0408 -0.0729  0.9791
  228MOL0     H30068   0.751  10.946   6.882 -1.6400 -4.4369 -2.5928
  228MOL0     H30069   0.713  10.804   6.984  2.1112 -2.4774  1.0084
  228MOL0     H30070   0.844  11.056   7.072 -0.1961 -0.7292  0.9636
  228MOL0     H30071   0.920  10.909   7.129  1.1656  1.5765  0.6597
  228MOL0     H30072   0.689  10.833   7.217  0.2028 -0.3547  1.8411
  228MOL0     H30073   0.616  10.973   7.149 -0.3966 -1.0974  0.1097
  228MOL0     H30074   0.680  10.976   7.401 -0.3261  0.0907  0.0863
  228MOL0     H30075   0.851  10.981   7.345  1.5842  1.8320 -0.5291
  228MOL0     H30076   0.777  11.207   7.219 -0.8287 -1.0544 -0.5761
  228MOL0     H30077   0.806  11.218   7.394 -1.4778 -0.0787  0.5979
  228MOL0     H30078   1.382  10.709   6.798 -1.0994 -0.4725  2.1486
  228MOL0     H30079   1.567  10.580   6.708  0.3905 -0.5146  2.1038
  228MOL0     H30080   1.752  10.336   6.394 -1.8816  0.9077  1.9130
  228MOL0     H30081   1.921  10.213   6.287 -1.8675  1.0924 -0.8890
  228MOL0     H30082   1.343   8.697   6.459 -1.7628 -0.5116 -1.9204
  228MOL0     H30083   1.088   8.719   6.522 -0.8772  0.3529  0.2860
  228MOL0     H30084   0.753   9.273   6.601 -0.7874  0.8480  1.2664
  228MOL0     H30085   0.523   9.281   6.661  0.4399  0.4975 -0.8695
  228MOL0     H30086   0.315   9.181   6.585 -0.0330  2.4180  0.3319
  228MOL0     H30087   0.312   9.247   6.752  2.0703 -0.3859 -0.6085
  228MOL0     H30088   0.128   9.030   6.627 -1.4048  1.0629 -0.0503
  228MOL0     H30089   0.160   9.069   6.810  0.5051  1.3639  0.4856
  228MOL0     H30090   0.051   9.248   6.588  1.3361 -1.4287 -0.8695
  228MOL0     H30091   0.068   9.303   6.746  3.2215  1.5291 -3.4822
  228MOL0     H30092  -0.121   9.091   6.633 -0.9812 -1.0004  1.2808
  228MOL0     H30093  -0.073   9.083   6.804  1.1243 -0.5616 -0.8156
  228MOL0     H30094  -0.374   9.402   6.766  0.0183 -1.4736  3.2658
  228MOL0     H30095   0.526   8.854   6.715  1.7224  0.3599  3.3245
  228MOL0     H30096   0.761   8.843   6.656 -2.4342 -1.4807  0.9249
  229MOL0     O30097   6.979   8.005   1.067 -0.6171 -0.3938  0.5352
  229MOL0     C30098   7.068   7.934   1.009  0.7315 -0.3225  0.5243
  229MOL0     O30099   7.053   7.849   0.904 -0.0782  0.4560 -0.5585
  229MOL0     C30100   6.924   7.817   0.880 -0.2287 -0.0006  0.2705
  229MOL0     C30101   6.838   7.754   0.969  0.1283 -0.2751 -0.3720
  229MOL0     C30102   6.701   7.719   0.939 -0.1898 -0.8649 -0.0121
  229MOL0     C30103   6.653   7.748   0.805 -0.6394 -0.1716 -0.0704
  229MOL0     O30104   6.533   7.698   0.776 -0.0492  0.3410 -0.7299
  229MOL0     C30105   6.427   7.786   0.721 -0.5319 -0.0719  0.0089
  229MOL0     C30106   6.303   7.708   0.705 -0.7448  0.2514 -0.7085
  229MOL0     C30107   6.227   7.772   0.589  0.7626  0.1060 -0.2898
  229MOL0     C30108   6.083   7.708   0.579 -0.9231 -0.1753 -0.0383
  229MOL0     C30109   5.976   7.779   0.500 -0.0456  1.0387 -0.0824
  229MOL0     C30110   5.996   7.819   0.358  0.8296 -0.5235 -0.2964
  229MOL0     C30111   5.868   7.872   0.295 -0.2636 -0.4632 -0.4934
  229MOL0     C30112   5.884   7.934   0.163 -1.3314  0.3126  0.2444
  229MOL0     N30113   5.930   7.841   0.061 -0.4879  0.2202  0.4430
  229MOL0     C30114   5.865   7.727   0.022  0.5529 -0.6115  0.1377
  229MOL0     C30115   5.954   7.654  -0.046  0.7058 -0.3700  0.1389
  229MOL0     C30116   5.924   7.529  -0.124  0.4060  0.2947 -0.7073
  229MOL0     C30117   5.853   7.550  -0.259  1.0091  0.4044  0.1954
  229MOL0     C30118   5.700   7.529  -0.241  0.9571  0.0859 -0.1507
  229MOL0     C30119   5.626   7.564  -0.371  0.4177  0.0173 -0.7863
  229MOL0     O30120   5.487   7.526  -0.351  0.2126 -0.9466 -0.2371
  229MOL0     C30121   5.405   7.521  -0.460  1.0258 -0.2364  0.0571
  229MOL0     C30122   5.274   7.472  -0.435 -0.4569 -0.4066  0.4764
  229MOL0     C30123   5.180   7.465  -0.546  0.2851  0.1062  0.0124
  229MOL0     C30124   5.211   7.509  -0.672  0.4365  0.6997 -0.8039
  229MOL0     C30125   5.109   7.517  -0.775  0.2879 -0.0007 -0.7083
  229MOL0     O30126   4.984   7.464  -0.745  0.2007  0.0400 -0.2330
  229MOL0     C30127   4.877   7.460  -0.837 -0.3701 -0.0945 -0.2102
  229MOL0     C30128   4.752   7.439  -0.780 -0.0672 -0.4823 -0.7098
  229MOL0     C30129   4.637   7.433  -0.860  0.0204  0.3527 -0.0688
  229MOL0     C30130   4.639   7.460  -0.996 -0.4426 -0.0413 -0.4870
  229MOL0     O30131   4.532   7.456  -1.075 -0.4065  0.3001 -0.4748
  229MOL0     C30132   4.399   7.474  -1.022  0.2220  0.4170 -0.4347
  229MOL0     C30133   4.302   7.505  -1.133  0.0021  0.1744 -0.2366
  229MOL0     C30134   4.153   7.489  -1.086 -0.6243  0.0499 -0.0420
  229MOL0     C30135   4.056   7.515  -1.199 -0.0871  1.1683 -0.0100
  229MOL0     C30136   3.913   7.516  -1.155  0.1993 -0.2419 -0.2695
  229MOL0     C30137   3.822   7.476  -1.272 -0.4934  0.4615  0.0559
  229MOL0     C30138   3.676   7.479  -1.218  0.5475  0.3625 -0.4994
  229MOL0     C30139   3.562   7.454  -1.307 -0.6490 -0.3035  0.4709
  229MOL0    Cl30140   3.571   7.279  -1.362 -0.1612 -0.0090 -0.0007
  229MOL0     C30141   4.761   7.477  -1.051 -0.1042 -0.2955 -0.2792
  229MOL0     C30142   4.885   7.474  -0.980  0.1648 -0.0107  0.3248
  229MOL0     O30143   5.136   7.581  -0.879 -0.4702  0.5734 -0.2199
  229MOL0     C30144   5.340   7.542  -0.693  0.3246 -0.0050  0.0488
  229MOL0     C30145   5.431   7.557  -0.590 -1.1749  0.0772 -0.6357
  229MOL0     N30146   6.069   7.729  -0.059 -0.1344  0.8124  0.4992
  229MOL0     N30147   6.051   7.837   0.003 -0.3680 -0.6809 -0.5472
  229MOL0     C30148   6.738   7.818   0.716 -0.5463 -0.2716  0.4414
  229MOL0     C30149   6.868   7.853   0.755 -0.0123  0.4160 -0.6025
  229MOL0     C30150   7.210   7.948   1.060  0.0403  0.1056  0.8380
  229MOL0     C30151   7.322   7.881   0.992  0.2010 -0.8082 -0.7552
  229MOL0     C30152   7.450   7.896   1.047 -0.1179  0.0750 -0.4663
  229MOL0     C30153   7.477   7.980   1.158  0.2445  0.2372  0.3022
  229MOL0     O30154   7.610   8.006   1.176 -0.4656  0.3678  0.3829
  229MOL0     C30155   7.643   8.094   1.281  0.3992 -0.9561 -0.3801
  229MOL0     C30156   7.791   8.081   1.323  0.0018  0.5238  0.0945
  229MOL0     C30157   7.838   7.931   1.332  0.5837  0.2058  0.5042
  229MOL0     C30158   7.976   7.925   1.384 -0.2295  0.3247  0.2894
  229MOL0     C30159   7.989   7.973   1.520  0.5944 -0.5794 -0.9557
  229MOL0     C30160   7.986   8.006   1.636  0.4153  0.1942  0.2646
  229MOL0     C30161   7.365   8.032   1.229  0.2751 -0.5435 -0.0805
  229MOL0     C30162   7.237   8.014   1.172 -0.0350 -0.2526 -0.0915
  229MOL0     H30163   6.882   7.746   1.067 -1.3074 -1.2326  0.2342
  229MOL0     H30164   6.633   7.668   1.007 -0.5495  0.6110  0.7724
  229MOL0     H30165   6.465   7.826   0.627 -2.0931 -1.7061 -1.3973
  229MOL0     H30166   6.403   7.861   0.797  0.6006  0.6983 -0.3792
  229MOL0     H30167   6.252   7.705   0.802 -0.3343  2.8917 -0.3262
  229MOL0     H30168   6.320   7.607   0.668 -0.6034  1.6124 -4.8980
  229MOL0     H30169   6.277   7.766   0.492  2.2529  0.9070  0.4055
  229MOL0     H30170   6.206   7.877   0.614 -0.3157 -0.8096  3.2772
  229MOL0     H30171   6.096   7.605   0.545  0.7339 -1.0754  2.9671
  229MOL0     H30172   6.049   7.715   0.682  1.6453 -1.9817  1.0412
  229MOL0     H30173   5.945   7.861   0.565 -2.4754 -1.6234  2.3693
  229MOL0     H30174   5.889   7.712   0.492  1.9394 -1.6012 -0.9571
  229MOL0     H30175   6.026   7.730   0.301 -2.5812 -2.0241  0.0182
  229MOL0     H30176   6.078   7.892   0.357  2.9933 -2.8271 -1.5665
  229MOL0     H30177   5.799   7.787   0.286  1.1083 -1.4148 -3.3750
  229MOL0     H30178   5.827   7.954   0.354 -1.6305 -1.8696  0.5806
  229MOL0     H30179   5.961   8.012   0.156 -0.4736 -0.5644 -0.2813
  229MOL0     H30180   5.789   7.979   0.132 -0.1757  2.1155 -0.8648
  229MOL0     H30181   5.759   7.711   0.041 -0.0184  1.8008 -0.5689
  229MOL0     H30182   5.869   7.460  -0.058 -0.1955 -0.5643 -2.0629
  229MOL0     H30183   6.023   7.485  -0.140  0.9326  0.5368  1.5166
  229MOL0     H30184   5.894   7.473  -0.325  2.1118  2.2783 -1.4273
  229MOL0     H30185   5.882   7.645  -0.304  1.5539 -1.1634 -3.0330
  229MOL0     H30186   5.690   7.420  -0.231  0.6887  0.1238 -0.0168
  229MOL0     H30187   5.654   7.577  -0.154 -1.2198 -3.5055  0.9004
  229MOL0     H30188   5.666   7.504  -0.453 -0.0273 -1.4288  0.0335
  229MOL0     H30189   5.631   7.672  -0.388 -3.4240  0.5413  0.4012
  229MOL0     H30190   5.248   7.440  -0.335  1.8758 -0.4017  1.1348
  229MOL0     H30191   5.080   7.428  -0.524 -0.6817  1.3108 -2.0705
  229MOL0     H30192   4.754   7.429  -0.672  2.0442  0.0162 -0.6584
  229MOL0     H30193   4.546   7.416  -0.803 -0.5238 -0.4974 -1.1550
  229MOL0     H30194   4.407   7.553  -0.947  2.4302  1.3069 -1.4874
  229MOL0     H30195   4.349   7.391  -0.972 -1.0498  1.4950  0.1226
  229MOL0     H30196   4.328   7.447  -1.221  0.9875 -0.4846  0.4644
  229MOL0     H30197   4.318   7.612  -1.153 -2.7811  0.3125 -2.2899
  229MOL0     H30198   4.134   7.566  -1.011 -2.9479  2.5572 -2.9136
  229MOL0     H30199   4.141   7.388  -1.047 -0.0016 -1.3888 -3.2087
  229MOL0     H30200   4.076   7.609  -1.252 -1.3028  1.8887  0.7731
  229MOL0     H30201   4.069   7.431  -1.267 -0.8994 -2.0141  3.4311
  229MOL0     H30202   3.887   7.616  -1.119 -0.6017 -0.5308 -0.0205
  229MOL0     H30203   3.909   7.449  -1.069  2.7143  0.6021  0.6085
  229MOL0     H30204   3.839   7.376  -1.313 -2.3109  0.2048 -0.1635
  229MOL0     H30205   3.841   7.546  -1.354 -0.5818  2.1411  1.4070
  229MOL0     H30206   3.681   7.395  -1.147 -0.2480 -1.0022 -2.0056
  229MOL0     H30207   3.660   7.575  -1.169  0.6973 -1.3812  3.3560
  229MOL0     H30208   3.575   7.517  -1.396  0.9773 -0.3835  0.6300
  229MOL0     H30209   3.460   7.466  -1.271 -1.5751  1.0775 -2.2795
  229MOL0     H30210   4.771   7.482  -1.159 -1.4909 -2.5187 -0.5552
  229MOL0     H30211   4.982   7.491  -1.025 -0.6793  2.1426 -0.8235
  229MOL0     H30212   5.381   7.562  -0.792  2.7609  0.5433  1.0957
  229MOL0     H30213   5.529   7.597  -0.614 -1.4091 -0.3886 -2.5123
  229MOL0     H30214   6.717   7.846   0.613  1.2167  0.5054  0.2621
  229MOL0     H30215   6.928   7.904   0.680  1.2762 -0.1181  0.0378
  229MOL0     H30216   7.305   7.818   0.905  0.5622 -2.0316  0.0502
  229MOL0     H30217   7.542   7.868   0.995  0.4521 -1.0725  1.0910
  229MOL0     H30218   7.588   8.063   1.371 -0.6707 -1.9733 -1.3663
  229MOL0     H30219   7.617   8.197   1.255 -2.6064 -1.9169 -1.6239
  229MOL0     H30220   7.856   8.124   1.246 -2.3535 -1.3586 -3.1571
  229MOL0     H30221   7.799   8.140   1.415 -1.0400  2.6066 -1.0714
  229MOL0     H30222   7.834   7.878   1.236 -0.5834 -0.8237  1.0937
  229MOL0     H30223   7.779   7.871   1.401  0.7735  0.8405  1.2331
  229MOL0     H30224   8.017   7.823   1.377 -0.7505  0.0792  0.7535
  229MOL0     H30225   8.046   7.975   1.317  1.8848 -0.8571  1.5036
  229MOL0     H30226   7.981   8.031   1.740  2.5163 -0.6362  0.6155
  229MOL0     H30227   7.379   8.088   1.321  0.3619 -0.3497 -0.2129
  229MOL0     H30228   7.156   8.065   1.223  1.2700  2.8442 -0.8839
  230MOL0     O30229   0.184   5.010   7.658  0.0471  0.0860  0.4744
  230MOL0     C30230   0.194   5.087   7.752  1.1817  0.3004  0.0732
  230MOL0     O30231   0.089   5.127   7.825  0.2522 -0.0508 -0.8651
  230MOL0     C30232  -0.037   5.068   7.803 -0.4568  0.6857  0.2197
  230MOL0     C30233  -0.109   5.025   7.916  0.3642  0.7139  0.6965
  230MOL0     C30234  -0.240   4.979   7.906 -0.3205 -0.4132 -0.3538
  230MOL0     C30235  -0.301   4.969   7.778  0.1259  0.6764  0.1062
  230MOL0     O30236  -0.433   4.926   7.779  0.2385 -0.1730  0.4789
  230MOL0     C30237  -0.505   4.927   7.651  0.2575 -0.6070 -0.5232
  230MOL0     C30238  -0.631   4.864   7.675 -0.3592 -0.0065 -0.2839
  230MOL0     C30239  -0.735   4.876   7.563  0.0614 -0.2664  0.5224
  230MOL0     C30240  -0.876   4.810   7.591  0.4829  0.1974  0.5304
  230MOL0     C30241  -0.975   4.840   7.476  0.2861  0.1370  0.0957
  230MOL0     C30242  -1.104   4.758   7.497  0.6749  0.3002 -0.1416
  230MOL0     C30243  -1.221   4.767   7.395  0.7524 -0.8942  0.9385
  230MOL0     C30244  -1.321   4.881   7.407 -0.3232  0.2300 -0.5590
  230MOL0     N30245  -1.425   4.889   7.299  0.4501 -0.4620 -0.0063
  230MOL0     C30246  -1.521   4.798   7.268  0.1568 -0.6411 -0.1377
  230MOL0     C30247  -1.589   4.860   7.165 -0.0610 -0.1222 -0.0698
  230MOL0     C30248  -1.699   4.792   7.101 -0.0479 -0.7920 -0.0871
  230MOL0     C30249  -1.814   4.882   7.057 -0.1881 -0.4663 -1.3166
  230MOL0     C30250  -1.780   4.974   6.940  1.1121  0.5425  0.7582
  230MOL0     C30251  -1.896   5.049   6.882  1.0243  0.1322  0.6116
  230MOL0     O30252  -1.971   4.964   6.792  0.0886  0.9218 -0.6095
  230MOL0     C30253  -2.084   5.018   6.737  0.8806 -1.1172 -0.4691
  230MOL0     C30254  -2.115   5.158   6.727  0.1083 -0.0912  0.4870
  230MOL0     C30255  -2.242   5.197   6.685  1.0050  0.1662 -0.0048
  230MOL0     C30256  -2.337   5.102   6.641 -0.1432  0.1815 -0.7177
  230MOL0     C30257  -2.465   5.153   6.582  0.2186  0.0355  0.1544
  230MOL0     O30258  -2.527   5.073   6.490 -0.6053  0.3192  0.3533
  230MOL0     C30259  -2.634   5.118   6.428  0.6303 -0.1619 -0.3896
  230MOL0     C30260  -2.758   5.107   6.488  0.5037 -0.5781 -0.8505
  230MOL0     C30261  -2.876   5.147   6.416 -0.7192  0.6638  0.1130
  230MOL0     C30262  -2.869   5.210   6.298  0.5024 -0.3353  0.3143
  230MOL0     O30263  -2.976   5.243   6.229 -0.0277  0.4055  0.0724
  230MOL0     C30264  -2.983   5.208   6.087  0.4597  0.3377 -0.1331
  230MOL0     C30265  -3.129   5.181   6.040  0.2255 -0.2517 -0.0743
  230MOL0     C30266  -3.144   5.186   5.892  0.5418 -1.4703 -0.6879
  230MOL0     C30267  -3.297   5.187   5.866 -0.4545 -0.8364 -0.5501
  230MOL0     C30268  -3.323   5.165   5.713  0.8160 -0.2591 -0.3148
  230MOL0     C30269  -3.475   5.184   5.666 -0.2649  0.7597  0.0884
  230MOL0     C30270  -3.511   5.067   5.570  0.8373  0.4900 -0.0776
  230MOL0     C30271  -3.642   5.103   5.505  0.1672 -0.2809  0.2369
  230MOL0    Cl30272  -3.781   5.115   5.636 -0.6515 -0.4217 -0.4852
  230MOL0     C30273  -2.741   5.222   6.237  0.0080  0.1099  0.7260
  230MOL0     C30274  -2.625   5.165   6.300  0.1550 -0.4028 -0.5569
  230MOL0     O30275  -2.501   5.265   6.615 -0.5707 -0.1517  0.2616
  230MOL0     C30276  -2.317   4.964   6.660 -0.2874  0.0051  0.0914
  230MOL0     C30277  -2.193   4.925   6.707 -0.6768 -0.2182  0.2191
  230MOL0     N30278  -1.537   4.979   7.134 -0.2354  0.6087  0.3610
  230MOL0     N30279  -1.437   4.993   7.215  0.1336 -0.4057  0.1151
  230MOL0     C30280  -0.224   5.009   7.665 -0.4494  0.7880 -0.6821
  230MOL0     C30281  -0.097   5.060   7.676 -0.3157 -0.7244  0.5633
  230MOL0     C30282   0.334   5.140   7.776  1.0777  0.0579  1.1508
  230MOL0     C30283   0.446   5.068   7.732 -0.9521 -0.8315  0.4956
  230MOL0     C30284   0.572   5.134   7.755  0.5834  0.4268 -0.0586
  230MOL0     C30285   0.578   5.241   7.848  0.2788 -0.5481 -0.4987
  230MOL0     O30286   0.689   5.307   7.883 -0.0971 -0.0762  0.3754
  230MOL0     C30287   0.817   5.243   7.873  0.0200  0.0557  0.4096
  230MOL0     C30288   0.880   5.235   8.012  0.1310 -0.8771 -0.6956
  230MOL0     C30289   0.913   5.374   8.072 -0.6560  0.1727 -0.7600
  230MOL0     C30290   0.997   5.361   8.204  0.1942 -0.3557 -0.4415
  230MOL0     C30291   1.095   5.252   8.211 -0.3304  0.1896  0.1178
  230MOL0     C30292   1.176   5.162   8.235 -1.0834  0.9826  0.5967
  230MOL0     C30293   0.467   5.304   7.902  1.1081 -0.1734  0.1846
  230MOL0     C30294   0.341   5.244   7.864  0.2750  0.1500 -0.4796
  230MOL0     H30295  -0.059   5.058   8.006  0.8169 -0.9498  1.0862
  230MOL0     H30296  -0.299   4.969   7.996  0.9474  0.5095  0.6050
  230MOL0     H30297  -0.451   4.869   7.575  1.5345 -3.3081  2.2230
  230MOL0     H30298  -0.503   5.029   7.611  0.2556  0.1208  1.2491
  230MOL0     H30299  -0.682   4.893   7.767 -3.0897 -3.3373 -0.5701
  230MOL0     H30300  -0.609   4.757   7.688 -0.4755  0.2837  3.2273
  230MOL0     H30301  -0.703   4.827   7.470 -1.7369  1.3677 -1.0721
  230MOL0     H30302  -0.752   4.981   7.537 -2.0368  0.2714  3.5279
  230MOL0     H30303  -0.870   4.701   7.604  2.2877  0.3075  0.9178
  230MOL0     H30304  -0.916   4.847   7.686  1.7171  0.8764  0.8004
  230MOL0     H30305  -0.927   4.837   7.378 -1.2030  3.7873 -0.9264
  230MOL0     H30306  -0.994   4.948   7.477 -0.7266 -0.0199  1.2943
  230MOL0     H30307  -1.142   4.768   7.599 -2.0613 -3.4238 -0.5773
  230MOL0     H30308  -1.078   4.651   7.502 -2.0741 -0.4699 -0.9530
  230MOL0     H30309  -1.170   4.774   7.298 -1.4356 -2.8658 -0.4669
  230MOL0     H30310  -1.280   4.676   7.406  2.5379 -2.4415 -1.2591
  230MOL0     H30311  -1.270   4.977   7.413  3.8279 -1.8293  3.4542
  230MOL0     H30312  -1.368   4.875   7.506 -0.2346 -0.3927 -0.5466
  230MOL0     H30313  -1.546   4.712   7.329 -1.4458  0.9762  1.6307
  230MOL0     H30314  -1.733   4.712   7.167 -0.7450 -2.2837 -2.1134
  230MOL0     H30315  -1.652   4.747   7.013  0.7098  0.6313 -0.4446
  230MOL0     H30316  -1.845   4.943   7.142 -1.0498  0.8838 -2.5636
  230MOL0     H30317  -1.896   4.817   7.026  1.2411 -2.0551 -1.8758
  230MOL0     H30318  -1.708   5.053   6.962  1.4840  0.4030  0.0865
  230MOL0     H30319  -1.735   4.914   6.860  0.0994  1.2871 -0.4059
  230MOL0     H30320  -1.859   5.136   6.827  0.3429  0.8817  1.3059
  230MOL0     H30321  -1.958   5.091   6.962 -0.5130  2.6201 -1.6912
  230MOL0     H30322  -2.039   5.230   6.754 -0.1980  0.9800 -1.4069
  230MOL0     H30323  -2.263   5.303   6.674  1.0558  0.2950  1.0334
  230MOL0     H30324  -2.763   5.059   6.585  0.4361 -2.2739 -1.6619
  230MOL0     H30325  -2.976   5.122   6.450 -0.0207 -1.2839  0.8462
  230MOL0     H30326  -2.920   5.121   6.067 -0.0104 -0.3389  1.1665
  230MOL0     H30327  -2.961   5.293   6.022 -0.6789 -0.2553 -1.3574
  230MOL0     H30328  -3.193   5.262   6.076  1.8018  0.5668  1.0141
  230MOL0     H30329  -3.179   5.094   6.084 -1.8844  2.0659  2.4543
  230MOL0     H30330  -3.088   5.101   5.851  0.9265 -1.4718 -0.1673
  230MOL0     H30331  -3.097   5.275   5.849 -0.1770 -0.2327  0.9903
  230MOL0     H30332  -3.352   5.110   5.920 -1.4104 -0.8225 -1.4513
  230MOL0     H30333  -3.342   5.284   5.892  1.6009  0.1576 -0.5368
  230MOL0     H30334  -3.287   5.064   5.692  0.3867 -0.3585 -0.5773
  230MOL0     H30335  -3.257   5.234   5.660  1.5483  0.5346  1.5357
  230MOL0     H30336  -3.469   5.279   5.613 -0.7770 -0.1696 -1.7119
  230MOL0     H30337  -3.551   5.184   5.745  0.1886  2.9084  0.5857
  230MOL0     H30338  -3.428   5.062   5.499  1.9601 -0.2437  1.2390
  230MOL0     H30339  -3.510   4.970   5.620 -1.3549  0.0415 -0.7613
  230MOL0     H30340  -3.676   5.029   5.432 -0.3908  0.3145 -0.1219
  230MOL0     H30341  -3.629   5.197   5.452  0.0699  1.0221  2.3914
  230MOL0     H30342  -2.726   5.264   6.138  0.7446  2.7938  1.8845
  230MOL0     H30343  -2.527   5.171   6.253 -0.9309 -0.4612 -2.9695
  230MOL0     H30344  -2.387   4.888   6.626  1.7267 -0.1436 -4.5709
  230MOL0     H30345  -2.178   4.821   6.735  0.5788  0.1033  0.8195
  230MOL0     H30346  -0.269   5.024   7.568  2.0519  2.8642 -1.6520
  230MOL0     H30347  -0.045   5.098   7.588  1.6164 -2.1504  1.0450
  230MOL0     H30348   0.440   4.975   7.677  0.6594 -2.1957  2.4556
  230MOL0     H30349   0.657   5.078   7.716 -0.0476 -1.0580  0.6540
  230MOL0     H30350   0.875   5.315   7.815  1.5502  0.4577  2.2964
  230MOL0     H30351   0.823   5.143   7.830  3.0773  0.6643 -0.8192
  230MOL0     H30352   0.812   5.182   8.079 -1.4964  1.6095 -0.2291
  230MOL0     H30353   0.972   5.176   8.008  0.0527 -1.0787  0.1307
  230MOL0     H30354   0.820   5.421   8.106 -0.6795 -0.3421 -0.1186
  230MOL0     H30355   0.961   5.434   7.994  1.0978 -1.3439 -0.9200
  230MOL0     H30356   1.043   5.458   8.225  0.3062 -0.5383  0.1970
  230MOL0     H30357   0.935   5.351   8.294 -2.2490  0.0979 -1.9854
  230MOL0     H30358   1.236   5.077   8.261 -2.2130 -0.2671 -0.7767
  230MOL0     H30359   0.480   5.382   7.976  3.8017 -0.0522 -0.3126
  230MOL0     H30360   0.246   5.281   7.900 -0.8539 -3.7312  1.0281
  231MOL0     O30361   4.971   3.760   1.125 -0.1579 -0.0889 -0.1444
  231MOL0     C30362   4.992   3.641   1.104 -0.2386 -0.0442 -0.2580
  231MOL0     O30363   4.912   3.540   1.151 -0.9917 -0.6026  0.6738
  231MOL0     C30364   4.785   3.559   1.186 -0.0659  0.2832  0.1616
  231MOL0     C30365   4.689   3.630   1.111 -0.0746 -0.4451  0.0089
  231MOL0     C30366   4.558   3.637   1.161 -0.3487  0.0081 -0.4424
  231MOL0     C30367   4.521   3.578   1.283  0.1418 -0.1451  0.6810
  231MOL0     O30368   4.389   3.593   1.313  0.2396  0.0116 -0.6425
  231MOL0     C30369   4.344   3.614   1.453 -0.3334  0.6973  0.0936
  231MOL0     C30370   4.378   3.756   1.503  0.3394 -0.6275  0.7983
  231MOL0     C30371   4.274   3.865   1.456  0.2711  0.5652 -0.5609
  231MOL0     C30372   4.233   3.858   1.306  0.0117 -0.2479 -0.5271
  231MOL0     C30373   4.137   3.976   1.260 -0.9511 -0.4473 -0.5317
  231MOL0     C30374   3.999   3.968   1.335 -0.1769  0.0866  0.2568
  231MOL0     C30375   3.919   3.848   1.302 -1.0021 -0.6144 -0.8418
  231MOL0     C30376   3.767   3.880   1.326 -0.2874 -0.6980  0.6322
  231MOL0     N30377   3.725   3.887   1.466 -0.0013 -0.8337 -0.2083
  231MOL0     C30378   3.616   3.975   1.501  0.3256 -0.2264 -0.8191
  231MOL0     C30379   3.608   3.972   1.639 -0.0282 -0.5824  0.5060
  231MOL0     C30380   3.514   4.054   1.726  0.9546 -0.6614  0.5112
  231MOL0     C30381   3.378   3.980   1.739  0.1996  0.0353  1.0153
  231MOL0     C30382   3.293   4.055   1.848 -0.9124  0.1787  0.1691
  231MOL0     C30383   3.151   3.988   1.857  0.8055 -0.1457 -0.1955
  231MOL0     O30384   3.064   4.074   1.937 -0.4298  0.0264 -0.3841
  231MOL0     C30385   2.936   4.034   1.937 -0.1472  0.3448  0.4124
  231MOL0     C30386   2.872   4.025   2.065  0.4435 -0.5270 -0.1051
  231MOL0     C30387   2.736   3.990   2.068  0.5843  0.2262  0.0762
  231MOL0     C30388   2.671   3.948   1.957 -0.4892  0.5351 -0.5173
  231MOL0     C30389   2.534   3.900   1.968 -0.1319  0.0778  0.8806
  231MOL0     O30390   2.450   3.911   1.861 -0.3755 -0.7625 -0.2869
  231MOL0     C30391   2.318   3.888   1.877 -0.7331  1.4448 -0.3207
  231MOL0     C30392   2.255   3.816   1.779  0.6061  0.8165 -0.2871
  231MOL0     C30393   2.114   3.810   1.774 -0.7262  0.1059  0.3072
  231MOL0     C30394   2.040   3.853   1.879 -0.2193  0.1475  0.2029
  231MOL0     O30395   1.906   3.819   1.898 -0.2087  0.6621  0.2825
  231MOL0     C30396   1.890   3.671   1.892 -0.1145  0.5666 -0.4483
  231MOL0     C30397   1.774   3.626   1.973  0.1083 -0.3882  0.1291
  231MOL0     C30398   1.803   3.631   2.122 -0.2670  0.1033 -0.7655
  231MOL0     C30399   1.676   3.585   2.204 -0.2440 -0.7721  0.4917
  231MOL0     C30400   1.727   3.553   2.343  0.4851  0.4988 -0.1177
  231MOL0     C30401   1.612   3.486   2.419  0.5700  0.3398  0.3371
  231MOL0     C30402   1.653   3.451   2.565  0.0272  0.3573  0.5679
  231MOL0     C30403   1.543   3.366   2.625 -0.4190 -0.5514 -0.1887
  231MOL0    Cl30404   1.405   3.454   2.672  0.0373 -0.0715  0.0783
  231MOL0     C30405   2.111   3.921   1.980  0.0640 -0.3742  0.5281
  231MOL0     C30406   2.248   3.944   1.978  1.5043 -0.0684 -0.7152
  231MOL0     O30407   2.505   3.847   2.074 -0.3441 -0.3170 -0.5465
  231MOL0     C30408   2.732   3.954   1.834 -0.2061  0.4272 -0.3422
  231MOL0     C30409   2.861   3.991   1.827  0.2309 -0.4065  0.2567
  231MOL0     N30410   3.719   3.890   1.683  0.6155 -0.3325  0.2671
  231MOL0     N30411   3.779   3.835   1.579 -0.0838 -0.5912 -0.2274
  231MOL0     C30412   4.614   3.513   1.364  0.3603 -0.3731  0.2374
  231MOL0     C30413   4.744   3.501   1.311 -0.1609 -0.0523 -0.3729
  231MOL0     C30414   5.120   3.612   1.028 -0.0418 -0.1299  0.1602
  231MOL0     C30415   5.153   3.487   0.977 -0.3873  0.2719 -0.7625
  231MOL0     C30416   5.274   3.473   0.910 -0.6869 -0.4839  0.1470
  231MOL0     C30417   5.365   3.571   0.884 -0.3595 -0.4778 -0.0909
  231MOL0     O30418   5.482   3.563   0.810  0.0817 -0.1681 -0.9483
  231MOL0     C30419   5.526   3.439   0.769  0.8122 -0.2250  0.2320
  231MOL0     C30420   5.674   3.453   0.741 -1.3534 -0.0575 -0.2632
  231MOL0     C30421   5.719   3.329   0.664  0.1764 -0.1689 -0.2821
  231MOL0     C30422   5.863   3.346   0.604  0.2769  0.5569  0.7377
  231MOL0     C30423   5.956   3.330   0.711  0.1861  1.2000 -0.0651
  231MOL0     C30424   6.048   3.314   0.795 -0.0491  0.4506  0.7767
  231MOL0     C30425   5.333   3.700   0.934  0.2371 -0.3325  0.4535
  231MOL0     C30426   5.217   3.724   1.008  0.6751  0.4079 -0.4398
  231MOL0     H30427   4.722   3.680   1.021  2.5278 -1.2077  0.4464
  231MOL0     H30428   4.488   3.706   1.114  0.1605  1.2422  0.5520
  231MOL0     H30429   4.401   3.538   1.508  2.1823  1.8156 -0.8358
  231MOL0     H30430   4.239   3.598   1.479  0.4188 -1.5726  2.1858
  231MOL0     H30431   4.476   3.787   1.465 -0.0506  1.6502  1.4408
  231MOL0     H30432   4.386   3.761   1.612  2.9453  0.4000  0.6247
  231MOL0     H30433   4.311   3.965   1.478 -2.4457  1.4215  0.4665
  231MOL0     H30434   4.180   3.853   1.511  0.5895 -1.9907 -0.4408
  231MOL0     H30435   4.321   3.852   1.242  0.1118  0.9554 -0.5231
  231MOL0     H30436   4.183   3.761   1.305 -0.3584 -0.0947  0.8765
  231MOL0     H30437   4.108   3.966   1.155 -2.8673 -1.6081  0.0653
  231MOL0     H30438   4.207   4.059   1.272  0.5125 -1.9653  2.8053
  231MOL0     H30439   3.942   4.061   1.323 -1.5604 -0.4106  2.4793
  231MOL0     H30440   4.034   3.969   1.438  3.1733  2.8522 -0.6858
  231MOL0     H30441   3.936   3.816   1.199  1.8798  0.1758 -0.7111
  231MOL0     H30442   3.955   3.767   1.366 -0.1885  0.0592 -0.4151
  231MOL0     H30443   3.705   3.812   1.266 -1.0364 -1.0726  1.8090
  231MOL0     H30444   3.744   3.981   1.290 -1.8775 -2.8708 -5.7428
  231MOL0     H30445   3.566   4.039   1.429 -1.9162  0.0414  0.8540
  231MOL0     H30446   3.495   4.156   1.692  1.6924 -0.2241  1.3647
  231MOL0     H30447   3.559   4.072   1.824  1.5541  2.3124 -0.2158
  231MOL0     H30448   3.403   3.876   1.760  1.3900 -0.1032 -0.8064
  231MOL0     H30449   3.331   3.977   1.640 -0.6680 -1.7071  1.4431
  231MOL0     H30450   3.346   4.037   1.942  0.6827 -2.9648 -1.1786
  231MOL0     H30451   3.282   4.162   1.828 -0.8961  0.1825  0.1791
  231MOL0     H30452   3.154   3.889   1.904 -2.1891  0.6799  1.9836
  231MOL0     H30453   3.117   3.982   1.753  0.1446 -0.3887  0.0304
  231MOL0     H30454   2.930   4.061   2.150 -3.6475  1.1624  2.2306
  231MOL0     H30455   2.690   3.988   2.166  0.1844 -0.8372 -0.1296
  231MOL0     H30456   2.314   3.799   1.690  1.0044  1.9002 -0.2440
  231MOL0     H30457   2.064   3.757   1.694  1.9384  0.8736 -2.0563
  231MOL0     H30458   1.976   3.618   1.935 -0.4107  0.5466  0.1248
  231MOL0     H30459   1.882   3.643   1.787  1.0634 -1.7017 -0.0153
  231MOL0     H30460   1.759   3.519   1.953 -3.5167 -0.7540  3.4586
  231MOL0     H30461   1.675   3.669   1.955  0.5610  0.8247  0.4166
  231MOL0     H30462   1.838   3.726   2.164 -1.0012 -0.1760  0.5495
  231MOL0     H30463   1.886   3.562   2.134  2.7340  2.4572 -5.2459
  231MOL0     H30464   1.597   3.660   2.212  0.1568 -0.5425  3.7325
  231MOL0     H30465   1.637   3.494   2.158  1.3047 -0.5566 -1.3824
  231MOL0     H30466   1.759   3.648   2.387 -1.5148  2.5842 -2.7972
  231MOL0     H30467   1.816   3.490   2.340  0.0535 -0.2773  1.8419
  231MOL0     H30468   1.587   3.393   2.368  0.4283 -0.8880  2.5274
  231MOL0     H30469   1.526   3.553   2.410 -0.5206 -1.1816 -1.2295
  231MOL0     H30470   1.745   3.392   2.560  0.8460  1.4955  1.5199
  231MOL0     H30471   1.679   3.541   2.622 -1.9360 -0.3967  2.8373
  231MOL0     H30472   1.580   3.306   2.709  1.9426  1.2997  0.1917
  231MOL0     H30473   1.507   3.296   2.550 -1.1382 -1.6935  1.1736
  231MOL0     H30474   2.041   3.963   2.052 -1.6649 -2.6322  0.3078
  231MOL0     H30475   2.286   3.990   2.069  2.0072 -1.7958 -0.0054
  231MOL0     H30476   2.675   3.914   1.751  1.5957  0.5054 -1.6810
  231MOL0     H30477   2.915   3.987   1.733  0.6159  1.6073  0.3632
  231MOL0     H30478   4.586   3.465   1.457  2.5379  2.7413  2.6904
  231MOL0     H30479   4.819   3.440   1.361  1.9420  3.2746  0.8934
  231MOL0     H30480   5.097   3.395   0.972 -0.5692  0.1162  2.2142
  231MOL0     H30481   5.287   3.372   0.870 -2.5893 -1.8125  2.5917
  231MOL0     H30482   5.466   3.410   0.682 -0.8959  0.3235  1.1821
  231MOL0     H30483   5.519   3.364   0.848  0.1967 -1.9441 -1.3688
  231MOL0     H30484   5.708   3.536   0.679  1.9975 -1.2497 -0.2366
  231MOL0     H30485   5.723   3.468   0.838 -1.5030 -0.9849 -0.0319
  231MOL0     H30486   5.648   3.311   0.583  1.2802  0.2005 -1.3670
  231MOL0     H30487   5.717   3.241   0.729  1.2212  0.0213  0.0339
  231MOL0     H30488   5.901   3.272   0.534 -2.6063 -1.1608  0.8448
  231MOL0     H30489   5.883   3.443   0.558  1.3577 -1.0540 -2.4543
  231MOL0     H30490   6.123   3.290   0.868  2.4041 -2.4689 -2.3651
  231MOL0     H30491   5.406   3.779   0.920  0.2170  0.2503  3.1716
  231MOL0     H30492   5.189   3.819   1.051  0.2542  1.0283 -1.9980
  232MOL0     O30493   6.941   2.246  10.963 -0.5670  0.0658 -0.0243
  232MOL0     C30494   6.990   2.182  10.870 -0.3033 -0.7002 -0.0421
  232MOL0     O30495   6.931   2.131  10.756  0.3396 -0.1831  0.2822
  232MOL0     C30496   6.792   2.143  10.740 -0.1678  0.1303  0.5885
  232MOL0     C30497   6.730   2.032  10.674 -0.4637 -0.7757 -0.6545
  232MOL0     C30498   6.591   2.034  10.655 -0.2175 -0.0998 -1.0341
  232MOL0     C30499   6.513   2.135  10.706 -0.2922  0.3113 -0.7385
  232MOL0     O30500   6.378   2.144  10.679 -0.7107  0.1779 -0.0750
  232MOL0     C30501   6.336   2.098  10.548  0.6700  0.2157  0.0352
  232MOL0     C30502   6.201   2.162  10.520 -0.5150 -0.0824  0.2172
  232MOL0     C30503   6.088   2.135  10.624 -0.5295 -0.4817 -0.0118
  232MOL0     C30504   6.071   1.982  10.657 -0.0513 -0.2754  0.7187
  232MOL0     C30505   5.961   1.939  10.748  0.6599 -0.3848  0.2516
  232MOL0     C30506   5.823   1.970  10.696 -0.2621 -0.1045 -0.5839
  232MOL0     C30507   5.793   1.910  10.559  0.6647 -1.4867  0.1269
  232MOL0     C30508   5.636   1.904  10.540 -0.2123 -0.0090  1.1320
  232MOL0     N30509   5.585   1.818  10.433  0.3734  0.3667  0.2608
  232MOL0     C30510   5.644   1.803  10.310 -0.7208  0.2467  0.1657
  232MOL0     C30511   5.566   1.720  10.247  1.3006  0.8984  0.7073
  232MOL0     C30512   5.600   1.659  10.121 -0.3700  0.1200  0.2748
  232MOL0     C30513   5.745   1.617  10.123  0.5270  0.4756 -0.5429
  232MOL0     C30514   5.785   1.533   9.994 -0.4670 -0.5906  0.3981
  232MOL0     C30515   5.942   1.520   9.993 -0.3032  0.7742  0.2329
  232MOL0     O30516   5.996   1.455   9.880 -0.7356  0.1852  0.0746
  232MOL0     C30517   6.136   1.439   9.877  0.5832 -0.3196  0.2810
  232MOL0     C30518   6.187   1.321   9.815 -0.4397 -0.4977 -1.0198
  232MOL0     C30519   6.322   1.301   9.812 -0.3140 -0.0535 -0.0713
  232MOL0     C30520   6.417   1.401   9.853 -0.5259  0.5021  0.1750
  232MOL0     C30521   6.554   1.385   9.816 -0.6718  0.2087  0.2747
  232MOL0     O30522   6.593   1.263   9.766 -0.2782 -0.1865  0.4673
  232MOL0     C30523   6.723   1.221   9.765  0.9568  0.2861  0.0229
  232MOL0     C30524   6.813   1.244   9.866  0.2853 -0.9646  0.9045
  232MOL0     C30525   6.945   1.196   9.863 -0.2884  0.5080  0.5951
  232MOL0     C30526   6.985   1.114   9.758 -0.4527  0.0278 -0.0332
  232MOL0     O30527   7.120   1.075   9.742 -0.2601 -0.7496 -0.3023
  232MOL0     C30528   7.155   0.936   9.748  0.2731 -0.1346  0.0945
  232MOL0     C30529   7.303   0.913   9.789 -0.5415  0.6922  0.3723
  232MOL0     C30530   7.343   0.934   9.939  0.0076  0.3279  0.6518
  232MOL0     C30531   7.499   0.912   9.953 -0.3781 -0.7681  0.0900
  232MOL0     C30532   7.554   0.936  10.095 -0.6699 -0.2724 -0.2023
  232MOL0     C30533   7.465   0.859  10.195 -0.6349  0.5584  0.5766
  232MOL0     C30534   7.535   0.829  10.327  0.2498  0.1759 -0.1695
  232MOL0     C30535   7.442   0.748  10.418  0.6818  0.0352 -0.3311
  232MOL0    Cl30536   7.289   0.824  10.458 -0.1737 -0.0395  0.1662
  232MOL0     C30537   6.897   1.093   9.651 -0.3116  0.6445  0.5471
  232MOL0     C30538   6.764   1.137   9.656 -0.7369  0.0609  0.2670
  232MOL0     O30539   6.628   1.478   9.827  0.2371 -0.0714  1.0812
  232MOL0     C30540   6.362   1.525   9.905  0.2618  0.1507 -0.1037
  232MOL0     C30541   6.223   1.544   9.919  0.9618 -0.9123  0.2646
  232MOL0     N30542   5.454   1.682  10.332 -0.7745 -0.4399  0.1340
  232MOL0     N30543   5.469   1.749  10.436  0.5521 -0.5285 -0.3858
  232MOL0     C30544   6.572   2.238  10.773 -0.6918  0.1977 -0.1496
  232MOL0     C30545   6.710   2.250  10.780 -0.6079 -0.0521 -1.0244
  232MOL0     C30546   7.134   2.150  10.877  0.0312  0.5637  0.0949
  232MOL0     C30547   7.200   2.097  10.757  0.1036 -0.5419 -0.7082
  232MOL0     C30548   7.331   2.054  10.758 -0.2427  0.1864 -0.4591
  232MOL0     C30549   7.406   2.065  10.880  0.8011 -0.9532  1.3435
  232MOL0     O30550   7.539   2.028  10.888  0.6534  0.6321 -0.1326
  232MOL0     C30551   7.601   1.968  10.770 -0.2248  0.2101 -0.1724
  232MOL0     C30552   7.753   1.958  10.766 -0.0288  0.0234 -0.4935
  232MOL0     C30553   7.793   1.844  10.852 -0.6570  0.4520  0.0422
  232MOL0     C30554   7.940   1.792  10.828  1.2602  0.0955  0.9303
  232MOL0     C30555   7.974   1.672  10.913  0.4501 -0.3711 -0.9079
  232MOL0     C30556   8.005   1.584  10.995 -0.5033  0.0449  0.6132
  232MOL0     C30557   7.342   2.124  10.990 -0.1001 -0.5277  0.0078
  232MOL0     C30558   7.204   2.159  10.997 -0.4135 -0.2562  0.8619
  232MOL0     H30559   6.786   1.944  10.646  0.9280  0.5875 -2.4079
  232MOL0     H30560   6.544   1.954  10.600  1.8477 -0.8964 -1.7481
  232MOL0     H30561   6.312   1.992  10.559  1.1495 -0.0558 -1.3749
  232MOL0     H30562   6.412   2.121  10.473  2.4889  2.4061  2.3617
  232MOL0     H30563   6.161   2.118  10.428 -0.8169  1.5830 -0.5007
  232MOL0     H30564   6.215   2.270  10.507  2.8489 -0.5308 -0.6101
  232MOL0     H30565   5.992   2.163  10.579 -0.3710  0.3138  0.1296
  232MOL0     H30566   6.105   2.187  10.719  1.1565 -1.3075  0.1854
  232MOL0     H30567   6.067   1.925  10.564  2.4369  1.6827 -0.7218
  232MOL0     H30568   6.166   1.957  10.706  0.9460  2.0410  0.1042
  232MOL0     H30569   5.963   1.973  10.852 -1.5107  0.1491  0.1685
  232MOL0     H30570   5.964   1.831  10.764  2.3669 -0.4035 -0.0431
  232MOL0     H30571   5.800   2.076  10.708 -0.6877 -0.2600  0.0625
  232MOL0     H30572   5.750   1.925  10.764 -2.6564  2.7235 -1.0417
  232MOL0     H30573   5.830   1.981  10.485  2.1716 -0.0151  2.1940
  232MOL0     H30574   5.845   1.814  10.547  3.5759  0.1134 -1.2670
  232MOL0     H30575   5.591   2.004  10.539  0.7914  0.4551 -0.3740
  232MOL0     H30576   5.597   1.864  10.634 -2.5460  2.8366  1.5329
  232MOL0     H30577   5.738   1.836  10.267  0.4094 -1.2043  1.4021
  232MOL0     H30578   5.588   1.728  10.036  2.2659 -0.5412 -0.7183
  232MOL0     H30579   5.537   1.571  10.107 -0.5041  0.2028  0.3533
  232MOL0     H30580   5.774   1.558  10.210  1.4162  0.2651 -0.9660
  232MOL0     H30581   5.801   1.710  10.121 -0.3980  1.0690  0.4262
  232MOL0     H30582   5.737   1.435   9.997  0.1618 -0.9668 -1.1907
  232MOL0     H30583   5.753   1.587   9.905 -1.0821 -0.8246  0.4726
  232MOL0     H30584   5.974   1.455  10.076  1.5698  1.7165  0.3197
  232MOL0     H30585   5.986   1.615  10.023  3.2653 -1.2481  2.1059
  232MOL0     H30586   6.110   1.250   9.784 -2.7899 -0.4139  3.7541
  232MOL0     H30587   6.361   1.205   9.778 -0.4373  0.3754 -1.4921
  232MOL0     H30588   6.781   1.305   9.949 -1.5951  1.4608 -1.4531
  232MOL0     H30589   7.015   1.218   9.942  0.7512 -0.0808 -0.1353
  232MOL0     H30590   7.132   0.901   9.647  1.0987 -0.1411 -0.1011
  232MOL0     H30591   7.101   0.880   9.824  4.1155 -1.8379  1.7784
  232MOL0     H30592   7.358   0.976   9.718  0.2327 -3.5205 -3.2298
  232MOL0     H30593   7.335   0.812   9.763 -2.3495  0.7451 -2.5798
  232MOL0     H30594   7.284   0.860   9.993 -0.3799 -1.9499 -2.6216
  232MOL0     H30595   7.315   1.033   9.978  1.7451 -0.2879  3.7809
  232MOL0     H30596   7.522   0.808   9.931 -1.2076 -0.6843 -1.2407
  232MOL0     H30597   7.554   0.974   9.882  1.5329 -2.0783  0.3565
  232MOL0     H30598   7.557   1.041  10.122  0.3719 -0.1449 -0.7535
  232MOL0     H30599   7.660   0.910  10.086 -1.3153 -3.7607  0.8461
  232MOL0     H30600   7.431   0.764  10.152  0.1583 -1.5097  4.1380
  232MOL0     H30601   7.376   0.920  10.213 -0.9547  0.3700 -0.3062
  232MOL0     H30602   7.624   0.766  10.320  0.7375  0.9596 -1.3346
  232MOL0     H30603   7.562   0.925  10.374  1.3004 -1.6400  3.3178
  232MOL0     H30604   7.487   0.730  10.516 -2.8902 -0.1684  1.4054
  232MOL0     H30605   7.435   0.646  10.380  0.6270 -0.1004  0.0440
  232MOL0     H30606   6.931   1.029   9.570  1.4388  1.5966  0.4836
  232MOL0     H30607   6.701   1.114   9.570 -0.6919 -0.6134  0.4116
  232MOL0     H30608   6.426   1.607   9.935  1.5324 -0.8343 -0.0116
  232MOL0     H30609   6.186   1.643   9.942  0.6698 -1.1112  0.6706
  232MOL0     H30610   6.515   2.327  10.800 -1.5510 -0.2695 -0.3738
  232MOL0     H30611   6.758   2.334  10.829 -1.2765 -0.7579  0.9326
  232MOL0     H30612   7.149   2.099  10.661 -0.0959 -0.7603 -0.6090
  232MOL0     H30613   7.365   2.002  10.670  0.3042 -1.1250  0.4927
  232MOL0     H30614   7.584   2.034  10.684  1.1351  0.6000 -0.1575
  232MOL0     H30615   7.556   1.870  10.750 -0.9648  1.0190 -3.0065
  232MOL0     H30616   7.782   1.954  10.661 -3.3158  5.0796 -1.9641
  232MOL0     H30617   7.789   2.048  10.817 -0.6543 -1.0026  1.8961
  232MOL0     H30618   7.732   1.758  10.823  0.5886 -0.7523  0.8756
  232MOL0     H30619   7.772   1.866  10.957 -1.4738  2.5749 -0.5121
  232MOL0     H30620   7.942   1.752  10.726  0.7249 -1.8972  1.6635
  232MOL0     H30621   8.013   1.873  10.840 -0.1436  1.2930  1.6231
  232MOL0     H30622   8.016   1.496  11.054 -1.2514 -1.3045 -1.1674
  232MOL0     H30623   7.390   2.144  11.086 -3.5334 -0.2822  1.8249
  232MOL0     H30624   7.139   2.188  11.079 -0.6702  1.5179  0.0830
  233MOL0     O30625   0.823   0.908   3.734  0.4342  0.4828 -0.0666
  233MOL0     C30626   0.822   0.788   3.761  0.5841  0.3371 -0.6037
  233MOL0     O30627   0.763   0.697   3.680 -0.0911  0.3044 -0.5938
  233MOL0     C30628   0.695   0.743   3.567  0.3435 -0.6103 -0.3023
  233MOL0     C30629   0.560   0.781   3.570  0.5867 -0.2505 -0.2837
  233MOL0     C30630   0.497   0.836   3.456 -0.2683  0.0412  0.6378
  233MOL0     C30631   0.564   0.850   3.332 -0.6180  0.4176  0.4273
  233MOL0     O30632   0.506   0.891   3.213  0.1320 -0.6259  0.4965
  233MOL0     C30633   0.367   0.902   3.200  0.3150  0.4222 -0.0722
  233MOL0     C30634   0.320   0.898   3.051  0.1550  1.2556  0.5236
  233MOL0     C30635   0.158   0.908   3.034  0.1807 -0.2836 -0.1194
  233MOL0     C30636   0.093   1.044   3.077  0.0085  0.0844 -0.2610
  233MOL0     C30637   0.033   1.131   2.965 -0.0471  0.5363 -0.5059
  233MOL0     C30638  -0.075   1.071   2.885 -0.8060  0.9549  0.4354
  233MOL0     C30639  -0.199   1.027   2.969  0.4436  0.0857 -0.1763
  233MOL0     C30640  -0.284   0.925   2.899  1.0789 -0.3933  0.6680
  233MOL0     N30641  -0.426   0.945   2.945 -0.8858  0.1454  0.1028
  233MOL0     C30642  -0.470   0.948   3.069 -1.4546 -0.5787 -0.6528
  233MOL0     C30643  -0.600   0.960   3.070  0.5765  0.0272  0.6854
  233MOL0     C30644  -0.692   0.972   3.189 -0.0776 -0.5034 -0.0907
  233MOL0     C30645  -0.710   1.115   3.239 -0.3829 -0.0464 -0.0748
  233MOL0     C30646  -0.789   1.212   3.150 -0.4698  0.0282  0.1278
  233MOL0     C30647  -0.929   1.151   3.116 -0.4519  0.3334 -0.1402
  233MOL0     O30648  -1.008   1.267   3.085 -0.1371 -0.0425  0.1950
  233MOL0     C30649  -1.129   1.244   3.029  0.1417 -0.0680  0.6826
  233MOL0     C30650  -1.202   1.125   3.019 -0.3892 -1.2032  0.0766
  233MOL0     C30651  -1.321   1.116   2.950 -0.1407  0.5508 -0.2667
  233MOL0     C30652  -1.379   1.232   2.896 -0.4113 -0.5328 -0.1767
  233MOL0     C30653  -1.509   1.216   2.829 -0.3002 -0.5364  0.3962
  233MOL0     O30654  -1.542   1.090   2.786  0.5315 -0.3061 -0.7843
  233MOL0     C30655  -1.659   1.079   2.720  0.1712  0.5120 -0.2125
  233MOL0     C30656  -1.769   1.012   2.786  0.2370  0.1827 -0.8976
  233MOL0     C30657  -1.886   0.988   2.724  0.5573 -0.2181  0.1013
  233MOL0     C30658  -1.901   1.033   2.597 -0.2295 -0.1169  0.5770
  233MOL0     O30659  -2.019   1.010   2.529 -0.1065  0.1717  0.0039
  233MOL0     C30660  -2.054   1.086   2.410  1.1062  0.7521 -0.4657
  233MOL0     C30661  -2.178   1.004   2.357 -0.3135 -0.2011  0.3691
  233MOL0     C30662  -2.225   1.078   2.231  0.0837  0.4372 -0.4308
  233MOL0     C30663  -2.290   0.974   2.138 -0.0527  0.2038  0.3674
  233MOL0     C30664  -2.383   1.051   2.042  0.0260 -0.0393  0.3866
  233MOL0     C30665  -2.469   0.943   1.959 -0.4483  1.3031 -0.6546
  233MOL0     C30666  -2.586   1.015   1.881  0.2796  1.1676  0.3969
  233MOL0     C30667  -2.599   0.966   1.735 -0.4583 -0.4726 -0.8182
  233MOL0    Cl30668  -2.461   1.047   1.648 -0.0610 -0.3145 -0.1783
  233MOL0     C30669  -1.797   1.116   2.531  0.9413  0.7626  1.0116
  233MOL0     C30670  -1.681   1.123   2.596 -0.3183 -0.3280 -0.2889
  233MOL0     O30671  -1.570   1.320   2.805  0.9964  0.0450  0.5248
  233MOL0     C30672  -1.311   1.357   2.920  0.5516  0.0344  0.2529
  233MOL0     C30673  -1.186   1.357   2.979 -0.6471 -1.1080  0.8010
  233MOL0     N30674  -0.635   0.968   2.942  0.1672  0.6612  0.1632
  233MOL0     N30675  -0.530   0.952   2.861 -0.0535 -0.4149  0.2119
  233MOL0     C30676   0.701   0.813   3.333  0.4011  0.1649  0.5464
  233MOL0     C30677   0.761   0.757   3.452  0.8558  0.3365 -0.1075
  233MOL0     C30678   0.866   0.747   3.891  0.2314 -1.0703 -0.5080
  233MOL0     C30679   0.988   0.801   3.941  0.3194  0.7057  0.2847
  233MOL0     C30680   1.036   0.773   4.070  0.8615 -0.7952 -0.6639
  233MOL0     C30681   0.959   0.678   4.141  0.0545 -0.0461 -0.2186
  233MOL0     O30682   1.006   0.654   4.265  0.1736  0.1220  0.6743
  233MOL0     C30683   0.938   0.592   4.372  0.3160  0.1048 -0.6615
  233MOL0     C30684   0.821   0.678   4.406 -0.1009 -0.1085  0.4469
  233MOL0     C30685   0.872   0.823   4.446  0.3597 -0.1866  0.2398
  233MOL0     C30686   0.778   0.904   4.528 -0.4762  0.2651  0.0559
  233MOL0     C30687   0.635   0.896   4.490  0.1994 -0.4945 -0.4844
  233MOL0     C30688   0.523   0.911   4.452 -0.0889  0.1869 -0.2332
  233MOL0     C30689   0.838   0.623   4.095 -0.2814  0.3089  0.0500
  233MOL0     C30690   0.792   0.652   3.970  0.3819  0.1592  0.4765
  233MOL0     H30691   0.506   0.789   3.663 -0.4444  0.2996 -0.9161
  233MOL0     H30692   0.392   0.851   3.481 -0.4389 -2.5748  1.9032
  233MOL0     H30693   0.320   0.994   3.238 -0.6074  0.3831 -1.0806
  233MOL0     H30694   0.328   0.818   3.258 -1.0683  2.4075  2.0518
  233MOL0     H30695   0.354   0.802   3.011  3.6706  2.2029  0.9018
  233MOL0     H30696   0.376   0.970   2.990  4.4338 -1.3247  0.9742
  233MOL0     H30697   0.127   0.826   3.101  4.4948 -0.9606  1.3687
  233MOL0     H30698   0.141   0.884   2.929 -1.3682  3.3621 -0.8597
  233MOL0     H30699   0.011   1.020   3.145 -0.5992 -3.3298 -1.9830
  233MOL0     H30700   0.153   1.114   3.136 -1.3241  0.8598  0.2133
  233MOL0     H30701   0.109   1.185   2.907 -0.6165  1.2450 -0.6134
  233MOL0     H30702  -0.012   1.216   3.017  1.3072  2.6780 -2.6514
  233MOL0     H30703  -0.030   0.987   2.831 -0.6091  0.3232  1.5664
  233MOL0     H30704  -0.107   1.138   2.805  1.7947  3.9382  1.6812
  233MOL0     H30705  -0.178   0.980   3.065 -0.3771  0.5318  0.2328
  233MOL0     H30706  -0.260   1.117   2.983  0.4195 -0.1916  1.6293
  233MOL0     H30707  -0.250   0.826   2.931  3.2142 -0.2466 -0.9091
  233MOL0     H30708  -0.271   0.926   2.791 -2.7831  0.8809  0.0638
  233MOL0     H30709  -0.410   0.934   3.159  0.0936 -0.0588 -1.5680
  233MOL0     H30710  -0.650   0.906   3.266 -0.2026 -1.1665 -0.5853
  233MOL0     H30711  -0.787   0.928   3.159  0.4481 -1.6393 -0.1720
  233MOL0     H30712  -0.610   1.157   3.249 -0.3749 -0.2607  0.7550
  233MOL0     H30713  -0.762   1.118   3.335 -0.5372 -1.3917 -0.0954
  233MOL0     H30714  -0.798   1.306   3.205  0.8700 -0.4555  1.2169
  233MOL0     H30715  -0.733   1.235   3.059 -0.2980 -0.8464  0.0059
  233MOL0     H30716  -0.973   1.097   3.200 -1.6259  1.0351 -0.2833
  233MOL0     H30717  -0.925   1.091   3.025 -1.3956  1.2680 -0.8177
  233MOL0     H30718  -1.166   1.039   3.075  1.6456 -0.1549  0.4613
  233MOL0     H30719  -1.375   1.023   2.963 -2.0420  1.9531  3.1807
  233MOL0     H30720  -1.739   0.984   2.887  0.9518  0.9565 -0.8841
  233MOL0     H30721  -1.979   0.941   2.757 -1.3707  1.7472 -2.1268
  233MOL0     H30722  -1.980   1.090   2.329  0.4857  2.0590 -0.9924
  233MOL0     H30723  -2.083   1.187   2.439 -3.8808 -0.6469  0.2071
  233MOL0     H30724  -2.253   0.993   2.436 -2.0102 -0.9319 -1.2827
  233MOL0     H30725  -2.141   0.904   2.335  1.1227  0.4134 -0.1177
  233MOL0     H30726  -2.145   1.115   2.165  0.4362  2.9539  1.2590
  233MOL0     H30727  -2.293   1.163   2.241 -2.3931 -1.1101 -2.7431
  233MOL0     H30728  -2.214   0.915   2.086  0.3983  0.4271  0.7646
  233MOL0     H30729  -2.347   0.900   2.196  3.5666 -1.7179  1.8261
  233MOL0     H30730  -2.337   1.133   1.986 -1.6154  1.4679  1.1478
  233MOL0     H30731  -2.447   1.109   2.109 -3.1024 -2.8759  0.1040
  233MOL0     H30732  -2.497   0.857   2.022 -0.9627  1.3083 -0.8701
  233MOL0     H30733  -2.402   0.906   1.882  0.6863  0.5237  0.6521
  233MOL0     H30734  -2.680   0.997   1.934 -0.9109  0.5481 -1.8054
  233MOL0     H30735  -2.571   1.123   1.890  1.7705  1.1237 -1.1261
  233MOL0     H30736  -2.698   0.998   1.703 -0.5598  2.3981  1.8832
  233MOL0     H30737  -2.599   0.857   1.733 -3.9452 -0.7668  2.5616
  233MOL0     H30738  -1.813   1.142   2.427 -1.3209  3.1868  1.8442
  233MOL0     H30739  -1.600   1.159   2.534  1.9317  0.3273  2.7926
  233MOL0     H30740  -1.354   1.448   2.880  1.1961  0.8055  1.2640
  233MOL0     H30741  -1.121   1.440   3.002  1.0843 -2.4110  0.8216
  233MOL0     H30742   0.753   0.826   3.239  1.8647 -0.3217  1.2546
  233MOL0     H30743   0.864   0.725   3.439  0.5380 -0.1263 -1.8325
  233MOL0     H30744   1.044   0.867   3.875  3.6282 -1.0583  1.0590
  233MOL0     H30745   1.123   0.823   4.112 -0.0385  2.1767 -2.0422
  233MOL0     H30746   1.001   0.586   4.461 -1.6197  0.7373  0.8140
  233MOL0     H30747   0.913   0.494   4.331  2.6231  0.1563 -2.4442
  233MOL0     H30748   0.746   0.692   4.328 -0.4596 -0.5673  0.7013
  233MOL0     H30749   0.773   0.644   4.499 -3.3734  0.8665 -0.7403
  233MOL0     H30750   0.888   0.877   4.351  2.3384 -3.1667 -1.2763
  233MOL0     H30751   0.971   0.830   4.491 -0.1820 -1.0013  1.6034
  233MOL0     H30752   0.787   0.875   4.633  1.8533 -0.4961 -0.2846
  233MOL0     H30753   0.815   1.008   4.526 -0.5270  0.2928  0.4388
  233MOL0     H30754   0.419   0.930   4.435 -0.0655 -0.3973 -1.0411
  233MOL0     H30755   0.771   0.557   4.149  0.6662  1.5990  3.0521
  233MOL0     H30756   0.713   0.594   3.923  1.2139 -0.5293 -0.0900
  234MOL0     O30757   7.511   8.557   1.099 -0.0258 -0.0406  0.2495
  234MOL0     C30758   7.501   8.512   1.217 -0.5639  0.2517 -0.2966
  234MOL0     O30759   7.379   8.471   1.272  0.2234  0.5652 -0.0356
  234MOL0     C30760   7.263   8.464   1.198  0.0188  0.7914 -1.2012
  234MOL0     C30761   7.166   8.556   1.212  1.0804 -0.4075 -0.1070
  234MOL0     C30762   7.040   8.545   1.143 -0.1898  0.2356  0.6713
  234MOL0     C30763   7.012   8.428   1.074 -0.1760  0.0669  0.1240
  234MOL0     O30764   6.893   8.415   1.005  1.1398  0.5633 -0.1928
  234MOL0     C30765   6.832   8.285   1.007  0.3927  0.1502 -0.8815
  234MOL0     C30766   6.682   8.294   1.004  0.1407 -0.7615 -0.1639
  234MOL0     C30767   6.625   8.374   0.886  0.2615  0.8728  0.1648
  234MOL0     C30768   6.479   8.399   0.918 -0.1991 -0.6138  0.1335
  234MOL0     C30769   6.395   8.476   0.817  0.2601 -0.3691  0.1663
  234MOL0     C30770   6.259   8.519   0.855 -0.0350 -0.7067  0.7001
  234MOL0     C30771   6.163   8.401   0.892 -0.0619 -0.2638  0.2937
  234MOL0     C30772   6.032   8.421   0.978 -0.1186 -0.5158 -0.2575
  234MOL0     N30773   5.932   8.488   0.897 -0.6918  0.2872  0.2063
  234MOL0     C30774   5.837   8.569   0.960  0.9605 -0.7744  0.5476
  234MOL0     C30775   5.738   8.585   0.863 -0.7793 -0.0525  0.2033
  234MOL0     C30776   5.605   8.653   0.871  0.7121 -0.0600 -0.2604
  234MOL0     C30777   5.492   8.615   0.767  0.2146  0.2672 -0.5412
  234MOL0     C30778   5.466   8.463   0.787  0.1502  0.2194  0.0733
  234MOL0     C30779   5.354   8.405   0.692  0.1972 -0.1633  0.7845
  234MOL0     O30780   5.238   8.471   0.729  0.2109 -0.3895  0.5718
  234MOL0     C30781   5.111   8.426   0.709  0.4836  0.2127  0.3645
  234MOL0     C30782   5.085   8.331   0.612  0.7372 -0.2062  0.0403
  234MOL0     C30783   4.954   8.296   0.586  0.0849  0.0493  0.1829
  234MOL0     C30784   4.843   8.358   0.648 -0.0779 -0.1487  0.6491
  234MOL0     C30785   4.708   8.308   0.624  0.3227  0.7993  0.9313
  234MOL0     O30786   4.604   8.384   0.677 -1.1486 -0.1343 -0.1578
  234MOL0     C30787   4.478   8.383   0.634  0.3429  0.3417 -0.4002
  234MOL0     C30788   4.369   8.395   0.726  1.2717 -1.2778 -0.6585
  234MOL0     C30789   4.239   8.424   0.684 -0.1143 -0.0406  0.7965
  234MOL0     C30790   4.201   8.432   0.547 -0.3545 -0.3270  0.5416
  234MOL0     O30791   4.075   8.435   0.506  0.3482 -0.0473  0.1843
  234MOL0     C30792   4.044   8.488   0.374 -0.2396  0.7710 -0.7508
  234MOL0     C30793   3.897   8.483   0.364 -0.4779 -1.5983 -0.4516
  234MOL0     C30794   3.832   8.351   0.363 -0.0175 -0.1343 -0.2527
  234MOL0     C30795   3.675   8.358   0.363 -0.3881 -0.2660 -0.1803
  234MOL0     C30796   3.624   8.220   0.404  0.4549  0.7835  0.5599
  234MOL0     C30797   3.466   8.228   0.384 -1.0310  0.3382 -0.0195
  234MOL0     C30798   3.392   8.102   0.441  0.0167 -0.2246 -0.3859
  234MOL0     C30799   3.254   8.150   0.485 -0.4257 -0.3440 -0.2926
  234MOL0    Cl30800   3.137   8.016   0.507 -0.2158  0.0518 -0.3092
  234MOL0     C30801   4.310   8.422   0.453  0.9471 -1.2760 -0.3461
  234MOL0     C30802   4.447   8.389   0.496  0.1080 -0.8715  0.0315
  234MOL0     O30803   4.694   8.193   0.575 -0.1273  0.2806  0.6658
  234MOL0     C30804   4.872   8.459   0.743 -0.1140 -0.3323  0.3008
  234MOL0     C30805   5.004   8.488   0.776 -1.0363  0.5292 -0.3715
  234MOL0     N30806   5.789   8.518   0.749  0.3041  0.1151  0.4181
  234MOL0     N30807   5.901   8.462   0.768  0.5599 -0.2193  0.5724
  234MOL0     C30808   7.118   8.330   1.064  0.4270  0.0117 -0.3168
  234MOL0     C30809   7.239   8.348   1.125 -0.5946 -0.9575 -0.0514
  234MOL0     C30810   7.616   8.512   1.307 -0.3180  0.1219  0.0411
  234MOL0     C30811   7.733   8.576   1.280 -0.3893  0.1844  0.0850
  234MOL0     C30812   7.844   8.568   1.372  0.1302  0.0904  0.4103
  234MOL0     C30813   7.837   8.507   1.491  0.5504  0.1471  0.4026
  234MOL0     O30814   7.949   8.514   1.572 -0.1241 -0.3590  0.6367
  234MOL0     C30815   7.994   8.379   1.620  0.4128  0.7948  0.7436
  234MOL0     C30816   8.134   8.396   1.689 -0.2842  0.4479  0.0771
  234MOL0     C30817   8.197   8.256   1.726 -0.0900 -0.8122  0.2787
  234MOL0     C30818   8.346   8.279   1.764  0.6639  0.1621 -0.3485
  234MOL0     C30819   8.416   8.167   1.822  0.2598 -0.4633 -0.3896
  234MOL0     C30820   8.470   8.072   1.865 -0.6307 -0.5403 -0.3172
  234MOL0     C30821   7.721   8.427   1.515 -0.0435  0.1088 -0.2324
  234MOL0     C30822   7.612   8.438   1.430  0.1510  0.4322  0.5208
  234MOL0     H30823   7.182   8.643   1.275 -0.8298  1.7764 -2.4310
  234MOL0     H30824   6.968   8.624   1.158 -0.3981 -0.1100  1.5349
  234MOL0     H30825   6.849   8.233   1.102 -1.0573 -1.8278 -1.6158
  234MOL0     H30826   6.878   8.218   0.935  2.6669  1.4472 -0.7087
  234MOL0     H30827   6.652   8.339   1.099  1.0245 -2.9100  1.1914
  234MOL0     H30828   6.636   8.195   1.008 -1.1358 -0.1957 -0.4739
  234MOL0     H30829   6.620   8.318   0.792 -3.8795  0.0042  0.7128
  234MOL0     H30830   6.679   8.470   0.888  3.0037 -0.5689  0.1034
  234MOL0     H30831   6.437   8.300   0.935  3.3614 -2.5612 -1.4276
  234MOL0     H30832   6.476   8.460   1.009  2.0076  1.5469 -1.1128
  234MOL0     H30833   6.386   8.408   0.732  1.3440  1.3510 -1.4155
  234MOL0     H30834   6.455   8.556   0.772  0.5164 -1.0056 -0.6528
  234MOL0     H30835   6.221   8.583   0.774  1.0982  1.6432  1.9181
  234MOL0     H30836   6.268   8.591   0.937  2.0351 -2.0703  1.7460
  234MOL0     H30837   6.138   8.335   0.808 -3.5069 -1.7359  2.2783
  234MOL0     H30838   6.228   8.341   0.957  2.5836  1.4913 -0.5370
  234MOL0     H30839   6.064   8.485   1.061 -0.0292  0.6820 -1.1938
  234MOL0     H30840   5.996   8.325   1.016  2.8568 -1.6099  0.1051
  234MOL0     H30841   5.836   8.601   1.064  0.2935 -2.6231  1.1455
  234MOL0     H30842   5.620   8.762   0.872  0.7517 -0.0528  1.4089
  234MOL0     H30843   5.565   8.633   0.971  1.5032  3.1149  0.8230
  234MOL0     H30844   5.526   8.642   0.667  0.7424  1.1390 -0.1374
  234MOL0     H30845   5.402   8.676   0.779  0.9608  1.3139 -0.1297
  234MOL0     H30846   5.559   8.410   0.763  1.4754  1.5232  2.0320
  234MOL0     H30847   5.436   8.439   0.889 -0.9965  0.4435 -0.1985
  234MOL0     H30848   5.357   8.296   0.702  2.7629 -0.1762  0.4484
  234MOL0     H30849   5.374   8.415   0.585 -0.5236 -0.7218  0.5858
  234MOL0     H30850   5.165   8.276   0.563  0.6903  0.4618 -0.7986
  234MOL0     H30851   4.924   8.223   0.512  0.2255  3.8499 -4.0510
  234MOL0     H30852   4.397   8.401   0.830  0.0247  0.1654 -0.3644
  234MOL0     H30853   4.161   8.421   0.760  2.5660 -0.7693  3.7019
  234MOL0     H30854   4.085   8.418   0.300  1.0240  0.6027  0.0848
  234MOL0     H30855   4.089   8.585   0.353  0.7273  0.3739 -0.5633
  234MOL0     H30856   3.869   8.533   0.270  0.3954 -0.2858 -0.0504
  234MOL0     H30857   3.855   8.535   0.450  1.7779 -0.9173  0.3070
  234MOL0     H30858   3.868   8.293   0.449  1.3968 -1.0702 -1.4248
  234MOL0     H30859   3.859   8.303   0.269 -0.5127  0.0048 -0.4667
  234MOL0     H30860   3.636   8.440   0.424  0.9432  0.4189 -0.1893
  234MOL0     H30861   3.651   8.388   0.260  2.4304 -0.4939 -1.0104
  234MOL0     H30862   3.650   8.198   0.508  3.6574  2.1431  0.1737
  234MOL0     H30863   3.663   8.139   0.342 -0.1438  2.2401 -1.8732
  234MOL0     H30864   3.453   8.247   0.277  2.1846 -1.1381 -0.7865
  234MOL0     H30865   3.434   8.316   0.440 -1.4421 -0.1862  0.5855
  234MOL0     H30866   3.374   8.027   0.364 -1.6774 -1.3663  1.0407
  234MOL0     H30867   3.457   8.063   0.520  1.3860  0.0987 -1.3135
  234MOL0     H30868   3.215   8.209   0.402 -0.7413 -1.5412 -1.0234
  234MOL0     H30869   3.257   8.220   0.569  0.0978 -0.9466  0.2054
  234MOL0     H30870   4.289   8.453   0.351  1.7264 -0.7258 -0.3525
  234MOL0     H30871   4.531   8.406   0.430 -0.2507  0.0465 -0.2056
  234MOL0     H30872   4.789   8.507   0.794 -3.0442 -3.6785 -0.9019
  234MOL0     H30873   5.036   8.559   0.852  0.0530 -0.5228  0.1745
  234MOL0     H30874   7.106   8.237   1.009 -0.2494 -1.2004  1.7821
  234MOL0     H30875   7.315   8.272   1.110 -0.8938 -0.6382 -4.5397
  234MOL0     H30876   7.752   8.637   1.193 -1.6549  0.4174 -0.0482
  234MOL0     H30877   7.936   8.619   1.344 -1.5902  1.3249 -3.6943
  234MOL0     H30878   8.004   8.299   1.547  1.9434 -0.0346  1.8146
  234MOL0     H30879   7.920   8.338   1.688 -2.2993  0.2060 -2.3016
  234MOL0     H30880   8.211   8.442   1.627 -1.6803 -0.4631 -2.4686
  234MOL0     H30881   8.106   8.455   1.777 -0.7618 -2.5167  2.0395
  234MOL0     H30882   8.183   8.189   1.641 -0.0909 -0.4316 -0.0238
  234MOL0     H30883   8.141   8.210   1.809  0.4237 -1.1515  0.4358
  234MOL0     H30884   8.402   8.294   1.671  1.5203 -2.8794 -0.4222
  234MOL0     H30885   8.345   8.364   1.832  0.1327 -1.0567  1.2381
  234MOL0     H30886   8.506   7.975   1.894 -2.9030 -1.7567 -1.3478
  234MOL0     H30887   7.717   8.372   1.609  1.1503  2.1425  1.0928
  234MOL0     H30888   7.519   8.385   1.445  0.1460 -0.4538 -2.1574
  235MOL0     O30889   7.175   2.350   8.162  1.3154  0.2831 -0.2336
  235MOL0     C30890   7.182   2.460   8.107 -0.1334  0.9960  0.1190
  235MOL0     O30891   7.076   2.512   8.030 -0.6927  0.3452  0.4102
  235MOL0     C30892   6.958   2.437   8.006 -0.3316  1.0373 -0.5887
  235MOL0     C30893   6.960   2.305   7.947 -0.2366 -0.7475  0.6152
  235MOL0     C30894   6.834   2.240   7.936 -1.1610  0.0282  0.0308
  235MOL0     C30895   6.722   2.305   7.987 -0.0107  0.0851 -0.2054
  235MOL0     O30896   6.591   2.262   7.977  0.8253  0.7098 -0.0902
  235MOL0     C30897   6.567   2.122   7.956 -0.2695 -0.4019 -0.1336
  235MOL0     C30898   6.415   2.096   7.984 -0.1840 -0.3494  0.4334
  235MOL0     C30899   6.359   1.971   7.925  0.4052  0.6726  0.5403
  235MOL0     C30900   6.204   1.982   7.904 -0.4286 -0.6970 -0.2552
  235MOL0     C30901   6.149   1.857   7.838  0.4197 -0.5931 -0.5254
  235MOL0     C30902   6.001   1.881   7.802 -0.2077 -0.0786  0.0484
  235MOL0     C30903   5.906   1.898   7.924  0.3204  0.9340  0.1388
  235MOL0     C30904   5.883   1.768   8.001  0.3948 -0.6533 -0.0817
  235MOL0     N30905   5.995   1.727   8.087  0.6896  0.3026  0.0183
  235MOL0     C30906   6.056   1.803   8.190  0.2170  0.1054  0.0285
  235MOL0     C30907   6.120   1.710   8.265  0.0492  0.3076 -0.1112
  235MOL0     C30908   6.201   1.749   8.390 -1.1666  0.2829 -0.1211
  235MOL0     C30909   6.354   1.715   8.371 -0.2448  0.3018 -0.3300
  235MOL0     C30910   6.401   1.754   8.235  1.2844 -0.4219  0.8214
  235MOL0     C30911   6.552   1.740   8.231 -0.4099 -0.1332 -0.3929
  235MOL0     O30912   6.598   1.789   8.105  0.3106  0.3076 -0.2686
  235MOL0     C30913   6.733   1.808   8.084 -0.1576 -0.7734 -0.2465
  235MOL0     C30914   6.833   1.786   8.185 -0.4247  0.6351 -0.0520
  235MOL0     C30915   6.969   1.811   8.162 -0.0007 -0.6934  0.2202
  235MOL0     C30916   7.016   1.861   8.033  0.1645  0.5662  0.5787
  235MOL0     C30917   7.157   1.886   8.005 -0.3375 -0.6910  0.3255
  235MOL0     O30918   7.179   1.909   7.874 -0.0786 -0.3230  0.7125
  235MOL0     C30919   7.304   1.944   7.839 -1.0158 -0.8265  0.4048
  235MOL0     C30920   7.396   1.855   7.799  0.4489 -0.2210 -0.2501
  235MOL0     C30921   7.522   1.898   7.757  0.3229 -0.5479  0.0916
  235MOL0     C30922   7.559   2.035   7.771 -0.3920 -0.0558 -0.2342
  235MOL0     O30923   7.683   2.070   7.725 -1.0005  0.1909  0.5183
  235MOL0     C30924   7.737   2.205   7.763 -0.4102 -0.3541  0.2004
  235MOL0     C30925   7.889   2.198   7.707 -0.6789  0.0897  0.1436
  235MOL0     C30926   7.983   2.132   7.806 -0.7527 -0.4731 -0.5019
  235MOL0     C30927   8.137   2.145   7.780  0.3628 -0.7906 -0.1486
  235MOL0     C30928   8.227   2.088   7.893  0.5023 -0.1218 -0.5145
  235MOL0     C30929   8.219   2.165   8.021  0.6571 -0.4502 -0.2445
  235MOL0     C30930   8.286   2.093   8.135  0.2024 -0.3086  0.8875
  235MOL0     C30931   8.257   2.135   8.283  0.0087  0.7186 -0.1944
  235MOL0    Cl30932   8.365   2.271   8.315 -0.0209 -0.3232  0.1249
  235MOL0     C30933   7.466   2.128   7.813 -0.5485  0.0654 -0.9329
  235MOL0     C30934   7.335   2.078   7.847 -0.1378  0.1171 -0.5516
  235MOL0     O30935   7.240   1.882   8.093 -0.0734  0.6028 -0.4162
  235MOL0     C30936   6.913   1.877   7.930 -0.1197  0.6877 -0.6019
  235MOL0     C30937   6.779   1.845   7.959  0.1196 -0.4483  0.1897
  235MOL0     N30938   6.106   1.591   8.206 -0.1099 -0.0633  0.8045
  235MOL0     N30939   6.028   1.596   8.100 -0.0815 -0.0802  0.6751
  235MOL0     C30940   6.725   2.440   8.033  0.5807  0.2185 -0.4952
  235MOL0     C30941   6.846   2.506   8.044  0.7820  0.5018 -0.1220
  235MOL0     C30942   7.315   2.527   8.117 -0.2447 -0.7097  0.0627
  235MOL0     C30943   7.431   2.463   8.144 -0.0578 -0.4736  0.3547
  235MOL0     C30944   7.556   2.532   8.149  0.1279 -1.1031  0.3781
  235MOL0     C30945   7.558   2.663   8.117 -0.0552  0.4334 -0.4436
  235MOL0     O30946   7.680   2.728   8.123 -0.0660 -0.4131  0.3483
  235MOL0     C30947   7.678   2.867   8.124 -0.1808 -0.0440 -0.0480
  235MOL0     C30948   7.816   2.920   8.158 -0.1542  0.3278  0.6527
  235MOL0     C30949   7.826   3.075   8.155 -0.0143 -0.1754 -0.2763
  235MOL0     C30950   7.897   3.127   8.031  0.1647  0.2705 -0.6650
  235MOL0     C30951   7.896   3.275   8.045 -0.3649 -0.6028  0.2441
  235MOL0     C30952   7.905   3.397   8.047 -0.4379  0.5148  0.1695
  235MOL0     C30953   7.440   2.737   8.093 -0.6756  0.0573  0.6569
  235MOL0     C30954   7.322   2.668   8.093  0.1506 -0.4167  0.1364
  235MOL0     H30955   7.058   2.263   7.923 -0.1309 -0.0471 -0.2089
  235MOL0     H30956   6.825   2.141   7.892  1.3726  0.7561 -2.3623
  235MOL0     H30957   6.631   2.059   8.019  1.5131  0.6454 -0.8512
  235MOL0     H30958   6.585   2.100   7.851  3.4725  0.7241  0.1511
  235MOL0     H30959   6.362   2.184   7.946  0.1336 -1.6284 -3.4905
  235MOL0     H30960   6.397   2.083   8.091  0.7175  1.5215  0.8459
  235MOL0     H30961   6.371   1.891   7.999  2.3520  0.0031 -0.4204
  235MOL0     H30962   6.402   1.952   7.826 -3.3413 -1.4743 -0.8825
  235MOL0     H30963   6.161   2.006   8.002  1.6471 -0.4299  0.6470
  235MOL0     H30964   6.196   2.066   7.835 -0.5754  0.2875  0.9106
  235MOL0     H30965   6.174   1.767   7.895 -0.1116 -0.0085  0.6751
  235MOL0     H30966   6.208   1.840   7.747 -0.1788  2.5588 -1.6113
  235MOL0     H30967   5.975   1.791   7.746 -2.3637  0.5843 -0.1106
  235MOL0     H30968   5.983   1.966   7.734  3.3321  0.1801 -0.7545
  235MOL0     H30969   5.952   1.965   7.998  0.4443  0.0069  0.9235
  235MOL0     H30970   5.814   1.949   7.894 -0.2521 -0.8903 -1.4035
  235MOL0     H30971   5.847   1.688   7.936 -2.3462 -0.2651  0.8324
  235MOL0     H30972   5.801   1.791   8.070  2.3840 -1.4127  2.7150
  235MOL0     H30973   6.043   1.908   8.217 -0.1231 -0.1068  0.7022
  235MOL0     H30974   6.154   1.701   8.477  1.5090  0.5423  1.5872
  235MOL0     H30975   6.203   1.855   8.415  0.1564  0.1831  0.3018
  235MOL0     H30976   6.374   1.608   8.383 -1.0188  0.3177  1.3792
  235MOL0     H30977   6.410   1.773   8.444 -0.7563 -1.3321  1.4584
  235MOL0     H30978   6.361   1.692   8.154 -0.9513  1.5040  0.3303
  235MOL0     H30979   6.382   1.860   8.218 -0.5314 -1.1034 -1.9832
  235MOL0     H30980   6.593   1.638   8.237 -0.5124 -0.5511 -4.3749
  235MOL0     H30981   6.599   1.801   8.308  0.1297  2.8222 -2.8930
  235MOL0     H30982   6.800   1.753   8.283  0.8708 -0.3012  0.0957
  235MOL0     H30983   7.041   1.791   8.240  0.3200  0.7644  0.3330
  235MOL0     H30984   7.362   1.753   7.782 -1.0348  0.1447  0.4113
  235MOL0     H30985   7.594   1.826   7.718  2.6871  0.7510  1.7560
  235MOL0     H30986   7.741   2.209   7.872 -0.8022 -1.3714  0.2660
  235MOL0     H30987   7.683   2.286   7.713  1.0138  0.8951  0.6151
  235MOL0     H30988   7.923   2.302   7.697 -0.3894  0.3878  3.2380
  235MOL0     H30989   7.894   2.142   7.613 -0.1173  2.0942 -1.0921
  235MOL0     H30990   7.960   2.025   7.810  1.6190 -1.0666 -1.0342
  235MOL0     H30991   7.965   2.174   7.905 -0.7742 -1.4288 -0.0908
  235MOL0     H30992   8.151   2.088   7.688  0.7215 -0.1084 -0.5293
  235MOL0     H30993   8.165   2.249   7.759 -2.7175  0.2420  0.3598
  235MOL0     H30994   8.332   2.082   7.860  1.0310  0.1273  1.0553
  235MOL0     H30995   8.198   1.982   7.894  0.0896 -0.0681 -2.3482
  235MOL0     H30996   8.115   2.192   8.039  0.7711  1.3002 -1.9019
  235MOL0     H30997   8.265   2.263   8.012 -1.5764  1.2545  4.1612
  235MOL0     H30998   8.269   1.986   8.129 -2.2479  0.0771 -0.0618
  235MOL0     H30999   8.394   2.102   8.117  0.0216 -3.0322 -2.3137
  235MOL0     H31000   8.267   2.054   8.356  1.5134  0.0562 -1.0885
  235MOL0     H31001   8.160   2.186   8.289 -0.2161  0.3081 -0.3142
  235MOL0     H31002   7.486   2.234   7.817 -0.5470  0.0532 -0.5941
  235MOL0     H31003   7.264   2.157   7.867 -0.3902 -0.7110  2.2322
  235MOL0     H31004   6.950   1.882   7.828  0.9435  0.6931 -0.2277
  235MOL0     H31005   6.708   1.854   7.877 -1.0856 -1.2425  1.1153
  235MOL0     H31006   6.626   2.478   8.054  0.3927 -1.9312  3.3561
  235MOL0     H31007   6.849   2.604   8.091 -1.1485  0.0604  1.0086
  235MOL0     H31008   7.417   2.358   8.169  1.1570 -0.8538 -0.4339
  235MOL0     H31009   7.642   2.469   8.170  0.4909 -0.8084 -0.1792
  235MOL0     H31010   7.614   2.901   8.206  2.2489  0.8707  1.5799
  235MOL0     H31011   7.642   2.902   8.027  1.0223  4.7197  0.9939
  235MOL0     H31012   7.842   2.884   8.258 -1.8043  1.5481  1.5762
  235MOL0     H31013   7.884   2.866   8.091 -0.8041 -2.3867  2.0496
  235MOL0     H31014   7.885   3.099   8.244  0.0237  3.8365 -1.2015
  235MOL0     H31015   7.725   3.114   8.170  0.0421 -0.4984  1.0478
  235MOL0     H31016   8.002   3.097   8.036 -0.0498 -0.4513 -0.3561
  235MOL0     H31017   7.869   3.092   7.932  2.7900 -1.6862 -0.8208
  235MOL0     H31018   7.927   3.502   8.052  0.6017  0.3920 -1.1707
  235MOL0     H31019   7.443   2.842   8.065  0.3541 -0.0180  0.4286
  235MOL0     H31020   7.230   2.721   8.072  0.3371  2.4778  5.0931
  236MOL0     O31021   2.061   6.374   1.074  0.1738  0.9230 -0.1503
  236MOL0     C31022   2.098   6.401   1.188 -0.6018 -0.0156 -0.2963
  236MOL0     O31023   2.047   6.355   1.302  0.0203  0.3955  0.3458
  236MOL0     C31024   1.928   6.289   1.298 -0.3150 -0.0807 -0.7321
  236MOL0     C31025   1.912   6.175   1.222 -1.0056 -0.0049  0.6062
  236MOL0     C31026   1.801   6.099   1.234  0.3750  0.3988 -0.1488
  236MOL0     C31027   1.699   6.125   1.329 -0.3380  0.0169 -0.3432
  236MOL0     O31028   1.580   6.059   1.353  0.1299  0.3862 -0.0041
  236MOL0     C31029   1.570   5.930   1.293  0.5884 -0.2128 -0.8296
  236MOL0     C31030   1.520   5.919   1.147 -0.0685 -0.0723  0.0236
  236MOL0     C31031   1.374   5.896   1.136  0.0462 -0.1456 -0.7352
  236MOL0     C31032   1.336   5.867   0.980 -0.1021 -0.0949 -0.9395
  236MOL0     C31033   1.190   5.827   0.979  0.6045 -0.7010 -0.3762
  236MOL0     C31034   1.148   5.820   0.837  0.1463  0.2878  0.1021
  236MOL0     C31035   1.047   5.706   0.802  1.1209 -0.6965 -0.0409
  236MOL0     C31036   0.917   5.705   0.885 -0.3574  0.1979 -0.3852
  236MOL0     N31037   0.814   5.802   0.849  0.1441  0.1547 -0.1767
  236MOL0     C31038   0.760   5.822   0.723 -0.6985 -0.3409 -0.3125
  236MOL0     C31039   0.690   5.939   0.724 -0.2087 -0.2673  0.8793
  236MOL0     C31040   0.607   5.995   0.618  0.0399 -0.2959  0.0733
  236MOL0     C31041   0.454   5.963   0.635  0.4443  0.5253  0.2356
  236MOL0     C31042   0.355   6.018   0.525  0.6159  0.5456 -0.0676
  236MOL0     C31043   0.206   6.015   0.563  0.5850  1.0136  0.4902
  236MOL0     O31044   0.170   6.135   0.636 -0.0761 -0.5299  0.2149
  236MOL0     C31045   0.036   6.144   0.669 -0.9803 -0.1938 -0.0580
  236MOL0     C31046  -0.006   6.273   0.702 -0.7364  0.4929  0.7824
  236MOL0     C31047  -0.141   6.294   0.745 -0.3229  0.2095 -0.4135
  236MOL0     C31048  -0.235   6.187   0.749  0.4307 -0.3544 -0.4272
  236MOL0     C31049  -0.372   6.219   0.784  0.3670 -0.0492 -0.1146
  236MOL0     O31050  -0.414   6.351   0.816  0.3056  0.8262  0.3874
  236MOL0     C31051  -0.539   6.357   0.881 -0.1332 -0.1902 -0.2111
  236MOL0     C31052  -0.562   6.295   1.000  0.1600 -0.1730 -0.5633
  236MOL0     C31053  -0.686   6.301   1.065  0.2375 -0.2763  0.6844
  236MOL0     C31054  -0.791   6.365   1.014 -0.0201  0.1335  0.2783
  236MOL0     O31055  -0.910   6.353   1.082 -0.2063 -0.3607 -0.3595
  236MOL0     C31056  -1.033   6.387   1.028  0.0183  0.7281 -0.2918
  236MOL0     C31057  -1.142   6.359   1.135  0.1021  0.5572  0.0398
  236MOL0     C31058  -1.155   6.208   1.161  0.3078  0.2221 -0.2992
  236MOL0     C31059  -1.271   6.189   1.257 -1.0448  0.3399  0.1572
  236MOL0     C31060  -1.296   6.044   1.299  0.4939  0.0701 -0.5427
  236MOL0     C31061  -1.376   6.039   1.436  0.4535  0.2740  0.0519
  236MOL0     C31062  -1.425   5.902   1.480 -0.1856 -0.0116  0.0686
  236MOL0     C31063  -1.452   5.905   1.632  0.1944  0.2578 -0.5244
  236MOL0    Cl31064  -1.612   5.985   1.655 -0.3251 -0.2569  0.3579
  236MOL0     C31065  -0.774   6.426   0.893  0.3564 -0.1715  0.1121
  236MOL0     C31066  -0.649   6.427   0.828 -0.6768 -0.3072 -0.0864
  236MOL0     O31067  -0.445   6.119   0.774 -0.2557 -0.6241 -0.6282
  236MOL0     C31068  -0.190   6.062   0.709  0.4404  0.9024  0.0189
  236MOL0     C31069  -0.056   6.036   0.679 -0.3117  0.1345  0.3370
  236MOL0     N31070   0.721   5.992   0.849  0.1232  0.4591  0.4932
  236MOL0     N31071   0.796   5.912   0.923  0.1631  0.5051 -0.3402
  236MOL0     C31072   1.716   6.246   1.389 -1.3992 -0.1066 -0.6290
  236MOL0     C31073   1.827   6.325   1.384  0.4744 -1.2620  1.6858
  236MOL0     C31074   2.214   6.493   1.204 -0.3026 -1.2246 -0.1563
  236MOL0     C31075   2.275   6.523   1.326 -0.0842 -0.5129 -0.1917
  236MOL0     C31076   2.407   6.589   1.338  0.0450  1.2355  0.1469
  236MOL0     C31077   2.483   6.613   1.227 -0.0447  0.6266 -0.5185
  236MOL0     O31078   2.602   6.678   1.224 -0.4720 -0.1069  0.2248
  236MOL0     C31079   2.655   6.717   1.343  0.0513  0.5646  0.0069
  236MOL0     C31080   2.773   6.797   1.298 -0.4913 -0.0465  0.7992
  236MOL0     C31081   2.880   6.770   1.400  1.0642  0.2985  0.3194
  236MOL0     C31082   3.011   6.853   1.376 -1.0676  0.4503 -0.2260
  236MOL0     C31083   3.089   6.808   1.261 -0.1172  0.5505  0.6729
  236MOL0     C31084   3.159   6.797   1.167 -0.4820  0.7061 -0.4107
  236MOL0     C31085   2.417   6.589   1.100 -0.3869  0.0610 -0.3900
  236MOL0     C31086   2.296   6.521   1.088  0.2493 -0.0550 -0.8379
  236MOL0     H31087   1.996   6.145   1.161  0.7743  0.4407  2.7103
  236MOL0     H31088   1.790   6.012   1.171 -0.8132  0.9660 -0.7650
  236MOL0     H31089   1.494   5.879   1.353  1.3250  0.3219  0.6188
  236MOL0     H31090   1.667   5.882   1.305  0.5812  0.1828  1.3042
  236MOL0     H31091   1.576   5.832   1.110 -0.6869 -0.2661 -0.4737
  236MOL0     H31092   1.545   6.014   1.098  1.0397  1.6476  3.5947
  236MOL0     H31093   1.330   5.983   1.184  0.3757 -2.5695  4.6951
  236MOL0     H31094   1.356   5.801   1.187  3.2918 -0.5596 -0.1258
  236MOL0     H31095   1.365   5.962   0.935  2.6785 -0.3885  0.0115
  236MOL0     H31096   1.393   5.785   0.937 -1.6869 -1.7169 -0.0791
  236MOL0     H31097   1.127   5.879   1.052 -0.4797 -2.0269 -0.3315
  236MOL0     H31098   1.199   5.725   1.018  2.7042  0.3680  2.2422
  236MOL0     H31099   1.237   5.814   0.775 -0.6958  0.5850 -1.1841
  236MOL0     H31100   1.111   5.919   0.807  1.8909  0.6642 -0.9350
  236MOL0     H31101   1.025   5.708   0.695 -2.2714  0.5221  0.5519
  236MOL0     H31102   1.105   5.617   0.828  2.6882  0.9631  2.6429
  236MOL0     H31103   0.939   5.717   0.992 -0.7297 -1.2551 -0.1254
  236MOL0     H31104   0.872   5.607   0.871 -1.4945  0.9791 -2.6861
  236MOL0     H31105   0.769   5.756   0.638 -1.8895 -0.5974 -0.2628
  236MOL0     H31106   0.650   5.958   0.525  2.4921 -1.5480  1.6102
  236MOL0     H31107   0.618   6.104   0.617  2.6018 -0.4831  0.5645
  236MOL0     H31108   0.430   6.012   0.730  2.4882  1.0741  0.5244
  236MOL0     H31109   0.436   5.855   0.641  1.1011  0.4568  1.3066
  236MOL0     H31110   0.372   6.123   0.499 -0.2145  0.4485 -1.1087
  236MOL0     H31111   0.361   5.961   0.432  0.1353 -1.3503  1.0168
  236MOL0     H31112   0.195   5.925   0.624  0.2438 -0.3649 -1.5063
  236MOL0     H31113   0.148   6.008   0.471  0.3576  1.1170  0.6243
  236MOL0     H31114   0.060   6.358   0.696 -1.7764  1.2754 -0.0172
  236MOL0     H31115  -0.173   6.396   0.763  4.0719  1.4629  1.5915
  236MOL0     H31116  -0.478   6.243   1.046  2.0610  1.9009 -1.5407
  236MOL0     H31117  -0.688   6.245   1.158 -0.9111  1.0973  1.5295
  236MOL0     H31118  -1.045   6.340   0.930  0.1401  1.9408 -0.9145
  236MOL0     H31119  -1.024   6.492   1.000 -0.2294  0.4496 -1.4739
  236MOL0     H31120  -1.237   6.402   1.101 -1.5393 -0.9419  2.3551
  236MOL0     H31121  -1.122   6.407   1.231 -1.1806 -1.3572  1.3452
  236MOL0     H31122  -1.057   6.177   1.199  1.0676  1.9046 -0.7759
  236MOL0     H31123  -1.168   6.152   1.068 -0.5246 -0.0787 -0.0114
  236MOL0     H31124  -1.239   6.247   1.344  1.8604  0.1969 -0.7309
  236MOL0     H31125  -1.359   6.228   1.205  0.9212  1.0914 -2.8192
  236MOL0     H31126  -1.202   5.992   1.315 -0.5623 -1.3722  1.4079
  236MOL0     H31127  -1.358   5.987   1.229  1.3056 -0.3006 -0.9733
  236MOL0     H31128  -1.463   6.101   1.418  0.5446  0.6679  0.9146
  236MOL0     H31129  -1.315   6.091   1.510  0.3972 -0.7563  0.8517
  236MOL0     H31130  -1.512   5.868   1.424  0.0799  0.7280 -0.8121
  236MOL0     H31131  -1.339   5.839   1.457 -0.3884  0.2266 -1.4482
  236MOL0     H31132  -1.369   5.957   1.680 -1.2647  3.1272 -0.8891
  236MOL0     H31133  -1.462   5.801   1.663 -0.8332  0.7416  0.8861
  236MOL0     H31134  -0.862   6.459   0.838 -0.9314 -0.6225  1.8422
  236MOL0     H31135  -0.652   6.469   0.728 -1.0528 -0.8684 -0.3143
  236MOL0     H31136  -0.253   5.974   0.718  0.9279  0.1898 -2.5822
  236MOL0     H31137  -0.018   5.934   0.668 -0.2818 -0.0649  2.0538
  236MOL0     H31138   1.635   6.271   1.457 -0.9762 -4.8671  2.0684
  236MOL0     H31139   1.824   6.419   1.437 -1.1852  2.3627 -3.9562
  236MOL0     H31140   2.222   6.496   1.417  0.1741 -2.7050 -0.6318
  236MOL0     H31141   2.453   6.607   1.434 -3.1125  2.2142  1.6078
  236MOL0     H31142   2.690   6.631   1.400  1.1138  0.2682 -1.0556
  236MOL0     H31143   2.596   6.783   1.407 -1.0229  0.5400 -0.9372
  236MOL0     H31144   2.806   6.753   1.204  0.1128  1.3275  0.3428
  236MOL0     H31145   2.750   6.903   1.284 -1.3700 -0.4089 -0.6858
  236MOL0     H31146   2.914   6.666   1.395  1.8948  0.6178 -2.3308
  236MOL0     H31147   2.842   6.791   1.500  1.5172  2.6062  0.0631
  236MOL0     H31148   3.013   6.962   1.365  2.5137  0.4843 -0.6387
  236MOL0     H31149   3.076   6.836   1.462 -0.5766  2.0297 -0.2357
  236MOL0     H31150   3.221   6.790   1.080 -0.9303 -2.7421 -0.5734
  236MOL0     H31151   2.456   6.616   1.002  0.2883  0.1973 -0.0928
  236MOL0     H31152   2.269   6.510   0.983 -0.7240 -2.2079 -0.4124
  237MOL0     O31153   0.667   5.613   4.152  0.1114  0.2731  0.5555
  237MOL0     C31154   0.714   5.542   4.058 -1.0530 -0.6575 -0.2752
  237MOL0     O31155   0.655   5.436   3.998 -0.4081 -0.4195  0.0233
  237MOL0     C31156   0.522   5.444   4.012  0.0753  0.6278  0.5679
  237MOL0     C31157   0.456   5.326   4.022 -0.6870  0.8451  0.3908
  237MOL0     C31158   0.318   5.318   4.026  0.0474 -0.9450 -0.5041
  237MOL0     C31159   0.240   5.426   4.001  0.6239  0.1088  0.0229
  237MOL0     O31160   0.101   5.421   3.993  0.1236 -0.2554  0.0153
  237MOL0     C31161   0.030   5.310   4.056  0.3706  0.5313 -0.0580
  237MOL0     C31162  -0.121   5.344   4.044 -0.4132 -0.4656  1.1079
  237MOL0     C31163  -0.217   5.229   4.075 -0.0586 -0.4347 -0.4960
  237MOL0     C31164  -0.361   5.273   4.059  0.6294  0.7231  0.1493
  237MOL0     C31165  -0.457   5.157   4.102 -0.4080 -0.0804  0.7993
  237MOL0     C31166  -0.609   5.193   4.082  0.4268  0.1008 -0.8365
  237MOL0     C31167  -0.700   5.087   4.144 -0.1891  0.7213  0.2860
  237MOL0     C31168  -0.843   5.139   4.157 -0.3060 -0.3141  0.7891
  237MOL0     N31169  -0.929   5.063   4.248  0.3433  0.3802  0.4569
  237MOL0     C31170  -1.073   5.040   4.233  0.4075 -1.0738 -0.0780
  237MOL0     C31171  -1.112   4.954   4.328 -0.3465  0.3054 -0.8866
  237MOL0     C31172  -1.250   4.892   4.337  0.2435  0.0022  0.0690
  237MOL0     C31173  -1.240   4.735   4.355  0.7484 -0.1277  0.6410
  237MOL0     C31174  -1.309   4.702   4.489 -1.0065  0.4179 -0.2278
  237MOL0     C31175  -1.458   4.703   4.471 -0.9027  1.4309 -0.4833
  237MOL0     O31176  -1.535   4.704   4.595  0.0592 -0.0416 -0.0727
  237MOL0     C31177  -1.675   4.732   4.597 -0.2469 -0.3230  0.0014
  237MOL0     C31178  -1.720   4.775   4.723 -0.1428 -1.2448  0.4883
  237MOL0     C31179  -1.856   4.810   4.733  0.5609  0.9149 -0.8785
  237MOL0     C31180  -1.943   4.793   4.632  0.0023  0.7312  0.4543
  237MOL0     C31181  -2.089   4.810   4.639 -0.4679  0.1342  0.0139
  237MOL0     O31182  -2.159   4.759   4.539  0.4508  0.5933  0.2510
  237MOL0     C31183  -2.294   4.771   4.527 -0.1383  0.2768 -0.7310
  237MOL0     C31184  -2.365   4.655   4.490 -0.4107  0.2775  0.6186
  237MOL0     C31185  -2.503   4.653   4.480  0.0290  0.1123  0.2722
  237MOL0     C31186  -2.573   4.767   4.504  0.5049  1.0468  0.4685
  237MOL0     O31187  -2.712   4.752   4.479 -0.7711 -0.1976  0.2370
  237MOL0     C31188  -2.786   4.872   4.476 -0.6710 -0.1031 -0.1106
  237MOL0     C31189  -2.926   4.860   4.436  0.4460  0.1365 -0.1081
  237MOL0     C31190  -2.992   4.756   4.530 -0.0865 -0.2204  0.5156
  237MOL0     C31191  -3.138   4.714   4.478 -0.7527 -1.3799 -0.2621
  237MOL0     C31192  -3.203   4.640   4.593  0.2424  0.1627  0.2592
  237MOL0     C31193  -3.347   4.597   4.554 -0.3493  0.5766  0.2685
  237MOL0     C31194  -3.411   4.514   4.659  0.9126 -0.2837 -0.1171
  237MOL0     C31195  -3.567   4.503   4.631 -0.2305  0.5262  0.0972
  237MOL0    Cl31196  -3.649   4.663   4.633 -0.1072  0.0357 -0.2403
  237MOL0     C31197  -2.510   4.878   4.549 -0.3687 -0.9873 -0.4887
  237MOL0     C31198  -2.370   4.883   4.559 -0.6799 -0.6106  0.7957
  237MOL0     O31199  -2.135   4.861   4.744  0.2297  0.6540  0.0585
  237MOL0     C31200  -1.891   4.753   4.512  0.1892 -0.8432  0.9301
  237MOL0     C31201  -1.759   4.715   4.493  0.4056 -0.0655 -1.3220
  237MOL0     N31202  -0.999   4.926   4.400 -1.0156  0.4060  0.2175
  237MOL0     N31203  -0.894   4.988   4.352  0.0144 -0.1941 -0.2052
  237MOL0     C31204   0.299   5.546   3.961 -1.0607 -0.6571  0.2343
  237MOL0     C31205   0.442   5.562   3.977  0.4472  0.8342  0.2793
  237MOL0     C31206   0.862   5.556   4.034 -0.0894 -0.5359  0.5552
  237MOL0     C31207   0.922   5.487   3.929  0.1324  0.3756 -0.3196
  237MOL0     C31208   1.058   5.497   3.910  0.0828  0.0100  0.2052
  237MOL0     C31209   1.142   5.573   3.979 -0.1441 -0.2950 -0.3841
  237MOL0     O31210   1.271   5.579   3.937 -0.3751  0.1937 -0.2410
  237MOL0     C31211   1.348   5.699   3.947 -0.9746 -0.2518  0.7690
  237MOL0     C31212   1.483   5.660   3.904 -0.3518 -0.1162 -0.6758
  237MOL0     C31213   1.562   5.784   3.847  0.0371  1.0932  0.2643
  237MOL0     C31214   1.717   5.751   3.834 -0.2431 -0.5073 -0.0627
  237MOL0     C31215   1.764   5.718   3.970 -0.2929 -0.3647 -0.0913
  237MOL0     C31216   1.800   5.684   4.085  0.8305 -0.3126 -0.1383
  237MOL0     C31217   1.085   5.648   4.082  0.5025 -0.6165 -0.1784
  237MOL0     C31218   0.947   5.646   4.105 -0.6177  0.2766 -0.0968
  237MOL0     H31219   0.513   5.234   4.027 -0.8047  0.7943  0.8618
  237MOL0     H31220   0.274   5.220   4.038  1.0563 -1.2594  0.8810
  237MOL0     H31221   0.054   5.294   4.161 -0.3340  1.9334  0.3303
  237MOL0     H31222   0.049   5.211   4.012 -2.0213 -0.8934  1.8480
  237MOL0     H31223  -0.136   5.364   3.938  0.0009 -0.2300  1.0912
  237MOL0     H31224  -0.155   5.437   4.091  0.2603  0.4168 -0.1116
  237MOL0     H31225  -0.202   5.197   4.179 -2.3960  0.7335  0.2850
  237MOL0     H31226  -0.196   5.150   4.003 -1.7059  2.7945 -4.9645
  237MOL0     H31227  -0.380   5.350   4.134  0.8953  2.0804 -1.1242
  237MOL0     H31228  -0.386   5.298   3.955  0.9481 -2.0813 -0.6878
  237MOL0     H31229  -0.432   5.138   4.207 -0.8107 -0.7951  0.7768
  237MOL0     H31230  -0.434   5.063   4.051 -0.8731 -0.0870  0.5994
  237MOL0     H31231  -0.620   5.187   3.973  3.2789 -0.4723 -1.1954
  237MOL0     H31232  -0.633   5.290   4.126  3.4858 -0.1778  1.8328
  237MOL0     H31233  -0.689   4.994   4.088  1.8170  0.7789  0.5147
  237MOL0     H31234  -0.670   5.066   4.247 -1.0341 -3.7708 -0.1828
  237MOL0     H31235  -0.899   5.143   4.063  0.9184 -0.6800  0.0186
  237MOL0     H31236  -0.840   5.234   4.212 -1.8370 -0.8109  1.7952
  237MOL0     H31237  -1.133   5.075   4.150 -0.0949 -1.3891  0.1491
  237MOL0     H31238  -1.287   4.912   4.236  0.8536 -1.3410 -0.4411
  237MOL0     H31239  -1.310   4.934   4.419  1.0467 -0.5587  0.9719
  237MOL0     H31240  -1.137   4.705   4.335  0.9058  1.5135 -1.3941
  237MOL0     H31241  -1.286   4.670   4.279  0.0642 -0.8022  1.6171
  237MOL0     H31242  -1.278   4.607   4.535 -2.7850 -0.2278 -0.2979
  237MOL0     H31243  -1.296   4.775   4.569  1.9675 -0.8927  0.6242
  237MOL0     H31244  -1.491   4.614   4.416 -2.0513 -0.3230  2.7551
  237MOL0     H31245  -1.485   4.794   4.416 -0.0759 -0.9354 -5.3438
  237MOL0     H31246  -1.651   4.796   4.804  0.4399  0.0165 -0.3121
  237MOL0     H31247  -1.892   4.854   4.826  3.7271  1.3131  0.2844
  237MOL0     H31248  -2.306   4.568   4.464 -2.3612 -0.6461 -0.8870
  237MOL0     H31249  -2.555   4.564   4.446  0.2642 -0.6193  1.7554
  237MOL0     H31250  -2.736   4.943   4.410 -1.6288  1.9370  1.2765
  237MOL0     H31251  -2.786   4.914   4.577  1.2432  0.8000 -0.4387
  237MOL0     H31252  -2.941   4.815   4.337 -2.2689  1.6425 -0.4557
  237MOL0     H31253  -2.979   4.955   4.438 -0.1709 -0.2199  1.7213
  237MOL0     H31254  -3.008   4.799   4.629  0.9757  2.7979 -0.5120
  237MOL0     H31255  -2.942   4.658   4.532 -2.3727 -1.4460  1.4872
  237MOL0     H31256  -3.203   4.800   4.459  0.9768 -0.0840 -0.4425
  237MOL0     H31257  -3.141   4.656   4.385  0.1480 -0.7059 -0.7197
  237MOL0     H31258  -3.197   4.708   4.678  0.6049  1.5911 -0.8795
  237MOL0     H31259  -3.150   4.550   4.626  0.4257  0.2072  0.0864
  237MOL0     H31260  -3.339   4.549   4.456  1.7133  3.3697 -1.0930
  237MOL0     H31261  -3.408   4.687   4.542  0.8317  1.3418 -0.1972
  237MOL0     H31262  -3.365   4.414   4.663 -0.6983 -1.0468  0.7126
  237MOL0     H31263  -3.388   4.552   4.759  0.4028 -0.5036  0.0873
  237MOL0     H31264  -3.599   4.435   4.710  0.2789  1.1623  0.8638
  237MOL0     H31265  -3.585   4.466   4.529  2.9215  1.0981 -0.7567
  237MOL0     H31266  -2.564   4.967   4.578  1.3521  0.3393 -1.2119
  237MOL0     H31267  -2.329   4.973   4.604 -1.2725 -0.6330  1.3879
  237MOL0     H31268  -1.951   4.740   4.422  1.0739  0.8472  0.0630
  237MOL0     H31269  -1.726   4.679   4.396  3.3379  1.2711 -0.9366
  237MOL0     H31270   0.232   5.626   3.930  1.4293  1.6812  0.5103
  237MOL0     H31271   0.490   5.656   3.953  0.9502  0.8690  1.3836
  237MOL0     H31272   0.861   5.430   3.860 -2.5226  3.3664 -0.6857
  237MOL0     H31273   1.089   5.437   3.826  0.3785 -0.0381  0.3479
  237MOL0     H31274   1.342   5.738   4.049  1.0388 -0.6737  1.0821
  237MOL0     H31275   1.302   5.766   3.874 -1.8885 -0.8115  0.8101
  237MOL0     H31276   1.545   5.608   3.978  2.1543  1.0053 -1.8854
  237MOL0     H31277   1.475   5.597   3.816  0.4771 -2.6141  0.9196
  237MOL0     H31278   1.554   5.871   3.913  0.4985  1.2854  0.0684
  237MOL0     H31279   1.523   5.815   3.750  1.2879  0.7685 -0.3508
  237MOL0     H31280   1.734   5.665   3.769  2.3835  1.0027 -1.5486
  237MOL0     H31281   1.772   5.835   3.792 -0.9742  0.0697  0.1207
  237MOL0     H31282   1.834   5.672   4.186  1.0125 -0.0241 -0.1639
  237MOL0     H31283   1.153   5.722   4.124  0.9554 -0.9350 -0.3389
  237MOL0     H31284   0.919   5.706   4.190  0.7760 -0.1224  0.6755
  238MOL0     O31285   3.962   6.160   0.597 -0.2047  0.0037 -0.0711
  238MOL0     C31286   3.997   6.234   0.693  0.0607 -0.3872 -0.1569
  238MOL0     O31287   3.916   6.265   0.798 -0.4624  0.0206 -0.1490
  238MOL0     C31288   3.784   6.219   0.808 -0.6756 -0.2278 -0.4309
  238MOL0     C31289   3.676   6.284   0.743  0.6032 -0.2248  0.6438
  238MOL0     C31290   3.552   6.232   0.742 -0.1245 -0.0444 -0.1432
  238MOL0     C31291   3.529   6.112   0.808  1.6414  0.3155 -0.2810
  238MOL0     O31292   3.398   6.076   0.816  0.5273 -0.2309 -0.5792
  238MOL0     C31293   3.372   5.933   0.826 -0.6462  0.4925 -0.8949
  238MOL0     C31294   3.212   5.930   0.806 -0.0718  0.0303 -1.2013
  238MOL0     C31295   3.157   5.796   0.842  0.9685  0.3332  0.6979
  238MOL0     C31296   3.007   5.792   0.793 -0.0984  0.0139 -1.2629
  238MOL0     C31297   2.931   5.674   0.860  0.3094 -0.3799 -0.1350
  238MOL0     C31298   2.792   5.645   0.793  0.1796  0.9128  0.5791
  238MOL0     C31299   2.733   5.513   0.835  0.5175  0.1723 -0.8421
  238MOL0     C31300   2.697   5.501   0.984 -0.0003 -0.5163  0.2440
  238MOL0     N31301   2.624   5.386   1.025  0.9029 -0.3901 -0.4698
  238MOL0     C31302   2.516   5.328   0.968 -1.2935  0.5621 -0.5400
  238MOL0     C31303   2.498   5.215   1.035  0.3991 -0.7653  0.3568
  238MOL0     C31304   2.397   5.101   1.006  0.0733 -0.7641 -0.4350
  238MOL0     C31305   2.411   5.047   0.864 -0.4213  0.3805 -0.9379
  238MOL0     C31306   2.336   4.906   0.847  0.1620 -0.1658 -0.0655
  238MOL0     C31307   2.377   4.798   0.961  0.2972 -0.1190 -0.0524
  238MOL0     O31308   2.347   4.666   0.917 -0.3598 -0.2057  0.2318
  238MOL0     C31309   2.217   4.627   0.899 -0.0189  0.0508  0.2589
  238MOL0     C31310   2.157   4.646   0.779 -0.0998  0.2665 -0.0529
  238MOL0     C31311   2.026   4.608   0.755 -0.1290  0.0282 -0.1823
  238MOL0     C31312   1.968   4.525   0.847  0.9034  0.2603 -0.4496
  238MOL0     C31313   1.827   4.469   0.834  0.1140  0.0529 -0.2289
  238MOL0     O31314   1.738   4.550   0.764 -0.3159  0.7308  0.3850
  238MOL0     C31315   1.613   4.496   0.736  0.7398 -0.6261 -0.1149
  238MOL0     C31316   1.511   4.496   0.840 -0.3824 -0.3899  0.5962
  238MOL0     C31317   1.380   4.450   0.809 -0.1187  0.7027  0.0045
  238MOL0     C31318   1.344   4.399   0.685  0.3790  0.0385  0.0291
  238MOL0     O31319   1.227   4.334   0.663  0.5434  0.2482  0.5263
  238MOL0     C31320   1.148   4.307   0.776 -0.0788  0.6500 -0.5931
  238MOL0     C31321   1.015   4.257   0.721 -0.0056  0.7326 -0.1756
  238MOL0     C31322   0.915   4.211   0.832 -0.2888 -0.6711  0.4591
  238MOL0     C31323   0.789   4.150   0.769  0.5104  0.7956 -0.6170
  238MOL0     C31324   0.698   4.091   0.882 -0.1756  0.9095 -0.4286
  238MOL0     C31325   0.577   4.014   0.838 -1.3250 -0.0953  0.0484
  238MOL0     C31326   0.485   4.094   0.752  0.3392 -0.2001  0.5542
  238MOL0     C31327   0.341   4.036   0.771 -0.5091 -0.0820  0.2497
  238MOL0    Cl31328   0.328   3.880   0.684 -0.0082  0.0920  0.0391
  238MOL0     C31329   1.439   4.401   0.587  0.0826 -0.6152  0.1851
  238MOL0     C31330   1.575   4.448   0.610  0.2082 -0.4588  0.5152
  238MOL0     O31331   1.791   4.360   0.874 -0.2279 -0.5936 -0.0205
  238MOL0     C31332   2.029   4.501   0.968  0.3165 -0.5513 -0.4714
  238MOL0     C31333   2.153   4.554   0.997  0.5037 -0.1252  0.3858
  238MOL0     N31334   2.602   5.200   1.130 -0.2938  0.3378 -0.4793
  238MOL0     N31335   2.668   5.310   1.128  0.2788  0.1694 -0.3001
  238MOL0     C31336   3.631   6.054   0.876  1.5876  0.7284 -0.1514
  238MOL0     C31337   3.757   6.096   0.877 -1.5807  0.8307 -0.0338
  238MOL0     C31338   4.141   6.277   0.695  0.3407  0.5467 -0.0749
  238MOL0     C31339   4.179   6.365   0.801 -0.6890  0.5506  0.5615
  238MOL0     C31340   4.311   6.413   0.801  0.3451 -0.2570  0.5761
  238MOL0     C31341   4.406   6.369   0.703  0.2652 -0.5652 -0.5747
  238MOL0     O31342   4.531   6.416   0.715 -0.6152  0.1735  0.1631
  238MOL0     C31343   4.638   6.354   0.635 -0.2099  0.2361 -0.1860
  238MOL0     C31344   4.762   6.419   0.688 -0.2953 -0.0836 -0.2533
  238MOL0     C31345   4.887   6.329   0.679  0.1620 -0.5399 -0.1708
  238MOL0     C31346   5.007   6.416   0.716 -0.7098  0.3041  0.4666
  238MOL0     C31347   5.125   6.334   0.741 -0.2682 -0.1171  0.0965
  238MOL0     C31348   5.214   6.257   0.736 -0.1297  0.6086  0.7193
  238MOL0     C31349   4.358   6.271   0.608 -0.1320  0.4517 -0.4721
  238MOL0     C31350   4.232   6.224   0.601 -1.0604  0.6311  0.3773
  238MOL0     H31351   3.699   6.379   0.695 -0.8624 -0.9079 -1.5406
  238MOL0     H31352   3.474   6.277   0.682 -0.0841 -1.9286 -1.7062
  238MOL0     H31353   3.389   5.904   0.930 -1.4823 -2.5720 -1.5153
  238MOL0     H31354   3.429   5.869   0.758 -0.7970  0.8273 -1.3432
  238MOL0     H31355   3.174   5.950   0.706 -0.7365 -0.5153 -1.0671
  238MOL0     H31356   3.177   6.015   0.865  1.1553 -0.5972  0.5260
  238MOL0     H31357   3.177   5.763   0.944 -0.9254 -2.5442  0.2570
  238MOL0     H31358   3.205   5.722   0.777 -1.7997 -1.2066  0.2404
  238MOL0     H31359   2.956   5.885   0.821 -0.3581 -0.3860 -0.4059
  238MOL0     H31360   3.007   5.786   0.683 -0.4356 -3.1808 -1.1866
  238MOL0     H31361   2.907   5.693   0.965 -2.7283 -3.2199 -0.1549
  238MOL0     H31362   2.997   5.587   0.860  0.9384  0.0898  0.2511
  238MOL0     H31363   2.814   5.639   0.686  0.7954  1.8119  0.6501
  238MOL0     H31364   2.723   5.729   0.802 -1.0632  0.1818 -1.4670
  238MOL0     H31365   2.640   5.509   0.777  1.0332  2.2429 -1.9187
  238MOL0     H31366   2.808   5.437   0.809 -2.7086 -3.2787 -0.9224
  238MOL0     H31367   2.635   5.589   1.005 -0.6106 -1.0083  0.5222
  238MOL0     H31368   2.786   5.511   1.047  0.3995 -0.2183 -0.3577
  238MOL0     H31369   2.451   5.365   0.889  1.5557  1.8756 -2.4464
  238MOL0     H31370   2.300   5.149   1.019  0.4607  0.5654 -2.0405
  238MOL0     H31371   2.395   5.022   1.081  1.7782 -0.3773  0.0591
  238MOL0     H31372   2.518   5.034   0.846 -0.4356 -2.5376  0.4180
  238MOL0     H31373   2.378   5.109   0.780  0.1756 -0.1388 -1.5659
  238MOL0     H31374   2.228   4.921   0.854  0.1455 -0.8377  5.0181
  238MOL0     H31375   2.366   4.863   0.752 -1.0826 -1.3057  0.0270
  238MOL0     H31376   2.328   4.818   1.057  0.4255 -0.0958  0.0079
  238MOL0     H31377   2.485   4.802   0.975  0.6991 -1.7177 -2.0989
  238MOL0     H31378   2.215   4.701   0.705  1.8958 -0.6204  0.8006
  238MOL0     H31379   1.971   4.637   0.666  2.8359  0.0167 -2.1531
  238MOL0     H31380   1.522   4.541   0.938 -4.0166  1.2337  0.3939
  238MOL0     H31381   1.321   4.452   0.900  0.6466  0.3908  0.5186
  238MOL0     H31382   1.137   4.387   0.850  4.1035  2.0883 -1.2535
  238MOL0     H31383   1.199   4.237   0.843 -2.1137  1.0123  1.4331
  238MOL0     H31384   1.042   4.174   0.654  0.7763 -0.2912  1.3369
  238MOL0     H31385   0.969   4.332   0.656 -1.9054 -0.1710  0.0578
  238MOL0     H31386   0.893   4.303   0.885 -1.2447 -1.0937  0.8048
  238MOL0     H31387   0.962   4.134   0.894 -1.1842 -2.0278 -0.4827
  238MOL0     H31388   0.738   4.230   0.715 -0.9876 -0.4920 -1.1749
  238MOL0     H31389   0.812   4.060   0.711  0.3996 -1.8961  3.1504
  238MOL0     H31390   0.676   4.176   0.948  0.8312  0.5965  0.3483
  238MOL0     H31391   0.759   4.024   0.944 -1.7434 -1.4675 -1.3192
  238MOL0     H31392   0.521   3.994   0.930 -2.1453  1.2388 -0.1286
  238MOL0     H31393   0.606   3.922   0.786  0.5362  0.5603 -0.1286
  238MOL0     H31394   0.490   4.202   0.770  3.0266  0.0750 -1.1700
  238MOL0     H31395   0.515   4.076   0.648 -1.6868 -1.0116  0.0487
  238MOL0     H31396   0.268   4.113   0.748 -0.0561  0.6075  1.0980
  238MOL0     H31397   0.326   4.003   0.874  1.0612 -0.2588  0.4495
  238MOL0     H31398   1.405   4.362   0.492 -0.6258  1.7181 -0.5910
  238MOL0     H31399   1.638   4.450   0.521 -2.2586 -0.0114 -1.3200
  238MOL0     H31400   1.978   4.444   1.044  0.1434 -1.2136 -1.0654
  238MOL0     H31401   2.221   4.539   1.080  1.8050 -1.2270 -0.8288
  238MOL0     H31402   3.621   5.954   0.917  1.3948 -0.5852 -3.1617
  238MOL0     H31403   3.844   6.044   0.916 -0.5536  0.5565 -2.5023
  238MOL0     H31404   4.108   6.402   0.875 -1.1981 -0.3499  0.5304
  238MOL0     H31405   4.330   6.491   0.874 -2.1321 -0.7649  1.8645
  238MOL0     H31406   4.616   6.379   0.530 -0.8461 -2.7529 -0.8404
  238MOL0     H31407   4.638   6.246   0.652 -0.7331  0.3790  0.7643
  238MOL0     H31408   4.769   6.512   0.632 -2.2701 -0.3159 -0.9643
  238MOL0     H31409   4.754   6.455   0.791 -0.7473  0.0624 -0.3343
  238MOL0     H31410   4.891   6.289   0.578 -1.6781 -2.3848  0.4269
  238MOL0     H31411   4.878   6.250   0.754  2.0369 -1.2012 -0.5751
  238MOL0     H31412   5.020   6.488   0.634  0.5713 -0.9255 -0.4460
  238MOL0     H31413   4.990   6.474   0.807 -1.6414 -1.6728  1.6059
  238MOL0     H31414   5.293   6.188   0.713 -1.1309 -0.2861 -0.0977
  238MOL0     H31415   4.426   6.230   0.535 -0.1966 -0.3478 -0.0889
  238MOL0     H31416   4.205   6.159   0.519  0.1222  1.4381 -0.6919
  239MOL0     O31417   3.334   3.091   5.090 -0.4024  0.6191 -0.3245
  239MOL0     C31418   3.346   3.168   5.185  0.1380  0.0900  0.6306
  239MOL0     O31419   3.241   3.224   5.252 -0.4795 -0.1107  0.6688
  239MOL0     C31420   3.113   3.210   5.207  0.9377  0.6690 -0.2621
  239MOL0     C31421   3.008   3.157   5.279  0.8878 -0.1044  0.7625
  239MOL0     C31422   2.880   3.144   5.223 -0.1354  0.1677  0.6423
  239MOL0     C31423   2.859   3.170   5.087  0.6991 -0.1058  0.1870
  239MOL0     O31424   2.737   3.145   5.034 -0.6648 -0.2413 -0.5659
  239MOL0     C31425   2.661   3.264   5.038  0.3540  0.3259  0.1381
  239MOL0     C31426   2.655   3.339   4.905  0.0872  1.2113  0.3406
  239MOL0     C31427   2.587   3.477   4.903  0.1740 -0.3328 -0.2767
  239MOL0     C31428   2.664   3.574   4.990  0.5776  0.1734  0.4757
  239MOL0     C31429   2.582   3.585   5.118 -0.1443  0.0733 -0.5617
  239MOL0     C31430   2.656   3.674   5.209  1.0772  0.7191  0.5238
  239MOL0     C31431   2.586   3.705   5.333 -0.3551  0.0134  0.1486
  239MOL0     C31432   2.669   3.778   5.437  0.3326 -0.8617  0.3638
  239MOL0     N31433   2.699   3.917   5.408 -0.0013 -0.2728  0.8788
  239MOL0     C31434   2.600   4.013   5.426  0.1286 -0.5771  0.0416
  239MOL0     C31435   2.648   4.126   5.385 -0.5398  0.3737  0.7505
  239MOL0     C31436   2.580   4.262   5.393 -0.4222 -0.0073 -0.0105
  239MOL0     C31437   2.637   4.346   5.521  0.1154  0.2616 -0.0159
  239MOL0     C31438   2.591   4.491   5.513  0.7838 -0.0317  0.4947
  239MOL0     C31439   2.435   4.500   5.486  0.7482  0.2885 -0.7731
  239MOL0     O31440   2.396   4.634   5.511  0.0606  0.0829  0.0224
  239MOL0     C31441   2.263   4.661   5.519  0.3801 -0.4921  0.7805
  239MOL0     C31442   2.224   4.753   5.613 -0.5182 -0.5513 -0.1802
  239MOL0     C31443   2.089   4.780   5.630  0.5403  0.6419 -0.4066
  239MOL0     C31444   1.982   4.719   5.551 -0.2714 -0.5156 -0.8604
  239MOL0     C31445   1.835   4.755   5.564  0.2047  0.8842  0.4123
  239MOL0     O31446   1.781   4.809   5.676  0.2048  1.1432 -0.2159
  239MOL0     C31447   1.650   4.773   5.697  0.4933 -1.3205 -0.7874
  239MOL0     C31448   1.627   4.667   5.789 -0.8330  0.3157  0.2654
  239MOL0     C31449   1.500   4.632   5.816 -0.3861 -0.3792 -0.1985
  239MOL0     C31450   1.392   4.701   5.765 -0.4032  0.2033  0.5143
  239MOL0     O31451   1.267   4.657   5.797 -0.3907 -0.1120 -0.2234
  239MOL0     C31452   1.230   4.677   5.935 -0.9645 -0.0618 -0.3353
  239MOL0     C31453   1.072   4.689   5.927 -0.6626 -0.4507 -0.0945
  239MOL0     C31454   0.992   4.562   5.888 -0.6048 -0.3055  0.4412
  239MOL0     C31455   0.843   4.575   5.892  0.1805 -0.0849  0.0150
  239MOL0     C31456   0.781   4.439   5.911 -0.5447  0.2675 -0.2225
  239MOL0     C31457   0.628   4.441   5.933  0.0256  0.2757  1.1516
  239MOL0     C31458   0.572   4.298   5.917  0.1327 -0.4553  0.2776
  239MOL0     C31459   0.415   4.310   5.925 -0.7512  0.2145 -0.4535
  239MOL0    Cl31460   0.359   4.374   5.770  0.0857 -0.3290  0.0507
  239MOL0     C31461   1.416   4.811   5.678  0.4285 -0.1512  0.5286
  239MOL0     C31462   1.544   4.848   5.649  0.4553 -0.3664  0.1218
  239MOL0     O31463   1.777   4.729   5.461  0.2827 -0.0728  0.3577
  239MOL0     C31464   2.032   4.624   5.456 -0.1175  0.0073  0.5327
  239MOL0     C31465   2.166   4.599   5.439  0.6858  0.6485 -0.3303
  239MOL0     N31466   2.779   4.098   5.338 -1.3125  0.8398  0.7767
  239MOL0     N31467   2.804   3.974   5.346  0.3417  0.2145 -0.4349
  239MOL0     C31468   2.964   3.224   5.009 -0.3015 -0.3614 -0.9589
  239MOL0     C31469   3.086   3.254   5.074 -0.4423 -0.1472 -0.1886
  239MOL0     C31470   3.481   3.206   5.242  0.3228 -0.4644 -0.1242
  239MOL0     C31471   3.504   3.308   5.333  0.6301  0.3377 -0.5609
  239MOL0     C31472   3.638   3.346   5.372  0.5813 -0.3511 -1.2123
  239MOL0     C31473   3.744   3.272   5.334 -0.0574  0.5652  0.1632
  239MOL0     O31474   3.862   3.323   5.373 -0.2227 -0.3441  0.5636
  239MOL0     C31475   3.965   3.228   5.367 -1.0159  0.5501 -0.0646
  239MOL0     C31476   4.094   3.269   5.429  0.5642 -0.9922 -0.1613
  239MOL0     C31477   4.153   3.404   5.373  0.3022  0.3203  0.2262
  239MOL0     C31478   4.293   3.423   5.433  0.1863  0.6787 -0.0614
  239MOL0     C31479   4.389   3.340   5.358  1.4156 -0.1561  0.3255
  239MOL0     C31480   4.444   3.255   5.290 -0.1502 -0.1741  0.6055
  239MOL0     C31481   3.721   3.164   5.248  0.2063  0.3356 -0.6177
  239MOL0     C31482   3.590   3.136   5.200 -0.6767 -0.1448  0.4855
  239MOL0     H31483   3.021   3.117   5.379 -1.7753 -2.5992  0.2318
  239MOL0     H31484   2.799   3.090   5.270 -2.3029 -0.6139 -3.4792
  239MOL0     H31485   2.687   3.324   5.125  3.3882  0.8986 -1.0351
  239MOL0     H31486   2.561   3.227   5.063  0.1922 -0.0768 -1.0050
  239MOL0     H31487   2.608   3.269   4.835 -0.7924  0.8030  1.3252
  239MOL0     H31488   2.758   3.344   4.869  0.1792  1.2990  0.6146
  239MOL0     H31489   2.484   3.461   4.936  0.7007 -0.6412  1.3421
  239MOL0     H31490   2.596   3.507   4.799  1.6764  0.9688  0.1720
  239MOL0     H31491   2.767   3.542   5.007  0.8987 -0.3071 -1.9850
  239MOL0     H31492   2.672   3.665   4.930  2.6848 -0.3403 -0.1006
  239MOL0     H31493   2.572   3.486   5.164  2.9992 -0.5912 -1.0065
  239MOL0     H31494   2.479   3.620   5.110  0.4339  2.8351  2.3197
  239MOL0     H31495   2.677   3.770   5.162  1.2166  0.7618  0.6690
  239MOL0     H31496   2.744   3.617   5.241 -0.6474 -2.9268 -0.6938
  239MOL0     H31497   2.490   3.751   5.306 -0.7198  0.1090  1.5513
  239MOL0     H31498   2.570   3.604   5.370 -2.0047  0.1578 -0.1018
  239MOL0     H31499   2.766   3.731   5.453  1.9175  2.1064  0.1967
  239MOL0     H31500   2.620   3.772   5.534  1.9442  2.6973  1.5771
  239MOL0     H31501   2.496   4.001   5.457 -0.1302  0.5274 -0.3628
  239MOL0     H31502   2.471   4.257   5.399 -0.5032  0.3695 -0.9995
  239MOL0     H31503   2.607   4.325   5.307  1.0116 -0.4318  0.1048
  239MOL0     H31504   2.746   4.351   5.524  0.1117  0.3612 -0.0354
  239MOL0     H31505   2.612   4.303   5.618  0.4555  2.2255  1.0030
  239MOL0     H31506   2.613   4.539   5.608 -0.5558 -2.0654  1.9080
  239MOL0     H31507   2.646   4.531   5.427 -2.3668  0.5393 -1.4032
  239MOL0     H31508   2.391   4.436   5.563  1.3384  0.4069 -0.3294
  239MOL0     H31509   2.404   4.481   5.383  1.3086  2.2309 -1.3395
  239MOL0     H31510   2.299   4.821   5.652 -1.0644  0.1122 -0.2722
  239MOL0     H31511   2.074   4.851   5.712  1.9070  1.1544 -0.5587
  239MOL0     H31512   1.711   4.623   5.840 -1.6151 -0.1498  1.1891
  239MOL0     H31513   1.483   4.554   5.890 -0.9183  0.8096  0.9754
  239MOL0     H31514   1.285   4.763   5.972  0.6512 -1.8853  1.7917
  239MOL0     H31515   1.265   4.588   5.987  0.5356  0.9700  0.4912
  239MOL0     H31516   1.052   4.769   5.854  2.1351 -1.6983 -2.4484
  239MOL0     H31517   1.035   4.727   6.022 -0.9062  3.6499 -1.6100
  239MOL0     H31518   1.017   4.485   5.961 -0.4071 -0.0100  0.6910
  239MOL0     H31519   1.021   4.518   5.792 -5.0744 -0.7183 -0.9539
  239MOL0     H31520   0.804   4.639   5.971 -0.9404  0.2603 -0.7895
  239MOL0     H31521   0.806   4.625   5.802 -0.6940 -0.1960  0.3103
  239MOL0     H31522   0.823   4.387   5.997 -3.9479 -2.4042  0.0482
  239MOL0     H31523   0.798   4.382   5.819  0.0093 -0.2696  0.2068
  239MOL0     H31524   0.581   4.513   5.864 -1.2124 -0.1731  1.5007
  239MOL0     H31525   0.605   4.478   6.033 -0.4739  0.0415  1.1289
  239MOL0     H31526   0.610   4.261   5.821  1.8142  3.4092 -0.7218
  239MOL0     H31527   0.600   4.235   6.002 -0.9935 -2.7289 -0.9176
  239MOL0     H31528   0.375   4.363   6.013 -0.0622  0.4981 -0.3087
  239MOL0     H31529   0.374   4.208   5.923 -0.7392  0.1995 -0.0423
  239MOL0     H31530   1.324   4.861   5.651  0.9684  0.7510  0.3279
  239MOL0     H31531   1.565   4.936   5.590  1.1720  0.8421  2.0790
  239MOL0     H31532   1.953   4.574   5.401 -1.5437  1.3081  1.3091
  239MOL0     H31533   2.185   4.528   5.360  0.5903 -1.0890  1.1303
  239MOL0     H31534   2.964   3.244   4.903  1.3803 -2.2889 -1.3986
  239MOL0     H31535   3.163   3.305   5.016 -1.3340  0.3287 -0.9680
  239MOL0     H31536   3.428   3.374   5.373  2.3876  2.3397 -0.3437
  239MOL0     H31537   3.648   3.415   5.455 -0.5834 -1.0937 -0.4264
  239MOL0     H31538   3.985   3.195   5.265 -0.9217 -5.1085  1.4141
  239MOL0     H31539   3.945   3.134   5.419  0.3966  0.2640  0.0174
  239MOL0     H31540   4.077   3.288   5.536  0.3936  0.6134 -0.4469
  239MOL0     H31541   4.173   3.195   5.415  1.3178 -0.1956 -0.1988
  239MOL0     H31542   4.085   3.486   5.397 -2.3982 -1.4512 -0.8452
  239MOL0     H31543   4.161   3.396   5.265  1.5458 -1.2196  0.3840
  239MOL0     H31544   4.320   3.529   5.436 -2.4425  1.4068  0.7687
  239MOL0     H31545   4.301   3.397   5.539  1.0838 -1.2249 -0.5359
  239MOL0     H31546   4.483   3.173   5.234 -0.5665  0.6622 -0.9502
  239MOL0     H31547   3.809   3.109   5.216 -1.5628 -2.3026 -1.2540
  239MOL0     H31548   3.573   3.052   5.133 -0.0403 -1.1910  1.5821
  240MOL0     O31549   4.768   5.141   3.535  0.4767  0.2841  0.1101
  240MOL0     C31550   4.776   5.206   3.640  0.5604 -0.2169  0.3064
  240MOL0     O31551   4.673   5.249   3.719 -0.1143  0.2511 -0.1571
  240MOL0     C31552   4.541   5.196   3.711  0.8139  0.2680 -0.1119
  240MOL0     C31553   4.508   5.071   3.660 -0.3159  0.6765  0.3346
  240MOL0     C31554   4.377   5.029   3.660 -0.2935  0.5863  0.4250
  240MOL0     C31555   4.278   5.105   3.722  0.1698 -0.3152  0.5562
  240MOL0     O31556   4.158   5.046   3.701 -0.5924 -0.2471 -0.0593
  240MOL0     C31557   4.038   5.113   3.751  0.3235  0.0530  0.3401
  240MOL0     C31558   3.986   5.250   3.673  0.1175  0.1165  0.5525
  240MOL0     C31559   3.845   5.296   3.703 -0.4150  0.3130  0.3316
  240MOL0     C31560   3.822   5.437   3.642 -0.2756 -0.2405 -0.7271
  240MOL0     C31561   3.891   5.479   3.508 -0.4763 -0.0276 -0.4485
  240MOL0     C31562   3.820   5.599   3.444 -0.1088  0.1872  0.2658
  240MOL0     C31563   3.881   5.638   3.317 -0.0791 -0.6359  0.9427
  240MOL0     C31564   3.817   5.765   3.255 -0.5579  0.4417 -0.2567
  240MOL0     N31565   3.862   5.885   3.331 -0.9060 -0.1755 -0.4532
  240MOL0     C31566   3.785   5.976   3.389 -0.4024  0.7610  0.1023
  240MOL0     C31567   3.860   6.057   3.460 -0.7830 -0.4362  0.2616
  240MOL0     C31568   3.810   6.153   3.569 -0.0620  0.2623 -0.2015
  240MOL0     C31569   3.804   6.289   3.504 -0.1068 -0.3175 -0.1595
  240MOL0     C31570   3.716   6.377   3.598  0.1249 -0.0981  0.3416
  240MOL0     C31571   3.712   6.529   3.554  0.2151 -0.1026  0.5122
  240MOL0     O31572   3.640   6.554   3.428 -0.5557 -0.8158 -0.0288
  240MOL0     C31573   3.504   6.553   3.406 -0.1215 -0.0216 -0.2698
  240MOL0     C31574   3.452   6.581   3.272 -0.4379  0.2570 -0.8157
  240MOL0     C31575   3.309   6.566   3.240  0.5455  0.1841  0.2533
  240MOL0     C31576   3.219   6.548   3.349 -0.8054  0.2777  0.6219
  240MOL0     C31577   3.077   6.548   3.333 -0.1368  0.4264  0.3660
  240MOL0     O31578   3.024   6.575   3.203  0.6734  0.9955  0.0081
  240MOL0     C31579   2.887   6.573   3.175 -0.4718 -0.0255  0.1883
  240MOL0     C31580   2.802   6.641   3.254 -0.0935 -0.4546 -0.3215
  240MOL0     C31581   2.662   6.620   3.242  0.1761 -0.4416 -0.0437
  240MOL0     C31582   2.610   6.533   3.142  0.4526 -0.7198 -0.6351
  240MOL0     O31583   2.471   6.537   3.123  0.1140 -0.0844 -0.5823
  240MOL0     C31584   2.415   6.426   3.058  0.3056  0.2635 -0.4439
  240MOL0     C31585   2.260   6.432   3.076  0.0103  0.1527 -0.2352
  240MOL0     C31586   2.196   6.405   2.939  0.9049  0.5013  0.1813
  240MOL0     C31587   2.041   6.415   2.954  0.4896  0.7677  0.3278
  240MOL0     C31588   1.972   6.400   2.820 -0.2630 -0.3521  0.3803
  240MOL0     C31589   1.828   6.448   2.836  0.2077  0.4034  0.9838
  240MOL0     C31590   1.767   6.426   2.701  0.4680  0.0042 -0.1278
  240MOL0     C31591   1.632   6.481   2.697 -0.0983  0.1439  1.3656
  240MOL0    Cl31592   1.563   6.432   2.534 -0.1444  0.0380 -0.1975
  240MOL0     C31593   2.700   6.464   3.052  0.2135  0.1740 -0.3802
  240MOL0     C31594   2.843   6.487   3.070  0.3773 -0.3060  0.6501
  240MOL0     O31595   3.008   6.521   3.433  0.0089  0.4682 -0.2887
  240MOL0     C31596   3.278   6.535   3.482  0.6552  0.4186  0.3610
  240MOL0     C31597   3.409   6.534   3.511 -0.8184 -0.7345 -0.1905
  240MOL0     N31598   3.987   6.018   3.458 -0.5243 -0.4798  0.1853
  240MOL0     N31599   3.990   5.912   3.381  0.2034  0.3134 -0.1302
  240MOL0     C31600   4.310   5.223   3.774  0.4805  0.3264  0.3659
  240MOL0     C31601   4.437   5.267   3.775  0.2612 -0.3482 -0.6979
  240MOL0     C31602   4.909   5.262   3.669  0.0826 -0.3244 -0.3092
  240MOL0     C31603   4.923   5.352   3.771  0.2193 -0.5404 -0.7414
  240MOL0     C31604   5.049   5.410   3.798 -0.1430 -0.6444  0.1609
  240MOL0     C31605   5.164   5.385   3.722  0.3557 -0.0820  0.2628
  240MOL0     O31606   5.290   5.435   3.759 -0.2936  0.7637  0.6471
  240MOL0     C31607   5.306   5.574   3.765  0.6469  0.0558 -0.4131
  240MOL0     C31608   5.450   5.593   3.736 -0.5014  0.0455 -0.5218
  240MOL0     C31609   5.545   5.550   3.848  0.6172 -0.5567 -0.1847
  240MOL0     C31610   5.690   5.587   3.824 -0.5216  0.3132  0.0758
  240MOL0     C31611   5.774   5.600   3.945 -0.6712  0.0301 -0.0877
  240MOL0     C31612   5.843   5.618   4.046 -0.5212 -0.1771  0.0805
  240MOL0     C31613   5.153   5.303   3.609 -0.4652 -0.2391  0.8042
  240MOL0     C31614   5.026   5.237   3.587 -0.5324  0.4187 -0.2820
  240MOL0     H31615   4.585   4.999   3.633 -0.1705  1.2800 -0.9257
  240MOL0     H31616   4.360   4.933   3.613 -1.6505  1.3347 -0.6935
  240MOL0     H31617   4.040   5.138   3.857 -0.5507  0.7640  0.1973
  240MOL0     H31618   3.960   5.036   3.749 -1.3839  1.6972 -0.3300
  240MOL0     H31619   3.981   5.219   3.568 -1.4972 -2.2426  1.2507
  240MOL0     H31620   4.058   5.331   3.691 -0.1804  1.1645 -2.3754
  240MOL0     H31621   3.809   5.291   3.806 -0.5566  1.1806  0.3323
  240MOL0     H31622   3.780   5.223   3.654  2.2422 -0.9251 -1.6189
  240MOL0     H31623   3.715   5.452   3.626 -0.3363  0.2204  0.0459
  240MOL0     H31624   3.844   5.503   3.726 -0.4587  1.4498 -1.9672
  240MOL0     H31625   3.893   5.396   3.437  0.2569  0.7260 -1.3336
  240MOL0     H31626   3.995   5.507   3.527 -0.2957 -0.6947 -0.4189
  240MOL0     H31627   3.822   5.681   3.517  1.3966  1.4605 -1.1330
  240MOL0     H31628   3.714   5.578   3.424  0.3179 -1.8845  0.0000
  240MOL0     H31629   3.989   5.650   3.325 -0.0527 -0.8420  0.9070
  240MOL0     H31630   3.887   5.562   3.238  2.9121  1.3691 -0.9839
  240MOL0     H31631   3.709   5.747   3.245 -0.4980  0.6788 -1.4958
  240MOL0     H31632   3.855   5.773   3.153 -0.0487 -0.6273 -0.1633
  240MOL0     H31633   3.677   5.986   3.382 -0.2572  1.1603 -1.9805
  240MOL0     H31634   3.885   6.148   3.650  3.0390 -1.1029 -2.9347
  240MOL0     H31635   3.711   6.130   3.610  0.6548 -0.2327  1.3569
  240MOL0     H31636   3.749   6.287   3.409 -2.1420 -2.1548  0.9402
  240MOL0     H31637   3.905   6.326   3.488  0.2056 -2.0353 -2.9873
  240MOL0     H31638   3.614   6.340   3.605  0.0786  0.0662  0.5551
  240MOL0     H31639   3.763   6.380   3.697 -0.7884  1.9047  0.7681
  240MOL0     H31640   3.817   6.556   3.538  0.6451 -1.7135  0.4691
  240MOL0     H31641   3.676   6.591   3.638  1.6033  1.3796  0.0766
  240MOL0     H31642   3.529   6.592   3.197  0.3040  1.2684  0.0515
  240MOL0     H31643   3.266   6.578   3.141  2.3373 -1.5095 -0.7787
  240MOL0     H31644   2.847   6.718   3.317  0.0456 -1.4995  0.9011
  240MOL0     H31645   2.594   6.683   3.298  2.1433  0.7190  1.1656
  240MOL0     H31646   2.449   6.328   3.094 -0.1885 -0.2713 -1.3974
  240MOL0     H31647   2.448   6.432   2.954 -1.3538 -1.6931 -1.1312
  240MOL0     H31648   2.237   6.532   3.115  2.0637  0.2284  0.9197
  240MOL0     H31649   2.232   6.362   3.156 -0.4326  3.0501  2.3509
  240MOL0     H31650   2.230   6.309   2.897 -0.6395  1.2599 -3.1675
  240MOL0     H31651   2.223   6.483   2.867  0.0994  0.8429  0.2389
  240MOL0     H31652   2.012   6.332   3.020  2.0675  0.3280  0.4977
  240MOL0     H31653   2.015   6.511   2.998 -1.0014  0.4298  0.2645
  240MOL0     H31654   1.981   6.295   2.790 -2.9490 -1.8759  4.1385
  240MOL0     H31655   2.025   6.468   2.752 -1.0627 -0.1788 -0.0861
  240MOL0     H31656   1.808   6.551   2.869 -0.3345  1.1092 -1.3965
  240MOL0     H31657   1.782   6.380   2.908 -0.0254  1.0699  1.4814
  240MOL0     H31658   1.831   6.472   2.625 -1.6382  2.1143 -0.7310
  240MOL0     H31659   1.773   6.319   2.680  3.8784 -0.1143  0.7116
  240MOL0     H31660   1.635   6.590   2.710 -0.3623  0.4912 -1.0065
  240MOL0     H31661   1.558   6.437   2.763 -1.4073  1.7249  1.0073
  240MOL0     H31662   2.676   6.385   2.981  2.5413 -0.3369 -0.6890
  240MOL0     H31663   2.913   6.420   3.021 -0.7160 -2.3360  1.7421
  240MOL0     H31664   3.217   6.522   3.572  1.6934  2.6076  1.4419
  240MOL0     H31665   3.447   6.528   3.612 -1.6695  1.1485  0.2814
  240MOL0     H31666   4.232   5.280   3.822 -0.2544 -0.6815  0.4016
  240MOL0     H31667   4.468   5.361   3.820  1.1221 -2.2685  3.1031
  240MOL0     H31668   4.851   5.376   3.849  1.0038  0.6287 -0.3580
  240MOL0     H31669   5.052   5.470   3.889  0.8932 -1.9075  1.0080
  240MOL0     H31670   5.281   5.615   3.863  0.5196  0.9654 -0.8143
  240MOL0     H31671   5.236   5.622   3.695  0.3371 -4.1490 -3.3604
  240MOL0     H31672   5.476   5.540   3.644 -3.5834  0.8512 -2.0093
  240MOL0     H31673   5.465   5.701   3.725 -2.4506  0.7559  2.3950
  240MOL0     H31674   5.541   5.441   3.847  1.3934 -0.6661 -3.9921
  240MOL0     H31675   5.521   5.589   3.948  0.1361 -1.0055 -0.1187
  240MOL0     H31676   5.738   5.515   3.756  1.5546  1.4415  0.2744
  240MOL0     H31677   5.700   5.689   3.786  0.7258 -0.1658 -0.9596
  240MOL0     H31678   5.903   5.646   4.130  2.8708  0.3924 -2.3031
  240MOL0     H31679   5.241   5.269   3.555 -0.5662 -0.0241  0.5024
  240MOL0     H31680   5.037   5.171   3.502  2.2758  0.1209  0.1901
  241MOL0     O31681   2.238   9.676   2.223 -0.8419 -0.3784 -0.1226
  241MOL0     C31682   2.315   9.743   2.295  0.6159 -0.8588 -0.4730
  241MOL0     O31683   2.270   9.825   2.403 -1.0747 -0.6835  0.1155
  241MOL0     C31684   2.137   9.859   2.418 -0.3542 -0.2413 -0.4179
  241MOL0     C31685   2.044   9.765   2.450 -0.0888 -0.6751 -0.6431
  241MOL0     C31686   1.905   9.795   2.454 -1.1859 -0.2727 -0.2250
  241MOL0     C31687   1.870   9.927   2.458  0.1252  0.0079 -0.2827
  241MOL0     O31688   1.737   9.949   2.469  0.5676  0.0960 -1.0469
  241MOL0     C31689   1.690  10.070   2.414  0.0376  0.2239 -0.5317
  241MOL0     C31690   1.537  10.051   2.385  1.0246 -0.5521  0.5711
  241MOL0     C31691   1.454  10.019   2.510 -0.0604  0.2110 -0.8425
  241MOL0     C31692   1.305  10.030   2.466  0.6441  0.3698  0.2689
  241MOL0     C31693   1.201  10.037   2.581  0.1171 -0.3083 -0.3410
  241MOL0     C31694   1.057  10.036   2.527 -0.3391  0.0672 -0.4999
  241MOL0     C31695   0.948  10.064   2.628  0.8040  0.0633  0.5998
  241MOL0     C31696   0.953   9.984   2.754 -0.0595  0.6765 -0.3947
  241MOL0     N31697   0.841  10.033   2.839 -0.6512 -0.0846 -0.6034
  241MOL0     C31698   0.836  10.151   2.912  0.6027  0.8749 -0.2670
  241MOL0     C31699   0.739  10.121   3.003  0.9548 -0.1428 -0.7897
  241MOL0     C31700   0.660  10.214   3.094  0.7553  0.2976 -0.2758
  241MOL0     C31701   0.753  10.312   3.173 -0.2650 -0.3426 -0.0304
  241MOL0     C31702   0.811  10.257   3.299 -0.3845  1.0087 -0.5214
  241MOL0     C31703   0.714  10.223   3.417 -0.3496  0.0469  0.3777
  241MOL0     O31704   0.629  10.328   3.460  0.1411  1.0617 -0.8045
  241MOL0     C31705   0.540  10.286   3.552  0.2508  0.6442  0.4384
  241MOL0     C31706   0.534  10.158   3.610  0.7401  1.0804  0.4802
  241MOL0     C31707   0.441  10.122   3.715 -0.5698 -0.7621 -0.4762
  241MOL0     C31708   0.351  10.215   3.754 -0.5103 -0.0209  0.3708
  241MOL0     C31709   0.240  10.197   3.852  0.4039 -0.3368 -1.0836
  241MOL0     O31710   0.150  10.299   3.866  0.5676 -0.2163  0.9755
  241MOL0     C31711   0.045  10.272   3.952 -0.3218  0.3203 -0.1575
  241MOL0     C31712  -0.082  10.237   3.912 -0.6915  0.9169  0.2466
  241MOL0     C31713  -0.179  10.191   4.002 -0.1094 -0.3734 -0.5893
  241MOL0     C31714  -0.141  10.168   4.144 -0.1680 -0.5720  0.6373
  241MOL0     O31715  -0.222  10.117   4.241  0.6158 -0.3883 -0.1821
  241MOL0     C31716  -0.344  10.058   4.199 -0.0993 -0.1708 -0.2919
  241MOL0     C31717  -0.413  10.011   4.323  0.4416 -0.5144  0.1386
  241MOL0     C31718  -0.565   9.989   4.295 -0.3214 -0.4817 -0.0323
  241MOL0     C31719  -0.630   9.925   4.416 -0.0039  0.2824 -0.4012
  241MOL0     C31720  -0.779   9.918   4.413  0.5762  0.6339  0.9484
  241MOL0     C31721  -0.845   9.895   4.547 -0.0447  0.4389  0.3764
  241MOL0     C31722  -0.787   9.757   4.610  0.3529 -0.1276 -0.0760
  241MOL0     C31723  -0.875   9.708   4.722  0.3003  0.6455  0.2295
  241MOL0    Cl31724  -0.920   9.831   4.833  0.3021  0.0361 -0.0826
  241MOL0     C31725  -0.015  10.211   4.180 -0.2358  0.3261 -0.0526
  241MOL0     C31726   0.070  10.261   4.087 -0.2954  0.0503 -0.1013
  241MOL0     O31727   0.231  10.088   3.908  0.3942 -0.3925  0.8238
  241MOL0     C31728   0.362  10.347   3.698  0.9938 -0.4939  0.1095
  241MOL0     C31729   0.445  10.373   3.592  0.0372  0.3097  0.4299
  241MOL0     N31730   0.686   9.995   2.985  0.0573  0.5132  0.7677
  241MOL0     N31731   0.749   9.943   2.884  0.2496 -0.8331  0.2213
  241MOL0     C31732   1.966  10.028   2.447 -0.0479  0.2174 -0.2947
  241MOL0     C31733   2.099   9.997   2.424  1.0379 -0.0666 -0.1647
  241MOL0     C31734   2.455   9.724   2.280 -0.6827 -0.5357 -0.5648
  241MOL0     C31735   2.542   9.794   2.367 -0.5408 -0.5008  0.5070
  241MOL0     C31736   2.679   9.779   2.353  0.2820  0.8378  0.7923
  241MOL0     C31737   2.730   9.691   2.263  0.4254  0.3751  0.5961
  241MOL0     O31738   2.859   9.664   2.249 -0.2960 -0.0184  0.0106
  241MOL0     C31739   2.905   9.687   2.115 -0.8662 -0.4958  0.2819
  241MOL0     C31740   3.044   9.767   2.117 -0.2266  0.7395 -0.1357
  241MOL0     C31741   3.018   9.900   2.188 -0.1699 -0.0179  0.5346
  241MOL0     C31742   3.065   9.914   2.332  0.5854 -0.0277  0.6259
  241MOL0     C31743   3.207   9.957   2.346 -0.0217  0.2538  0.2831
  241MOL0     C31744   3.323  10.000   2.340  0.5589 -1.2993  0.1687
  241MOL0     C31745   2.641   9.620   2.178  0.6124  0.0249 -0.3404
  241MOL0     C31746   2.504   9.630   2.189  0.2619 -0.5365  0.0200
  241MOL0     H31747   2.086   9.665   2.459 -1.0136 -0.9510  1.1023
  241MOL0     H31748   1.825   9.722   2.462  3.1244 -5.4184  1.8699
  241MOL0     H31749   1.754  10.080   2.326  1.4592 -3.5538 -0.1244
  241MOL0     H31750   1.705  10.158   2.477 -0.8793  0.5326 -0.7219
  241MOL0     H31751   1.524   9.972   2.311  0.0113 -1.2320  1.4333
  241MOL0     H31752   1.495  10.141   2.338  4.1234  0.2420 -0.9323
  241MOL0     H31753   1.484  10.088   2.589  0.6618  1.4358 -2.1190
  241MOL0     H31754   1.471   9.920   2.552 -1.2357 -0.4348 -1.8215
  241MOL0     H31755   1.294  10.122   2.408  1.4975 -0.4081 -1.2072
  241MOL0     H31756   1.283   9.942   2.404 -0.4889 -0.2701  1.5294
  241MOL0     H31757   1.220  10.129   2.637  2.3940 -1.6797  1.2976
  241MOL0     H31758   1.223   9.958   2.654  1.8397 -2.0545 -2.6084
  241MOL0     H31759   1.040   9.940   2.477 -1.4689  0.4072 -0.8051
  241MOL0     H31760   1.057  10.114   2.451  2.3775 -0.3351 -1.0009
  241MOL0     H31761   0.959  10.171   2.647 -2.3654  0.6909 -0.5321
  241MOL0     H31762   0.854  10.050   2.574  0.2139  1.1216  1.3387
  241MOL0     H31763   1.051  10.001   2.798 -0.3652  2.4764 -0.3423
  241MOL0     H31764   0.953   9.876   2.735 -1.3178  0.5321  0.3243
  241MOL0     H31765   0.887  10.243   2.888  2.7526 -0.1745 -0.0064
  241MOL0     H31766   0.594  10.153   3.156 -0.4057  1.1285 -0.6612
  241MOL0     H31767   0.596  10.275   3.030  0.5979 -0.0817 -0.4890
  241MOL0     H31768   0.695  10.401   3.200  3.6951  2.9177 -1.2016
  241MOL0     H31769   0.828  10.351   3.103  3.1328 -5.7315 -0.0334
  241MOL0     H31770   0.870  10.172   3.265 -1.4148 -0.3364  0.9010
  241MOL0     H31771   0.887  10.331   3.323 -1.2274  2.4605 -2.0690
  241MOL0     H31772   0.777  10.191   3.500  2.2183  2.4054 -0.5021
  241MOL0     H31773   0.656  10.141   3.374 -1.8511  0.3704  1.7277
  241MOL0     H31774   0.607  10.081   3.587 -2.6728 -1.5754 -2.7021
  241MOL0     H31775   0.427  10.021   3.754 -0.4102 -0.5905  0.0372
  241MOL0     H31776  -0.107  10.245   3.807 -0.9093  2.5304  0.3935
  241MOL0     H31777  -0.283  10.170   3.978 -0.3162 -0.3319  0.2409
  241MOL0     H31778  -0.337   9.988   4.115  0.5159 -1.3203  0.6904
  241MOL0     H31779  -0.412  10.136   4.163  0.8401  0.8062 -0.0191
  241MOL0     H31780  -0.398  10.091   4.396  0.7389  0.5388 -1.0360
  241MOL0     H31781  -0.371   9.918   4.362 -1.6826 -0.8969  1.6565
  241MOL0     H31782  -0.580   9.921   4.210 -0.5231  0.7431 -1.0151
  241MOL0     H31783  -0.615  10.082   4.266  2.6333  1.4020  0.5333
  241MOL0     H31784  -0.587   9.825   4.427  0.4100  0.3803 -1.0177
  241MOL0     H31785  -0.609   9.984   4.506 -0.0602  2.9746 -2.0359
  241MOL0     H31786  -0.813   9.836   4.348 -0.6777  1.5697  0.4004
  241MOL0     H31787  -0.827  10.009   4.376 -1.6617 -0.5678  0.7116
  241MOL0     H31788  -0.954   9.892   4.540 -0.0275  1.7456 -1.2606
  241MOL0     H31789  -0.823   9.972   4.622  0.9440  1.8759 -1.3012
  241MOL0     H31790  -0.794   9.688   4.525  1.3884  0.5372 -0.7282
  241MOL0     H31791  -0.682   9.766   4.640  0.1393 -3.6427  2.2716
  241MOL0     H31792  -0.821   9.628   4.774  1.1549 -0.4248 -2.1560
  241MOL0     H31793  -0.968   9.671   4.679  1.7348  0.6757 -3.2660
  241MOL0     H31794   0.022  10.195   4.281  0.2503 -0.1550 -0.3006
  241MOL0     H31795   0.165  10.284   4.134 -1.6036 -1.9116  4.0007
  241MOL0     H31796   0.289  10.424   3.722  0.8070 -1.0358  1.3542
  241MOL0     H31797   0.452  10.469   3.542  0.9861 -0.0297 -0.1015
  241MOL0     H31798   1.932  10.131   2.444  1.1736  0.6287 -1.8690
  241MOL0     H31799   2.171  10.078   2.410  0.4478  0.3955 -0.5558
  241MOL0     H31800   2.499   9.866   2.436 -2.6703  0.4498 -1.6607
  241MOL0     H31801   2.744   9.839   2.416  0.7036  2.0736 -0.7805
  241MOL0     H31802   2.837   9.752   2.059 -0.6346  0.4315  1.0510
  241MOL0     H31803   2.924   9.591   2.067  3.9345  0.6701 -0.6785
  241MOL0     H31804   3.133   9.723   2.164  0.1740  0.4414 -1.1329
  241MOL0     H31805   3.070   9.784   2.012  1.4520  2.1153  0.4629
  241MOL0     H31806   2.909   9.916   2.183 -0.0755  0.1083 -2.8779
  241MOL0     H31807   3.064   9.979   2.127 -1.6142 -0.5915 -1.3784
  241MOL0     H31808   3.008   9.982   2.395  0.7549 -0.3715  1.1562
  241MOL0     H31809   3.049   9.818   2.381 -2.7592  0.0131 -0.1944
  241MOL0     H31810   3.422  10.037   2.359 -0.4699  0.5888  2.2925
  241MOL0     H31811   2.678   9.545   2.108 -0.1778 -1.0732  0.3759
  241MOL0     H31812   2.447   9.577   2.113  2.2406  0.1510 -2.0531
  242MOL0     O31813   6.465   2.011   8.434 -0.0517  0.3235 -0.8914
  242MOL0     C31814   6.520   2.122   8.412  0.2286  0.0168  0.2781
  242MOL0     O31815   6.457   2.243   8.377  0.0243  0.2025  0.7382
  242MOL0     C31816   6.322   2.241   8.350  0.0353 -0.5710 -0.7565
  242MOL0     C31817   6.225   2.202   8.439  0.3243  1.1251 -0.0835
  242MOL0     C31818   6.090   2.219   8.407  0.3973  0.2023 -0.3013
  242MOL0     C31819   6.050   2.277   8.283  0.0887 -0.0043 -0.5360
  242MOL0     O31820   5.921   2.308   8.261  0.0739  0.1385  0.5297
  242MOL0     C31821   5.876   2.288   8.128  0.3998  0.4261 -0.4393
  242MOL0     C31822   5.720   2.287   8.143  0.4325 -0.7842 -0.2933
  242MOL0     C31823   5.659   2.431   8.169 -0.3192 -0.2935 -0.3841
  242MOL0     C31824   5.508   2.438   8.219 -0.2225  1.2054  0.1803
  242MOL0     C31825   5.452   2.574   8.221  0.5336 -0.2177 -1.2059
  242MOL0     C31826   5.507   2.649   8.349 -0.3022 -0.4960  0.1143
  242MOL0     C31827   5.420   2.755   8.410 -0.3712 -0.3055  0.4029
  242MOL0     C31828   5.414   2.890   8.340 -0.6234 -1.0750  0.1329
  242MOL0     N31829   5.373   2.877   8.196 -0.1219  0.5421  0.2241
  242MOL0     C31830   5.451   2.858   8.082  0.2923 -1.0886  0.1029
  242MOL0     C31831   5.362   2.851   7.981 -0.2978 -0.0794  1.0606
  242MOL0     C31832   5.388   2.830   7.836 -0.1899 -0.7945  0.8362
  242MOL0     C31833   5.447   2.954   7.767  0.4755 -0.4857  0.4817
  242MOL0     C31834   5.490   2.934   7.617  1.3203 -0.3680 -0.0382
  242MOL0     C31835   5.592   2.830   7.601  0.4548  0.6354  0.2592
  242MOL0     O31836   5.707   2.870   7.671 -0.4972  0.0712  0.1151
  242MOL0     C31837   5.820   2.921   7.607 -0.6410 -0.6167  0.3290
  242MOL0     C31838   5.822   2.951   7.471 -0.6528 -0.1435 -0.1586
  242MOL0     C31839   5.921   3.027   7.415 -0.7174 -0.1349  0.6415
  242MOL0     C31840   6.037   3.071   7.494  0.3157  0.2498  0.7409
  242MOL0     C31841   6.140   3.157   7.439 -0.4366 -0.5619 -0.5690
  242MOL0     O31842   6.162   3.156   7.306  0.5545 -0.1949 -0.2608
  242MOL0     C31843   6.247   3.246   7.253 -0.5831  0.3728  0.9228
  242MOL0     C31844   6.376   3.210   7.219  0.0893  0.0701  0.1755
  242MOL0     C31845   6.466   3.307   7.170  0.1239  0.1325 -0.5694
  242MOL0     C31846   6.442   3.440   7.146  0.1544  0.8567 -0.5246
  242MOL0     O31847   6.535   3.535   7.109  1.1317 -0.3344 -0.1992
  242MOL0     C31848   6.670   3.518   7.139 -0.3757  0.1564 -0.3404
  242MOL0     C31849   6.765   3.641   7.137  0.4720  0.2212 -0.0906
  242MOL0     C31850   6.796   3.684   6.996 -0.3832 -0.6443  0.3453
  242MOL0     C31851   6.902   3.795   6.981  0.7935  0.8807 -0.0191
  242MOL0     C31852   7.050   3.735   6.996  0.5645 -0.5059 -0.0202
  242MOL0     C31853   7.149   3.853   6.989  0.3439  0.0086  0.2334
  242MOL0     C31854   7.279   3.823   6.918  0.0482 -0.2823 -0.3875
  242MOL0     C31855   7.358   3.713   6.990  0.1376  0.0135  0.4264
  242MOL0    Cl31856   7.538   3.707   6.937  0.3764 -0.1363 -0.6604
  242MOL0     C31857   6.317   3.480   7.182 -0.3279 -0.9158  0.8591
  242MOL0     C31858   6.220   3.385   7.239  0.5804  0.3572  0.0879
  242MOL0     O31859   6.208   3.223   7.518  0.1335 -0.0370  0.1109
  242MOL0     C31860   6.041   3.031   7.626  0.5865 -0.7241 -0.1705
  242MOL0     C31861   5.934   2.960   7.681 -0.1247  0.5275  0.1571
  242MOL0     N31862   5.235   2.883   8.034 -0.1311 -0.6235  0.0247
  242MOL0     N31863   5.244   2.907   8.160  1.2457 -0.2797 -0.9063
  242MOL0     C31864   6.157   2.306   8.191  0.1305 -0.3926  0.3273
  242MOL0     C31865   6.289   2.294   8.227 -0.1795 -0.2238  0.2288
  242MOL0     C31866   6.670   2.120   8.423  0.0663  0.1740 -0.1265
  242MOL0     C31867   6.729   2.025   8.516  0.6458 -0.3907  0.5430
  242MOL0     C31868   6.863   2.016   8.524  0.0354 -0.4486 -0.5249
  242MOL0     C31869   6.947   2.099   8.447 -0.3702  0.1319  0.5461
  242MOL0     O31870   7.084   2.086   8.463 -0.1250 -0.2291 -0.2746
  242MOL0     C31871   7.183   2.159   8.389  1.0065  0.6434  0.0658
  242MOL0     C31872   7.316   2.132   8.457  0.5067  0.1223  0.0472
  242MOL0     C31873   7.438   2.180   8.374  0.3921 -0.0914  0.3382
  242MOL0     C31874   7.470   2.084   8.254 -0.2533 -0.3936  0.3448
  242MOL0     C31875   7.597   2.135   8.195  0.5108  0.0823  0.0622
  242MOL0     C31876   7.705   2.157   8.136  0.0906 -0.2783  0.6115
  242MOL0     C31877   6.896   2.188   8.349 -0.0593  0.4757  0.5052
  242MOL0     C31878   6.758   2.199   8.346 -0.1820 -0.1719  0.1436
  242MOL0     H31879   6.259   2.157   8.532 -0.9330 -0.8542 -0.5309
  242MOL0     H31880   6.020   2.189   8.484  1.0586  0.1848  0.2954
  242MOL0     H31881   5.922   2.205   8.073 -0.1968 -1.4374  1.7010
  242MOL0     H31882   5.904   2.373   8.066  1.1407 -0.2813 -1.0938
  242MOL0     H31883   5.690   2.218   8.222  0.4299 -2.9457 -2.0816
  242MOL0     H31884   5.668   2.256   8.052 -0.9379 -0.9887  0.5293
  242MOL0     H31885   5.674   2.483   8.073 -3.1236 -0.7249 -1.1475
  242MOL0     H31886   5.723   2.469   8.249 -0.4509 -1.5017  0.3125
  242MOL0     H31887   5.445   2.371   8.159  2.2747 -0.4122 -0.7953
  242MOL0     H31888   5.505   2.399   8.321 -0.3603  2.2198  0.5737
  242MOL0     H31889   5.344   2.559   8.230  0.2242  1.6898 -1.4057
  242MOL0     H31890   5.480   2.621   8.126  2.5098  1.7067  0.2374
  242MOL0     H31891   5.607   2.690   8.328 -0.2260 -1.0857 -0.7216
  242MOL0     H31892   5.504   2.588   8.440 -3.3098  0.4620  0.7579
  242MOL0     H31893   5.321   2.714   8.431 -1.2393  2.3731  2.1186
  242MOL0     H31894   5.463   2.777   8.508 -2.9261  0.6117  1.4003
  242MOL0     H31895   5.508   2.947   8.340 -1.3865  0.2414 -0.2588
  242MOL0     H31896   5.347   2.952   8.401  1.8337 -0.5581  2.5064
  242MOL0     H31897   5.560   2.856   8.077  0.2712 -0.9941 -0.4773
  242MOL0     H31898   5.294   2.799   7.790  0.9059 -3.9515  0.5019
  242MOL0     H31899   5.448   2.740   7.818 -0.5739 -0.7101 -1.0852
  242MOL0     H31900   5.531   3.000   7.821  0.4669  1.4430 -1.0364
  242MOL0     H31901   5.363   3.024   7.765 -1.1226 -2.1271 -4.8290
  242MOL0     H31902   5.404   2.911   7.554  0.1512 -1.3135  1.8293
  242MOL0     H31903   5.531   3.026   7.574  2.4633 -0.1481  1.4196
  242MOL0     H31904   5.613   2.817   7.495 -2.0214  1.7703 -0.4608
  242MOL0     H31905   5.551   2.736   7.639  0.1340  0.2842 -0.9160
  242MOL0     H31906   5.752   2.920   7.393  1.2198 -0.1138 -1.9570
  242MOL0     H31907   5.908   3.042   7.309 -2.9432  0.1783  0.9068
  242MOL0     H31908   6.401   3.106   7.241  0.5071 -0.0854 -0.9637
  242MOL0     H31909   6.571   3.287   7.150  0.0221 -0.4842 -0.4918
  242MOL0     H31910   6.720   3.447   7.072 -0.4256 -0.4909  0.2971
  242MOL0     H31911   6.685   3.491   7.244  0.2652  1.3002 -0.1267
  242MOL0     H31912   6.861   3.622   7.187  0.7833  2.7912  0.4388
  242MOL0     H31913   6.717   3.727   7.185  0.7405  0.3737 -0.0912
  242MOL0     H31914   6.704   3.719   6.949  0.7017 -1.3387 -2.5120
  242MOL0     H31915   6.839   3.600   6.940  1.4426  0.7003 -0.3857
  242MOL0     H31916   6.895   3.843   6.883 -1.1155  2.2719  0.7325
  242MOL0     H31917   6.882   3.869   7.059  2.6846 -1.7225  3.2394
  242MOL0     H31918   7.064   3.674   6.907  2.0506 -1.6176  0.9244
  242MOL0     H31919   7.076   3.670   7.080  1.2261 -1.2040 -0.7476
  242MOL0     H31920   7.170   3.895   7.088 -0.6306 -0.2514  0.5563
  242MOL0     H31921   7.099   3.939   6.944  0.3874  0.8672  1.7500
  242MOL0     H31922   7.264   3.785   6.817  1.7287 -1.9445 -0.0638
  242MOL0     H31923   7.339   3.914   6.908  3.3944 -1.8087  3.0102
  242MOL0     H31924   7.312   3.614   6.981  0.2209  0.0610 -0.6412
  242MOL0     H31925   7.361   3.733   7.098 -0.0303  1.7799  0.1426
  242MOL0     H31926   6.281   3.582   7.175 -2.5983 -1.6648  0.5242
  242MOL0     H31927   6.129   3.419   7.288  0.0321 -3.1057  1.7627
  242MOL0     H31928   6.128   3.052   7.688  1.0077 -1.5738 -0.4611
  242MOL0     H31929   5.950   2.911   7.777 -1.4272 -0.2834 -0.0103
  242MOL0     H31930   6.146   2.331   8.086 -0.0899  3.0789  1.0549
  242MOL0     H31931   6.370   2.319   8.161 -0.4545 -1.4770 -0.6210
  242MOL0     H31932   6.667   1.952   8.568  0.0152  0.6114  1.2268
  242MOL0     H31933   6.907   1.933   8.579  2.4512 -0.1361 -1.8278
  242MOL0     H31934   7.174   2.269   8.388  0.8330  0.6414 -1.6349
  242MOL0     H31935   7.186   2.123   8.285 -1.4488  0.3679  0.0383
  242MOL0     H31936   7.306   2.178   8.555 -0.8266  0.7165 -0.3469
  242MOL0     H31937   7.331   2.026   8.479  1.0631  0.6294  2.3368
  242MOL0     H31938   7.525   2.178   8.440  0.9658  1.7569 -0.2891
  242MOL0     H31939   7.421   2.283   8.340 -0.9839 -0.1633  0.7293
  242MOL0     H31940   7.495   1.982   8.284 -1.1690 -1.3941 -2.0928
  242MOL0     H31941   7.392   2.082   8.178 -1.9487  1.6254  1.8899
  242MOL0     H31942   7.790   2.193   8.083 -0.6009  0.8786  0.2581
  242MOL0     H31943   6.951   2.251   8.279 -1.0880  0.4415 -0.3515
  242MOL0     H31944   6.718   2.277   8.282  1.8257  1.1989  0.4926
  243MOL0     O31945   3.154   1.428   2.590 -0.8208  0.1858 -0.3524
  243MOL0     C31946   3.202   1.484   2.691  0.4822  0.3314  1.5606
  243MOL0     O31947   3.128   1.526   2.796  0.2741 -0.0605 -0.4775
  243MOL0     C31948   2.990   1.514   2.814  0.0829 -0.6274  0.7450
  243MOL0     C31949   2.890   1.481   2.717 -0.0003 -0.0329  0.6305
  243MOL0     C31950   2.758   1.469   2.755  0.3697  0.0604  0.2295
  243MOL0     C31951   2.712   1.494   2.886 -0.1054 -0.4710 -0.0459
  243MOL0     O31952   2.581   1.477   2.927 -0.3136  0.4349 -0.0457
  243MOL0     C31953   2.478   1.459   2.833 -0.8275 -0.5098 -0.9835
  243MOL0     C31954   2.352   1.517   2.885 -0.4415  0.3118 -0.0811
  243MOL0     C31955   2.328   1.484   3.036  0.2177 -0.2525 -0.0714
  243MOL0     C31956   2.186   1.535   3.065 -0.8792 -0.0446 -0.0176
  243MOL0     C31957   2.152   1.520   3.209 -0.0170 -0.8975  0.2841
  243MOL0     C31958   2.023   1.595   3.239 -0.4915  0.0088  0.6748
  243MOL0     C31959   1.990   1.573   3.388  0.8161 -0.1911 -1.5617
  243MOL0     C31960   1.864   1.662   3.435  0.0187 -0.6944  0.5736
  243MOL0     N31961   1.864   1.663   3.580 -0.2785 -0.7594 -0.4986
  243MOL0     C31962   1.788   1.574   3.650 -0.1395 -0.2827  0.3087
  243MOL0     C31963   1.793   1.619   3.775 -0.3520 -0.6546 -0.8650
  243MOL0     C31964   1.739   1.544   3.891  0.1563 -0.5725 -0.3790
  243MOL0     C31965   1.588   1.562   3.902  1.1235  0.1421 -0.0283
  243MOL0     C31966   1.533   1.704   3.908 -0.7722  0.0290  0.2226
  243MOL0     C31967   1.384   1.713   3.942 -0.0606  0.5067  0.0254
  243MOL0     O31968   1.364   1.665   4.075  0.0775  0.3317 -0.3508
  243MOL0     C31969   1.231   1.653   4.112 -0.2149  1.1351  0.9709
  243MOL0     C31970   1.118   1.666   4.033  0.1294  0.0354 -0.6034
  243MOL0     C31971   0.990   1.656   4.091  0.0614 -0.5492  0.0196
  243MOL0     C31972   0.964   1.609   4.217 -0.6917 -0.0974 -1.4509
  243MOL0     C31973   0.828   1.572   4.277  0.8693 -0.6726 -0.2080
  243MOL0     O31974   0.826   1.471   4.365  0.3354 -0.1870 -0.8389
  243MOL0     C31975   0.711   1.437   4.439  0.0337  0.8280  0.3506
  243MOL0     C31976   0.696   1.304   4.482 -0.0501  0.5985  0.5514
  243MOL0     C31977   0.583   1.265   4.568 -0.0696 -0.0803  0.2915
  243MOL0     C31978   0.482   1.360   4.596  0.4082  0.8449 -0.3524
  243MOL0     O31979   0.366   1.344   4.671  0.4603 -0.7764 -0.3649
  243MOL0     C31980   0.290   1.226   4.679 -0.2178 -0.6164 -0.8250
  243MOL0     C31981   0.230   1.178   4.550 -0.2224 -0.3352  0.3041
  243MOL0     C31982   0.131   1.060   4.559  0.4098  0.0210  0.3993
  243MOL0     C31983   0.084   1.019   4.420  0.3535 -0.2385  0.5783
  243MOL0     C31984  -0.017   0.894   4.411  0.4902  0.0295  0.5561
  243MOL0     C31985   0.053   0.772   4.474 -0.6715 -0.4818  0.5839
  243MOL0     C31986  -0.044   0.660   4.465  1.2754 -0.1368 -0.6031
  243MOL0     C31987   0.033   0.537   4.518  0.1296  0.0089  0.0737
  243MOL0    Cl31988  -0.060   0.382   4.480 -0.0192 -0.1638 -0.1867
  243MOL0     C31989   0.500   1.485   4.552  0.5612  0.5246 -0.3435
  243MOL0     C31990   0.613   1.526   4.476 -0.7349 -0.7657 -0.1271
  243MOL0     O31991   0.732   1.633   4.225 -0.2915 -0.3166 -0.7439
  243MOL0     C31992   1.087   1.602   4.301  0.1964  0.4743  0.5521
  243MOL0     C31993   1.208   1.628   4.245 -0.6444  0.1931 -0.7873
  243MOL0     N31994   1.868   1.732   3.784 -0.3597 -1.0166  0.2815
  243MOL0     N31995   1.908   1.759   3.668 -0.2688 -0.1526 -0.2244
  243MOL0     C31996   2.808   1.541   2.971  0.3654 -0.0528 -0.3933
  243MOL0     C31997   2.944   1.536   2.945  0.5120 -0.7386 -0.1844
  243MOL0     C31998   3.346   1.506   2.695 -0.2337  0.3455  0.2285
  243MOL0     C31999   3.397   1.566   2.809 -0.9951 -0.0942  0.0406
  243MOL0     C32000   3.535   1.575   2.825  0.6516 -0.5957  0.8050
  243MOL0     C32001   3.628   1.545   2.728 -0.4653 -0.6501  0.4425
  243MOL0     O32002   3.765   1.546   2.738  0.4420  0.1318 -0.1853
  243MOL0     C32003   3.824   1.580   2.865 -0.4611 -0.6519  0.7000
  243MOL0     C32004   3.955   1.514   2.873  0.2366  0.8068 -0.0356
  243MOL0     C32005   4.053   1.563   2.764  0.0702  0.5433 -0.3884
  243MOL0     C32006   4.096   1.456   2.658  0.0592  0.4203  0.2292
  243MOL0     C32007   4.214   1.388   2.729  0.1726 -0.3994  0.0243
  243MOL0     C32008   4.306   1.337   2.780 -0.3183  0.0444  0.2433
  243MOL0     C32009   3.576   1.482   2.604  0.2523 -0.3467 -0.2966
  243MOL0     C32010   3.439   1.461   2.588  0.8856  0.9621 -0.3258
  243MOL0     H32011   2.918   1.471   2.613  0.8693 -3.3110  1.0588
  243MOL0     H32012   2.689   1.449   2.674  0.4842  0.3000  0.0693
  243MOL0     H32013   2.462   1.353   2.816 -2.2379 -0.0443 -2.9969
  243MOL0     H32014   2.504   1.504   2.736  1.5755  0.0344 -0.1570
  243MOL0     H32015   2.262   1.488   2.830 -0.9769  3.0728 -0.8160
  243MOL0     H32016   2.352   1.624   2.863  1.2916  0.0794 -1.4298
  243MOL0     H32017   2.409   1.534   3.090 -0.3565  0.4347  0.1663
  243MOL0     H32018   2.321   1.377   3.059  1.2410 -0.4674 -0.6741
  243MOL0     H32019   2.180   1.638   3.028 -1.4866 -0.4126 -0.9796
  243MOL0     H32020   2.104   1.484   3.014 -1.6320  1.1439 -0.0389
  243MOL0     H32021   2.229   1.547   3.282 -0.1374 -1.7196  0.7189
  243MOL0     H32022   2.127   1.415   3.225 -0.5297 -0.8205  0.0310
  243MOL0     H32023   1.943   1.565   3.171 -0.4978 -0.1637  0.7586
  243MOL0     H32024   2.045   1.701   3.226  1.4004 -0.0061  2.9638
  243MOL0     H32025   1.965   1.469   3.413  1.3537  0.5767  3.1780
  243MOL0     H32026   2.079   1.593   3.448  0.0798 -2.8411  0.5977
  243MOL0     H32027   1.778   1.622   3.381 -1.2038  1.1825  1.0697
  243MOL0     H32028   1.873   1.765   3.400  2.3173 -1.2665 -0.7073
  243MOL0     H32029   1.748   1.479   3.616 -0.5862 -0.1431  0.4364
  243MOL0     H32030   1.787   1.584   3.981 -0.6284  0.5275 -0.4254
  243MOL0     H32031   1.769   1.440   3.877 -1.7256 -1.1603 -0.3015
  243MOL0     H32032   1.559   1.519   3.999 -0.5169 -1.8564 -1.3307
  243MOL0     H32033   1.543   1.506   3.820  1.1634  0.0420  0.0169
  243MOL0     H32034   1.594   1.770   3.970 -1.8988  1.9885 -0.6960
  243MOL0     H32035   1.555   1.737   3.806  2.3532  0.4149  0.9224
  243MOL0     H32036   1.324   1.666   3.863 -0.8332 -1.9166  1.9454
  243MOL0     H32037   1.358   1.820   3.941  2.2174  1.1024 -0.9890
  243MOL0     H32038   1.120   1.671   3.924  2.1455 -3.2430 -0.8447
  243MOL0     H32039   0.899   1.665   4.031 -0.4051 -0.7127  0.6912
  243MOL0     H32040   0.767   1.224   4.463 -1.9954 -1.0732 -0.0784
  243MOL0     H32041   0.577   1.164   4.607 -0.6668  0.0727  0.6029
  243MOL0     H32042   0.213   1.225   4.757 -2.8682 -1.7764 -3.2923
  243MOL0     H32043   0.368   1.163   4.724  0.2979  1.8882  2.2168
  243MOL0     H32044   0.315   1.156   4.484 -1.0933 -2.3282 -0.2322
  243MOL0     H32045   0.171   1.260   4.508 -0.9220 -1.5280 -1.1529
  243MOL0     H32046   0.049   1.102   4.618  3.0089  1.5149  3.2572
  243MOL0     H32047   0.165   0.971   4.612 -0.2250 -1.9505 -2.3058
  243MOL0     H32048   0.024   1.102   4.382 -0.3779 -1.0553 -0.0829
  243MOL0     H32049   0.165   1.004   4.348 -0.5123  1.1528 -0.7620
  243MOL0     H32050  -0.044   0.874   4.307 -0.0412  2.4016  0.1958
  243MOL0     H32051  -0.112   0.925   4.455 -1.4677 -2.1071 -1.8211
  243MOL0     H32052   0.090   0.791   4.575 -0.6060 -0.6452  0.5897
  243MOL0     H32053   0.144   0.762   4.414  0.0109  1.1338  1.2736
  243MOL0     H32054  -0.128   0.690   4.529  2.4094  1.3651  0.2708
  243MOL0     H32055  -0.085   0.653   4.364  0.5767 -1.4420 -0.2472
  243MOL0     H32056   0.041   0.554   4.626 -0.8770  0.9716  0.0084
  243MOL0     H32057   0.131   0.533   4.468 -0.7624 -0.0190 -1.7463
  243MOL0     H32058   0.437   1.569   4.579  3.8486  3.1409 -0.2052
  243MOL0     H32059   0.624   1.631   4.455  0.2969 -0.4759  1.6747
  243MOL0     H32060   1.071   1.554   4.397 -0.5967  1.4404  0.9249
  243MOL0     H32061   1.294   1.606   4.308 -0.3847 -1.9602 -1.7939
  243MOL0     H32062   2.770   1.572   3.067 -0.0499 -0.2731 -0.4839
  243MOL0     H32063   3.004   1.556   3.033 -0.5595 -1.8129  0.8331
  243MOL0     H32064   3.336   1.597   2.892 -1.3867 -1.0368  0.1185
  243MOL0     H32065   3.571   1.633   2.909  2.0147  0.3506 -0.3940
  243MOL0     H32066   3.771   1.541   2.953 -0.4212 -0.6300  0.7343
  243MOL0     H32067   3.827   1.690   2.870 -1.5637 -0.4841 -1.4282
  243MOL0     H32068   4.004   1.526   2.970  1.8977 -0.7121 -0.6183
  243MOL0     H32069   3.934   1.408   2.857 -0.4464  0.8635  0.4681
  243MOL0     H32070   4.137   1.595   2.827 -0.4588 -2.3360  1.9954
  243MOL0     H32071   3.999   1.646   2.717 -1.7477 -1.0038 -1.1698
  243MOL0     H32072   4.027   1.379   2.623  1.9560 -1.5264  0.5591
  243MOL0     H32073   4.147   1.500   2.572  0.3379 -1.3610 -0.5503
  243MOL0     H32074   4.395   1.291   2.821 -0.1750 -0.4780 -0.6345
  243MOL0     H32075   3.652   1.437   2.540  0.0344  0.8381 -1.4298
  243MOL0     H32076   3.405   1.398   2.507 -2.2391  2.9378 -0.7400
  244MOL0     O32077   6.931   1.747   2.027 -0.2792 -0.6511  0.3446
  244MOL0     C32078   6.887   1.816   1.934  0.1542  0.2719 -0.2472
  244MOL0     O32079   6.962   1.877   1.837  0.2880  0.2237  0.1231
  244MOL0     C32080   7.098   1.884   1.844 -0.1370 -0.1275  0.1411
  244MOL0     C32081   7.153   1.884   1.717  0.4593  0.4670  0.1776
  244MOL0     C32082   7.288   1.871   1.705  0.5699  0.6033 -0.3735
  244MOL0     C32083   7.373   1.864   1.822 -0.5794  0.2558 -0.7554
  244MOL0     O32084   7.508   1.844   1.821 -0.7541 -0.6581  0.8793
  244MOL0     C32085   7.579   1.849   1.694  0.0725  0.2777 -0.6779
  244MOL0     C32086   7.726   1.816   1.721  0.6267 -0.3289  0.4094
  244MOL0     C32087   7.804   1.835   1.590 -0.1879  0.8261  0.2865
  244MOL0     C32088   7.948   1.798   1.619 -0.7280  0.7339 -0.1474
  244MOL0     C32089   8.025   1.819   1.491  0.2321 -0.8282  0.4785
  244MOL0     C32090   8.181   1.794   1.512  0.2804 -0.6350 -0.5120
  244MOL0     C32091   8.251   1.820   1.378  0.4607 -0.1129  0.6777
  244MOL0     C32092   8.403   1.788   1.383 -0.1571 -0.5909 -0.6717
  244MOL0     N32093   8.460   1.875   1.487  0.0467  0.2751 -0.3735
  244MOL0     C32094   8.472   2.014   1.487  0.1837 -0.1640  0.6866
  244MOL0     C32095   8.513   2.036   1.619 -0.7903 -0.0582 -0.4950
  244MOL0     C32096   8.522   2.176   1.686 -0.2727 -0.0516  0.2333
  244MOL0     C32097   8.667   2.220   1.715  0.1910 -1.0248  0.3902
  244MOL0     C32098   8.751   2.218   1.587  0.5054 -0.1647 -0.1650
  244MOL0     C32099   8.878   2.303   1.605  0.2680  0.1041  0.8377
  244MOL0     O32100   8.973   2.252   1.696  0.6760 -0.2604 -0.1265
  244MOL0     C32101   9.104   2.260   1.665 -0.3600 -0.3937  0.1676
  244MOL0     C32102   9.180   2.155   1.715  0.0855  0.8249  0.6828
  244MOL0     C32103   9.324   2.159   1.720  0.2053  0.2840  0.1928
  244MOL0     C32104   9.394   2.262   1.654  0.1381  0.3002  0.1651
  244MOL0     C32105   9.532   2.267   1.643  0.4184 -0.9668  0.3685
  244MOL0     O32106   9.587   2.392   1.676 -0.1883  0.2009 -0.2334
  244MOL0     C32107   9.695   2.415   1.604  0.4949 -0.1999  0.5248
  244MOL0     C32108   9.685   2.506   1.493  0.0364 -0.8633  0.3873
  244MOL0     C32109   9.800   2.540   1.423  0.2386  0.3071 -0.2366
  244MOL0     C32110   9.925   2.488   1.462 -0.3300  0.4702  0.8370
  244MOL0     O32111  10.048   2.506   1.407  0.1111 -0.1278  0.3751
  244MOL0     C32112  10.065   2.623   1.324  0.2267  0.1528  0.4251
  244MOL0     C32113  10.193   2.579   1.234  0.0550  0.0951  0.2793
  244MOL0     C32114  10.325   2.588   1.311  0.1840 -0.4285  0.1499
  244MOL0     C32115  10.440   2.613   1.223 -0.1523 -0.0218  0.2971
  244MOL0     C32116  10.578   2.633   1.292 -0.3014  0.3414  0.2136
  244MOL0     C32117  10.686   2.630   1.182 -0.6529 -0.2534  0.1834
  244MOL0     C32118  10.822   2.665   1.245 -0.4346 -0.0255  0.6970
  244MOL0     C32119  10.932   2.678   1.145 -0.1236  0.5167 -0.9461
  244MOL0    Cl32120  10.964   2.505   1.103 -0.1782 -0.0205  0.0509
  244MOL0     C32121   9.939   2.401   1.569  0.1246  0.3661  0.7287
  244MOL0     C32122   9.822   2.359   1.632  0.1191 -0.1236  0.1691
  244MOL0     O32123   9.586   2.172   1.582 -0.8629  0.0434  0.1056
  244MOL0     C32124   9.317   2.366   1.598  0.7889  0.3208  0.5012
  244MOL0     C32125   9.174   2.366   1.596 -0.1657  0.8083 -0.0345
  244MOL0     N32126   8.560   1.914   1.680  0.2064  0.3533  0.0766
  244MOL0     N32127   8.517   1.822   1.593  0.1414  0.7159 -0.4370
  244MOL0     C32128   7.315   1.886   1.945 -0.4307 -0.5205  0.1900
  244MOL0     C32129   7.181   1.884   1.962  0.8215  0.1416 -0.1039
  244MOL0     C32130   6.746   1.824   1.923  0.4079  0.0385  0.0143
  244MOL0     C32131   6.659   1.796   2.029 -0.3346  0.7138 -0.0443
  244MOL0     C32132   6.528   1.821   2.017 -0.2964 -0.6048 -0.7448
  244MOL0     C32133   6.477   1.889   1.908  0.5420 -0.1245  0.5093
  244MOL0     O32134   6.343   1.913   1.915 -0.3600  0.4167 -0.2717
  244MOL0     C32135   6.284   1.959   1.790  0.3897  0.6853 -0.1226
  244MOL0     C32136   6.135   1.982   1.805 -0.7237  0.3721 -0.3948
  244MOL0     C32137   6.064   2.015   1.673 -0.3247 -0.7388 -0.3368
  244MOL0     C32138   5.917   2.033   1.696 -0.6449  0.1037 -0.7406
  244MOL0     C32139   5.874   2.147   1.770 -0.9168 -0.3524  0.5491
  244MOL0     C32140   5.824   2.228   1.838  0.0105  0.2446 -0.3876
  244MOL0     C32141   6.554   1.922   1.801  0.2486  0.1536  0.2651
  244MOL0     C32142   6.688   1.885   1.803  0.8574 -0.1220 -0.3315
  244MOL0     H32143   7.097   1.883   1.624  1.1118  2.0200 -0.2718
  244MOL0     H32144   7.334   1.865   1.607  0.1830 -2.4642 -0.4445
  244MOL0     H32145   7.579   1.944   1.639  1.8383 -0.8099 -2.6778
  244MOL0     H32146   7.540   1.778   1.621 -0.5436  0.6365 -0.7044
  244MOL0     H32147   7.748   1.722   1.773  1.6523 -1.6204 -2.1769
  244MOL0     H32148   7.766   1.897   1.784  0.8382 -0.9075  1.0344
  244MOL0     H32149   7.796   1.939   1.556  0.3506  0.9624  0.5620
  244MOL0     H32150   7.745   1.785   1.512 -0.2602 -0.8944  1.3932
  244MOL0     H32151   7.989   1.857   1.702  1.8871 -2.8159  1.3359
  244MOL0     H32152   7.948   1.697   1.661 -1.2384  2.1674  3.8094
  244MOL0     H32153   8.021   1.920   1.448 -0.4728 -1.5700 -1.2870
  244MOL0     H32154   7.987   1.750   1.416  1.1225 -0.7943 -0.0253
  244MOL0     H32155   8.180   1.687   1.536  2.2184 -0.5015  0.3603
  244MOL0     H32156   8.222   1.845   1.599 -0.4663 -1.0199  0.0830
  244MOL0     H32157   8.212   1.758   1.297  1.4058 -2.2896  1.8082
  244MOL0     H32158   8.239   1.927   1.356  1.0058  0.2053  1.8628
  244MOL0     H32159   8.448   1.813   1.286 -2.5091  2.0063 -1.1917
  244MOL0     H32160   8.430   1.687   1.416  0.2458  0.4888  2.7056
  244MOL0     H32161   8.433   2.087   1.417 -1.0130 -3.0583 -1.8695
  244MOL0     H32162   8.473   2.156   1.781  0.8106 -2.6935  0.3253
  244MOL0     H32163   8.461   2.250   1.634 -1.2228  0.2452  1.7187
  244MOL0     H32164   8.711   2.183   1.808  0.3817  3.8029  2.5646
  244MOL0     H32165   8.655   2.328   1.731 -2.5387 -1.1726 -0.1536
  244MOL0     H32166   8.768   2.115   1.554 -1.5718 -0.5819 -0.1252
  244MOL0     H32167   8.696   2.269   1.506  0.1187  2.2800  1.5202
  244MOL0     H32168   8.842   2.402   1.634  1.2869  1.1900 -1.3046
  244MOL0     H32169   8.923   2.316   1.506 -0.8608 -1.3620  0.0976
  244MOL0     H32170   9.125   2.073   1.759 -0.8105  0.5116 -0.9144
  244MOL0     H32171   9.382   2.078   1.764 -2.4747 -1.1301  1.3257
  244MOL0     H32172   9.591   2.550   1.462 -0.7491 -1.2284  2.1298
  244MOL0     H32173   9.791   2.615   1.345 -0.1812  1.3513  0.7743
  244MOL0     H32174  10.072   2.711   1.388 -1.6677 -1.2545  2.7218
  244MOL0     H32175   9.979   2.631   1.257 -2.9040  0.6006  4.1936
  244MOL0     H32176  10.192   2.656   1.156 -2.5355 -0.2591 -0.1359
  244MOL0     H32177  10.177   2.483   1.185  2.4046 -0.2268  0.0438
  244MOL0     H32178  10.348   2.498   1.369 -3.0276 -0.4146  1.6267
  244MOL0     H32179  10.320   2.666   1.387 -0.6204  0.5493 -0.8740
  244MOL0     H32180  10.454   2.519   1.167 -0.0144 -0.7062  1.4483
  244MOL0     H32181  10.417   2.692   1.151  2.2369 -0.4295 -1.0327
  244MOL0     H32182  10.592   2.545   1.356  2.0450 -0.2440 -1.0238
  244MOL0     H32183  10.574   2.725   1.352 -1.4929  0.1982  0.3791
  244MOL0     H32184  10.672   2.705   1.104  0.6523  0.7143  0.8430
  244MOL0     H32185  10.685   2.538   1.123 -2.1302  1.7651 -3.2109
  244MOL0     H32186  10.809   2.755   1.307 -2.4247 -0.2975  0.7297
  244MOL0     H32187  10.853   2.596   1.324  4.1180  0.8648 -0.0422
  244MOL0     H32188  11.024   2.724   1.181 -1.1693  1.3559  0.7884
  244MOL0     H32189  10.905   2.736   1.056  0.1811  1.3808 -0.4918
  244MOL0     H32190  10.032   2.348   1.587 -0.2945  0.0613  2.1500
  244MOL0     H32191   9.827   2.290   1.715 -0.6870  1.4748  1.6054
  244MOL0     H32192   9.370   2.442   1.541  3.0491 -2.9479 -2.1648
  244MOL0     H32193   9.131   2.455   1.551  0.0190  1.2911  0.7222
  244MOL0     H32194   7.383   1.901   2.028  0.2988 -0.7196 -0.3597
  244MOL0     H32195   7.151   1.890   2.066 -1.2279 -0.4263 -0.6284
  244MOL0     H32196   6.695   1.745   2.118 -3.3536 -2.0692 -0.2638
  244MOL0     H32197   6.482   1.801   2.113  1.7234  1.5085  0.7996
  244MOL0     H32198   6.303   1.885   1.712 -0.5791 -0.0507  0.3292
  244MOL0     H32199   6.323   2.060   1.769  3.1835 -0.4911 -1.0755
  244MOL0     H32200   6.091   1.887   1.838  0.2039  0.6912  1.8857
  244MOL0     H32201   6.115   2.056   1.882  4.1591  1.1780  0.4192
  244MOL0     H32202   6.087   1.930   1.608  0.1358  0.3025 -1.5784
  244MOL0     H32203   6.105   2.101   1.620  0.5779 -1.3672 -0.6795
  244MOL0     H32204   5.857   2.029   1.604 -3.6015 -0.1099  1.0793
  244MOL0     H32205   5.869   1.953   1.752 -0.9770  0.9720  0.2489
  244MOL0     H32206   5.802   2.315   1.897 -0.4220 -1.7166  2.5690
  244MOL0     H32207   6.530   1.992   1.721 -0.3598 -0.7413 -0.3491
  244MOL0     H32208   6.750   1.923   1.723  0.9068  0.0017 -0.2350
  245MOL0     O32209   5.361  10.378   4.347  0.0265 -0.4188 -0.0814
  245MOL0     C32210   5.456  10.350   4.424  0.2353 -0.4354  1.0313
  245MOL0     O32211   5.438  10.284   4.542  0.1131  0.2818 -0.4168
  245MOL0     C32212   5.323  10.211   4.558 -0.4180  0.4849 -0.2720
  245MOL0     C32213   5.220  10.263   4.635 -0.1299 -0.4911 -0.2041
  245MOL0     C32214   5.105  10.191   4.667 -0.2855  0.5694 -0.0199
  245MOL0     C32215   5.084  10.057   4.626 -0.0479 -0.3836  0.0654
  245MOL0     O32216   4.969   9.997   4.680 -0.0442  0.0390  0.4631
  245MOL0     C32217   4.897   9.894   4.605 -0.0219  0.1256 -0.2270
  245MOL0     C32218   4.752   9.888   4.649 -1.0214  0.4749  0.9466
  245MOL0     C32219   4.666  10.000   4.591  0.3890 -0.2560 -1.1903
  245MOL0     C32220   4.641   9.993   4.444 -0.3399  0.3406 -0.1966
  245MOL0     C32221   4.535  10.087   4.406  0.2253  0.0965 -0.0868
  245MOL0     C32222   4.581  10.232   4.392  0.0359 -0.0423  0.0244
  245MOL0     C32223   4.491  10.314   4.304 -0.7356  0.5447 -0.3469
  245MOL0     C32224   4.344  10.315   4.345  0.2091 -0.3678  0.0860
  245MOL0     N32225   4.268  10.439   4.296 -0.3248  0.4443 -0.0667
  245MOL0     C32226   4.279  10.490   4.166  0.5764  0.2543 -0.9332
  245MOL0     C32227   4.207  10.599   4.178  0.9771 -0.6140  0.1623
  245MOL0     C32228   4.173  10.693   4.075  0.0341  0.3498  0.2507
  245MOL0     C32229   4.020  10.699   4.047 -0.6355 -0.1972 -1.0218
  245MOL0     C32230   3.949  10.565   4.028  0.7415  0.8023  0.1290
  245MOL0     C32231   3.802  10.595   3.996 -0.2959 -0.5209  0.8838
  245MOL0     O32232   3.724  10.475   3.965  0.4727 -0.8205  0.1840
  245MOL0     C32233   3.644  10.432   4.068 -1.1329 -0.2612 -0.0528
  245MOL0     C32234   3.542  10.511   4.117 -0.3359  0.2409  1.0171
  245MOL0     C32235   3.462  10.473   4.218  0.7291 -0.0483 -0.2941
  245MOL0     C32236   3.483  10.357   4.285  0.1554  1.1572  0.8298
  245MOL0     C32237   3.408  10.312   4.410 -0.3924 -0.6787  0.1334
  245MOL0     O32238   3.410  10.179   4.450  0.5172  0.5948 -0.5938
  245MOL0     C32239   3.339  10.124   4.549  0.4028 -0.2952 -1.0926
  245MOL0     C32240   3.215  10.173   4.591  0.6615  0.6335 -0.4969
  245MOL0     C32241   3.131  10.107   4.676  0.1012 -0.2078 -0.2636
  245MOL0     C32242   3.175   9.984   4.730 -0.1077  0.3291 -0.4055
  245MOL0     O32243   3.085   9.909   4.801 -1.3453  0.0538 -0.1833
  245MOL0     C32244   3.120   9.773   4.837 -0.0228 -0.1163  0.2549
  245MOL0     C32245   3.056   9.724   4.973  0.4246 -0.3144  0.7030
  245MOL0     C32246   3.050   9.826   5.086 -0.0173 -0.7286  0.0191
  245MOL0     C32247   2.988   9.776   5.215  0.5053 -0.2440  0.3590
  245MOL0     C32248   2.836   9.763   5.197 -0.1202  0.9237 -0.2135
  245MOL0     C32249   2.767   9.677   5.311  0.2076 -0.0721  1.3481
  245MOL0     C32250   2.615   9.693   5.300 -0.2873 -0.6540  0.9040
  245MOL0     C32251   2.558   9.621   5.424  0.6339 -0.5401 -0.5839
  245MOL0    Cl32252   2.378   9.606   5.435  0.0852 -0.4540 -0.1779
  245MOL0     C32253   3.301   9.940   4.691  0.3436  1.0855 -0.8341
  245MOL0     C32254   3.375  10.008   4.605 -0.1630 -0.4008  0.6696
  245MOL0     O32255   3.338  10.396   4.456  0.3410 -0.2724  0.9017
  245MOL0     C32256   3.578  10.266   4.241 -0.3308 -0.1906  1.1322
  245MOL0     C32257   3.656  10.305   4.127  0.3219 -0.7813  0.2970
  245MOL0     N32258   4.153  10.622   4.302  0.0708 -0.4687 -0.2239
  245MOL0     N32259   4.181  10.520   4.371  0.8792  0.2069 -0.4206
  245MOL0     C32260   5.183  10.005   4.532  0.1081  0.6991 -0.5289
  245MOL0     C32261   5.308  10.075   4.507 -0.4637 -0.0989 -1.1274
  245MOL0     C32262   5.595  10.382   4.387  0.0435 -0.0245  0.3790
  245MOL0     C32263   5.614  10.451   4.266 -0.5333  0.4077 -0.1907
  245MOL0     C32264   5.740  10.496   4.235 -0.6673 -0.2181  0.1273
  245MOL0     C32265   5.847  10.453   4.324 -0.4781 -0.0565  0.1018
  245MOL0     O32266   5.976  10.508   4.314 -0.0516 -0.0224 -0.0272
  245MOL0     C32267   6.012  10.583   4.192  0.4435 -0.3186 -0.7461
  245MOL0     C32268   5.982  10.736   4.213  0.1313 -0.3399 -0.2006
  245MOL0     C32269   5.978  10.831   4.096  0.5987 -0.2865 -0.3288
  245MOL0     C32270   5.825  10.845   4.052  1.0720 -1.0654  0.0917
  245MOL0     C32271   5.819  10.971   3.971 -0.9590 -1.1035 -0.0967
  245MOL0     C32272   5.815  11.072   3.903 -0.1450  0.2464 -0.6953
  245MOL0     C32273   5.832  10.381   4.439  0.1202 -0.4146 -0.3105
  245MOL0     C32274   5.703  10.336   4.474  0.6300 -0.1739  0.2816
  245MOL0     H32275   5.234  10.353   4.694  0.0446  0.6921 -1.9740
  245MOL0     H32276   5.039  10.215   4.750 -0.2378 -1.9061  0.8277
  245MOL0     H32277   4.943   9.799   4.633  0.0614  0.1117 -0.4095
  245MOL0     H32278   4.912   9.912   4.499  2.5996 -1.7551 -0.2644
  245MOL0     H32279   4.748   9.892   4.758 -1.9497  2.7208  0.8804
  245MOL0     H32280   4.711   9.792   4.616  2.8257 -0.9738 -0.1843
  245MOL0     H32281   4.713  10.093   4.626  0.9195 -0.6780 -0.7512
  245MOL0     H32282   4.575   9.984   4.650  1.8008 -0.1355  1.1481
  245MOL0     H32283   4.737  10.018   4.397  0.2284  1.5356  1.5128
  245MOL0     H32284   4.605   9.891   4.424  1.2737 -0.3421  0.1419
  245MOL0     H32285   4.450  10.065   4.471  0.2785 -3.6972 -1.0597
  245MOL0     H32286   4.504  10.056   4.306 -0.9428 -0.9766  0.5916
  245MOL0     H32287   4.684  10.233   4.353 -0.6354  1.0837 -1.8556
  245MOL0     H32288   4.593  10.270   4.494 -0.0637  2.0567 -0.7002
  245MOL0     H32289   4.523  10.419   4.303 -1.4596  0.7833  0.4360
  245MOL0     H32290   4.495  10.276   4.202 -0.8009  4.9319 -2.2308
  245MOL0     H32291   4.332  10.300   4.453  1.5573  0.2263  0.3481
  245MOL0     H32292   4.292  10.233   4.296 -0.2154  0.1970 -0.4236
  245MOL0     H32293   4.350  10.472   4.087  1.9771 -0.5156  0.4651
  245MOL0     H32294   4.224  10.679   3.979 -1.8240 -1.5295 -0.5586
  245MOL0     H32295   4.222  10.784   4.109  1.1546 -0.3099  0.4630
  245MOL0     H32296   4.007  10.756   3.955 -0.7600 -0.6043 -1.2589
  245MOL0     H32297   3.964  10.741   4.131  0.4283  1.9673 -1.3277
  245MOL0     H32298   3.992  10.512   3.943  0.0409  2.2717 -1.1827
  245MOL0     H32299   3.951  10.495   4.112  2.0738 -1.1579 -1.4384
  245MOL0     H32300   3.793  10.650   3.902 -0.4291 -0.1669  1.1003
  245MOL0     H32301   3.748  10.654   4.070 -2.5176  0.3453 -1.2960
  245MOL0     H32302   3.532  10.612   4.078 -0.5265 -0.0302  0.3557
  245MOL0     H32303   3.393  10.552   4.245  2.8641  1.5441  0.8092
  245MOL0     H32304   3.165  10.260   4.550 -2.1337 -0.3833  0.5636
  245MOL0     H32305   3.034  10.145   4.706 -0.0926 -1.0345  0.1873
  245MOL0     H32306   3.227   9.753   4.850 -0.7769 -3.7766  2.2107
  245MOL0     H32307   3.079   9.716   4.752  0.5249  0.6039 -0.5121
  245MOL0     H32308   3.104   9.633   5.009  1.3002 -1.3721 -2.7243
  245MOL0     H32309   2.955   9.693   4.943 -0.2686  1.5591  0.9620
  245MOL0     H32310   2.984   9.908   5.058  0.4751 -0.1084  0.6470
  245MOL0     H32311   3.151   9.865   5.107 -0.0720 -0.7631  0.3532
  245MOL0     H32312   3.025   9.677   5.244 -1.1844 -0.4528  1.9333
  245MOL0     H32313   2.998   9.840   5.303 -3.2445  3.3730 -1.5041
  245MOL0     H32314   2.821   9.722   5.096  2.1827 -0.8900  0.1019
  245MOL0     H32315   2.789   9.862   5.202  0.1747  1.0651 -0.2610
  245MOL0     H32316   2.803   9.721   5.404 -1.3256  1.4777  1.2564
  245MOL0     H32317   2.791   9.572   5.294 -4.1626 -0.9529 -0.7582
  245MOL0     H32318   2.591   9.799   5.293 -1.1262 -0.9015 -0.3870
  245MOL0     H32319   2.586   9.651   5.203  1.9214 -1.0204  0.3584
  245MOL0     H32320   2.588   9.672   5.515  4.8378 -2.6928 -0.5468
  245MOL0     H32321   2.599   9.521   5.433  1.1445 -0.2408  0.5422
  245MOL0     H32322   3.344   9.846   4.724  2.7648  1.9522 -1.3282
  245MOL0     H32323   3.474   9.969   4.582  0.2167 -0.3934  2.2335
  245MOL0     H32324   3.594  10.162   4.266  0.7660 -0.9329 -2.2108
  245MOL0     H32325   3.729  10.246   4.072 -1.5623 -0.9073 -2.2610
  245MOL0     H32326   5.166   9.902   4.501 -0.2190  0.7124 -0.4027
  245MOL0     H32327   5.383  10.040   4.437  0.7626 -0.2867  0.2268
  245MOL0     H32328   5.529  10.468   4.200  0.4558  0.3006 -1.5486
  245MOL0     H32329   5.748  10.556   4.145 -2.9854 -1.9735 -1.3774
  245MOL0     H32330   5.963  10.542   4.103 -1.6864  0.4089  0.0280
  245MOL0     H32331   6.119  10.562   4.183  0.4690 -0.0589 -1.0395
  245MOL0     H32332   5.888  10.740   4.269  0.4048  2.9593  0.2391
  245MOL0     H32333   6.058  10.770   4.285 -1.8286  0.8428  1.4387
  245MOL0     H32334   6.027  10.773   4.018 -1.4027 -2.3723 -0.1648
  245MOL0     H32335   6.030  10.922   4.125  2.2407 -1.8542  2.0929
  245MOL0     H32336   5.793  10.765   3.985 -0.8164 -0.6725  0.4763
  245MOL0     H32337   5.750  10.847   4.131  0.2220 -3.4225 -0.5648
  245MOL0     H32338   5.809  11.169   3.856  4.2709  0.1203 -1.9087
  245MOL0     H32339   5.907  10.335   4.501 -0.3037 -1.1305 -0.3127
  245MOL0     H32340   5.701  10.274   4.563  0.5845 -0.1221  0.3163
  246MOL0     O32341   1.819   8.721   1.809 -0.2613 -0.2824  0.3388
  246MOL0     C32342   1.806   8.598   1.816  0.1113 -0.0756  0.0779
  246MOL0     O32343   1.907   8.501   1.798 -0.0670 -0.2013 -0.3621
  246MOL0     C32344   2.039   8.531   1.749 -0.2419 -0.6242 -0.6116
  246MOL0     C32345   2.134   8.448   1.800 -0.0829  0.5697  0.0135
  246MOL0     C32346   2.272   8.481   1.772  0.0734  0.5027  0.4185
  246MOL0     C32347   2.306   8.589   1.693  0.1456 -0.1870 -1.0777
  246MOL0     O32348   2.443   8.623   1.686 -0.3355 -0.1162  0.0278
  246MOL0     C32349   2.501   8.649   1.564 -0.8627  0.4752  0.4868
  246MOL0     C32350   2.619   8.556   1.536 -0.3088 -0.5896 -0.1737
  246MOL0     C32351   2.582   8.407   1.548 -0.1583  0.3381 -0.3229
  246MOL0     C32352   2.690   8.323   1.486  0.2255  0.0816  0.7901
  246MOL0     C32353   2.671   8.170   1.516 -0.3721  0.3692 -0.5167
  246MOL0     C32354   2.662   8.146   1.669 -0.1244 -0.3329 -0.0877
  246MOL0     C32355   2.691   7.998   1.701  0.5919  0.9331 -0.1444
  246MOL0     C32356   2.681   7.991   1.856  0.1513 -0.3638 -0.2735
  246MOL0     N32357   2.681   7.852   1.903  0.2981  0.0075  0.6140
  246MOL0     C32358   2.567   7.770   1.924  0.0904  0.0800 -0.3081
  246MOL0     C32359   2.620   7.646   1.945 -0.4266 -0.1476 -0.2878
  246MOL0     C32360   2.545   7.535   2.022  0.2238 -0.1424 -0.1062
  246MOL0     C32361   2.447   7.466   1.920  0.2105  0.2855 -0.5064
  246MOL0     C32362   2.521   7.413   1.795  0.3655  0.6603  1.0345
  246MOL0     C32363   2.414   7.332   1.723  0.1055  0.4330 -0.2933
  246MOL0     O32364   2.404   7.195   1.762 -0.0326  0.0516 -0.1248
  246MOL0     C32365   2.313   7.117   1.698  0.3925 -0.7708  0.2697
  246MOL0     C32366   2.314   6.980   1.731  0.5631  0.5226 -0.1924
  246MOL0     C32367   2.225   6.890   1.671  0.5536 -0.2142  0.4919
  246MOL0     C32368   2.137   6.936   1.575 -0.1063  0.3181  0.3829
  246MOL0     C32369   2.063   6.839   1.509 -0.5142 -0.5392  0.6067
  246MOL0     O32370   1.956   6.890   1.440 -0.2171 -0.4752 -0.4937
  246MOL0     C32371   1.888   6.804   1.359  0.2044 -0.3054 -0.8503
  246MOL0     C32372   1.754   6.783   1.391 -0.1671 -0.5497  0.2087
  246MOL0     C32373   1.682   6.681   1.328  0.9885  0.3666  0.0959
  246MOL0     C32374   1.741   6.605   1.218  0.2801 -0.5911  0.1830
  246MOL0     O32375   1.668   6.506   1.160  0.7319 -0.2111  0.0588
  246MOL0     C32376   1.694   6.453   1.029  0.1071  0.8884 -0.2146
  246MOL0     C32377   1.591   6.336   0.997  0.1279  0.1421  0.0234
  246MOL0     C32378   1.460   6.393   0.943  0.1520  0.5186 -0.0424
  246MOL0     C32379   1.348   6.281   0.918 -1.0781  0.2489  0.1865
  246MOL0     C32380   1.219   6.349   0.863 -0.0080 -0.8669 -0.4875
  246MOL0     C32381   1.135   6.231   0.812  0.2608 -1.1195  0.5105
  246MOL0     C32382   1.013   6.296   0.741 -0.1821  1.2245 -0.2880
  246MOL0     C32383   0.917   6.194   0.694 -0.6486 -0.4024 -0.7245
  246MOL0    Cl32384   0.991   6.071   0.599 -0.0492  0.6795  0.0971
  246MOL0     C32385   1.875   6.643   1.179 -0.4847  0.3962  0.3635
  246MOL0     C32386   1.951   6.736   1.253  0.2303 -0.4396  0.3282
  246MOL0     O32387   2.089   6.723   1.521  0.5240 -0.4887 -0.3918
  246MOL0     C32388   2.138   7.068   1.539  0.9431 -0.0760 -0.1242
  246MOL0     C32389   2.218   7.159   1.600  0.6140 -0.6323  0.4027
  246MOL0     N32390   2.758   7.651   1.920  0.9088 -0.3391 -0.5492
  246MOL0     N32391   2.793   7.778   1.904 -0.0950  0.0153 -0.0377
  246MOL0     C32392   2.203   8.669   1.638  0.6454 -0.4684 -1.0435
  246MOL0     C32393   2.067   8.637   1.662  0.0677  0.7468  0.3645
  246MOL0     C32394   1.674   8.559   1.863  0.3885  0.1098  0.6540
  246MOL0     C32395   1.642   8.425   1.881 -0.0372 -0.0896  0.3463
  246MOL0     C32396   1.518   8.390   1.942 -0.1257 -0.6053 -0.0109
  246MOL0     C32397   1.420   8.485   1.964  0.0709  0.5257 -0.0441
  246MOL0     O32398   1.300   8.444   1.998  0.2617 -0.3314 -0.2332
  246MOL0     C32399   1.200   8.538   2.038 -0.1935  0.5550 -0.1544
  246MOL0     C32400   1.088   8.467   2.111  0.0243  0.0217 -0.6857
  246MOL0     C32401   1.035   8.349   2.036  0.7202 -0.7466  0.2770
  246MOL0     C32402   0.920   8.289   2.116 -0.2247  0.6865  0.3689
  246MOL0     C32403   0.841   8.193   2.033 -0.1515  0.1473  0.0009
  246MOL0     C32404   0.789   8.125   1.950  0.1315  0.7334  0.5132
  246MOL0     C32405   1.448   8.613   1.938 -0.1620 -0.4720  0.3308
  246MOL0     C32406   1.577   8.654   1.904 -0.4906  0.7112  0.2898
  246MOL0     H32407   2.116   8.363   1.865 -2.0606  1.0902  0.1929
  246MOL0     H32408   2.352   8.417   1.810  1.2441  2.6095  1.6694
  246MOL0     H32409   2.542   8.750   1.570  2.8305 -0.8240 -0.3356
  246MOL0     H32410   2.426   8.637   1.485  1.1424  1.3138 -1.6573
  246MOL0     H32411   2.699   8.575   1.607 -2.2216  4.0588  1.0917
  246MOL0     H32412   2.652   8.567   1.433 -1.4463 -1.9369 -0.7309
  246MOL0     H32413   2.493   8.382   1.490 -1.2427 -1.3182  1.9149
  246MOL0     H32414   2.560   8.376   1.651  2.8963 -0.1875  0.2915
  246MOL0     H32415   2.689   8.340   1.378 -0.6987  1.9723  1.0667
  246MOL0     H32416   2.790   8.339   1.529  0.5942 -1.3146  0.5104
  246MOL0     H32417   2.760   8.119   1.477 -0.7628  0.4422 -1.5392
  246MOL0     H32418   2.587   8.136   1.456 -0.7236  0.9420 -0.3465
  246MOL0     H32419   2.568   8.181   1.715  0.7729  1.8898  0.1795
  246MOL0     H32420   2.739   8.210   1.713  0.7986 -1.5570  0.1398
  246MOL0     H32421   2.611   7.935   1.661 -0.0577  1.9114 -0.4295
  246MOL0     H32422   2.782   7.964   1.652  0.0867 -1.5915  0.5455
  246MOL0     H32423   2.586   8.029   1.894 -0.0745  0.1802 -1.3493
  246MOL0     H32424   2.768   8.046   1.892  1.3820 -0.2748 -3.1538
  246MOL0     H32425   2.463   7.799   1.935 -0.2123 -1.1245  0.2069
  246MOL0     H32426   2.485   7.586   2.098 -0.6793 -0.9414 -0.2632
  246MOL0     H32427   2.610   7.456   2.060 -3.0928 -2.7788  0.5443
  246MOL0     H32428   2.376   7.544   1.892  2.6936  3.0551  0.3479
  246MOL0     H32429   2.386   7.386   1.964 -0.9028  1.8587  0.9879
  246MOL0     H32430   2.567   7.487   1.728 -0.5464 -0.3726 -0.8111
  246MOL0     H32431   2.597   7.339   1.818  0.2148  0.1614 -0.0109
  246MOL0     H32432   2.445   7.338   1.618  0.6794  0.9382 -0.0952
  246MOL0     H32433   2.316   7.380   1.726  0.8829  2.0809  3.3808
  246MOL0     H32434   2.395   6.957   1.800  0.7596  1.2383 -0.1714
  246MOL0     H32435   2.235   6.785   1.695 -0.1909 -1.0251 -2.2910
  246MOL0     H32436   1.729   6.838   1.481  0.0478  2.1217 -1.2640
  246MOL0     H32437   1.577   6.662   1.345  0.0692  2.5363 -2.5020
  246MOL0     H32438   1.789   6.402   1.045  0.3087  1.7526  1.5623
  246MOL0     H32439   1.702   6.528   0.949  0.8084  0.4992 -0.5188
  246MOL0     H32440   1.568   6.281   1.089  5.1738 -2.0483  0.3395
  246MOL0     H32441   1.636   6.272   0.920 -0.4385 -0.3825  0.1174
  246MOL0     H32442   1.484   6.452   0.854  1.0622  0.1117 -0.0813
  246MOL0     H32443   1.428   6.461   1.022  1.1066 -2.2687  2.9450
  246MOL0     H32444   1.389   6.201   0.856  0.1795  0.1889  1.0571
  246MOL0     H32445   1.319   6.232   1.012 -2.7103 -0.1283 -0.4767
  246MOL0     H32446   1.247   6.409   0.775 -0.0226 -3.6606 -2.5375
  246MOL0     H32447   1.157   6.402   0.936 -2.3673  2.0500 -4.2368
  246MOL0     H32448   1.110   6.171   0.901 -0.5533  0.0640  1.0955
  246MOL0     H32449   1.177   6.158   0.742 -1.7461 -0.8542 -1.0704
  246MOL0     H32450   0.960   6.359   0.814  1.9786 -0.0801  2.6127
  246MOL0     H32451   1.041   6.364   0.660  0.8414  5.2039  3.0498
  246MOL0     H32452   0.843   6.240   0.628 -0.8535 -0.4492 -0.5294
  246MOL0     H32453   0.865   6.154   0.782 -0.7138  0.8373 -0.1615
  246MOL0     H32454   1.927   6.586   1.103  1.2877  0.6656  1.3197
  246MOL0     H32455   2.053   6.763   1.228  0.3437  0.9232  2.0099
  246MOL0     H32456   2.062   7.106   1.471 -1.6180 -0.6238  2.2482
  246MOL0     H32457   2.214   7.258   1.556 -0.7833 -0.7339  0.2598
  246MOL0     H32458   2.227   8.754   1.575  0.4853 -0.3302 -0.9204
  246MOL0     H32459   1.996   8.709   1.623  0.3967  0.1769 -1.4104
  246MOL0     H32460   1.715   8.346   1.867 -0.9797 -0.8587 -0.4083
  246MOL0     H32461   1.498   8.284   1.954 -4.1694  0.2279  2.7138
  246MOL0     H32462   1.154   8.586   1.951  1.1492 -0.8098 -1.6915
  246MOL0     H32463   1.231   8.614   2.111 -2.4207 -1.8245  3.5770
  246MOL0     H32464   1.120   8.428   2.208  0.2573 -0.1058 -0.8140
  246MOL0     H32465   1.010   8.543   2.127 -1.2450 -1.6695  1.7455
  246MOL0     H32466   1.112   8.277   2.006 -1.8804 -2.9427 -1.7344
  246MOL0     H32467   0.995   8.394   1.945  0.8369  0.6440  0.8849
  246MOL0     H32468   0.966   8.245   2.206  2.8539  2.7179 -0.0359
  246MOL0     H32469   0.860   8.372   2.152 -1.9426  1.3819 -3.6046
  246MOL0     H32470   0.742   8.058   1.880  1.4260  0.6806 -0.3394
  246MOL0     H32471   1.379   8.694   1.956 -3.2191 -2.6025 -1.0751
  246MOL0     H32472   1.604   8.759   1.913  0.5423  0.3324  2.1650
  247MOL0     O32473   9.419   2.122   4.725  0.0085  0.1791  0.4229
  247MOL0     C32474   9.449   2.101   4.841 -0.3382 -0.6793  0.6230
  247MOL0     O32475   9.368   2.110   4.943 -0.1409 -1.0655  0.1179
  247MOL0     C32476   9.250   2.178   4.955 -0.1351  0.3703  0.0022
  247MOL0     C32477   9.215   2.286   4.871 -0.0065  0.6324  0.0619
  247MOL0     C32478   9.084   2.343   4.881  0.2285  0.5700 -0.1096
  247MOL0     C32479   8.991   2.282   4.974 -0.6921  0.4309  0.0026
  247MOL0     O32480   8.857   2.323   4.992  0.3202  0.0303 -0.0774
  247MOL0     C32481   8.776   2.317   4.871 -0.6622  0.1427 -0.0915
  247MOL0     C32482   8.630   2.349   4.913 -0.1387  0.0507  0.0281
  247MOL0     C32483   8.529   2.350   4.789  0.4056 -0.1077 -0.6073
  247MOL0     C32484   8.382   2.377   4.807 -0.0277  0.4805 -0.3850
  247MOL0     C32485   8.302   2.319   4.695  0.6919 -0.3987 -0.2022
  247MOL0     C32486   8.162   2.373   4.699  0.2039  0.1447  0.9316
  247MOL0     C32487   8.046   2.290   4.641  0.0364  0.2065  0.0065
  247MOL0     C32488   7.910   2.329   4.705  0.5232  0.5581 -0.0622
  247MOL0     N32489   7.809   2.258   4.624 -0.2994 -0.6187 -0.5734
  247MOL0     C32490   7.674   2.277   4.632  0.3931 -0.6648  0.4121
  247MOL0     C32491   7.616   2.194   4.544 -0.6537  0.4811 -0.1347
  247MOL0     C32492   7.467   2.179   4.530  0.5870  0.7317 -0.1802
  247MOL0     C32493   7.421   2.033   4.525 -0.4415 -0.7615  0.3510
  247MOL0     C32494   7.283   2.019   4.459 -0.4378  0.2414 -0.3926
  247MOL0     C32495   7.229   1.879   4.489 -0.3410 -0.2708  0.3840
  247MOL0     O32496   7.091   1.887   4.466 -0.2804  0.7534  0.1254
  247MOL0     C32497   7.007   1.778   4.476 -0.0048  0.4805 -0.3322
  247MOL0     C32498   7.030   1.660   4.556 -0.1688 -0.3139  0.7002
  247MOL0     C32499   6.938   1.551   4.560 -0.0695 -0.6786 -0.6989
  247MOL0     C32500   6.810   1.565   4.496 -0.4999 -0.0275 -0.6169
  247MOL0     C32501   6.701   1.467   4.520 -0.2897 -0.6047  0.5560
  247MOL0     O32502   6.582   1.485   4.459  0.3876 -0.4196 -0.2227
  247MOL0     C32503   6.463   1.422   4.486 -0.2129 -0.0166  0.5160
  247MOL0     C32504   6.434   1.348   4.600 -0.3077 -0.8409  0.2452
  247MOL0     C32505   6.305   1.296   4.617 -0.4817 -0.6127  0.6698
  247MOL0     C32506   6.198   1.333   4.534 -0.1338 -0.4145 -1.1470
  247MOL0     O32507   6.078   1.278   4.569 -0.0743 -0.5983 -1.1185
  247MOL0     C32508   5.969   1.303   4.479  0.7757 -0.6014 -0.5667
  247MOL0     C32509   5.854   1.207   4.529  1.0637  0.2496  0.3842
  247MOL0     C32510   5.738   1.267   4.458  0.6358  0.0194  0.1651
  247MOL0     C32511   5.610   1.195   4.483 -1.1796 -0.5619 -0.1935
  247MOL0     C32512   5.483   1.282   4.482 -0.3508 -0.1458  0.2426
  247MOL0     C32513   5.354   1.196   4.469  0.6765  0.1685  0.9585
  247MOL0     C32514   5.282   1.192   4.595  0.2504 -0.0111 -0.2760
  247MOL0     C32515   5.136   1.141   4.585  0.2566  0.3725  0.7707
  247MOL0    Cl32516   5.131   0.965   4.524  0.0224 -0.2537 -0.1404
  247MOL0     C32517   6.230   1.408   4.428  0.0784  0.9185  0.3233
  247MOL0     C32518   6.361   1.442   4.399  0.3368 -0.8308  0.8197
  247MOL0     O32519   6.720   1.386   4.608  0.5934 -0.2499  0.1949
  247MOL0     C32520   6.778   1.681   4.424  0.0721  0.1955 -0.6430
  247MOL0     C32521   6.884   1.787   4.413  0.6308  0.1746  0.2973
  247MOL0     N32522   7.715   2.125   4.474 -0.4635  0.5570  0.4150
  247MOL0     N32523   7.830   2.156   4.525 -0.0492  0.4505 -0.5448
  247MOL0     C32524   9.025   2.176   5.056 -1.0476 -0.0559 -0.5487
  247MOL0     C32525   9.161   2.132   5.051 -0.2952 -0.2562  0.4093
  247MOL0     C32526   9.582   2.024   4.865 -0.3279 -0.3475  0.7851
  247MOL0     C32527   9.678   2.018   4.771 -0.6972  0.2804  0.3832
  247MOL0     C32528   9.800   1.950   4.803  0.1776  0.2263  1.1578
  247MOL0     C32529   9.828   1.885   4.917 -0.2211  0.8299 -1.0440
  247MOL0     O32530   9.956   1.828   4.936 -0.2497  0.5763 -0.6079
  247MOL0     C32531   9.967   1.729   5.042 -0.1060  0.4149  0.7589
  247MOL0     C32532  10.104   1.662   5.034 -0.2776 -0.1326 -0.9723
  247MOL0     C32533  10.133   1.554   5.141  0.6035 -1.1621 -0.3597
  247MOL0     C32534  10.211   1.609   5.264 -0.3395  1.4204  0.2932
  247MOL0     C32535  10.208   1.503   5.371  0.1512  1.8366  0.4955
  247MOL0     C32536  10.196   1.401   5.443 -0.3927  0.6679  0.2064
  247MOL0     C32537   9.727   1.884   5.011  0.3175 -0.3580 -0.2650
  247MOL0     C32538   9.604   1.956   4.989 -0.5758  0.5882  0.5625
  247MOL0     H32539   9.279   2.320   4.790 -2.1252 -0.5709 -2.2326
  247MOL0     H32540   9.059   2.426   4.815  0.2150  0.7621  0.1350
  247MOL0     H32541   8.786   2.220   4.822  0.3285 -0.2995  0.9460
  247MOL0     H32542   8.817   2.394   4.805  1.2729 -0.3165  0.5124
  247MOL0     H32543   8.636   2.452   4.950  0.7276  0.0202 -0.0302
  247MOL0     H32544   8.611   2.271   4.986 -1.8652 -0.4073 -0.8342
  247MOL0     H32545   8.535   2.252   4.740  3.8922 -0.0270 -0.6460
  247MOL0     H32546   8.572   2.425   4.722 -2.3537 -0.2675 -2.7146
  247MOL0     H32547   8.341   2.338   4.901  0.2688 -0.3721 -0.6061
  247MOL0     H32548   8.366   2.485   4.814  0.0723  0.5222 -0.8117
  247MOL0     H32549   8.308   2.210   4.688 -1.3325 -0.6114  0.7563
  247MOL0     H32550   8.342   2.360   4.601 -0.1333  0.3137 -0.2513
  247MOL0     H32551   8.154   2.469   4.647  0.4145 -0.6330 -0.6011
  247MOL0     H32552   8.138   2.382   4.806  2.8940 -3.0226  1.9651
  247MOL0     H32553   8.051   2.321   4.536 -4.1349  0.8303 -0.1481
  247MOL0     H32554   8.063   2.183   4.656  0.2035  0.5814  2.9806
  247MOL0     H32555   7.888   2.436   4.708 -1.9646  0.1381 -0.8299
  247MOL0     H32556   7.921   2.285   4.805  2.5897  0.0897 -0.4585
  247MOL0     H32557   7.624   2.344   4.701 -0.8509  0.4212 -1.4556
  247MOL0     H32558   7.453   2.221   4.430  2.2306  0.0765 -0.7190
  247MOL0     H32559   7.413   2.234   4.608 -0.1878  2.4216 -1.8243
  247MOL0     H32560   7.419   2.007   4.631  1.8753  2.5470  1.3816
  247MOL0     H32561   7.492   1.967   4.475 -0.9980 -1.2966  0.2585
  247MOL0     H32562   7.214   2.086   4.512 -1.4960 -2.1158  1.3855
  247MOL0     H32563   7.288   2.043   4.353  0.3582  0.5475 -0.2893
  247MOL0     H32564   7.235   1.866   4.597  2.4549 -3.1192  0.0667
  247MOL0     H32565   7.280   1.789   4.453 -1.0405  0.0975 -1.6596
  247MOL0     H32566   7.120   1.662   4.616  0.6689  2.5006 -0.4706
  247MOL0     H32567   6.977   1.469   4.619  1.3003 -0.6978 -1.5954
  247MOL0     H32568   6.502   1.350   4.685  2.4533 -0.2935 -1.8395
  247MOL0     H32569   6.281   1.241   4.707 -0.0421  0.5665  1.5311
  247MOL0     H32570   5.994   1.306   4.372  0.5585  0.6593 -0.5948
  247MOL0     H32571   5.938   1.406   4.496 -0.7311 -1.3098  1.3173
  247MOL0     H32572   5.838   1.210   4.637 -1.0977 -1.7989  0.1889
  247MOL0     H32573   5.876   1.105   4.496  0.0842  0.3762 -0.7303
  247MOL0     H32574   5.758   1.266   4.351  0.3670 -0.1871  0.1180
  247MOL0     H32575   5.723   1.373   4.483 -1.9204 -0.2893  0.1770
  247MOL0     H32576   5.598   1.120   4.404 -0.5924  0.6278 -1.4468
  247MOL0     H32577   5.613   1.129   4.570  0.4476 -1.0118 -0.5486
  247MOL0     H32578   5.477   1.362   4.407  2.4850 -0.5373 -0.5025
  247MOL0     H32579   5.485   1.342   4.574  1.6529  1.6439 -0.8757
  247MOL0     H32580   5.368   1.091   4.440 -2.5339 -0.7844  2.3600
  247MOL0     H32581   5.287   1.237   4.393 -0.2329  0.1367  1.7291
  247MOL0     H32582   5.332   1.126   4.666 -0.5913 -0.2782  0.0874
  247MOL0     H32583   5.279   1.295   4.632 -2.3471  0.4228 -1.5185
  247MOL0     H32584   5.085   1.206   4.513  1.8111  0.7966  0.0065
  247MOL0     H32585   5.071   1.143   4.672 -2.0727 -1.3600 -0.8063
  247MOL0     H32586   6.148   1.426   4.359  0.8948  0.7570 -0.7299
  247MOL0     H32587   6.385   1.495   4.307 -1.9316  1.4441  1.4366
  247MOL0     H32588   6.686   1.694   4.368  0.1690  1.3775 -0.5646
  247MOL0     H32589   6.872   1.871   4.345 -0.6312 -1.1473 -1.2147
  247MOL0     H32590   8.962   2.142   5.138 -0.8235  3.1611  1.1162
  247MOL0     H32591   9.188   2.058   5.125 -1.0258 -1.0584 -0.1138
  247MOL0     H32592   9.672   2.082   4.683  0.7019  1.6162  1.2125
  247MOL0     H32593   9.887   1.952   4.738 -0.6727  0.2311 -0.0158
  247MOL0     H32594   9.882   1.660   5.041  0.3756 -0.2424  2.3616
  247MOL0     H32595   9.970   1.777   5.140  0.1864 -1.7003  1.8287
  247MOL0     H32596  10.119   1.601   4.945  2.8636  2.1089 -2.1612
  247MOL0     H32597  10.179   1.741   5.033 -1.7860  1.3742 -0.8643
  247MOL0     H32598  10.184   1.467   5.097 -2.7595 -3.9126  0.6844
  247MOL0     H32599  10.037   1.511   5.171 -0.2748 -1.4567 -3.3004
  247MOL0     H32600  10.316   1.634   5.243  0.7943 -1.9501  1.3346
  247MOL0     H32601  10.154   1.696   5.298 -3.8214 -0.3214 -0.6528
  247MOL0     H32602  10.204   1.314   5.505  1.6878 -0.6612 -1.7306
  247MOL0     H32603   9.751   1.854   5.112  1.3294  2.1555  0.3194
  247MOL0     H32604   9.525   1.953   5.063 -1.0749  0.7787  0.0434
  248MOL0     O32605   0.522   7.267   3.500  0.1162  0.1285 -0.5735
  248MOL0     C32606   0.613   7.228   3.424  0.8440  0.0249 -0.7260
  248MOL0     O32607   0.599   7.131   3.334 -0.1680 -0.2081 -0.1740
  248MOL0     C32608   0.477   7.070   3.322  0.4481 -0.1616 -0.4826
  248MOL0     C32609   0.352   7.133   3.291 -0.9363 -0.1315 -0.6232
  248MOL0     C32610   0.243   7.059   3.268 -0.1300  0.4499  0.9255
  248MOL0     C32611   0.246   6.915   3.269 -0.2428 -0.9169  1.0346
  248MOL0     O32612   0.144   6.828   3.256 -0.1486  0.3884  0.0332
  248MOL0     C32613   0.019   6.895   3.253 -0.3371 -0.4442  0.5031
  248MOL0     C32614  -0.092   6.788   3.280 -0.1299  0.0492 -0.1205
  248MOL0     C32615  -0.236   6.836   3.273  0.2734 -0.2277  0.4645
  248MOL0     C32616  -0.345   6.735   3.302 -0.2031 -0.2900 -0.2210
  248MOL0     C32617  -0.491   6.778   3.275  0.3482 -0.2175 -0.4795
  248MOL0     C32618  -0.592   6.673   3.277  0.5233 -0.2021 -0.1503
  248MOL0     C32619  -0.573   6.557   3.175  0.2652  0.0632  1.1271
  248MOL0     C32620  -0.626   6.602   3.033  0.1825  0.3503 -0.8212
  248MOL0     N32621  -0.771   6.619   3.042 -0.4938  0.4317  0.0291
  248MOL0     C32622  -0.867   6.533   3.089  0.6974  0.2887 -0.1446
  248MOL0     C32623  -0.980   6.607   3.089  0.5877 -0.0275 -0.4715
  248MOL0     C32624  -1.113   6.567   3.142 -0.2036 -0.3953 -0.0912
  248MOL0     C32625  -1.173   6.452   3.070  0.6227  0.8203 -0.4943
  248MOL0     C32626  -1.249   6.357   3.165 -0.5649  0.3345  0.5383
  248MOL0     C32627  -1.369   6.423   3.242 -0.4584 -0.2388 -0.1293
  248MOL0     O32628  -1.419   6.324   3.328  0.0875 -0.7428  0.2272
  248MOL0     C32629  -1.548   6.290   3.297  0.4010  0.8401  0.0330
  248MOL0     C32630  -1.594   6.238   3.171  0.2157 -0.1345 -0.3394
  248MOL0     C32631  -1.726   6.213   3.149 -0.8019  0.1694  0.8551
  248MOL0     C32632  -1.818   6.202   3.256 -0.0595 -0.0977 -0.0985
  248MOL0     C32633  -1.955   6.167   3.239 -1.0264 -0.4893  0.6339
  248MOL0     O32634  -2.028   6.121   3.346  0.3296  0.4156 -0.8008
  248MOL0     C32635  -2.155   6.088   3.325 -0.2825  0.6678  0.5071
  248MOL0     C32636  -2.199   5.972   3.259  0.0536  0.6278 -0.1158
  248MOL0     C32637  -2.338   5.941   3.242  0.2870  0.1291 -0.4906
  248MOL0     C32638  -2.437   6.028   3.293  0.6980  0.0701 -0.1237
  248MOL0     O32639  -2.574   5.988   3.283  0.3878 -0.0393  0.0825
  248MOL0     C32640  -2.672   6.093   3.293  0.6393 -0.3758 -0.7672
  248MOL0     C32641  -2.813   6.050   3.261  0.1389 -0.1347  0.9342
  248MOL0     C32642  -2.895   5.990   3.372  0.2185 -0.6188  0.4158
  248MOL0     C32643  -3.023   5.936   3.317 -0.2183  0.0380 -0.1617
  248MOL0     C32644  -3.112   5.891   3.441 -0.1665  0.4025  0.1931
  248MOL0     C32645  -3.216   5.782   3.410 -0.3796  0.3231  0.7244
  248MOL0     C32646  -3.322   5.769   3.524  0.5017 -0.2222 -0.3982
  248MOL0     C32647  -3.428   5.673   3.478 -0.1625 -0.4242  0.2630
  248MOL0    Cl32648  -3.531   5.733   3.349  0.2494  0.2485  0.2568
  248MOL0     C32649  -2.387   6.146   3.353 -0.0258 -0.4869  0.3626
  248MOL0     C32650  -2.251   6.170   3.371  0.9138  0.1722  0.0064
  248MOL0     O32651  -1.990   6.166   3.128 -0.0001  0.7171  0.3833
  248MOL0     C32652  -1.765   6.228   3.384  0.1867  0.1233  0.7203
  248MOL0     C32653  -1.638   6.280   3.404 -0.4450  0.5062 -0.5617
  248MOL0     N32654  -0.950   6.734   3.042  0.5232  0.2058  0.9061
  248MOL0     N32655  -0.824   6.739   3.007  0.5944  0.7832 -0.2608
  248MOL0     C32656   0.370   6.856   3.306  1.3013  0.1854 -0.0861
  248MOL0     C32657   0.482   6.928   3.329  0.9619 -0.4726  0.3583
  248MOL0     C32658   0.754   7.278   3.439 -0.2605 -0.8726 -1.4496
  248MOL0     C32659   0.787   7.379   3.526  0.2546  0.2850 -0.0596
  248MOL0     C32660   0.912   7.430   3.545  0.2024 -0.2648  1.0018
  248MOL0     C32661   1.009   7.378   3.459  0.5476  0.0690 -0.0703
  248MOL0     O32662   1.138   7.411   3.483  0.1173 -0.8363  0.0569
  248MOL0     C32663   1.158   7.556   3.493 -0.1409  0.1234  0.8253
  248MOL0     C32664   1.311   7.605   3.499 -0.0915  0.5387 -0.1245
  248MOL0     C32665   1.377   7.567   3.636 -0.0751  0.5014 -0.4399
  248MOL0     C32666   1.498   7.646   3.675 -0.2698  0.1186 -0.5497
  248MOL0     C32667   1.546   7.634   3.816  0.1985 -0.8037  0.3582
  248MOL0     C32668   1.576   7.612   3.929 -0.0593  0.3186  0.2641
  248MOL0     C32669   0.985   7.273   3.370 -0.3365  0.3421 -0.4310
  248MOL0     C32670   0.852   7.218   3.361 -0.2993  0.1409 -0.2830
  248MOL0     H32671   0.339   7.239   3.311  1.4606 -0.0167  0.7656
  248MOL0     H32672   0.149   7.110   3.248 -0.3422 -0.8716 -1.9114
  248MOL0     H32673   0.008   6.950   3.159  1.8691  2.0466  1.5637
  248MOL0     H32674   0.011   6.962   3.340 -0.4661  0.8825 -0.5003
  248MOL0     H32675  -0.082   6.746   3.380  0.8283  1.1275  0.2650
  248MOL0     H32676  -0.074   6.700   3.217 -1.5132 -0.2166 -0.1731
  248MOL0     H32677  -0.268   6.888   3.182  0.7674 -0.0115  0.4094
  248MOL0     H32678  -0.248   6.911   3.351  1.1922 -1.5555  1.9342
  248MOL0     H32679  -0.318   6.650   3.238 -1.1149  0.1866 -1.2707
  248MOL0     H32680  -0.342   6.710   3.408 -3.8443 -2.7953 -0.5334
  248MOL0     H32681  -0.499   6.824   3.176  0.0059  0.2938 -0.2165
  248MOL0     H32682  -0.519   6.840   3.361  0.4941  0.6174 -1.0244
  248MOL0     H32683  -0.692   6.716   3.267  0.1002 -0.8198  1.1934
  248MOL0     H32684  -0.582   6.622   3.374  3.7077  0.5864  0.0463
  248MOL0     H32685  -0.467   6.533   3.175  0.0074 -1.2014  0.0486
  248MOL0     H32686  -0.629   6.467   3.206 -2.1932  0.3230 -2.0720
  248MOL0     H32687  -0.614   6.518   2.964 -2.2582 -1.3099  0.6129
  248MOL0     H32688  -0.572   6.693   3.004  2.9259  0.1456  2.8413
  248MOL0     H32689  -0.854   6.430   3.121 -1.8007 -0.0809 -0.1163
  248MOL0     H32690  -1.179   6.654   3.132  1.7308  1.1943  0.4560
  248MOL0     H32691  -1.098   6.535   3.245 -1.4216 -1.2222 -0.1537
  248MOL0     H32692  -1.092   6.392   3.027 -0.9741 -1.6584 -0.2054
  248MOL0     H32693  -1.250   6.476   2.997 -1.3969 -1.6929  0.6762
  248MOL0     H32694  -1.279   6.266   3.114 -0.2430 -1.0046  2.6077
  248MOL0     H32695  -1.177   6.327   3.242  0.1394  1.9304  0.5573
  248MOL0     H32696  -1.439   6.469   3.171  0.5117  0.2999 -0.7617
  248MOL0     H32697  -1.346   6.501   3.315  1.7389 -0.5499 -0.4252
  248MOL0     H32698  -1.527   6.223   3.087  0.6877 -5.1856  0.6562
  248MOL0     H32699  -1.758   6.194   3.046  0.1231  2.3779  0.1040
  248MOL0     H32700  -2.124   5.897   3.235 -0.3885  0.0493  0.2736
  248MOL0     H32701  -2.365   5.846   3.196  1.0208 -0.2574 -0.1533
  248MOL0     H32702  -2.641   6.174   3.227  2.3279  2.0080  2.7055
  248MOL0     H32703  -2.685   6.135   3.393 -1.5814 -1.4427 -0.5293
  248MOL0     H32704  -2.807   5.984   3.174 -0.4719  2.2332 -1.0176
  248MOL0     H32705  -2.866   6.142   3.235  0.0974  0.1896  2.1081
  248MOL0     H32706  -2.908   6.073   3.441  1.0285  1.1390 -1.4365
  248MOL0     H32707  -2.843   5.910   3.425  0.8351  0.0971  0.8931
  248MOL0     H32708  -3.089   6.001   3.258  0.3137  1.7431  1.0649
  248MOL0     H32709  -2.999   5.842   3.266  0.5857 -1.8687  3.3723
  248MOL0     H32710  -3.174   5.976   3.469  0.3057  0.3660  1.4052
  248MOL0     H32711  -3.062   5.852   3.530 -0.8756  0.7994  0.7748
  248MOL0     H32712  -3.162   5.691   3.383 -1.9426 -0.5421  0.4279
  248MOL0     H32713  -3.264   5.816   3.317 -0.9228 -0.0886  0.8542
  248MOL0     H32714  -3.273   5.734   3.615 -0.0302 -1.0709 -0.4225
  248MOL0     H32715  -3.362   5.867   3.552  1.8231 -0.7003  3.8816
  248MOL0     H32716  -3.488   5.658   3.568 -1.3223  0.7454 -0.2864
  248MOL0     H32717  -3.396   5.577   3.437 -0.9359  0.0479 -1.5648
  248MOL0     H32718  -2.460   6.212   3.399 -1.1262 -3.0646  2.5936
  248MOL0     H32719  -2.222   6.258   3.427  3.0391 -1.1823  1.1929
  248MOL0     H32720  -1.828   6.225   3.473  1.3971  0.6060  1.6142
  248MOL0     H32721  -1.607   6.319   3.501  1.4873  1.8739 -1.6539
  248MOL0     H32722   0.369   6.748   3.299  1.4360  0.0461  1.7139
  248MOL0     H32723   0.572   6.872   3.349  0.4481 -1.4702 -0.0294
  248MOL0     H32724   0.709   7.418   3.591 -1.2796 -2.5446 -0.0448
  248MOL0     H32725   0.921   7.504   3.624  2.6142 -1.4978  1.9810
  248MOL0     H32726   1.117   7.590   3.588  0.2893  1.6230  0.5117
  248MOL0     H32727   1.114   7.610   3.408  4.3153  0.9502 -1.2725
  248MOL0     H32728   1.370   7.553   3.422 -1.1154 -0.0477 -0.5451
  248MOL0     H32729   1.311   7.713   3.488  1.8765  0.8867  2.2785
  248MOL0     H32730   1.390   7.459   3.633 -2.0036  0.2435 -1.2213
  248MOL0     H32731   1.305   7.583   3.718  2.3656  2.6113  1.4780
  248MOL0     H32732   1.585   7.607   3.622 -0.1498  0.2942 -0.4838
  248MOL0     H32733   1.492   7.750   3.641 -0.7220 -0.5791 -2.8085
  248MOL0     H32734   1.600   7.586   4.030 -1.3875 -0.5454  0.3768
  248MOL0     H32735   1.073   7.250   3.312  0.3173 -1.3750  1.1450
  248MOL0     H32736   0.828   7.139   3.290  0.5262  0.4554 -0.9318
  249MOL0     O32737   1.912  10.070   8.795  0.2291  0.2968  0.0806
  249MOL0     C32738   1.928  10.167   8.718 -0.7738  0.1264 -0.4007
  249MOL0     O32739   1.832  10.224   8.636 -0.3793 -0.1793  0.5159
  249MOL0     C32740   1.717  10.147   8.620 -0.0137 -0.9384  0.1857
  249MOL0     C32741   1.719  10.006   8.583  0.7230 -0.4526  0.1273
  249MOL0     C32742   1.607   9.939   8.537 -0.5244 -0.0353 -0.3683
  249MOL0     C32743   1.486  10.009   8.530 -0.3439 -0.2783 -1.4719
  249MOL0     O32744   1.382   9.937   8.486  0.3009 -0.5835 -0.3121
  249MOL0     C32745   1.241   9.978   8.493  0.1797 -0.9763  0.0411
  249MOL0     C32746   1.142   9.861   8.505 -0.2542 -0.6210 -0.0003
  249MOL0     C32747   0.995   9.904   8.509 -0.2449 -0.2624  0.4180
  249MOL0     C32748   0.903   9.784   8.501 -0.5988  0.5065 -0.5878
  249MOL0     C32749   0.765   9.803   8.427  0.1242  0.9520  0.3039
  249MOL0     C32750   0.667   9.900   8.503 -0.5132 -0.2690 -0.0671
  249MOL0     C32751   0.533   9.898   8.436  0.3621  0.2970  0.3099
  249MOL0     C32752   0.439  10.005   8.479 -0.2993  0.2104  0.2393
  249MOL0     N32753   0.297   9.971   8.469  0.4255  0.5653  1.3885
  249MOL0     C32754   0.229   9.945   8.352  0.0568 -0.1432 -0.4284
  249MOL0     C32755   0.103   9.913   8.387 -0.0127 -0.1119 -0.7447
  249MOL0     C32756  -0.008   9.868   8.289 -0.4357 -0.0857 -0.1866
  249MOL0     C32757  -0.098   9.984   8.269  0.0172 -0.0482 -0.4688
  249MOL0     C32758  -0.201   9.938   8.156 -0.2029 -0.0777 -0.3567
  249MOL0     C32759  -0.320  10.033   8.152  0.1246  0.4163 -0.2107
  249MOL0     O32760  -0.418   9.961   8.087  0.7022  0.5548  0.4401
  249MOL0     C32761  -0.521  10.008   8.006 -0.5564  0.2832 -1.5705
  249MOL0     C32762  -0.612   9.916   7.960 -0.2315  0.7141  1.9483
  249MOL0     C32763  -0.719   9.954   7.877 -0.6876  0.1006 -0.1834
  249MOL0     C32764  -0.744  10.087   7.838  0.0225 -0.9291  0.3312
  249MOL0     C32765  -0.848  10.129   7.743  0.1554  0.1839  0.1762
  249MOL0     O32766  -0.845  10.246   7.681 -0.1031 -0.3276 -0.0381
  249MOL0     C32767  -0.946  10.307   7.614 -0.2187  0.9118  0.0129
  249MOL0     C32768  -1.037  10.245   7.530  0.2729  0.0574 -0.1664
  249MOL0     C32769  -1.142  10.305   7.473 -0.3114 -0.2550  0.4580
  249MOL0     C32770  -1.153  10.444   7.501  0.6556  0.0114 -0.0758
  249MOL0     O32771  -1.256  10.504   7.441 -0.0517  0.0067  0.5866
  249MOL0     C32772  -1.268  10.652   7.441  0.0842 -0.3919  0.5294
  249MOL0     C32773  -1.400  10.685   7.368  0.7940  0.2232 -0.1885
  249MOL0     C32774  -1.427  10.835   7.377  0.7769  0.8339 -0.3076
  249MOL0     C32775  -1.576  10.865   7.341 -0.3588 -0.5898 -0.1032
  249MOL0     C32776  -1.628  10.812   7.204  0.1026 -0.8802  0.8950
  249MOL0     C32777  -1.778  10.782   7.210  0.4020 -0.0545  0.5406
  249MOL0     C32778  -1.867  10.898   7.248 -0.0088  0.1622 -0.3246
  249MOL0     C32779  -2.006  10.857   7.299 -0.2200 -0.3566  0.5631
  249MOL0    Cl32780  -2.089  10.772   7.163 -0.2350  0.2435  0.1856
  249MOL0     C32781  -1.063  10.512   7.588 -0.2163  0.1183  0.3454
  249MOL0     C32782  -0.959  10.438   7.645  0.4298 -0.4047  0.6368
  249MOL0     O32783  -0.937  10.046   7.733  0.2848  0.1494  0.1528
  249MOL0     C32784  -0.646  10.180   7.886  0.5055  0.0165  0.1524
  249MOL0     C32785  -0.533  10.138   7.963  0.0439 -1.6355 -0.1842
  249MOL0     N32786   0.094   9.933   8.527 -0.2152 -0.0066 -0.1780
  249MOL0     N32787   0.206   9.962   8.570 -0.0876  0.3331 -0.2516
  249MOL0     C32788   1.485  10.145   8.559  0.7496  0.7757  0.9944
  249MOL0     C32789   1.598  10.213   8.599 -0.9702 -0.8183  0.7305
  249MOL0     C32790   2.073  10.235   8.715 -0.3527 -0.4186 -0.2900
  249MOL0     C32791   2.086  10.357   8.652 -0.3286 -0.6911  1.0082
  249MOL0     C32792   2.207  10.424   8.649  0.0282  0.3515 -0.4672
  249MOL0     C32793   2.323  10.372   8.702  0.1059  0.4065 -0.1915
  249MOL0     O32794   2.436  10.437   8.696 -0.4547 -0.3006 -0.9872
  249MOL0     C32795   2.544  10.372   8.623 -0.8224 -0.1230  0.4625
  249MOL0     C32796   2.644  10.343   8.732 -0.3177  0.6009  0.1685
  249MOL0     C32797   2.788  10.318   8.672  0.0641 -0.2039 -1.1630
  249MOL0     C32798   2.882  10.293   8.796 -0.2848 -1.3304 -0.0420
  249MOL0     C32799   3.012  10.270   8.736  0.0937  0.7443 -0.6841
  249MOL0     C32800   3.124  10.238   8.702 -0.3656 -0.0552  0.2636
  249MOL0     C32801   2.312  10.244   8.758 -0.0013  0.4394  0.1949
  249MOL0     C32802   2.187  10.175   8.762 -0.0480  0.3194  0.4164
  249MOL0     H32803   1.812   9.950   8.585  0.3511 -1.0610  1.5780
  249MOL0     H32804   1.610   9.835   8.504 -0.7613  0.3982 -1.8209
  249MOL0     H32805   1.221  10.045   8.409  0.2396 -0.6237  0.3084
  249MOL0     H32806   1.213  10.033   8.583 -1.9078 -3.3503  0.9766
  249MOL0     H32807   1.167   9.809   8.598 -3.5636 -1.0523  0.7527
  249MOL0     H32808   1.160   9.786   8.427  0.5766  0.4749 -0.9088
  249MOL0     H32809   0.985   9.963   8.417  2.4457 -1.7268 -0.9255
  249MOL0     H32810   0.987   9.967   8.598  0.2195  0.1124  0.1975
  249MOL0     H32811   0.956   9.699   8.459  3.2637  1.8538  1.1339
  249MOL0     H32812   0.880   9.755   8.604 -1.6611 -0.0004 -0.9453
  249MOL0     H32813   0.718   9.704   8.421 -0.4286  1.2265  0.0729
  249MOL0     H32814   0.793   9.837   8.327  2.5376  2.3915  1.3597
  249MOL0     H32815   0.706  10.002   8.501  0.7646 -0.6741  1.4842
  249MOL0     H32816   0.668   9.873   8.610  2.1567  0.1215  0.0848
  249MOL0     H32817   0.546   9.914   8.329  0.1207 -1.0082  0.0774
  249MOL0     H32818   0.491   9.800   8.458 -3.7257  2.0227  1.2121
  249MOL0     H32819   0.463  10.089   8.414  3.3458  2.6167  4.2092
  249MOL0     H32820   0.458  10.041   8.581 -3.1869 -1.5871  1.5803
  249MOL0     H32821   0.284   9.929   8.260  3.8686 -0.4131  1.6809
  249MOL0     H32822  -0.058   9.776   8.319 -2.2960  0.2869 -1.9012
  249MOL0     H32823   0.052   9.856   8.198  1.2943  0.6300  0.8306
  249MOL0     H32824  -0.040  10.075   8.255  0.1217  0.2541  1.6410
  249MOL0     H32825  -0.162  10.008   8.355 -1.5204  2.7696 -2.2421
  249MOL0     H32826  -0.152   9.921   8.059  2.2606 -1.0411  0.9786
  249MOL0     H32827  -0.234   9.840   8.192  2.4945 -0.3337  1.7663
  249MOL0     H32828  -0.287  10.125   8.104  0.9337 -0.2881 -1.0342
  249MOL0     H32829  -0.364  10.061   8.248 -1.5430  0.1475 -0.8519
  249MOL0     H32830  -0.595   9.813   7.989 -3.9945 -2.4972 -4.8499
  249MOL0     H32831  -0.774   9.868   7.838 -0.2879 -2.4093  4.1227
  249MOL0     H32832  -1.023  10.139   7.516  1.4807  0.3599 -1.5720
  249MOL0     H32833  -1.204  10.254   7.400  0.1682  1.9962 -1.6427
  249MOL0     H32834  -1.183  10.705   7.398  0.4216 -0.6241  0.8979
  249MOL0     H32835  -1.278  10.683   7.545 -2.0757 -4.9091  1.9335
  249MOL0     H32836  -1.483  10.630   7.412  3.3092 -1.1926  3.2731
  249MOL0     H32837  -1.405  10.658   7.262 -0.5547  2.3229 -0.6997
  249MOL0     H32838  -1.357  10.889   7.312  1.1907  0.2985 -0.3172
  249MOL0     H32839  -1.400  10.883   7.471  0.2023  0.8419 -0.1413
  249MOL0     H32840  -1.640  10.823   7.420 -2.3691 -0.0463 -1.3618
  249MOL0     H32841  -1.583  10.972   7.364 -0.6678 -1.2478  3.4424
  249MOL0     H32842  -1.575  10.722   7.171  1.8857  0.2540  0.5414
  249MOL0     H32843  -1.609  10.883   7.124  1.5524 -3.2977 -1.0583
  249MOL0     H32844  -1.790  10.686   7.262  0.1799 -0.6944 -0.6564
  249MOL0     H32845  -1.818  10.757   7.111 -3.4293  1.4994  1.5046
  249MOL0     H32846  -1.823  10.968   7.320 -0.1020  1.0569 -1.1205
  249MOL0     H32847  -1.869  10.958   7.156  2.7070 -0.0396 -0.6116
  249MOL0     H32848  -2.072  10.940   7.325 -1.6228 -1.4481  0.5909
  249MOL0     H32849  -2.000  10.794   7.388 -0.5689  0.6821  1.3352
  249MOL0     H32850  -1.082  10.618   7.606 -0.0823  0.6867 -2.4193
  249MOL0     H32851  -0.884  10.486   7.707  3.3643 -2.1024 -1.3248
  249MOL0     H32852  -0.648  10.285   7.857  0.5904 -0.5519 -2.1157
  249MOL0     H32853  -0.460  10.212   7.993 -0.6607 -0.1774 -1.9073
  249MOL0     H32854   1.391  10.198   8.546 -0.1426 -0.2179  3.0142
  249MOL0     H32855   1.605  10.318   8.627  0.6765 -1.1950  1.8574
  249MOL0     H32856   2.005  10.414   8.609  1.1867  0.0096 -1.1066
  249MOL0     H32857   2.216  10.523   8.604 -1.0916 -0.3541 -2.3398
  249MOL0     H32858   2.598  10.436   8.554 -0.2960 -2.3156 -1.2568
  249MOL0     H32859   2.516  10.278   8.575  3.2520 -1.5810  0.6149
  249MOL0     H32860   2.655  10.427   8.802  4.9542 -0.8291  1.5079
  249MOL0     H32861   2.608  10.267   8.802 -0.2443 -1.3498 -1.7976
  249MOL0     H32862   2.820  10.401   8.607  0.8876 -0.7630 -1.4924
  249MOL0     H32863   2.786  10.236   8.600  1.2870  0.2363 -1.7419
  249MOL0     H32864   2.905  10.388   8.845 -0.1702 -0.1420 -2.2904
  249MOL0     H32865   2.852  10.206   8.856 -2.8142 -0.6085 -0.1647
  249MOL0     H32866   3.217  10.204   8.663 -1.4230 -1.1306 -1.4667
  249MOL0     H32867   2.400  10.195   8.798 -0.7556  0.9322  2.6541
  249MOL0     H32868   2.183  10.071   8.792  0.9472 -1.5606 -4.9487
  250MOL0     O32869   4.374  10.368  10.895 -0.3006  0.3856 -0.1787
  250MOL0     C32870   4.365  10.473  10.826  0.6965 -0.1708  0.0924
  250MOL0     O32871   4.251  10.536  10.797  0.9443  0.0228  0.0421
  250MOL0     C32872   4.130  10.488  10.854 -0.3981 -0.1392  0.5758
  250MOL0     C32873   4.063  10.404  10.777  0.5738  0.4485 -1.0111
  250MOL0     C32874   3.945  10.347  10.823 -0.8461  0.4931 -0.0172
  250MOL0     C32875   3.890  10.381  10.950  0.6939  0.1584 -0.0904
  250MOL0     O32876   3.770  10.339  11.005 -0.3461  0.8519  0.1506
  250MOL0     C32877   3.718  10.231  10.942  0.7355 -0.2871 -0.4892
  250MOL0     C32878   3.599  10.191  11.027 -0.7569 -0.0029  0.1102
  250MOL0     C32879   3.487  10.289  11.008 -0.2967  0.1717  0.0891
  250MOL0     C32880   3.362  10.235  11.078  0.5047 -0.3843 -0.0810
  250MOL0     C32881   3.245  10.338  11.046  0.1710 -0.2558  0.2064
  250MOL0     C32882   3.110  10.289  11.093  0.0598  0.1192  0.1871
  250MOL0     C32883   2.992  10.366  11.028  0.2985 -0.6725 -0.5720
  250MOL0     C32884   2.865  10.279  11.021 -1.0436  0.3748  0.2349
  250MOL0     N32885   2.833  10.232  11.151 -0.4629 -0.2075 -0.0296
  250MOL0     C32886   2.876  10.114  11.211  0.2208  0.4298  0.1194
  250MOL0     C32887   2.781  10.085  11.309 -0.2113 -0.1575  0.0798
  250MOL0     C32888   2.776   9.955  11.382  0.5284  0.7422 -0.7746
  250MOL0     C32889   2.645   9.941  11.450 -0.1206  0.1424  0.3951
  250MOL0     C32890   2.631   9.805  11.517  0.3212  0.1888 -0.2840
  250MOL0     C32891   2.493   9.798  11.588 -0.0258  0.4158 -0.1159
  250MOL0     O32892   2.489   9.859  11.719 -0.2751 -0.0393 -1.1111
  250MOL0     C32893   2.390   9.823  11.808  0.3778 -0.8601 -1.1677
  250MOL0     C32894   2.397   9.896  11.931 -0.2893 -0.1721 -0.3122
  250MOL0     C32895   2.290   9.893  12.022 -0.5144  0.5056 -0.0439
  250MOL0     C32896   2.177   9.816  12.005 -0.0008 -0.1416  0.0244
  250MOL0     C32897   2.069   9.812  12.111 -0.5348 -0.1891  0.4949
  250MOL0     O32898   1.969   9.730  12.074  0.0604  0.1680  0.5894
  250MOL0     C32899   1.877   9.711  12.173  1.2309  0.3929  0.8617
  250MOL0     C32900   1.885   9.601  12.261  0.1444 -0.0966  0.2808
  250MOL0     C32901   1.795   9.586  12.357  0.2514  0.1259 -0.8207
  250MOL0     C32902   1.684   9.670  12.373  0.2436 -0.5009 -0.4383
  250MOL0     O32903   1.594   9.637  12.467  1.0792 -0.2400 -0.3570
  250MOL0     C32904   1.486   9.733  12.493 -0.3280  0.0197 -0.1417
  250MOL0     C32905   1.363   9.710  12.396  0.2366 -0.2561  0.3459
  250MOL0     C32906   1.233   9.747  12.468  0.3523 -0.3228  0.1073
  250MOL0     C32907   1.119   9.761  12.366  0.3879 -0.8556 -0.3391
  250MOL0     C32908   0.995   9.814  12.451 -0.5260  0.3066  0.2655
  250MOL0     C32909   0.875   9.751  12.392  0.7553 -0.2530  0.0724
  250MOL0     C32910   0.758   9.840  12.450 -0.3488  0.3130 -0.3326
  250MOL0     C32911   0.627   9.796  12.398 -0.6114 -0.3286 -0.7233
  250MOL0    Cl32912   0.631   9.815  12.222 -0.0713  0.1927  0.1246
  250MOL0     C32913   1.678   9.776  12.280  0.0095 -0.5057  0.3847
  250MOL0     C32914   1.779   9.807  12.191 -0.5038  0.4466 -0.0347
  250MOL0     O32915   2.076   9.878  12.214  0.3257  0.4710  0.1327
  250MOL0     C32916   2.168   9.743  11.883  0.7045  0.1842  0.4868
  250MOL0     C32917   2.279   9.742  11.787 -0.6631 -0.6163 -0.4794
  250MOL0     N32918   2.688  10.185  11.305  0.0466 -0.2657  0.3527
  250MOL0     N32919   2.717  10.267  11.212 -1.1474 -0.1925  0.2911
  250MOL0     C32920   3.957  10.483  11.019  0.2830 -0.6189 -0.2808
  250MOL0     C32921   4.084  10.525  10.981 -0.1490 -0.3799  0.5749
  250MOL0     C32922   4.493  10.522  10.768  0.0330  0.2743 -0.7210
  250MOL0     C32923   4.489  10.627  10.677  0.7107 -0.6170  0.0077
  250MOL0     C32924   4.608  10.655  10.595  0.6343  0.3989 -0.1823
  250MOL0     C32925   4.718  10.577  10.608 -0.8972 -0.8056 -0.0611
  250MOL0     O32926   4.831  10.582  10.528 -0.0873 -0.0166  0.2475
  250MOL0     C32927   4.832  10.647  10.403 -0.6757  0.3618  0.3660
  250MOL0     C32928   4.972  10.628  10.329  0.3342 -0.8826  0.1793
  250MOL0     C32929   5.083  10.681  10.403 -0.2669  0.1631  0.0006
  250MOL0     C32930   5.122  10.608  10.534  0.3797 -0.2735  0.0659
  250MOL0     C32931   5.264  10.633  10.571  0.8230 -0.9411 -0.3668
  250MOL0     C32932   5.376  10.646  10.621 -0.0926 -0.4555  0.4054
  250MOL0     C32933   4.723  10.480  10.711 -0.2859  0.9504 -0.5231
  250MOL0     C32934   4.611  10.448  10.779 -0.1233 -0.5713 -0.4598
  250MOL0     H32935   4.113  10.368  10.688  1.7168 -0.7944  0.0764
  250MOL0     H32936   3.892  10.273  10.765  0.0174  0.0858 -0.3004
  250MOL0     H32937   3.790  10.149  10.936  0.5095 -0.5651  0.4565
  250MOL0     H32938   3.675  10.257  10.844 -0.6105  0.8652  0.3605
  250MOL0     H32939   3.631  10.175  11.131  3.1352 -0.7029 -1.0612
  250MOL0     H32940   3.565  10.098  10.981 -1.8707  1.3622 -1.9902
  250MOL0     H32941   3.478  10.301  10.899 -0.2203 -2.0578 -0.1993
  250MOL0     H32942   3.530  10.385  11.039 -0.0978  0.7007 -1.6907
  250MOL0     H32943   3.343  10.136  11.037 -0.3342  0.0736 -0.8411
  250MOL0     H32944   3.361  10.220  11.186 -2.0595 -1.4127 -0.1786
  250MOL0     H32945   3.245  10.354  10.938 -0.0669 -0.5687  0.1561
  250MOL0     H32946   3.269  10.433  11.094  2.3385 -0.2764 -0.7491
  250MOL0     H32947   3.114  10.294  11.202  0.3552 -0.9818  0.2443
  250MOL0     H32948   3.100  10.183  11.067  0.1339 -0.7702  3.3534
  250MOL0     H32949   2.958  10.451  11.089  1.1374 -3.1148  3.6984
  250MOL0     H32950   3.011  10.403  10.927 -2.1253  2.1795 -0.1456
  250MOL0     H32951   2.882  10.194  10.953 -0.8219 -0.6779  1.5691
  250MOL0     H32952   2.789  10.343  10.975  0.6153  2.3821  0.1515
  250MOL0     H32953   2.953  10.039  11.190 -0.6021 -0.4380  0.1267
  250MOL0     H32954   2.859   9.965  11.452 -0.5865  0.7958  0.5709
  250MOL0     H32955   2.787   9.869  11.316  1.4322  0.0381  0.2723
  250MOL0     H32956   2.560   9.960  11.384 -1.2295 -1.5834  1.2558
  250MOL0     H32957   2.648  10.016  11.529 -3.0644 -0.0955  0.8357
  250MOL0     H32958   2.638   9.727  11.441  1.3730 -0.4179  0.4148
  250MOL0     H32959   2.716   9.788  11.583 -0.0422  0.8408  0.3619
  250MOL0     H32960   2.473   9.691  11.593 -0.9135  0.3632 -3.0084
  250MOL0     H32961   2.412   9.834  11.524  0.4527  0.1661 -0.8775
  250MOL0     H32962   2.473   9.972  11.948 -1.8183  1.5551 -0.9157
  250MOL0     H32963   2.306   9.951  12.112  0.0901  1.5238 -0.7767
  250MOL0     H32964   1.955   9.517  12.258 -1.8889 -1.8582  0.0680
  250MOL0     H32965   1.796   9.490  12.408 -0.5841  1.8664  2.7896
  250MOL0     H32966   1.504   9.841  12.495  1.6036 -0.2797 -0.2373
  250MOL0     H32967   1.457   9.709  12.596  1.2870  0.9505  0.5661
  250MOL0     H32968   1.361   9.609  12.353 -0.7390  0.9901 -2.7751
  250MOL0     H32969   1.383   9.774  12.310  0.0552  0.2655  0.6896
  250MOL0     H32970   1.248   9.837  12.529 -1.2864  0.2894 -0.3491
  250MOL0     H32971   1.205   9.669  12.539 -0.4576  1.7264  2.1741
  250MOL0     H32972   1.139   9.827  12.281 -0.8253 -0.0550 -0.0313
  250MOL0     H32973   1.102   9.659  12.331  0.6620 -1.5739  1.4804
  250MOL0     H32974   0.998   9.923  12.443  2.6462  0.3268  0.2335
  250MOL0     H32975   1.006   9.793  12.557  1.9758 -0.4096 -0.0683
  250MOL0     H32976   0.855   9.648  12.422 -1.8659  0.2808  0.3971
  250MOL0     H32977   0.881   9.762  12.283 -0.7853  0.2078  0.0112
  250MOL0     H32978   0.771   9.824  12.557 -0.3828  0.9066 -0.2326
  250MOL0     H32979   0.771   9.947  12.428 -1.9531  0.3022 -1.4834
  250MOL0     H32980   0.548   9.848  12.453 -1.0477 -2.4484  0.7793
  250MOL0     H32981   0.618   9.687  12.409  0.6491 -0.5911 -1.9735
  250MOL0     H32982   1.601   9.852  12.275  0.7869  0.2484 -0.3352
  250MOL0     H32983   1.778   9.899  12.134 -0.7560 -1.4121 -3.2918
  250MOL0     H32984   2.095   9.663  11.875  1.4582 -0.6495  1.5291
  250MOL0     H32985   2.260   9.691  11.693  0.5359  2.5419 -2.6013
  250MOL0     H32986   3.920  10.519  11.115  0.4003  0.3193 -0.5810
  250MOL0     H32987   4.133  10.594  11.049  0.2161 -0.9144  0.8565
  250MOL0     H32988   4.395  10.678  10.656  1.8362  2.9631  2.6657
  250MOL0     H32989   4.599  10.736  10.522  1.3933  2.0213  1.4331
  250MOL0     H32990   4.795  10.748  10.419 -1.6579  0.2883 -1.2165
  250MOL0     H32991   4.753  10.612  10.336  0.9243  0.6865 -1.8079
  250MOL0     H32992   4.990  10.524  10.299 -0.5443 -1.2467  0.8736
  250MOL0     H32993   4.959  10.700  10.248 -0.2940  0.9536  1.8220
  250MOL0     H32994   5.068  10.785  10.431  1.3221  0.3509  0.2691
  250MOL0     H32995   5.170  10.677  10.337  3.1417  0.9901  3.9971
  250MOL0     H32996   5.062  10.644  10.617 -0.8804  1.3659 -1.4681
  250MOL0     H32997   5.107  10.500  10.525  0.4078 -0.2494 -0.3203
  250MOL0     H32998   5.480  10.638  10.645  0.7340 -2.6645 -3.1812
  250MOL0     H32999   4.818  10.433  10.737 -1.4004 -0.4294  1.3065
  250MOL0     H33000   4.611  10.363  10.846 -0.2274  1.6184  2.5497
  251MOL0     O33001   7.829   3.502   7.010 -0.4454 -0.0018  0.0394
  251MOL0     C33002   7.871   3.391   7.041 -0.1965  0.3227  0.6727
  251MOL0     O33003   7.796   3.282   7.074 -0.0929  0.0977  0.0915
  251MOL0     C33004   7.658   3.298   7.084 -0.4244  0.2838 -1.0275
  251MOL0     C33005   7.596   3.237   7.194  1.0910  0.4770  0.1913
  251MOL0     C33006   7.449   3.246   7.209 -0.8395 -0.3002 -0.0692
  251MOL0     C33007   7.377   3.313   7.110  0.0619  0.4049 -0.2661
  251MOL0     O33008   7.246   3.330   7.119 -0.8248  0.6595 -0.4437
  251MOL0     C33009   7.219   3.420   7.228  0.8709 -0.2823 -0.6378
  251MOL0     C33010   7.067   3.415   7.255  0.5213 -0.1028  0.7692
  251MOL0     C33011   7.015   3.281   7.297 -0.4215  0.1244 -0.6818
  251MOL0     C33012   6.871   3.279   7.331  0.1163  0.1110 -0.3838
  251MOL0     C33013   6.810   3.162   7.414 -0.0241  0.1486 -1.3474
  251MOL0     C33014   6.677   3.199   7.483  0.5522  0.0039 -0.0909
  251MOL0     C33015   6.689   3.292   7.609  0.6870 -0.2809 -0.7821
  251MOL0     C33016   6.546   3.319   7.660 -0.8655 -0.3451 -0.5943
  251MOL0     N33017   6.505   3.466   7.659 -0.5020 -1.0042 -0.2225
  251MOL0     C33018   6.453   3.527   7.543  0.6549  0.4448 -0.5774
  251MOL0     C33019   6.402   3.644   7.587  0.2235  0.3427 -0.3910
  251MOL0     C33020   6.343   3.751   7.496 -0.6935  0.1104  0.1036
  251MOL0     C33021   6.454   3.809   7.403 -0.1314  0.2506 -0.0426
  251MOL0     C33022   6.379   3.871   7.284  0.2777  0.4917 -0.3750
  251MOL0     C33023   6.470   3.907   7.166  1.3193  0.2795 -0.1253
  251MOL0     O33024   6.578   3.998   7.192 -0.8537  0.3489 -0.7230
  251MOL0     C33025   6.552   4.127   7.218  0.2307  0.4943  0.4278
  251MOL0     C33026   6.448   4.202   7.161  0.0541  0.5688 -0.0169
  251MOL0     C33027   6.445   4.342   7.167 -0.2529  0.2345  0.3719
  251MOL0     C33028   6.537   4.416   7.243 -0.4617  0.1100 -0.8876
  251MOL0     C33029   6.538   4.566   7.260 -0.2505  0.2193 -0.1191
  251MOL0     O33030   6.614   4.631   7.361 -0.4028  0.3544  0.4765
  251MOL0     C33031   6.659   4.757   7.341 -0.6247  0.3570 -0.4593
  251MOL0     C33032   6.686   4.831   7.216 -0.8770  0.2085 -0.1134
  251MOL0     C33033   6.733   4.961   7.222  0.0563 -0.1793  0.0498
  251MOL0     C33034   6.778   5.020   7.339 -0.0860 -0.7941 -0.2985
  251MOL0     O33035   6.841   5.144   7.345  0.4875 -0.3247  0.0949
  251MOL0     C33036   6.878   5.205   7.477 -0.0455  0.1320  0.0450
  251MOL0     C33037   6.998   5.136   7.537 -0.5442 -0.3480 -0.6818
  251MOL0     C33038   7.119   5.151   7.443  0.3095 -0.1907  0.5769
  251MOL0     C33039   7.252   5.090   7.491 -0.3430 -1.1554  0.1061
  251MOL0     C33040   7.362   5.178   7.418 -0.3821 -1.4865 -0.1350
  251MOL0     C33041   7.486   5.090   7.397 -0.8561 -0.4656 -0.1790
  251MOL0     C33042   7.548   5.058   7.532  0.2449 -0.1147 -0.3357
  251MOL0     C33043   7.682   4.991   7.516  0.7648 -0.6321 -0.8228
  251MOL0    Cl33044   7.817   5.116   7.474 -0.1057 -0.2924  0.1920
  251MOL0     C33045   6.748   4.952   7.454 -0.1405  0.0512  0.8134
  251MOL0     C33046   6.685   4.821   7.459  0.3487 -0.1075  0.5829
  251MOL0     O33047   6.454   4.620   7.182 -0.4835  0.8939  0.7389
  251MOL0     C33048   6.639   4.341   7.305  0.3798  0.1744 -0.0379
  251MOL0     C33049   6.643   4.204   7.290  0.6888  0.1602  0.4595
  251MOL0     N33050   6.430   3.656   7.729  0.5144  0.1562  0.3037
  251MOL0     N33051   6.488   3.550   7.769  0.2118  0.7620 -0.6771
  251MOL0     C33052   7.443   3.361   6.995  0.6093 -0.5226  0.1062
  251MOL0     C33053   7.580   3.352   6.984 -0.0539 -0.2012 -0.3085
  251MOL0     C33054   8.018   3.369   7.037 -0.5845 -0.3545 -0.6684
  251MOL0     C33055   8.108   3.441   7.123  0.1000  0.3998 -1.1344
  251MOL0     C33056   8.241   3.409   7.116 -0.0421 -0.2170 -0.6406
  251MOL0     C33057   8.298   3.310   7.032 -0.0130  0.6630  0.7555
  251MOL0     O33058   8.430   3.278   7.024 -0.0520 -0.4040 -0.1961
  251MOL0     C33059   8.519   3.347   7.109 -0.7396 -0.4972 -0.1066
  251MOL0     C33060   8.665   3.309   7.077 -0.3309  0.6329 -0.1607
  251MOL0     C33061   8.770   3.349   7.178 -0.2941 -0.5320 -0.3640
  251MOL0     C33062   8.910   3.307   7.146  0.7386  0.7408 -0.2636
  251MOL0     C33063   8.957   3.352   7.012  0.2127 -0.0446 -0.4117
  251MOL0     C33064   9.001   3.388   6.903 -0.0163  0.5364 -1.2974
  251MOL0     C33065   8.216   3.238   6.945  1.1602 -0.1347  0.1352
  251MOL0     C33066   8.076   3.275   6.947 -0.0217  0.3083  0.4439
  251MOL0     H33067   7.662   3.188   7.265  1.7764 -1.3599 -1.6117
  251MOL0     H33068   7.409   3.198   7.297  2.2118 -0.9869  1.0588
  251MOL0     H33069   7.260   3.520   7.210  3.8524 -1.2187  0.3699
  251MOL0     H33070   7.265   3.390   7.322  0.2834 -2.0113 -0.8585
  251MOL0     H33071   7.015   3.441   7.163  0.9850 -0.8261  0.2936
  251MOL0     H33072   7.041   3.489   7.332  1.1464  0.6296  0.2920
  251MOL0     H33073   7.072   3.249   7.385  1.3718 -0.8751 -2.1378
  251MOL0     H33074   7.038   3.210   7.217  0.6767  1.9598 -2.0748
  251MOL0     H33075   6.853   3.372   7.386  0.7856  1.5698 -2.4933
  251MOL0     H33076   6.824   3.286   7.233 -0.5319 -1.8866 -0.2530
  251MOL0     H33077   6.881   3.138   7.494 -1.7843  0.7639  0.4729
  251MOL0     H33078   6.792   3.079   7.345 -0.7938  0.0006 -0.9790
  251MOL0     H33079   6.632   3.101   7.499  0.5799  0.1049  0.6542
  251MOL0     H33080   6.609   3.255   7.419 -1.2883  0.9504  2.5033
  251MOL0     H33081   6.755   3.254   7.687  0.8292  2.8113  0.7496
  251MOL0     H33082   6.730   3.391   7.589  2.1494 -0.1178  2.4789
  251MOL0     H33083   6.542   3.300   7.767  1.2043  0.5478 -0.3142
  251MOL0     H33084   6.477   3.261   7.597 -1.1417 -1.7025  0.8916
  251MOL0     H33085   6.433   3.486   7.445 -2.1038 -1.5573  0.6764
  251MOL0     H33086   6.302   3.827   7.563 -0.3812 -1.6019  2.3420
  251MOL0     H33087   6.258   3.712   7.439  0.5235  0.0239 -1.7601
  251MOL0     H33088   6.519   3.736   7.354  1.3712  2.4811 -1.6037
  251MOL0     H33089   6.514   3.882   7.458  2.2255  0.6217 -2.8375
  251MOL0     H33090   6.306   3.799   7.246 -0.0818 -0.0555  1.2853
  251MOL0     H33091   6.323   3.955   7.327  0.4282 -0.8065  2.5803
  251MOL0     H33092   6.416   3.955   7.084 -1.6368 -2.9646 -0.2952
  251MOL0     H33093   6.514   3.816   7.125 -0.6137 -1.3628  1.2888
  251MOL0     H33094   6.374   4.158   7.094  1.7857 -2.9700  0.1489
  251MOL0     H33095   6.368   4.395   7.111  0.9059  3.8469  1.8934
  251MOL0     H33096   6.666   4.793   7.117  0.8268 -0.2719 -0.3110
  251MOL0     H33097   6.756   5.013   7.129 -0.1394 -2.9169 -1.6370
  251MOL0     H33098   6.785   5.201   7.535 -0.2774 -0.3109 -0.3419
  251MOL0     H33099   6.904   5.311   7.470 -1.0250  0.5198  1.6961
  251MOL0     H33100   6.989   5.027   7.549  1.7392 -0.7312 -1.9438
  251MOL0     H33101   7.029   5.184   7.630  0.9236 -1.0330 -0.7975
  251MOL0     H33102   7.124   5.258   7.425 -2.4557 -0.2185 -0.8251
  251MOL0     H33103   7.086   5.108   7.348 -0.2313 -0.1069  0.7185
  251MOL0     H33104   7.261   5.085   7.600 -2.1743 -2.4933  0.2504
  251MOL0     H33105   7.255   4.983   7.466 -0.7869 -1.5411  1.5909
  251MOL0     H33106   7.389   5.266   7.476 -0.3764 -1.8309  0.3934
  251MOL0     H33107   7.319   5.208   7.322 -0.0055 -0.0340  0.1333
  251MOL0     H33108   7.567   5.134   7.338 -0.9722 -0.6672 -0.4895
  251MOL0     H33109   7.446   5.004   7.344 -0.6768 -1.0004  0.5408
  251MOL0     H33110   7.564   5.152   7.586  0.5243 -0.9832  1.1310
  251MOL0     H33111   7.485   4.991   7.589 -0.3707  1.8742  1.4513
  251MOL0     H33112   7.674   4.911   7.442  1.1997 -0.7013 -0.7995
  251MOL0     H33113   7.716   4.938   7.606 -0.8885 -2.0524 -0.9731
  251MOL0     H33114   6.779   4.984   7.553  0.2834  2.5318 -0.0489
  251MOL0     H33115   6.666   4.766   7.550  0.7449 -1.0112  0.1421
  251MOL0     H33116   6.709   4.394   7.368 -0.2781  0.5104  0.4168
  251MOL0     H33117   6.732   4.158   7.332  2.3505  0.2069 -2.7110
  251MOL0     H33118   7.374   3.390   6.916 -0.3542 -0.1452  1.0600
  251MOL0     H33119   7.629   3.399   6.899 -1.5764  0.7148 -0.7149
  251MOL0     H33120   8.071   3.501   7.205 -2.9498 -2.6604 -0.0244
  251MOL0     H33121   8.308   3.454   7.189 -3.2197  1.3018  1.5254
  251MOL0     H33122   8.496   3.323   7.213 -2.9288  1.3039 -0.0894
  251MOL0     H33123   8.507   3.456   7.112  0.5460 -0.3549  0.7011
  251MOL0     H33124   8.671   3.202   7.056  2.3326  1.1465 -2.5703
  251MOL0     H33125   8.676   3.363   6.983  2.8198  1.7645  0.7257
  251MOL0     H33126   8.737   3.320   7.279  0.5923  3.0676  1.1207
  251MOL0     H33127   8.762   3.458   7.184 -3.7111 -0.7411  0.7234
  251MOL0     H33128   8.973   3.348   7.226  0.1231  0.2628  0.4870
  251MOL0     H33129   8.913   3.199   7.164 -2.5145  0.9320  2.4978
  251MOL0     H33130   9.059   3.427   6.821  1.1017  0.1956 -0.6982
  251MOL0     H33131   8.257   3.163   6.877  1.3188  0.2642 -0.2185
  251MOL0     H33132   8.010   3.231   6.873  1.4264 -2.5588  0.6945
  252MOL0     O33133   2.609   6.721  10.016 -0.0096  1.0242  0.1559
  252MOL0     C33134   2.640   6.615   9.961  0.1603  0.4637 -0.1131
  252MOL0     O33135   2.591   6.571   9.845  0.2064 -0.2112  0.2945
  252MOL0     C33136   2.459   6.540   9.826 -0.3629  0.2767 -0.7791
  252MOL0     C33137   2.422   6.547   9.693 -0.0807  0.6587 -0.2797
  252MOL0     C33138   2.288   6.535   9.661  0.0811 -0.0081 -0.2459
  252MOL0     C33139   2.188   6.509   9.754  0.3584  0.6229 -0.2118
  252MOL0     O33140   2.052   6.519   9.718  0.2913 -0.3400  0.6666
  252MOL0     C33141   1.950   6.518   9.820 -0.4329 -0.8266 -0.1460
  252MOL0     C33142   1.817   6.557   9.758 -0.2717  0.2209 -0.4243
  252MOL0     C33143   1.698   6.567   9.859  0.1020 -0.1975  0.0289
  252MOL0     C33144   1.570   6.605   9.780 -1.0409 -0.7444 -0.1121
  252MOL0     C33145   1.518   6.487   9.691  0.2435 -0.1912  0.5126
  252MOL0     C33146   1.402   6.544   9.604 -0.3321 -0.1923  0.2088
  252MOL0     C33147   1.266   6.568   9.672  0.0358  0.0327 -0.2623
  252MOL0     C33148   1.174   6.646   9.576 -0.0286  0.0511  0.5010
  252MOL0     N33149   1.053   6.686   9.648 -0.0015 -0.2655 -0.8678
  252MOL0     C33150   1.047   6.757   9.770 -0.3324  0.7025  0.5976
  252MOL0     C33151   0.917   6.782   9.800  0.6858 -0.1862  1.1431
  252MOL0     C33152   0.859   6.866   9.905  0.4447  0.0908 -0.2628
  252MOL0     C33153   0.884   7.015   9.888 -0.2287  0.0895 -0.1428
  252MOL0     C33154   0.816   7.094   9.773 -0.4093  0.0588  0.0885
  252MOL0     C33155   0.667   7.102   9.783  0.6846  0.1422 -0.0138
  252MOL0     O33156   0.606   7.202   9.698 -0.6963 -0.1128 -0.4669
  252MOL0     C33157   0.472   7.212   9.679 -0.4220 -0.1921  0.0210
  252MOL0     C33158   0.429   7.278   9.563 -0.0282  0.0516  0.3328
  252MOL0     C33159   0.294   7.297   9.534 -0.6615  0.2963  0.5642
  252MOL0     C33160   0.193   7.254   9.620 -0.0383  0.5227 -1.2571
  252MOL0     C33161   0.045   7.272   9.596  0.0749 -0.0090  0.5547
  252MOL0     O33162   0.011   7.288   9.464  0.1058  0.0572  0.6447
  252MOL0     C33163  -0.117   7.315   9.432  1.1086  0.3084 -0.5500
  252MOL0     C33164  -0.167   7.442   9.405  0.2043  0.4082 -0.2813
  252MOL0     C33165  -0.299   7.463   9.375  0.6753 -0.1472  0.6280
  252MOL0     C33166  -0.394   7.353   9.384  0.0850  0.0780 -0.4196
  252MOL0     O33167  -0.522   7.376   9.339 -0.2519 -0.0936  0.1015
  252MOL0     C33168  -0.627   7.357   9.432 -0.3902 -0.9828  0.6776
  252MOL0     C33169  -0.753   7.377   9.363 -0.5576  0.5181  0.0064
  252MOL0     C33170  -0.864   7.323   9.448 -0.0136  0.0912  0.2804
  252MOL0     C33171  -0.996   7.363   9.386  0.6491  0.1656 -0.0890
  252MOL0     C33172  -1.105   7.260   9.406 -0.4408 -0.1061  0.1608
  252MOL0     C33173  -1.245   7.316   9.390  0.3512 -0.1765  0.2220
  252MOL0     C33174  -1.353   7.203   9.418 -0.8083 -0.0305  0.6173
  252MOL0     C33175  -1.492   7.247   9.392  0.8180  0.3979 -0.8301
  252MOL0    Cl33176  -1.608   7.112   9.413 -0.0730  0.4568 -0.4373
  252MOL0     C33177  -0.344   7.223   9.421  0.3665 -0.1849  0.0529
  252MOL0     C33178  -0.207   7.202   9.448 -0.7511 -0.3442  0.8676
  252MOL0     O33179  -0.034   7.259   9.690  0.4008  0.0339  0.3565
  252MOL0     C33180   0.238   7.196   9.741 -0.0115 -0.0592 -0.2779
  252MOL0     C33181   0.375   7.173   9.767  0.3274  0.4349  0.2352
  252MOL0     N33182   0.843   6.695   9.713  0.4215 -0.0383  0.1258
  252MOL0     N33183   0.927   6.645   9.627  0.7182 -0.9773  0.6190
  252MOL0     C33184   2.231   6.495   9.887  0.1683  0.1419 -0.6324
  252MOL0     C33185   2.364   6.512   9.924  0.5705  0.7994 -0.0083
  252MOL0     C33186   2.758   6.545  10.017 -0.4618 -0.4801 -0.8953
  252MOL0     C33187   2.799   6.412   9.995 -0.3690 -0.3130  0.9761
  252MOL0     C33188   2.910   6.362  10.053  0.5547 -0.5778  0.2748
  252MOL0     C33189   2.994   6.429  10.142  0.2439 -0.3535 -0.4904
  252MOL0     O33190   3.097   6.353  10.197 -0.2931  0.1622 -0.3185
  252MOL0     C33191   3.170   6.405  10.299 -0.3110 -1.1813 -0.6554
  252MOL0     C33192   3.262   6.291  10.336  0.7382 -0.2302  0.3130
  252MOL0     C33193   3.366   6.326  10.447  0.4738  0.6234 -0.4678
  252MOL0     C33194   3.469   6.221  10.467 -0.0809  0.1705 -0.0639
  252MOL0     C33195   3.584   6.273  10.547 -0.4248  0.2874 -0.0211
  252MOL0     C33196   3.668   6.326  10.621 -0.5384  0.3020  0.3904
  252MOL0     C33197   2.962   6.562  10.162  0.2630 -0.6710 -0.2582
  252MOL0     C33198   2.849   6.623  10.099  0.2516  0.2492  0.2748
  252MOL0     H33199   2.496   6.581   9.620  2.4276 -0.1388  1.7201
  252MOL0     H33200   2.257   6.545   9.557 -0.4635 -0.3819 -0.1219
  252MOL0     H33201   1.977   6.586   9.902 -0.5662 -0.0070 -0.7601
  252MOL0     H33202   1.932   6.421   9.867 -1.0112 -0.2122  0.9413
  252MOL0     H33203   1.787   6.481   9.686 -2.5212  0.4831  0.1578
  252MOL0     H33204   1.824   6.656   9.711 -0.5771  0.2590 -0.3918
  252MOL0     H33205   1.718   6.651   9.927  2.0877 -1.5152  1.1535
  252MOL0     H33206   1.680   6.481   9.924 -0.8128 -0.7484 -0.9172
  252MOL0     H33207   1.499   6.644   9.853  1.2739  0.6333  1.5541
  252MOL0     H33208   1.602   6.685   9.712  1.9232 -0.6585  1.2124
  252MOL0     H33209   1.483   6.403   9.753 -0.8721 -0.3271 -0.2709
  252MOL0     H33210   1.595   6.455   9.621  1.9091 -2.6840  3.2231
  252MOL0     H33211   1.388   6.471   9.523  0.6467  0.1023 -0.2314
  252MOL0     H33212   1.437   6.637   9.560  1.3439 -0.4023  1.0137
  252MOL0     H33213   1.218   6.473   9.694 -3.7584  1.9677  0.6374
  252MOL0     H33214   1.272   6.616   9.770  0.6814  2.4585 -1.4122
  252MOL0     H33215   1.150   6.576   9.495  2.3420 -0.9476  0.5752
  252MOL0     H33216   1.223   6.733   9.532  0.3782  0.5037  1.7980
  252MOL0     H33217   1.132   6.796   9.825 -0.3221  0.3088  0.8710
  252MOL0     H33218   0.909   6.831   9.996  3.2847  1.1488 -1.3039
  252MOL0     H33219   0.753   6.836   9.906  0.2379  0.7682 -0.8932
  252MOL0     H33220   0.992   7.023   9.868 -0.4646  0.5175 -1.3182
  252MOL0     H33221   0.858   7.065   9.982 -1.1412 -0.1323 -0.2778
  252MOL0     H33222   0.865   7.191   9.778  0.3663 -0.4142  3.2870
  252MOL0     H33223   0.841   7.049   9.676 -0.4982  0.3343 -0.0647
  252MOL0     H33224   0.643   7.133   9.886 -0.5709 -3.6508  0.9701
  252MOL0     H33225   0.628   7.003   9.760 -1.7161  0.1387  3.2865
  252MOL0     H33226   0.501   7.315   9.491 -0.6748  0.3133 -0.1992
  252MOL0     H33227   0.277   7.350   9.441 -1.0442  0.1887  0.5749
  252MOL0     H33228  -0.099   7.527   9.406  0.8368 -0.0787  1.4229
  252MOL0     H33229  -0.333   7.559   9.339  3.7731  0.2208 -1.7582
  252MOL0     H33230  -0.615   7.421   9.521  1.3157  0.3038 -0.4288
  252MOL0     H33231  -0.630   7.252   9.462 -1.7463 -2.0598 -2.8097
  252MOL0     H33232  -0.754   7.319   9.270  0.7612  2.2635 -1.1608
  252MOL0     H33233  -0.773   7.480   9.334  0.9713  0.3818 -1.7021
  252MOL0     H33234  -0.861   7.365   9.549 -1.6730 -1.0079  0.8308
  252MOL0     H33235  -0.863   7.214   9.441  0.0444  0.1207 -0.2289
  252MOL0     H33236  -1.037   7.457   9.426  1.3407  0.4860 -0.1124
  252MOL0     H33237  -0.981   7.381   9.279  0.6555  3.0183  0.3057
  252MOL0     H33238  -1.092   7.235   9.512  0.8139  1.5131  0.4210
  252MOL0     H33239  -1.078   7.189   9.328  0.3789  1.9180 -1.4808
  252MOL0     H33240  -1.261   7.355   9.289 -0.8064  0.1099  0.5112
  252MOL0     H33241  -1.261   7.395   9.463 -0.9816  0.4237 -0.6865
  252MOL0     H33242  -1.330   7.118   9.352 -1.9297 -1.0017  1.4436
  252MOL0     H33243  -1.338   7.173   9.522  1.2720 -1.5749 -0.0311
  252MOL0     H33244  -1.493   7.274   9.286  0.5793  1.1171 -0.6486
  252MOL0     H33245  -1.526   7.332   9.451 -0.4208  0.2793 -1.3490
  252MOL0     H33246  -0.411   7.139   9.438  1.0698 -0.7709 -0.0374
  252MOL0     H33247  -0.164   7.107   9.477 -1.3415 -0.7329  0.4958
  252MOL0     H33248   0.157   7.165   9.807  0.5629 -1.2205 -0.0940
  252MOL0     H33249   0.399   7.133   9.865 -1.9107  1.7601  1.4198
  252MOL0     H33250   2.158   6.462   9.961 -1.3055 -0.5482 -2.3201
  252MOL0     H33251   2.379   6.489  10.029  2.8647 -0.1319 -0.4748
  252MOL0     H33252   2.729   6.372   9.922 -1.5948  3.2898 -0.0782
  252MOL0     H33253   2.939   6.261  10.026 -0.5075 -0.4583 -1.4585
  252MOL0     H33254   3.114   6.437  10.387  1.6918 -0.2103  0.3200
  252MOL0     H33255   3.226   6.494  10.269  0.0450 -0.9300  0.7085
  252MOL0     H33256   3.184   6.231  10.385 -0.4787  1.3036  0.3401
  252MOL0     H33257   3.297   6.228  10.254 -2.5550 -1.3895 -0.3701
  252MOL0     H33258   3.315   6.351  10.541  0.1169  0.1458 -0.5273
  252MOL0     H33259   3.430   6.407  10.413  4.3362 -1.9164  0.1708
  252MOL0     H33260   3.426   6.135  10.520  1.9467  0.0169  1.4164
  252MOL0     H33261   3.503   6.176  10.373  1.6073 -0.8074  0.9715
  252MOL0     H33262   3.732   6.384  10.684 -2.0081  1.2067  1.1307
  252MOL0     H33263   3.017   6.626  10.230 -2.1328  1.9557 -0.6086
  252MOL0     H33264   2.848   6.730  10.112  0.9563  0.0668  2.1079
  253MOL0     O33265   1.940   8.648   9.168  0.3321  0.5391 -0.7501
  253MOL0     C33266   1.963   8.530   9.210  0.0470  0.0345 -0.1957
  253MOL0     O33267   1.875   8.438   9.227  0.8091  0.1275 -0.1705
  253MOL0     C33268   1.746   8.451   9.185  0.0016  0.1166  0.8002
  253MOL0     C33269   1.697   8.391   9.068 -0.6664 -0.1996  0.1122
  253MOL0     C33270   1.563   8.397   9.015 -0.1596  0.2239 -0.3040
  253MOL0     C33271   1.470   8.466   9.088 -0.7499  0.1517  0.1890
  253MOL0     O33272   1.343   8.457   9.041  0.2100  0.1576 -0.3861
  253MOL0     C33273   1.243   8.531   9.106 -0.1720  0.3726 -0.4790
  253MOL0     C33274   1.116   8.539   9.026 -0.5513  0.5530  0.2235
  253MOL0     C33275   0.993   8.577   9.112 -0.5582  0.0761 -0.0227
  253MOL0     C33276   0.859   8.546   9.037  0.3487 -0.0045  1.7635
  253MOL0     C33277   0.754   8.573   9.139  1.2559  0.5829  0.5927
  253MOL0     C33278   0.615   8.565   9.075  0.4874  0.1299  0.6780
  253MOL0     C33279   0.584   8.702   9.013 -0.3332  0.3300  0.0915
  253MOL0     C33280   0.464   8.692   8.919  0.5285 -0.6026 -0.6545
  253MOL0     N33281   0.339   8.660   8.999 -0.1992  0.1586 -0.0071
  253MOL0     C33282   0.267   8.753   9.083 -0.3905  0.0345 -0.3320
  253MOL0     C33283   0.166   8.690   9.135  0.3041  0.4264 -0.1281
  253MOL0     C33284   0.069   8.752   9.227  0.5916  0.5098 -0.4777
  253MOL0     C33285  -0.071   8.729   9.177  0.8773  0.3019 -0.6340
  253MOL0     C33286  -0.175   8.775   9.276  0.4462 -0.2681 -0.4419
  253MOL0     C33287  -0.315   8.816   9.228 -0.4877  0.2820  1.6429
  253MOL0     O33288  -0.392   8.702   9.178 -0.7065 -0.0722  0.5412
  253MOL0     C33289  -0.536   8.715   9.180 -0.5196  0.2482  0.6675
  253MOL0     C33290  -0.605   8.595   9.178 -0.4809  0.2181  0.2527
  253MOL0     C33291  -0.740   8.592   9.199 -0.5458  0.8283  0.2137
  253MOL0     C33292  -0.821   8.709   9.216  0.8858  0.2242  0.5521
  253MOL0     C33293  -0.974   8.696   9.223  0.4596  0.0255 -0.5028
  253MOL0     O33294  -1.039   8.591   9.163 -0.1812  0.5404 -0.2071
  253MOL0     C33295  -1.175   8.574   9.175  0.2120  0.2679  0.2485
  253MOL0     C33296  -1.230   8.498   9.069  0.3802  0.4233  0.2499
  253MOL0     C33297  -1.365   8.459   9.071 -0.4086  0.3241  0.5706
  253MOL0     C33298  -1.453   8.505   9.168  0.0324 -0.2213  0.0995
  253MOL0     O33299  -1.583   8.466   9.148  0.8840 -0.4369  0.3807
  253MOL0     C33300  -1.694   8.555   9.211 -0.8982 -0.4927 -0.2592
  253MOL0     C33301  -1.829   8.496   9.181 -0.0397  0.5901 -0.4062
  253MOL0     C33302  -1.946   8.584   9.221  0.3799 -0.3077  0.1859
  253MOL0     C33303  -2.079   8.549   9.149 -1.1469 -0.1064 -0.3050
  253MOL0     C33304  -2.186   8.658   9.153 -0.4138  0.2283 -0.8134
  253MOL0     C33305  -2.217   8.698   9.291 -0.2731  0.1419  0.5175
  253MOL0     C33306  -2.326   8.806   9.277  0.2739  0.2015  0.5741
  253MOL0     C33307  -2.440   8.783   9.377 -0.3510 -1.1810  0.3153
  253MOL0    Cl33308  -2.550   8.930   9.376  0.2800  0.0595 -0.5373
  253MOL0     C33309  -1.401   8.589   9.267 -0.4642  0.4790 -1.0015
  253MOL0     C33310  -1.268   8.615   9.277 -0.4570 -0.1323 -0.0636
  253MOL0     O33311  -1.028   8.783   9.288 -0.2670  0.5497 -1.2236
  253MOL0     C33312  -0.752   8.830   9.215  0.5096  0.0628 -0.1877
  253MOL0     C33313  -0.610   8.828   9.198  0.9689 -0.3379  0.3643
  253MOL0     N33314   0.174   8.564   9.071  0.5681  1.0397  0.6868
  253MOL0     N33315   0.273   8.547   8.993  0.2237  0.4018 -0.0066
  253MOL0     C33316   1.514   8.537   9.204  0.4962  0.5594 -0.1637
  253MOL0     C33317   1.651   8.516   9.263  0.7724  1.0409 -0.1583
  253MOL0     C33318   2.098   8.500   9.266  0.0090  0.6000 -0.1626
  253MOL0     C33319   2.129   8.384   9.341 -0.5733  0.2086  0.1159
  253MOL0     C33320   2.250   8.361   9.387  0.4888 -0.3158 -0.1244
  253MOL0     C33321   2.355   8.445   9.375 -0.1936 -0.0799 -0.6613
  253MOL0     O33322   2.472   8.398   9.433  0.2775  0.1433  0.2778
  253MOL0     C33323   2.588   8.486   9.437 -0.2782  0.4999 -0.2583
  253MOL0     C33324   2.721   8.415   9.434 -0.8683 -0.7154  0.8138
  253MOL0     C33325   2.835   8.521   9.443 -0.1063 -0.0927  0.4787
  253MOL0     C33326   2.967   8.469   9.511 -0.1275  0.4331  0.6815
  253MOL0     C33327   3.013   8.339   9.456  0.1994 -0.1472  0.1114
  253MOL0     C33328   3.072   8.242   9.417  0.2013  1.2996  0.5688
  253MOL0     C33329   2.339   8.564   9.298 -0.1129  0.4029 -0.7429
  253MOL0     C33330   2.206   8.592   9.243 -0.7375  0.6439  0.1908
  253MOL0     H33331   1.759   8.343   8.993 -0.1203  1.5976 -0.6460
  253MOL0     H33332   1.534   8.351   8.921  1.3359 -0.8359 -0.2890
  253MOL0     H33333   1.270   8.633   9.134 -0.2564 -0.0446  1.2360
  253MOL0     H33334   1.226   8.490   9.206  1.9029 -0.5490 -0.4499
  253MOL0     H33335   1.088   8.441   8.985 -1.3590  0.2748  1.3922
  253MOL0     H33336   1.142   8.608   8.945  3.4926  1.0210  1.6860
  253MOL0     H33337   1.000   8.681   9.143  2.0220 -0.2059  0.6246
  253MOL0     H33338   1.008   8.522   9.206 -0.9317 -1.3924 -0.7782
  253MOL0     H33339   0.861   8.610   8.948 -0.8790 -0.0533  1.6846
  253MOL0     H33340   0.857   8.441   9.007 -1.0487  0.9696 -2.1578
  253MOL0     H33341   0.762   8.676   9.174 -3.4115  1.3941 -0.0262
  253MOL0     H33342   0.753   8.496   9.217 -0.3511 -0.8677 -0.7684
  253MOL0     H33343   0.537   8.544   9.149 -1.1607 -2.2343 -1.5206
  253MOL0     H33344   0.618   8.473   9.015 -2.6875 -0.2353  0.9050
  253MOL0     H33345   0.552   8.768   9.095 -3.5199 -0.3144 -0.5233
  253MOL0     H33346   0.668   8.749   8.961 -0.0760  0.2691  0.4452
  253MOL0     H33347   0.491   8.618   8.843  1.3740  1.3318 -2.3280
  253MOL0     H33348   0.445   8.787   8.869 -0.5922  0.8308  2.2547
  253MOL0     H33349   0.295   8.856   9.105 -3.0310  1.2127 -1.9722
  253MOL0     H33350   0.080   8.860   9.242 -0.7236  1.1105 -3.1169
  253MOL0     H33351   0.066   8.702   9.324 -1.6893  1.0728 -0.1858
  253MOL0     H33352  -0.075   8.625   9.144 -0.3554  0.8096 -2.1501
  253MOL0     H33353  -0.100   8.788   9.090 -2.0624 -1.1508 -0.7480
  253MOL0     H33354  -0.185   8.693   9.348  0.0978 -0.7933 -1.0741
  253MOL0     H33355  -0.119   8.853   9.328  0.9206  0.2760 -1.7291
  253MOL0     H33356  -0.314   8.891   9.148 -2.6921 -0.9020  0.3990
  253MOL0     H33357  -0.361   8.863   9.315 -2.0323 -1.0005  1.5841
  253MOL0     H33358  -0.553   8.502   9.159 -1.0540 -0.3571  1.3530
  253MOL0     H33359  -0.795   8.499   9.198 -0.7707  0.9601  0.0212
  253MOL0     H33360  -1.172   8.447   8.993  0.3031  0.4074  0.2010
  253MOL0     H33361  -1.412   8.398   8.994 -1.3060  0.6238  0.8628
  253MOL0     H33362  -1.680   8.662   9.195  0.1882  0.1027  3.6289
  253MOL0     H33363  -1.687   8.536   9.319  0.5867 -0.0472 -0.2581
  253MOL0     H33364  -1.840   8.402   9.237  0.4063  0.5672 -0.3549
  253MOL0     H33365  -1.829   8.468   9.075 -0.9530 -2.3691  0.2802
  253MOL0     H33366  -1.924   8.680   9.174  0.3886  0.0099  0.8260
  253MOL0     H33367  -1.955   8.610   9.327 -0.4744 -2.2811  0.6488
  253MOL0     H33368  -2.064   8.527   9.043  2.1582 -0.3918  0.1354
  253MOL0     H33369  -2.120   8.451   9.177 -1.8708 -0.4054 -2.2171
  253MOL0     H33370  -2.274   8.620   9.101 -1.6437  2.3264 -0.4033
  253MOL0     H33371  -2.147   8.746   9.101  0.6564 -0.2462 -0.8278
  253MOL0     H33372  -2.136   8.741   9.351  0.8898 -4.0520  2.2978
  253MOL0     H33373  -2.264   8.617   9.346 -1.5678 -0.3654 -1.2533
  253MOL0     H33374  -2.270   8.899   9.295  0.3482  1.4100 -4.3333
  253MOL0     H33375  -2.373   8.807   9.178  1.1872  1.1463  0.1174
  253MOL0     H33376  -2.396   8.782   9.477 -1.3821 -1.9463  0.7743
  253MOL0     H33377  -2.499   8.698   9.341  0.5840 -0.6037 -2.8477
  253MOL0     H33378  -1.475   8.629   9.335 -3.1098 -2.2617 -2.0302
  253MOL0     H33379  -1.235   8.664   9.368 -0.9336 -1.1602  0.6862
  253MOL0     H33380  -0.811   8.919   9.230 -1.2404 -1.2715  1.3547
  253MOL0     H33381  -0.543   8.912   9.181  2.7378 -1.9525 -1.1282
  253MOL0     H33382   1.441   8.587   9.266  0.0935 -0.3422  0.1044
  253MOL0     H33383   1.682   8.531   9.366  0.9975 -0.3096 -0.0134
  253MOL0     H33384   2.054   8.307   9.355  0.1423 -0.7658 -1.1592
  253MOL0     H33385   2.270   8.272   9.446  0.2641 -0.5872 -0.4562
  253MOL0     H33386   2.583   8.527   9.538 -1.1959 -0.9120  0.3076
  253MOL0     H33387   2.582   8.567   9.364 -1.6221  0.3213 -0.3675
  253MOL0     H33388   2.738   8.349   9.519  2.7188 -0.0631  0.7381
  253MOL0     H33389   2.732   8.353   9.344  1.1494 -3.1946  2.6299
  253MOL0     H33390   2.794   8.602   9.505 -2.0852  0.6279 -1.6033
  253MOL0     H33391   2.859   8.571   9.348 -1.2269 -0.2534  0.0880
  253MOL0     H33392   3.045   8.545   9.504 -0.7532  1.7301  4.8073
  253MOL0     H33393   2.954   8.467   9.620 -0.0372  1.0322  0.7047
  253MOL0     H33394   3.124   8.152   9.391 -0.8373  1.2886 -1.7113
  253MOL0     H33395   2.426   8.623   9.271  0.2852  0.5922  0.8630
  253MOL0     H33396   2.177   8.680   9.186 -2.4027 -1.6100 -2.6926
  254MOL0     O33397   3.480   5.589   3.252 -0.0360 -0.0737  0.1957
  254MOL0     C33398   3.378   5.530   3.210 -1.4504  0.4872 -0.9117
  254MOL0     O33399   3.382   5.427   3.113  0.0375 -0.7122 -0.2498
  254MOL0     C33400   3.485   5.415   3.031 -0.1913  0.7237 -0.1105
  254MOL0     C33401   3.612   5.379   3.084 -0.0486  0.2965 -0.2436
  254MOL0     C33402   3.725   5.363   3.000  0.2029 -0.5907 -0.3778
  254MOL0     C33403   3.713   5.384   2.863  0.1884  0.2927 -0.8353
  254MOL0     O33404   3.830   5.356   2.793 -0.0062  0.1127 -0.0463
  254MOL0     C33405   3.816   5.327   2.654 -0.4680  0.1679  0.5459
  254MOL0     C33406   3.921   5.223   2.606 -0.4471 -0.6289  0.3809
  254MOL0     C33407   3.911   5.200   2.454  0.0252 -0.0275  0.8056
  254MOL0     C33408   3.793   5.116   2.420  0.5201 -0.7145  0.0229
  254MOL0     C33409   3.785   5.079   2.267  1.0238 -0.2788 -0.6713
  254MOL0     C33410   3.658   5.002   2.233  0.0755 -0.2208 -0.0273
  254MOL0     C33411   3.667   4.853   2.260 -0.2197  0.1182  0.1180
  254MOL0     C33412   3.548   4.784   2.192  0.6487 -0.0840 -0.4145
  254MOL0     N33413   3.428   4.782   2.277  0.0108  0.8484  0.7961
  254MOL0     C33414   3.357   4.896   2.310  0.2010  0.5012  0.7321
  254MOL0     C33415   3.261   4.851   2.388  1.1189 -0.2621  0.2781
  254MOL0     C33416   3.156   4.936   2.437  0.0391 -0.2718 -0.4982
  254MOL0     C33417   3.018   4.908   2.370 -0.4176  0.2491 -0.3645
  254MOL0     C33418   2.917   5.004   2.436 -1.0393 -0.7299  0.2675
  254MOL0     C33419   2.778   5.008   2.369 -0.2763  0.7687 -0.1057
  254MOL0     O33420   2.728   4.868   2.353  0.2169 -0.2087 -0.1914
  254MOL0     C33421   2.599   4.839   2.334  0.8595 -0.0824  0.9892
  254MOL0     C33422   2.496   4.929   2.294 -0.3008  0.1945 -0.3037
  254MOL0     C33423   2.366   4.886   2.278 -0.5457  1.3572 -0.2186
  254MOL0     C33424   2.325   4.751   2.297  0.0175  0.2851 -0.6456
  254MOL0     C33425   2.185   4.704   2.284  0.8916  0.0587  0.4655
  254MOL0     O33426   2.156   4.587   2.363  0.2438  0.1192 -0.7014
  254MOL0     C33427   2.027   4.550   2.368 -0.1231 -0.3243 -0.1979
  254MOL0     C33428   1.995   4.429   2.303  0.0417  0.2809 -0.2571
  254MOL0     C33429   1.865   4.379   2.310  0.5298 -0.2399 -0.1793
  254MOL0     C33430   1.764   4.458   2.367  0.5819  0.2125 -0.4247
  254MOL0     O33431   1.642   4.404   2.356  0.4280  0.3307  0.3701
  254MOL0     C33432   1.525   4.479   2.387 -0.1501  0.0534  0.3256
  254MOL0     C33433   1.405   4.397   2.415  0.2298 -0.0681  0.4448
  254MOL0     C33434   1.347   4.319   2.294  0.1381 -0.1864  0.8591
  254MOL0     C33435   1.211   4.250   2.311 -0.2539  0.8180  0.2393
  254MOL0     C33436   1.195   4.126   2.210  0.1280 -0.1548 -0.1957
  254MOL0     C33437   1.091   4.018   2.240 -0.7897 -0.1975  0.4975
  254MOL0     C33438   0.951   4.069   2.253  0.1095  0.6069 -0.2071
  254MOL0     C33439   0.852   3.953   2.226 -0.3401  0.0271 -0.2824
  254MOL0    Cl33440   0.881   3.818   2.335  0.3011  0.1724  0.1998
  254MOL0     C33441   1.795   4.577   2.434 -1.0742  0.7942 -0.2393
  254MOL0     C33442   1.924   4.622   2.435 -0.7039 -0.5507  1.0249
  254MOL0     O33443   2.102   4.765   2.215 -0.1482  0.2800  0.5559
  254MOL0     C33444   2.425   4.660   2.346 -0.5356 -0.1723 -0.2704
  254MOL0     C33445   2.559   4.709   2.355  0.0691 -0.0395  0.1569
  254MOL0     N33446   3.265   4.717   2.400  0.1744  0.5531 -0.5525
  254MOL0     N33447   3.365   4.680   2.331  1.2319  0.2740  0.1811
  254MOL0     C33448   3.590   5.428   2.816 -0.3846 -0.7712 -0.4124
  254MOL0     C33449   3.478   5.443   2.895  0.2132  0.6645 -0.5040
  254MOL0     C33450   3.251   5.561   3.278 -0.0048  0.5331 -0.7170
  254MOL0     C33451   3.130   5.479   3.259  0.1545  0.8041 -0.7507
  254MOL0     C33452   3.003   5.511   3.309 -0.2111  0.3992  0.6153
  254MOL0     C33453   2.986   5.624   3.387 -0.0884  0.2721  0.0094
  254MOL0     O33454   2.859   5.660   3.414  0.1671  0.0784 -0.4069
  254MOL0     C33455   2.842   5.741   3.538 -0.0523 -0.2019  0.6337
  254MOL0     C33456   2.709   5.705   3.606  0.1870  0.2107 -0.4951
  254MOL0     C33457   2.592   5.730   3.522 -0.0224  0.0064  0.7114
  254MOL0     C33458   2.573   5.608   3.429 -0.0126 -0.7690  0.0418
  254MOL0     C33459   2.436   5.600   3.369 -0.6898 -0.3339  0.4024
  254MOL0     C33460   2.334   5.592   3.307  0.0695 -0.6816  0.3233
  254MOL0     C33461   3.101   5.708   3.406  1.1000  0.2544 -0.7968
  254MOL0     C33462   3.224   5.673   3.357 -0.5931 -0.6626 -0.0961
  254MOL0     H33463   3.637   5.373   3.190 -1.1212 -0.5833 -0.0332
  254MOL0     H33464   3.828   5.350   3.032  1.0387 -0.7430 -2.9382
  254MOL0     H33465   3.816   5.417   2.592 -0.4920  0.7876  1.4325
  254MOL0     H33466   3.718   5.281   2.636 -0.9351  0.8030  1.3913
  254MOL0     H33467   3.891   5.135   2.663 -0.6792 -0.7154  0.1286
  254MOL0     H33468   4.026   5.251   2.621 -0.8526  2.0151 -1.0404
  254MOL0     H33469   4.005   5.151   2.425  0.0807 -0.5029  1.7483
  254MOL0     H33470   3.904   5.297   2.405 -0.2311 -0.3027  0.2941
  254MOL0     H33471   3.783   5.026   2.481 -3.1748  1.2684  2.7603
  254MOL0     H33472   3.704   5.174   2.446  1.3727 -0.4418  2.5507
  254MOL0     H33473   3.873   5.022   2.236  1.7739  1.4287 -1.8904
  254MOL0     H33474   3.772   5.168   2.204  1.7260  0.2743 -0.0509
  254MOL0     H33475   3.640   5.016   2.126  0.0173  0.6539  0.0909
  254MOL0     H33476   3.571   5.040   2.288 -0.0552  0.7681 -0.8739
  254MOL0     H33477   3.755   4.809   2.211  0.3191  0.4917  0.7424
  254MOL0     H33478   3.671   4.837   2.368 -0.5904  1.3267  0.3182
  254MOL0     H33479   3.560   4.680   2.160 -1.8197 -0.1820 -1.2814
  254MOL0     H33480   3.522   4.830   2.097  1.5267 -2.2090 -1.7591
  254MOL0     H33481   3.368   4.993   2.263 -0.0316  0.7358  1.1648
  254MOL0     H33482   3.190   5.039   2.422  1.7595 -0.1537  3.0746
  254MOL0     H33483   3.141   4.936   2.546 -0.2168 -2.5516 -0.4963
  254MOL0     H33484   2.997   4.803   2.392 -0.0434  0.4377  0.9499
  254MOL0     H33485   3.025   4.924   2.262  2.3974 -0.8045 -0.4099
  254MOL0     H33486   2.897   4.978   2.540 -1.7993  0.2076  0.3635
  254MOL0     H33487   2.963   5.102   2.428  0.1118 -1.2894 -0.1003
  254MOL0     H33488   2.771   5.051   2.269 -2.8451 -0.3738 -0.4864
  254MOL0     H33489   2.718   5.071   2.436  0.6143  0.4734  1.0092
  254MOL0     H33490   2.534   5.030   2.297  2.6164 -0.8161  0.3096
  254MOL0     H33491   2.295   4.967   2.259 -0.1884  2.5047  2.7535
  254MOL0     H33492   2.058   4.361   2.246 -3.9467 -3.4088 -0.7699
  254MOL0     H33493   1.841   4.284   2.265 -2.1173  0.2097  0.1634
  254MOL0     H33494   1.504   4.557   2.313 -1.8861 -1.1630 -0.5326
  254MOL0     H33495   1.540   4.537   2.479  0.3414  0.6097 -0.0991
  254MOL0     H33496   1.328   4.468   2.447  1.6978  1.5921  0.4277
  254MOL0     H33497   1.438   4.332   2.498 -1.1986 -1.1461  0.2038
  254MOL0     H33498   1.424   4.247   2.265  0.5019  0.4062  0.3274
  254MOL0     H33499   1.337   4.390   2.212  2.8555 -1.1038 -0.3856
  254MOL0     H33500   1.204   4.198   2.407 -3.2302  0.9907  0.1918
  254MOL0     H33501   1.126   4.317   2.295 -2.7912 -2.5207 -1.6687
  254MOL0     H33502   1.292   4.076   2.198  1.3178  2.0603 -0.5000
  254MOL0     H33503   1.174   4.166   2.110 -0.9781 -2.0955 -0.7902
  254MOL0     H33504   1.130   3.965   2.328  0.8830 -2.5690 -1.5399
  254MOL0     H33505   1.099   3.948   2.157 -1.4428 -0.7784  0.9102
  254MOL0     H33506   0.928   4.111   2.351 -1.1363 -2.7236  1.0795
  254MOL0     H33507   0.940   4.145   2.175  0.8208  1.3997  0.4410
  254MOL0     H33508   0.851   3.931   2.119  0.8433  1.0765 -0.5375
  254MOL0     H33509   0.752   3.992   2.248 -0.0828 -0.0259  1.0455
  254MOL0     H33510   1.724   4.623   2.501 -0.3713 -0.8272  1.7161
  254MOL0     H33511   1.960   4.710   2.486 -1.3493 -0.7550  1.8541
  254MOL0     H33512   2.411   4.553   2.355  1.3189 -0.5191 -1.0984
  254MOL0     H33513   2.638   4.644   2.393 -0.9255 -1.2279  0.2656
  254MOL0     H33514   3.582   5.449   2.710 -0.0694  1.7799  0.0268
  254MOL0     H33515   3.376   5.460   2.860 -0.2791  1.8849  1.3738
  254MOL0     H33516   3.142   5.384   3.208 -1.1241  0.2865 -0.1239
  254MOL0     H33517   2.915   5.452   3.287 -0.8469  1.5433  0.0289
  254MOL0     H33518   2.849   5.848   3.516 -1.5353  0.1890  1.8735
  254MOL0     H33519   2.919   5.723   3.612  1.2960 -1.2747 -0.9618
  254MOL0     H33520   2.711   5.603   3.645  0.0524  0.6087  0.5774
  254MOL0     H33521   2.695   5.753   3.703 -3.2107 -3.7897  1.2919
  254MOL0     H33522   2.605   5.822   3.465  0.0370  0.0020  0.7182
  254MOL0     H33523   2.504   5.738   3.586 -0.5636 -0.6383  0.0630
  254MOL0     H33524   2.635   5.621   3.340 -1.5553  2.5336 -0.6888
  254MOL0     H33525   2.595   5.518   3.488  4.3268  1.7123  2.8005
  254MOL0     H33526   2.245   5.600   3.248  0.4028  1.8623  0.0661
  254MOL0     H33527   3.074   5.796   3.463 -2.6405 -1.2341  0.0242
  254MOL0     H33528   3.305   5.743   3.372  0.1524 -1.3392 -0.8542
  255MOL0     O33529   8.743   4.335   9.530  0.6050 -0.1212 -0.4951
  255MOL0     C33530   8.704   4.248   9.606  0.8058 -0.1499 -0.3824
  255MOL0     O33531   8.593   4.162   9.585  0.3114  0.7157  0.1876
  255MOL0     C33532   8.527   4.159   9.462 -0.3438  0.4267 -0.4533
  255MOL0     C33533   8.590   4.158   9.335  0.3373  0.0348  0.0161
  255MOL0     C33534   8.508   4.150   9.223  0.4401  0.0215 -0.3229
  255MOL0     C33535   8.368   4.151   9.228  0.7346 -0.3360 -0.4070
  255MOL0     O33536   8.306   4.160   9.104  0.1702 -0.2613  0.0401
  255MOL0     C33537   8.170   4.149   9.089 -0.1020 -0.0395 -1.1405
  255MOL0     C33538   8.096   4.265   9.157  0.5756 -0.5384 -0.5155
  255MOL0     C33539   8.009   4.339   9.058 -0.5079  0.1456 -0.0289
  255MOL0     C33540   7.931   4.458   9.127 -0.1431  0.2024  0.4125
  255MOL0     C33541   7.841   4.525   9.022  0.4293 -0.0656  0.2065
  255MOL0     C33542   7.744   4.632   9.085  0.1743  0.2052 -0.1563
  255MOL0     C33543   7.643   4.687   8.982  0.2559  0.2654  0.1058
  255MOL0     C33544   7.556   4.578   8.922  0.0661  0.0478 -0.1521
  255MOL0     N33545   7.452   4.631   8.834  0.1955 -0.4140  0.2002
  255MOL0     C33546   7.314   4.627   8.862 -0.4476 -0.2583  0.7109
  255MOL0     C33547   7.251   4.683   8.752 -0.9741  0.5214  0.1209
  255MOL0     C33548   7.108   4.705   8.728  0.0069 -0.4957 -0.5535
  255MOL0     C33549   7.057   4.845   8.759 -0.0993 -1.2912  0.3169
  255MOL0     C33550   7.061   4.888   8.905  0.9142 -0.0698  0.6579
  255MOL0     C33551   6.967   4.807   8.997 -0.3031  0.3274 -0.8939
  255MOL0     O33552   6.836   4.793   8.937  0.0608  0.0940 -0.4636
  255MOL0     C33553   6.741   4.726   9.012  0.0678 -0.6486  0.7531
  255MOL0     C33554   6.760   4.622   9.107 -0.1174 -0.0436 -0.2704
  255MOL0     C33555   6.647   4.570   9.180 -1.4347 -0.3372 -0.2537
  255MOL0     C33556   6.520   4.616   9.165  0.3834  0.3884  0.5328
  255MOL0     C33557   6.408   4.530   9.225 -0.8190 -0.2061 -0.1395
  255MOL0     O33558   6.282   4.557   9.174 -0.1692  0.3601 -0.5831
  255MOL0     C33559   6.175   4.497   9.235  0.2127 -0.1804 -0.0777
  255MOL0     C33560   6.091   4.404   9.177  0.2473 -0.4710  0.0119
  255MOL0     C33561   5.977   4.366   9.242  0.2008  0.3471  0.0721
  255MOL0     C33562   5.936   4.428   9.362  0.6029  0.8439 -0.3398
  255MOL0     O33563   5.825   4.388   9.437  0.2192 -0.3986  1.1004
  255MOL0     C33564   5.738   4.293   9.381 -0.2703 -0.6878  0.2264
  255MOL0     C33565   5.782   4.159   9.433  0.3473  0.5199  0.3924
  255MOL0     C33566   5.690   4.042   9.401 -0.8084 -0.1773 -0.3281
  255MOL0     C33567   5.720   4.001   9.257 -1.0450  0.5492 -0.1744
  255MOL0     C33568   5.683   3.850   9.245 -0.0542  0.0848 -0.3277
  255MOL0     C33569   5.548   3.816   9.304  0.9046  1.5136 -0.7646
  255MOL0     C33570   5.545   3.660   9.314  0.3165 -0.5809  0.7709
  255MOL0     C33571   5.399   3.611   9.354 -0.1180  0.1390  0.5944
  255MOL0    Cl33572   5.350   3.687   9.506  0.1553 -0.0373 -0.1611
  255MOL0     C33573   6.015   4.519   9.418  0.5074 -0.4096  0.1156
  255MOL0     C33574   6.134   4.551   9.360  0.1965  0.2241  0.0939
  255MOL0     O33575   6.433   4.450   9.317 -0.9821 -0.5926  0.0708
  255MOL0     C33576   6.501   4.717   9.068 -0.0577  0.6845 -0.1157
  255MOL0     C33577   6.612   4.770   9.003  0.1554 -0.0713  0.1749
  255MOL0     N33578   7.353   4.715   8.655  0.0813 -0.2586 -0.0592
  255MOL0     N33579   7.469   4.680   8.707 -0.0146  0.0282 -0.6630
  255MOL0     C33580   8.308   4.136   9.356 -0.0288 -0.5262 -0.0168
  255MOL0     C33581   8.389   4.147   9.471  0.0553 -0.1830  0.9597
  255MOL0     C33582   8.781   4.223   9.733  0.3371 -0.5117 -0.4062
  255MOL0     C33583   8.842   4.329   9.799 -1.0528 -0.4313 -0.2032
  255MOL0     C33584   8.916   4.306   9.916  0.2186  0.4138  0.1433
  255MOL0     C33585   8.952   4.177   9.957 -0.2811 -0.0282 -1.1760
  255MOL0     O33586   9.044   4.137  10.054 -0.5197  0.3844 -0.1170
  255MOL0     C33587   9.097   4.246  10.136 -0.2128  0.4033  1.2901
  255MOL0     C33588   9.195   4.179  10.234  0.1504 -0.3562  0.2097
  255MOL0     C33589   9.234   4.263  10.353 -0.5456  0.0869  0.0947
  255MOL0     C33590   9.354   4.211  10.437  0.6632 -0.7254 -0.7983
  255MOL0     C33591   9.484   4.210  10.368  0.1923  0.2911 -0.3585
  255MOL0     C33592   9.582   4.217  10.298 -0.3187  0.2085  0.3919
  255MOL0     C33593   8.889   4.081   9.892 -0.1563  0.6176 -0.2757
  255MOL0     C33594   8.804   4.096   9.785 -0.2622 -0.6197  0.1392
  255MOL0     H33595   8.696   4.154   9.313 -0.2939 -1.7159 -3.5946
  255MOL0     H33596   8.559   4.160   9.128 -1.1449 -1.7772 -1.4415
  255MOL0     H33597   8.134   4.056   9.134 -2.0478  1.4605  0.6417
  255MOL0     H33598   8.155   4.148   8.981  0.7811  0.1062 -1.2739
  255MOL0     H33599   8.161   4.338   9.205 -2.0972  0.1666  2.3614
  255MOL0     H33600   8.033   4.227   9.238 -2.0269  4.5233  0.2677
  255MOL0     H33601   7.942   4.264   9.015 -0.3474  0.3429 -0.6418
  255MOL0     H33602   8.069   4.368   8.971 -1.3408  1.8688 -0.0720
  255MOL0     H33603   7.868   4.414   9.205 -1.7494 -0.8570 -1.3934
  255MOL0     H33604   7.998   4.533   9.170  1.5075 -0.7958 -0.3158
  255MOL0     H33605   7.786   4.444   8.973 -2.0846  0.6847  1.6044
  255MOL0     H33606   7.909   4.572   8.951 -0.2259  1.0841  0.3152
  255MOL0     H33607   7.804   4.719   9.113 -0.7455  1.0626 -0.8303
  255MOL0     H33608   7.707   4.602   9.184  1.0361  0.1575  0.1650
  255MOL0     H33609   7.583   4.771   9.017 -2.9241 -1.1511 -1.4545
  255MOL0     H33610   7.705   4.723   8.899  1.9274  0.3561  1.3573
  255MOL0     H33611   7.510   4.523   9.004 -2.4574  1.0083 -0.8347
  255MOL0     H33612   7.618   4.512   8.861  1.7215  1.9352 -0.6182
  255MOL0     H33613   7.266   4.602   8.956  0.0003 -0.2570  0.9444
  255MOL0     H33614   7.055   4.638   8.797  0.1817 -1.3013 -1.1855
  255MOL0     H33615   7.077   4.682   8.626 -2.2391  0.7522 -0.1993
  255MOL0     H33616   6.953   4.857   8.725  0.2433  0.0184 -0.3363
  255MOL0     H33617   7.111   4.916   8.695 -1.0365 -0.1316  0.7555
  255MOL0     H33618   7.164   4.885   8.941  1.1857 -0.1024 -0.1171
  255MOL0     H33619   7.025   4.991   8.917 -2.8504 -0.9426 -1.4726
  255MOL0     H33620   6.965   4.841   9.101 -2.0833 -0.6069 -0.5752
  255MOL0     H33621   7.008   4.706   9.012  2.1145  1.6490  3.1596
  255MOL0     H33622   6.858   4.579   9.125 -0.2594  0.2433  1.3442
  255MOL0     H33623   6.657   4.489   9.252 -2.2565  0.4723  0.8113
  255MOL0     H33624   6.101   4.364   9.076 -1.0740 -0.4372 -0.1466
  255MOL0     H33625   5.919   4.290   9.191  2.1612  0.2639 -2.2194
  255MOL0     H33626   5.732   4.291   9.272  0.9210 -3.9774  0.1184
  255MOL0     H33627   5.640   4.322   9.420  0.4543  0.8860  0.9506
  255MOL0     H33628   5.784   4.163   9.543 -4.5612 -1.4822  0.8263
  255MOL0     H33629   5.885   4.139   9.405  0.1674 -0.6151  0.4898
  255MOL0     H33630   5.585   4.071   9.407 -0.4817  1.4274 -1.5667
  255MOL0     H33631   5.699   3.962   9.475  0.3899 -1.2223 -1.5468
  255MOL0     H33632   5.647   4.052   9.194 -3.4950 -3.8235 -1.3372
  255MOL0     H33633   5.826   4.013   9.232 -0.4383  1.6950  2.5774
  255MOL0     H33634   5.767   3.797   9.292  0.8615  2.9703  1.5093
  255MOL0     H33635   5.683   3.824   9.139  2.9822  1.2077 -0.7134
  255MOL0     H33636   5.462   3.852   9.247 -1.4323  0.7560  2.0560
  255MOL0     H33637   5.536   3.846   9.409 -0.4656 -1.3570  0.0206
  255MOL0     H33638   5.563   3.630   9.211 -0.4701  1.8212 -0.1218
  255MOL0     H33639   5.626   3.623   9.378  0.7621  0.7330  0.9965
  255MOL0     H33640   5.403   3.502   9.360 -0.1263 -0.1061 -2.5773
  255MOL0     H33641   5.325   3.637   9.279 -2.4148 -0.3829  2.5601
  255MOL0     H33642   5.987   4.572   9.509  0.7338 -0.4363  0.2025
  255MOL0     H33643   6.188   4.622   9.422 -0.5610 -1.1730  2.4981
  255MOL0     H33644   6.401   4.750   9.041 -1.2941 -2.1555  0.6012
  255MOL0     H33645   6.591   4.840   8.923  0.7879 -0.7645 -0.6128
  255MOL0     H33646   8.200   4.138   9.366 -0.2584 -0.0903 -2.1721
  255MOL0     H33647   8.340   4.142   9.568  0.9595 -0.2374  1.4294
  255MOL0     H33648   8.838   4.432   9.765  0.6098 -0.0935  0.5591
  255MOL0     H33649   8.972   4.383   9.966  3.6068 -2.0303  0.4694
  255MOL0     H33650   9.012   4.303  10.177 -1.4571  0.0915 -0.7328
  255MOL0     H33651   9.153   4.315  10.072 -1.1392 -1.6243 -1.9641
  255MOL0     H33652   9.146   4.094  10.282 -1.3906  0.6605  0.5000
  255MOL0     H33653   9.283   4.146  10.177 -1.6638  0.1760 -3.1463
  255MOL0     H33654   9.148   4.275  10.418 -0.7739 -0.2414 -0.1418
  255MOL0     H33655   9.261   4.356  10.301  1.6160 -0.1027  0.7516
  255MOL0     H33656   9.353   4.278  10.525  1.7653 -1.3653 -0.2830
  255MOL0     H33657   9.332   4.114  10.483  0.3512  0.5374  1.9341
  255MOL0     H33658   9.665   4.227  10.231 -1.2526  0.5631 -0.7455
  255MOL0     H33659   8.908   3.984   9.938  1.2374  0.4051 -1.2391
  255MOL0     H33660   8.758   4.012   9.734 -0.3639 -0.1045 -0.6427
  256MOL0     O33661  10.195   2.917   5.484 -0.8543 -0.4762 -0.2446
  256MOL0     C33662  10.207   2.838   5.386  0.8081  0.2509 -0.1571
  256MOL0     O33663  10.110   2.817   5.294  0.6885 -0.3149  0.3908
  256MOL0     C33664   9.986   2.866   5.325  0.1391  0.1661  0.3400
  256MOL0     C33665   9.893   2.793   5.409 -0.7621  0.8696  0.9137
  256MOL0     C33666   9.760   2.847   5.422 -0.1849  0.8585 -0.8130
  256MOL0     C33667   9.732   2.973   5.363  0.2382 -0.0674  0.1563
  256MOL0     O33668   9.604   3.012   5.375  0.3519 -0.5400  0.2912
  256MOL0     C33669   9.536   3.032   5.255 -0.2146  0.0788  0.9241
  256MOL0     C33670   9.414   3.119   5.277  0.2401 -0.5165 -0.0278
  256MOL0     C33671   9.309   3.141   5.168 -0.1216  0.0952 -0.3422
  256MOL0     C33672   9.193   3.033   5.163  0.6549 -0.0364 -0.3880
  256MOL0     C33673   9.048   3.097   5.151  0.0631  0.1118  0.2832
  256MOL0     C33674   9.019   3.168   5.010 -0.0720  0.1921  0.7169
  256MOL0     C33675   8.901   3.256   5.012 -0.8257 -0.5313 -0.2249
  256MOL0     C33676   8.771   3.181   5.035 -0.4798  0.6993 -0.8333
  256MOL0     N33677   8.657   3.274   5.025  0.0333 -0.0379 -0.0276
  256MOL0     C33678   8.553   3.286   5.123 -0.3945 -0.2590  0.9452
  256MOL0     C33679   8.451   3.345   5.051 -0.1027  1.0466 -0.4413
  256MOL0     C33680   8.320   3.367   5.112 -0.1376  0.0586 -0.4587
  256MOL0     C33681   8.206   3.309   5.033  1.1250 -0.4823 -0.3095
  256MOL0     C33682   8.115   3.234   5.124 -0.5761  0.2638  0.5255
  256MOL0     C33683   8.075   3.307   5.249 -0.1031  0.2776 -0.3249
  256MOL0     O33684   8.004   3.428   5.215  0.9019  0.0004  0.8696
  256MOL0     C33685   7.863   3.420   5.193 -0.4684  0.0138  0.1752
  256MOL0     C33686   7.801   3.535   5.148 -0.4500 -0.1232 -0.0242
  256MOL0     C33687   7.665   3.542   5.132  0.3367  0.2083  0.1265
  256MOL0     C33688   7.585   3.423   5.142  0.0088 -0.2709 -0.2205
  256MOL0     C33689   7.443   3.431   5.127  0.2185  0.0853  0.1636
  256MOL0     O33690   7.382   3.315   5.089 -0.4619  0.4330 -0.5505
  256MOL0     C33691   7.246   3.302   5.094  0.6859  0.1657 -0.0840
  256MOL0     C33692   7.167   3.354   5.191 -0.0127  0.1865  0.1061
  256MOL0     C33693   7.030   3.340   5.183 -0.0643  0.5306  0.8457
  256MOL0     C33694   6.972   3.262   5.083  0.6130 -0.3744  0.8225
  256MOL0     O33695   6.834   3.264   5.067  0.3906 -0.4778 -0.0745
  256MOL0     C33696   6.781   3.140   5.011 -0.5872  0.9585 -0.2025
  256MOL0     C33697   6.675   3.185   4.916 -0.4065 -0.4939  0.0434
  256MOL0     C33698   6.582   3.076   4.875 -0.1344  0.0474 -0.1159
  256MOL0     C33699   6.490   3.115   4.759  0.2313 -0.4090 -0.9259
  256MOL0     C33700   6.379   3.008   4.746  0.5517  0.3825  0.2437
  256MOL0     C33701   6.310   3.004   4.609  0.2669 -0.2277  0.7277
  256MOL0     C33702   6.208   2.891   4.591 -0.0661  0.9989  0.4847
  256MOL0     C33703   6.169   2.866   4.451  0.3586  0.9532 -0.0403
  256MOL0    Cl33704   6.038   2.741   4.430  0.4835 -0.4579  0.1087
  256MOL0     C33705   7.054   3.217   4.978 -0.3338  0.0411 -0.3580
  256MOL0     C33706   7.188   3.231   4.994 -0.4932 -0.1099 -0.0187
  256MOL0     O33707   7.385   3.539   5.142  0.1867  0.6999  0.5538
  256MOL0     C33708   7.646   3.308   5.197 -0.5596 -0.6269  0.0051
  256MOL0     C33709   7.782   3.310   5.230 -0.6614 -0.1982  0.3009
  256MOL0     N33710   8.490   3.359   4.921  0.9581 -0.7291  0.8870
  256MOL0     N33711   8.613   3.329   4.905 -0.8963  0.1946 -0.7315
  256MOL0     C33712   9.820   3.028   5.280  0.0637 -0.4148  0.5270
  256MOL0     C33713   9.948   2.978   5.258 -0.2671 -0.1896  0.0034
  256MOL0     C33714  10.336   2.772   5.367  0.6917 -0.1803 -0.2858
  256MOL0     C33715  10.366   2.707   5.251  0.5007  0.1636 -0.3909
  256MOL0     C33716  10.488   2.650   5.224  0.0122  0.3774  0.6384
  256MOL0     C33717  10.583   2.648   5.325  0.6021 -0.2299  0.4473
  256MOL0     O33718  10.707   2.590   5.311  0.5332 -0.1094 -0.6498
  256MOL0     C33719  10.761   2.600   5.177  0.6217  0.3806 -0.2515
  256MOL0     C33720  10.912   2.563   5.172  1.2408  0.5246  0.2243
  256MOL0     C33721  11.010   2.678   5.190 -1.0218 -0.5399  0.4601
  256MOL0     C33722  11.005   2.719   5.341 -0.7552  0.4031  0.1802
  256MOL0     C33723  11.106   2.823   5.356 -1.3066  0.6162  0.4037
  256MOL0     C33724  11.207   2.886   5.365 -0.2738  0.8327 -0.1589
  256MOL0     C33725  10.564   2.710   5.448  0.8614 -0.2189  0.3597
  256MOL0     C33726  10.438   2.771   5.469 -0.2901 -0.2907  0.8887
  256MOL0     H33727   9.918   2.705   5.469 -0.1808  0.5303  0.1833
  256MOL0     H33728   9.699   2.798   5.497  1.0913 -1.8748 -1.4490
  256MOL0     H33729   9.512   2.930   5.222  2.1834  0.0027 -0.8971
  256MOL0     H33730   9.588   3.063   5.164  0.8407 -1.5952  0.9073
  256MOL0     H33731   9.455   3.215   5.309  0.3099 -0.4947 -0.1865
  256MOL0     H33732   9.352   3.084   5.361 -0.6009 -1.8203 -1.1558
  256MOL0     H33733   9.353   3.138   5.068  0.0877  0.6733 -0.2673
  256MOL0     H33734   9.272   3.244   5.172  1.6170  0.7668 -0.7634
  256MOL0     H33735   9.218   2.959   5.087  1.1545 -0.8571  0.5573
  256MOL0     H33736   9.183   2.967   5.250 -2.2914 -2.5821 -2.4267
  256MOL0     H33737   9.032   3.169   5.232 -0.0289 -0.4919  0.8087
  256MOL0     H33738   8.980   3.012   5.164  1.2495 -0.5620  2.6165
  256MOL0     H33739   8.995   3.097   4.930 -0.0123  0.6309  0.2996
  256MOL0     H33740   9.105   3.232   4.986  0.0839  0.0731  0.9531
  256MOL0     H33741   8.913   3.327   5.095 -1.7789  1.1886 -1.4969
  256MOL0     H33742   8.889   3.316   4.921  1.3182  2.8523  1.4988
  256MOL0     H33743   8.762   3.124   5.128 -0.6601 -0.0258 -1.2875
  256MOL0     H33744   8.764   3.111   4.951 -0.3502  1.4765 -1.5071
  256MOL0     H33745   8.559   3.258   5.227  0.1766 -1.6051  0.5646
  256MOL0     H33746   8.311   3.476   5.125  2.3435  0.6180 -2.4406
  256MOL0     H33747   8.332   3.324   5.211 -5.2165 -0.6864  0.0945
  256MOL0     H33748   8.244   3.235   4.962 -0.3814 -1.1051 -0.4842
  256MOL0     H33749   8.152   3.386   4.976  0.6192  0.8496  1.8563
  256MOL0     H33750   8.031   3.221   5.055 -0.0623  0.4403 -0.1396
  256MOL0     H33751   8.162   3.142   5.161 -0.0629 -0.1139 -1.0246
  256MOL0     H33752   8.168   3.333   5.300  1.6416  0.3655 -3.3485
  256MOL0     H33753   8.019   3.233   5.307  0.5541  0.5151  0.6412
  256MOL0     H33754   7.860   3.623   5.127 -2.0799  1.0424  0.1082
  256MOL0     H33755   7.608   3.631   5.107  2.4013  2.8600  3.8275
  256MOL0     H33756   7.211   3.404   5.277  1.2225 -1.2537  0.3477
  256MOL0     H33757   6.980   3.390   5.265 -0.2031  0.4128  0.8333
  256MOL0     H33758   6.734   3.082   5.090  0.9166  0.4394  0.3432
  256MOL0     H33759   6.846   3.073   4.954  0.2954  1.7819 -0.1960
  256MOL0     H33760   6.730   3.232   4.834  3.4175 -0.7778  2.2266
  256MOL0     H33761   6.609   3.258   4.963 -0.2467 -0.1932 -0.1967
  256MOL0     H33762   6.532   3.035   4.964 -0.5188 -2.9956 -1.6020
  256MOL0     H33763   6.653   3.005   4.831 -1.9274  0.8435 -4.8702
  256MOL0     H33764   6.441   3.209   4.787 -2.1464 -1.7443 -0.2935
  256MOL0     H33765   6.536   3.141   4.664 -0.4788  2.1268 -0.6354
  256MOL0     H33766   6.308   3.009   4.829  0.4509 -3.8156  0.4452
  256MOL0     H33767   6.433   2.913   4.755 -0.2561  0.0595  2.0654
  256MOL0     H33768   6.393   2.987   4.541 -1.3360 -2.9165 -0.7337
  256MOL0     H33769   6.263   3.098   4.580  1.0676  0.1786  0.7371
  256MOL0     H33770   6.242   2.796   4.635  0.0010  1.1086  0.6746
  256MOL0     H33771   6.114   2.924   4.635  0.0466  2.2983 -0.2022
  256MOL0     H33772   6.256   2.821   4.400 -1.7013 -1.3680 -1.7809
  256MOL0     H33773   6.146   2.958   4.396  0.0860 -0.3452 -2.2292
  256MOL0     H33774   7.017   3.180   4.883  1.2909 -1.2666 -0.5124
  256MOL0     H33775   7.261   3.200   4.920  1.1313  1.6270  0.7726
  256MOL0     H33776   7.587   3.217   5.203 -2.6079  0.5567 -0.9778
  256MOL0     H33777   7.826   3.221   5.275  0.5912  0.5889  0.6967
  256MOL0     H33778   9.800   3.113   5.215 -0.0012 -1.4277 -0.8354
  256MOL0     H33779  10.019   3.029   5.195 -0.9176  0.0483 -0.5493
  256MOL0     H33780  10.293   2.701   5.171  0.9924  1.1662 -0.9350
  256MOL0     H33781  10.497   2.614   5.122 -2.3910  0.8141  0.2054
  256MOL0     H33782  10.752   2.702   5.139 -0.0864  1.0617  1.6589
  256MOL0     H33783  10.707   2.523   5.121  3.7170 -1.0848 -1.4813
  256MOL0     H33784  10.930   2.481   5.243 -2.0157  0.2338  0.8983
  256MOL0     H33785  10.938   2.526   5.072  1.9482  1.7995 -0.0744
  256MOL0     H33786  10.989   2.764   5.126  2.3362  0.2142  0.2115
  256MOL0     H33787  11.114   2.653   5.171 -0.8040  1.4016 -1.1336
  256MOL0     H33788  10.909   2.767   5.361 -0.2383  2.7367 -2.2952
  256MOL0     H33789  11.018   2.641   5.416  0.4468  1.1120  0.7309
  256MOL0     H33790  11.295   2.946   5.377  0.5850 -0.4566  0.2109
  256MOL0     H33791  10.643   2.715   5.522  0.9062  0.8498  0.2513
  256MOL0     H33792  10.416   2.811   5.568 -2.1044  0.5064  0.2025
  257MOL0     O33793   3.105   2.526   7.757 -0.0234  0.1187  0.4341
  257MOL0     C33794   3.153   2.583   7.855 -0.9453 -0.4505 -0.7786
  257MOL0     O33795   3.108   2.578   7.988 -0.0374  0.1568 -0.4158
  257MOL0     C33796   3.014   2.488   8.017  0.4657 -0.0540 -0.4699
  257MOL0     C33797   3.011   2.355   7.970 -0.7888  0.9200 -0.0834
  257MOL0     C33798   2.908   2.263   7.998  0.7314  0.8513  0.0660
  257MOL0     C33799   2.813   2.299   8.102 -0.0920 -0.1986  0.0631
  257MOL0     O33800   2.709   2.218   8.148 -0.8524  0.2953 -0.2484
  257MOL0     C33801   2.624   2.156   8.053  0.2998  0.0786 -0.2368
  257MOL0     C33802   2.481   2.135   8.105 -0.4392 -0.0960 -0.6587
  257MOL0     C33803   2.389   2.255   8.086 -0.0903 -0.3593 -0.4037
  257MOL0     C33804   2.235   2.213   8.102 -0.1182 -0.2400 -0.2677
  257MOL0     C33805   2.186   2.128   7.982  0.1307 -0.3459  0.2551
  257MOL0     C33806   2.036   2.105   7.984 -0.0041  0.0012  0.1792
  257MOL0     C33807   1.990   2.013   8.098 -0.4257 -0.5658  0.1244
  257MOL0     C33808   1.880   1.917   8.061  0.2810  0.0264 -0.6287
  257MOL0     N33809   1.846   1.818   8.172  0.2341 -0.8077 -0.5237
  257MOL0     C33810   1.725   1.819   8.246 -0.6626  0.9402  0.2640
  257MOL0     C33811   1.745   1.723   8.342 -1.0214 -1.0621  0.2819
  257MOL0     C33812   1.653   1.661   8.441 -0.2041 -0.5118  1.1326
  257MOL0     C33813   1.502   1.650   8.397  0.5775 -0.2501 -0.0880
  257MOL0     C33814   1.423   1.778   8.411  0.8307 -0.0433  0.1230
  257MOL0     C33815   1.285   1.751   8.362 -0.3539 -0.0445 -0.8051
  257MOL0     O33816   1.213   1.690   8.470 -0.0541  0.2397 -0.4084
  257MOL0     C33817   1.085   1.646   8.458 -0.7351 -0.0993  0.3757
  257MOL0     C33818   0.992   1.698   8.367 -0.3647  0.4351  0.5915
  257MOL0     C33819   0.856   1.653   8.370 -0.2214 -0.5095  0.6931
  257MOL0     C33820   0.810   1.556   8.462 -0.3506 -0.2710 -0.1601
  257MOL0     C33821   0.669   1.509   8.472  0.8283  0.0542 -0.3085
  257MOL0     O33822   0.647   1.400   8.550  0.2061  0.0067  0.0872
  257MOL0     C33823   0.528   1.349   8.525  0.4804 -0.1871  0.3734
  257MOL0     C33824   0.425   1.403   8.602  0.1665 -0.0637  0.2563
  257MOL0     C33825   0.286   1.356   8.580  0.5108  0.9634 -0.8714
  257MOL0     C33826   0.261   1.259   8.481 -0.1392  0.0899  0.6197
  257MOL0     O33827   0.134   1.220   8.463 -0.0144  0.3259  0.5946
  257MOL0     C33828   0.103   1.193   8.328  0.3344 -0.5698  0.4885
  257MOL0     C33829  -0.040   1.147   8.331 -1.0366 -0.3003  0.5080
  257MOL0     C33830  -0.139   1.257   8.373 -0.1838  0.0447  0.4756
  257MOL0     C33831  -0.283   1.226   8.318 -0.9335  0.3904 -0.0003
  257MOL0     C33832  -0.386   1.329   8.378 -0.1099 -0.1689  0.5975
  257MOL0     C33833  -0.517   1.351   8.294 -0.4194  1.1657 -0.2791
  257MOL0     C33834  -0.502   1.392   8.147  0.2462  0.1706  0.4617
  257MOL0     C33835  -0.413   1.517   8.123  0.4962  0.3746  0.0646
  257MOL0    Cl33836  -0.455   1.659   8.229  0.4905 -0.0182 -0.2806
  257MOL0     C33837   0.366   1.209   8.414 -1.0336  0.4774  0.1363
  257MOL0     C33838   0.500   1.254   8.433  0.4888 -0.2537  0.5758
  257MOL0     O33839   0.584   1.564   8.395 -1.0337 -0.3224 -0.1213
  257MOL0     C33840   0.904   1.507   8.558  0.0167 -0.3193  0.6691
  257MOL0     C33841   1.036   1.557   8.553 -0.9882 -0.2788 -0.3171
  257MOL0     N33842   1.868   1.661   8.320  0.3109  0.1911 -0.1421
  257MOL0     N33843   1.931   1.729   8.235  0.4223  0.7323  0.4454
  257MOL0     C33844   2.828   2.423   8.164  0.3146  0.6822  0.0588
  257MOL0     C33845   2.926   2.525   8.120  0.0502  0.8211 -0.9579
  257MOL0     C33846   3.279   2.654   7.823  0.2367 -0.1749 -0.3105
  257MOL0     C33847   3.300   2.713   7.698  0.3243 -0.4280 -0.7568
  257MOL0     C33848   3.416   2.794   7.680 -0.3872 -0.2476 -0.4814
  257MOL0     C33849   3.513   2.812   7.782  0.7510 -0.9674 -0.7132
  257MOL0     O33850   3.632   2.893   7.754  0.0741  0.6729 -0.0572
  257MOL0     C33851   3.754   2.888   7.822  0.5518 -0.4238 -0.5124
  257MOL0     C33852   3.857   2.830   7.729  0.8948  0.2138 -0.5837
  257MOL0     C33853   3.811   2.684   7.691 -0.2433 -0.5044  0.1753
  257MOL0     C33854   3.937   2.600   7.670  0.0011  1.0573  0.2743
  257MOL0     C33855   3.997   2.543   7.795  0.8169 -0.1283  0.2596
  257MOL0     C33856   4.057   2.476   7.875 -0.7400  0.5160 -0.5212
  257MOL0     C33857   3.480   2.752   7.904 -0.3765  0.2935  0.3899
  257MOL0     C33858   3.361   2.682   7.926  0.7407 -0.0484  0.1787
  257MOL0     H33859   3.081   2.325   7.893  0.9944 -0.7245  2.0477
  257MOL0     H33860   2.890   2.170   7.945 -2.5601  0.0877  2.2175
  257MOL0     H33861   2.664   2.055   8.042  3.2509  1.2654 -1.1529
  257MOL0     H33862   2.619   2.215   7.961 -0.7115  1.2848  0.5573
  257MOL0     H33863   2.481   2.120   8.214  1.8918 -0.0901 -0.6168
  257MOL0     H33864   2.443   2.049   8.049  1.4882 -1.8178  0.5109
  257MOL0     H33865   2.389   2.296   7.985 -1.5241  3.1401  0.8601
  257MOL0     H33866   2.412   2.333   8.159 -1.2781 -0.7366  0.4043
  257MOL0     H33867   2.226   2.163   8.199 -3.6782  1.2314  0.3216
  257MOL0     H33868   2.172   2.302   8.099 -0.6447 -0.5045  1.5754
  257MOL0     H33869   2.247   2.037   7.985  0.2378 -0.2967  3.4601
  257MOL0     H33870   2.205   2.171   7.883 -1.7984 -0.8900 -0.3931
  257MOL0     H33871   2.032   2.044   7.894 -0.6291  0.7566 -0.3175
  257MOL0     H33872   1.981   2.199   7.969  0.1092 -0.1714 -1.5175
  257MOL0     H33873   2.073   1.951   8.132  0.4372  0.7624  0.5054
  257MOL0     H33874   1.964   2.073   8.186 -0.9969 -0.7700  0.0954
  257MOL0     H33875   1.925   1.862   7.978 -0.0568 -1.2864  0.0311
  257MOL0     H33876   1.787   1.970   8.035 -0.7891  1.2394  4.5423
  257MOL0     H33877   1.630   1.870   8.230 -0.2986  1.1221 -1.4985
  257MOL0     H33878   1.652   1.729   8.526  1.5007  1.4686 -0.3045
  257MOL0     H33879   1.691   1.565   8.476 -3.0404 -1.1700  2.7408
  257MOL0     H33880   1.458   1.570   8.456  2.3565 -0.7845  0.5431
  257MOL0     H33881   1.507   1.621   8.291  0.6278 -1.1163  0.1483
  257MOL0     H33882   1.416   1.818   8.513 -1.9050 -0.2659  0.0833
  257MOL0     H33883   1.452   1.859   8.343 -1.1341  2.0114  1.5673
  257MOL0     H33884   1.275   1.698   8.267  2.1329 -0.7452 -0.7306
  257MOL0     H33885   1.239   1.846   8.332 -0.2090 -0.0737 -1.1311
  257MOL0     H33886   1.028   1.777   8.302  0.8062 -2.0260 -1.9678
  257MOL0     H33887   0.789   1.702   8.300 -0.6854 -2.1394 -0.0448
  257MOL0     H33888   0.448   1.476   8.680 -0.8717 -0.5315  1.0289
  257MOL0     H33889   0.206   1.393   8.644 -0.0555 -1.8979  0.2163
  257MOL0     H33890   0.166   1.117   8.280  0.1584  0.7122 -1.9653
  257MOL0     H33891   0.100   1.287   8.272 -2.2610 -0.3159  0.9394
  257MOL0     H33892  -0.046   1.069   8.408 -1.5545 -0.4599  0.3095
  257MOL0     H33893  -0.058   1.096   8.235  1.3485  0.2072 -0.2945
  257MOL0     H33894  -0.104   1.347   8.322 -1.9023 -0.1024 -1.0660
  257MOL0     H33895  -0.143   1.285   8.479 -2.0037  0.1702  0.4147
  257MOL0     H33896  -0.296   1.218   8.210  0.1687  1.0858 -0.2054
  257MOL0     H33897  -0.297   1.124   8.355 -1.1966  1.4209  3.0399
  257MOL0     H33898  -0.331   1.424   8.370  0.0272 -0.3066 -0.2124
  257MOL0     H33899  -0.413   1.301   8.480  2.9302 -4.0256  0.5569
  257MOL0     H33900  -0.571   1.435   8.337 -1.5432  0.6854 -0.7242
  257MOL0     H33901  -0.582   1.263   8.289 -0.5430  1.1361  1.4377
  257MOL0     H33902  -0.463   1.302   8.100 -2.6704  0.4055 -2.9307
  257MOL0     H33903  -0.599   1.416   8.101 -0.5648  1.8472  2.8796
  257MOL0     H33904  -0.415   1.558   8.022  0.6134  1.6313  0.5472
  257MOL0     H33905  -0.306   1.498   8.135  0.6810  1.5106  0.3392
  257MOL0     H33906   0.358   1.139   8.332  1.3649 -1.2062  1.2037
  257MOL0     H33907   0.582   1.225   8.368 -0.2159  0.2594 -0.5874
  257MOL0     H33908   0.877   1.435   8.634  1.0644  0.6179  1.9828
  257MOL0     H33909   1.112   1.519   8.621  0.0295  0.7850 -0.8448
  257MOL0     H33910   2.754   2.464   8.232 -0.5319 -1.8805  0.7920
  257MOL0     H33911   2.928   2.623   8.166 -1.1370  1.5519 -2.3739
  257MOL0     H33912   3.225   2.697   7.621 -1.8006 -2.3411  1.5657
  257MOL0     H33913   3.434   2.861   7.596 -1.2664 -1.1584 -1.4294
  257MOL0     H33914   3.745   2.828   7.914 -1.1178 -0.3705 -0.6179
  257MOL0     H33915   3.778   2.993   7.841 -0.7434  0.3790 -2.9833
  257MOL0     H33916   3.884   2.891   7.642 -1.5138 -0.5275 -1.9528
  257MOL0     H33917   3.947   2.821   7.790  0.5829  1.9655  0.2158
  257MOL0     H33918   3.742   2.698   7.607 -1.6377 -0.9114  1.2223
  257MOL0     H33919   3.752   2.644   7.774  0.5921  0.3185  1.2034
  257MOL0     H33920   3.910   2.512   7.611 -1.8731  1.0491  1.0938
  257MOL0     H33921   4.015   2.649   7.612  1.7613 -0.8413  0.8920
  257MOL0     H33922   4.117   2.435   7.954 -0.7722 -1.3820 -1.4131
  257MOL0     H33923   3.546   2.775   7.986  1.8618  0.2464 -1.2974
  257MOL0     H33924   3.330   2.653   8.026 -0.7542  0.6708 -0.0422
  258MOL0     O33925  10.073   3.429  10.016 -0.2637 -0.0580 -0.5644
  258MOL0     C33926  10.168   3.485   9.955 -0.6967  0.7694 -0.7246
  258MOL0     O33927  10.300   3.483   9.998  0.0487  0.5193 -0.3230
  258MOL0     C33928  10.360   3.366  10.041 -0.7289 -0.1295 -0.5308
  258MOL0     C33929  10.302   3.237  10.060 -0.0161  0.1593 -0.2222
  258MOL0     C33930  10.375   3.128  10.101  0.1568 -0.1788 -0.0546
  258MOL0     C33931  10.512   3.145  10.124 -0.0045 -0.6091  0.1268
  258MOL0     O33932  10.591   3.047  10.170 -0.2877 -0.4405 -0.5835
  258MOL0     C33933  10.536   2.910  10.169  0.1122 -0.1153  0.2696
  258MOL0     C33934  10.644   2.811  10.202  0.7962 -0.2311  0.7950
  258MOL0     C33935  10.586   2.676  10.225 -0.5784  1.6458  0.2242
  258MOL0     C33936  10.700   2.572  10.250  0.3119 -0.1989  0.0039
  258MOL0     C33937  10.650   2.421  10.244  0.1474 -0.5206  0.1853
  258MOL0     C33938  10.764   2.311  10.251 -0.0443 -0.1996 -0.0890
  258MOL0     C33939  10.848   2.302  10.121 -0.2674  0.3304  0.0670
  258MOL0     C33940  10.924   2.173  10.108  0.2752 -0.5535  0.2047
  258MOL0     N33941  10.855   2.056  10.044 -0.0145  0.4820  0.2906
  258MOL0     C33942  10.724   2.013  10.081 -0.3395 -0.0183  0.3965
  258MOL0     C33943  10.701   1.911   9.995 -0.6404  0.1930  0.0982
  258MOL0     C33944  10.568   1.832   9.996  0.1306  1.0165  0.6083
  258MOL0     C33945  10.588   1.699  10.073 -0.2350  0.1779 -0.5899
  258MOL0     C33946  10.588   1.713  10.229 -0.8442  0.5386  0.8117
  258MOL0     C33947  10.465   1.795  10.280 -0.7319 -0.2762  0.3433
  258MOL0     O33948  10.345   1.764  10.216 -0.1277 -0.5235  0.3358
  258MOL0     C33949  10.235   1.819  10.260  0.5552  0.0064  0.6108
  258MOL0     C33950  10.115   1.787  10.198 -0.0715  0.0788  0.9936
  258MOL0     C33951   9.993   1.824  10.247  0.4339  0.0402  0.1677
  258MOL0     C33952   9.977   1.903  10.363  0.0137  0.4334  0.1185
  258MOL0     C33953   9.841   1.952  10.402  0.0526 -0.2074 -0.4884
  258MOL0     O33954   9.737   1.902  10.330 -0.3690  0.2408 -0.5682
  258MOL0     C33955   9.609   1.929  10.365  0.0055  0.2481  0.6662
  258MOL0     C33956   9.522   1.978  10.267 -0.2673  0.3918 -0.9812
  258MOL0     C33957   9.390   2.002  10.302  0.1226 -0.5190  0.1191
  258MOL0     C33958   9.344   1.980  10.434 -0.1003 -0.1069  0.2608
  258MOL0     O33959   9.212   2.011  10.448  0.2266 -0.1876  0.0392
  258MOL0     C33960   9.140   1.921  10.522 -0.2059  0.0820  0.3683
  258MOL0     C33961   8.993   1.924  10.484  0.8892 -0.2571  0.5662
  258MOL0     C33962   8.903   1.843  10.573 -0.8636 -0.1909  0.2072
  258MOL0     C33963   8.761   1.889  10.546 -0.1295  0.5195  0.6156
  258MOL0     C33964   8.705   1.837  10.412  0.9397 -0.1922 -0.7439
  258MOL0     C33965   8.562   1.886  10.397  0.0585 -0.0559  0.3846
  258MOL0     C33966   8.498   1.884  10.252  0.8996  0.2594  0.3088
  258MOL0     C33967   8.464   1.738  10.211 -0.1233 -0.6892 -0.9298
  258MOL0    Cl33968   8.338   1.671  10.315  0.2589  0.1207  0.1858
  258MOL0     C33969   9.430   1.923  10.524  0.4193 -0.1249 -0.4774
  258MOL0     C33970   9.565   1.898  10.493 -0.1450 -0.9788  0.4848
  258MOL0     O33971   9.832   2.049  10.478  0.5775  1.0662  0.0021
  258MOL0     C33972  10.099   1.937  10.428  0.7612 -0.3543  0.2742
  258MOL0     C33973  10.223   1.897  10.378 -0.0120  0.4892 -0.0839
  258MOL0     N33974  10.816   1.890   9.913 -0.4140  0.2455 -0.2132
  258MOL0     N33975  10.909   1.973   9.950 -0.4760  0.1514  0.0210
  258MOL0     C33976  10.573   3.270  10.095  0.2986 -0.4023  0.1341
  258MOL0     C33977  10.500   3.379  10.046  0.6673 -0.0554  0.8153
  258MOL0     C33978  10.132   3.594   9.860 -0.3655  0.1604  0.4879
  258MOL0     C33979  10.233   3.673   9.798 -0.3540 -0.0005 -0.2586
  258MOL0     C33980  10.208   3.782   9.718  1.0605 -0.0138 -0.1802
  258MOL0     C33981  10.073   3.801   9.688  0.6703 -1.2331  0.1841
  258MOL0     O33982  10.038   3.912   9.610 -0.3110  0.4440 -1.3824
  258MOL0     C33983   9.904   3.959   9.595  0.0848  0.0438  0.0920
  258MOL0     C33984   9.816   3.886   9.488  0.2675  0.1739 -0.3598
  258MOL0     C33985   9.694   3.971   9.444 -0.1813  0.1316 -0.1054
  258MOL0     C33986   9.583   3.944   9.540 -0.0130 -0.6589 -0.3812
  258MOL0     C33987   9.455   4.009   9.497 -0.2649 -0.5903 -0.4872
  258MOL0     C33988   9.358   4.059   9.444 -0.4930  0.1066  0.3470
  258MOL0     C33989   9.972   3.722   9.747  0.5532 -0.3573 -0.5663
  258MOL0     C33990  10.004   3.619   9.832  0.5630  0.3279  0.6356
  258MOL0     H33991  10.196   3.220  10.046 -0.0561  0.4723 -0.3084
  258MOL0     H33992  10.335   3.030  10.125  2.2986 -1.7001 -2.2581
  258MOL0     H33993  10.507   2.890  10.065 -0.6124  0.8922  0.2506
  258MOL0     H33994  10.452   2.898  10.238 -0.1267 -1.3695 -0.2243
  258MOL0     H33995  10.699   2.841  10.292  2.6092 -1.0072 -0.0061
  258MOL0     H33996  10.724   2.810  10.127  0.9084  1.7963  0.8240
  258MOL0     H33997  10.530   2.632  10.142  1.7720 -4.1745  1.2518
  258MOL0     H33998  10.515   2.681  10.309  0.5575 -1.9380  1.5995
  258MOL0     H33999  10.775   2.592  10.174  1.3290  1.6412  1.4213
  258MOL0     H34000  10.748   2.580  10.348 -0.0851  4.1793  0.0500
  258MOL0     H34001  10.586   2.410  10.156 -1.2262  1.1279  0.8934
  258MOL0     H34002  10.581   2.397  10.325  0.7275 -1.3186  0.4526
  258MOL0     H34003  10.723   2.213  10.275 -1.0334  0.0135 -0.8493
  258MOL0     H34004  10.833   2.339  10.331  1.2432  1.0180 -1.5514
  258MOL0     H34005  10.783   2.302  10.032  0.7190 -0.4581 -0.6799
  258MOL0     H34006  10.916   2.387  10.115 -1.8231  1.5480 -2.0461
  258MOL0     H34007  10.981   2.141  10.196  1.9452 -0.2892 -0.7310
  258MOL0     H34008  11.007   2.184  10.037  0.1613 -3.2192 -0.4519
  258MOL0     H34009  10.664   2.059  10.160  0.5921  1.0056  0.5333
  258MOL0     H34010  10.549   1.802   9.892  4.0326  1.0554 -0.2823
  258MOL0     H34011  10.490   1.894  10.041 -0.2333  1.7066 -0.9174
  258MOL0     H34012  10.682   1.664  10.029  1.5901  3.9163 -0.0698
  258MOL0     H34013  10.515   1.622  10.047  0.2570 -1.1403  1.6642
  258MOL0     H34014  10.591   1.612  10.270  0.9875 -0.2365 -1.0819
  258MOL0     H34015  10.685   1.749  10.264  0.0638 -2.6875  1.9389
  258MOL0     H34016  10.486   1.901  10.269 -1.6796  0.1602  2.2870
  258MOL0     H34017  10.456   1.779  10.388  0.1435  0.4690  0.5357
  258MOL0     H34018  10.129   1.730  10.106  2.8195  1.0852  0.7059
  258MOL0     H34019   9.911   1.804  10.179  0.0556  0.3118  0.5420
  258MOL0     H34020   9.547   2.007  10.165  0.2885 -0.4031 -1.0778
  258MOL0     H34021   9.319   2.030  10.224  2.4850 -0.4571 -2.1653
  258MOL0     H34022   9.141   1.950  10.628  3.2302  0.9007  0.2202
  258MOL0     H34023   9.181   1.820  10.511  0.3636  0.5051 -1.8745
  258MOL0     H34024   8.984   1.884  10.383 -2.1302 -1.3532  1.1585
  258MOL0     H34025   8.948   2.024  10.481 -2.8303 -1.7798 -2.0277
  258MOL0     H34026   8.920   1.862  10.679  0.3740 -0.7975  0.1354
  258MOL0     H34027   8.927   1.738  10.559  2.2876  0.7376 -2.8402
  258MOL0     H34028   8.704   1.856  10.633 -1.4919  2.2587  0.4326
  258MOL0     H34029   8.744   1.996  10.538  1.3667  0.6303 -4.8578
  258MOL0     H34030   8.709   1.729  10.399  1.9218  0.0402 -2.6706
  258MOL0     H34031   8.765   1.866  10.325 -1.1265 -0.6294 -2.4015
  258MOL0     H34032   8.554   1.992  10.423 -0.6214 -0.5373  2.2715
  258MOL0     H34033   8.493   1.840  10.468  1.0909 -1.2706  0.6319
  258MOL0     H34034   8.408   1.946  10.260 -0.2619 -1.0334 -1.8826
  258MOL0     H34035   8.568   1.922  10.177 -1.5511 -1.9300 -3.3921
  258MOL0     H34036   8.559   1.686  10.218  2.2833  3.3632 -0.0597
  258MOL0     H34037   8.419   1.735  10.111 -1.2264  0.0994 -0.4816
  258MOL0     H34038   9.394   1.903  10.625 -2.3063 -0.9344 -1.5227
  258MOL0     H34039   9.632   1.861  10.570  1.2304 -3.5995 -1.7981
  258MOL0     H34040  10.116   1.995  10.518  0.8712 -1.4267  0.9673
  258MOL0     H34041  10.306   1.920  10.445  0.7771 -3.4850  0.5904
  258MOL0     H34042  10.680   3.286  10.107  0.3079  2.1752 -2.4719
  258MOL0     H34043  10.546   3.473  10.019  1.7405 -0.2431  1.8814
  258MOL0     H34044  10.336   3.647   9.820 -1.6221 -3.4506  2.5923
  258MOL0     H34045  10.291   3.841   9.681 -0.3628 -0.1237 -3.9659
  258MOL0     H34046   9.917   4.061   9.557  0.3702  0.3740  1.0461
  258MOL0     H34047   9.852   3.963   9.691 -1.7354  1.8354 -0.8929
  258MOL0     H34048   9.886   3.875   9.404  0.5427  1.9097 -0.3988
  258MOL0     H34049   9.788   3.784   9.516  1.6530 -0.9577 -2.7059
  258MOL0     H34050   9.674   3.948   9.339  0.7058  2.6292 -0.8735
  258MOL0     H34051   9.722   4.076   9.447 -2.0989  0.6835  3.3791
  258MOL0     H34052   9.567   3.836   9.536  0.7687 -0.7624 -1.1994
  258MOL0     H34053   9.605   3.977   9.642  1.9348 -1.4004 -0.5148
  258MOL0     H34054   9.280   4.099   9.382 -0.4362 -1.0536 -0.5022
  258MOL0     H34055   9.870   3.757   9.732  0.9715  1.5072  0.4961
  258MOL0     H34056   9.926   3.561   9.880 -2.6405  3.5749 -0.2322
  259MOL0     O34057   8.655   4.400  10.734  0.4845 -0.7472 -0.0934
  259MOL0     C34058   8.686   4.326  10.824 -0.3550  0.3734  0.0069
  259MOL0     O34059   8.612   4.286  10.928 -0.0051  0.4808  0.0111
  259MOL0     C34060   8.486   4.335  10.952 -0.2540  0.1206 -1.0133
  259MOL0     C34061   8.474   4.438  11.054 -0.4562  0.1930 -0.2234
  259MOL0     C34062   8.353   4.501  11.073  0.8541  0.1778  0.0933
  259MOL0     C34063   8.233   4.451  11.005  1.0209 -0.5513 -1.0290
  259MOL0     O34064   8.104   4.499  11.025  0.2561 -0.3303 -0.1307
  259MOL0     C34065   8.085   4.638  11.022 -0.1063 -0.5232 -0.2194
  259MOL0     C34066   7.968   4.669  10.932  0.2831  0.3902  0.4423
  259MOL0     C34067   7.993   4.643  10.780  0.2567  0.1506 -0.1431
  259MOL0     C34068   7.866   4.667  10.697 -0.6418 -0.0427  0.8534
  259MOL0     C34069   7.892   4.632  10.552  0.3803 -0.1031 -0.5484
  259MOL0     C34070   7.785   4.694  10.465 -0.2289 -0.2769  0.7531
  259MOL0     C34071   7.820   4.681  10.321 -0.9810 -0.2120  0.0064
  259MOL0     C34072   7.784   4.541  10.257 -0.1980 -0.0627  0.0388
  259MOL0     N34073   7.640   4.533  10.240 -0.2223  0.5035  0.1923
  259MOL0     C34074   7.558   4.604  10.154 -0.1800  0.3134 -0.0780
  259MOL0     C34075   7.435   4.546  10.165 -0.4340  0.2940 -0.4292
  259MOL0     C34076   7.316   4.575  10.080 -0.0944 -1.3290 -0.1674
  259MOL0     C34077   7.197   4.627  10.160  0.5583  0.0087  0.4126
  259MOL0     C34078   7.133   4.760  10.101  0.1970  0.5859 -0.4779
  259MOL0     C34079   7.002   4.797  10.176  0.4058  0.7533  0.3182
  259MOL0     O34080   6.903   4.695  10.156  0.1215 -0.2784 -0.5555
  259MOL0     C34081   6.781   4.715  10.219  0.3641  0.6265  0.1889
  259MOL0     C34082   6.753   4.776  10.342  0.4666 -1.1789  0.2511
  259MOL0     C34083   6.618   4.771  10.390 -0.7548 -0.6889  0.4504
  259MOL0     C34084   6.515   4.704  10.319 -0.2041 -0.9933  0.6476
  259MOL0     C34085   6.379   4.705  10.375  0.8692 -0.3183  0.2705
  259MOL0     O34086   6.276   4.626  10.317 -0.6071 -0.0856  0.1787
  259MOL0     C34087   6.162   4.620  10.397  0.2776  0.2257 -1.5535
  259MOL0     C34088   6.154   4.506  10.484  0.6392 -0.0864  0.0918
  259MOL0     C34089   6.061   4.489  10.584 -0.4876  0.1521  0.2587
  259MOL0     C34090   5.975   4.603  10.615 -0.3080  0.8615  0.0401
  259MOL0     O34091   5.893   4.584  10.725  0.0244  0.4662  0.1582
  259MOL0     C34092   5.787   4.671  10.764 -0.1513 -0.3006  0.7139
  259MOL0     C34093   5.667   4.664  10.679  0.4904 -1.0974  0.0104
  259MOL0     C34094   5.560   4.762  10.724 -0.5140  0.7756  0.7977
  259MOL0     C34095   5.458   4.750  10.615  0.0547 -0.4526 -0.2605
  259MOL0     C34096   5.327   4.823  10.668  0.0475  0.2067  0.1799
  259MOL0     C34097   5.229   4.729  10.732  0.9243  0.6605 -0.1602
  259MOL0     C34098   5.103   4.804  10.784 -0.8534  0.4016 -0.4720
  259MOL0     C34099   5.001   4.710  10.839  0.7964 -1.9117 -0.0161
  259MOL0    Cl34100   4.937   4.613  10.705 -0.4190 -0.2758 -0.2702
  259MOL0     C34101   5.989   4.714  10.532  0.1750  0.1004 -0.5023
  259MOL0     C34102   6.077   4.728  10.424  0.0930 -0.5976 -0.2701
  259MOL0     O34103   6.367   4.766  10.482  0.3352 -0.8396  0.0724
  259MOL0     C34104   6.548   4.649  10.193 -0.1382 -0.5954 -0.2018
  259MOL0     C34105   6.683   4.645  10.151  0.2164  0.5003 -0.0094
  259MOL0     N34106   7.444   4.439  10.253 -0.6673 -0.1911 -0.1481
  259MOL0     N34107   7.562   4.440  10.311 -0.2924  0.0435  0.6627
  259MOL0     C34108   8.248   4.349  10.906  0.2765  0.0722  0.2578
  259MOL0     C34109   8.375   4.298  10.882  0.1859 -0.2941  0.3623
  259MOL0     C34110   8.830   4.287  10.823  0.2342 -0.8282  0.2291
  259MOL0     C34111   8.923   4.364  10.750  0.2516 -0.1263 -0.0186
  259MOL0     C34112   9.059   4.329  10.748  0.1201  0.1492 -0.1558
  259MOL0     C34113   9.103   4.222  10.821  1.1151 -0.0686 -0.0152
  259MOL0     O34114   9.239   4.188  10.794 -0.0521  0.7896 -1.2411
  259MOL0     C34115   9.298   4.082  10.869 -0.2848  0.7173  0.1146
  259MOL0     C34116   9.439   4.036  10.823  1.4201 -0.3169 -0.6080
  259MOL0     C34117   9.536   4.157  10.833  0.1831  0.4627 -0.3504
  259MOL0     C34118   9.679   4.111  10.829 -0.1358 -0.2247 -0.1241
  259MOL0     C34119   9.726   4.058  10.701 -0.4077 -0.0254 -0.5971
  259MOL0     C34120   9.761   4.012  10.597 -0.4852 -0.2090  0.3229
  259MOL0     C34121   9.013   4.152  10.899  0.3149 -0.9752 -0.3975
  259MOL0     C34122   8.883   4.185  10.907 -0.1518 -0.0913  0.0188
  259MOL0     H34123   8.569   4.473  11.092  0.3620  0.6272 -2.5315
  259MOL0     H34124   8.341   4.589  11.134 -1.4134  1.1930 -1.6708
  259MOL0     H34125   8.171   4.699  10.992 -2.7482  2.6994 -1.8125
  259MOL0     H34126   8.064   4.666  11.126 -0.6763 -0.0787 -0.4555
  259MOL0     H34127   7.956   4.774  10.960 -0.0143  0.1057  1.4497
  259MOL0     H34128   7.882   4.609  10.964 -0.4344  0.5772 -1.0202
  259MOL0     H34129   8.032   4.541  10.767 -1.2636 -0.6833  1.3167
  259MOL0     H34130   8.062   4.717  10.740 -0.7924 -0.1827 -2.7844
  259MOL0     H34131   7.787   4.604  10.738 -0.2096 -1.3659 -0.2842
  259MOL0     H34132   7.854   4.775  10.712  0.3766 -0.2485  3.9937
  259MOL0     H34133   7.904   4.524  10.542  0.7865 -0.2400  1.1979
  259MOL0     H34134   7.992   4.670  10.529  0.1266  0.2878 -1.0436
  259MOL0     H34135   7.778   4.800  10.491 -4.2822 -0.4916  1.0793
  259MOL0     H34136   7.687   4.650  10.484 -1.2491  0.9053 -1.4155
  259MOL0     H34137   7.772   4.757  10.259  0.8208  0.1245 -1.0447
  259MOL0     H34138   7.927   4.700  10.308 -1.1895  2.1571  1.1324
  259MOL0     H34139   7.821   4.457  10.317  2.8248  1.8371  1.1127
  259MOL0     H34140   7.829   4.535  10.158  0.1814  1.1344  0.1285
  259MOL0     H34141   7.583   4.684  10.085  0.9436 -0.2878 -0.3811
  259MOL0     H34142   7.292   4.491  10.013 -0.3825  0.8956 -3.0509
  259MOL0     H34143   7.338   4.653  10.006 -3.9100  0.3897  0.2940
  259MOL0     H34144   7.227   4.642  10.264 -1.7663  0.1766  1.0919
  259MOL0     H34145   7.125   4.545  10.159  1.3845 -0.7622  1.4927
  259MOL0     H34146   7.211   4.837  10.106  0.1583  0.5300  2.2199
  259MOL0     H34147   7.113   4.737   9.996 -0.6057  1.5082 -0.5421
  259MOL0     H34148   6.964   4.890  10.133 -1.3500  0.0470  0.2357
  259MOL0     H34149   7.023   4.812  10.283  2.3147 -0.9827  0.2414
  259MOL0     H34150   6.831   4.829  10.395 -1.8377  3.2984 -0.3407
  259MOL0     H34151   6.595   4.828  10.480  2.0136  3.0029 -0.9422
  259MOL0     H34152   6.222   4.425  10.458  1.1351  0.2749  0.2438
  259MOL0     H34153   6.045   4.393  10.631 -3.0943  0.9930  1.2521
  259MOL0     H34154   5.822   4.775  10.766 -0.7374 -0.0390 -1.1530
  259MOL0     H34155   5.755   4.648  10.866 -2.3386 -0.0283  0.1254
  259MOL0     H34156   5.621   4.565  10.679 -0.9493 -0.4922  2.0789
  259MOL0     H34157   5.710   4.691  10.582 -0.0021 -0.0330  0.0710
  259MOL0     H34158   5.598   4.864  10.726  4.0102 -0.6251 -0.6260
  259MOL0     H34159   5.524   4.746  10.825 -2.1460  3.1071  0.6665
  259MOL0     H34160   5.495   4.798  10.524 -0.6269 -0.9525 -0.8121
  259MOL0     H34161   5.439   4.644  10.598  1.6436 -1.2210  2.2038
  259MOL0     H34162   5.289   4.883  10.584  2.3815  0.5090 -0.7480
  259MOL0     H34163   5.358   4.897  10.742 -0.4511 -1.3494  2.0242
  259MOL0     H34164   5.272   4.663  10.808  3.0753  2.0219 -0.1050
  259MOL0     H34165   5.191   4.661  10.655  1.0776 -0.1069  0.4361
  259MOL0     H34166   5.142   4.875  10.859  1.1896 -1.5712  0.4851
  259MOL0     H34167   5.057   4.863  10.705 -2.5446 -0.9749 -0.5589
  259MOL0     H34168   4.924   4.770  10.888  0.9378  0.0566 -2.0174
  259MOL0     H34169   5.047   4.643  10.912 -1.3742 -3.0910  0.3636
  259MOL0     H34170   5.940   4.807  10.560  0.6318 -0.0676  0.9836
  259MOL0     H34171   6.101   4.827  10.385  0.3951 -0.9831 -1.0791
  259MOL0     H34172   6.481   4.584  10.138  1.8097 -1.5523 -1.5924
  259MOL0     H34173   6.721   4.595  10.063  2.6166  2.5039 -0.2221
  259MOL0     H34174   8.162   4.318  10.847  0.2129 -3.6010  2.0504
  259MOL0     H34175   8.392   4.224  10.805  0.4878  1.7190 -1.6197
  259MOL0     H34176   8.883   4.454  10.704 -0.5898  1.0191  2.7597
  259MOL0     H34177   9.128   4.372  10.676  2.0631  1.3106  2.2378
  259MOL0     H34178   9.227   3.999  10.856 -1.6621  1.5334  2.0669
  259MOL0     H34179   9.300   4.110  10.974 -0.3084 -2.4920  1.0880
  259MOL0     H34180   9.467   3.949  10.883  1.4266 -0.4187 -0.7576
  259MOL0     H34181   9.426   4.020  10.716 -0.1104 -0.8372 -0.3743
  259MOL0     H34182   9.518   4.221  10.919 -2.3972  0.8136 -1.0495
  259MOL0     H34183   9.511   4.225  10.751 -0.2222  0.9815  0.1922
  259MOL0     H34184   9.744   4.192  10.864  1.7710 -1.9975  0.6648
  259MOL0     H34185   9.686   4.023  10.893 -4.6246 -0.6213  0.1168
  259MOL0     H34186   9.787   3.949  10.514 -1.5613 -0.9341  0.5253
  259MOL0     H34187   9.054   4.071  10.958  2.0213  0.4352  0.4443
  259MOL0     H34188   8.808   4.136  10.968 -0.2979  1.8014  1.4807
  260MOL0     O34189   9.995   5.140   2.709  0.0569 -0.3309  0.2468
  260MOL0     C34190  10.047   5.054   2.642  0.7969  0.4436 -0.1833
  260MOL0     O34191   9.996   4.931   2.631 -0.2187  0.5519  0.5796
  260MOL0     C34192   9.863   4.914   2.666 -0.6780 -0.7400 -0.5841
  260MOL0     C34193   9.756   4.993   2.624 -0.0450 -0.2062  0.0174
  260MOL0     C34194   9.635   4.973   2.687  0.0571 -0.1708  0.2247
  260MOL0     C34195   9.605   4.862   2.760 -0.0016 -0.3655  0.1873
  260MOL0     O34196   9.475   4.855   2.806  0.8380  0.1549  0.3212
  260MOL0     C34197   9.425   4.727   2.864 -0.4352 -0.0882  0.6378
  260MOL0     C34198   9.282   4.751   2.902  0.3543  0.4815  0.6233
  260MOL0     C34199   9.227   4.630   2.975 -0.1401  0.5355  0.4234
  260MOL0     C34200   9.073   4.637   2.984  0.5541 -0.7528  0.2203
  260MOL0     C34201   9.005   4.521   3.072  1.0257 -0.2235 -0.5757
  260MOL0     C34202   8.983   4.388   3.013  0.2125  0.0930  0.2378
  260MOL0     C34203   8.925   4.295   3.114  0.3268 -0.3807  0.0987
  260MOL0     C34204   8.821   4.188   3.055 -0.8520 -0.2125  0.7197
  260MOL0     N34205   8.687   4.235   3.011  0.0596 -0.0105 -0.0752
  260MOL0     C34206   8.661   4.356   2.943  0.5363  0.4429 -0.8209
  260MOL0     C34207   8.541   4.335   2.884 -0.4243  0.0973  0.0487
  260MOL0     C34208   8.478   4.419   2.777  0.0990 -0.6849  0.3350
  260MOL0     C34209   8.454   4.567   2.823  0.1789 -1.0225 -0.6197
  260MOL0     C34210   8.370   4.649   2.722 -0.3107 -0.3385  0.8138
  260MOL0     C34211   8.236   4.594   2.705 -0.0159  0.6790 -0.4587
  260MOL0     O34212   8.155   4.699   2.660  0.7829  0.1152  0.4300
  260MOL0     C34213   8.022   4.673   2.645 -0.4903 -0.2200 -0.6684
  260MOL0     C34214   7.953   4.559   2.685  0.1411 -0.3832  0.6166
  260MOL0     C34215   7.814   4.551   2.670 -0.0388 -0.5019  0.3973
  260MOL0     C34216   7.738   4.659   2.612  0.2860 -0.6119 -1.0005
  260MOL0     C34217   7.595   4.642   2.581  0.3225  0.6117  0.2335
  260MOL0     O34218   7.534   4.746   2.522 -0.2429 -0.3712  0.2482
  260MOL0     C34219   7.412   4.747   2.460 -1.4358  0.6315  0.1881
  260MOL0     C34220   7.309   4.656   2.474  0.3766  0.8394  0.3019
  260MOL0     C34221   7.185   4.681   2.416 -0.4840 -0.2983 -0.7721
  260MOL0     C34222   7.161   4.798   2.350  0.2092 -0.2922 -0.0201
  260MOL0     O34223   7.035   4.809   2.291 -0.0365  0.8204 -0.2595
  260MOL0     C34224   7.015   4.935   2.231  0.0563  0.2442  0.5440
  260MOL0     C34225   6.885   4.930   2.154 -0.1494  0.4936 -0.2270
  260MOL0     C34226   6.857   5.066   2.083 -0.2771 -0.3964 -0.1514
  260MOL0     C34227   6.755   5.055   1.967 -0.4944  0.8905 -0.3245
  260MOL0     C34228   6.728   5.194   1.894  0.6706 -0.8896  1.2052
  260MOL0     C34229   6.677   5.177   1.750  0.4566  0.1583 -0.2970
  260MOL0     C34230   6.640   5.311   1.691 -0.1645 -0.4104 -0.2336
  260MOL0     C34231   6.489   5.316   1.671 -0.6172 -0.4153  0.8983
  260MOL0    Cl34232   6.472   5.476   1.585  0.0466 -0.0054  0.0013
  260MOL0     C34233   7.260   4.892   2.342 -0.0501  0.2566  0.1714
  260MOL0     C34234   7.386   4.867   2.390 -0.1263 -0.2619 -0.5530
  260MOL0     O34235   7.549   4.526   2.596  0.1484  0.0189 -0.1716
  260MOL0     C34236   7.808   4.776   2.582  0.9023 -0.1701 -0.5359
  260MOL0     C34237   7.944   4.785   2.607  0.5734  0.5104  0.8260
  260MOL0     N34238   8.490   4.212   2.915  0.0945  0.5504  0.1636
  260MOL0     N34239   8.583   4.150   2.975 -0.5135 -0.2404  0.2495
  260MOL0     C34240   9.701   4.764   2.782 -0.4917  0.1653 -0.8876
  260MOL0     C34241   9.831   4.790   2.730 -0.0344  0.9359 -0.0117
  260MOL0     C34242  10.171   5.072   2.576  0.2876  0.2495  0.5540
  260MOL0     C34243  10.222   5.201   2.555  1.0275  0.7206  0.7229
  260MOL0     C34244  10.344   5.215   2.489 -0.4081 -0.7258 -0.6990
  260MOL0     C34245  10.423   5.101   2.454  0.3467  0.3621  0.2166
  260MOL0     O34246  10.556   5.108   2.410  0.1555 -0.6885  0.0354
  260MOL0     C34247  10.636   5.220   2.447  0.3127 -0.5405 -0.2725
  260MOL0     C34248  10.626   5.330   2.342 -0.6431  0.0443 -0.0601
  260MOL0     C34249  10.700   5.452   2.389 -0.1097  0.0684 -0.0637
  260MOL0     C34250  10.598   5.558   2.448 -0.2786  0.3173 -0.1113
  260MOL0     C34251  10.560   5.676   2.366  0.0829 -0.1303  0.0669
  260MOL0     C34252  10.556   5.787   2.308  0.6360 -0.0824  0.1991
  260MOL0     C34253  10.366   4.978   2.470  0.2964  0.2939  0.3638
  260MOL0     C34254  10.239   4.960   2.525  0.2508  0.5135  0.4743
  260MOL0     H34255   9.767   5.077   2.556  0.0473 -1.7912 -2.0264
  260MOL0     H34256   9.551   5.036   2.659  1.2741  1.8851  0.9977
  260MOL0     H34257   9.479   4.708   2.957 -1.5815 -0.7055  1.1979
  260MOL0     H34258   9.429   4.644   2.793 -2.6873 -1.4724  1.9938
  260MOL0     H34259   9.230   4.764   2.807  0.9385  0.6266  0.3187
  260MOL0     H34260   9.259   4.839   2.963 -3.7874  0.7108 -0.9838
  260MOL0     H34261   9.273   4.621   3.074  2.5600 -3.9375 -0.9857
  260MOL0     H34262   9.251   4.538   2.921 -2.7158  0.0293  0.0062
  260MOL0     H34263   9.043   4.733   3.028 -0.7509  0.2502 -2.6150
  260MOL0     H34264   9.025   4.624   2.887 -1.7014  1.7001  0.8692
  260MOL0     H34265   8.906   4.560   3.098 -0.0361 -0.8039 -3.4039
  260MOL0     H34266   9.068   4.504   3.159 -0.6145  0.2005  0.7347
  260MOL0     H34267   9.079   4.349   2.977  0.1088 -0.5462  0.6505
  260MOL0     H34268   8.914   4.409   2.931  0.2849  1.6059  0.5289
  260MOL0     H34269   9.007   4.245   3.165 -0.1148 -0.8676  0.3509
  260MOL0     H34270   8.875   4.355   3.191 -0.3859  3.0404 -2.7552
  260MOL0     H34271   8.805   4.107   3.126 -4.0579  1.9633  2.7309
  260MOL0     H34272   8.872   4.144   2.968 -2.9081 -0.8054 -0.2338
  260MOL0     H34273   8.725   4.444   2.942 -1.7191  2.1928 -0.4323
  260MOL0     H34274   8.374   4.386   2.768  0.1001 -1.1499  1.8005
  260MOL0     H34275   8.535   4.413   2.684  0.0640  0.2492  0.2428
  260MOL0     H34276   8.554   4.611   2.818 -0.9453  2.1397  1.6954
  260MOL0     H34277   8.411   4.573   2.923 -1.1717 -0.6981 -1.1960
  260MOL0     H34278   8.376   4.753   2.752  0.6311 -0.3778  0.7899
  260MOL0     H34279   8.419   4.646   2.624 -2.8566 -0.7654 -0.5615
  260MOL0     H34280   8.203   4.571   2.807  0.5565  1.6307 -0.0345
  260MOL0     H34281   8.223   4.502   2.647  1.0177 -0.5442  1.1550
  260MOL0     H34282   8.007   4.471   2.718 -1.1006 -1.0134  1.0262
  260MOL0     H34283   7.774   4.454   2.698  0.0515 -0.2003  1.6142
  260MOL0     H34284   7.322   4.572   2.541  1.2666 -0.5813 -1.5834
  260MOL0     H34285   7.097   4.618   2.411 -2.1334  1.9498 -3.6181
  260MOL0     H34286   7.098   4.955   2.163  0.8273 -2.1859  0.6926
  260MOL0     H34287   7.012   5.023   2.296  1.0887  0.5076  0.2640
  260MOL0     H34288   6.803   4.916   2.226  2.2749 -0.0566  2.6629
  260MOL0     H34289   6.889   4.854   2.075  0.3532 -1.4880  1.5967
  260MOL0     H34290   6.952   5.108   2.047 -0.6685  1.5004  0.9097
  260MOL0     H34291   6.803   5.131   2.152 -2.5303 -1.6796 -0.6158
  260MOL0     H34292   6.804   4.987   1.896  1.1449  0.2569  1.3053
  260MOL0     H34293   6.660   5.008   1.995 -0.3536  0.0398 -1.2254
  260MOL0     H34294   6.820   5.252   1.881 -0.4379  0.5159 -0.9561
  260MOL0     H34295   6.654   5.256   1.945  1.3754  0.9662  0.0617
  260MOL0     H34296   6.597   5.102   1.754  0.2480 -0.0428 -4.1982
  260MOL0     H34297   6.755   5.134   1.686  1.7899 -2.9308  3.0561
  260MOL0     H34298   6.670   5.391   1.759  0.9572 -0.3188 -0.8114
  260MOL0     H34299   6.695   5.324   1.597  1.0684 -1.6452  0.2796
  260MOL0     H34300   6.429   5.318   1.762 -1.2924  1.3903  0.4636
  260MOL0     H34301   6.443   5.243   1.603  0.1467  0.4655 -0.6402
  260MOL0     H34302   7.238   4.987   2.296 -0.5865  0.1446  0.1965
  260MOL0     H34303   7.468   4.934   2.366  0.3893 -0.7426 -0.1539
  260MOL0     H34304   7.755   4.866   2.550 -0.8727 -2.1298 -3.6842
  260MOL0     H34305   8.006   4.874   2.608  2.6352 -0.8226 -0.2832
  260MOL0     H34306   9.684   4.666   2.827  2.1992 -0.2055 -0.5064
  260MOL0     H34307   9.908   4.715   2.747  0.4599  1.8404  2.0786
  260MOL0     H34308  10.177   5.291   2.595 -1.3532  0.1615 -0.5133
  260MOL0     H34309  10.375   5.316   2.466 -0.1991 -0.6871 -0.2690
  260MOL0     H34310  10.743   5.199   2.454  0.6347  0.8666 -0.5867
  260MOL0     H34311  10.611   5.252   2.549 -0.4960  0.7806 -0.8568
  260MOL0     H34312  10.671   5.293   2.250 -0.8316 -1.1165  0.2951
  260MOL0     H34313  10.521   5.357   2.327 -0.8840 -0.6265  0.3768
  260MOL0     H34314  10.759   5.501   2.311 -0.0006  1.5074  0.8904
  260MOL0     H34315  10.779   5.427   2.460  0.2308  1.8723  0.2556
  260MOL0     H34316  10.506   5.508   2.478  0.8663 -2.1899 -0.4479
  260MOL0     H34317  10.641   5.603   2.538  1.3075  0.4500 -0.8856
  260MOL0     H34318  10.556   5.880   2.256  0.0739 -1.2214 -1.9653
  260MOL0     H34319  10.416   4.884   2.447 -1.1599 -0.0862 -1.4646
  260MOL0     H34320  10.215   4.855   2.542  1.2548  0.0785 -0.6505
  261MOL0     O34321   4.595   9.708   9.768  0.0975  0.1063  0.5131
  261MOL0     C34322   4.669   9.605   9.783  0.5836  0.1464  0.5440
  261MOL0     O34323   4.616   9.482   9.815  0.5001  0.3331 -0.3085
  261MOL0     C34324   4.488   9.460   9.849  1.2455  0.3942  0.2737
  261MOL0     C34325   4.399   9.553   9.895 -0.9063 -0.2819 -0.3083
  261MOL0     C34326   4.265   9.518   9.940 -0.3624  0.4501 -0.3108
  261MOL0     C34327   4.227   9.388   9.937  0.7362 -0.0088 -0.1495
  261MOL0     O34328   4.115   9.330   9.982  0.7343 -0.0677  0.1815
  261MOL0     C34329   4.014   9.427  10.027 -0.3221 -0.7031  0.1540
  261MOL0     C34330   3.876   9.349  10.037 -0.6364 -0.1666  0.4454
  261MOL0     C34331   3.822   9.297  10.169  0.4882 -0.0126  0.0962
  261MOL0     C34332   3.679   9.259  10.148 -0.1312  0.2962  0.5538
  261MOL0     C34333   3.619   9.167  10.258  1.1264  0.3034 -0.4175
  261MOL0     C34334   3.478   9.124  10.228 -0.5272 -0.1416  0.3036
  261MOL0     C34335   3.414   9.093  10.371 -0.1951  0.0591 -0.3795
  261MOL0     C34336   3.268   9.048  10.354  0.8256 -0.8148  0.2917
  261MOL0     N34337   3.220   8.990  10.483  0.7143 -0.0453 -0.5800
  261MOL0     C34338   3.192   8.859  10.511 -0.3107  0.6378 -0.5457
  261MOL0     C34339   3.118   8.853  10.626  0.2243  0.3291  1.2964
  261MOL0     C34340   3.056   8.732  10.697  0.0664 -0.5283  0.6672
  261MOL0     C34341   2.916   8.711  10.648 -0.2781 -0.7936 -0.1145
  261MOL0     C34342   2.829   8.791  10.738  0.4386 -2.0029 -0.0055
  261MOL0     C34343   2.680   8.761  10.708 -0.8850  0.3352  0.2704
  261MOL0     O34344   2.608   8.815  10.811  0.2308  0.0039  0.6022
  261MOL0     C34345   2.467   8.804  10.807  0.3014  0.4604 -0.1628
  261MOL0     C34346   2.399   8.826  10.695  0.1563  0.4652 -0.0819
  261MOL0     C34347   2.260   8.820  10.690  0.5060 -0.0269  0.6348
  261MOL0     C34348   2.186   8.779  10.798 -0.0889  0.6604  0.2611
  261MOL0     C34349   2.039   8.780  10.801  1.0388 -0.6913  0.0213
  261MOL0     O34350   1.972   8.852  10.706  0.8347 -0.0696 -0.6821
  261MOL0     C34351   1.836   8.848  10.716 -0.2716 -0.2319  0.0759
  261MOL0     C34352   1.765   8.936  10.800  0.2098  0.4550  0.4564
  261MOL0     C34353   1.628   8.918  10.792  0.7480  0.2247 -0.6785
  261MOL0     C34354   1.559   8.827  10.704  0.4179 -0.0892 -0.1229
  261MOL0     O34355   1.422   8.836  10.692  1.0332  0.8118 -0.1201
  261MOL0     C34356   1.348   8.731  10.622  0.1859 -0.4619  0.0045
  261MOL0     C34357   1.205   8.747  10.664 -0.0683 -0.2627 -1.4750
  261MOL0     C34358   1.104   8.643  10.600  0.1829  0.0651 -0.0631
  261MOL0     C34359   1.144   8.500  10.642 -0.3501 -0.6334  0.1642
  261MOL0     C34360   1.038   8.395  10.627  0.1418 -0.3217  0.2455
  261MOL0     C34361   0.939   8.410  10.740  0.5235  0.6538  0.2110
  261MOL0     C34362   0.823   8.300  10.728  0.1035  0.5761 -0.5271
  261MOL0     C34363   0.742   8.307  10.606  0.9390  1.0060  0.5432
  261MOL0    Cl34364   0.652   8.452  10.619  0.1773  0.3104 -0.2115
  261MOL0     C34365   1.636   8.748  10.615 -0.4009 -0.8116 -0.1269
  261MOL0     C34366   1.774   8.766  10.617 -1.0621 -0.7555  0.3640
  261MOL0     O34367   1.988   8.692  10.875  0.0707  0.1921  0.5192
  261MOL0     C34368   2.256   8.751  10.915 -0.4501  0.6614  0.3559
  261MOL0     C34369   2.397   8.763  10.925 -0.3680  0.6171  0.4471
  261MOL0     N34370   3.108   8.987  10.663 -0.7698  0.2284  0.1049
  261MOL0     N34371   3.159   9.071  10.577 -0.1092 -0.2692 -0.4649
  261MOL0     C34372   4.321   9.293   9.903  0.1479 -0.2607  0.2196
  261MOL0     C34373   4.445   9.329   9.861  0.5638 -0.4712  0.9040
  261MOL0     C34374   4.816   9.615   9.753  0.7319 -0.2698 -0.2191
  261MOL0     C34375   4.878   9.740   9.732 -0.3900  0.1223 -0.3463
  261MOL0     C34376   5.015   9.735   9.702 -0.7040 -0.0503 -0.5163
  261MOL0     C34377   5.089   9.616   9.714  0.6397 -0.3468  0.5954
  261MOL0     O34378   5.227   9.629   9.693 -0.1848  0.0098  0.6136
  261MOL0     C34379   5.316   9.518   9.691  0.0956 -0.5830  0.5407
  261MOL0     C34380   5.360   9.482   9.832 -1.0373  0.3832 -0.1415
  261MOL0     C34381   5.426   9.596   9.911  0.7058  0.8727  0.0662
  261MOL0     C34382   5.565   9.631   9.871 -0.4632  0.3913 -0.4345
  261MOL0     C34383   5.659   9.520   9.913 -0.6762 -0.1478  0.2602
  261MOL0     C34384   5.736   9.432   9.943 -0.1894  0.0839 -0.1607
  261MOL0     C34385   5.026   9.496   9.738  0.3128 -0.7912 -0.3580
  261MOL0     C34386   4.887   9.492   9.763 -0.5585 -0.4526 -0.6204
  261MOL0     H34387   4.426   9.657   9.909  0.9519 -0.7539 -0.0496
  261MOL0     H34388   4.200   9.597   9.977 -0.3736 -0.6474  2.2255
  261MOL0     H34389   4.015   9.512   9.959  1.4554 -2.1174 -1.7313
  261MOL0     H34390   4.039   9.483  10.118  3.1908  0.8315 -1.5738
  261MOL0     H34391   3.890   9.269   9.963  0.0013  0.3991 -0.0632
  261MOL0     H34392   3.796   9.414  10.001  0.1858  0.7007  0.1365
  261MOL0     H34393   3.845   9.364  10.252  1.2428  1.3144 -1.1348
  261MOL0     H34394   3.882   9.207  10.189 -1.6753 -1.3406  1.0122
  261MOL0     H34395   3.617   9.346  10.169 -1.8047 -0.7012 -0.0376
  261MOL0     H34396   3.660   9.220  10.048  0.0570 -1.6084  1.2191
  261MOL0     H34397   3.629   9.213  10.356 -0.2063 -0.8119  0.2869
  261MOL0     H34398   3.677   9.075  10.268 -1.5785 -1.3336  1.7633
  261MOL0     H34399   3.474   9.036  10.163  1.4463 -0.2131  0.2187
  261MOL0     H34400   3.415   9.199  10.179 -0.8685 -1.5181 -1.4765
  261MOL0     H34401   3.476   9.020  10.424  0.6925  0.3191 -1.0433
  261MOL0     H34402   3.417   9.181  10.435  1.5798 -0.2933  0.0640
  261MOL0     H34403   3.250   8.981  10.270  1.1203 -0.3283 -0.1695
  261MOL0     H34404   3.210   9.139  10.336  1.2452 -0.6743 -0.3813
  261MOL0     H34405   3.221   8.771  10.454 -3.9510  0.8911 -3.1535
  261MOL0     H34406   3.078   8.749  10.803 -0.4094  2.4772  0.3633
  261MOL0     H34407   3.120   8.648  10.667  0.0888 -0.6461  1.0300
  261MOL0     H34408   2.889   8.606  10.661 -0.8462 -0.3089  3.5111
  261MOL0     H34409   2.888   8.738  10.546 -3.4306  1.2332  1.1301
  261MOL0     H34410   2.850   8.756  10.839 -0.2173  0.2369  0.9646
  261MOL0     H34411   2.851   8.896  10.714 -1.1837 -1.8888 -1.1649
  261MOL0     H34412   2.666   8.653  10.703  3.2501 -0.3050 -2.0206
  261MOL0     H34413   2.643   8.808  10.617  0.1731  1.7873  0.5487
  261MOL0     H34414   2.444   8.856  10.601  1.0331  0.2304  0.2527
  261MOL0     H34415   2.213   8.840  10.594 -0.6887 -1.3185  0.9189
  261MOL0     H34416   1.810   9.013  10.861 -1.8168  1.1665  1.1589
  261MOL0     H34417   1.550   8.971  10.846  0.1624  1.0730 -2.2816
  261MOL0     H34418   1.390   8.634  10.649  2.0619 -0.3030 -2.0818
  261MOL0     H34419   1.352   8.735  10.513  0.4659  0.0707  0.0288
  261MOL0     H34420   1.184   8.852  10.643  0.3606  0.3014  0.6244
  261MOL0     H34421   1.185   8.742  10.772 -0.1119 -4.3470 -1.5020
  261MOL0     H34422   1.111   8.649  10.491  1.3988  1.0372  0.0476
  261MOL0     H34423   1.001   8.665  10.629  0.1683  0.6674 -0.5439
  261MOL0     H34424   1.234   8.473  10.585  1.1238  0.1338  2.0341
  261MOL0     H34425   1.176   8.495  10.746  0.7145 -1.2033 -0.1705
  261MOL0     H34426   1.079   8.293  10.628 -3.4527 -1.9608 -1.2252
  261MOL0     H34427   0.998   8.407  10.526  0.8253  0.6238  0.0786
  261MOL0     H34428   0.892   8.509  10.749  0.5423  0.8338 -1.3234
  261MOL0     H34429   0.992   8.385  10.832  2.3375 -2.1710 -1.4321
  261MOL0     H34430   0.869   8.200  10.735 -1.6967 -0.1582  1.8704
  261MOL0     H34431   0.756   8.306  10.813  1.3102  0.3253  0.4780
  261MOL0     H34432   0.670   8.224  10.597  1.2346  0.8233 -0.2351
  261MOL0     H34433   0.804   8.300  10.516 -0.7984 -2.3237 -0.5821
  261MOL0     H34434   1.581   8.683  10.547 -0.7736 -2.3071  1.5190
  261MOL0     H34435   1.844   8.717  10.551  1.3659  3.0687 -0.2028
  261MOL0     H34436   2.193   8.743  11.003 -2.6093  1.2915 -1.0404
  261MOL0     H34437   2.450   8.744  11.018  2.2826  0.0640 -1.0711
  261MOL0     H34438   4.281   9.192   9.897  0.5595 -0.4323 -5.4527
  261MOL0     H34439   4.511   9.243   9.853  0.8691 -0.1346 -0.4296
  261MOL0     H34440   4.822   9.833   9.724 -2.0576 -0.7283  0.7211
  261MOL0     H34441   5.083   9.818   9.685 -1.6610  0.5576 -1.4764
  261MOL0     H34442   5.407   9.532   9.632  0.2564  1.3420  1.1657
  261MOL0     H34443   5.275   9.429   9.643  0.2447 -0.9264  1.0471
  261MOL0     H34444   5.271   9.440   9.879 -2.3466  0.7999 -2.1438
  261MOL0     H34445   5.434   9.402   9.828 -0.0657  1.2961 -1.7908
  261MOL0     H34446   5.428   9.566  10.016 -0.3472  2.9045  0.7294
  261MOL0     H34447   5.367   9.686   9.892  0.8935  0.9858  0.0122
  261MOL0     H34448   5.563   9.649   9.763 -1.1061 -0.2224 -0.5314
  261MOL0     H34449   5.604   9.710   9.936  0.7954 -0.6493  0.1299
  261MOL0     H34450   5.802   9.353   9.973  1.0605  0.5229 -1.6947
  261MOL0     H34451   5.085   9.405   9.739 -0.3227 -1.2111 -0.6056
  261MOL0     H34452   4.841   9.399   9.793 -0.3731 -0.4184 -0.2241
  262MOL0     O34453   8.277   0.480   5.472 -0.0620 -1.0756 -0.2893
  262MOL0     C34454   8.224   0.582   5.516  0.7118 -0.2494  0.6787
  262MOL0     O34455   8.096   0.624   5.477 -0.2505  0.2298  0.3474
  262MOL0     C34456   8.015   0.571   5.376 -0.2360  0.3810 -0.0177
  262MOL0     C34457   7.918   0.649   5.318  0.0275  0.0166 -0.2156
  262MOL0     C34458   7.825   0.597   5.229 -0.2474  0.7384  0.3911
  262MOL0     C34459   7.823   0.460   5.196  0.0365  0.0421 -1.0781
  262MOL0     O34460   7.732   0.398   5.113  0.0600  0.1388 -0.0711
  262MOL0     C34461   7.702   0.462   4.996 -0.3160 -0.1788  0.0082
  262MOL0     C34462   7.613   0.366   4.922  0.1992  0.4064 -0.5504
  262MOL0     C34463   7.481   0.332   4.998  0.6477 -0.2594  0.6876
  262MOL0     C34464   7.399   0.252   4.900  0.0785 -0.7191 -0.2668
  262MOL0     C34465   7.262   0.215   4.960  0.7381 -0.5958 -0.6726
  262MOL0     C34466   7.259   0.091   5.060  0.2017  0.0816  0.1333
  262MOL0     C34467   7.105   0.044   5.051  0.2011  0.0406 -1.1787
  262MOL0     C34468   7.051  -0.020   4.929  0.5317 -0.0478  0.8882
  262MOL0     N34469   7.138  -0.125   4.870  0.0269 -0.1318 -0.8749
  262MOL0     C34470   7.240  -0.106   4.784  0.0041 -0.0901  0.3180
  262MOL0     C34471   7.300  -0.220   4.762  0.3151 -0.6776 -0.8692
  262MOL0     C34472   7.422  -0.230   4.678 -0.1819  0.4834 -0.2923
  262MOL0     C34473   7.550  -0.266   4.752  0.1226 -0.0223 -0.0503
  262MOL0     C34474   7.580  -0.173   4.876 -0.5340  1.2431 -0.5801
  262MOL0     C34475   7.724  -0.183   4.929 -0.3796 -0.4751 -0.1187
  262MOL0     O34476   7.770  -0.091   5.026 -1.0077  0.1420  0.0443
  262MOL0     C34477   7.693  -0.049   5.130  0.7919  0.3315 -0.9899
  262MOL0     C34478   7.595  -0.133   5.187  0.3695 -0.2681 -1.1764
  262MOL0     C34479   7.509  -0.080   5.283 -0.0369  0.0784  0.4394
  262MOL0     C34480   7.517   0.058   5.316  0.4195  0.2888 -0.2393
  262MOL0     C34481   7.415   0.121   5.405 -1.1331 -0.4677  0.0601
  262MOL0     O34482   7.309   0.040   5.439  0.0684 -0.0145 -0.3708
  262MOL0     C34483   7.205   0.083   5.519 -1.1704  0.0707  0.7213
  262MOL0     C34484   7.199   0.211   5.584  0.4625 -0.7936 -0.1810
  262MOL0     C34485   7.079   0.246   5.643  0.9551 -0.7631  0.1620
  262MOL0     C34486   6.967   0.154   5.658 -0.7701  0.3323  0.4355
  262MOL0     O34487   6.863   0.198   5.732  0.0166  0.5576 -0.0163
  262MOL0     C34488   6.749   0.117   5.752 -0.1207  0.6820 -0.4252
  262MOL0     C34489   6.658   0.200   5.837 -0.6158  0.5685  0.2595
  262MOL0     C34490   6.520   0.140   5.877  0.5582  0.2084 -0.2705
  262MOL0     C34491   6.421   0.239   5.954 -0.2336 -0.3071  0.4671
  262MOL0     C34492   6.305   0.162   6.024  0.2223  0.2989  0.0813
  262MOL0     C34493   6.201   0.108   5.921  0.3169  0.1890  0.2684
  262MOL0     C34494   6.071   0.096   6.014 -0.2122  0.3856 -0.3108
  262MOL0     C34495   5.953   0.042   5.936 -0.2783 -0.4680  0.9922
  262MOL0    Cl34496   5.958  -0.129   5.928 -0.2051 -0.2303 -0.1648
  262MOL0     C34497   6.980   0.033   5.596 -0.0793  0.8668 -0.9513
  262MOL0     C34498   7.095   0.002   5.528  0.8382  0.1274 -0.1403
  262MOL0     O34499   7.430   0.239   5.440 -0.2877 -0.1391 -0.0278
  262MOL0     C34500   7.618   0.137   5.263 -0.0990 -0.1478  0.2653
  262MOL0     C34501   7.707   0.083   5.175 -0.1099 -0.7352  0.1011
  262MOL0     N34502   7.244  -0.311   4.843 -0.1816 -0.1556  0.4010
  262MOL0     N34503   7.141  -0.258   4.904 -1.0854  0.0686 -0.5931
  262MOL0     C34504   7.923   0.377   5.262  0.9746  0.3160 -0.4272
  262MOL0     C34505   8.019   0.428   5.344  0.1898 -1.2110 -0.2706
  262MOL0     C34506   8.294   0.664   5.615  0.3424 -0.4546  0.0767
  262MOL0     C34507   8.423   0.626   5.661 -0.1792  0.3660 -0.2090
  262MOL0     C34508   8.487   0.695   5.764  0.4354  0.3339  0.1787
  262MOL0     C34509   8.421   0.805   5.815 -0.4278  0.4961 -0.5708
  262MOL0     O34510   8.467   0.869   5.922 -0.2555 -0.0225 -0.2470
  262MOL0     C34511   8.594   0.848   5.985 -0.1344  1.0710  0.2233
  262MOL0     C34512   8.615   0.971   6.079 -0.1910 -0.1840  1.5445
  262MOL0     C34513   8.512   0.957   6.196 -1.2125 -0.0913 -0.6806
  262MOL0     C34514   8.510   1.088   6.284  0.3785  0.4088 -0.4467
  262MOL0     C34515   8.627   1.116   6.354 -0.2762  0.1581 -1.0412
  262MOL0     C34516   8.716   1.137   6.426 -0.1340  0.3596 -0.5461
  262MOL0     C34517   8.307   0.854   5.766  0.5582 -0.3272  0.4049
  262MOL0     C34518   8.238   0.792   5.661 -0.7787  0.6342 -0.2872
  262MOL0     H34519   7.903   0.749   5.358 -0.9505 -0.9465  1.9512
  262MOL0     H34520   7.746   0.654   5.183  0.2232  0.2435 -1.0734
  262MOL0     H34521   7.794   0.468   4.937 -0.1255 -0.4170  0.2748
  262MOL0     H34522   7.663   0.564   5.007  2.4331  0.8490  1.0532
  262MOL0     H34523   7.669   0.272   4.912  0.8201  0.3930  2.2088
  262MOL0     H34524   7.604   0.420   4.827  0.0102  1.6017  0.1261
  262MOL0     H34525   7.425   0.422   5.028 -2.3715 -1.3367 -1.1854
  262MOL0     H34526   7.509   0.281   5.090  1.3410 -0.6142  0.2865
  262MOL0     H34527   7.396   0.322   4.815 -0.4930  1.9455  1.7933
  262MOL0     H34528   7.453   0.159   4.881  0.4188 -0.4760 -0.5077
  262MOL0     H34529   7.204   0.200   4.868  1.1740  2.9186 -1.6953
  262MOL0     H34530   7.211   0.299   5.009  1.4556 -0.4551 -0.1600
  262MOL0     H34531   7.306   0.113   5.156 -0.9942 -0.4868  0.8621
  262MOL0     H34532   7.322   0.010   5.023 -1.7363 -0.9082 -1.1050
  262MOL0     H34533   7.088  -0.035   5.126  1.3060  1.6916  0.9240
  262MOL0     H34534   7.046   0.130   5.084 -0.0703 -0.1276 -1.2159
  262MOL0     H34535   7.020   0.060   4.861 -2.3425 -1.2277  0.6559
  262MOL0     H34536   6.953  -0.060   4.955  1.0588 -1.1440  1.2545
  262MOL0     H34537   7.264  -0.009   4.742  2.7397 -0.7334  0.2320
  262MOL0     H34538   7.429  -0.133   4.628 -1.1330  1.1515  0.8206
  262MOL0     H34539   7.420  -0.315   4.608  1.1591 -1.7995  2.2321
  262MOL0     H34540   7.632  -0.244   4.683  1.4045  1.4217  1.8442
  262MOL0     H34541   7.559  -0.372   4.776  2.8329  0.0300 -0.4700
  262MOL0     H34542   7.557  -0.070   4.849  0.7991  1.5021 -0.7962
  262MOL0     H34543   7.511  -0.205   4.955 -1.0602  1.2218 -1.0426
  262MOL0     H34544   7.790  -0.178   4.842 -0.2734 -0.4699 -0.0382
  262MOL0     H34545   7.734  -0.278   4.983  2.7777  0.3554  0.9702
  262MOL0     H34546   7.587  -0.239   5.166 -0.0905 -0.5334  0.2179
  262MOL0     H34547   7.438  -0.148   5.330 -0.2289 -1.4984 -1.9952
  262MOL0     H34548   7.267   0.296   5.577  0.4377 -0.8420 -1.1516
  262MOL0     H34549   7.061   0.339   5.695 -1.1695 -1.9181  1.6858
  262MOL0     H34550   6.762   0.030   5.817 -2.8510  1.6699  1.6727
  262MOL0     H34551   6.691   0.082   5.665 -2.0211  1.4825  0.4494
  262MOL0     H34552   6.633   0.297   5.793 -2.8576  0.1976  0.5935
  262MOL0     H34553   6.719   0.213   5.927  0.7823 -0.3531 -0.5179
  262MOL0     H34554   6.536   0.044   5.925  0.1519 -0.0043 -0.5503
  262MOL0     H34555   6.463   0.113   5.787 -0.5599  1.8039 -0.0868
  262MOL0     H34556   6.469   0.295   6.036 -2.2886  2.7727 -0.2772
  262MOL0     H34557   6.388   0.310   5.879  0.5773  0.4767  0.8372
  262MOL0     H34558   6.254   0.231   6.092 -1.3520 -2.6943  2.1923
  262MOL0     H34559   6.340   0.086   6.094  0.8059 -0.1842 -0.7189
  262MOL0     H34560   6.225   0.008   5.883 -3.3256 -2.0832  3.2493
  262MOL0     H34561   6.187   0.184   5.843 -1.2499 -1.1470 -0.8180
  262MOL0     H34562   6.094   0.030   6.098  0.6704  0.6621 -0.3296
  262MOL0     H34563   6.032   0.194   6.044 -3.8792 -0.4632 -1.7399
  262MOL0     H34564   5.957   0.082   5.834  3.9630 -0.9833  0.7975
  262MOL0     H34565   5.861   0.077   5.985 -1.0822  0.2573 -0.9147
  262MOL0     H34566   6.900  -0.040   5.599  2.1677 -1.7694  1.4889
  262MOL0     H34567   7.087  -0.084   5.462 -0.8189  0.7881 -0.8756
  262MOL0     H34568   7.638   0.243   5.277  1.2336  0.0156 -2.3279
  262MOL0     H34569   7.783   0.141   5.123 -0.5474  2.1295  2.3999
  262MOL0     H34570   7.921   0.272   5.235 -1.6101  0.5000 -1.2208
  262MOL0     H34571   8.094   0.365   5.391  1.7315  1.7663  1.6484
  262MOL0     H34572   8.465   0.534   5.623  0.9016  1.9849 -3.2355
  262MOL0     H34573   8.582   0.673   5.812  3.4502  2.0154 -4.3397
  262MOL0     H34574   8.676   0.839   5.914  0.2047  1.9235  0.4866
  262MOL0     H34575   8.597   0.755   6.043  1.0377 -0.5514 -2.2869
  262MOL0     H34576   8.717   0.971   6.119  0.3492  1.4505  0.2620
  262MOL0     H34577   8.599   1.067   6.029 -1.3585 -1.3540 -0.4313
  262MOL0     H34578   8.531   0.869   6.258  2.3597  0.1843 -1.1596
  262MOL0     H34579   8.414   0.935   6.152 -1.9656 -1.5957  1.5774
  262MOL0     H34580   8.486   1.176   6.224 -1.9200  0.8276  0.9361
  262MOL0     H34581   8.429   1.070   6.356 -0.4907  1.1066 -1.2343
  262MOL0     H34582   8.787   1.163   6.502 -2.3348 -2.0453  2.5718
  262MOL0     H34583   8.261   0.941   5.812 -0.4652 -1.6548  2.0236
  262MOL0     H34584   8.139   0.822   5.627 -1.7519  0.4432  2.1826
  263MOL0     O34585  10.372   6.292  10.756  0.1794 -0.4966  0.1463
  263MOL0     C34586  10.453   6.368  10.811  0.2675  0.4427 -0.3928
  263MOL0     O34587  10.434   6.427  10.932 -0.0510  0.6154  0.7034
  263MOL0     C34588  10.344   6.385  11.022 -0.9236 -0.1305  0.3093
  263MOL0     C34589  10.219   6.325  10.999  0.0851 -1.0234 -0.1719
  263MOL0     C34590  10.135   6.293  11.104 -0.1235  0.4814 -0.2782
  263MOL0     C34591  10.168   6.323  11.243  0.0994  0.7454  0.2672
  263MOL0     O34592  10.078   6.302  11.336 -0.2626  0.0452 -0.3013
  263MOL0     C34593  10.082   6.383  11.461 -0.0023  0.4649 -0.3016
  263MOL0     C34594   9.949   6.362  11.527 -0.5819  0.2543  0.3569
  263MOL0     C34595   9.837   6.406  11.442  0.2740 -0.5821  0.4923
  263MOL0     C34596   9.724   6.442  11.543 -0.4917  0.1084 -0.5629
  263MOL0     C34597   9.589   6.472  11.481 -0.3669 -0.3934 -0.3757
  263MOL0     C34598   9.460   6.436  11.562 -0.5183  0.1398 -0.1524
  263MOL0     C34599   9.450   6.510  11.696 -0.5132  0.0889 -0.1526
  263MOL0     C34600   9.342   6.448  11.787 -0.0406  0.6834 -0.5206
  263MOL0     N34601   9.203   6.473  11.751 -0.4328  0.3683 -0.5112
  263MOL0     C34602   9.104   6.522  11.829  0.4246  0.1744 -0.1846
  263MOL0     C34603   9.001   6.539  11.744 -0.5573  0.2875  0.3227
  263MOL0     C34604   8.877   6.616  11.777  0.3714 -0.0405 -0.0279
  263MOL0     C34605   8.837   6.593  11.921 -0.1312  1.3745  0.0241
  263MOL0     C34606   8.823   6.443  11.968  0.7977  0.5632 -0.2513
  263MOL0     C34607   8.715   6.364  11.898  1.0402 -0.8979  0.2296
  263MOL0     O34608   8.585   6.427  11.927 -0.1863 -0.1565 -0.0369
  263MOL0     C34609   8.471   6.354  11.910 -0.5407 -0.0807 -0.1482
  263MOL0     C34610   8.468   6.229  11.844 -0.7266 -0.1916  0.7446
  263MOL0     C34611   8.342   6.169  11.814 -0.0237 -0.3200 -0.3299
  263MOL0     C34612   8.220   6.236  11.840 -0.3379  0.2881  0.2267
  263MOL0     C34613   8.095   6.178  11.791  0.0449 -0.0013  0.5378
  263MOL0     O34614   8.000   6.281  11.756 -0.7470 -0.5597  0.1901
  263MOL0     C34615   7.872   6.246  11.737  0.0849 -0.0033  0.0860
  263MOL0     C34616   7.806   6.297  11.626 -0.4819 -0.3754  0.3676
  263MOL0     C34617   7.667   6.285  11.615 -0.5055 -0.4213  0.2703
  263MOL0     C34618   7.596   6.218  11.710  0.5056  0.6484 -0.0327
  263MOL0     O34619   7.463   6.213  11.684  0.1973  0.0431  0.3247
  263MOL0     C34620   7.418   6.084  11.634  0.0086  0.9837  0.0102
  263MOL0     C34621   7.265   6.094  11.624  0.2726 -0.1233 -0.3006
  263MOL0     C34622   7.221   6.175  11.507 -0.5380  0.2603 -0.1367
  263MOL0     C34623   7.068   6.206  11.508 -0.4442  0.2977  0.6427
  263MOL0     C34624   7.031   6.276  11.379 -0.0617  0.5239 -0.4862
  263MOL0     C34625   6.885   6.268  11.366 -0.1808  0.3152  0.4823
  263MOL0     C34626   6.843   6.339  11.238 -0.0596  0.5311 -0.0730
  263MOL0     C34627   6.696   6.318  11.204  0.3302  0.0010  0.3295
  263MOL0    Cl34628   6.645   6.471  11.118 -0.4969 -0.3397 -0.2896
  263MOL0     C34629   7.656   6.172  11.823 -0.0405 -0.8387  0.3201
  263MOL0     C34630   7.799   6.186  11.837 -0.3487  0.3183  0.5136
  263MOL0     O34631   8.076   6.061  11.780 -0.3432 -0.0046  0.0702
  263MOL0     C34632   8.230   6.364  11.901  0.2941  0.6782 -0.8604
  263MOL0     C34633   8.352   6.423  11.934  0.4471  0.5334  0.4541
  263MOL0     N34634   9.030   6.475  11.624 -0.6554 -0.1935 -0.5129
  263MOL0     N34635   9.153   6.437  11.627 -0.7856  0.7499  0.9291
  263MOL0     C34636  10.294   6.380  11.263 -0.1017 -0.4729  0.5825
  263MOL0     C34637  10.375   6.409  11.156  0.1331 -0.5025 -0.0520
  263MOL0     C34638  10.581   6.396  10.740  0.2433 -0.7040 -0.0804
  263MOL0     C34639  10.681   6.468  10.811  0.1091 -0.4978 -0.0147
  263MOL0     C34640  10.804   6.486  10.762 -0.6396 -0.4372 -0.2657
  263MOL0     C34641  10.828   6.447  10.629 -0.2293 -0.1804 -0.2474
  263MOL0     O34642  10.951   6.473  10.567  0.4784 -0.1748  0.5116
  263MOL0     C34643  10.941   6.587  10.483  0.3410 -0.4515  0.6402
  263MOL0     C34644  10.991   6.716  10.548  0.7232 -0.6208 -0.3185
  263MOL0     C34645  11.140   6.728  10.580  0.7957 -0.3933  0.5050
  263MOL0     C34646  11.175   6.675  10.714  0.1589 -0.5922 -1.0538
  263MOL0     C34647  11.163   6.774  10.824  0.3162  0.5677  0.8062
  263MOL0     C34648  11.143   6.855  10.908  1.0837  0.6721 -1.0912
  263MOL0     C34649  10.729   6.393  10.545  0.2837  0.4870 -0.5892
  263MOL0     C34650  10.612   6.364  10.613  0.5420  0.4209  0.1083
  263MOL0     H34651  10.179   6.313  10.899  2.5993 -3.2789 -1.0481
  263MOL0     H34652  10.041   6.250  11.072  0.5395 -0.9850 -0.3473
  263MOL0     H34653  10.088   6.490  11.439  0.0705  0.6364  0.5331
  263MOL0     H34654  10.166   6.363  11.528  0.6173  3.6137  0.0409
  263MOL0     H34655   9.958   6.423  11.618  3.0422  0.2703  0.1612
  263MOL0     H34656   9.933   6.262  11.568 -3.1182  0.1219 -0.7948
  263MOL0     H34657   9.800   6.324  11.381  0.2787  0.5614 -1.0930
  263MOL0     H34658   9.861   6.486  11.371  2.0212 -0.5913  1.0144
  263MOL0     H34659   9.715   6.354  11.607  0.1145  1.5011  1.5490
  263MOL0     H34660   9.757   6.523  11.609 -0.6707  0.2061 -0.5928
  263MOL0     H34661   9.581   6.409  11.392  2.2469  0.6578 -1.4498
  263MOL0     H34662   9.588   6.570  11.433  3.1723 -0.6550 -1.2050
  263MOL0     H34663   9.450   6.330  11.590 -0.8159  0.4540  0.9613
  263MOL0     H34664   9.378   6.460  11.495 -1.3060 -1.5173  0.1709
  263MOL0     H34665   9.551   6.508  11.737 -0.5734  0.1886  0.0029
  263MOL0     H34666   9.423   6.615  11.684 -2.2085  0.2314  3.5378
  263MOL0     H34667   9.356   6.496  11.884  0.8543 -0.0566 -0.2596
  263MOL0     H34668   9.360   6.340  11.788  1.5116  0.8774  1.9220
  263MOL0     H34669   9.103   6.562  11.930 -0.9190 -0.5368  0.1199
  263MOL0     H34670   8.796   6.577  11.715  0.3578 -2.0428  1.1502
  263MOL0     H34671   8.890   6.723  11.757 -2.6449 -0.1746 -3.8378
  263MOL0     H34672   8.738   6.639  11.925 -0.1367  1.3820 -0.2368
  263MOL0     H34673   8.895   6.649  11.995 -1.1902  0.0078  1.9949
  263MOL0     H34674   8.916   6.386  11.954  0.4060 -0.3414  0.6857
  263MOL0     H34675   8.801   6.448  12.075  1.5239  2.0035 -0.1423
  263MOL0     H34676   8.720   6.258  11.924 -1.9196 -0.6840  2.2227
  263MOL0     H34677   8.730   6.365  11.790  0.5805 -3.1202  0.0893
  263MOL0     H34678   8.555   6.169  11.819 -1.0076 -0.2204 -0.2073
  263MOL0     H34679   8.329   6.068  11.776  0.1874  0.0892 -1.5499
  263MOL0     H34680   7.859   6.364  11.559  2.8479 -1.8768  1.2886
  263MOL0     H34681   7.603   6.347  11.554 -3.2151 -2.9325  0.2935
  263MOL0     H34682   7.451   5.994  11.688 -0.0458 -1.7908 -4.1032
  263MOL0     H34683   7.455   6.073  11.532  1.7160  0.5298  0.6389
  263MOL0     H34684   7.218   6.129  11.717 -0.3197  0.1761 -0.7121
  263MOL0     H34685   7.228   5.996  11.596  2.0465 -0.1648 -2.8377
  263MOL0     H34686   7.244   6.109  11.423 -1.3479 -1.4553  0.9338
  263MOL0     H34687   7.277   6.269  11.500  0.2486 -0.2071 -0.2451
  263MOL0     H34688   7.012   6.112  11.513  0.1011 -0.0409  0.5219
  263MOL0     H34689   7.038   6.275  11.586  0.1125  1.5178 -0.1906
  263MOL0     H34690   7.075   6.226  11.293 -2.1221  0.1191 -1.3863
  263MOL0     H34691   7.063   6.380  11.377 -1.3371  1.0002  1.1833
  263MOL0     H34692   6.830   6.318  11.446  0.8381  2.5115 -0.1015
  263MOL0     H34693   6.865   6.160  11.363  1.4471 -0.0499  1.4071
  263MOL0     H34694   6.863   6.445  11.255  0.9632  0.0919  1.7356
  263MOL0     H34695   6.897   6.300  11.152 -0.8581  1.8638 -1.2121
  263MOL0     H34696   6.653   6.302  11.303  1.4363  1.0724  1.0051
  263MOL0     H34697   6.672   6.242  11.129 -2.1545  1.4589 -0.4732
  263MOL0     H34698   7.607   6.131  11.911  1.5665 -3.1790  0.2054
  263MOL0     H34699   7.841   6.148  11.929 -0.7492 -0.2557  0.4640
  263MOL0     H34700   8.135   6.416  11.909  0.0067  1.1715 -5.3079
  263MOL0     H34701   8.363   6.519  11.983  0.3926  0.2907  0.9548
  263MOL0     H34702  10.339   6.400  11.360  2.8297  0.1374 -0.8178
  263MOL0     H34703  10.471   6.456  11.175  0.7440 -1.9987  0.6976
  263MOL0     H34704  10.674   6.486  10.917  0.1253  1.6492 -0.3315
  263MOL0     H34705  10.881   6.521  10.830 -0.3042 -2.0353  0.2082
  263MOL0     H34706  10.836   6.596  10.455  0.6283 -1.1461 -0.7384
  263MOL0     H34707  10.994   6.573  10.388 -0.1331  0.7309  0.1809
  263MOL0     H34708  10.967   6.789  10.470 -0.5850 -1.0724 -0.3632
  263MOL0     H34709  10.929   6.748  10.632  0.4880 -1.8254 -0.0189
  263MOL0     H34710  11.162   6.834  10.573 -0.6124  0.0110  1.6451
  263MOL0     H34711  11.186   6.664  10.504  0.1287  1.1768 -1.3007
  263MOL0     H34712  11.121   6.582  10.732 -1.1773  0.5975  1.6093
  263MOL0     H34713  11.284   6.667  10.703  0.5918  2.5974 -0.1544
  263MOL0     H34714  11.119   6.914  10.993  0.9712 -1.6648  0.5964
  263MOL0     H34715  10.757   6.371  10.443  0.6702  1.1703 -0.6382
  263MOL0     H34716  10.534   6.315  10.555 -0.7191  1.8358  0.5225
  264MOL0     O34717   1.534  11.093   7.344  0.4104  0.7203 -0.2720
  264MOL0     C34718   1.530  11.014   7.443  0.4066 -0.0487 -0.2852
  264MOL0     O34719   1.439  11.010   7.547  0.6278 -0.0826 -0.5993
  264MOL0     C34720   1.336  11.095   7.544  0.5667 -0.9331 -0.0853
  264MOL0     C34721   1.343  11.237   7.536  0.1483 -0.2610 -0.1788
  264MOL0     C34722   1.229  11.320   7.524 -0.1840 -0.6280 -0.5884
  264MOL0     C34723   1.102  11.259   7.544 -0.3397 -0.6708 -0.5026
  264MOL0     O34724   0.981  11.325   7.534 -0.3462 -0.5931 -0.6762
  264MOL0     C34725   0.965  11.468   7.557 -0.1475  0.4976  0.0424
  264MOL0     C34726   0.838  11.508   7.640  0.3344 -0.7461  0.5332
  264MOL0     C34727   0.712  11.441   7.590  0.0764  0.5616 -0.4476
  264MOL0     C34728   0.599  11.481   7.684 -0.3033 -0.2956 -0.5364
  264MOL0     C34729   0.471  11.420   7.643  1.0912  0.0701  0.7158
  264MOL0     C34730   0.412  11.481   7.519 -0.3755  0.6547  0.5810
  264MOL0     C34731   0.284  11.407   7.494 -0.4918  0.5076 -1.3818
  264MOL0     C34732   0.226  11.457   7.365  0.8192 -1.1202 -0.2614
  264MOL0     N34733   0.087  11.416   7.343 -0.6447 -0.0358  0.0562
  264MOL0     C34734  -0.002  11.481   7.269 -0.2584 -1.0438  1.0762
  264MOL0     C34735  -0.109  11.400   7.265 -0.9769  0.3677  1.6059
  264MOL0     C34736  -0.223  11.422   7.158 -0.2436 -0.0595 -0.0602
  264MOL0     C34737  -0.358  11.371   7.209 -0.2805 -0.4648  0.6170
  264MOL0     C34738  -0.466  11.410   7.109  0.3853 -0.8220 -0.3008
  264MOL0     C34739  -0.609  11.389   7.161 -0.0483  0.0718 -0.4302
  264MOL0     O34740  -0.703  11.470   7.093 -0.1509  0.4329  0.2811
  264MOL0     C34741  -0.841  11.456   7.110 -0.1429 -0.4057  0.4601
  264MOL0     C34742  -0.916  11.542   7.023 -0.0656 -0.0502  0.0282
  264MOL0     C34743  -1.053  11.552   7.032  0.0455  0.7395  0.4513
  264MOL0     C34744  -1.122  11.473   7.129  0.1445  0.3169 -0.2525
  264MOL0     C34745  -1.274  11.485   7.151 -0.6144  0.0715 -0.4131
  264MOL0     O34746  -1.324  11.381   7.222  0.1993 -0.2573 -0.5812
  264MOL0     C34747  -1.463  11.365   7.236 -0.3843  0.0409  0.8500
  264MOL0     C34748  -1.512  11.234   7.216  0.4665 -0.0523 -0.2485
  264MOL0     C34749  -1.646  11.205   7.213 -0.3418  0.7419  0.7521
  264MOL0     C34750  -1.741  11.307   7.228  0.1832  0.3847  0.4675
  264MOL0     O34751  -1.880  11.295   7.231  0.5151 -0.1894 -0.3837
  264MOL0     C34752  -1.932  11.274   7.095 -0.4050  0.0475  0.0136
  264MOL0     C34753  -2.079  11.244   7.097  0.2038 -0.0533 -0.5392
  264MOL0     C34754  -2.173  11.348   7.158  0.4498 -0.4267  0.4981
  264MOL0     C34755  -2.316  11.286   7.178  0.3598 -0.8135  0.0338
  264MOL0     C34756  -2.415  11.397   7.196  0.1047  0.4057 -0.0290
  264MOL0     C34757  -2.552  11.345   7.244 -0.1250 -0.3794 -1.0443
  264MOL0     C34758  -2.623  11.255   7.142  0.2826 -0.9178 -0.4316
  264MOL0     C34759  -2.758  11.222   7.194  0.0324 -0.7543  0.0426
  264MOL0    Cl34760  -2.844  11.089   7.115 -0.4409 -0.1746  0.3597
  264MOL0     C34761  -1.693  11.443   7.242  0.1323  0.2201  0.7099
  264MOL0     C34762  -1.554  11.461   7.251  0.0581 -0.5960  0.0454
  264MOL0     O34763  -1.327  11.586   7.109 -0.2870 -1.0014 -0.0792
  264MOL0     C34764  -1.044  11.396   7.211 -0.4588 -0.0002 -1.2623
  264MOL0     C34765  -0.906  11.379   7.202 -0.0455 -0.5179 -0.1276
  264MOL0     N34766  -0.086  11.283   7.342  0.7346  0.7366 -0.0983
  264MOL0     N34767   0.043  11.294   7.375  0.1169 -0.7577 -0.2033
  264MOL0     C34768   1.095  11.118   7.563  0.0754  0.2799  0.1790
  264MOL0     C34769   1.208  11.038   7.559  0.3128  0.4527 -0.2867
  264MOL0     C34770   1.648  10.916   7.450 -0.8670 -0.2295 -0.4678
  264MOL0     C34771   1.661  10.833   7.566  0.0226 -0.3920  0.4495
  264MOL0     C34772   1.774  10.754   7.573  0.0763  0.6113 -0.6898
  264MOL0     C34773   1.885  10.767   7.488  0.0332  0.2002  0.8167
  264MOL0     O34774   2.000  10.698   7.496 -0.5015 -0.5791  0.2370
  264MOL0     C34775   2.020  10.589   7.585 -0.1715  0.3302 -0.5087
  264MOL0     C34776   2.171  10.539   7.588 -0.3117  0.3918 -0.1851
  264MOL0     C34777   2.242  10.493   7.462  0.2670 -0.2984  0.5249
  264MOL0     C34778   2.164  10.379   7.389 -0.8268 -0.4722  0.1727
  264MOL0     C34779   2.035  10.415   7.336 -0.4781 -0.1594 -0.3348
  264MOL0     C34780   1.928  10.437   7.285 -0.3561  0.0987  0.3621
  264MOL0     C34781   1.870  10.849   7.378 -0.2441 -0.3012 -0.9185
  264MOL0     C34782   1.751  10.919   7.356 -0.0432 -0.1435  0.6301
  264MOL0     H34783   1.444  11.275   7.528  0.5635 -0.4314  3.0764
  264MOL0     H34784   1.241  11.426   7.503  0.1866 -0.5760 -0.1394
  264MOL0     H34785   0.967  11.517   7.459 -0.3350  0.3619 -0.0296
  264MOL0     H34786   1.056  11.507   7.605  1.0485 -2.3439  0.3275
  264MOL0     H34787   0.815  11.615   7.629 -0.7136 -1.0188 -0.1103
  264MOL0     H34788   0.851  11.476   7.743 -1.0214 -3.0973  0.0294
  264MOL0     H34789   0.724  11.333   7.577 -0.3513  0.6808 -1.9861
  264MOL0     H34790   0.697  11.488   7.492  1.0672 -0.6423 -1.2216
  264MOL0     H34791   0.630  11.452   7.785  1.1625 -1.9625 -1.4084
  264MOL0     H34792   0.586  11.589   7.676 -1.9485 -0.5540 -1.9056
  264MOL0     H34793   0.402  11.426   7.728 -2.0092  0.8372 -1.6783
  264MOL0     H34794   0.496  11.315   7.625 -0.6109 -0.1094 -0.7861
  264MOL0     H34795   0.479  11.469   7.433 -0.8142  1.2291  0.1523
  264MOL0     H34796   0.392  11.588   7.528 -1.0305  0.5027  1.0205
  264MOL0     H34797   0.297  11.298   7.497 -1.4340  0.3985 -0.3402
  264MOL0     H34798   0.219  11.427   7.580  1.0206  3.4745 -0.7995
  264MOL0     H34799   0.294  11.438   7.282  1.7335  1.1231 -0.1071
  264MOL0     H34800   0.219  11.566   7.374  2.0485 -0.9471 -1.1850
  264MOL0     H34801   0.014  11.573   7.213  0.2455 -0.1082  2.6761
  264MOL0     H34802  -0.205  11.365   7.067 -0.0425  1.6507 -1.1350
  264MOL0     H34803  -0.228  11.527   7.126  0.6956 -0.3234 -1.1483
  264MOL0     H34804  -0.385  11.397   7.312 -2.3199 -0.7946  0.2051
  264MOL0     H34805  -0.360  11.263   7.224  2.0517 -0.4233  1.5728
  264MOL0     H34806  -0.450  11.512   7.074 -0.2382 -2.1799 -5.2460
  264MOL0     H34807  -0.451  11.353   7.017 -1.1967 -2.0823  0.1647
  264MOL0     H34808  -0.621  11.397   7.269  1.5443  1.6279 -0.3264
  264MOL0     H34809  -0.635  11.283   7.152  0.4884 -0.0035 -1.1252
  264MOL0     H34810  -0.860  11.595   6.946  1.7957  1.5565  2.3335
  264MOL0     H34811  -1.107  11.620   6.967  4.0454  1.8042 -2.1340
  264MOL0     H34812  -1.448  11.147   7.206 -0.1705 -0.3827 -1.8330
  264MOL0     H34813  -1.677  11.102   7.209  2.0736 -0.0557  0.7557
  264MOL0     H34814  -1.876  11.194   7.046 -2.8246 -2.4122  1.0357
  264MOL0     H34815  -1.917  11.367   7.039  0.5597  0.3052  0.6664
  264MOL0     H34816  -2.092  11.156   7.160 -0.7557 -1.9289 -3.1404
  264MOL0     H34817  -2.103  11.219   6.993  1.2140 -0.1385 -0.7629
  264MOL0     H34818  -2.171  11.442   7.102  0.8587 -0.3496  0.6376
  264MOL0     H34819  -2.149  11.371   7.262 -0.2083  0.0575  0.5471
  264MOL0     H34820  -2.340  11.223   7.093 -1.7534  0.4404 -0.3881
  264MOL0     H34821  -2.323  11.223   7.267 -0.3188 -3.9830 -2.1086
  264MOL0     H34822  -2.427  11.449   7.101 -0.6567 -0.1658 -0.2569
  264MOL0     H34823  -2.386  11.466   7.276 -3.4017  0.0511  1.7698
  264MOL0     H34824  -2.612  11.432   7.273  0.5977 -0.3828  0.5538
  264MOL0     H34825  -2.525  11.292   7.336  2.2438  2.8565  0.3260
  264MOL0     H34826  -2.627  11.301   7.043 -1.9664  1.0108  0.4658
  264MOL0     H34827  -2.576  11.157   7.130  0.0350 -0.7623 -3.5500
  264MOL0     H34828  -2.821  11.311   7.182 -0.1273 -0.8214  0.3898
  264MOL0     H34829  -2.751  11.208   7.302  0.4205  0.3738  0.1731
  264MOL0     H34830  -1.759  11.530   7.243  0.6421  0.6333  2.5850
  264MOL0     H34831  -1.516  11.562   7.250  3.1196 -1.6266 -0.3283
  264MOL0     H34832  -1.088  11.348   7.299  3.5232  0.9395  1.5243
  264MOL0     H34833  -0.857  11.323   7.281 -0.1074  0.9238  0.9664
  264MOL0     H34834   0.995  11.081   7.587 -1.6836  2.9368 -2.2931
  264MOL0     H34835   1.198  10.930   7.556  1.6964  0.3121 -2.8856
  264MOL0     H34836   1.575  10.824   7.631 -0.4065  2.4399  0.4022
  264MOL0     H34837   1.781  10.680   7.652  0.7079  1.3445 -0.0257
  264MOL0     H34838   1.953  10.508   7.554  0.3696  0.3349 -1.7144
  264MOL0     H34839   1.993  10.615   7.688 -2.0000 -0.0004 -0.8661
  264MOL0     H34840   2.234  10.610   7.642  1.6409 -2.9179  2.2647
  264MOL0     H34841   2.179  10.448   7.650 -2.8122  0.8210  0.9137
  264MOL0     H34842   2.347  10.467   7.475  0.2512 -1.6031 -1.5902
  264MOL0     H34843   2.239  10.577   7.392  0.2217 -2.2463 -1.9395
  264MOL0     H34844   2.236  10.353   7.311  1.3042  2.1795  1.0969
  264MOL0     H34845   2.150  10.304   7.468 -3.1296 -1.4191 -1.0356
  264MOL0     H34846   1.848  10.465   7.220 -0.1068 -0.6350 -0.2908
  264MOL0     H34847   1.959  10.857   7.317  2.5808  2.9685  3.0889
  264MOL0     H34848   1.742  10.982   7.269  0.6349 -0.2833  0.4566
  265MOL0     O34849   0.745   5.438   0.686 -0.9399 -0.0715 -0.2106
  265MOL0     C34850   0.802   5.449   0.575  0.0744 -0.5829  1.4123
  265MOL0     O34851   0.741   5.464   0.450  0.0721 -0.4096 -0.2926
  265MOL0     C34852   0.608   5.487   0.431  0.3911 -0.0486 -0.4770
  265MOL0     C34853   0.526   5.570   0.509  0.1201 -0.5756 -0.0253
  265MOL0     C34854   0.392   5.579   0.477 -0.5962  0.1629  0.0463
  265MOL0     C34855   0.334   5.495   0.378  0.8467  0.0546 -0.2471
  265MOL0     O34856   0.195   5.510   0.362 -0.3278 -0.7236 -0.4369
  265MOL0     C34857   0.134   5.459   0.244  0.0010 -0.3443  0.4516
  265MOL0     C34858  -0.000   5.511   0.216  0.3147 -0.5449 -0.7507
  265MOL0     C34859  -0.066   5.467   0.083 -0.5714  0.6881 -0.2975
  265MOL0     C34860  -0.177   5.563   0.038 -0.4926  1.2145 -0.0646
  265MOL0     C34861  -0.282   5.489  -0.062 -0.0493 -0.3349 -0.8103
  265MOL0     C34862  -0.389   5.586  -0.106  0.3823 -0.5552 -0.8167
  265MOL0     C34863  -0.482   5.616   0.016  0.2918 -0.8517  0.2142
  265MOL0     C34864  -0.598   5.705  -0.012 -0.3739  0.5742  1.2867
  265MOL0     N34865  -0.692   5.638  -0.106 -0.0018  0.0387  0.4970
  265MOL0     C34866  -0.775   5.527  -0.078 -0.3568  0.1121  0.9232
  265MOL0     C34867  -0.850   5.513  -0.188  0.3174  0.6990 -0.4865
  265MOL0     C34868  -0.972   5.417  -0.183 -0.1644  0.4908 -0.1010
  265MOL0     C34869  -1.074   5.461  -0.068  0.1778  0.9497 -0.4340
  265MOL0     C34870  -1.157   5.585  -0.119 -0.5124 -0.4753  0.7087
  265MOL0     C34871  -1.268   5.610  -0.021  0.2792 -0.3888  0.0199
  265MOL0     O34872  -1.379   5.524  -0.048  0.0476  0.6206 -0.1656
  265MOL0     C34873  -1.503   5.548   0.007 -0.0373 -0.6263 -0.2656
  265MOL0     C34874  -1.602   5.459  -0.022 -0.3460  0.3819  0.4833
  265MOL0     C34875  -1.736   5.482   0.012 -1.0424  0.8537 -0.0404
  265MOL0     C34876  -1.774   5.592   0.082  0.9553  0.3494  1.0975
  265MOL0     C34877  -1.916   5.602   0.118  0.1031 -0.9308  0.7463
  265MOL0     O34878  -2.004   5.501   0.084  0.4011  0.1123 -0.6995
  265MOL0     C34879  -2.141   5.519   0.094 -0.3255  0.7884  0.2766
  265MOL0     C34880  -2.212   5.409   0.060  0.1252 -0.3088 -0.3039
  265MOL0     C34881  -2.347   5.403   0.060 -0.5578  0.7348  0.3371
  265MOL0     C34882  -2.424   5.504   0.099  0.2094 -0.7861 -0.1039
  265MOL0     O34883  -2.558   5.486   0.103 -0.2392 -0.3119  0.0790
  265MOL0     C34884  -2.632   5.560   0.203 -0.0224  0.3796 -0.5170
  265MOL0     C34885  -2.774   5.571   0.160  0.9921 -0.4101 -0.2130
  265MOL0     C34886  -2.853   5.666   0.248 -0.0806 -0.6171 -0.9220
  265MOL0     C34887  -2.888   5.593   0.375 -0.5596 -0.2577 -0.0626
  265MOL0     C34888  -2.908   5.700   0.482  0.2650  0.3966  0.1122
  265MOL0     C34889  -2.787   5.773   0.543  0.6544  0.4578  0.2172
  265MOL0     C34890  -2.661   5.685   0.545 -0.6281 -0.0597 -0.0591
  265MOL0     C34891  -2.566   5.730   0.657 -0.1257 -0.2458 -0.1518
  265MOL0    Cl34892  -2.530   5.896   0.627 -0.1722 -0.0896  0.2889
  265MOL0     C34893  -2.363   5.628   0.131 -0.0513  1.4781 -0.0858
  265MOL0     C34894  -2.223   5.634   0.122  0.6232  0.4458  0.2388
  265MOL0     O34895  -1.953   5.701   0.180  0.2580 -1.2369 -0.0963
  265MOL0     C34896  -1.675   5.682   0.119 -0.3601  0.5721  0.1817
  265MOL0     C34897  -1.542   5.667   0.069  0.1904  0.1571 -0.9477
  265MOL0     N34898  -0.815   5.604  -0.282 -0.1177  0.2800  0.2239
  265MOL0     N34899  -0.716   5.675  -0.234 -0.4385 -0.4911  0.2385
  265MOL0     C34900   0.409   5.405   0.318 -0.8206 -0.0754 -0.2930
  265MOL0     C34901   0.549   5.405   0.340 -0.0538 -0.2428 -0.3672
  265MOL0     C34902   0.952   5.444   0.578 -0.0870 -0.1255  0.0262
  265MOL0     C34903   1.026   5.504   0.484 -0.8764  0.7477 -0.3321
  265MOL0     C34904   1.168   5.518   0.497  0.1424 -0.5592 -0.4421
  265MOL0     C34905   1.236   5.450   0.600  0.0482  0.6019  0.7920
  265MOL0     O34906   1.372   5.448   0.621  0.0065 -0.2756  0.2104
  265MOL0     C34907   1.453   5.483   0.507 -0.3052 -0.8547 -0.0017
  265MOL0     C34908   1.551   5.594   0.550 -0.2450  0.0782  0.1445
  265MOL0     C34909   1.476   5.716   0.590  0.6201  0.3547 -0.2937
  265MOL0     C34910   1.571   5.812   0.657  0.2589 -1.0529 -1.1566
  265MOL0     C34911   1.526   5.949   0.628  0.3474  0.0754  0.1968
  265MOL0     C34912   1.478   6.061   0.615 -0.3097 -0.3736  0.3038
  265MOL0     C34913   1.158   5.378   0.693 -1.0613  0.0185 -0.0438
  265MOL0     C34914   1.018   5.380   0.687  0.0411  0.1040  0.0192
  265MOL0     H34915   0.563   5.635   0.588 -2.6151 -0.2269  1.1192
  265MOL0     H34916   0.334   5.659   0.522 -2.6103  1.4505 -4.3802
  265MOL0     H34917   0.125   5.350   0.235  1.9717 -0.6141  1.3356
  265MOL0     H34918   0.204   5.493   0.168  0.9007 -0.0755  1.3784
  265MOL0     H34919  -0.001   5.620   0.204  1.1816 -0.2856  1.1671
  265MOL0     H34920  -0.059   5.481   0.302 -1.6316  1.2046 -1.3864
  265MOL0     H34921  -0.104   5.365   0.097  0.4900  0.6616  3.2016
  265MOL0     H34922   0.001   5.459  -0.003 -0.5781 -2.1046 -0.1444
  265MOL0     H34923  -0.227   5.598   0.129 -2.0656 -0.6991 -0.1011
  265MOL0     H34924  -0.125   5.646  -0.009  2.9383 -0.4803  0.4673
  265MOL0     H34925  -0.331   5.409  -0.005 -1.1389  1.8380  1.5121
  265MOL0     H34926  -0.227   5.447  -0.147  0.4046 -1.6986  0.1294
  265MOL0     H34927  -0.452   5.530  -0.176 -1.8578 -1.6175  1.9035
  265MOL0     H34928  -0.347   5.684  -0.133 -0.2314  1.3186  4.0396
  265MOL0     H34929  -0.518   5.518   0.048  0.5207 -0.8095  0.6112
  265MOL0     H34930  -0.427   5.670   0.094  0.1170 -2.0858  1.2361
  265MOL0     H34931  -0.570   5.799  -0.060 -1.2104  0.2975  0.2230
  265MOL0     H34932  -0.650   5.721   0.083 -1.5977  1.1667  0.5353
  265MOL0     H34933  -0.783   5.468   0.013  0.4713  0.1120  1.0038
  265MOL0     H34934  -0.934   5.318  -0.155  1.5169  0.9555 -0.5991
  265MOL0     H34935  -1.016   5.415  -0.283  0.1531  0.9915 -0.2509
  265MOL0     H34936  -1.020   5.488   0.023 -0.2815  0.3381  0.0273
  265MOL0     H34937  -1.146   5.383  -0.043  3.0521 -1.5245  0.7154
  265MOL0     H34938  -1.087   5.669  -0.125 -1.4062  0.3031  1.0069
  265MOL0     H34939  -1.193   5.555  -0.217  1.9237  0.2949 -0.4966
  265MOL0     H34940  -1.310   5.709  -0.045  0.2575 -0.2628  0.5606
  265MOL0     H34941  -1.223   5.595   0.077  1.1888 -0.9132 -0.4606
  265MOL0     H34942  -1.592   5.378  -0.094  1.2511  0.6592  0.3722
  265MOL0     H34943  -1.810   5.412  -0.024 -1.0255  0.7398  0.1452
  265MOL0     H34944  -2.154   5.318   0.043  1.5713  0.8249 -1.7100
  265MOL0     H34945  -2.397   5.315   0.019 -1.3692  1.4037 -0.1449
  265MOL0     H34946  -2.603   5.665   0.217 -0.4138  0.2526  1.7030
  265MOL0     H34947  -2.612   5.514   0.300  4.9625  0.7710 -1.0784
  265MOL0     H34948  -2.816   5.469   0.164 -0.5047  0.1294  4.0959
  265MOL0     H34949  -2.785   5.606   0.057  1.4055  0.0639 -0.0967
  265MOL0     H34950  -2.943   5.692   0.190  1.1061  0.3349 -2.4130
  265MOL0     H34951  -2.792   5.755   0.266  0.5295 -0.8968 -1.6160
  265MOL0     H34952  -2.984   5.547   0.350 -0.9971  0.3656  0.4481
  265MOL0     H34953  -2.814   5.516   0.401 -0.3892 -0.0708  0.0022
  265MOL0     H34954  -2.950   5.644   0.567  0.1172  3.1601  1.9690
  265MOL0     H34955  -2.989   5.758   0.437 -1.8409 -3.8996 -2.3683
  265MOL0     H34956  -2.812   5.807   0.644  0.7192  1.4599 -0.0875
  265MOL0     H34957  -2.764   5.865   0.488 -2.2466  1.1522 -0.0118
  265MOL0     H34958  -2.678   5.578   0.561  3.6225 -1.3948 -2.6907
  265MOL0     H34959  -2.607   5.696   0.451 -0.0736  0.6472  0.3410
  265MOL0     H34960  -2.476   5.672   0.638 -0.2273 -0.5333  0.2402
  265MOL0     H34961  -2.608   5.720   0.757 -0.3246  0.7625 -0.1301
  265MOL0     H34962  -2.419   5.718   0.153 -0.8174  1.5121 -2.0237
  265MOL0     H34963  -2.183   5.730   0.153 -0.9915  1.6970 -1.2758
  265MOL0     H34964  -1.708   5.778   0.157 -2.9999  0.8844 -2.4980
  265MOL0     H34965  -1.475   5.752   0.083  1.7355 -0.9009 -1.5557
  265MOL0     H34966   0.362   5.338   0.247 -1.3927 -1.3745  1.2363
  265MOL0     H34967   0.613   5.341   0.281 -0.0696  0.2057 -0.8747
  265MOL0     H34968   0.985   5.553   0.396  0.5025  0.8163 -0.9667
  265MOL0     H34969   1.217   5.578   0.420 -0.9694  1.5528  0.4246
  265MOL0     H34970   1.406   5.505   0.411 -0.8104  2.0863  0.8206
  265MOL0     H34971   1.529   5.405   0.492  0.6527  0.0094  0.2242
  265MOL0     H34972   1.621   5.560   0.627  0.1357 -1.5853 -0.8666
  265MOL0     H34973   1.604   5.636   0.463 -3.3494  1.8937 -1.0250
  265MOL0     H34974   1.389   5.698   0.655  1.1823  0.0158  0.3775
  265MOL0     H34975   1.445   5.751   0.491 -1.8243 -0.3875  0.1390
  265MOL0     H34976   1.565   5.793   0.764 -1.0546  0.4595 -0.9178
  265MOL0     H34977   1.673   5.796   0.620  0.8174 -0.6060  0.1306
  265MOL0     H34978   1.436   6.158   0.596 -2.8634 -2.0657 -4.2595
  265MOL0     H34979   1.209   5.317   0.766 -1.2175 -0.8182 -0.6254
  265MOL0     H34980   0.962   5.338   0.770  0.9776 -3.0260 -0.8097
  266MOL0     O34981   0.656  10.167   6.037  1.1070 -0.3635  0.2752
  266MOL0     C34982   0.628  10.055   6.079  0.3319  0.4293 -0.3116
  266MOL0     O34983   0.565  10.023   6.194  0.4728 -0.5680  0.4296
  266MOL0     C34984   0.492  10.126   6.253  0.1889 -0.1305 -0.1031
  266MOL0     C34985   0.362  10.155   6.201 -0.0441 -0.4040  0.5466
  266MOL0     C34986   0.289  10.256   6.258  0.2874  0.2930  0.3981
  266MOL0     C34987   0.329  10.323   6.371 -0.2336 -0.2201 -0.6794
  266MOL0     O34988   0.264  10.425   6.431 -0.0703 -0.5739 -0.9453
  266MOL0     C34989   0.124  10.447   6.400 -1.2344 -0.4450  0.4932
  266MOL0     C34990   0.059  10.544   6.496 -0.9725  0.6131  0.3101
  266MOL0     C34991  -0.084  10.584   6.448 -0.4507 -0.0116 -0.4520
  266MOL0     C34992  -0.164  10.666   6.556 -0.6822  0.4422  0.1440
  266MOL0     C34993  -0.119  10.819   6.551  0.0695 -0.3591 -0.2028
  266MOL0     C34994  -0.207  10.902   6.651 -0.3508  0.5828  0.0884
  266MOL0     C34995  -0.353  10.925   6.608 -0.0265 -0.0484 -1.0277
  266MOL0     C34996  -0.421  11.014   6.714  0.6424 -0.3015 -0.2703
  266MOL0     N34997  -0.372  11.154   6.741 -0.4212 -0.0432  0.0741
  266MOL0     C34998  -0.435  11.262   6.684 -0.8041  0.1956 -0.7823
  266MOL0     C34999  -0.360  11.368   6.708 -0.0573  0.3318 -0.3657
  266MOL0     C35000  -0.389  11.505   6.664  0.1754  0.9016 -0.0870
  266MOL0     C35001  -0.461  11.578   6.777 -0.7944  0.0870 -0.2694
  266MOL0     C35002  -0.605  11.520   6.794  0.1198  0.4749  0.9467
  266MOL0     C35003  -0.684  11.537   6.667 -0.2280 -0.1681  0.7669
  266MOL0     O35004  -0.812  11.567   6.703  0.4217 -0.5457  0.6411
  266MOL0     C35005  -0.919  11.583   6.610 -0.1086 -0.4829 -0.4982
  266MOL0     C35006  -0.912  11.584   6.474 -0.7375 -0.0936  0.1397
  266MOL0     C35007  -1.024  11.581   6.385  0.2759  0.1014  0.5131
  266MOL0     C35008  -1.154  11.582   6.442  0.1658  0.2784 -0.4281
  266MOL0     C35009  -1.272  11.603   6.362  0.3602 -0.7139 -0.6640
  266MOL0     O35010  -1.391  11.584   6.431  0.2492 -0.2525 -0.3246
  266MOL0     C35011  -1.506  11.617   6.363 -0.1660 -0.6338 -1.0996
  266MOL0     C35012  -1.529  11.750   6.341 -0.0696 -0.6548  0.2253
  266MOL0     C35013  -1.650  11.797   6.283 -0.1463 -0.0882  0.4140
  266MOL0     C35014  -1.744  11.703   6.245  0.2678  0.6676 -0.3257
  266MOL0     O35015  -1.871  11.730   6.200 -0.0450 -0.8015  0.3441
  266MOL0     C35016  -1.924  11.865   6.202  0.1348 -0.3139  0.6497
  266MOL0     C35017  -2.076  11.870   6.221  0.5098 -0.3357  0.1212
  266MOL0     C35018  -2.138  12.008   6.207 -0.5944 -0.3342  0.0310
  266MOL0     C35019  -2.286  12.015   6.252 -0.2448 -0.1887  0.3576
  266MOL0     C35020  -2.290  12.024   6.412  0.1818  0.1137  0.2262
  266MOL0     C35021  -2.431  12.001   6.460 -0.9703 -0.2119  0.2804
  266MOL0     C35022  -2.458  12.007   6.614  0.3195  0.3754  0.6762
  266MOL0     C35023  -2.579  11.920   6.654 -0.1022  0.4113  0.7598
  266MOL0    Cl35024  -2.732  11.995   6.573  0.1028 -0.3148 -0.1294
  266MOL0     C35025  -1.712  11.566   6.266  0.7698  0.5474  0.1561
  266MOL0     C35026  -1.593  11.522   6.322 -0.3739 -0.2867 -0.1818
  266MOL0     O35027  -1.253  11.619   6.239  0.4391  0.7338 -0.1433
  266MOL0     C35028  -1.161  11.577   6.585  0.1057  0.0609 -0.3759
  266MOL0     C35029  -1.048  11.584   6.664  0.0061 -0.0413  0.6821
  266MOL0     N35030  -0.236  11.322   6.765  0.0785  0.4013 -0.6866
  266MOL0     N35031  -0.253  11.196   6.795 -0.1189 -0.0850  0.4724
  266MOL0     C35032   0.458  10.302   6.418 -0.8523 -0.1561 -0.0587
  266MOL0     C35033   0.540  10.202   6.363  0.1309 -0.8014 -0.8129
  266MOL0     C35034   0.675   9.942   6.000 -0.6854 -0.2718  1.0795
  266MOL0     C35035   0.607   9.823   6.008  0.0755 -0.0540 -0.1759
  266MOL0     C35036   0.656   9.709   5.940  0.4991  0.2114  0.4745
  266MOL0     C35037   0.773   9.717   5.863  0.2845 -0.1029 -0.1119
  266MOL0     O35038   0.830   9.613   5.797 -0.6195 -0.4685 -0.0747
  266MOL0     C35039   0.783   9.473   5.820  0.2624  0.4892  0.4886
  266MOL0     C35040   0.652   9.426   5.755  0.3763 -0.7457 -0.5123
  266MOL0     C35041   0.679   9.360   5.621 -0.6625 -0.6180 -1.0984
  266MOL0     C35042   0.756   9.449   5.524 -0.8037  0.0673  0.0659
  266MOL0     C35043   0.762   9.378   5.395  0.8362 -1.3523  0.3824
  266MOL0     C35044   0.775   9.349   5.281 -0.8207  0.0449 -0.3329
  266MOL0     C35045   0.842   9.839   5.848 -0.2157 -1.0500 -0.5719
  266MOL0     C35046   0.799   9.952   5.918 -0.5688  0.1369 -0.3956
  266MOL0     H35047   0.322  10.091   6.123  3.9291 -4.3361  1.3450
  266MOL0     H35048   0.185  10.267   6.229  0.6710 -1.1469 -1.7229
  266MOL0     H35049   0.073  10.352   6.412  0.6593 -1.2753  2.8027
  266MOL0     H35050   0.122  10.484   6.297  0.1066 -1.6624 -0.0111
  266MOL0     H35051   0.124  10.631   6.508  1.6530 -1.2684  0.4847
  266MOL0     H35052   0.059  10.497   6.595  0.2020  1.9918  0.9939
  266MOL0     H35053  -0.139  10.494   6.419 -0.5199 -0.2036  0.2535
  266MOL0     H35054  -0.070  10.652   6.363 -0.2059  0.1294 -0.2984
  266MOL0     H35055  -0.272  10.653   6.542 -0.5684 -0.1687 -0.2145
  266MOL0     H35056  -0.138  10.609   6.646  2.2856  0.4454 -0.6235
  266MOL0     H35057  -0.137  10.859   6.451  3.2443 -0.3595 -0.8684
  266MOL0     H35058  -0.011  10.833   6.566 -0.2642  0.7478  1.4147
  266MOL0     H35059  -0.163  10.999   6.673  0.9203 -0.0936  0.5715
  266MOL0     H35060  -0.202  10.846   6.745  1.7762  2.0574  0.9101
  266MOL0     H35061  -0.361  10.972   6.509 -0.7444  1.3203 -0.3336
  266MOL0     H35062  -0.399  10.826   6.598 -0.5450  0.2999 -2.2504
  266MOL0     H35063  -0.427  10.963   6.811  1.6759 -1.8051 -0.9674
  266MOL0     H35064  -0.521  11.025   6.671  0.3305  1.3440  0.8041
  266MOL0     H35065  -0.526  11.263   6.625 -0.5812  0.9915 -1.1277
  266MOL0     H35066  -0.446  11.521   6.572  0.2802  2.2036  0.0567
  266MOL0     H35067  -0.290  11.549   6.651  0.9151 -0.7726 -0.2513
  266MOL0     H35068  -0.464  11.686   6.760  0.7299 -0.3264 -4.2538
  266MOL0     H35069  -0.403  11.554   6.866 -0.4934 -0.5359 -0.6278
  266MOL0     H35070  -0.614  11.415   6.823 -0.2613 -0.9264 -3.4309
  266MOL0     H35071  -0.647  11.584   6.872 -0.0145 -0.3512  1.5672
  266MOL0     H35072  -0.684  11.448   6.603 -2.3350  0.3295  0.0012
  266MOL0     H35073  -0.641  11.622   6.613  1.2171 -1.3873 -0.0733
  266MOL0     H35074  -0.809  11.580   6.440  0.0086  0.4146  2.1726
  266MOL0     H35075  -1.019  11.589   6.277 -1.4683  0.5330  0.4262
  266MOL0     H35076  -1.454  11.821   6.376  0.6354 -1.4101  0.2694
  266MOL0     H35077  -1.674  11.902   6.268 -2.0789 -0.6456 -0.7657
  266MOL0     H35078  -1.902  11.922   6.111 -0.9967  1.5835  1.5006
  266MOL0     H35079  -1.886  11.916   6.291  1.7860 -1.9911  0.9673
  266MOL0     H35080  -2.104  11.833   6.319 -0.1580 -0.5956 -0.1652
  266MOL0     H35081  -2.119  11.805   6.144  0.4719 -1.6113  1.1949
  266MOL0     H35082  -2.117  12.050   6.108 -0.4486 -3.1877 -1.2491
  266MOL0     H35083  -2.078  12.072   6.272 -0.3580 -1.9100  1.4152
  266MOL0     H35084  -2.337  12.107   6.223  0.0973  0.3078  1.2903
  266MOL0     H35085  -2.342  11.935   6.202  0.4534 -0.3083 -0.2546
  266MOL0     H35086  -2.246  12.121   6.436  1.0767  0.2569 -1.7851
  266MOL0     H35087  -2.242  11.938   6.462 -0.0464 -0.9627 -1.3467
  266MOL0     H35088  -2.458  11.903   6.419 -0.5325 -0.0297 -0.4585
  266MOL0     H35089  -2.503  12.073   6.420 -0.7208  0.7216  1.4488
  266MOL0     H35090  -2.364  11.983   6.665 -0.0450 -1.4611  0.5350
  266MOL0     H35091  -2.488  12.108   6.644 -0.9012  0.4297 -0.6080
  266MOL0     H35092  -2.591  11.913   6.762  1.3321 -2.8471  0.8076
  266MOL0     H35093  -2.572  11.817   6.617 -1.2840  0.4132  0.4899
  266MOL0     H35094  -1.791  11.496   6.239  0.0855  0.1007  2.9609
  266MOL0     H35095  -1.569  11.416   6.324 -0.6410 -0.5155 -3.5711
  266MOL0     H35096  -1.256  11.573   6.637  0.3793 -1.9319  0.0095
  266MOL0     H35097  -1.067  11.565   6.769  0.4434 -1.6606  0.4926
  266MOL0     H35098   0.493  10.354   6.506  2.4560 -1.4770 -0.4371
  266MOL0     H35099   0.631  10.170   6.413  0.0194 -0.3133 -0.2930
  266MOL0     H35100   0.515   9.819   6.065  0.6572 -1.5587  0.7142
  266MOL0     H35101   0.599   9.617   5.947  0.3496  0.2728  0.0454
  266MOL0     H35102   0.759   9.458   5.926 -1.2424 -1.7672 -0.0929
  266MOL0     H35103   0.868   9.408   5.796  0.7756  0.2541  2.6835
  266MOL0     H35104   0.619   9.349   5.824  0.3783  0.8154  1.3230
  266MOL0     H35105   0.590   9.516   5.751  3.2022  1.4302  0.8664
  266MOL0     H35106   0.587   9.322   5.576 -2.2459  1.8361 -0.1498
  266MOL0     H35107   0.735   9.274   5.657 -1.8941 -0.7652  0.5771
  266MOL0     H35108   0.694   9.538   5.512 -1.0657  0.1487  1.7426
  266MOL0     H35109   0.855   9.477   5.561 -1.5276  2.3310  0.4218
  266MOL0     H35110   0.786   9.318   5.179  1.8705  1.3535 -0.5216
  266MOL0     H35111   0.932   9.835   5.788 -0.8823  0.6081 -1.7791
  266MOL0     H35112   0.855  10.044   5.914 -1.9449  1.0201  0.1080
  267MOL0     O35113   5.715   4.613   7.867 -0.0786  0.0740 -0.2111
  267MOL0     C35114   5.837   4.632   7.849 -0.2154  0.6019  0.4385
  267MOL0     O35115   5.898   4.747   7.788  0.2959 -0.2666  0.2894
  267MOL0     C35116   5.834   4.844   7.723  0.5967  0.6631  1.1179
  267MOL0     C35117   5.864   4.973   7.749 -0.8010 -0.6069  0.3353
  267MOL0     C35118   5.800   5.076   7.686 -0.2007 -0.4345  0.6318
  267MOL0     C35119   5.698   5.050   7.595  0.1270 -0.2922  0.3509
  267MOL0     O35120   5.617   5.141   7.531  0.4240 -0.4424  0.2024
  267MOL0     C35121   5.631   5.275   7.566  0.5642 -1.6108 -0.7081
  267MOL0     C35122   5.497   5.338   7.525 -0.1588  0.5292 -0.0559
  267MOL0     C35123   5.377   5.275   7.598  0.1598 -0.0440 -0.4428
  267MOL0     C35124   5.256   5.340   7.552 -0.8163 -0.0845  0.4646
  267MOL0     C35125   5.139   5.291   7.627  0.5219  0.4985  0.0741
  267MOL0     C35126   5.008   5.334   7.561  0.1999 -0.4908  0.1170
  267MOL0     C35127   4.884   5.281   7.636 -0.8348  0.1649 -0.6122
  267MOL0     C35128   4.753   5.295   7.550 -0.7238 -0.6259  0.0069
  267MOL0     N35129   4.642   5.227   7.615  0.6463 -0.1935  0.2733
  267MOL0     C35130   4.556   5.150   7.546  0.1956  0.9755  0.4451
  267MOL0     C35131   4.458   5.128   7.642  0.3451  0.2414  0.6197
  267MOL0     C35132   4.343   5.024   7.637 -0.4225  0.9231  0.0706
  267MOL0     C35133   4.206   5.064   7.693  0.5115 -0.0466 -0.5211
  267MOL0     C35134   4.095   5.076   7.583 -0.0570  0.2483 -0.7679
  267MOL0     C35135   3.959   5.113   7.638 -0.6413  0.0262  0.5265
  267MOL0     O35136   3.917   5.015   7.727 -0.2401  0.6827  0.5415
  267MOL0     C35137   3.775   4.983   7.725 -0.4572  1.1792  0.5882
  267MOL0     C35138   3.746   4.848   7.703 -0.1055  0.7415  0.3220
  267MOL0     C35139   3.612   4.796   7.711  0.3470 -0.4453  0.5587
  267MOL0     C35140   3.504   4.881   7.746  0.1597 -0.3133  0.1177
  267MOL0     C35141   3.358   4.837   7.759 -0.3609  0.2800 -0.4965
  267MOL0     O35142   3.349   4.698   7.745 -0.1590 -1.0494  0.1213
  267MOL0     C35143   3.229   4.636   7.735 -1.2730 -0.5209  0.2333
  267MOL0     C35144   3.121   4.665   7.815 -0.1633 -0.2808 -0.2061
  267MOL0     C35145   2.998   4.607   7.789  0.7095  0.2459 -0.8651
  267MOL0     C35146   2.981   4.522   7.681 -0.1925  0.2485 -0.0084
  267MOL0     O35147   2.865   4.463   7.634 -0.2137 -0.1376  1.3773
  267MOL0     C35148   2.740   4.521   7.674  0.1074  0.8391  0.3998
  267MOL0     C35149   2.633   4.419   7.637 -0.3692 -0.0053  0.1298
  267MOL0     C35150   2.647   4.283   7.710  0.0659  0.3557 -0.3898
  267MOL0     C35151   2.535   4.195   7.659 -0.0962  0.4480  0.0474
  267MOL0     C35152   2.542   4.056   7.729 -0.9836  0.0607 -0.4889
  267MOL0     C35153   2.434   3.959   7.675 -0.0182  0.0329 -0.2419
  267MOL0     C35154   2.424   3.948   7.520  0.2243  0.4060  1.1464
  267MOL0     C35155   2.313   4.034   7.458 -0.5627 -0.5927  0.3713
  267MOL0    Cl35156   2.156   3.947   7.477 -0.0331  0.1846 -0.4013
  267MOL0     C35157   3.096   4.489   7.596 -0.2198 -0.6063  0.2570
  267MOL0     C35158   3.214   4.545   7.625 -0.0254  0.4944 -0.2100
  267MOL0     O35159   3.258   4.916   7.788  0.0297  0.0142  0.3965
  267MOL0     C35160   3.540   5.017   7.759  1.8751  0.3890 -1.2912
  267MOL0     C35161   3.663   5.066   7.749  0.3105 -0.1306 -0.5590
  267MOL0     N35162   4.490   5.190   7.758  1.2556 -0.1588 -0.1176
  267MOL0     N35163   4.608   5.254   7.742  0.7028  0.3987  0.1538
  267MOL0     C35164   5.673   4.914   7.564 -0.3524 -0.8436  0.7230
  267MOL0     C35165   5.730   4.808   7.633  0.3400 -0.5104  1.2780
  267MOL0     C35166   5.928   4.545   7.929 -0.7128 -0.3448  0.1159
  267MOL0     C35167   6.064   4.575   7.910  0.1618 -0.1410  0.3155
  267MOL0     C35168   6.158   4.506   7.991  0.1259  0.0955  0.4651
  267MOL0     C35169   6.118   4.420   8.100  0.6775 -0.3280  0.3016
  267MOL0     O35170   6.198   4.347   8.184 -0.4809  0.0589 -0.1810
  267MOL0     C35171   6.326   4.403   8.224 -0.0987 -0.4694  0.0657
  267MOL0     C35172   6.442   4.322   8.164  0.3843  0.6275  0.9064
  267MOL0     C35173   6.580   4.387   8.188  0.3565  0.6791 -0.5538
  267MOL0     C35174   6.695   4.275   8.168  0.6738  1.0257  0.6909
  267MOL0     C35175   6.824   4.346   8.197  0.3482 -0.4233  0.4240
  267MOL0     C35176   6.928   4.410   8.216  0.3209  0.7112 -0.3409
  267MOL0     C35177   5.982   4.387   8.110 -0.2664  0.2270  0.2187
  267MOL0     C35178   5.894   4.448   8.021 -0.1907 -0.3441  0.5599
  267MOL0     H35179   5.942   4.999   7.820 -0.1192  2.3773 -1.3635
  267MOL0     H35180   5.827   5.175   7.721  0.1385  0.1609 -1.1755
  267MOL0     H35181   5.705   5.327   7.504  0.8065 -2.8804 -1.5134
  267MOL0     H35182   5.651   5.290   7.673  0.5339 -0.7302 -0.8184
  267MOL0     H35183   5.489   5.325   7.417  0.0200 -2.1014  0.1991
  267MOL0     H35184   5.495   5.447   7.534 -0.9009  0.4841  0.3841
  267MOL0     H35185   5.397   5.294   7.704  1.9618  1.1831 -0.9575
  267MOL0     H35186   5.372   5.168   7.575  0.3812 -0.3733  0.9426
  267MOL0     H35187   5.264   5.447   7.573  0.1935 -0.7067  3.8803
  267MOL0     H35188   5.237   5.321   7.446  0.1462 -0.1430  0.2909
  267MOL0     H35189   5.143   5.335   7.727 -3.2615  1.6983 -0.1625
  267MOL0     H35190   5.137   5.186   7.657 -0.2017  0.9402  1.6706
  267MOL0     H35191   5.009   5.289   7.461 -0.0202  1.1521 -0.6694
  267MOL0     H35192   4.995   5.442   7.550 -1.1133 -0.7338 -1.0157
  267MOL0     H35193   4.900   5.178   7.668 -0.7577  0.4545  0.3219
  267MOL0     H35194   4.877   5.335   7.732  1.8936  3.2289 -1.9217
  267MOL0     H35195   4.760   5.242   7.455 -0.5083  2.0707 -1.5857
  267MOL0     H35196   4.730   5.402   7.548 -2.1826 -0.9261 -0.1488
  267MOL0     H35197   4.561   5.110   7.446  1.7331  0.2187  0.7839
  267MOL0     H35198   4.380   4.941   7.697 -0.5924 -0.1821 -1.3284
  267MOL0     H35199   4.325   4.995   7.534  0.4490  2.7633 -0.6390
  267MOL0     H35200   4.208   5.162   7.740 -0.5443  1.3078 -3.0927
  267MOL0     H35201   4.175   4.990   7.767 -1.6215 -1.3402 -2.5440
  267MOL0     H35202   4.134   5.161   7.526  0.7421  0.9074  0.7141
  267MOL0     H35203   4.091   4.984   7.524  0.4184  0.9086 -1.8649
  267MOL0     H35204   3.890   5.107   7.554 -0.3444 -4.3443  0.3602
  267MOL0     H35205   3.977   5.209   7.687 -0.2225  0.7783 -1.0439
  267MOL0     H35206   3.826   4.777   7.686 -0.9154 -0.0315 -0.3532
  267MOL0     H35207   3.614   4.688   7.699  1.0868 -0.3490 -0.2790
  267MOL0     H35208   3.130   4.745   7.887 -0.1740  2.4119 -3.0101
  267MOL0     H35209   2.917   4.642   7.853  1.6903  0.8078  0.0956
  267MOL0     H35210   2.712   4.616   7.628 -2.3964  0.8374  1.7064
  267MOL0     H35211   2.729   4.532   7.783 -0.2823  1.1786  0.3272
  267MOL0     H35212   2.641   4.404   7.529 -0.1640  2.4969 -0.2592
  267MOL0     H35213   2.537   4.466   7.659 -0.5250  0.3668 -1.2748
  267MOL0     H35214   2.644   4.303   7.818  0.9496 -1.2791 -0.0197
  267MOL0     H35215   2.744   4.234   7.698 -0.4951 -1.1393  0.7374
  267MOL0     H35216   2.442   4.251   7.665  0.8768  1.9651  1.7207
  267MOL0     H35217   2.551   4.184   7.551 -2.5589  2.0893 -0.5432
  267MOL0     H35218   2.535   4.068   7.838  0.6864 -2.1464 -0.0676
  267MOL0     H35219   2.636   4.005   7.710 -0.9666 -0.3829  0.6729
  267MOL0     H35220   2.340   3.984   7.726  0.4125 -0.0025  0.5778
  267MOL0     H35221   2.454   3.860   7.717  2.9683 -0.2630 -2.1258
  267MOL0     H35222   2.521   3.975   7.477 -0.1729 -0.4430 -0.3586
  267MOL0     H35223   2.405   3.846   7.486  2.6623 -0.1061  1.1275
  267MOL0     H35224   2.332   4.056   7.352  0.6489 -1.7780  0.3244
  267MOL0     H35225   2.306   4.130   7.510  3.2948 -0.7417  1.4924
  267MOL0     H35226   3.081   4.435   7.503 -0.7133 -0.5732  0.3131
  267MOL0     H35227   3.303   4.521   7.567 -1.4061  0.3346 -2.3612
  267MOL0     H35228   3.459   5.082   7.790  1.1696  0.8865 -3.9241
  267MOL0     H35229   3.680   5.171   7.773 -0.7527 -0.3977  1.5640
  267MOL0     H35230   5.595   4.894   7.491  1.8984 -2.1717 -1.4800
  267MOL0     H35231   5.705   4.710   7.594 -0.4867  0.1338  0.1381
  267MOL0     H35232   6.107   4.641   7.835 -0.5102 -0.0612 -0.0036
  267MOL0     H35233   6.263   4.519   7.969  0.6652 -1.9923  1.5429
  267MOL0     H35234   6.337   4.402   8.333 -2.4819  1.5163  0.4158
  267MOL0     H35235   6.337   4.506   8.189 -1.2503  0.4163  2.1507
  267MOL0     H35236   6.432   4.223   8.209  0.8076  1.1167  2.1201
  267MOL0     H35237   6.430   4.321   8.056  0.2178 -1.6073  0.9082
  267MOL0     H35238   6.579   4.417   8.293 -2.3267 -1.6976  0.2334
  267MOL0     H35239   6.606   4.471   8.123  0.9942  0.6177 -0.3825
  267MOL0     H35240   6.671   4.188   8.230  0.3810  0.4836 -0.1645
  267MOL0     H35241   6.699   4.239   8.065 -0.9247 -0.9952  1.2486
  267MOL0     H35242   7.016   4.457   8.253  0.2204 -0.4225  1.4452
  267MOL0     H35243   5.939   4.317   8.181 -0.1333 -2.2151 -1.9951
  267MOL0     H35244   5.788   4.427   8.029 -1.5962  4.4577 -2.0563
  268MOL0     O35245   7.042   0.193   0.070  0.0090  0.0090  0.0165
  268MOL0     C35246   7.015   0.182   0.195 -0.0199 -0.3543  0.1163
  268MOL0     O35247   6.903   0.215   0.255 -0.4671  0.1371 -0.5064
  268MOL0     C35248   6.802   0.285   0.193  0.3883 -0.8400  0.0867
  268MOL0     C35249   6.737   0.243   0.071  0.1481 -0.4931 -0.3876
  268MOL0     C35250   6.629   0.316   0.020 -0.0809 -0.4546  0.5028
  268MOL0     C35251   6.585   0.425   0.088  0.0652 -0.5732  0.2049
  268MOL0     O35252   6.485   0.499   0.030  0.3168  0.3048  0.5730
  268MOL0     C35253   6.356   0.457   0.066  0.2500  0.5655  0.5197
  268MOL0     C35254   6.258   0.570   0.070  0.2357  0.3018 -0.7942
  268MOL0     C35255   6.126   0.548   0.126 -0.1233 -0.1576 -0.7663
  268MOL0     C35256   6.033   0.443   0.055 -0.3647 -0.6258  0.2580
  268MOL0     C35257   5.903   0.422   0.130  0.3089  0.3244  0.7628
  268MOL0     C35258   5.846   0.280   0.103  0.1737  1.0044  0.1707
  268MOL0     C35259   5.706   0.254   0.171  0.2198  0.2434 -0.2937
  268MOL0     C35260   5.598   0.323   0.091 -0.8154 -0.0329 -1.2394
  268MOL0     N35261   5.460   0.297   0.148 -0.7791  0.3656 -0.0695
  268MOL0     C35262   5.374   0.209   0.102 -0.0048 -0.2298 -0.6364
  268MOL0     C35263   5.268   0.231   0.185  0.3860  0.1034 -0.1714
  268MOL0     C35264   5.137   0.161   0.157  0.1756 -0.3107 -0.2141
  268MOL0     C35265   5.021   0.207   0.234  0.4553  0.3744 -0.0876
  268MOL0     C35266   4.904   0.124   0.181  0.0757  0.2478 -0.2195
  268MOL0     C35267   4.778   0.150   0.254 -0.7193  0.1760  0.1472
  268MOL0     O35268   4.667   0.114   0.179 -0.0030  0.1383 -0.0980
  268MOL0     C35269   4.551   0.098   0.240 -0.0947  0.0043  0.0894
  268MOL0     C35270   4.475  -0.016   0.221  0.6184 -0.2407  0.6443
  268MOL0     C35271   4.355  -0.040   0.281  0.3272  0.2747  0.6808
  268MOL0     C35272   4.294   0.060   0.361  0.0402 -0.2521 -1.0136
  268MOL0     C35273   4.165   0.030   0.431  0.2218 -0.0647 -0.0332
  268MOL0     O35274   4.102  -0.086   0.401  0.6017 -0.1428 -0.0213
  268MOL0     C35275   3.966  -0.115   0.408 -0.0082 -0.9098  0.3716
  268MOL0     C35276   3.925  -0.243   0.365 -0.3946  0.6568 -0.8933
  268MOL0     C35277   3.789  -0.285   0.366 -0.4629 -0.5933 -0.4209
  268MOL0     C35278   3.692  -0.198   0.418 -0.8167  0.2635  0.7171
  268MOL0     O35279   3.555  -0.211   0.418  0.0598 -0.5599  0.2517
  268MOL0     C35280   3.507  -0.333   0.359  0.2484 -0.3891 -0.9523
  268MOL0     C35281   3.357  -0.347   0.376 -0.4275 -0.4163 -0.6732
  268MOL0     C35282   3.317  -0.359   0.529 -0.1045  0.6707  0.2792
  268MOL0     C35283   3.358  -0.492   0.582  0.7390 -0.0438  0.4951
  268MOL0     C35284   3.272  -0.508   0.710 -0.1644 -0.0736 -0.5496
  268MOL0     C35285   3.320  -0.421   0.833 -0.4975  0.0576  0.0747
  268MOL0     C35286   3.243  -0.427   0.969 -0.1526 -0.1926  1.3315
  268MOL0     C35287   3.178  -0.564   1.005  0.4479 -0.6413  0.1192
  268MOL0    Cl35288   3.298  -0.667   1.073  0.2119  0.1450  0.3277
  268MOL0     C35289   3.731  -0.076   0.466 -0.1403 -0.4331 -0.0093
  268MOL0     C35290   3.868  -0.035   0.465 -1.0997 -0.0570 -0.2858
  268MOL0     O35291   4.130   0.113   0.515 -0.5454 -0.2533  0.0201
  268MOL0     C35292   4.373   0.172   0.398  0.1598  0.0167 -0.1123
  268MOL0     C35293   4.495   0.195   0.329  0.0836 -0.2175  0.1439
  268MOL0     N35294   5.289   0.335   0.271 -0.1054 -0.6397  0.3091
  268MOL0     N35295   5.403   0.376   0.240 -0.3316 -0.2255 -0.0856
  268MOL0     C35296   6.642   0.469   0.207 -0.3126  0.2404 -0.3484
  268MOL0     C35297   6.756   0.399   0.260  0.2695  0.1425  0.1654
  268MOL0     C35298   7.130   0.128   0.279  0.2759 -0.5953 -0.0477
  268MOL0     C35299   7.239   0.064   0.222 -0.4567  0.7673  0.1232
  268MOL0     C35300   7.352   0.023   0.298 -0.4449  0.6302  0.1331
  268MOL0     C35301   7.354   0.047   0.433 -0.2153 -0.2170 -0.1887
  268MOL0     O35302   7.473   0.008   0.494 -0.1617 -0.7728  0.4363
  268MOL0     C35303   7.497   0.034   0.628 -0.0930  0.2797  0.4202
  268MOL0     C35304   7.629  -0.023   0.676  0.1188  0.3048 -0.0790
  268MOL0     C35305   7.754   0.059   0.622  1.1279  0.1981  0.0934
  268MOL0     C35306   7.875  -0.023   0.655 -0.0223  0.4817 -0.0626
  268MOL0     C35307   7.889  -0.068   0.797  0.3631 -0.3284  0.5379
  268MOL0     C35308   7.933  -0.101   0.898  0.2125  0.1847  0.0961
  268MOL0     C35309   7.245   0.105   0.498 -0.0509 -0.6181 -1.2279
  268MOL0     C35310   7.133   0.146   0.422 -0.2086 -0.6618 -0.3967
  268MOL0     H35311   6.774   0.155   0.021  2.2097 -1.0060  1.8111
  268MOL0     H35312   6.582   0.284  -0.073  1.9895 -0.7455 -0.5047
  268MOL0     H35313   6.358   0.411   0.164  2.0667  1.7380  1.0839
  268MOL0     H35314   6.321   0.387  -0.011 -0.6817  1.9240 -0.3590
  268MOL0     H35315   6.254   0.614  -0.031  0.8605 -1.7321 -1.7555
  268MOL0     H35316   6.311   0.642   0.133  1.9029 -0.1035 -1.6583
  268MOL0     H35317   6.075   0.645   0.132 -2.8854 -1.6108  1.1807
  268MOL0     H35318   6.139   0.510   0.228 -0.1649  1.2575 -0.2000
  268MOL0     H35319   6.031   0.462  -0.053  0.7288 -2.2469 -0.0850
  268MOL0     H35320   6.088   0.350   0.071 -1.9807 -1.5169  0.9605
  268MOL0     H35321   5.833   0.504   0.112 -1.6330 -1.7099 -1.8206
  268MOL0     H35322   5.924   0.404   0.236 -3.3229 -2.1592  1.2478
  268MOL0     H35323   5.907   0.195   0.136 -0.4395  1.6230  3.1970
  268MOL0     H35324   5.834   0.276  -0.006 -2.3063  1.5943  0.3682
  268MOL0     H35325   5.685   0.147   0.175 -2.2270  0.6717  0.6736
  268MOL0     H35326   5.712   0.284   0.276  3.7160  0.1932 -0.3751
  268MOL0     H35327   5.610   0.282  -0.010  0.6635 -2.6088 -0.1070
  268MOL0     H35328   5.611   0.431   0.102 -5.0256  0.4167  1.9630
  268MOL0     H35329   5.402   0.135   0.028  2.0705  0.2622 -0.3900
  268MOL0     H35330   5.155   0.057   0.185  0.3569 -0.0606  0.6314
  268MOL0     H35331   5.102   0.173   0.054 -0.8665 -1.1561  0.0247
  268MOL0     H35332   5.011   0.316   0.222 -0.1194  0.6631  2.3698
  268MOL0     H35333   5.039   0.178   0.338  1.6851 -2.0107 -0.9026
  268MOL0     H35334   4.888   0.164   0.080 -0.1731 -0.1294 -0.3360
  268MOL0     H35335   4.929   0.017   0.182 -1.4102 -0.1547  2.4515
  268MOL0     H35336   4.766   0.257   0.274 -0.3982  0.0239  1.1870
  268MOL0     H35337   4.766   0.103   0.352 -0.4371  2.1544  1.1810
  268MOL0     H35338   4.524  -0.094   0.164  2.6400  0.7141  1.0039
  268MOL0     H35339   4.306  -0.133   0.255 -1.1579  0.7640  1.6186
  268MOL0     H35340   3.995  -0.315   0.324  0.7565  0.6089  1.0084
  268MOL0     H35341   3.762  -0.385   0.333 -1.7707 -0.1976 -0.5986
  268MOL0     H35342   3.563  -0.415   0.407  0.6995  0.6749  0.3889
  268MOL0     H35343   3.534  -0.332   0.253  1.8985 -4.7519 -0.8132
  268MOL0     H35344   3.317  -0.428   0.313 -1.4243 -0.9996  0.6512
  268MOL0     H35345   3.313  -0.256   0.334 -0.3406 -0.4371 -0.8078
  268MOL0     H35346   3.210  -0.342   0.544 -0.1048  3.5196 -2.0181
  268MOL0     H35347   3.355  -0.274   0.585 -0.8288  1.0932  0.1413
  268MOL0     H35348   3.338  -0.568   0.506 -0.6012  0.4588  0.3146
  268MOL0     H35349   3.465  -0.504   0.603  1.1703  1.5066 -0.6469
  268MOL0     H35350   3.277  -0.611   0.744  0.4506 -0.0240 -0.4845
  268MOL0     H35351   3.166  -0.489   0.693 -0.0233 -0.3749 -1.8929
  268MOL0     H35352   3.300  -0.315   0.813 -1.9257  0.0340  1.2100
  268MOL0     H35353   3.428  -0.436   0.842 -0.2707  2.2176  1.6957
  268MOL0     H35354   3.306  -0.398   1.053  0.7472  0.0788  0.5835
  268MOL0     H35355   3.167  -0.348   0.962  1.5340  1.3368 -3.1628
  268MOL0     H35356   3.126  -0.608   0.919 -2.4424  0.8199  0.9928
  268MOL0     H35357   3.104  -0.540   1.082  0.1427 -1.3349  0.0521
  268MOL0     H35358   3.657  -0.017   0.519 -0.6082 -0.5566 -0.5138
  268MOL0     H35359   3.909   0.054   0.511  1.7278 -0.6724 -1.4135
  268MOL0     H35360   4.347   0.239   0.480 -0.8173 -0.7993  0.2564
  268MOL0     H35361   4.560   0.282   0.337  0.1551 -0.0735 -1.6390
  268MOL0     H35362   6.597   0.546   0.269 -1.1076 -2.2816  2.4774
  268MOL0     H35363   6.791   0.420   0.360 -5.0350 -0.0772  2.3532
  268MOL0     H35364   7.247   0.038   0.117  3.9846 -0.1679  0.4973
  268MOL0     H35365   7.426  -0.027   0.237 -0.6540 -0.4630  0.7367
  268MOL0     H35366   7.425  -0.021   0.689  0.4312 -3.0689 -1.7188
  268MOL0     H35367   7.487   0.141   0.647  0.0598  0.0751  1.7218
  268MOL0     H35368   7.626  -0.032   0.785 -0.3535  3.2783  0.2307
  268MOL0     H35369   7.637  -0.119   0.625  0.3383  0.9927 -1.3994
  268MOL0     H35370   7.761   0.164   0.654 -1.9082  1.0684 -1.7284
  268MOL0     H35371   7.755   0.066   0.513 -1.4129  0.8869  0.0652
  268MOL0     H35372   7.886  -0.114   0.595 -2.4389 -0.3149  0.5867
  268MOL0     H35373   7.962   0.039   0.634  0.9178 -0.4060  1.0702
  268MOL0     H35374   7.967  -0.153   0.986 -0.4392 -0.0111  0.2388
  268MOL0     H35375   7.240   0.118   0.605 -2.3095 -1.5977 -1.1778
  268MOL0     H35376   7.052   0.195   0.475  1.1999  2.9709 -1.2896
  269MOL0     O35377   4.250   4.517  10.272 -0.8422  0.1895 -0.4824
  269MOL0     C35378   4.337   4.540  10.359 -1.0952  0.4654 -0.3372
  269MOL0     O35379   4.323   4.522  10.493  0.1913  0.7818 -0.2935
  269MOL0     C35380   4.201   4.490  10.555 -0.0813 -0.2830  0.0328
  269MOL0     C35381   4.085   4.433  10.494  0.8415 -0.1583  1.0967
  269MOL0     C35382   3.967   4.429  10.568 -0.1802 -0.1889  0.0575
  269MOL0     C35383   3.958   4.481  10.703 -0.4274  0.4228  0.9042
  269MOL0     O35384   3.847   4.466  10.784 -1.1261 -0.2610 -0.3638
  269MOL0     C35385   3.751   4.373  10.751  0.2253  0.5680  0.1079
  269MOL0     C35386   3.626   4.424  10.676 -0.0843 -0.1381  0.1519
  269MOL0     C35387   3.560   4.551  10.745  0.1006  0.2517 -0.8880
  269MOL0     C35388   3.487   4.510  10.883 -0.2784  0.2266 -0.4026
  269MOL0     C35389   3.403   4.625  10.949  0.5905 -0.0509 -0.0701
  269MOL0     C35390   3.290   4.575  11.051 -0.7505  0.8452  0.5572
  269MOL0     C35391   3.199   4.694  11.086  0.4937  0.2369 -0.2977
  269MOL0     C35392   3.260   4.804  11.173 -0.2638  0.5674 -1.0772
  269MOL0     N35393   3.299   4.751  11.302  0.2091 -0.4249 -0.4011
  269MOL0     C35394   3.433   4.753  11.343  0.1394 -0.3001  0.0476
  269MOL0     C35395   3.428   4.718  11.473  0.0755 -0.3805  0.3050
  269MOL0     C35396   3.539   4.705  11.571 -0.0688 -0.1745 -0.0762
  269MOL0     C35397   3.630   4.829  11.574 -0.3350 -0.2144 -0.2729
  269MOL0     C35398   3.728   4.847  11.685  0.4995  0.5237  1.0922
  269MOL0     C35399   3.803   4.970  11.669 -0.3268 -0.9763 -0.0135
  269MOL0     O35400   3.903   4.966  11.775  0.7366 -0.2294  0.2904
  269MOL0     C35401   4.037   4.967  11.724  0.0181 -0.6000 -0.1334
  269MOL0     C35402   4.120   5.075  11.762  0.6376 -0.6097 -0.1445
  269MOL0     C35403   4.245   5.079  11.707  0.5968  0.1085  0.2540
  269MOL0     C35404   4.296   4.983  11.618  0.2031 -0.5484 -0.5837
  269MOL0     C35405   4.424   4.999  11.550  0.3893  0.2513  0.2953
  269MOL0     O35406   4.451   4.904  11.453 -0.3410  1.8164  0.0073
  269MOL0     C35407   4.574   4.885  11.403 -0.8368 -0.2892  0.0656
  269MOL0     C35408   4.694   4.908  11.476 -0.0457 -0.2426  0.2813
  269MOL0     C35409   4.821   4.881  11.430 -0.3165 -0.1922  0.0450
  269MOL0     C35410   4.825   4.840  11.290 -0.8949 -0.2692 -0.1642
  269MOL0     O35411   4.942   4.804  11.228  0.1159 -0.3499 -0.2969
  269MOL0     C35412   5.050   4.755  11.299 -1.0173  0.8960  0.4021
  269MOL0     C35413   5.167   4.737  11.187  0.4360  0.2627 -0.1771
  269MOL0     C35414   5.302   4.692  11.238  0.5787  0.1618 -0.8449
  269MOL0     C35415   5.414   4.705  11.138  0.3209 -0.2162 -0.2282
  269MOL0     C35416   5.548   4.651  11.183 -0.3540  0.1384  0.2250
  269MOL0     C35417   5.564   4.522  11.263 -0.4716 -0.6856  0.4666
  269MOL0     C35418   5.710   4.472  11.280 -0.1038 -0.1465  0.5007
  269MOL0     C35419   5.761   4.394  11.160 -1.1450  0.0708  0.2489
  269MOL0    Cl35420   5.918   4.321  11.191  0.0331 -0.0948  0.0638
  269MOL0     C35421   4.705   4.835  11.214 -0.1364  0.2128  0.4689
  269MOL0     C35422   4.583   4.846  11.275 -0.3266 -0.0909 -0.0001
  269MOL0     O35423   4.483   5.101  11.568  0.5949  0.2906 -0.0798
  269MOL0     C35424   4.215   4.871  11.584  0.1026  0.2893  0.1094
  269MOL0     C35425   4.087   4.864  11.635 -0.3129  0.4892  0.3470
  269MOL0     N35426   3.293   4.681  11.507 -0.7736 -0.0513  0.4454
  269MOL0     N35427   3.225   4.705  11.404  0.5579 -0.0249 -0.2993
  269MOL0     C35428   4.074   4.520  10.759  0.0871  0.0548 -0.7553
  269MOL0     C35429   4.192   4.531  10.687  0.2319 -0.0880  0.6563
  269MOL0     C35430   4.474   4.575  10.317  0.2293  0.0762  0.7174
  269MOL0     C35431   4.500   4.585  10.178 -0.7575  0.1102  0.8979
  269MOL0     C35432   4.630   4.598  10.122  0.4528 -0.0873 -0.4721
  269MOL0     C35433   4.739   4.608  10.210  0.2546 -0.6655  0.6247
  269MOL0     O35434   4.871   4.617  10.170  1.1556  0.4328 -0.1784
  269MOL0     C35435   4.892   4.643  10.032 -0.2994 -0.2358  0.4830
  269MOL0     C35436   5.021   4.708   9.986  0.0114 -0.1370  0.2686
  269MOL0     C35437   5.135   4.701  10.075  0.2112  0.0003 -0.7246
  269MOL0     C35438   5.264   4.723   9.999  0.4631  0.5082  0.0604
  269MOL0     C35439   5.375   4.732  10.086 -0.6182 -0.2126 -0.2336
  269MOL0     C35440   5.471   4.748  10.157  1.0474 -0.6571 -0.2320
  269MOL0     C35441   4.715   4.597  10.351 -0.3612  0.2891  0.3717
  269MOL0     C35442   4.588   4.581  10.404  0.3180  0.1889  0.1488
  269MOL0     H35443   4.080   4.394  10.393 -2.2225  0.1029  1.0608
  269MOL0     H35444   3.889   4.385  10.508  0.9964  0.1426 -1.7724
  269MOL0     H35445   3.733   4.310  10.838  2.7214  1.2825  1.2294
  269MOL0     H35446   3.798   4.297  10.687  0.2113  0.2314  0.4952
  269MOL0     H35447   3.554   4.341  10.671  2.4292 -2.9202  3.9411
  269MOL0     H35448   3.655   4.452  10.575 -0.3232  1.8842  0.5947
  269MOL0     H35449   3.490   4.606  10.680  1.4880  3.1533 -0.1181
  269MOL0     H35450   3.638   4.624  10.770  0.1718  0.3073 -1.2755
  269MOL0     H35451   3.411   4.432  10.866 -0.7333 -0.2333  3.0253
  269MOL0     H35452   3.547   4.464  10.961 -1.6475 -1.0190 -0.0323
  269MOL0     H35453   3.358   4.672  10.861 -0.1840 -1.5885 -0.5184
  269MOL0     H35454   3.461   4.699  11.006  0.3454 -0.8357  1.2367
  269MOL0     H35455   3.336   4.525  11.137 -1.5823 -2.5699 -0.8143
  269MOL0     H35456   3.235   4.495  11.000  2.4572 -1.2230  0.1016
  269MOL0     H35457   3.156   4.730  10.992 -0.1583 -2.4553 -1.1098
  269MOL0     H35458   3.115   4.656  11.145  2.0315 -0.8241  1.2906
  269MOL0     H35459   3.199   4.895  11.178 -1.2277 -0.1176 -0.0461
  269MOL0     H35460   3.346   4.832  11.111 -0.1893  1.6248 -0.5182
  269MOL0     H35461   3.516   4.784  11.281  0.3555  2.1385  1.4187
  269MOL0     H35462   3.600   4.617  11.551  4.2438  2.1212  1.7786
  269MOL0     H35463   3.480   4.698  11.662 -2.0496 -2.2351 -1.4028
  269MOL0     H35464   3.574   4.922  11.587  0.7168  0.6896 -1.8292
  269MOL0     H35465   3.684   4.845  11.480  2.5501  0.6798  1.4014
  269MOL0     H35466   3.673   4.855  11.779  0.9355  1.5063  1.2821
  269MOL0     H35467   3.795   4.761  11.680  4.1106  2.8517 -6.4282
  269MOL0     H35468   3.738   5.058  11.677 -0.5654 -1.1118 -0.4237
  269MOL0     H35469   3.854   4.986  11.573  0.8110 -1.3529  0.5098
  269MOL0     H35470   4.085   5.152  11.830  0.5326  0.8439 -1.7889
  269MOL0     H35471   4.304   5.166  11.733 -0.9184  0.4927  2.7552
  269MOL0     H35472   4.684   4.939  11.579 -1.7693  1.9307 -0.4569
  269MOL0     H35473   4.909   4.881  11.494 -0.5670 -1.3132  0.4346
  269MOL0     H35474   5.044   4.652  11.337  1.0085  0.7654  0.4820
  269MOL0     H35475   5.090   4.822  11.375  0.4101 -0.3507  0.8267
  269MOL0     H35476   5.178   4.832  11.132 -1.2206  0.2528 -0.5711
  269MOL0     H35477   5.133   4.657  11.121 -0.0097  0.6501 -0.4280
  269MOL0     H35478   5.302   4.586  11.264  0.4909  0.5904  1.0253
  269MOL0     H35479   5.316   4.737  11.337  0.4517 -1.7623  0.0809
  269MOL0     H35480   5.384   4.642  11.053  1.5925 -1.7678  0.4357
  269MOL0     H35481   5.419   4.812  11.116 -0.2771 -0.0806  0.2807
  269MOL0     H35482   5.602   4.728  11.240  2.8642  0.9059 -3.3877
  269MOL0     H35483   5.600   4.632  11.088  0.2671  1.2569  0.3304
  269MOL0     H35484   5.503   4.447  11.212  0.7226 -0.4546 -1.4181
  269MOL0     H35485   5.528   4.539  11.364  1.3105  1.9015  0.7670
  269MOL0     H35486   5.768   4.564  11.292  0.1335 -0.2917  0.4649
  269MOL0     H35487   5.725   4.412  11.370 -2.6654 -0.5336  0.7432
  269MOL0     H35488   5.774   4.470  11.083 -2.2354  0.6547  0.6208
  269MOL0     H35489   5.694   4.311  11.137 -1.5449  0.0751  1.3214
  269MOL0     H35490   4.712   4.800  11.111  1.9017 -1.4712  1.1126
  269MOL0     H35491   4.494   4.832  11.214 -0.5946 -1.4045  0.6534
  269MOL0     H35492   4.257   4.792  11.523  0.3425 -0.6790  1.4777
  269MOL0     H35493   4.024   4.780  11.609  2.0263 -0.9660 -1.0064
  269MOL0     H35494   4.085   4.547  10.863  2.3527 -0.0745 -0.9058
  269MOL0     H35495   4.277   4.577  10.735 -0.1926 -1.1684  2.5355
  269MOL0     H35496   4.418   4.574  10.108 -0.0503  1.8693 -0.2706
  269MOL0     H35497   4.636   4.615  10.015 -2.1997  0.8213 -0.5544
  269MOL0     H35498   4.814   4.714  10.001  0.3488 -0.5375 -2.1077
  269MOL0     H35499   4.888   4.545   9.984 -0.0035 -0.9115  1.7973
  269MOL0     H35500   5.047   4.657   9.893 -1.0213  1.7217 -1.1171
  269MOL0     H35501   4.996   4.809   9.951  2.3767 -0.6228 -3.3865
  269MOL0     H35502   5.132   4.599  10.116 -2.4930 -1.2592 -3.6451
  269MOL0     H35503   5.119   4.782  10.147 -1.3522 -1.0968  0.2432
  269MOL0     H35504   5.270   4.640   9.928  0.1548  0.8333 -0.3471
  269MOL0     H35505   5.264   4.816   9.943 -1.6089  1.8904  2.1568
  269MOL0     H35506   5.551   4.764  10.227  0.1002  0.4111  0.6612
  269MOL0     H35507   4.803   4.608  10.413  1.4045  0.1337 -1.9764
  269MOL0     H35508   4.574   4.581  10.511  2.5234  1.3914  0.5038
  270MOL0     O35509   0.033   0.409   2.187  0.0583  0.2028  0.6981
  270MOL0     C35510   0.048   0.305   2.121 -0.7946 -0.6535  0.3560
  270MOL0     O35511  -0.009   0.183   2.141 -0.2932 -0.1069 -0.6832
  270MOL0     C35512  -0.102   0.173   2.242 -0.4396  0.0541  0.2283
  270MOL0     C35513  -0.075   0.080   2.335 -0.9690  0.0448 -0.9931
  270MOL0     C35514  -0.163   0.063   2.445 -0.0740  0.4352 -0.7673
  270MOL0     C35515  -0.277   0.154   2.463 -0.3361  0.1524 -0.1346
  270MOL0     O35516  -0.370   0.152   2.565  0.7660 -0.1742  0.0780
  270MOL0     C35517  -0.351   0.076   2.683  0.0614  0.2693 -0.1987
  270MOL0     C35518  -0.470   0.108   2.770  0.6781 -1.0840 -0.4679
  270MOL0     C35519  -0.464   0.043   2.917 -0.2426  0.6382 -0.0713
  270MOL0     C35520  -0.598   0.057   2.990  0.8281  0.5037  0.6093
  270MOL0     C35521  -0.608  -0.036   3.114 -0.0893 -0.6261  0.3651
  270MOL0     C35522  -0.750  -0.040   3.165  0.1152  0.4304  0.0379
  270MOL0     C35523  -0.758  -0.134   3.287  1.0473  0.3193  0.0050
  270MOL0     C35524  -0.908  -0.178   3.299 -0.3030  0.3035  0.5446
  270MOL0     N35525  -0.991  -0.062   3.328 -0.1380  0.8265  0.7998
  270MOL0     C35526  -0.976   0.022   3.435  0.2073  0.3670 -0.1839
  270MOL0     C35527  -1.088   0.092   3.416 -0.2567 -1.4296  0.7630
  270MOL0     C35528  -1.137   0.189   3.521  0.8679  0.2003 -0.7377
  270MOL0     C35529  -1.144   0.135   3.662  0.0047  0.9575  0.2705
  270MOL0     C35530  -1.236   0.014   3.680 -0.1342 -0.3456 -0.4885
  270MOL0     C35531  -1.380   0.027   3.637 -0.0187  0.7759  0.0607
  270MOL0     O35532  -1.431   0.152   3.677 -0.0230 -0.3649  0.3861
  270MOL0     C35533  -1.566   0.175   3.678  0.4933 -0.3782  0.2173
  270MOL0     C35534  -1.610   0.272   3.765 -0.1619  0.0243 -0.5977
  270MOL0     C35535  -1.754   0.290   3.785  0.6355 -0.1844  0.4209
  270MOL0     C35536  -1.852   0.207   3.711 -0.5113  0.1076  0.5950
  270MOL0     C35537  -1.997   0.228   3.723  0.1878  0.1043  1.3567
  270MOL0     O35538  -2.074   0.159   3.637  0.0264 -0.5737 -0.1256
  270MOL0     C35539  -2.208   0.145   3.660 -0.1898 -0.1821  0.2901
  270MOL0     C35540  -2.244   0.019   3.714  0.3738 -0.4192 -0.1686
  270MOL0     C35541  -2.381  -0.007   3.736  0.4978 -0.0860  0.4144
  270MOL0     C35542  -2.483   0.090   3.698  0.6878  0.3635 -0.0637
  270MOL0     O35543  -2.623   0.077   3.716 -0.2499 -0.1292 -0.1813
  270MOL0     C35544  -2.657  -0.060   3.762 -0.4868  0.3588 -0.2283
  270MOL0     C35545  -2.803  -0.079   3.773  0.3546 -0.2875  0.0960
  270MOL0     C35546  -2.889  -0.004   3.659  0.1749 -0.0938 -0.0644
  270MOL0     C35547  -3.040  -0.043   3.660 -0.3595 -0.8533  0.0206
  270MOL0     C35548  -3.120  -0.022   3.532  0.9489 -0.5496 -0.3975
  270MOL0     C35549  -3.143   0.126   3.495  0.6334 -0.2064 -0.2008
  270MOL0     C35550  -3.222   0.218   3.594 -0.0917  0.6223  0.4334
  270MOL0     C35551  -3.301   0.327   3.526  0.6235 -0.1588  0.7787
  270MOL0    Cl35552  -3.436   0.268   3.414  0.5014 -0.1958  0.2504
  270MOL0     C35553  -2.436   0.207   3.628 -0.0796 -0.4140 -0.1802
  270MOL0     C35554  -2.303   0.232   3.610 -0.2035 -0.7709 -0.4217
  270MOL0     O35555  -2.038   0.311   3.800 -0.0844  0.0457 -0.5590
  270MOL0     C35556  -1.791   0.111   3.621 -0.5844  0.5989 -0.8018
  270MOL0     C35557  -1.656   0.090   3.611  0.6449  0.2439  0.0849
  270MOL0     N35558  -1.164   0.045   3.314  0.2094  0.1527  0.1351
  270MOL0     N35559  -1.105  -0.047   3.252 -0.7450 -0.4397 -0.4053
  270MOL0     C35560  -0.300   0.250   2.359 -0.3321  0.2994  0.2402
  270MOL0     C35561  -0.209   0.269   2.254 -0.1537  0.7847  0.0588
  270MOL0     C35562   0.131   0.317   1.992 -0.8194 -0.6885 -0.1420
  270MOL0     C35563   0.106   0.227   1.892 -0.6138 -0.5548 -0.2820
  270MOL0     C35564   0.162   0.259   1.768 -0.2523 -0.1063 -1.1388
  270MOL0     C35565   0.256   0.361   1.743 -0.1871 -0.3922  0.1779
  270MOL0     O35566   0.305   0.392   1.622  0.4083  0.1267  1.2216
  270MOL0     C35567   0.320   0.528   1.583 -0.5306  0.4939  1.4542
  270MOL0     C35568   0.469   0.557   1.575 -0.3181  0.4237 -0.4983
  270MOL0     C35569   0.495   0.692   1.514 -0.0474 -0.4387  0.6981
  270MOL0     C35570   0.646   0.726   1.530  0.4560 -0.3524  0.2364
  270MOL0     C35571   0.722   0.664   1.419  0.1328  0.3826  0.2961
  270MOL0     C35572   0.775   0.601   1.331 -0.8041 -0.3379  0.3304
  270MOL0     C35573   0.290   0.437   1.850  0.0667 -0.5799  0.1970
  270MOL0     C35574   0.224   0.415   1.974  0.0793 -0.6705  0.5216
  270MOL0     H35575   0.015   0.020   2.324 -0.5884  0.0568  1.4430
  270MOL0     H35576  -0.151  -0.021   2.513  0.2827 -0.4272 -1.8465
  270MOL0     H35577  -0.263   0.108   2.739  0.7595 -0.9365 -0.5771
  270MOL0     H35578  -0.353  -0.032   2.668 -1.3802  0.4693 -1.8103
  270MOL0     H35579  -0.562   0.074   2.720 -0.5181  0.7938  0.3494
  270MOL0     H35580  -0.500   0.212   2.783 -0.2842 -1.4561  0.4538
  270MOL0     H35581  -0.385   0.082   2.982  1.5114  1.6200 -2.6148
  270MOL0     H35582  -0.431  -0.059   2.900 -0.6708  0.6698 -1.1930
  270MOL0     H35583  -0.629   0.159   3.011 -0.5624 -0.5449  4.3704
  270MOL0     H35584  -0.665   0.017   2.913  1.0429 -1.8728  1.5554
  270MOL0     H35585  -0.549   0.006   3.196  0.3370  1.0822 -0.7433
  270MOL0     H35586  -0.557  -0.129   3.089  2.1864  0.4624  0.7124
  270MOL0     H35587  -0.819  -0.075   3.088  0.4497 -0.0779 -0.0383
  270MOL0     H35588  -0.778   0.063   3.186  6.6536  2.6271  0.0404
  270MOL0     H35589  -0.709  -0.230   3.270 -0.3513 -0.3757 -0.2857
  270MOL0     H35590  -0.718  -0.097   3.382  0.8595 -2.5754  1.3108
  270MOL0     H35591  -0.910  -0.241   3.389 -3.1134  3.8416  3.2818
  270MOL0     H35592  -0.942  -0.232   3.211  2.4393  1.6251 -1.4532
  270MOL0     H35593  -0.905   0.040   3.516 -0.4935 -1.1523  0.8245
  270MOL0     H35594  -1.229   0.241   3.492  0.6941 -0.7086 -1.9241
  270MOL0     H35595  -1.060   0.265   3.541  0.2184  0.6279  0.1808
  270MOL0     H35596  -1.179   0.211   3.733 -0.3900  0.5080  0.5647
  270MOL0     H35597  -1.039   0.109   3.677  0.2904 -0.8492 -3.7236
  270MOL0     H35598  -1.196  -0.069   3.620  3.8872  2.2558 -1.8102
  270MOL0     H35599  -1.230  -0.011   3.786  0.4474  0.4257 -0.3371
  270MOL0     H35600  -1.431  -0.057   3.685  1.3814 -0.1690 -0.0385
  270MOL0     H35601  -1.388   0.013   3.529  0.4265  0.0638  0.1151
  270MOL0     H35602  -1.539   0.325   3.827 -0.6334 -0.0317  0.0017
  270MOL0     H35603  -1.784   0.374   3.847 -0.8282 -1.1408  1.0561
  270MOL0     H35604  -2.171  -0.048   3.757  1.6250 -0.9344 -2.9161
  270MOL0     H35605  -2.406  -0.101   3.783 -2.5925 -0.1408 -1.1037
  270MOL0     H35606  -2.604  -0.081   3.855  2.2937  1.3026 -1.4891
  270MOL0     H35607  -2.627  -0.136   3.689  0.3239 -0.7227  1.2054
  270MOL0     H35608  -2.849  -0.041   3.865 -3.8750  2.4384 -2.7703
  270MOL0     H35609  -2.825  -0.186   3.776  2.4309 -0.7395  0.6275
  270MOL0     H35610  -2.843  -0.019   3.560 -0.6871  2.1119 -0.8782
  270MOL0     H35611  -2.877   0.103   3.681 -0.3096  0.4638 -2.2503
  270MOL0     H35612  -3.033  -0.150   3.682  0.3866 -1.1027 -1.3631
  270MOL0     H35613  -3.099  -0.001   3.742  0.0481 -0.0642 -0.0844
  270MOL0     H35614  -3.218  -0.069   3.536  2.0354 -2.8403  2.0138
  270MOL0     H35615  -3.080  -0.083   3.450 -1.1252  1.2029 -2.8887
  270MOL0     H35616  -3.191   0.134   3.397 -0.8924 -1.9866  0.3377
  270MOL0     H35617  -3.047   0.176   3.480 -0.0584  0.7692 -1.6940
  270MOL0     H35618  -3.300   0.158   3.641 -0.5251  0.9702  0.1644
  270MOL0     H35619  -3.158   0.256   3.675  1.0772  1.1084 -0.6860
  270MOL0     H35620  -3.225   0.384   3.472 -2.0011  4.2279  1.1296
  270MOL0     H35621  -3.343   0.411   3.583  1.0731  0.7893 -0.2338
  270MOL0     H35622  -2.512   0.281   3.604  0.3421  0.1826  0.3168
  270MOL0     H35623  -2.272   0.323   3.559 -0.3350 -0.7956 -0.5459
  270MOL0     H35624  -1.857   0.036   3.579  0.4046 -0.8072  0.0404
  270MOL0     H35625  -1.626   0.002   3.555 -2.9452 -2.1079  1.5012
  270MOL0     H35626  -0.384   0.316   2.381  1.0216  1.5034  2.1829
  270MOL0     H35627  -0.233   0.342   2.178 -2.5298  0.4661  0.3952
  270MOL0     H35628   0.033   0.146   1.896  1.3099 -2.5082 -2.2789
  270MOL0     H35629   0.134   0.193   1.687  2.5605 -2.3106 -0.4495
  270MOL0     H35630   0.264   0.601   1.643  0.5475  2.6848 -0.0979
  270MOL0     H35631   0.285   0.533   1.480 -0.2982  1.4287  1.4098
  270MOL0     H35632   0.511   0.547   1.675  0.4990 -0.4643 -0.9234
  270MOL0     H35633   0.524   0.482   1.517  4.3564  1.7332  1.7873
  270MOL0     H35634   0.434   0.764   1.569  1.2041  0.4069  1.0233
  270MOL0     H35635   0.460   0.703   1.411  1.8608  1.1375  0.1456
  270MOL0     H35636   0.669   0.833   1.520  1.6452 -0.7936 -2.9142
  270MOL0     H35637   0.690   0.688   1.622  1.6351  2.0837  0.7542
  270MOL0     H35638   0.825   0.537   1.262  2.0685  0.0604  1.8909
  270MOL0     H35639   0.377   0.502   1.852  1.4242 -2.3423  1.7245
  270MOL0     H35640   0.233   0.486   2.056 -1.2787  0.6961 -0.4688
  271MOL0     O35641   5.687   0.056   0.874  0.6585  0.0461 -0.7718
  271MOL0     C35642   5.694  -0.031   0.964 -0.0040 -0.1704 -0.0255
  271MOL0     O35643   5.591  -0.064   1.049  0.0947  0.2920 -0.1313
  271MOL0     C35644   5.458  -0.029   1.030  0.0422 -0.5593  0.2251
  271MOL0     C35645   5.393   0.033   0.919  0.2638 -0.4981  1.1897
  271MOL0     C35646   5.255   0.063   0.925  0.4742 -0.9322 -0.1670
  271MOL0     C35647   5.171   0.031   1.034 -0.1023 -0.1849 -0.0112
  271MOL0     O35648   5.040   0.057   1.024 -0.9558 -0.3465  0.6135
  271MOL0     C35649   4.945   0.018   1.120  0.6219  0.0286 -0.3959
  271MOL0     C35650   4.799   0.028   1.063 -0.1698 -0.5155  0.2015
  271MOL0     C35651   4.699  -0.021   1.161  0.1145 -0.1818  0.2175
  271MOL0     C35652   4.560  -0.014   1.092  0.1199 -0.2942 -0.0177
  271MOL0     C35653   4.450  -0.053   1.187 -0.1259 -0.1087  0.0590
  271MOL0     C35654   4.312  -0.001   1.141  0.3043 -0.1269  0.5670
  271MOL0     C35655   4.210  -0.072   1.220  0.1370  0.6039  0.3415
  271MOL0     C35656   4.086   0.004   1.256 -0.3210 -0.6159 -0.3588
  271MOL0     N35657   4.032   0.102   1.160  0.2196  0.2217  0.1394
  271MOL0     C35658   4.030   0.084   1.025  0.5392 -0.2608 -0.0683
  271MOL0     C35659   3.968   0.195   0.981  0.0032  0.6827  0.5817
  271MOL0     C35660   3.943   0.241   0.834 -0.5553 -0.2898  0.3933
  271MOL0     C35661   3.835   0.159   0.769 -0.0809  0.3718  0.2565
  271MOL0     C35662   3.713   0.145   0.867  0.8770  0.4658 -1.0641
  271MOL0     C35663   3.602   0.066   0.786 -0.2574 -0.6606 -0.0249
  271MOL0     O35664   3.494   0.088   0.873 -0.3579 -0.3047 -0.1558
  271MOL0     C35665   3.374   0.037   0.830  0.0398 -0.1382  0.3651
  271MOL0     C35666   3.343  -0.002   0.701 -0.3705  0.2013  0.5369
  271MOL0     C35667   3.214  -0.060   0.674 -0.5457 -0.4310 -0.6975
  271MOL0     C35668   3.110  -0.055   0.770  0.0006  0.7370 -0.1077
  271MOL0     C35669   2.970  -0.093   0.719 -0.4677 -0.0156  0.1401
  271MOL0     O35670   2.875  -0.079   0.819 -0.1150  0.3349  0.0683
  271MOL0     C35671   2.745  -0.089   0.788  0.2403  0.5909  1.3559
  271MOL0     C35672   2.679  -0.194   0.716 -0.3603  0.3399 -1.2160
  271MOL0     C35673   2.547  -0.188   0.683  0.4435 -0.4988 -0.5153
  271MOL0     C35674   2.462  -0.082   0.729  0.8694 -0.5637  0.1537
  271MOL0     O35675   2.329  -0.098   0.699 -0.2128  0.0661 -0.0814
  271MOL0     C35676   2.240  -0.012   0.770 -0.7228 -0.1346  0.5051
  271MOL0     C35677   2.094  -0.046   0.757  0.0045  0.6505 -0.4873
  271MOL0     C35678   2.007   0.069   0.812  0.0883  0.0627 -0.0976
  271MOL0     C35679   1.862   0.024   0.797 -0.2756  0.0623 -0.5402
  271MOL0     C35680   1.762   0.123   0.856 -0.0974  0.4404  0.5586
  271MOL0     C35681   1.622   0.073   0.834 -0.5177 -0.8871 -0.3074
  271MOL0     C35682   1.531   0.148   0.926  0.9277 -0.1455 -0.8545
  271MOL0     C35683   1.394   0.097   0.906  0.1868 -0.5745 -0.0010
  271MOL0    Cl35684   1.281   0.189   1.016 -0.0068  0.3647  0.1683
  271MOL0     C35685   2.522   0.024   0.804 -0.1347 -0.2692 -0.5013
  271MOL0     C35686   2.663   0.020   0.829 -0.2331 -0.4243 -0.1308
  271MOL0     O35687   2.947  -0.116   0.599 -0.8145 -0.0573 -0.0463
  271MOL0     C35688   3.152  -0.030   0.904 -0.5792  0.3384  0.4883
  271MOL0     C35689   3.282   0.012   0.934 -0.3314  0.2218  0.0052
  271MOL0     N35690   3.935   0.278   1.080 -0.8629  0.1157 -0.4191
  271MOL0     N35691   3.976   0.225   1.193  0.5952  0.1971 -0.3841
  271MOL0     C35692   5.233  -0.034   1.147 -0.7635 -0.5498  0.7146
  271MOL0     C35693   5.376  -0.056   1.141  0.0232  0.9727 -0.3923
  271MOL0     C35694   5.838  -0.070   0.994 -0.0173 -0.2307 -0.0234
  271MOL0     C35695   5.876  -0.152   1.101 -0.8831 -0.0868  0.5573
  271MOL0     C35696   6.009  -0.195   1.109  0.2214 -0.1004  0.1635
  271MOL0     C35697   6.111  -0.155   1.024  0.4920 -0.5593 -0.2021
  271MOL0     O35698   6.248  -0.193   1.039  0.4892  0.8810  0.6163
  271MOL0     C35699   6.290  -0.262   1.159 -0.3961 -0.2215 -0.0164
  271MOL0     C35700   6.435  -0.308   1.152  0.3518  0.2285  0.5314
  271MOL0     C35701   6.521  -0.190   1.178  0.0251  0.0807  0.1751
  271MOL0     C35702   6.631  -0.193   1.075 -0.2161  0.0002 -0.4525
  271MOL0     C35703   6.702  -0.062   1.085 -0.1369  0.2499  0.5037
  271MOL0     C35704   6.763   0.039   1.096 -0.2024  0.7086  0.3570
  271MOL0     C35705   6.077  -0.061   0.919 -0.3827  0.1855  0.1358
  271MOL0     C35706   5.944  -0.033   0.905 -0.5549  0.5319 -0.0447
  271MOL0     H35707   5.457   0.069   0.839 -2.4983 -1.7536 -1.8156
  271MOL0     H35708   5.207   0.123   0.848  0.0661  0.3853  1.0677
  271MOL0     H35709   4.952   0.079   1.211  0.9341 -0.8069  0.1499
  271MOL0     H35710   4.972  -0.085   1.143  2.3037  0.3485 -0.8250
  271MOL0     H35711   4.804  -0.020   0.965 -1.9562  0.3626 -0.3762
  271MOL0     H35712   4.782   0.133   1.037  0.8099 -0.2093  0.7785
  271MOL0     H35713   4.700   0.030   1.258 -5.8545  2.1065 -0.4424
  271MOL0     H35714   4.718  -0.125   1.186  1.4483 -0.2454 -0.9716
  271MOL0     H35715   4.547   0.089   1.057 -0.4964  0.6022  2.6525
  271MOL0     H35716   4.555  -0.079   1.004 -0.4960 -1.1311  0.6281
  271MOL0     H35717   4.470  -0.013   1.287  2.3536  0.6188 -0.6513
  271MOL0     H35718   4.461  -0.162   1.196  0.4275  0.0873  2.4600
  271MOL0     H35719   4.292  -0.019   1.035  2.4179 -1.4221  0.3326
  271MOL0     H35720   4.307   0.107   1.158 -0.0783 -0.0058 -0.2976
  271MOL0     H35721   4.169  -0.153   1.159  0.4233  0.7209 -0.0151
  271MOL0     H35722   4.252  -0.127   1.305  0.5248 -0.5947 -0.5961
  271MOL0     H35723   4.100   0.055   1.352 -2.2873 -0.4687 -0.1151
  271MOL0     H35724   4.002  -0.064   1.269 -1.1193  0.6179  1.2095
  271MOL0     H35725   4.077   0.002   0.971  2.5876 -0.4128  1.7673
  271MOL0     H35726   4.040   0.236   0.783  0.8932  0.5117  2.8879
  271MOL0     H35727   3.919   0.347   0.846  0.1378 -0.2356  1.5360
  271MOL0     H35728   3.869   0.060   0.737 -1.7977  0.1691 -1.1132
  271MOL0     H35729   3.801   0.211   0.679  1.9867  0.1975 -0.6833
  271MOL0     H35730   3.732   0.085   0.956  0.6174  0.0273 -1.3031
  271MOL0     H35731   3.687   0.247   0.897  1.7586  1.0186 -2.0814
  271MOL0     H35732   3.627  -0.039   0.768  1.8098 -0.6205  2.1410
  271MOL0     H35733   3.592   0.119   0.691  4.0505  1.9866  0.7167
  271MOL0     H35734   3.416   0.011   0.622 -1.5962 -4.4170 -1.7189
  271MOL0     H35735   3.203  -0.078   0.568 -1.1671 -1.0263 -0.5426
  271MOL0     H35736   2.732  -0.285   0.693 -0.0371 -0.0893  1.0281
  271MOL0     H35737   2.499  -0.260   0.617  1.8211 -0.5408 -1.5252
  271MOL0     H35738   2.263   0.080   0.716  0.5601 -2.8026 -4.0781
  271MOL0     H35739   2.261  -0.017   0.877 -0.7244  1.1237  0.5809
  271MOL0     H35740   2.074  -0.143   0.805 -0.1266 -0.3715 -2.4955
  271MOL0     H35741   2.076  -0.061   0.650  2.3299 -0.7896 -0.7627
  271MOL0     H35742   2.022   0.159   0.751 -2.3770  0.5446 -0.1095
  271MOL0     H35743   2.030   0.104   0.913 -3.6716 -0.6335  1.1607
  271MOL0     H35744   1.835   0.008   0.692 -1.6035 -3.3777  0.1899
  271MOL0     H35745   1.846  -0.076   0.839 -2.3222  0.1786 -0.9449
  271MOL0     H35746   1.773   0.225   0.817 -0.0509  0.6300  1.0574
  271MOL0     H35747   1.773   0.137   0.964 -1.3430 -1.4178  0.9690
  271MOL0     H35748   1.616  -0.031   0.869 -0.8033 -1.2919 -1.5386
  271MOL0     H35749   1.595   0.085   0.729 -2.9778  2.0281  0.5394
  271MOL0     H35750   1.572   0.127   1.026  0.5692 -0.6623 -0.8086
  271MOL0     H35751   1.537   0.254   0.903  1.5481  0.4748  1.7625
  271MOL0     H35752   1.389  -0.010   0.929 -1.9482 -0.7107 -0.8672
  271MOL0     H35753   1.356   0.130   0.809  0.8667 -1.1649 -0.4761
  271MOL0     H35754   2.479   0.118   0.836  1.8406  0.4544  0.1944
  271MOL0     H35755   2.701   0.112   0.871 -2.3861  2.1474 -3.4027
  271MOL0     H35756   3.081  -0.038   0.985 -1.5400 -1.5111 -0.4784
  271MOL0     H35757   3.304   0.052   1.033  0.6902  1.3917 -0.6586
  271MOL0     H35758   5.184  -0.059   1.241  2.1457 -1.8682  2.0357
  271MOL0     H35759   5.423  -0.099   1.229 -2.1981  2.8555  1.8696
  271MOL0     H35760   5.798  -0.180   1.170 -1.2409 -1.4998 -0.3805
  271MOL0     H35761   6.034  -0.257   1.195  0.6861  0.2088  0.2587
  271MOL0     H35762   6.233  -0.355   1.168  0.2969 -0.9014 -2.1120
  271MOL0     H35763   6.272  -0.209   1.253 -1.3355  1.2054 -0.9647
  271MOL0     H35764   6.449  -0.387   1.226  0.2245  0.6927  1.0633
  271MOL0     H35765   6.443  -0.347   1.050 -1.5921 -1.1575  0.8523
  271MOL0     H35766   6.561  -0.195   1.280 -0.8508 -1.1624  0.4738
  271MOL0     H35767   6.463  -0.100   1.156  1.4408  0.4132 -2.6834
  271MOL0     H35768   6.693  -0.281   1.090 -2.4927 -1.3045  2.2389
  271MOL0     H35769   6.594  -0.198   0.972  1.1940 -0.5677 -0.9523
  271MOL0     H35770   6.818   0.131   1.093 -1.3863  1.3934 -1.8396
  271MOL0     H35771   6.158  -0.026   0.856 -1.2468 -0.6775 -1.4989
  271MOL0     H35772   5.923   0.033   0.822 -3.9268  0.9719  0.9838
  272MOL0     O35773   4.770   0.686   1.856 -0.5903 -0.0938 -0.8296
  272MOL0     C35774   4.765   0.621   1.962 -0.6128  0.4076  0.3138
  272MOL0     O35775   4.655   0.562   2.015 -0.6000  0.4447 -0.4852
  272MOL0     C35776   4.535   0.619   1.976  0.2876 -0.1939 -0.9927
  272MOL0     C35777   4.444   0.542   1.913 -0.3349  0.4093  0.8485
  272MOL0     C35778   4.319   0.592   1.873 -0.2153 -0.3401 -0.2237
  272MOL0     C35779   4.284   0.726   1.906  0.6677  0.2600 -0.7679
  272MOL0     O35780   4.157   0.763   1.879 -0.1796  0.3752 -0.1054
  272MOL0     C35781   4.129   0.785   1.737  0.0781 -0.7587  0.1547
  272MOL0     C35782   3.996   0.852   1.720  0.3036 -0.2701  0.3766
  272MOL0     C35783   3.879   0.773   1.787  0.1695  0.0303  0.1151
  272MOL0     C35784   3.747   0.812   1.722  0.4640 -0.1067 -0.6475
  272MOL0     C35785   3.624   0.760   1.797  0.1292 -0.4354 -0.4674
  272MOL0     C35786   3.496   0.817   1.728 -0.7452  0.0557  0.0793
  272MOL0     C35787   3.385   0.717   1.740 -0.2427 -0.6453  0.5304
  272MOL0     C35788   3.246   0.772   1.689  0.2466  0.7366  0.1631
  272MOL0     N35789   3.146   0.664   1.716 -0.2896  0.0225  0.9551
  272MOL0     C35790   3.112   0.613   1.839 -0.6329 -0.5527 -0.6410
  272MOL0     C35791   3.034   0.501   1.809 -0.4683 -1.3451  0.1850
  272MOL0     C35792   2.996   0.402   1.910 -0.2674  0.9621  0.3677
  272MOL0     C35793   2.862   0.445   1.960  0.4030  1.8068 -0.7730
  272MOL0     C35794   2.834   0.355   2.086 -0.0932  0.7661  0.8972
  272MOL0     C35795   2.794   0.216   2.045  0.0494 -0.1433 -0.7028
  272MOL0     O35796   2.772   0.135   2.163  0.1414 -0.2862 -1.0069
  272MOL0     C35797   2.645   0.133   2.232 -0.9886  0.0626  0.3562
  272MOL0     C35798   2.543   0.209   2.183  0.8092  0.5767 -0.2318
  272MOL0     C35799   2.415   0.202   2.246  0.0653 -0.7514 -0.2109
  272MOL0     C35800   2.398   0.141   2.366 -0.5318  0.3745 -0.7475
  272MOL0     C35801   2.270   0.142   2.441 -0.6037  0.6768  0.2365
  272MOL0     O35802   2.160   0.184   2.378  0.2986 -0.2264  0.1414
  272MOL0     C35803   2.032   0.197   2.438  0.2184 -0.6412  0.0591
  272MOL0     C35804   1.957   0.309   2.404 -0.2524  0.3050 -0.5152
  272MOL0     C35805   1.833   0.324   2.462  0.6546 -0.5753 -0.1524
  272MOL0     C35806   1.784   0.228   2.552 -0.1454  0.6240  0.0391
  272MOL0     O35807   1.661   0.230   2.620 -0.5487 -0.7791 -0.0459
  272MOL0     C35808   1.602   0.352   2.663 -0.7729 -0.1294  0.1605
  272MOL0     C35809   1.479   0.400   2.585  0.8608  0.1822  0.1466
  272MOL0     C35810   1.388   0.485   2.672 -0.1721  0.3488 -0.3886
  272MOL0     C35811   1.270   0.551   2.592 -0.0792 -0.0487  0.2894
  272MOL0     C35812   1.187   0.653   2.670  0.6846  0.3037  0.3200
  272MOL0     C35813   1.094   0.720   2.571  0.4699  0.0056 -0.2006
  272MOL0     C35814   1.037   0.849   2.628  0.2573 -0.1032  0.8588
  272MOL0     C35815   1.141   0.957   2.626  0.2487  0.4789  0.5374
  272MOL0    Cl35816   1.056   1.097   2.691 -0.0814  0.0869  0.1608
  272MOL0     C35817   1.855   0.111   2.577 -0.0271  0.4071  0.0631
  272MOL0     C35818   1.985   0.093   2.527  0.4801 -0.4534  1.0161
  272MOL0     O35819   2.278   0.108   2.559  0.0017  0.4414  0.1009
  272MOL0     C35820   2.508   0.071   2.418  0.7730  0.3262  0.2473
  272MOL0     C35821   2.631   0.055   2.347  0.6499  0.1703 -0.1546
  272MOL0     N35822   3.005   0.493   1.672  0.5298 -0.6358 -0.8586
  272MOL0     N35823   3.076   0.593   1.618  0.6627 -1.4151 -0.3788
  272MOL0     C35824   4.385   0.806   1.974  0.1838  0.1860 -0.5854
  272MOL0     C35825   4.505   0.747   2.012 -0.0631 -0.1186  0.1435
  272MOL0     C35826   4.892   0.595   2.041 -0.7901  0.2826  0.2642
  272MOL0     C35827   5.015   0.638   1.992 -0.2386 -0.9013  0.3372
  272MOL0     C35828   5.140   0.617   2.062  0.3717  0.7171 -0.4417
  272MOL0     C35829   5.140   0.540   2.183  0.0877  0.3481 -0.1990
  272MOL0     O35830   5.255   0.526   2.260  0.8315 -0.4155 -0.0051
  272MOL0     C35831   5.343   0.634   2.284 -0.1316 -0.3748  0.5154
  272MOL0     C35832   5.442   0.661   2.173  0.0212 -0.4853  0.6822
  272MOL0     C35833   5.577   0.601   2.198  0.4344  0.6521  0.2905
  272MOL0     C35834   5.680   0.644   2.104  0.0864  0.2564  0.7351
  272MOL0     C35835   5.811   0.599   2.154 -0.0224  0.1095 -0.7890
  272MOL0     C35836   5.921   0.572   2.200  0.2835 -0.8102 -0.0028
  272MOL0     C35837   5.021   0.481   2.226  0.0169 -0.7027  0.1184
  272MOL0     C35838   4.901   0.503   2.154  0.7392 -0.4257  0.4354
  272MOL0     H35839   4.475   0.442   1.883 -4.3984 -0.6402 -0.4314
  272MOL0     H35840   4.245   0.529   1.824 -1.0442  0.5676 -0.1646
  272MOL0     H35841   4.126   0.684   1.695  0.6058 -0.8961  0.4434
  272MOL0     H35842   4.206   0.848   1.692 -1.1950  0.5533 -0.2694
  272MOL0     H35843   3.977   0.842   1.612  0.0620 -2.0442  0.5622
  272MOL0     H35844   4.005   0.954   1.760 -0.6552  0.2821 -0.7262
  272MOL0     H35845   3.888   0.792   1.894  3.3445  0.9631 -0.2155
  272MOL0     H35846   3.870   0.664   1.780 -2.4423  0.0696  1.3585
  272MOL0     H35847   3.744   0.921   1.730  0.5260 -0.2487  2.2241
  272MOL0     H35848   3.742   0.785   1.616  0.9823 -3.7170  0.1127
  272MOL0     H35849   3.629   0.803   1.898  0.4991 -0.9195 -0.2732
  272MOL0     H35850   3.619   0.651   1.801 -3.8533 -0.4542 -2.0421
  272MOL0     H35851   3.522   0.842   1.624 -0.7901 -0.7984 -0.1416
  272MOL0     H35852   3.471   0.912   1.777  0.3947 -0.2185  1.2300
  272MOL0     H35853   3.397   0.623   1.685 -1.5370 -0.4528 -0.1170
  272MOL0     H35854   3.378   0.692   1.846  0.4539  0.9930  0.9895
  272MOL0     H35855   3.263   0.800   1.585  3.7007  2.0837  0.9529
  272MOL0     H35856   3.207   0.862   1.738 -1.1982  1.5531 -2.2974
  272MOL0     H35857   3.152   0.639   1.936 -2.6550  0.0244  0.0939
  272MOL0     H35858   3.072   0.388   1.987  2.8250  0.7986 -2.4748
  272MOL0     H35859   2.987   0.304   1.864 -0.5485  1.5285 -0.8113
  272MOL0     H35860   2.787   0.429   1.882  0.3266  2.4527 -0.8352
  272MOL0     H35861   2.851   0.547   1.996  1.1930  1.1840  1.3667
  272MOL0     H35862   2.920   0.343   2.153 -0.5842 -1.3827  1.2507
  272MOL0     H35863   2.749   0.405   2.134 -1.6544 -2.3180  1.6543
  272MOL0     H35864   2.880   0.171   1.996 -0.4663 -3.3719  1.1016
  272MOL0     H35865   2.713   0.219   1.972  0.6518  1.3442 -1.3431
  272MOL0     H35866   2.547   0.247   2.081  0.9109 -2.0998 -1.3169
  272MOL0     H35867   2.335   0.263   2.206  0.5860  2.3574  2.9533
  272MOL0     H35868   1.994   0.381   2.332 -1.0480  1.1229 -0.1183
  272MOL0     H35869   1.774   0.412   2.437  0.8969  0.0073  1.2085
  272MOL0     H35870   1.679   0.430   2.658 -0.9591  0.1872  1.7546
  272MOL0     H35871   1.573   0.337   2.767  1.3739 -1.0061  0.6882
  272MOL0     H35872   1.412   0.322   2.550 -1.3139  2.3083 -0.7156
  272MOL0     H35873   1.501   0.455   2.493 -4.0777  0.9712 -0.8124
  272MOL0     H35874   1.441   0.559   2.732  0.6476 -0.6844  0.1916
  272MOL0     H35875   1.352   0.417   2.750  3.1640 -1.6009 -0.3713
  272MOL0     H35876   1.319   0.598   2.506 -2.7112 -0.5599 -1.6187
  272MOL0     H35877   1.207   0.469   2.558  2.2708 -2.4210  1.3045
  272MOL0     H35878   1.245   0.717   2.737  1.8044 -1.6300  1.2835
  272MOL0     H35879   1.117   0.603   2.738 -0.7295  1.5485 -0.1686
  272MOL0     H35880   1.010   0.657   2.541 -0.0056 -0.5791  2.2215
  272MOL0     H35881   1.148   0.742   2.478  2.4889  0.4356  1.0071
  272MOL0     H35882   0.947   0.878   2.572 -2.2362 -2.1186  3.4945
  272MOL0     H35883   0.985   0.830   2.722 -0.0430  1.5721  1.0566
  272MOL0     H35884   1.173   0.969   2.522 -1.9603 -0.8060 -0.3757
  272MOL0     H35885   1.224   0.934   2.693  1.3712  0.2874 -0.8586
  272MOL0     H35886   1.802   0.035   2.634 -2.6686  1.7210 -0.4560
  272MOL0     H35887   2.041   0.002   2.544  0.1892 -1.3142 -1.9780
  272MOL0     H35888   2.496   0.024   2.515  0.5318  1.8097  0.9599
  272MOL0     H35889   2.711   0.004   2.400 -0.6916 -1.7653  0.0979
  272MOL0     H35890   4.368   0.912   1.992  3.5529  0.5908  0.9736
  272MOL0     H35891   4.571   0.807   2.074 -1.2164  2.1649 -0.7047
  272MOL0     H35892   5.018   0.711   1.912 -0.2097 -1.8166 -0.5113
  272MOL0     H35893   5.223   0.675   2.024  2.0952  0.1423  2.1507
  272MOL0     H35894   5.406   0.604   2.368 -1.8561  0.4607  2.1891
  272MOL0     H35895   5.280   0.722   2.300 -0.2435 -0.0903 -1.2263
  272MOL0     H35896   5.397   0.617   2.083  0.4438 -2.7585  1.5132
  272MOL0     H35897   5.442   0.770   2.166  0.9097 -0.4904  0.4554
  272MOL0     H35898   5.553   0.494   2.191 -0.8148  1.0172 -2.2463
  272MOL0     H35899   5.615   0.632   2.296  2.0110 -1.3450  0.3866
  272MOL0     H35900   5.657   0.571   2.025 -0.2315 -1.8786  2.6739
  272MOL0     H35901   5.682   0.750   2.077  1.7947  0.0411 -0.0946
  272MOL0     H35902   6.010   0.541   2.250  0.9041 -0.4768 -0.8713
  272MOL0     H35903   5.019   0.431   2.322 -1.0243 -0.4462  0.2498
  272MOL0     H35904   4.810   0.462   2.197  0.2909 -2.7245 -2.4155
  273MOL0     O35905   1.003   4.087   7.990 -0.2593  0.0203 -0.4951
  273MOL0     C35906   1.088   4.038   8.062  0.2289 -0.8310  0.4410
  273MOL0     O35907   1.092   4.035   8.199  0.4475 -0.3026 -0.4619
  273MOL0     C35908   0.983   4.071   8.271  0.0179  0.0566  0.0534
  273MOL0     C35909   0.899   4.180   8.238 -0.3782  0.6631 -1.0574
  273MOL0     C35910   0.809   4.220   8.339 -0.0734  0.3991 -0.3178
  273MOL0     C35911   0.793   4.160   8.463 -0.5408  0.0402 -0.2352
  273MOL0     O35912   0.715   4.202   8.566  0.0904  0.3907  0.1072
  273MOL0     C35913   0.606   4.294   8.538  0.6855  0.4795  1.3791
  273MOL0     C35914   0.526   4.315   8.668  0.4071 -0.4765 -0.2218
  273MOL0     C35915   0.380   4.385   8.649  0.1779 -0.6408 -0.3527
  273MOL0     C35916   0.302   4.405   8.781  0.2327 -0.9660 -0.0740
  273MOL0     C35917   0.156   4.454   8.755 -0.4979 -0.1006  0.5010
  273MOL0     C35918   0.122   4.602   8.717  0.2754 -0.5686 -0.0669
  273MOL0     C35919  -0.028   4.634   8.723  0.5526 -0.2245 -0.2047
  273MOL0     C35920  -0.113   4.550   8.627  0.5388  1.0435 -0.3141
  273MOL0     N35921  -0.251   4.606   8.616  0.5283 -0.7355  0.0737
  273MOL0     C35922  -0.271   4.728   8.548  0.2447 -0.2660  0.2926
  273MOL0     C35923  -0.403   4.740   8.536  0.1890 -0.4419 -0.8258
  273MOL0     C35924  -0.463   4.860   8.483 -0.3673 -1.0482 -0.3347
  273MOL0     C35925  -0.474   4.980   8.581 -0.5553 -0.1239 -0.1310
  273MOL0     C35926  -0.546   5.101   8.533 -0.3162  0.9127  0.4984
  273MOL0     C35927  -0.564   5.210   8.639 -0.0926  0.2503  0.4568
  273MOL0     O35928  -0.658   5.174   8.743 -0.0551  0.4809  0.2002
  273MOL0     C35929  -0.792   5.201   8.737  0.4025  1.3408  0.7712
  273MOL0     C35930  -0.865   5.123   8.830  0.3662 -0.0261 -0.3381
  273MOL0     C35931  -1.000   5.140   8.831  0.2188  0.0248 -0.1481
  273MOL0     C35932  -1.071   5.212   8.731 -0.7521 -0.3561 -0.1271
  273MOL0     C35933  -1.215   5.231   8.739  0.2425  0.1356 -0.2668
  273MOL0     O35934  -1.264   5.317   8.650 -0.0232 -0.0046  0.0152
  273MOL0     C35935  -1.403   5.326   8.640 -0.6125  0.6804 -0.2031
  273MOL0     C35936  -1.474   5.208   8.604  0.2770  0.0617  0.5468
  273MOL0     C35937  -1.607   5.212   8.579 -0.4625  0.3900  0.4003
  273MOL0     C35938  -1.685   5.330   8.601  0.2673  0.6254  0.5740
  273MOL0     O35939  -1.812   5.335   8.575  0.3153 -0.4207  0.3382
  273MOL0     C35940  -1.880   5.460   8.534 -0.9496 -0.8566  0.1794
  273MOL0     C35941  -2.001   5.406   8.461 -0.4408 -0.5129  0.1930
  273MOL0     C35942  -2.069   5.526   8.389  0.0035  0.0266 -0.0257
  273MOL0     C35943  -2.196   5.471   8.323 -0.8935  0.5147  0.2209
  273MOL0     C35944  -2.286   5.593   8.280  0.0342  0.1153 -0.0619
  273MOL0     C35945  -2.407   5.559   8.189 -0.2223 -0.5896  0.1869
  273MOL0     C35946  -2.532   5.538   8.265  0.5972 -0.6133  0.8969
  273MOL0     C35947  -2.601   5.405   8.221 -0.0222 -0.2859 -0.7545
  273MOL0    Cl35948  -2.637   5.393   8.040  0.1326 -0.5057  0.0046
  273MOL0     C35949  -1.614   5.439   8.641 -0.7251 -0.4931 -0.5159
  273MOL0     C35950  -1.469   5.444   8.657 -0.2135 -0.4198  0.0547
  273MOL0     O35951  -1.276   5.156   8.818  0.2066 -0.3215  0.4709
  273MOL0     C35952  -0.990   5.294   8.643  0.0482 -0.1378  0.3199
  273MOL0     C35953  -0.853   5.289   8.644 -0.0115  0.1534 -0.0847
  273MOL0     N35954  -0.463   4.630   8.590 -0.1873 -0.0215  0.2961
  273MOL0     N35955  -0.372   4.546   8.635  0.8652  0.8337  0.2903
  273MOL0     C35956   0.875   4.048   8.488 -0.2195 -0.6615  0.0223
  273MOL0     C35957   0.974   4.001   8.396 -0.7613 -0.2393  0.4539
  273MOL0     C35958   1.210   3.992   8.003 -0.3807  0.5963 -0.9561
  273MOL0     C35959   1.256   4.022   7.873 -0.2109  0.1445  0.6824
  273MOL0     C35960   1.382   3.965   7.830  0.8227  0.7341 -0.6132
  273MOL0     C35961   1.455   3.879   7.908  0.9757  0.1827  0.1699
  273MOL0     O35962   1.570   3.835   7.855  0.0883  0.3801  0.4579
  273MOL0     C35963   1.652   3.754   7.939 -0.4847  1.1009 -1.2012
  273MOL0     C35964   1.778   3.706   7.864 -0.9220 -0.5535  0.5704
  273MOL0     C35965   1.870   3.836   7.838 -0.0815 -0.1353 -0.0662
  273MOL0     C35966   1.987   3.809   7.744  0.1342 -0.0138 -0.2538
  273MOL0     C35967   2.069   3.707   7.817  0.1077 -0.7745 -0.4139
  273MOL0     C35968   2.123   3.621   7.888  0.1844 -0.4182  0.2603
  273MOL0     C35969   1.404   3.840   8.034  0.3138 -0.1161 -0.2510
  273MOL0     C35970   1.290   3.897   8.081  0.0617 -0.8627  0.9021
  273MOL0     H35971   0.913   4.235   8.145 -0.3531 -0.2593 -1.6163
  273MOL0     H35972   0.755   4.312   8.317 -2.9309 -0.7591  1.2823
  273MOL0     H35973   0.541   4.255   8.460  0.1698  1.4478  1.3142
  273MOL0     H35974   0.646   4.391   8.506 -1.4285  0.3345 -2.2155
  273MOL0     H35975   0.594   4.367   8.736 -0.3072 -0.5250  0.5445
  273MOL0     H35976   0.508   4.217   8.713  2.2771 -0.9833 -0.4816
  273MOL0     H35977   0.334   4.329   8.568  1.3820  0.5680 -1.9453
  273MOL0     H35978   0.394   4.484   8.604  2.9508  0.3879  2.3981
  273MOL0     H35979   0.306   4.316   8.844  1.0914 -0.1819  1.0179
  273MOL0     H35980   0.353   4.488   8.831 -0.6065 -1.9662  2.5895
  273MOL0     H35981   0.104   4.440   8.850 -2.6561  1.4878 -0.3654
  273MOL0     H35982   0.107   4.397   8.676  0.4488  0.0325 -0.1997
  273MOL0     H35983   0.150   4.634   8.617 -1.9441  0.0568 -0.5342
  273MOL0     H35984   0.170   4.661   8.795  3.5585 -1.4949 -1.2441
  273MOL0     H35985  -0.062   4.612   8.825  4.0820 -0.8405  0.9477
  273MOL0     H35986  -0.057   4.739   8.706  0.7635 -0.0630  0.4349
  273MOL0     H35987  -0.126   4.453   8.676 -1.4294  1.9355  1.0415
  273MOL0     H35988  -0.056   4.530   8.536 -0.3601 -1.4762 -0.3989
  273MOL0     H35989  -0.202   4.805   8.514 -2.1920  1.0321 -2.1288
  273MOL0     H35990  -0.561   4.835   8.442 -1.3352 -0.6742  1.6334
  273MOL0     H35991  -0.410   4.898   8.395  1.3150  2.8059  2.0438
  273MOL0     H35992  -0.367   4.999   8.597 -0.2029 -0.5775 -1.7723
  273MOL0     H35993  -0.521   4.948   8.675 -1.1778  1.0371 -0.0295
  273MOL0     H35994  -0.500   5.148   8.446 -1.4514  0.8768 -0.1379
  273MOL0     H35995  -0.642   5.071   8.491  1.0342 -1.8216 -0.8885
  273MOL0     H35996  -0.599   5.288   8.571  0.3464 -1.1458 -1.4711
  273MOL0     H35997  -0.464   5.234   8.677  0.5036 -0.0076 -0.9011
  273MOL0     H35998  -0.811   5.055   8.895 -0.6750  0.6297  1.2723
  273MOL0     H35999  -1.060   5.074   8.894 -3.2427  2.9862  0.0276
  273MOL0     H36000  -1.426   5.112   8.584 -2.6933 -1.4488  0.1894
  273MOL0     H36001  -1.661   5.130   8.532 -0.0657 -1.3557  2.7760
  273MOL0     H36002  -1.822   5.527   8.470 -0.4754 -1.0690  0.3814
  273MOL0     H36003  -1.911   5.501   8.630  2.1641 -0.3083  1.0642
  273MOL0     H36004  -2.073   5.362   8.530 -0.2626  0.3166  0.9192
  273MOL0     H36005  -1.982   5.328   8.387 -5.3075  0.0112 -2.0034
  273MOL0     H36006  -1.999   5.564   8.315 -0.0833  0.7475  0.2582
  273MOL0     H36007  -2.096   5.605   8.460  0.2466 -0.9274  1.1628
  273MOL0     H36008  -2.164   5.416   8.234 -4.0864 -0.2857 -0.5912
  273MOL0     H36009  -2.250   5.411   8.398  0.2926 -3.5705 -1.8589
  273MOL0     H36010  -2.210   5.655   8.231  4.2993 -2.4944  2.6705
  273MOL0     H36011  -2.320   5.651   8.365 -1.0812 -0.2808 -0.2092
  273MOL0     H36012  -2.392   5.466   8.133  0.8341 -1.2699  1.5370
  273MOL0     H36013  -2.413   5.636   8.111  0.1718 -0.3485  0.3887
  273MOL0     H36014  -2.505   5.524   8.370  1.4799 -0.3842  0.7037
  273MOL0     H36015  -2.603   5.621   8.261  1.5765  0.2346  0.7147
  273MOL0     H36016  -2.699   5.390   8.268 -0.7620 -0.9464 -2.4283
  273MOL0     H36017  -2.539   5.326   8.263 -1.1073 -0.6631  0.2080
  273MOL0     H36018  -1.669   5.529   8.665  2.2178  1.5262 -0.9126
  273MOL0     H36019  -1.408   5.527   8.692 -0.1933  0.6752 -2.3356
  273MOL0     H36020  -1.033   5.367   8.575  2.2127  0.5730 -0.3790
  273MOL0     H36021  -0.793   5.345   8.573 -0.9452  1.9132  0.4701
  273MOL0     H36022   0.856   3.996   8.581 -0.4286  0.0283  0.3673
  273MOL0     H36023   1.045   3.923   8.424 -1.6640 -1.8722 -1.5834
  273MOL0     H36024   1.203   4.092   7.809 -1.5153 -2.0364 -0.7282
  273MOL0     H36025   1.426   3.988   7.734  1.3614  0.4593 -0.4333
  273MOL0     H36026   1.600   3.660   7.964 -0.9253  1.6336 -0.0159
  273MOL0     H36027   1.678   3.809   8.030  0.5323 -0.7402 -0.3149
  273MOL0     H36028   1.832   3.633   7.925  1.7433  1.5747  0.9554
  273MOL0     H36029   1.741   3.660   7.772  0.5348 -1.5069  0.4410
  273MOL0     H36030   1.905   3.872   7.935 -0.7809  0.7157 -0.1225
  273MOL0     H36031   1.814   3.917   7.791 -0.4657 -2.1498 -3.4011
  273MOL0     H36032   1.954   3.774   7.646  0.0340 -0.9574  0.1028
  273MOL0     H36033   2.052   3.895   7.727  1.2798 -1.1028 -1.6309
  273MOL0     H36034   2.169   3.542   7.943 -1.2658  0.6411  3.2069
  273MOL0     H36035   1.467   3.780   8.099 -0.2740  0.3228  0.7490
  273MOL0     H36036   1.269   3.867   8.183 -0.2202 -0.6829  0.9005
  274MOL0     O36037  10.903   1.998   4.536  0.2247 -0.0087  0.4616
  274MOL0     C36038  10.791   1.943   4.516 -0.6481 -0.0710  0.4968
  274MOL0     O36039  10.745   1.826   4.569  0.0229  0.1162 -0.2366
  274MOL0     C36040  10.813   1.753   4.664 -0.1732  0.0847  1.1068
  274MOL0     C36041  10.773   1.614   4.661 -0.4414 -0.0738 -0.3792
  274MOL0     C36042  10.815   1.526   4.759  0.0325  0.0587  0.0766
  274MOL0     C36043  10.922   1.563   4.847 -0.5018  0.3862  0.3315
  274MOL0     O36044  10.981   1.479   4.934 -0.3552 -0.3522  0.1873
  274MOL0     C36045  11.023   1.351   4.875 -0.2358 -0.5122 -0.1469
  274MOL0     C36046  10.939   1.231   4.920 -0.1966 -0.2920 -0.6835
  274MOL0     C36047  10.983   1.091   4.877  0.7290  0.1090  0.2839
  274MOL0     C36048  10.867   0.983   4.902 -0.6993  0.0085 -1.1385
  274MOL0     C36049  10.923   0.849   4.882  0.1081  0.5648  0.4590
  274MOL0     C36050  10.819   0.737   4.868 -0.1557 -0.5492 -0.4250
  274MOL0     C36051  10.866   0.635   4.772  0.0554  0.0385  0.0994
  274MOL0     C36052  10.767   0.521   4.722 -0.2324 -0.6761 -0.7436
  274MOL0     N36053  10.631   0.577   4.714 -0.9320 -0.4002 -0.0821
  274MOL0     C36054  10.592   0.663   4.613  0.2969  0.1218  0.0168
  274MOL0     C36055  10.462   0.699   4.661  0.5760 -0.3382  0.4889
  274MOL0     C36056  10.367   0.785   4.580  0.7405 -0.7550 -0.1749
  274MOL0     C36057  10.217   0.729   4.600  0.9368  0.1960  0.5069
  274MOL0     C36058  10.114   0.805   4.518 -1.6937  0.7148  0.3499
  274MOL0     C36059   9.964   0.774   4.522  0.4832 -0.0600 -0.0385
  274MOL0     O36060   9.919   0.690   4.417 -0.9408  0.0622  0.0298
  274MOL0     C36061   9.785   0.706   4.377 -0.4773 -0.4167 -1.0306
  274MOL0     C36062   9.758   0.660   4.251  0.2464 -0.3868 -0.0906
  274MOL0     C36063   9.622   0.642   4.207 -0.0320 -0.5772 -0.2681
  274MOL0     C36064   9.518   0.686   4.297  0.6184  0.8636  0.9069
  274MOL0     C36065   9.375   0.657   4.265 -0.3410 -0.7701  0.5907
  274MOL0     O36066   9.347   0.588   4.145 -0.5435 -0.6097 -0.1434
  274MOL0     C36067   9.216   0.563   4.107  0.6444 -0.3661  0.1303
  274MOL0     C36068   9.184   0.570   3.973  0.3664  1.0931  0.3705
  274MOL0     C36069   9.056   0.546   3.925 -0.4058 -0.5020 -0.3426
  274MOL0     C36070   8.956   0.511   4.013 -0.1726  0.1892 -0.6524
  274MOL0     O36071   8.825   0.501   3.974 -0.1771 -0.3232  0.0994
  274MOL0     C36072   8.801   0.509   3.828 -0.2838 -0.1103 -0.3106
  274MOL0     C36073   8.645   0.495   3.802  0.1674  0.0085  0.9519
  274MOL0     C36074   8.579   0.382   3.885 -0.6257  0.0274 -0.7673
  274MOL0     C36075   8.432   0.365   3.865 -0.8810  0.1616 -0.1775
  274MOL0     C36076   8.367   0.278   3.975  0.6413  0.3763 -0.5745
  274MOL0     C36077   8.220   0.301   3.988 -0.3402  0.1512  0.0399
  274MOL0     C36078   8.135   0.181   4.035  0.1409  1.0111 -0.2972
  274MOL0     C36079   7.986   0.209   4.009  0.5337 -0.4363 -0.5461
  274MOL0    Cl36080   7.905   0.050   4.001  0.1254  0.1681 -0.6766
  274MOL0     C36081   8.994   0.487   4.151 -0.5444 -0.0332  0.0254
  274MOL0     C36082   9.122   0.510   4.193 -0.6732  0.2691 -0.0313
  274MOL0     O36083   9.287   0.713   4.334 -0.0643 -0.2742 -0.3552
  274MOL0     C36084   9.553   0.742   4.424  0.5263 -0.5736  0.1587
  274MOL0     C36085   9.684   0.754   4.460 -0.1278  0.2285  0.0209
  274MOL0     N36086  10.447   0.659   4.791 -0.2716  0.2284  0.1516
  274MOL0     N36087  10.545   0.585   4.824 -0.7122  0.4878 -0.4855
  274MOL0     C36088  10.965   1.701   4.840 -0.1987  0.2313 -0.3863
  274MOL0     C36089  10.903   1.797   4.758 -1.1256 -0.4666  0.0003
  274MOL0     C36090  10.695   2.016   4.425 -0.4398  0.0176  0.6404
  274MOL0     C36091  10.728   2.134   4.356  0.5140  0.3511  0.4347
  274MOL0     C36092  10.639   2.184   4.253 -0.2555 -0.5576  0.1234
  274MOL0     C36093  10.508   2.134   4.238 -0.7467 -0.8349  0.8056
  274MOL0     O36094  10.429   2.197   4.147  0.2056  0.6452  0.3155
  274MOL0     C36095  10.290   2.157   4.132  0.4563 -0.0397  0.0763
  274MOL0     C36096  10.218   2.238   4.031  0.3914  0.0091  0.6945
  274MOL0     C36097  10.074   2.184   4.022 -0.2236 -0.7515 -0.2079
  274MOL0     C36098   9.984   2.286   3.943 -0.0126 -0.1509 -0.2346
  274MOL0     C36099   9.849   2.232   3.946  0.5972  0.2506  0.8160
  274MOL0     C36100   9.732   2.190   3.928 -0.6546  0.4357 -0.1946
  274MOL0     C36101  10.472   2.025   4.319  0.7324 -0.7654  0.7336
  274MOL0     C36102  10.567   1.966   4.398 -0.1850  0.6762  0.1518
  274MOL0     H36103  10.713   1.574   4.580  0.5822 -1.7340 -0.3673
  274MOL0     H36104  10.780   1.424   4.752  0.2622 -0.1084  1.2400
  274MOL0     H36105  11.126   1.349   4.910 -0.8742  0.8560  1.9655
  274MOL0     H36106  11.021   1.357   4.765  0.8653 -1.9402 -0.2768
  274MOL0     H36107  10.835   1.243   4.889 -0.6354  0.7281  1.0554
  274MOL0     H36108  10.942   1.228   5.029  0.4527 -0.9917 -0.7111
  274MOL0     H36109  11.081   1.072   4.923  0.9447 -0.6984 -0.4741
  274MOL0     H36110  11.009   1.100   4.771  1.1055  0.1630  0.3784
  274MOL0     H36111  10.828   0.988   5.004 -0.3290  0.8944 -1.0382
  274MOL0     H36112  10.787   1.004   4.830 -0.0818 -1.6878 -2.4060
  274MOL0     H36113  10.988   0.829   4.968 -0.2405 -1.5101  0.3142
  274MOL0     H36114  10.987   0.862   4.794 -1.0457  2.8607 -0.1245
  274MOL0     H36115  10.726   0.790   4.848 -0.0849  2.1145  4.8012
  274MOL0     H36116  10.797   0.687   4.963 -1.4669 -3.1338 -1.9633
  274MOL0     H36117  10.895   0.681   4.677 -0.3541 -1.9656 -1.0556
  274MOL0     H36118  10.954   0.585   4.812  0.0728 -3.4140 -3.5584
  274MOL0     H36119  10.778   0.439   4.794 -0.0875  1.8214  2.3081
  274MOL0     H36120  10.801   0.482   4.626  0.9107  2.0314 -1.5407
  274MOL0     H36121  10.642   0.672   4.517  0.1591  3.2645  0.1333
  274MOL0     H36122  10.407   0.784   4.478  1.0458  0.9416 -0.1145
  274MOL0     H36123  10.376   0.888   4.616 -2.6759  0.3965 -2.1178
  274MOL0     H36124  10.181   0.748   4.702  0.0877 -1.8069  0.6291
  274MOL0     H36125  10.228   0.623   4.574  4.1965 -0.6832  4.3991
  274MOL0     H36126  10.128   0.911   4.540  0.3585  0.9150 -1.4646
  274MOL0     H36127  10.144   0.795   4.413 -1.2358  0.0153  0.5379
  274MOL0     H36128   9.914   0.871   4.524  1.5453  0.5416  3.0896
  274MOL0     H36129   9.937   0.732   4.619 -1.0328  0.2127 -0.3132
  274MOL0     H36130   9.842   0.636   4.187 -2.5397  0.4322 -4.4343
  274MOL0     H36131   9.619   0.604   4.106  4.5716  0.9626 -1.2140
  274MOL0     H36132   9.266   0.586   3.904  0.8924  0.1985  0.7691
  274MOL0     H36133   9.050   0.553   3.817  1.1526  1.9476 -0.3411
  274MOL0     H36134   8.857   0.432   3.773 -1.4670 -0.1197 -1.5394
  274MOL0     H36135   8.838   0.608   3.803 -1.5595  0.6267  0.6160
  274MOL0     H36136   8.631   0.471   3.696 -0.3277  0.3750  0.9315
  274MOL0     H36137   8.588   0.586   3.823 -2.8642 -1.4198 -0.4630
  274MOL0     H36138   8.609   0.415   3.984  0.5630  1.7579 -1.6591
  274MOL0     H36139   8.635   0.289   3.869  0.2319  0.7396 -2.0622
  274MOL0     H36140   8.393   0.467   3.867  0.4775  0.7169 -0.3457
  274MOL0     H36141   8.416   0.326   3.764 -2.8787 -0.1574  0.2220
  274MOL0     H36142   8.405   0.300   4.075  0.4851  0.2302 -0.4810
  274MOL0     H36143   8.390   0.172   3.960  0.4861 -0.1357  2.1947
  274MOL0     H36144   8.183   0.334   3.891 -2.8429 -0.9082  0.5772
  274MOL0     H36145   8.192   0.379   4.060 -0.5461 -0.2199  0.3592
  274MOL0     H36146   8.154   0.098   3.966 -0.4831  1.9057 -1.5893
  274MOL0     H36147   8.162   0.145   4.134 -2.2193 -1.9693 -0.5799
  274MOL0     H36148   7.958   0.273   3.925 -1.7194  0.8426  1.0683
  274MOL0     H36149   7.948   0.266   4.095 -0.9975 -1.2268 -0.6790
  274MOL0     H36150   8.920   0.471   4.228 -1.0307  1.8109 -0.0072
  274MOL0     H36151   9.152   0.497   4.297  0.5834  1.5376 -0.1990
  274MOL0     H36152   9.469   0.776   4.483  1.5592  1.3662  0.5867
  274MOL0     H36153   9.707   0.794   4.558  0.7937  0.4326 -0.2641
  274MOL0     H36154  11.036   1.729   4.916  1.2604 -0.9510 -1.2581
  274MOL0     H36155  10.937   1.898   4.783 -2.9094 -0.4420  2.7124
  274MOL0     H36156  10.823   2.186   4.362  0.9667 -0.0131 -2.2912
  274MOL0     H36157  10.670   2.266   4.189 -1.0948 -1.2885 -1.2457
  274MOL0     H36158  10.267   2.180   4.237  0.2370  1.6194 -0.3194
  274MOL0     H36159  10.295   2.049   4.115  5.0760 -0.2700  1.4619
  274MOL0     H36160  10.222   2.346   4.049  2.5054  1.4644 -5.8164
  274MOL0     H36161  10.268   2.224   3.935 -0.6438  3.3020 -0.4398
  274MOL0     H36162  10.030   2.172   4.121  0.3877 -0.2163  0.1333
  274MOL0     H36163  10.072   2.083   3.979  1.4469 -0.6000 -0.7403
  274MOL0     H36164   9.988   2.383   3.994  1.2640  0.0821 -0.7239
  274MOL0     H36165  10.019   2.285   3.839 -0.1943 -1.3328 -0.2990
  274MOL0     H36166   9.638   2.145   3.903 -0.5399 -1.2582  2.0970
  274MOL0     H36167  10.377   1.975   4.304  0.1410 -0.1291  2.1479
  274MOL0     H36168  10.529   1.878   4.448 -1.0939 -1.2645 -3.5658
  275MOL0     O36169   0.553   6.253   5.679  0.0188  0.4299 -0.3133
  275MOL0     C36170   0.608   6.205   5.580 -0.1315 -0.3513 -0.3546
  275MOL0     O36171   0.542   6.162   5.464  0.0762 -0.3949 -1.1390
  275MOL0     C36172   0.405   6.177   5.464 -0.1809  0.1730  0.3258
  275MOL0     C36173   0.331   6.291   5.496 -0.6806 -0.4797  0.1297
  275MOL0     C36174   0.191   6.284   5.501 -0.1613  0.0899  0.2959
  275MOL0     C36175   0.128   6.157   5.487 -0.0151 -0.2134  0.4953
  275MOL0     O36176  -0.006   6.146   5.509 -0.0820  0.2724  0.0913
  275MOL0     C36177  -0.044   6.082   5.634 -0.0482  0.7875  0.8438
  275MOL0     C36178  -0.171   5.998   5.610  0.4304 -0.1909  1.2469
  275MOL0     C36179  -0.288   6.088   5.615  0.1711 -0.0572  0.6760
  275MOL0     C36180  -0.413   6.015   5.658  0.0908  1.4956  0.1617
  275MOL0     C36181  -0.531   6.105   5.640  0.5149  0.0426  0.5437
  275MOL0     C36182  -0.658   6.013   5.656 -0.4291 -0.0234  0.4330
  275MOL0     C36183  -0.784   6.105   5.658 -0.0342  0.4994 -0.1489
  275MOL0     C36184  -0.908   6.024   5.685 -0.2831 -0.3169 -0.3562
  275MOL0     N36185  -1.035   6.101   5.695  0.6131  0.3783 -0.1604
  275MOL0     C36186  -1.159   6.057   5.643 -0.4034 -0.5146 -0.3650
  275MOL0     C36187  -1.242   6.165   5.661 -0.2202 -0.4508 -1.4403
  275MOL0     C36188  -1.393   6.172   5.622 -0.1241 -0.2468  0.5648
  275MOL0     C36189  -1.419   6.295   5.542  0.6528  0.2111  0.2879
  275MOL0     C36190  -1.561   6.279   5.492  0.1599  0.2031  0.1688
  275MOL0     C36191  -1.588   6.397   5.397 -0.3320 -0.1003 -0.0039
  275MOL0     O36192  -1.724   6.369   5.357 -0.8028  0.2559 -0.7105
  275MOL0     C36193  -1.781   6.443   5.260 -0.3339 -0.0721  0.8217
  275MOL0     C36194  -1.719   6.532   5.179  0.1332  0.1407  0.5181
  275MOL0     C36195  -1.775   6.592   5.068  0.0822  0.3289  0.6539
  275MOL0     C36196  -1.905   6.560   5.049 -0.1446  0.0903 -0.0400
  275MOL0     C36197  -1.980   6.631   4.942  0.3969 -0.9870 -0.5726
  275MOL0     O36198  -2.085   6.568   4.882 -0.2563  0.4644 -0.3650
  275MOL0     C36199  -2.155   6.639   4.789 -0.4783  0.2871 -0.4199
  275MOL0     C36200  -2.178   6.578   4.669 -0.9234  0.6866 -0.2144
  275MOL0     C36201  -2.276   6.617   4.576  0.2069 -0.8326  0.5506
  275MOL0     C36202  -2.355   6.728   4.608 -0.0344 -0.0443 -0.2914
  275MOL0     O36203  -2.459   6.776   4.536  0.2514 -0.3567  0.3821
  275MOL0     C36204  -2.524   6.691   4.448 -0.0093 -0.2571  0.2133
  275MOL0     C36205  -2.631   6.755   4.366  0.3959  0.1685  0.0106
  275MOL0     C36206  -2.729   6.830   4.458  0.1175 -0.0737 -0.0014
  275MOL0     C36207  -2.842   6.877   4.378  0.5495  0.2691 -0.1733
  275MOL0     C36208  -2.953   6.910   4.480 -0.4226 -0.5898  1.5537
  275MOL0     C36209  -2.922   7.050   4.546 -0.2121  0.2182  0.4328
  275MOL0     C36210  -3.038   7.098   4.631 -0.6582  0.4148 -0.4431
  275MOL0     C36211  -3.079   7.237   4.602  0.0237 -0.8460 -0.4642
  275MOL0    Cl36212  -3.218   7.245   4.491  0.0757  0.3367 -0.8053
  275MOL0     C36213  -2.321   6.800   4.725 -0.2235  0.3332 -0.3433
  275MOL0     C36214  -2.227   6.758   4.817  0.7459  0.0646  0.2891
  275MOL0     O36215  -1.946   6.744   4.916 -0.1746  0.3442 -0.1351
  275MOL0     C36216  -1.975   6.470   5.133 -0.3356  0.0048  0.6772
  275MOL0     C36217  -1.906   6.406   5.233  0.5626 -0.7928 -0.3073
  275MOL0     N36218  -1.165   6.270   5.716 -0.0690 -0.3621  0.0196
  275MOL0     N36219  -1.048   6.232   5.734  0.0294  0.4190  0.3788
  275MOL0     C36220   0.201   6.046   5.460  0.1976  0.1671  0.0029
  275MOL0     C36221   0.336   6.055   5.438  0.2848  0.0628  0.4648
  275MOL0     C36222   0.760   6.199   5.582  0.9789  0.6636  0.3764
  275MOL0     C36223   0.840   6.251   5.678 -0.2628 -0.1031 -0.0697
  275MOL0     C36224   0.976   6.247   5.671 -0.3424 -0.4682  0.9287
  275MOL0     C36225   1.042   6.195   5.548  0.4519  0.6123  0.9207
  275MOL0     O36226   1.181   6.180   5.518  0.7744 -0.4217  0.2819
  275MOL0     C36227   1.263   6.296   5.541 -0.6988  0.5326 -0.6230
  275MOL0     C36228   1.407   6.243   5.518 -0.5317 -0.0447  0.5172
  275MOL0     C36229   1.455   6.130   5.615 -0.2518  0.2073 -0.2407
  275MOL0     C36230   1.441   6.156   5.768 -0.5766 -0.5094  0.5394
  275MOL0     C36231   1.317   6.103   5.824  0.2379 -0.7510 -0.2131
  275MOL0     C36232   1.207   6.076   5.878  0.5925 -0.7337 -0.0798
  275MOL0     C36233   0.958   6.142   5.449 -0.1636  0.7140  0.0569
  275MOL0     C36234   0.820   6.144   5.466  0.9303 -0.0348  1.1575
  275MOL0     H36235   0.379   6.388   5.495 -0.5644 -0.4987 -2.2416
  275MOL0     H36236   0.133   6.372   5.523 -1.4141 -0.5963 -0.1812
  275MOL0     H36237  -0.063   6.154   5.714  0.4658  0.3576  1.3645
  275MOL0     H36238   0.036   6.016   5.670  0.1646  0.3346 -0.4251
  275MOL0     H36239  -0.169   5.909   5.675  2.9094  1.3373  3.4703
  275MOL0     H36240  -0.155   5.948   5.514  3.2512  2.6468  0.1033
  275MOL0     H36241  -0.304   6.118   5.511 -0.2468  2.3371  1.3768
  275MOL0     H36242  -0.269   6.180   5.671  0.0695 -0.2991  1.1077
  275MOL0     H36243  -0.423   5.933   5.586  0.6645  0.4623  1.2359
  275MOL0     H36244  -0.401   5.990   5.764  1.4445 -0.0332 -0.3055
  275MOL0     H36245  -0.534   6.143   5.538  1.5211  1.0385  0.8643
  275MOL0     H36246  -0.531   6.186   5.713 -1.0594  0.1568  0.4575
  275MOL0     H36247  -0.652   5.953   5.747  0.9139  0.1954  0.5073
  275MOL0     H36248  -0.663   5.943   5.571  2.5446 -0.9633  0.8921
  275MOL0     H36249  -0.761   6.173   5.740  0.2568  2.4587 -1.7742
  275MOL0     H36250  -0.780   6.155   5.560  1.9163  2.3818  0.8219
  275MOL0     H36251  -0.895   5.964   5.775  1.4733  4.2938  2.8416
  275MOL0     H36252  -0.912   5.958   5.598  0.6043 -0.6130 -0.1846
  275MOL0     H36253  -1.183   5.963   5.592  1.3166  0.0592 -2.3795
  275MOL0     H36254  -1.443   6.194   5.717 -1.8939  0.6792 -0.5189
  275MOL0     H36255  -1.436   6.089   5.566 -0.1308 -0.6441  1.1583
  275MOL0     H36256  -1.340   6.303   5.467  1.7587  2.8277  1.5987
  275MOL0     H36257  -1.408   6.389   5.598  0.0665  0.4693 -0.0173
  275MOL0     H36258  -1.571   6.187   5.435 -4.0359  1.7947 -2.2011
  275MOL0     H36259  -1.632   6.274   5.575  0.3542 -2.5083  0.2313
  275MOL0     H36260  -1.519   6.383   5.313  1.8549 -0.2414  1.7150
  275MOL0     H36261  -1.575   6.496   5.441 -1.2101  0.4288 -0.9059
  275MOL0     H36262  -1.618   6.562   5.205 -0.4978  0.1971  3.1247
  275MOL0     H36263  -1.727   6.664   5.003 -0.7510  0.2817 -0.0212
  275MOL0     H36264  -2.125   6.487   4.644 -3.4817 -1.5620  1.8711
  275MOL0     H36265  -2.297   6.559   4.487  0.8285 -0.5853  0.2396
  275MOL0     H36266  -2.554   6.602   4.504 -3.0269 -0.5868 -1.6993
  275MOL0     H36267  -2.452   6.653   4.375  0.8847 -3.1100  2.3890
  275MOL0     H36268  -2.683   6.672   4.317  2.4915 -1.5000  0.4540
  275MOL0     H36269  -2.582   6.827   4.300 -0.9268  1.6120  0.5425
  275MOL0     H36270  -2.678   6.920   4.495 -0.3088 -0.2345  0.9962
  275MOL0     H36271  -2.761   6.766   4.540  0.3343  1.8696  1.6759
  275MOL0     H36272  -2.825   6.955   4.304  2.7263  1.3101  1.3464
  275MOL0     H36273  -2.878   6.794   4.315 -3.8344  1.6417  0.1642
  275MOL0     H36274  -2.963   6.841   4.563 -0.5924 -0.3309  1.7492
  275MOL0     H36275  -3.051   6.917   4.433  0.5570 -1.0910 -0.7237
  275MOL0     H36276  -2.897   7.122   4.467 -0.6628 -1.7590 -1.5980
  275MOL0     H36277  -2.834   7.038   4.610 -0.1287 -2.0944 -0.0384
  275MOL0     H36278  -3.126   7.034   4.624 -2.0751  1.9961  1.6405
  275MOL0     H36279  -3.008   7.096   4.737 -3.3737 -1.1660  0.3789
  275MOL0     H36280  -2.999   7.307   4.575 -0.9909  1.4993  2.1292
  275MOL0     H36281  -3.108   7.279   4.699  0.7283 -1.7462  0.1639
  275MOL0     H36282  -2.375   6.892   4.745 -0.7559 -0.3314  1.3758
  275MOL0     H36283  -2.207   6.811   4.910  1.6383 -0.8424  0.6383
  275MOL0     H36284  -2.079   6.440   5.123 -0.7286  1.4559  0.1698
  275MOL0     H36285  -1.951   6.321   5.284 -2.8163 -0.9863 -3.2476
  275MOL0     H36286   0.153   5.951   5.440  1.7525 -0.4452 -0.9825
  275MOL0     H36287   0.394   5.963   5.435 -1.7576 -1.3861  2.2217
  275MOL0     H36288   0.798   6.285   5.772 -3.4536 -1.9071 -0.7106
  275MOL0     H36289   1.034   6.291   5.752 -0.8098  2.2470 -0.1171
  275MOL0     H36290   1.259   6.336   5.642 -2.8493 -1.2167  0.0723
  275MOL0     H36291   1.243   6.378   5.472 -2.4571 -1.2886 -2.4061
  275MOL0     H36292   1.399   6.206   5.415 -1.4041 -1.2236  0.9887
  275MOL0     H36293   1.486   6.318   5.519  1.4752 -2.0676  0.2974
  275MOL0     H36294   1.560   6.104   5.596 -0.1867  0.5775 -0.3973
  275MOL0     H36295   1.400   6.038   5.594  2.5530 -1.6816  0.1795
  275MOL0     H36296   1.523   6.115   5.827  0.9899  1.7785  0.1099
  275MOL0     H36297   1.451   6.265   5.777 -0.3730 -0.5320  0.5970
  275MOL0     H36298   1.106   6.071   5.915  0.6210 -0.1192  0.0954
  275MOL0     H36299   1.016   6.101   5.367  1.6146 -1.3092  2.2030
  275MOL0     H36300   0.759   6.104   5.385  0.8325 -2.4343  2.3169
  276MOL0     O36301   3.626   4.497   7.471 -0.0184  0.0255 -0.0926
  276MOL0     C36302   3.595   4.483   7.353  0.2544 -0.2918 -0.9505
  276MOL0     O36303   3.660   4.547   7.248 -0.2156 -0.7749 -0.7728
  276MOL0     C36304   3.771   4.614   7.273 -0.2837 -1.5031 -0.0525
  276MOL0     C36305   3.791   4.710   7.375  0.0027 -0.6388  0.2612
  276MOL0     C36306   3.914   4.777   7.386 -0.4369  0.4961  0.1525
  276MOL0     C36307   4.005   4.762   7.291 -0.6414  0.0370  0.7384
  276MOL0     O36308   4.119   4.837   7.321  0.2072 -0.5974 -0.0497
  276MOL0     C36309   4.216   4.840   7.212  0.0565 -1.1017  0.8776
  276MOL0     C36310   4.162   4.924   7.085 -0.4141  0.6417 -0.3985
  276MOL0     C36311   4.136   5.072   7.128  0.5083 -0.1699  0.5515
  276MOL0     C36312   4.262   5.152   7.180 -0.1575 -0.6785 -0.4810
  276MOL0     C36313   4.379   5.143   7.086 -0.6371 -0.0473 -0.1119
  276MOL0     C36314   4.519   5.190   7.157  0.2343  0.1297 -0.6466
  276MOL0     C36315   4.625   5.171   7.051  0.4787  0.3351  0.7705
  276MOL0     C36316   4.767   5.198   7.113 -0.0125 -0.2752 -0.6561
  276MOL0     N36317   4.808   5.102   7.222  0.4744  0.0230 -0.3157
  276MOL0     C36318   4.941   5.081   7.248 -1.0538  0.2349  0.5598
  276MOL0     C36319   4.933   4.983   7.340  0.1730  0.6426  0.2104
  276MOL0     C36320   5.052   4.930   7.409  0.1387  0.5676  0.4590
  276MOL0     C36321   5.090   4.789   7.356 -0.0255  0.0593 -0.5240
  276MOL0     C36322   5.001   4.667   7.394 -0.0464  0.0291 -0.7257
  276MOL0     C36323   5.069   4.544   7.324 -0.7725 -0.2233 -0.9183
  276MOL0     O36324   5.024   4.537   7.188 -0.7106  0.1519 -0.1071
  276MOL0     C36325   4.937   4.443   7.147 -0.4316 -0.8820  0.0811
  276MOL0     C36326   4.968   4.377   7.024 -0.2216  0.2641  0.1895
  276MOL0     C36327   4.866   4.307   6.963  1.1220 -0.5484 -0.1885
  276MOL0     C36328   4.741   4.286   7.030 -0.0681  0.3543  0.3250
  276MOL0     C36329   4.639   4.208   6.963  0.2717 -1.7593 -0.3723
  276MOL0     O36330   4.518   4.207   7.022 -0.4843 -0.2893  0.4947
  276MOL0     C36331   4.447   4.092   6.994  0.9271  0.7557  0.2303
  276MOL0     C36332   4.488   3.961   7.018  0.6798 -0.1941  0.0100
  276MOL0     C36333   4.405   3.849   7.000 -0.3926  0.7011  0.4566
  276MOL0     C36334   4.271   3.863   6.948  0.2019  0.1123 -0.1600
  276MOL0     O36335   4.188   3.753   6.954 -0.1864  0.0010  0.0203
  276MOL0     C36336   4.066   3.760   6.874  0.0170  0.1233 -0.3230
  276MOL0     C36337   3.983   3.632   6.889  0.0003  0.1038  0.0114
  276MOL0     C36338   3.860   3.644   6.801 -0.3679  0.6805  0.2701
  276MOL0     C36339   3.770   3.528   6.834  0.5106  0.1349  0.0092
  276MOL0     C36340   3.665   3.512   6.720 -0.2928 -0.2980  0.3664
  276MOL0     C36341   3.545   3.426   6.753 -0.1662 -0.2701 -0.2232
  276MOL0     C36342   3.446   3.417   6.638  0.1769 -0.4710  0.1460
  276MOL0     C36343   3.382   3.280   6.612  0.1403 -0.4854 -0.1571
  276MOL0    Cl36344   3.206   3.285   6.595 -0.2686 -0.1280  0.1181
  276MOL0     C36345   4.229   3.997   6.906 -0.0321 -0.6845 -0.1112
  276MOL0     C36346   4.319   4.106   6.934  0.7158  1.1315  0.8031
  276MOL0     O36347   4.664   4.155   6.854  0.0094  0.3859 -0.5383
  276MOL0     C36348   4.719   4.349   7.151 -0.8273  0.4544  0.0087
  276MOL0     C36349   4.816   4.420   7.213  0.3702 -0.2106 -0.6435
  276MOL0     N36350   4.801   4.944   7.374 -0.1775 -0.1668  0.1111
  276MOL0     N36351   4.727   5.019   7.294 -0.6007  0.1565 -0.0813
  276MOL0     C36352   3.991   4.677   7.183  0.0916  0.6512  0.1395
  276MOL0     C36353   3.871   4.595   7.178 -0.0401 -1.1001 -0.0839
  276MOL0     C36354   3.483   4.393   7.323  0.1301  0.1974 -0.5816
  276MOL0     C36355   3.434   4.371   7.196 -0.4985 -0.6487  1.1476
  276MOL0     C36356   3.342   4.268   7.169 -0.1693 -0.4522  0.3686
  276MOL0     C36357   3.284   4.202   7.278 -0.9204  0.8122  0.1409
  276MOL0     O36358   3.188   4.102   7.256 -0.0321 -0.4512  0.2488
  276MOL0     C36359   3.127   4.037   7.369  0.0732  0.5604  0.4425
  276MOL0     C36360   3.030   4.122   7.452 -0.1187  0.3234 -0.5095
  276MOL0     C36361   2.908   4.172   7.370 -0.3621 -0.0069  0.0883
  276MOL0     C36362   2.931   4.301   7.284  0.9712  0.4319  1.2660
  276MOL0     C36363   2.816   4.383   7.262  0.2611 -0.1009 -0.4241
  276MOL0     C36364   2.728   4.466   7.256 -0.2334 -0.1535  0.2528
  276MOL0     C36365   3.326   4.233   7.407  0.1689 -0.2367 -0.1586
  276MOL0     C36366   3.417   4.332   7.428  0.2944  0.7165 -0.5477
  276MOL0     H36367   3.714   4.734   7.448 -0.2317  2.3816 -0.8580
  276MOL0     H36368   3.953   4.828   7.474  1.6029  0.4752 -0.6756
  276MOL0     H36369   4.234   4.738   7.177  2.3961 -0.2484 -0.6379
  276MOL0     H36370   4.314   4.877   7.245  1.3640 -2.8877 -0.7590
  276MOL0     H36371   4.068   4.882   7.047 -0.5831 -0.6928  1.3567
  276MOL0     H36372   4.235   4.918   7.003  0.1599  0.4858  0.1190
  276MOL0     H36373   4.053   5.070   7.199 -1.1605  2.7308 -1.1441
  276MOL0     H36374   4.092   5.131   7.048 -2.9895  0.2342  2.5492
  276MOL0     H36375   4.239   5.258   7.192  2.5545  0.0551 -0.9987
  276MOL0     H36376   4.293   5.113   7.278  1.1043 -2.6754 -1.5963
  276MOL0     H36377   4.353   5.213   7.005 -0.7170 -0.4933 -0.4751
  276MOL0     H36378   4.388   5.044   7.040 -0.0654 -0.0282 -0.0413
  276MOL0     H36379   4.520   5.124   7.244 -1.7480 -0.8027 -1.2730
  276MOL0     H36380   4.518   5.294   7.191  1.2378 -0.4423  1.2552
  276MOL0     H36381   4.628   5.073   7.001  1.2653  0.4732  0.5293
  276MOL0     H36382   4.616   5.249   6.975 -0.0900  0.3794  0.8814
  276MOL0     H36383   4.766   5.303   7.145 -1.1099  0.0556 -1.6725
  276MOL0     H36384   4.842   5.194   7.033 -1.9270 -0.2144 -2.5475
  276MOL0     H36385   5.022   5.137   7.203  1.4179 -2.7531  0.8892
  276MOL0     H36386   5.032   4.928   7.517  0.2714  0.1842  0.4783
  276MOL0     H36387   5.128   5.003   7.381 -1.9119  1.6602 -2.8969
  276MOL0     H36388   5.194   4.776   7.388 -0.0087 -0.5162 -0.7926
  276MOL0     H36389   5.090   4.788   7.247  1.7740 -1.2417 -0.5611
  276MOL0     H36390   4.992   4.641   7.500 -1.1894 -2.2180 -1.3212
  276MOL0     H36391   4.900   4.684   7.356  0.1170  2.1967 -0.3383
  276MOL0     H36392   5.058   4.449   7.377 -0.1605  0.1219 -0.1622
  276MOL0     H36393   5.173   4.574   7.335 -1.2164  0.4810  2.0736
  276MOL0     H36394   5.060   4.365   6.968 -2.1684 -4.5133 -2.5872
  276MOL0     H36395   4.878   4.269   6.862 -2.8186  0.8303 -1.3729
  276MOL0     H36396   4.579   3.953   7.076  1.9444 -1.9892 -2.0815
  276MOL0     H36397   4.428   3.745   7.022 -1.2020  0.3401 -0.3065
  276MOL0     H36398   4.083   3.792   6.771 -0.7613  2.1884  0.1433
  276MOL0     H36399   4.007   3.840   6.919 -0.3271 -0.0637 -0.4373
  276MOL0     H36400   3.957   3.623   6.995 -1.2522 -0.0881 -0.2975
  276MOL0     H36401   4.040   3.543   6.860 -1.1450 -1.0331  1.1076
  276MOL0     H36402   3.891   3.645   6.697  0.0388  1.4336  0.3896
  276MOL0     H36403   3.800   3.733   6.823 -2.3123 -0.7942  1.2314
  276MOL0     H36404   3.829   3.436   6.828  0.3912  0.0806 -0.3409
  276MOL0     H36405   3.709   3.535   6.924 -2.1309 -4.1878 -1.1713
  276MOL0     H36406   3.703   3.476   6.624 -0.7099  0.7548 -0.2084
  276MOL0     H36407   3.632   3.613   6.695 -1.5915 -0.4134  1.4947
  276MOL0     H36408   3.496   3.477   6.837  0.3675 -0.4331  0.1988
  276MOL0     H36409   3.580   3.326   6.783  2.4009  0.5739 -0.1460
  276MOL0     H36410   3.363   3.485   6.660  0.1841 -0.4693  0.1674
  276MOL0     H36411   3.491   3.448   6.543  0.4257 -2.4116 -0.4060
  276MOL0     H36412   3.402   3.208   6.691  1.2512  2.5013  2.4584
  276MOL0     H36413   3.430   3.240   6.522 -1.2590 -1.8391 -0.3465
  276MOL0     H36414   4.129   4.026   6.877 -0.5006 -1.0892  1.0264
  276MOL0     H36415   4.294   4.211   6.924  0.2862  1.0507  1.0159
  276MOL0     H36416   4.623   4.333   7.199 -2.5376 -0.3898 -3.3011
  276MOL0     H36417   4.794   4.481   7.300  0.8949  0.4060 -0.9322
  276MOL0     H36418   4.062   4.664   7.102 -0.1632  1.7372 -0.2746
  276MOL0     H36419   3.843   4.536   7.091 -2.6394 -0.6911  0.3921
  276MOL0     H36420   3.486   4.424   7.117  2.4231 -1.9620  2.0259
  276MOL0     H36421   3.325   4.230   7.068  1.9794 -1.3065  0.2620
  276MOL0     H36422   3.201   4.001   7.440  2.1911  0.7052 -1.5710
  276MOL0     H36423   3.063   3.956   7.335 -2.3930  3.3325 -2.2063
  276MOL0     H36424   2.988   4.055   7.528 -2.2292  1.2264 -0.8008
  276MOL0     H36425   3.089   4.195   7.508 -0.1797 -1.0140  1.4284
  276MOL0     H36426   2.829   4.192   7.443 -1.7775 -1.0104 -1.1136
  276MOL0     H36427   2.879   4.087   7.308  1.3493  0.2023 -1.0504
  276MOL0     H36428   3.010   4.357   7.335 -0.2360  1.6564  1.8347
  276MOL0     H36429   2.962   4.278   7.181 -1.3980  2.5964 -0.0417
  276MOL0     H36430   2.646   4.535   7.250  2.0565  2.6076 -2.2255
  276MOL0     H36431   3.298   4.186   7.501  0.3275  0.1927  0.1051
  276MOL0     H36432   3.459   4.338   7.528  1.7593 -0.2540 -1.0718
  277MOL0     O36433   9.616   8.793   7.282 -0.2332  0.9742  0.6098
  277MOL0     C36434   9.563   8.702   7.349  0.6318 -0.4168  0.0048
  277MOL0     O36435   9.572   8.567   7.325  0.0989  0.0509  0.0507
  277MOL0     C36436   9.659   8.542   7.224  0.6998  1.0297 -0.1861
  277MOL0     C36437   9.611   8.527   7.095  0.4322 -0.2253  0.1827
  277MOL0     C36438   9.685   8.490   6.987 -0.7834 -0.4932  0.3895
  277MOL0     C36439   9.821   8.452   7.008 -0.0457 -0.7830  0.2758
  277MOL0     O36440   9.894   8.424   6.895  0.4696 -0.5734 -0.1556
  277MOL0     C36441  10.016   8.350   6.898 -0.6795 -0.2156 -1.9200
  277MOL0     C36442  10.084   8.348   6.764  0.6675 -0.4262  0.6289
  277MOL0     C36443   9.992   8.347   6.630 -0.3341  0.3424 -0.8634
  277MOL0     C36444  10.064   8.412   6.516 -0.5161 -0.7480  0.5983
  277MOL0     C36445   9.976   8.442   6.392  0.2493 -0.4400  0.6337
  277MOL0     C36446   9.916   8.313   6.329  0.5032  0.0930  0.1278
  277MOL0     C36447  10.015   8.225   6.266 -0.0654  0.6591  0.2275
  277MOL0     C36448   9.943   8.119   6.190  0.0549  0.2043 -0.2957
  277MOL0     N36449   9.874   8.152   6.066  0.6572 -0.3748 -0.0673
  277MOL0     C36450   9.742   8.120   6.041  0.7837  0.2182  0.3591
  277MOL0     C36451   9.714   8.163   5.917 -0.8266  0.0491  0.2005
  277MOL0     C36452   9.586   8.160   5.840 -0.8243 -0.8261  1.1381
  277MOL0     C36453   9.459   8.119   5.906  0.0086  0.2090  0.2269
  277MOL0     C36454   9.366   8.044   5.811 -0.0115  0.3338  0.2148
  277MOL0     C36455   9.314   8.140   5.701 -0.6802 -0.1484  0.4461
  277MOL0     O36456   9.249   8.258   5.751  0.7839  0.2595  0.0562
  277MOL0     C36457   9.114   8.246   5.790  0.7384  0.0682  0.1406
  277MOL0     C36458   9.036   8.355   5.820 -0.8077  0.6713  0.2716
  277MOL0     C36459   8.903   8.352   5.851  1.1382  0.3152 -0.3767
  277MOL0     C36460   8.834   8.230   5.851  0.2598  0.1837 -0.1804
  277MOL0     C36461   8.689   8.226   5.863 -0.0822 -0.8827 -0.3238
  277MOL0     O36462   8.619   8.116   5.835 -0.3399  0.1563 -0.3871
  277MOL0     C36463   8.482   8.114   5.846 -0.0692  0.2504  0.5706
  277MOL0     C36464   8.414   8.042   5.747  0.3953  0.1489  0.7502
  277MOL0     C36465   8.273   8.020   5.752 -0.4047  0.2825  0.9089
  277MOL0     C36466   8.198   8.072   5.854  0.4567 -0.2817 -0.5661
  277MOL0     O36467   8.065   8.059   5.851 -0.5746 -0.1237  0.1626
  277MOL0     C36468   7.977   8.129   5.941 -0.0101 -0.1006 -0.0318
  277MOL0     C36469   7.841   8.065   5.908 -0.3978  0.2082  0.6726
  277MOL0     C36470   7.726   8.095   6.001  0.0119  0.2474  0.8117
  277MOL0     C36471   7.597   8.036   5.938 -0.4064  0.0542  0.2000
  277MOL0     C36472   7.483   8.142   5.954 -0.3458 -0.1306  1.2205
  277MOL0     C36473   7.339   8.086   5.923 -0.5620 -0.4103 -0.7866
  277MOL0     C36474   7.322   8.060   5.772 -1.3016  0.3105  0.0984
  277MOL0     C36475   7.191   8.004   5.730 -0.4967  0.5770 -1.2377
  277MOL0    Cl36476   7.060   8.116   5.755 -0.2127 -0.0905 -0.4374
  277MOL0     C36477   8.263   8.142   5.959 -0.3398  0.6170  0.3807
  277MOL0     C36478   8.401   8.165   5.948 -0.2688  0.5699 -0.8440
  277MOL0     O36479   8.633   8.329   5.908  0.5765  0.0616 -0.1265
  277MOL0     C36480   8.905   8.112   5.823  0.6381 -0.9635  0.6327
  277MOL0     C36481   9.040   8.126   5.792 -0.3463  0.3522  1.0400
  277MOL0     N36482   9.832   8.215   5.865 -0.6674 -0.8666 -0.8189
  277MOL0     N36483   9.924   8.208   5.959  0.0559  0.0956  0.1338
  277MOL0     C36484   9.872   8.453   7.139 -0.3569 -0.0452  0.1590
  277MOL0     C36485   9.793   8.503   7.243 -0.5814  0.2285  0.5160
  277MOL0     C36486   9.491   8.738   7.474 -0.8889  0.7617 -0.1631
  277MOL0     C36487   9.418   8.856   7.493 -0.7876 -0.6884 -0.1202
  277MOL0     C36488   9.375   8.887   7.629  0.0807 -1.3996  0.9111
  277MOL0     C36489   9.392   8.802   7.734  0.8363  0.7473  0.4743
  277MOL0     O36490   9.376   8.847   7.867 -0.1707 -0.4321  0.2424
  277MOL0     C36491   9.316   8.974   7.906  0.1361 -0.4653 -0.6862
  277MOL0     C36492   9.393   9.102   7.887 -0.8144  0.8850  0.1651
  277MOL0     C36493   9.550   9.084   7.896  0.9279 -0.3551 -0.6450
  277MOL0     C36494   9.626   9.203   7.830  0.1301 -0.7416  1.0423
  277MOL0     C36495   9.632   9.205   7.681  0.1063  0.2334 -0.8634
  277MOL0     C36496   9.628   9.215   7.563  0.3754  0.4898 -0.2391
  277MOL0     C36497   9.451   8.684   7.709  0.2791  0.2031 -0.1565
  277MOL0     C36498   9.504   8.649   7.576  0.3502  0.0308  0.2396
  277MOL0     H36499   9.505   8.547   7.083  0.3132  0.5467  2.0198
  277MOL0     H36500   9.645   8.482   6.886 -3.2102 -0.1119  1.2613
  277MOL0     H36501   9.998   8.246   6.929 -0.3344  0.6162  1.4525
  277MOL0     H36502  10.081   8.396   6.972 -2.6004  1.0178 -0.9072
  277MOL0     H36503  10.147   8.259   6.757 -0.8470 -1.4737 -0.1743
  277MOL0     H36504  10.144   8.439   6.754  0.0845 -0.2238 -1.5448
  277MOL0     H36505   9.898   8.395   6.658 -0.4906 -0.3243 -0.1955
  277MOL0     H36506   9.977   8.241   6.606  2.3313 -0.5098  0.7886
  277MOL0     H36507  10.102   8.513   6.535  0.5473 -0.0941 -3.7683
  277MOL0     H36508  10.154   8.358   6.486  0.0593  1.7259 -2.7741
  277MOL0     H36509  10.038   8.505   6.327  1.1421  0.2969  2.1547
  277MOL0     H36510   9.885   8.498   6.414 -2.1274 -2.6985 -2.4107
  277MOL0     H36511   9.842   8.349   6.257 -0.8220  1.5599  2.1314
  277MOL0     H36512   9.864   8.255   6.405 -0.9027  3.2564  1.7788
  277MOL0     H36513  10.073   8.286   6.196 -2.0040  1.7525 -0.4879
  277MOL0     H36514  10.079   8.168   6.334 -0.0884  0.2689 -0.0711
  277MOL0     H36515   9.887   8.062   6.264  1.0413 -0.4592 -0.0395
  277MOL0     H36516  10.028   8.059   6.158  2.1706  2.6913  0.3178
  277MOL0     H36517   9.666   8.073   6.103 -1.3257 -0.6983 -2.7119
  277MOL0     H36518   9.615   8.104   5.751  1.0232  0.3540  0.9336
  277MOL0     H36519   9.570   8.261   5.801 -3.0193 -1.3977  0.4548
  277MOL0     H36520   9.420   8.206   5.960  3.7384  1.6199  0.9626
  277MOL0     H36521   9.487   8.045   5.983  0.5725 -1.4929 -1.5238
  277MOL0     H36522   9.418   7.959   5.766 -1.1304  0.6074 -1.7179
  277MOL0     H36523   9.283   7.998   5.866  1.0420 -1.2868  0.5156
  277MOL0     H36524   9.250   8.086   5.631 -1.2708  2.4532 -1.1375
  277MOL0     H36525   9.399   8.172   5.640 -0.2519  2.3559  2.1916
  277MOL0     H36526   9.091   8.449   5.831 -1.4776  1.2676 -1.1928
  277MOL0     H36527   8.843   8.442   5.864  2.1483  1.0992 -0.9710
  277MOL0     H36528   8.448   7.995   5.656 -2.0049  0.1267 -0.2115
  277MOL0     H36529   8.223   7.979   5.665  2.1910 -1.8592  0.2964
  277MOL0     H36530   7.973   8.234   5.910  4.2685 -0.1601 -1.4520
  277MOL0     H36531   8.000   8.116   6.047  2.4813 -0.4286 -0.5635
  277MOL0     H36532   7.853   7.956   5.903  0.8105  0.3445  0.3064
  277MOL0     H36533   7.809   8.096   5.808 -1.7749 -2.7463  0.0723
  277MOL0     H36534   7.708   8.202   6.011 -1.6921  0.0461  0.2410
  277MOL0     H36535   7.738   8.047   6.098  0.0539 -1.7187 -0.1143
  277MOL0     H36536   7.605   8.024   5.830 -1.1861  0.2626  0.1188
  277MOL0     H36537   7.582   7.939   5.988  0.8362  0.8107  2.1950
  277MOL0     H36538   7.503   8.232   5.895  0.9848 -1.9521 -1.2929
  277MOL0     H36539   7.470   8.167   6.059 -1.9896 -0.7566  1.1977
  277MOL0     H36540   7.262   8.161   5.943 -0.6573 -1.2785  2.8461
  277MOL0     H36541   7.317   7.994   5.978 -1.0681  1.5959  2.6192
  277MOL0     H36542   7.342   8.151   5.713 -2.8713  0.2846 -0.5367
  277MOL0     H36543   7.402   7.996   5.736  0.5305  2.0415  0.9138
  277MOL0     H36544   7.163   7.914   5.786  0.5100  1.4775  0.8445
  277MOL0     H36545   7.184   7.970   5.627 -5.9010 -1.2275 -0.6044
  277MOL0     H36546   8.207   8.184   6.042  1.0037  1.0233  1.1146
  277MOL0     H36547   8.440   8.221   6.033 -1.6301  0.0349  0.1696
  277MOL0     H36548   8.847   8.021   5.821 -1.0479  0.0777  0.0348
  277MOL0     H36549   9.083   8.035   5.752 -0.0811  1.3818 -1.1669
  277MOL0     H36550   9.968   8.419   7.176 -1.0816 -1.4318  0.8474
  277MOL0     H36551   9.827   8.499   7.346  0.2121 -0.5921  0.2429
  277MOL0     H36552   9.403   8.923   7.409  1.0829  1.9898  1.5127
  277MOL0     H36553   9.333   8.987   7.640  2.1798 -0.5437  1.6914
  277MOL0     H36554   9.292   8.967   8.012 -3.5630 -0.1335 -1.3578
  277MOL0     H36555   9.217   8.988   7.861 -1.6661 -0.3824  2.9425
  277MOL0     H36556   9.377   9.138   7.785  1.1216  2.9101  0.4977
  277MOL0     H36557   9.353   9.171   7.962 -3.0938 -0.6903  0.4891
  277MOL0     H36558   9.597   8.999   7.844  1.0010 -0.1599 -0.9006
  277MOL0     H36559   9.573   9.077   8.002 -0.2442 -0.1040 -0.3658
  277MOL0     H36560   9.585   9.298   7.865  0.2600 -1.4113  3.1403
  277MOL0     H36561   9.730   9.212   7.865  0.9737  4.8445 -1.7313
  277MOL0     H36562   9.625   9.197   7.458 -0.8200 -0.5916 -0.0304
  277MOL0     H36563   9.489   8.635   7.798 -0.5313  1.1979  0.7593
  277MOL0     H36564   9.565   8.560   7.569 -0.1514 -0.5289  2.3086
  278MOL0     O36565   9.606   0.948   3.107  0.1753  0.4879  0.1113
  278MOL0     C36566   9.666   0.854   3.158  0.0364 -0.6908  0.1933
  278MOL0     O36567   9.647   0.724   3.121 -0.5875 -0.7457 -0.0583
  278MOL0     C36568   9.536   0.688   3.050  0.4279  0.1182 -0.0029
  278MOL0     C36569   9.442   0.611   3.116  0.8922  0.0706  0.3969
  278MOL0     C36570   9.327   0.563   3.050 -0.1653 -0.7672  0.0419
  278MOL0     C36571   9.303   0.588   2.916  0.1853 -0.0580  0.1743
  278MOL0     O36572   9.184   0.535   2.868  0.3855  0.0526 -0.0975
  278MOL0     C36573   9.160   0.530   2.723 -0.2076  1.1485 -0.2373
  278MOL0     C36574   9.078   0.650   2.688 -0.3076  0.3380  0.0983
  278MOL0     C36575   8.976   0.603   2.572 -0.6372 -0.3437  0.3940
  278MOL0     C36576   8.855   0.696   2.556 -0.1162 -0.4410  0.2506
  278MOL0     C36577   8.754   0.644   2.454 -0.5695 -0.3610  0.4510
  278MOL0     C36578   8.817   0.627   2.311  0.9606  0.6273 -0.2795
  278MOL0     C36579   8.713   0.612   2.198 -0.1895  0.2171  0.0419
  278MOL0     C36580   8.652   0.475   2.199 -0.5506  1.1793 -0.6191
  278MOL0     N36581   8.581   0.435   2.073  1.0315  1.1365  0.2682
  278MOL0     C36582   8.448   0.448   2.055 -0.1446  0.5071  0.5001
  278MOL0     C36583   8.414   0.371   1.949  0.8067 -0.2493 -0.0954
  278MOL0     C36584   8.275   0.334   1.904  0.1762  0.0939  0.6527
  278MOL0     C36585   8.208   0.445   1.827 -0.1444 -0.2432 -1.4180
  278MOL0     C36586   8.108   0.393   1.713 -0.2592 -0.5562 -0.5478
  278MOL0     C36587   7.976   0.318   1.741  0.1085 -0.0394  0.3851
  278MOL0     O36588   7.921   0.283   1.616 -0.1078  0.7318  0.4560
  278MOL0     C36589   7.790   0.256   1.609 -0.3437 -0.7388  0.0077
  278MOL0     C36590   7.726   0.300   1.497  0.3193 -0.4063 -0.1688
  278MOL0     C36591   7.580   0.305   1.484  0.0053 -0.3096  0.6667
  278MOL0     C36592   7.504   0.238   1.581  0.3906 -0.6867 -0.0108
  278MOL0     C36593   7.358   0.248   1.573  0.4269  1.2997 -0.0050
  278MOL0     O36594   7.311   0.241   1.454 -0.0498 -0.5040  0.2363
  278MOL0     C36595   7.176   0.244   1.441 -0.2975 -0.4928  1.0944
  278MOL0     C36596   7.134   0.362   1.373  0.5663  0.2097 -0.1179
  278MOL0     C36597   7.001   0.385   1.354  0.4125 -0.2269  0.6186
  278MOL0     C36598   6.907   0.303   1.405 -0.1338  0.2602 -0.0027
  278MOL0     O36599   6.781   0.349   1.392 -0.1108 -0.0879  0.1918
  278MOL0     C36600   6.672   0.250   1.385  0.1681 -0.7142 -0.5261
  278MOL0     C36601   6.551   0.328   1.323 -0.1958 -0.3284 -0.1328
  278MOL0     C36602   6.463   0.393   1.432 -0.5487  0.4708 -0.0119
  278MOL0     C36603   6.320   0.433   1.387 -0.0710  0.6338 -0.2326
  278MOL0     C36604   6.242   0.506   1.496  0.1129 -0.1132  0.3814
  278MOL0     C36605   6.092   0.493   1.469 -0.4294  0.0736  0.6429
  278MOL0     C36606   6.002   0.554   1.579  0.7108 -0.3281  1.0309
  278MOL0     C36607   5.869   0.592   1.504  0.2954  0.1562  0.2695
  278MOL0    Cl36608   5.882   0.746   1.418  0.1945 -0.3839 -0.0214
  278MOL0     C36609   6.952   0.190   1.475 -0.1607  0.2282 -0.9753
  278MOL0     C36610   7.088   0.163   1.487  0.1350 -0.7404  0.1556
  278MOL0     O36611   7.294   0.278   1.674 -0.2070  0.0750  0.0405
  278MOL0     C36612   7.574   0.173   1.692 -0.5306 -0.9623  0.6460
  278MOL0     C36613   7.717   0.187   1.702  0.4957  0.6060 -0.2764
  278MOL0     N36614   8.533   0.320   1.904 -0.0263  0.0339 -0.5364
  278MOL0     N36615   8.635   0.361   1.975 -0.3897  0.3308 -0.7822
  278MOL0     C36616   9.398   0.653   2.844  0.4250 -0.4988  0.8114
  278MOL0     C36617   9.509   0.700   2.917  0.2073 -1.1325 -1.4302
  278MOL0     C36618   9.769   0.895   3.268 -0.6078  0.2903 -0.2587
  278MOL0     C36619   9.803   1.027   3.293 -1.0171  0.2803 -0.3845
  278MOL0     C36620   9.910   1.063   3.379 -0.1343  0.3395  0.4906
  278MOL0     C36621   9.980   0.964   3.451 -0.0734 -1.6622 -0.6346
  278MOL0     O36622  10.071   1.014   3.535 -0.2659  0.1042  0.1246
  278MOL0     C36623  10.121   0.924   3.634  0.1429 -0.0898 -0.5394
  278MOL0     C36624  10.198   1.007   3.733  0.2897  0.0881 -0.2352
  278MOL0     C36625  10.317   1.083   3.674 -0.5496  0.0481 -0.3656
  278MOL0     C36626  10.424   0.986   3.628  0.2072 -1.2706 -0.3881
  278MOL0     C36627  10.558   1.051   3.631 -0.2560  0.1564  0.3205
  278MOL0     C36628  10.675   1.078   3.643  0.0125 -1.0341  0.4993
  278MOL0     C36629   9.948   0.831   3.428 -0.5507 -0.9222  0.1136
  278MOL0     C36630   9.841   0.802   3.338 -0.4550 -0.0377  0.2167
  278MOL0     H36631   9.471   0.591   3.218  0.7017 -2.7704 -0.0399
  278MOL0     H36632   9.247   0.505   3.096 -0.9339 -0.8065 -1.3057
  278MOL0     H36633   9.114   0.432   2.709  3.1467 -1.0097  2.2333
  278MOL0     H36634   9.247   0.511   2.659 -0.3810 -1.6565  0.2252
  278MOL0     H36635   9.143   0.723   2.639 -0.0885  1.9282  2.6006
  278MOL0     H36636   9.024   0.697   2.771  0.9867 -0.8815  1.6831
  278MOL0     H36637   8.940   0.500   2.583 -1.4854 -0.2609 -1.3647
  278MOL0     H36638   9.029   0.614   2.477 -1.4862  0.4861  0.0017
  278MOL0     H36639   8.816   0.708   2.658  1.3963  0.3129  0.7685
  278MOL0     H36640   8.888   0.798   2.533 -0.3836  0.0871  2.0677
  278MOL0     H36641   8.669   0.712   2.443  0.6188  1.4423  1.7371
  278MOL0     H36642   8.711   0.552   2.494  2.0619 -1.4558  0.9439
  278MOL0     H36643   8.891   0.546   2.306 -0.7765 -1.1228  0.9253
  278MOL0     H36644   8.877   0.716   2.293  0.2302  1.2451  0.2633
  278MOL0     H36645   8.646   0.698   2.202  1.0228  1.2739 -1.1829
  278MOL0     H36646   8.766   0.623   2.103 -1.8787 -0.7801 -1.0742
  278MOL0     H36647   8.586   0.463   2.285 -0.3053 -1.4693 -0.7131
  278MOL0     H36648   8.734   0.402   2.206 -0.4668  1.3515  0.3437
  278MOL0     H36649   8.380   0.505   2.117 -3.4804 -1.2114 -1.2544
  278MOL0     H36650   8.228   0.315   2.000 -0.2309  0.8152  0.6062
  278MOL0     H36651   8.281   0.244   1.842 -0.0112  0.5763 -0.0808
  278MOL0     H36652   8.286   0.503   1.777  0.8354  2.7731  3.0210
  278MOL0     H36653   8.147   0.501   1.899 -1.5866 -0.1790 -2.6342
  278MOL0     H36654   8.077   0.475   1.647 -1.2413 -2.1596 -2.1841
  278MOL0     H36655   8.175   0.337   1.647 -0.7964  0.4009 -1.9658
  278MOL0     H36656   7.908   0.385   1.794 -1.2786 -0.2017 -1.0995
  278MOL0     H36657   7.990   0.224   1.796  0.9169 -0.5640 -0.6865
  278MOL0     H36658   7.794   0.338   1.421  2.3321 -1.6381  0.9186
  278MOL0     H36659   7.519   0.347   1.405 -0.9669  0.7221  1.9190
  278MOL0     H36660   7.209   0.437   1.350  2.1196 -0.6872  1.7420
  278MOL0     H36661   6.958   0.467   1.296 -2.9751 -0.6217  2.3462
  278MOL0     H36662   6.665   0.212   1.488  2.5234 -3.0400 -1.1097
  278MOL0     H36663   6.694   0.159   1.328 -2.4989 -0.3299 -2.3310
  278MOL0     H36664   6.482   0.256   1.277 -1.9996  1.6803 -0.7559
  278MOL0     H36665   6.584   0.388   1.238  1.3344  1.4331  1.6304
  278MOL0     H36666   6.520   0.476   1.476 -1.8754 -0.0126  2.8478
  278MOL0     H36667   6.462   0.313   1.506  2.7419 -1.4097 -1.7903
  278MOL0     H36668   6.325   0.492   1.295  2.0672 -0.5541 -0.9251
  278MOL0     H36669   6.264   0.343   1.361 -1.5014  1.2207  0.6873
  278MOL0     H36670   6.271   0.612   1.497  2.5024 -0.6800  2.7071
  278MOL0     H36671   6.262   0.471   1.597 -3.7803  0.1921  1.4091
  278MOL0     H36672   6.069   0.386   1.468 -0.1767  0.0172  0.7544
  278MOL0     H36673   6.066   0.523   1.367 -2.6109 -1.6002  0.6194
  278MOL0     H36674   5.982   0.485   1.661  1.1657 -1.3501  0.3033
  278MOL0     H36675   6.050   0.644   1.618  0.2118 -0.1761  1.3050
  278MOL0     H36676   5.792   0.619   1.577  1.9913 -0.4221  2.4059
  278MOL0     H36677   5.839   0.507   1.442 -0.4013  1.6378 -1.4954
  278MOL0     H36678   6.880   0.122   1.519 -0.5770  1.6489  0.6665
  278MOL0     H36679   7.109   0.074   1.546  0.3758  0.0805  1.3211
  278MOL0     H36680   7.532   0.123   1.779  1.8192  0.2411  2.6025
  278MOL0     H36681   7.766   0.167   1.796  1.0240  1.8943 -0.2577
  278MOL0     H36682   9.395   0.683   2.739 -0.4887 -2.7181  0.1519
  278MOL0     H36683   9.575   0.765   2.860 -0.1549 -0.2816 -0.9042
  278MOL0     H36684   9.763   1.104   3.228 -1.1535  0.3741 -0.1902
  278MOL0     H36685   9.936   1.169   3.379  1.1631  0.0617  1.8646
  278MOL0     H36686  10.176   0.841   3.588  0.2082 -1.4914  1.8375
  278MOL0     H36687  10.043   0.875   3.694  1.0445  0.8997  1.5472
  278MOL0     H36688  10.125   1.080   3.771 -1.2260  0.3040 -3.2497
  278MOL0     H36689  10.231   0.945   3.816 -4.5057 -2.2694  0.2618
  278MOL0     H36690  10.365   1.124   3.764  0.3916  2.2897 -1.7909
  278MOL0     H36691  10.273   1.155   3.604  2.0350  0.2588 -1.8748
  278MOL0     H36692  10.419   0.897   3.690 -0.2046 -0.8008  0.2654
  278MOL0     H36693  10.392   0.962   3.526 -0.7508 -4.5926  0.5893
  278MOL0     H36694  10.780   1.095   3.660 -0.5509  2.5317  1.2386
  278MOL0     H36695   9.986   0.756   3.496 -0.5278  0.9632  2.2998
  278MOL0     H36696   9.823   0.695   3.347 -0.2740  0.1011  3.5952
  279MOL0     O36697   5.256   4.237   0.226 -0.2380 -0.6975 -0.6862
  279MOL0     C36698   5.293   4.123   0.258  0.1585 -0.5663 -0.1237
  279MOL0     O36699   5.214   4.011   0.262 -0.1017  0.0441 -0.5473
  279MOL0     C36700   5.072   4.003   0.272 -0.9342 -0.4169  0.1773
  279MOL0     C36701   5.005   3.884   0.252 -0.1134 -0.0243 -0.1032
  279MOL0     C36702   4.866   3.872   0.290 -0.2573 -0.0214 -0.2678
  279MOL0     C36703   4.795   3.977   0.347 -1.5804  0.1612  0.8621
  279MOL0     O36704   4.678   3.972   0.407 -0.1989  0.4902  0.5554
  279MOL0     C36705   4.580   3.888   0.349 -0.0659 -0.6432 -0.5893
  279MOL0     C36706   4.467   3.879   0.453  1.1502 -0.5143 -0.4162
  279MOL0     C36707   4.368   3.755   0.426 -0.1351 -0.1312 -0.0940
  279MOL0     C36708   4.269   3.734   0.535 -0.6310  0.0807 -0.0048
  279MOL0     C36709   4.159   3.839   0.524  0.3070  0.3202  0.2908
  279MOL0     C36710   4.080   3.804   0.650  0.5956  0.1500  0.2715
  279MOL0     C36711   3.928   3.856   0.667  0.5622  0.4074  0.2907
  279MOL0     C36712   3.859   3.807   0.799 -0.4776 -0.2395  0.3367
  279MOL0     N36713   3.724   3.858   0.810  0.9130  0.6134 -0.4110
  279MOL0     C36714   3.612   3.827   0.729 -0.6622 -0.3017  0.2805
  279MOL0     C36715   3.508   3.889   0.787  0.0850 -0.3690  0.7975
  279MOL0     C36716   3.375   3.877   0.721  0.1208 -0.3134  0.8840
  279MOL0     C36717   3.249   3.857   0.809  0.3385 -0.1285 -1.0086
  279MOL0     C36718   3.229   3.706   0.833 -0.0773  0.0776 -0.2461
  279MOL0     C36719   3.140   3.680   0.951  0.2530  0.0614  0.4183
  279MOL0     O36720   3.010   3.732   0.902 -0.0276 -0.8448 -0.2543
  279MOL0     C36721   2.898   3.676   0.962  1.3312 -0.6800  0.4201
  279MOL0     C36722   2.784   3.740   0.931  0.4277 -0.6747 -0.0886
  279MOL0     C36723   2.658   3.700   0.976 -0.2827  1.0426 -0.3326
  279MOL0     C36724   2.649   3.594   1.072  0.3875 -0.5607 -0.2340
  279MOL0     C36725   2.514   3.556   1.128  0.1166  0.1438  0.3250
  279MOL0     O36726   2.395   3.605   1.078 -0.1528  0.0680 -0.0733
  279MOL0     C36727   2.270   3.599   1.145 -0.2827  0.1673  0.5247
  279MOL0     C36728   2.242   3.578   1.275  0.3906 -0.1823  0.4003
  279MOL0     C36729   2.111   3.587   1.329  1.1332  0.3712 -0.0714
  279MOL0     C36730   1.999   3.619   1.243 -0.3828  0.3667 -0.4140
  279MOL0     O36731   1.873   3.621   1.301  0.0788 -0.2213  0.1723
  279MOL0     C36732   1.759   3.588   1.219 -0.3994 -0.6294 -0.2190
  279MOL0     C36733   1.636   3.559   1.299  0.6797 -0.3395 -0.1339
  279MOL0     C36734   1.542   3.468   1.216  0.2559  0.0514  0.1258
  279MOL0     C36735   1.483   3.542   1.089  0.0249  0.1567 -0.7470
  279MOL0     C36736   1.440   3.463   0.969  0.1120  0.0500  0.6360
  279MOL0     C36737   1.292   3.423   0.988  0.3108 -0.0723 -0.2675
  279MOL0     C36738   1.219   3.359   0.873  0.2234 -0.1129  0.2585
  279MOL0     C36739   1.073   3.334   0.917 -0.9777 -0.2357  0.5047
  279MOL0    Cl36740   0.955   3.285   0.788 -0.3515  0.3814 -0.0520
  279MOL0     C36741   2.028   3.632   1.108  1.0440 -0.1428  0.2600
  279MOL0     C36742   2.158   3.625   1.065  0.0146  0.3376 -0.1810
  279MOL0     O36743   2.522   3.473   1.216  0.0903 -0.2443 -0.5269
  279MOL0     C36744   2.767   3.529   1.107  0.0019 -1.0274 -0.1102
  279MOL0     C36745   2.890   3.568   1.056  0.1564 -0.8642  0.4959
  279MOL0     N36746   3.553   3.958   0.901 -0.0960  0.6680  0.0834
  279MOL0     N36747   3.681   3.939   0.905 -0.8077 -0.1777  0.1116
  279MOL0     C36748   4.860   4.103   0.353 -0.5577 -0.1196 -0.4422
  279MOL0     C36749   4.998   4.112   0.326 -0.9249  0.1833  0.5336
  279MOL0     C36750   5.439   4.111   0.277  0.0994  0.9644  0.0151
  279MOL0     C36751   5.512   3.983   0.284  0.7003 -0.8856  0.8973
  279MOL0     C36752   5.640   3.976   0.321 -0.0218 -0.4399 -0.3683
  279MOL0     C36753   5.716   4.096   0.326 -0.5151  0.7824 -0.6396
  279MOL0     O36754   5.855   4.088   0.354  0.0078  0.0937 -0.3602
  279MOL0     C36755   5.926   4.209   0.344  0.5488  0.2478  0.6850
  279MOL0     C36756   6.083   4.178   0.358 -0.2126 -0.2255  0.3063
  279MOL0     C36757   6.140   4.086   0.245 -0.0980 -0.2188  0.1871
  279MOL0     C36758   6.278   4.026   0.262 -0.5624  1.1712 -0.5397
  279MOL0     C36759   6.320   3.958   0.133 -0.8972  0.2129  0.3472
  279MOL0     C36760   6.357   3.911   0.028  0.1061  0.0983 -0.2282
  279MOL0     C36761   5.652   4.218   0.325  0.8589 -0.6182  0.7113
  279MOL0     C36762   5.512   4.229   0.304  0.4018 -0.0774 -0.2234
  279MOL0     H36763   5.057   3.798   0.211  1.2718 -0.4421  2.3322
  279MOL0     H36764   4.827   3.772   0.273  2.0927 -1.0459 -0.0306
  279MOL0     H36765   4.615   3.788   0.322  2.7563  0.3231 -0.7870
  279MOL0     H36766   4.528   3.933   0.264 -4.1143 -0.2738  1.7999
  279MOL0     H36767   4.402   3.966   0.453 -0.0152 -1.3632 -1.1436
  279MOL0     H36768   4.506   3.872   0.555 -2.2679  0.8026  1.1241
  279MOL0     H36769   4.438   3.672   0.412  0.0700 -0.1249  0.8140
  279MOL0     H36770   4.320   3.776   0.330 -1.3882  0.1312  0.5645
  279MOL0     H36771   4.242   3.629   0.524 -1.7115  0.3524 -0.0237
  279MOL0     H36772   4.319   3.757   0.629  1.8985  4.0250 -2.0272
  279MOL0     H36773   4.100   3.810   0.437  0.2634  0.7782  0.1703
  279MOL0     H36774   4.191   3.943   0.522  3.0519 -0.4455 -0.2981
  279MOL0     H36775   4.133   3.851   0.734  1.7991  1.7102 -1.2926
  279MOL0     H36776   4.082   3.697   0.675 -3.2393  0.5920  3.4086
  279MOL0     H36777   3.921   3.965   0.673  1.6013  0.5932 -1.2188
  279MOL0     H36778   3.865   3.817   0.586  0.4300 -1.6635  1.3172
  279MOL0     H36779   3.930   3.850   0.870  2.0126  0.8471 -2.6032
  279MOL0     H36780   3.881   3.700   0.813 -0.4590 -0.4908 -1.3671
  279MOL0     H36781   3.616   3.758   0.645  1.4550 -2.0836  1.7143
  279MOL0     H36782   3.386   3.801   0.643  1.5067  0.4398  0.2927
  279MOL0     H36783   3.355   3.972   0.669  0.3333  0.7255  2.6177
  279MOL0     H36784   3.153   3.900   0.778 -0.6279 -2.5088 -1.5895
  279MOL0     H36785   3.272   3.896   0.909  2.6148 -3.2599 -0.1312
  279MOL0     H36786   3.179   3.663   0.746 -1.5659  0.2433  0.4828
  279MOL0     H36787   3.325   3.657   0.848  0.0962  0.2316 -0.8280
  279MOL0     H36788   3.187   3.730   1.035  0.0899 -0.3540  0.7578
  279MOL0     H36789   3.141   3.575   0.980 -0.2502  0.3237  1.4351
  279MOL0     H36790   2.778   3.821   0.858 -0.9567 -1.0387 -0.4102
  279MOL0     H36791   2.573   3.760   0.947  0.3911  1.8722 -0.6348
  279MOL0     H36792   2.327   3.551   1.337 -0.0775 -0.7152  0.8141
  279MOL0     H36793   2.107   3.567   1.436 -0.2085  2.0814  0.2471
  279MOL0     H36794   1.778   3.501   1.154 -2.3879 -0.6312 -0.8574
  279MOL0     H36795   1.727   3.670   1.153 -1.7099 -0.5927  0.4365
  279MOL0     H36796   1.584   3.653   1.320  1.3622  0.4403 -1.7971
  279MOL0     H36797   1.652   3.512   1.396  1.3805  1.1082  0.4735
  279MOL0     H36798   1.462   3.444   1.288  0.2796  1.4606  0.6521
  279MOL0     H36799   1.587   3.373   1.187  2.2471  0.6407  1.0704
  279MOL0     H36800   1.402   3.607   1.121  0.7521  1.5266 -1.6154
  279MOL0     H36801   1.567   3.605   1.059 -1.5254  1.5753 -2.3361
  279MOL0     H36802   1.509   3.385   0.934 -1.2176 -0.5725 -0.6835
  279MOL0     H36803   1.430   3.526   0.880 -0.6185  0.0962  0.7457
  279MOL0     H36804   1.230   3.509   1.013  0.4777  1.1454 -3.5648
  279MOL0     H36805   1.291   3.354   1.073 -1.5260 -0.5834 -0.6614
  279MOL0     H36806   1.217   3.426   0.786  2.4338  1.4218  1.2975
  279MOL0     H36807   1.268   3.266   0.843  2.9599  0.3685  2.6988
  279MOL0     H36808   1.039   3.426   0.964 -2.6525 -0.3398 -0.4030
  279MOL0     H36809   1.073   3.260   0.998  0.2171  0.6256  1.3279
  279MOL0     H36810   1.946   3.657   1.041 -0.9161 -1.1989  2.1309
  279MOL0     H36811   2.170   3.633   0.957 -0.3745 -1.7026 -0.4165
  279MOL0     H36812   2.766   3.452   1.183 -0.3738 -1.8483 -0.9278
  279MOL0     H36813   2.976   3.518   1.102  1.1621  0.2520 -0.1103
  279MOL0     H36814   4.804   4.187   0.394 -1.3237 -1.1153  0.6158
  279MOL0     H36815   5.054   4.202   0.345 -1.9347  0.8158  0.5729
  279MOL0     H36816   5.461   3.890   0.259 -2.4470  0.7217  0.7146
  279MOL0     H36817   5.693   3.882   0.337 -0.2787 -0.9224 -2.1262
  279MOL0     H36818   5.899   4.267   0.433 -1.0009  0.9438 -0.1979
  279MOL0     H36819   5.906   4.264   0.252 -0.8232 -0.4773  0.5309
  279MOL0     H36820   6.140   4.271   0.358 -1.3767  0.5528 -1.5922
  279MOL0     H36821   6.104   4.138   0.458 -0.0207 -1.1418 -0.0933
  279MOL0     H36822   6.151   4.151   0.157  0.4245  2.6089  2.2007
  279MOL0     H36823   6.071   4.004   0.223 -1.6865  1.0336  0.2845
  279MOL0     H36824   6.353   4.101   0.290  0.6296 -0.3720  0.6301
  279MOL0     H36825   6.277   3.962   0.351  1.0718  0.1257 -1.2219
  279MOL0     H36826   6.379   3.874  -0.070  2.3193  0.4134  0.1087
  279MOL0     H36827   5.716   4.306   0.336  2.6031 -1.6918 -0.2582
  279MOL0     H36828   5.453   4.320   0.310 -0.4856 -0.4947 -1.8727
  280MOL0     O36829   4.157   6.318   0.225 -0.3065  0.0581 -0.1657
  280MOL0     C36830   4.226   6.418   0.246 -0.3199 -0.4108  0.3214
  280MOL0     O36831   4.177   6.540   0.284  0.9552 -0.1093 -0.3864
  280MOL0     C36832   4.045   6.555   0.301  0.6219 -0.5631  0.2345
  280MOL0     C36833   3.996   6.513   0.418  0.0762  0.1978 -0.1740
  280MOL0     C36834   3.859   6.539   0.444 -0.3379  0.1443 -0.4906
  280MOL0     C36835   3.772   6.614   0.366 -0.2143  0.5104 -0.1355
  280MOL0     O36836   3.638   6.635   0.396 -0.5652 -0.2910  0.3904
  280MOL0     C36837   3.543   6.576   0.309  0.8827 -0.6522  0.4052
  280MOL0     C36838   3.476   6.470   0.394 -0.7074 -0.8374  0.0344
  280MOL0     C36839   3.359   6.399   0.330  0.6219 -0.0920 -0.8370
  280MOL0     C36840   3.259   6.328   0.429 -0.8930  0.6793  0.3602
  280MOL0     C36841   3.134   6.272   0.340  0.0700 -0.5634  0.8098
  280MOL0     C36842   3.056   6.182   0.438  0.6464 -0.1974 -0.5593
  280MOL0     C36843   2.931   6.135   0.369 -0.2864  0.0888 -0.0604
  280MOL0     C36844   2.842   6.052   0.468  0.1976  0.4177 -0.4503
  280MOL0     N36845   2.760   5.945   0.407  0.2986  0.2273 -0.5677
  280MOL0     C36846   2.795   5.814   0.377  0.4499 -0.5031 -0.3528
  280MOL0     C36847   2.674   5.760   0.343  0.2445  0.1577  0.4174
  280MOL0     C36848   2.662   5.609   0.329 -0.0995  0.0842 -0.4931
  280MOL0     C36849   2.585   5.579   0.199 -0.4883  0.4181  0.0029
  280MOL0     C36850   2.509   5.444   0.221 -0.0636 -0.5030  0.0735
  280MOL0     C36851   2.441   5.394   0.095  0.3532 -0.6410  1.1469
  280MOL0     O36852   2.329   5.491   0.063  0.3247 -0.4187  0.5786
  280MOL0     C36853   2.201   5.465   0.105 -0.6233 -0.0667  0.8183
  280MOL0     C36854   2.177   5.394   0.220  0.3491  0.8110  0.0241
  280MOL0     C36855   2.047   5.380   0.262  0.6429  0.3797  0.2385
  280MOL0     C36856   1.939   5.430   0.190 -0.4741  0.1795 -0.4127
  280MOL0     C36857   1.800   5.416   0.236  0.6213  0.6279  0.5996
  280MOL0     O36858   1.697   5.428   0.153 -0.5260  0.1419  0.4809
  280MOL0     C36859   1.580   5.357   0.174  0.5106  0.2378  0.4005
  280MOL0     C36860   1.563   5.231   0.221  0.0831  0.0632 -0.5412
  280MOL0     C36861   1.430   5.182   0.263 -0.1680  0.6978  0.0294
  280MOL0     C36862   1.317   5.255   0.223  0.2779  0.0356 -0.3758
  280MOL0     O36863   1.185   5.218   0.246  0.5090 -0.1350 -0.0057
  280MOL0     C36864   1.171   5.114   0.348 -0.0013  0.5675 -0.3501
  280MOL0     C36865   1.021   5.117   0.394 -0.6698  1.0057  0.9848
  280MOL0     C36866   0.926   5.099   0.275 -0.8148  0.1564 -0.3256
  280MOL0     C36867   0.794   5.055   0.325 -0.7718  0.1352 -1.0758
  280MOL0     C36868   0.692   5.024   0.220  0.4061 -0.2576  0.5445
  280MOL0     C36869   0.548   5.034   0.274  0.0480  0.0993  0.3062
  280MOL0     C36870   0.525   4.926   0.387 -0.1023  0.0288  0.8225
  280MOL0     C36871   0.452   4.799   0.349 -0.2664 -0.0602 -0.7367
  280MOL0    Cl36872   0.282   4.835   0.364  0.5773 -0.1210  0.6637
  280MOL0     C36873   1.339   5.373   0.149  0.6776  0.4659  0.2876
  280MOL0     C36874   1.467   5.421   0.124 -0.0344 -0.7110 -0.4147
  280MOL0     O36875   1.790   5.405   0.359 -0.0670  0.3205 -0.0946
  280MOL0     C36876   1.967   5.491   0.062  1.1785  0.4370 -1.0199
  280MOL0     C36877   2.097   5.514   0.032  0.5320 -0.0522 -0.4262
  280MOL0     N36878   2.572   5.857   0.344 -0.3455  0.2511 -0.3227
  280MOL0     N36879   2.629   5.967   0.377 -0.7546 -0.4516  0.2526
  280MOL0     C36880   3.831   6.666   0.249 -0.6604  0.0868 -0.0887
  280MOL0     C36881   3.964   6.626   0.208 -0.1644 -0.0112 -0.7739
  280MOL0     C36882   4.373   6.403   0.237 -0.3960  0.1879 -0.1053
  280MOL0     C36883   4.440   6.305   0.160  0.2368 -0.1932  0.3148
  280MOL0     C36884   4.584   6.305   0.142  1.0791 -0.4768 -0.2522
  280MOL0     C36885   4.664   6.402   0.203  0.1722 -0.1748 -0.5922
  280MOL0     O36886   4.799   6.390   0.186 -0.6977  0.5762  0.1600
  280MOL0     C36887   4.890   6.472   0.260  0.0040  0.3392  0.0559
  280MOL0     C36888   5.028   6.425   0.260 -0.5420 -0.0624 -0.3981
  280MOL0     C36889   5.112   6.536   0.317 -0.0757 -0.0583  0.2377
  280MOL0     C36890   5.257   6.502   0.300 -0.2914 -0.9936  0.0343
  280MOL0     C36891   5.302   6.390   0.382  0.3480 -0.0708  0.2064
  280MOL0     C36892   5.350   6.294   0.448  0.2621 -0.1786  0.6832
  280MOL0     C36893   4.598   6.502   0.278  0.5449 -0.5302  0.4102
  280MOL0     C36894   4.453   6.498   0.295 -0.7255 -0.0431  1.0321
  280MOL0     H36895   4.071   6.457   0.471  0.4927  0.2581 -0.6938
  280MOL0     H36896   3.820   6.501   0.537 -0.8439 -1.5969 -1.3671
  280MOL0     H36897   3.586   6.535   0.217 -1.5754  1.2148 -1.7503
  280MOL0     H36898   3.473   6.656   0.283 -1.1192 -1.2119  3.5441
  280MOL0     H36899   3.446   6.522   0.486  0.6608  0.5456 -0.2555
  280MOL0     H36900   3.561   6.406   0.420 -0.5166 -0.3408  0.6747
  280MOL0     H36901   3.399   6.334   0.251  0.9372 -2.2765  1.0140
  280MOL0     H36902   3.303   6.468   0.267  2.3864 -0.3592 -2.8125
  280MOL0     H36903   3.310   6.243   0.475 -0.8930  0.9647  0.8963
  280MOL0     H36904   3.221   6.396   0.506 -2.2160  1.3790 -0.8489
  280MOL0     H36905   3.173   6.236   0.244 -1.3014 -0.2277  0.1006
  280MOL0     H36906   3.075   6.359   0.310  1.0000 -0.7979 -2.0061
  280MOL0     H36907   3.037   6.232   0.534  0.8606  1.5213 -1.3619
  280MOL0     H36908   3.118   6.095   0.461 -0.7046 -1.1856 -0.5940
  280MOL0     H36909   2.866   6.211   0.326 -1.3289 -1.3242 -1.0663
  280MOL0     H36910   2.964   6.071   0.287  1.2694 -3.1126  2.7963
  280MOL0     H36911   2.777   6.115   0.530  1.3030 -0.5767  1.8817
  280MOL0     H36912   2.913   6.003   0.535 -1.0935 -0.8538  0.0495
  280MOL0     H36913   2.895   5.773   0.384  0.5923  0.0346  1.0615
  280MOL0     H36914   2.611   5.563   0.414 -0.9620  2.1862  0.2003
  280MOL0     H36915   2.763   5.569   0.333 -0.4993 -1.0622 -1.3133
  280MOL0     H36916   2.662   5.569   0.122  0.1446 -2.4743  0.8631
  280MOL0     H36917   2.517   5.661   0.178  1.7965  1.6685 -3.3337
  280MOL0     H36918   2.588   5.377   0.256  0.5697  1.1734  2.0953
  280MOL0     H36919   2.440   5.471   0.301 -1.7273  2.4171 -2.1349
  280MOL0     H36920   2.401   5.294   0.112  0.1770 -0.4069  2.1913
  280MOL0     H36921   2.506   5.397   0.007 -1.9539  0.3565 -0.6228
  280MOL0     H36922   2.262   5.359   0.277  0.5084 -0.2724 -0.8567
  280MOL0     H36923   2.028   5.312   0.345  0.9313  1.2492  1.0394
  280MOL0     H36924   1.659   5.187   0.247 -0.7423 -1.6595 -0.2648
  280MOL0     H36925   1.431   5.086   0.313 -0.6158  0.7298  0.1032
  280MOL0     H36926   1.235   5.152   0.428 -0.7951  2.8975 -0.7565
  280MOL0     H36927   1.212   5.020   0.311 -0.4462  0.0671  0.3854
  280MOL0     H36928   1.008   5.206   0.457 -2.6039  2.5307 -1.4062
  280MOL0     H36929   1.018   5.031   0.462  1.1107  0.7706  0.8073
  280MOL0     H36930   0.969   5.015   0.220  1.5844  0.1030  1.4627
  280MOL0     H36931   0.910   5.192   0.219  1.0090  0.3504 -0.5663
  280MOL0     H36932   0.808   4.959   0.376 -0.3952 -0.6727 -2.6417
  280MOL0     H36933   0.753   5.120   0.404 -1.3263 -1.3781 -0.0702
  280MOL0     H36934   0.728   4.927   0.185  0.7937  0.6747 -1.8218
  280MOL0     H36935   0.704   5.099   0.141 -1.9479 -1.2553 -0.8738
  280MOL0     H36936   0.480   5.026   0.189 -0.3697 -0.8672  0.7147
  280MOL0     H36937   0.541   5.136   0.315  2.5747  1.1636 -1.6248
  280MOL0     H36938   0.618   4.914   0.443 -0.2407 -0.3731  0.9641
  280MOL0     H36939   0.454   4.978   0.451  0.4788  0.5888  1.0229
  280MOL0     H36940   0.483   4.724   0.422  1.7383 -0.2593 -1.7207
  280MOL0     H36941   0.488   4.771   0.249  3.0336 -0.2988  0.3753
  280MOL0     H36942   1.254   5.426   0.106  2.3846  2.1438 -1.2319
  280MOL0     H36943   1.486   5.517   0.075  0.0118  1.6406  3.7815
  280MOL0     H36944   1.886   5.537   0.006  0.3593  1.6152  1.0397
  280MOL0     H36945   2.120   5.565  -0.061 -0.8385 -0.2883 -0.9132
  280MOL0     H36946   3.770   6.737   0.194 -0.2083  0.0758 -0.6102
  280MOL0     H36947   4.011   6.672   0.121 -1.3963  2.1283 -0.3685
  280MOL0     H36948   4.384   6.230   0.105  1.1146  1.2931 -2.8235
  280MOL0     H36949   4.619   6.222   0.081  0.8053 -1.0850  0.4001
  280MOL0     H36950   4.854   6.491   0.362  1.6344  3.5679  0.1876
  280MOL0     H36951   4.893   6.570   0.211 -0.7645 -0.3171 -1.3337
  280MOL0     H36952   5.041   6.334   0.320 -0.3969  0.1904 -0.0433
  280MOL0     H36953   5.058   6.402   0.158  0.9321 -0.9048  0.2002
  280MOL0     H36954   5.085   6.556   0.421  2.2343 -0.7520  1.0409
  280MOL0     H36955   5.089   6.625   0.258  1.4407 -0.0677 -0.4201
  280MOL0     H36956   5.279   6.487   0.193 -0.0552  0.0650 -0.0678
  280MOL0     H36957   5.319   6.589   0.320  0.7898 -1.4974 -0.9368
  280MOL0     H36958   5.391   6.211   0.502 -2.0834 -0.9277  1.4433
  280MOL0     H36959   4.646   6.591   0.316  0.8304 -0.5386  0.0761
  280MOL0     H36960   4.414   6.580   0.354  3.0110  2.9436 -0.1982
  281MOL0     O36961   3.517   0.386   8.805 -1.1880 -1.1970 -0.2294
  281MOL0     C36962   3.606   0.408   8.892  0.3561  0.2070 -0.1108
  281MOL0     O36963   3.593   0.395   9.025  0.2205 -0.3724 -0.7166
  281MOL0     C36964   3.485   0.322   9.084 -0.2824  0.1420 -0.0160
  281MOL0     C36965   3.414   0.213   9.025  0.4320 -0.5627  0.6438
  281MOL0     C36966   3.306   0.152   9.086  0.3855  0.4239  0.5328
  281MOL0     C36967   3.266   0.212   9.211 -0.6805  0.3995 -0.1260
  281MOL0     O36968   3.162   0.144   9.275  1.2698 -0.1096 -0.3011
  281MOL0     C36969   3.091   0.218   9.366 -0.0176 -0.1141  0.0082
  281MOL0     C36970   2.972   0.126   9.407  0.6069  0.5380  0.3570
  281MOL0     C36971   2.892   0.183   9.521  0.5099 -0.6551  0.5157
  281MOL0     C36972   2.756   0.120   9.537 -0.1566  1.0599  0.8137
  281MOL0     C36973   2.681   0.180   9.646  0.5263 -0.5237 -0.8261
  281MOL0     C36974   2.557   0.093   9.647 -0.0318  0.6760  0.4859
  281MOL0     C36975   2.441   0.152   9.725 -0.1365  0.2782 -0.7588
  281MOL0     C36976   2.360   0.262   9.646 -0.0759 -0.0411 -0.6409
  281MOL0     N36977   2.267   0.195   9.550 -0.1163 -1.1881  0.9648
  281MOL0     C36978   2.144   0.158   9.595  0.2441 -0.9437 -0.1697
  281MOL0     C36979   2.097   0.085   9.495  0.1554 -0.0948 -0.2741
  281MOL0     C36980   1.966   0.015   9.490 -0.4151  0.5010 -0.6133
  281MOL0     C36981   1.846   0.092   9.432  0.4624 -0.7421  0.4520
  281MOL0     C36982   1.868   0.166   9.302 -0.5742 -0.1802 -0.1684
  281MOL0     C36983   1.740   0.215   9.237 -0.1163  0.1496  0.0968
  281MOL0     O36984   1.672   0.302   9.321 -0.5683  0.3128 -0.4030
  281MOL0     C36985   1.548   0.344   9.288  0.3226  0.1421  0.0564
  281MOL0     C36986   1.481   0.434   9.380 -0.5005 -0.4967  0.1465
  281MOL0     C36987   1.358   0.474   9.347  0.7020 -0.2620 -0.2109
  281MOL0     C36988   1.281   0.424   9.241  0.3048 -0.0436  0.3801
  281MOL0     C36989   1.144   0.466   9.211  0.6732 -0.0057 -0.3344
  281MOL0     O36990   1.079   0.549   9.298  0.2390  0.2690  0.1518
  281MOL0     C36991   0.954   0.588   9.248 -0.4876 -0.8066 -0.7891
  281MOL0     C36992   0.933   0.682   9.146 -0.1994  0.0076 -0.9552
  281MOL0     C36993   0.809   0.744   9.117  0.7972 -0.5931 -0.4035
  281MOL0     C36994   0.693   0.699   9.187 -0.0723 -0.0767  0.0662
  281MOL0     O36995   0.570   0.754   9.157  0.0661  0.7675 -0.4074
  281MOL0     C36996   0.454   0.688   9.212  0.4444  0.1230 -0.1928
  281MOL0     C36997   0.335   0.734   9.136  0.7972  0.2032 -0.1318
  281MOL0     C36998   0.206   0.699   9.216  0.0654 -0.0472  0.9977
  281MOL0     C36999   0.176   0.795   9.326 -0.7587 -0.7700 -0.3239
  281MOL0     C37000   0.052   0.876   9.290  0.3320 -0.2494 -0.2979
  281MOL0     C37001   0.011   0.979   9.397  0.2001 -0.6765 -0.5485
  281MOL0     C37002  -0.124   1.048   9.343 -0.8363  0.3976  0.1527
  281MOL0     C37003  -0.152   1.176   9.425 -0.1523 -0.3031 -0.0262
  281MOL0    Cl37004  -0.059   1.316   9.378  0.2630 -0.7155 -0.0317
  281MOL0     C37005   0.713   0.596   9.288  0.3097 -0.6269 -0.1591
  281MOL0     C37006   0.841   0.547   9.318  0.8586  0.4716 -0.1129
  281MOL0     O37007   1.086   0.413   9.114 -0.7390  0.1224 -0.2798
  281MOL0     C37008   1.342   0.327   9.162  0.4294  0.3262  1.0868
  281MOL0     C37009   1.474   0.297   9.177 -0.1097 -0.7714 -0.1122
  281MOL0     N37010   2.196   0.065   9.397  0.3545 -0.7734 -0.2163
  281MOL0     N37011   2.303   0.133   9.433  0.4166 -0.5312 -0.5975
  281MOL0     C37012   3.342   0.316   9.274  0.2376 -0.3532  0.2881
  281MOL0     C37013   3.447   0.371   9.210 -0.6183 -0.5486 -0.6808
  281MOL0     C37014   3.735   0.465   8.843 -0.0965 -0.0113 -0.3978
  281MOL0     C37015   3.785   0.454   8.710  0.1089 -0.2541  0.2312
  281MOL0     C37016   3.908   0.514   8.672  0.1041  0.3665 -0.2192
  281MOL0     C37017   3.992   0.558   8.770 -0.2847 -0.1686 -0.7722
  281MOL0     O37018   4.113   0.596   8.731 -0.2297  0.3067 -0.2888
  281MOL0     C37019   4.115   0.706   8.635  0.9070 -0.6172 -0.1709
  281MOL0     C37020   4.218   0.807   8.683  0.2320 -0.8938 -0.1743
  281MOL0     C37021   4.346   0.738   8.744  0.0093 -0.1768 -0.0894
  281MOL0     C37022   4.456   0.842   8.798  0.1597  0.0061 -0.3608
  281MOL0     C37023   4.489   0.941   8.694 -1.1271  0.0301 -0.2293
  281MOL0     C37024   4.517   1.022   8.610 -0.2787  0.3848  0.3680
  281MOL0     C37025   3.951   0.567   8.904 -0.2068 -0.0254  0.2703
  281MOL0     C37026   3.826   0.518   8.945  0.0452 -0.2894 -0.0782
  281MOL0     H37027   3.440   0.181   8.925 -1.2909  1.7428 -0.6622
  281MOL0     H37028   3.258   0.065   9.043  4.3128 -2.3914  1.2253
  281MOL0     H37029   3.053   0.314   9.331 -1.3436 -0.1033  1.3707
  281MOL0     H37030   3.152   0.233   9.456 -3.4004 -0.5233  2.5330
  281MOL0     H37031   3.000   0.023   9.428  1.9821  1.0838  1.3673
  281MOL0     H37032   2.899   0.126   9.325  0.5775 -0.2668  0.3823
  281MOL0     H37033   2.877   0.289   9.498 -0.3045 -0.8099  0.3083
  281MOL0     H37034   2.946   0.170   9.615 -0.4846 -5.2646  0.6945
  281MOL0     H37035   2.712   0.128   9.438 -0.4970 -2.7032  0.5140
  281MOL0     H37036   2.766   0.013   9.556 -2.9969  0.4034 -0.8706
  281MOL0     H37037   2.664   0.287   9.631  0.4876 -0.6141 -1.4636
  281MOL0     H37038   2.748   0.172   9.732  1.0003  2.7638 -0.7458
  281MOL0     H37039   2.588  -0.006   9.683 -2.6172  0.4725  2.4735
  281MOL0     H37040   2.523   0.079   9.544 -0.2027  0.0501  0.6239
  281MOL0     H37041   2.371   0.078   9.765 -2.5934  2.0208 -1.6158
  281MOL0     H37042   2.496   0.185   9.814 -1.8847 -1.0336  0.9070
  281MOL0     H37043   2.423   0.332   9.591  0.7470  0.8881  1.3806
  281MOL0     H37044   2.299   0.333   9.703 -0.1632  1.0777 -2.0708
  281MOL0     H37045   2.108   0.187   9.694  1.0421 -1.0538  0.1621
  281MOL0     H37046   1.935  -0.015   9.591 -2.5023  1.2303 -0.9805
  281MOL0     H37047   1.995  -0.070   9.427  4.6703  0.2861  1.5857
  281MOL0     H37048   1.817   0.178   9.494  0.1514 -0.5013 -0.0171
  281MOL0     H37049   1.764   0.022   9.412  0.1007  0.3120 -2.1661
  281MOL0     H37050   1.925   0.259   9.304  0.1699 -0.6395  0.3524
  281MOL0     H37051   1.919   0.094   9.237  0.5438  0.2366  0.2300
  281MOL0     H37052   1.675   0.130   9.214  2.9878 -2.2520 -0.5463
  281MOL0     H37053   1.771   0.264   9.144 -1.1299  2.3197  0.8336
  281MOL0     H37054   1.535   0.475   9.464 -0.1724 -0.9238  0.1448
  281MOL0     H37055   1.310   0.554   9.402  0.9825 -2.2005  3.1494
  281MOL0     H37056   1.022   0.718   9.096  0.5591  1.7156  1.4240
  281MOL0     H37057   0.793   0.818   9.039  0.2585  2.8997  2.7677
  281MOL0     H37058   0.447   0.714   9.319  2.8090  0.9886 -0.1800
  281MOL0     H37059   0.455   0.579   9.212  0.4742 -0.0339 -4.4366
  281MOL0     H37060   0.327   0.680   9.041  0.2399  0.7082 -0.3769
  281MOL0     H37061   0.347   0.839   9.109 -0.4053  0.0782 -1.2872
  281MOL0     H37062   0.215   0.604   9.269 -1.0418  0.6945  2.5875
  281MOL0     H37063   0.126   0.673   9.145  1.4540 -1.3259 -0.1638
  281MOL0     H37064   0.148   0.737   9.414  1.4243 -1.8729 -0.3054
  281MOL0     H37065   0.263   0.853   9.359 -0.1120 -2.7207  1.5673
  281MOL0     H37066  -0.023   0.796   9.291 -0.2680  0.2914 -0.9188
  281MOL0     H37067   0.079   0.920   9.193  1.7130  0.8221  0.5490
  281MOL0     H37068   0.103   1.038   9.398  1.4485 -2.5282  0.4133
  281MOL0     H37069   0.004   0.932   9.496 -0.2519 -1.5357 -0.9781
  281MOL0     H37070  -0.127   1.078   9.238  0.5132  0.9776  0.2535
  281MOL0     H37071  -0.204   0.975   9.357 -0.0554 -1.1421 -2.6146
  281MOL0     H37072  -0.139   1.153   9.531 -0.0882 -0.1354  0.0019
  281MOL0     H37073  -0.256   1.209   9.418 -0.3431 -1.1638 -3.9642
  281MOL0     H37074   0.630   0.577   9.354  0.0505  0.4994 -0.1417
  281MOL0     H37075   0.853   0.466   9.390  0.2398 -2.1195 -2.7418
  281MOL0     H37076   1.294   0.281   9.076  1.7359 -1.0836  1.0687
  281MOL0     H37077   1.499   0.226   9.099 -1.8727 -2.3773  0.7167
  281MOL0     H37078   3.320   0.349   9.375  0.4743 -0.7658  0.4778
  281MOL0     H37079   3.497   0.460   9.248 -0.4895  0.3265 -2.7531
  281MOL0     H37080   3.719   0.410   8.636 -1.4362  0.5444  1.0800
  281MOL0     H37081   3.926   0.518   8.565 -1.8129  3.5990 -0.5481
  281MOL0     H37082   4.015   0.743   8.611 -0.0863 -2.8568  0.2316
  281MOL0     H37083   4.158   0.670   8.541  1.2542  2.2145 -1.1792
  281MOL0     H37084   4.243   0.864   8.593  1.9972 -1.4347 -0.0567
  281MOL0     H37085   4.173   0.865   8.765 -3.2601 -1.1823 -1.7150
  281MOL0     H37086   4.397   0.683   8.664  1.5687 -0.8367  1.2941
  281MOL0     H37087   4.329   0.672   8.830 -1.3261 -0.0832 -0.2756
  281MOL0     H37088   4.418   0.900   8.883  1.9587  1.5711 -0.5567
  281MOL0     H37089   4.548   0.790   8.826  1.0314  2.3605  1.5018
  281MOL0     H37090   4.536   1.091   8.530 -0.8847 -0.2474 -0.3351
  281MOL0     H37091   4.027   0.599   8.975  1.3238 -0.8383 -0.9145
  281MOL0     H37092   3.809   0.521   9.052 -2.7588 -0.4503 -0.4444
  282MOL0     O37093   1.878   7.534   9.007 -0.3740  0.2569  0.4145
  282MOL0     C37094   1.848   7.456   9.098 -1.0265 -0.5145  0.9268
  282MOL0     O37095   1.724   7.425   9.142 -0.3340 -0.4483 -0.0802
  282MOL0     C37096   1.609   7.489   9.107 -0.0084  0.3834 -0.2118
  282MOL0     C37097   1.606   7.627   9.109 -0.0580  0.4731 -0.7150
  282MOL0     C37098   1.497   7.697   9.063  0.1830 -0.7469 -0.2153
  282MOL0     C37099   1.381   7.635   9.019 -0.1927 -0.4506 -0.4641
  282MOL0     O37100   1.277   7.716   8.994  0.9864  0.0468 -0.2364
  282MOL0     C37101   1.150   7.662   9.048 -0.2751  0.8467  0.5839
  282MOL0     C37102   1.061   7.777   9.103 -0.5611  0.4226  0.6745
  282MOL0     C37103   0.923   7.735   9.145  1.2666 -0.0388  0.2367
  282MOL0     C37104   0.824   7.700   9.025  1.2166 -0.5581  0.1897
  282MOL0     C37105   0.676   7.730   9.084 -0.4833  0.6884  0.0136
  282MOL0     C37106   0.573   7.698   8.976  0.6346  0.1232 -0.0545
  282MOL0     C37107   0.426   7.733   9.005 -0.4018  0.6489 -0.2043
  282MOL0     C37108   0.371   7.626   9.114  0.2057  0.0467  0.7731
  282MOL0     N37109   0.248   7.663   9.185  0.4337 -0.8855 -0.4146
  282MOL0     C37110   0.212   7.791   9.224  0.7767  0.5452  1.4871
  282MOL0     C37111   0.117   7.767   9.306 -0.3594 -0.9571  0.2196
  282MOL0     C37112   0.049   7.863   9.405  0.0309 -0.0253 -0.4037
  282MOL0     C37113  -0.096   7.883   9.355 -0.6222  0.1864  0.0463
  282MOL0     C37114  -0.167   7.977   9.464  0.6214  0.2465  0.0913
  282MOL0     C37115  -0.312   7.993   9.426 -0.6006  1.2028 -0.1599
  282MOL0     O37116  -0.380   7.868   9.428 -0.3388 -0.0011  0.3480
  282MOL0     C37117  -0.514   7.854   9.458 -0.0027 -0.4194 -0.2865
  282MOL0     C37118  -0.548   7.738   9.514  0.2101  0.3749  0.0895
  282MOL0     C37119  -0.679   7.711   9.526 -0.2448  0.5106  0.4204
  282MOL0     C37120  -0.789   7.799   9.488 -1.0462  0.2856  0.0683
  282MOL0     C37121  -0.926   7.761   9.518  0.1135  0.4383  0.1758
  282MOL0     O37122  -1.009   7.861   9.497  0.0456  0.0113 -0.1459
  282MOL0     C37123  -1.136   7.837   9.524  0.4115 -1.0153 -0.0821
  282MOL0     C37124  -1.194   7.900   9.636  0.0454  0.5222  0.6897
  282MOL0     C37125  -1.332   7.874   9.672 -0.3822  0.3948  0.5034
  282MOL0     C37126  -1.412   7.798   9.591  1.5653 -0.0440  0.0954
  282MOL0     O37127  -1.544   7.782   9.640 -0.1959 -0.1954  0.7287
  282MOL0     C37128  -1.641   7.739   9.536 -0.3176  0.1608 -0.0025
  282MOL0     C37129  -1.785   7.736   9.581 -0.0414  0.7699 -0.5111
  282MOL0     C37130  -1.884   7.705   9.465 -0.2638 -0.2225  0.1840
  282MOL0     C37131  -2.026   7.700   9.519 -0.1657 -0.1026 -0.1935
  282MOL0     C37132  -2.121   7.661   9.402  0.6432  0.2782  0.1417
  282MOL0     C37133  -2.163   7.784   9.322  0.0607  0.0833 -0.1339
  282MOL0     C37134  -2.226   7.749   9.182 -0.6435 -0.3219 -0.2146
  282MOL0     C37135  -2.356   7.667   9.177 -0.0692  0.6013 -0.5697
  282MOL0    Cl37136  -2.481   7.735   9.285 -0.0495 -0.0084 -0.0137
  282MOL0     C37137  -1.360   7.737   9.478 -0.8053  0.5013 -0.7005
  282MOL0     C37138  -1.216   7.755   9.444 -0.2045 -0.8051 -0.7342
  282MOL0     O37139  -0.955   7.643   9.552 -0.1690 -0.7369 -0.0441
  282MOL0     C37140  -0.747   7.917   9.428  0.6699  0.4243  0.1815
  282MOL0     C37141  -0.612   7.947   9.424 -0.5554 -0.0056  0.3316
  282MOL0     N37142   0.093   7.631   9.327 -0.5085 -0.1877 -0.1256
  282MOL0     N37143   0.188   7.569   9.265  0.5865  0.1894  0.4199
  282MOL0     C37144   1.387   7.494   9.017 -0.5996  0.2514  0.1787
  282MOL0     C37145   1.500   7.425   9.061  0.7043  0.2610 -0.2474
  282MOL0     C37146   1.964   7.398   9.173  0.1836 -0.0732 -0.1069
  282MOL0     C37147   2.088   7.458   9.155  0.1416  0.2814 -1.1515
  282MOL0     C37148   2.205   7.402   9.215  0.7766 -0.2745  0.3101
  282MOL0     C37149   2.187   7.286   9.295 -1.0972  0.0362 -0.3460
  282MOL0     O37150   2.285   7.215   9.341 -0.0713 -0.2307  0.1192
  282MOL0     C37151   2.394   7.184   9.247  0.4100  0.3993  0.9344
  282MOL0     C37152   2.348   7.110   9.115 -0.9217  0.5101  0.0118
  282MOL0     C37153   2.471   7.017   9.069  0.0412  0.2209 -0.5313
  282MOL0     C37154   2.445   6.960   8.928  0.4680 -0.0479  0.3740
  282MOL0     C37155   2.328   6.871   8.919  0.1933 -0.5145 -0.3313
  282MOL0     C37156   2.226   6.801   8.904 -1.3534 -0.1168  0.0252
  282MOL0     C37157   2.059   7.238   9.322 -1.2269  0.7515 -0.6976
  282MOL0     C37158   1.949   7.298   9.265  0.1665  0.3089  0.0779
  282MOL0     H37159   1.691   7.689   9.134  0.5049  0.1962 -1.8777
  282MOL0     H37160   1.502   7.805   9.065 -0.4530 -0.6532  3.1988
  282MOL0     H37161   1.167   7.594   9.132  2.1177  0.1443 -0.3817
  282MOL0     H37162   1.087   7.608   8.977  0.2735  0.8725  0.0696
  282MOL0     H37163   1.042   7.842   9.017  4.2249 -0.6063 -1.5189
  282MOL0     H37164   1.109   7.831   9.185 -0.1568 -2.1704  2.2708
  282MOL0     H37165   0.880   7.821   9.197  2.3249  1.0735 -0.6614
  282MOL0     H37166   0.933   7.655   9.219 -1.7975 -0.5420  0.2145
  282MOL0     H37167   0.854   7.759   8.938 -0.2630  1.4945  1.0079
  282MOL0     H37168   0.830   7.593   9.003  1.6607 -1.1032  2.6466
  282MOL0     H37169   0.667   7.836   9.111  1.7520  0.5967  1.3662
  282MOL0     H37170   0.653   7.666   9.169  0.3543 -0.0807 -0.3158
  282MOL0     H37171   0.567   7.590   8.960  2.4656 -0.2022  1.1669
  282MOL0     H37172   0.612   7.747   8.887  3.1561 -0.4936  0.6399
  282MOL0     H37173   0.415   7.832   9.050 -2.2406  0.2334  0.3734
  282MOL0     H37174   0.360   7.723   8.918  0.4513  1.2913 -0.9360
  282MOL0     H37175   0.449   7.614   9.189  1.3192  0.7167 -0.2303
  282MOL0     H37176   0.347   7.535   9.059  1.1598 -2.0741  3.6222
  282MOL0     H37177   0.245   7.887   9.185  0.1067 -1.3891 -4.9625
  282MOL0     H37178   0.101   7.958   9.420 -1.8671  0.8307  1.1978
  282MOL0     H37179   0.046   7.819   9.505  2.2453  2.6538  0.9852
  282MOL0     H37180  -0.148   7.788   9.355  0.5585 -0.4881 -0.5331
  282MOL0     H37181  -0.098   7.929   9.255 -0.1582 -0.1549 -0.1232
  282MOL0     H37182  -0.169   7.927   9.561 -3.8705 -1.1505 -0.4801
  282MOL0     H37183  -0.110   8.070   9.462 -1.4129  1.5436 -1.2660
  282MOL0     H37184  -0.304   8.012   9.319  0.9979 -1.9660 -0.7397
  282MOL0     H37185  -0.361   8.076   9.477  0.4092  2.0461 -0.5347
  282MOL0     H37186  -0.467   7.669   9.532 -1.5868 -1.6573  0.8242
  282MOL0     H37187  -0.700   7.613   9.568  2.6275 -0.9634 -1.2957
  282MOL0     H37188  -1.129   7.955   9.704  0.5296 -1.2615  1.7447
  282MOL0     H37189  -1.382   7.930   9.751  0.1952 -1.0586  1.9528
  282MOL0     H37190  -1.615   7.649   9.479 -2.2013 -0.2570 -0.2531
  282MOL0     H37191  -1.647   7.826   9.470  0.4227 -0.3264 -0.7398
  282MOL0     H37192  -1.809   7.832   9.629 -0.5592  1.3620 -1.8981
  282MOL0     H37193  -1.795   7.655   9.653  0.0031  0.9408 -0.3098
  282MOL0     H37194  -1.853   7.607   9.428 -0.6284 -0.1246 -0.3887
  282MOL0     H37195  -1.877   7.773   9.380  0.9000 -4.1912 -3.2747
  282MOL0     H37196  -2.035   7.635   9.607 -0.1109  0.7087  0.4316
  282MOL0     H37197  -2.055   7.795   9.567 -0.8316 -1.5696  2.5206
  282MOL0     H37198  -2.210   7.621   9.451  0.2800  2.6658  1.5872
  282MOL0     H37199  -2.081   7.585   9.335  0.1283  0.7841 -0.7564
  282MOL0     H37200  -2.079   7.852   9.307  0.9258 -1.5646 -3.6687
  282MOL0     H37201  -2.222   7.855   9.381  3.5406  2.4786  0.7326
  282MOL0     H37202  -2.241   7.848   9.138  3.2045  0.0769 -1.0298
  282MOL0     H37203  -2.148   7.709   9.116 -2.1488  1.1088 -3.0621
  282MOL0     H37204  -2.350   7.560   9.196 -3.5627  0.4456  0.4376
  282MOL0     H37205  -2.390   7.674   9.073  1.2887  6.0929 -0.9817
  282MOL0     H37206  -1.422   7.677   9.412  0.8313 -0.7374 -1.1500
  282MOL0     H37207  -1.173   7.702   9.360 -2.9231 -1.9261 -1.5430
  282MOL0     H37208  -0.826   7.987   9.401  0.3079  1.6298  3.7665
  282MOL0     H37209  -0.587   8.050   9.400 -1.6295  0.6804  1.9763
  282MOL0     H37210   1.301   7.437   8.985  0.5412 -0.8919 -1.0010
  282MOL0     H37211   1.504   7.316   9.060  0.0363  0.2209 -2.2879
  282MOL0     H37212   2.088   7.546   9.091  2.0215  1.8525  0.8261
  282MOL0     H37213   2.302   7.449   9.200  1.1341 -1.1163 -0.0567
  282MOL0     H37214   2.456   7.113   9.303 -1.6552 -1.2535  1.2465
  282MOL0     H37215   2.438   7.278   9.214 -0.3421  0.7592  0.9314
  282MOL0     H37216   2.263   7.045   9.137  0.3354 -0.3921  2.6050
  282MOL0     H37217   2.306   7.174   9.037  1.7774 -1.8433 -3.7934
  282MOL0     H37218   2.487   6.927   9.130 -0.3522  0.7892  0.4228
  282MOL0     H37219   2.559   7.082   9.071  0.6439 -0.5708  1.4090
  282MOL0     H37220   2.422   7.047   8.866  0.1753 -0.5810 -0.2662
  282MOL0     H37221   2.535   6.909   8.892 -0.2475  0.4298 -2.2367
  282MOL0     H37222   2.143   6.739   8.877 -2.4348  2.1137 -2.1901
  282MOL0     H37223   2.057   7.162   9.399  3.8003 -1.1834 -2.1147
  282MOL0     H37224   1.845   7.268   9.272 -0.1036  1.4225  1.0307
  283MOL0     O37225   9.796   1.192   2.147  0.0011  0.2029  0.2219
  283MOL0     C37226   9.785   1.106   2.232  0.2258  0.9930  0.6345
  283MOL0     O37227   9.683   1.026   2.249  0.0431  0.0322  0.7660
  283MOL0     C37228   9.588   0.982   2.159 -0.5742 -0.0788  1.0517
  283MOL0     C37229   9.465   0.939   2.205 -0.2671 -0.5987 -0.1023
  283MOL0     C37230   9.360   0.908   2.121  0.0468  0.8579 -0.0593
  283MOL0     C37231   9.377   0.916   1.986 -0.0229  0.1511  0.0560
  283MOL0     O37232   9.267   0.901   1.904 -0.2812  0.3890  0.5233
  283MOL0     C37233   9.260   0.935   1.763 -0.0550  0.2692 -0.6440
  283MOL0     C37234   9.137   1.020   1.736 -0.2661 -0.1547  0.4243
  283MOL0     C37235   9.156   1.089   1.603  0.4105  0.0008  0.5068
  283MOL0     C37236   9.167   0.984   1.490 -0.5464  0.4138  0.1346
  283MOL0     C37237   9.163   1.034   1.342  0.3304  0.3811  0.0037
  283MOL0     C37238   9.204   0.926   1.242 -0.4203 -0.4868  0.3984
  283MOL0     C37239   9.108   0.798   1.237 -0.2545 -0.4653 -0.5699
  283MOL0     C37240   9.140   0.705   1.125 -0.1664  0.8110 -0.3435
  283MOL0     N37241   9.024   0.614   1.094 -0.3853  0.0678 -0.5994
  283MOL0     C37242   8.961   0.537   1.184  0.5908 -0.1008  0.5313
  283MOL0     C37243   8.862   0.477   1.113  0.7091  0.5749 -0.2866
  283MOL0     C37244   8.772   0.371   1.162  0.1124  0.6315 -0.1794
  283MOL0     C37245   8.627   0.411   1.183 -0.0355 -0.3607  0.3284
  283MOL0     C37246   8.551   0.436   1.052  0.2931  0.3832  0.5291
  283MOL0     C37247   8.411   0.494   1.077 -0.3472 -0.6992  0.4648
  283MOL0     O37248   8.343   0.513   0.947 -0.4132 -0.4979  0.3764
  283MOL0     C37249   8.219   0.577   0.958 -0.3442  0.1831  0.3988
  283MOL0     C37250   8.174   0.664   1.061 -0.3118  0.6484  0.1165
  283MOL0     C37251   8.046   0.722   1.059  0.0436 -0.5186  0.1244
  283MOL0     C37252   7.964   0.706   0.946 -0.2481 -0.0724 -0.0076
  283MOL0     C37253   7.828   0.768   0.931 -0.6948  0.4003  0.3426
  283MOL0     O37254   7.766   0.769   0.809  0.7250  0.3175  0.0434
  283MOL0     C37255   7.643   0.833   0.784 -0.2906  0.8713 -0.6143
  283MOL0     C37256   7.608   0.833   0.649  0.0743 -0.2036 -0.5771
  283MOL0     C37257   7.495   0.899   0.602  0.1002  0.0251  0.3866
  283MOL0     C37258   7.401   0.953   0.695  0.1229  0.0369  0.4574
  283MOL0     O37259   7.285   1.023   0.655 -0.2420 -0.3438 -0.0677
  283MOL0     C37260   7.167   0.978   0.726 -0.2109  0.2775  0.0919
  283MOL0     C37261   7.045   1.027   0.651  0.6929 -0.0133  0.6504
  283MOL0     C37262   6.923   0.991   0.732  0.8705 -0.2514 -0.8065
  283MOL0     C37263   6.812   1.109   0.711  0.0582  0.5852 -0.5112
  283MOL0     C37264   6.668   1.067   0.754  0.0626 -0.6795 -0.3344
  283MOL0     C37265   6.573   1.186   0.748 -0.3118 -0.5368  0.0424
  283MOL0     C37266   6.429   1.164   0.790  0.2684 -0.1221  0.6280
  283MOL0     C37267   6.340   1.263   0.704 -0.3299 -0.7651  0.1051
  283MOL0    Cl37268   6.158   1.223   0.724  0.1040 -0.1258  0.0847
  283MOL0     C37269   7.437   0.962   0.829  0.3803 -0.2877  0.6227
  283MOL0     C37270   7.559   0.903   0.873  0.9588 -0.7510 -0.3765
  283MOL0     O37271   7.787   0.818   1.033 -0.0005  0.4072 -0.1481
  283MOL0     C37272   8.011   0.618   0.843 -0.1320 -0.0210 -0.6297
  283MOL0     C37273   8.139   0.559   0.848 -0.0750  0.3656 -0.0962
  283MOL0     N37274   8.860   0.519   0.982  0.1166  0.3202 -0.5004
  283MOL0     N37275   8.964   0.600   0.974  0.3523 -0.2837  0.3517
  283MOL0     C37276   9.507   0.944   1.940 -0.5677 -0.8268 -0.3012
  283MOL0     C37277   9.608   0.972   2.023 -0.4280  0.6800 -0.1225
  283MOL0     C37278   9.904   1.076   2.320  0.1788 -1.0779 -1.2892
  283MOL0     C37279   9.885   1.020   2.451  0.8520  0.0584  0.5943
  283MOL0     C37280   9.997   0.969   2.521 -0.3579 -0.1291  0.0481
  283MOL0     C37281  10.125   0.972   2.476  0.8475  0.2320  0.7894
  283MOL0     O37282  10.215   0.917   2.567  0.4591 -0.3555  0.5323
  283MOL0     C37283  10.353   0.961   2.553  0.0124 -0.0161  0.3549
  283MOL0     C37284  10.432   0.873   2.442  1.3358  0.2925 -0.3449
  283MOL0     C37285  10.583   0.895   2.448  0.7002 -0.2269  0.1427
  283MOL0     C37286  10.649   0.803   2.356 -0.2183  0.0840 -0.1486
  283MOL0     C37287  10.793   0.819   2.370 -0.1214 -0.2560 -0.8139
  283MOL0     C37288  10.913   0.836   2.380  0.0235  1.0605  0.1140
  283MOL0     C37289  10.138   1.039   2.353  0.0575 -0.0659 -0.0310
  283MOL0     C37290  10.031   1.091   2.281 -0.2818  0.0476  0.9224
  283MOL0     H37291   9.452   0.935   2.312  2.2481  1.4732  0.3647
  283MOL0     H37292   9.261   0.882   2.157 -1.4245  3.9931 -1.3908
  283MOL0     H37293   9.257   0.858   1.686  1.0715  1.8085 -2.3052
  283MOL0     H37294   9.343   1.003   1.743  2.3113 -2.6023 -1.3538
  283MOL0     H37295   9.145   1.097   1.814  0.6786  1.2455 -0.9788
  283MOL0     H37296   9.042   0.967   1.728 -1.0366  1.4194 -4.2082
  283MOL0     H37297   9.244   1.154   1.596 -0.5133  1.1088 -2.1715
  283MOL0     H37298   9.068   1.146   1.574  1.3855  2.0804  1.4692
  283MOL0     H37299   9.270   0.948   1.481 -0.8061  0.1140 -3.1523
  283MOL0     H37300   9.096   0.902   1.503 -0.2896  0.3136  0.9520
  283MOL0     H37301   9.234   1.115   1.327 -0.0865  0.4713 -1.7278
  283MOL0     H37302   9.062   1.074   1.326  0.9802  1.8170 -0.6587
  283MOL0     H37303   9.299   0.877   1.270 -0.2087  0.8252  2.1605
  283MOL0     H37304   9.221   0.974   1.146  3.0207  0.0724  1.1525
  283MOL0     H37305   9.134   0.740   1.326  1.1898 -0.5078 -0.9821
  283MOL0     H37306   9.003   0.828   1.239 -0.8329 -2.1886 -2.1686
  283MOL0     H37307   9.228   0.646   1.151 -1.0835 -0.8734 -0.9247
  283MOL0     H37308   9.151   0.772   1.039 -1.4113 -0.5743 -1.6254
  283MOL0     H37309   8.986   0.522   1.288  1.3191 -1.0137  0.2442
  283MOL0     H37310   8.813   0.356   1.262 -0.1597  1.5856  0.0916
  283MOL0     H37311   8.781   0.276   1.109 -0.6997  0.5852 -0.2435
  283MOL0     H37312   8.632   0.491   1.257 -2.3556 -1.2516  1.5160
  283MOL0     H37313   8.581   0.329   1.238  1.9480 -2.5005 -1.0324
  283MOL0     H37314   8.605   0.504   0.986  0.5513 -0.1986  0.1416
  283MOL0     H37315   8.535   0.338   1.007 -1.6829  1.1912 -0.6729
  283MOL0     H37316   8.440   0.592   1.116 -0.1826 -0.7708  0.5231
  283MOL0     H37317   8.357   0.440   1.155  1.6706 -0.8403  1.8257
  283MOL0     H37318   8.214   0.663   1.162 -3.2085 -1.9346  1.4134
  283MOL0     H37319   8.013   0.787   1.139  0.2886 -0.7699  0.4344
  283MOL0     H37320   7.678   0.791   0.579  0.5035  0.4984 -0.5798
  283MOL0     H37321   7.469   0.911   0.497  0.7791 -2.0417 -0.0785
  283MOL0     H37322   7.155   1.029   0.822  0.7362 -0.1398  0.4370
  283MOL0     H37323   7.163   0.869   0.730 -0.0386  0.2764  0.2203
  283MOL0     H37324   7.042   0.969   0.559 -1.5201 -1.3166  1.4490
  283MOL0     H37325   7.051   1.135   0.632 -0.6479  0.2074  1.3152
  283MOL0     H37326   6.949   0.982   0.838  1.5136  1.2873 -0.8186
  283MOL0     H37327   6.880   0.902   0.685  0.3633 -0.1276 -0.5911
  283MOL0     H37328   6.847   1.188   0.779 -0.2930 -1.0003  1.6312
  283MOL0     H37329   6.810   1.152   0.611 -0.9146  0.5752 -0.5003
  283MOL0     H37330   6.656   1.038   0.859  0.0505 -0.4514 -0.2710
  283MOL0     H37331   6.644   0.982   0.690 -0.4938 -1.1415  0.4743
  283MOL0     H37332   6.575   1.225   0.646 -1.1890  2.0594  0.9571
  283MOL0     H37333   6.613   1.266   0.809 -0.5192 -0.5787  0.2340
  283MOL0     H37334   6.398   1.063   0.763 -1.4283  0.9569 -1.8172
  283MOL0     H37335   6.424   1.181   0.898  0.6311 -0.2396  0.6636
  283MOL0     H37336   6.364   1.277   0.599 -2.6272  2.6694 -0.1363
  283MOL0     H37337   6.346   1.362   0.750 -2.3429 -1.0924  1.2164
  283MOL0     H37338   7.375   1.000   0.909 -0.3148 -0.6070  0.2537
  283MOL0     H37339   7.580   0.921   0.978 -2.9726  2.1282  0.1293
  283MOL0     H37340   7.940   0.609   0.761 -2.3984  1.2964  1.0613
  283MOL0     H37341   8.153   0.498   0.759 -1.4118  2.8368 -2.1544
  283MOL0     H37342   9.530   0.922   1.836  1.2237 -0.1857 -0.0786
  283MOL0     H37343   9.704   0.993   1.976 -2.2718  4.1732 -2.7731
  283MOL0     H37344   9.784   1.012   2.490 -1.0969  0.2146 -3.8788
  283MOL0     H37345   9.982   0.946   2.626  2.9330 -0.6241  0.5039
  283MOL0     H37346  10.397   0.941   2.651  0.2523 -3.9544 -0.3953
  283MOL0     H37347  10.349   1.067   2.524  0.5797  0.5443  2.1956
  283MOL0     H37348  10.399   0.769   2.449  0.1141  0.4686 -2.5826
  283MOL0     H37349  10.392   0.902   2.345  0.7403 -0.0638 -0.2169
  283MOL0     H37350  10.632   0.895   2.545 -0.0167  3.1031  0.6062
  283MOL0     H37351  10.598   0.995   2.408 -0.2828 -0.7931 -1.7856
  283MOL0     H37352  10.624   0.699   2.379 -1.8068  0.3395 -0.6290
  283MOL0     H37353  10.622   0.810   2.250 -1.7414 -3.5111 -0.1232
  283MOL0     H37354  11.012   0.873   2.399  0.8677 -0.8836 -0.2508
  283MOL0     H37355  10.237   1.049   2.312  0.1849  1.4441  0.5815
  283MOL0     H37356  10.057   1.129   2.183 -3.4753 -0.9936 -0.4599
  284MOL0     O37357   5.255   0.638   1.026  0.1578  0.0664  0.6222
  284MOL0     C37358   5.286   0.523   1.060  0.5214  0.1011  0.0938
  284MOL0     O37359   5.196   0.420   1.079 -0.2823 -0.1608  0.0156
  284MOL0     C37360   5.066   0.441   1.066  0.2182 -0.6428 -0.5780
  284MOL0     C37361   4.984   0.361   0.987 -0.7079 -0.2871 -0.4863
  284MOL0     C37362   4.844   0.379   0.972  0.1402 -0.6010  0.3807
  284MOL0     C37363   4.783   0.486   1.045 -0.2265 -0.6168  0.7636
  284MOL0     O37364   4.655   0.513   1.032  0.7869 -0.2020 -0.8877
  284MOL0     C37365   4.562   0.404   1.049 -0.0211 -0.0267 -0.2256
  284MOL0     C37366   4.423   0.462   1.003 -0.2986  0.2153 -0.3528
  284MOL0     C37367   4.371   0.571   1.091 -0.2383  0.0820  0.8470
  284MOL0     C37368   4.219   0.585   1.084 -0.5582 -0.3608 -0.3163
  284MOL0     C37369   4.163   0.724   1.113  0.8671  0.7369  0.3293
  284MOL0     C37370   4.052   0.714   1.218  0.4955 -0.6795  0.3237
  284MOL0     C37371   3.923   0.642   1.170  0.0101 -0.9585 -0.3177
  284MOL0     C37372   3.877   0.722   1.043 -0.7823 -0.3638 -0.2251
  284MOL0     N37373   3.733   0.695   1.006  0.7596 -0.9361 -0.6330
  284MOL0     C37374   3.675   0.573   1.004  0.4207  0.2910  0.5023
  284MOL0     C37375   3.549   0.598   0.967  0.0290  0.1198 -0.5057
  284MOL0     C37376   3.426   0.508   0.963  1.1105  0.2622 -0.1178
  284MOL0     C37377   3.413   0.415   0.835  0.8355  0.1094 -0.7918
  284MOL0     C37378   3.333   0.493   0.730 -0.1694  0.1003  0.1865
  284MOL0     C37379   3.283   0.391   0.616  0.4261  0.3333 -0.8994
  284MOL0     O37380   3.174   0.451   0.535 -0.2729 -0.2863 -0.3366
  284MOL0     C37381   3.053   0.456   0.594 -0.0547 -0.5185  0.5394
  284MOL0     C37382   2.999   0.351   0.665  0.0476  0.6202 -0.0569
  284MOL0     C37383   2.879   0.369   0.734 -0.8750 -0.2329 -0.6787
  284MOL0     C37384   2.804   0.490   0.725  0.4606 -0.5196  0.4799
  284MOL0     C37385   2.672   0.509   0.782  0.0755 -0.5132 -0.1167
  284MOL0     O37386   2.585   0.598   0.718  0.3626 -0.3980  0.0492
  284MOL0     C37387   2.450   0.597   0.743  0.3005 -0.8817  0.3497
  284MOL0     C37388   2.362   0.492   0.702  0.1854 -0.3944  0.0995
  284MOL0     C37389   2.223   0.515   0.727 -0.0452  0.3529 -0.2408
  284MOL0     C37390   2.178   0.617   0.813  0.2590 -0.1593  0.5533
  284MOL0     O37391   2.048   0.624   0.860 -0.6278 -0.8234  0.1440
  284MOL0     C37392   2.035   0.580   0.994 -0.1168 -0.3960  0.2885
  284MOL0     C37393   1.905   0.614   1.064  0.6128 -0.3015 -0.9169
  284MOL0     C37394   1.777   0.543   1.008 -0.3614  0.9364 -0.2422
  284MOL0     C37395   1.656   0.596   1.085  0.0456 -0.6536 -0.3111
  284MOL0     C37396   1.523   0.580   1.000 -0.6234 -0.7795  0.2822
  284MOL0     C37397   1.394   0.610   1.091  0.0348  0.0147 -0.0916
  284MOL0     C37398   1.263   0.597   1.024  0.0284  0.1773  0.1875
  284MOL0     C37399   1.152   0.595   1.126 -0.6111 -0.5008  0.1978
  284MOL0    Cl37400   0.990   0.605   1.051 -0.6037 -0.0286  0.2096
  284MOL0     C37401   2.262   0.712   0.852 -0.3641  0.1611 -0.6727
  284MOL0     C37402   2.399   0.708   0.814  0.3796 -0.5001 -0.1473
  284MOL0     O37403   2.636   0.440   0.875  0.1588 -0.3540 -0.4247
  284MOL0     C37404   2.858   0.595   0.640 -0.5416  0.0650  0.3651
  284MOL0     C37405   2.984   0.576   0.577  0.0574 -0.2160 -0.3986
  284MOL0     N37406   3.538   0.735   0.943 -0.6164 -0.2502  0.2309
  284MOL0     N37407   3.649   0.784   0.975  0.2484 -0.3889  0.2480
  284MOL0     C37408   4.868   0.562   1.130 -0.3728  0.0206  1.0517
  284MOL0     C37409   5.001   0.540   1.150  0.4666 -0.2855  0.8998
  284MOL0     C37410   5.424   0.486   1.088  0.2704  0.1313 -0.4736
  284MOL0     C37411   5.524   0.583   1.091 -0.1874  0.0733 -0.3718
  284MOL0     C37412   5.657   0.552   1.119 -0.4770 -0.6700 -0.2947
  284MOL0     C37413   5.693   0.422   1.146 -0.7516  0.1968  0.1955
  284MOL0     O37414   5.829   0.393   1.168 -0.1332  0.1383 -0.1717
  284MOL0     C37415   5.869   0.266   1.122 -0.1068  0.4928  0.3358
  284MOL0     C37416   6.023   0.249   1.108 -0.6069 -0.2286  0.6783
  284MOL0     C37417   6.082   0.333   0.993 -0.4268 -0.6328 -0.0353
  284MOL0     C37418   6.222   0.386   1.017  0.6613  1.1000  0.1632
  284MOL0     C37419   6.327   0.280   1.012  0.6141  0.7212  0.2399
  284MOL0     C37420   6.403   0.186   1.005 -0.1807 -0.0820 -0.0323
  284MOL0     C37421   5.601   0.327   1.157  0.2666  0.1627  0.2562
  284MOL0     C37422   5.462   0.360   1.130 -0.2626 -0.2623 -0.4774
  284MOL0     H37423   5.038   0.282   0.935 -2.0267 -0.9353 -0.9409
  284MOL0     H37424   4.777   0.334   0.900 -2.7038  2.0366  1.1934
  284MOL0     H37425   4.558   0.362   1.150 -0.2181 -1.8959 -0.9639
  284MOL0     H37426   4.588   0.320   0.984 -1.4661 -3.5493  3.2812
  284MOL0     H37427   4.354   0.377   1.000  1.8225 -1.6245 -0.0011
  284MOL0     H37428   4.444   0.500   0.902  1.5107  2.2951  0.7136
  284MOL0     H37429   4.419   0.660   1.047 -0.0334 -1.7775 -3.2143
  284MOL0     H37430   4.400   0.558   1.195  0.0351 -1.4414  0.6051
  284MOL0     H37431   4.183   0.553   0.986 -1.6310 -2.2043  0.6210
  284MOL0     H37432   4.166   0.514   1.148 -0.5568  1.5605  1.9540
  284MOL0     H37433   4.126   0.768   1.020  1.3166  2.4906  0.9219
  284MOL0     H37434   4.241   0.794   1.145  0.0993  0.7232  2.3759
  284MOL0     H37435   4.029   0.817   1.248  0.7500 -0.0023 -1.6069
  284MOL0     H37436   4.095   0.669   1.307  2.1546 -1.3109 -0.7496
  284MOL0     H37437   3.941   0.537   1.142 -1.7131 -1.5637  0.7256
  284MOL0     H37438   3.847   0.646   1.248 -1.9631  0.7882 -2.2093
  284MOL0     H37439   3.949   0.689   0.968  1.1328 -1.6816  2.0552
  284MOL0     H37440   3.892   0.829   1.059  0.0942 -0.5238  0.0853
  284MOL0     H37441   3.722   0.477   1.020  3.7694  1.4520 -1.4688
  284MOL0     H37442   3.338   0.571   0.981  1.2557  0.0958  1.2933
  284MOL0     H37443   3.434   0.443   1.051 -0.1291 -1.4732 -1.2459
  284MOL0     H37444   3.366   0.324   0.874  1.3135 -0.0437 -0.5538
  284MOL0     H37445   3.513   0.385   0.802  1.7656  1.2454  0.7806
  284MOL0     H37446   3.243   0.547   0.762 -0.8879 -0.2591 -1.1761
  284MOL0     H37447   3.397   0.570   0.685  1.2994 -0.2430  1.5994
  284MOL0     H37448   3.254   0.293   0.655  1.2254  1.2108  2.1923
  284MOL0     H37449   3.364   0.368   0.546 -0.0433 -1.7339 -0.8104
  284MOL0     H37450   3.040   0.251   0.678 -1.5061  0.0978  1.1643
  284MOL0     H37451   2.851   0.289   0.803  2.5920  0.2080  1.4652
  284MOL0     H37452   2.402   0.403   0.654  0.1299 -0.0485 -0.5943
  284MOL0     H37453   2.156   0.439   0.686 -1.1417  0.0435  1.9710
  284MOL0     H37454   2.119   0.601   1.060  0.9976 -0.0107 -1.1949
  284MOL0     H37455   2.042   0.472   0.976 -0.0181 -0.1520 -1.3722
  284MOL0     H37456   1.885   0.721   1.062  1.1281 -0.1737  0.1964
  284MOL0     H37457   1.910   0.582   1.168 -1.0394 -0.2735 -0.8102
  284MOL0     H37458   1.788   0.435   1.022 -0.6107  1.1834  2.5043
  284MOL0     H37459   1.766   0.567   0.903 -0.3404  0.6193 -0.3198
  284MOL0     H37460   1.657   0.559   1.188 -1.8993  1.2738  0.4716
  284MOL0     H37461   1.671   0.703   1.098 -0.5492 -0.5956 -0.0752
  284MOL0     H37462   1.523   0.481   0.953 -0.1993 -1.8482  2.3542
  284MOL0     H37463   1.534   0.640   0.910  1.0912 -0.3766  0.7136
  284MOL0     H37464   1.395   0.713   1.128  1.7741  0.5360 -1.4832
  284MOL0     H37465   1.404   0.530   1.165  0.0549 -1.5702 -1.7359
  284MOL0     H37466   1.241   0.687   0.966 -0.3629  0.5114  0.8410
  284MOL0     H37467   1.263   0.508   0.960  2.5372  1.2533 -1.4699
  284MOL0     H37468   1.167   0.661   1.212  0.2682 -1.8944  1.1738
  284MOL0     H37469   1.161   0.495   1.170 -0.2584 -1.0333 -1.0499
  284MOL0     H37470   2.234   0.786   0.927 -0.2638 -2.1326  1.7981
  284MOL0     H37471   2.467   0.785   0.849 -0.3191  0.8989 -1.6989
  284MOL0     H37472   2.799   0.682   0.614  0.8021  0.1913 -2.5720
  284MOL0     H37473   3.025   0.656   0.515  0.9117  1.5363  2.2474
  284MOL0     H37474   4.840   0.651   1.188 -1.7681  0.4011 -0.1503
  284MOL0     H37475   5.053   0.608   1.216 -1.5849  0.7185  1.5882
  284MOL0     H37476   5.501   0.688   1.076 -0.1932 -0.2000 -2.5764
  284MOL0     H37477   5.737   0.626   1.119 -0.6982 -0.4071  0.8969
  284MOL0     H37478   5.835   0.235   1.022  1.8628  0.4794 -0.3861
  284MOL0     H37479   5.841   0.193   1.198  1.2899  1.0723  1.4494
  284MOL0     H37480   6.065   0.281   1.204 -1.2763 -1.5042  1.4222
  284MOL0     H37481   6.064   0.148   1.100  1.5253  0.4528  2.1365
  284MOL0     H37482   6.012   0.414   0.974  1.3470  1.0937  0.5255
  284MOL0     H37483   6.076   0.274   0.901  0.6516 -0.2177 -0.3907
  284MOL0     H37484   6.248   0.467   0.948 -0.4267  1.6348  0.3685
  284MOL0     H37485   6.215   0.429   1.117  0.7065 -1.0690  1.1762
  284MOL0     H37486   6.468   0.101   1.010 -2.7225 -2.1873 -0.5499
  284MOL0     H37487   5.625   0.228   1.193 -1.3199 -0.3093  0.1141
  284MOL0     H37488   5.391   0.279   1.131  0.8474 -1.3005 -1.6554
  285MOL0     O37489   0.649   6.130   3.027 -0.3455  1.2017  0.0396
  285MOL0     C37490   0.729   6.059   2.970 -0.5496  0.1539  0.1540
  285MOL0     O37491   0.697   5.943   2.898 -1.4483  0.1099 -0.0364
  285MOL0     C37492   0.576   5.875   2.906 -1.0129 -0.0164  0.6171
  285MOL0     C37493   0.461   5.894   2.986  0.1974  0.3190 -0.5094
  285MOL0     C37494   0.344   5.823   2.959  0.0239 -0.9167 -0.6314
  285MOL0     C37495   0.333   5.726   2.856  0.0861 -0.5390  0.5695
  285MOL0     O37496   0.218   5.663   2.833 -0.6681  0.5352  0.2254
  285MOL0     C37497   0.097   5.719   2.884 -1.6449  0.2259  0.7003
  285MOL0     C37498  -0.024   5.663   2.810 -0.6772  0.4639  0.1039
  285MOL0     C37499  -0.049   5.529   2.875 -0.8043  0.1911 -0.5339
  285MOL0     C37500  -0.189   5.474   2.821  0.0544 -1.1843 -0.7419
  285MOL0     C37501  -0.230   5.363   2.914 -0.6141 -0.2598 -0.0300
  285MOL0     C37502  -0.362   5.290   2.864 -0.1298  0.9295  0.2469
  285MOL0     C37503  -0.377   5.165   2.954 -0.1619  0.1810 -0.5247
  285MOL0     C37504  -0.515   5.103   2.945  0.7926 -0.4294  0.3712
  285MOL0     N37505  -0.530   4.989   2.848  0.1036  0.6727 -0.3288
  285MOL0     C37506  -0.509   4.853   2.886  0.4166 -0.8162 -0.4252
  285MOL0     C37507  -0.525   4.782   2.772  1.4459 -0.2817 -0.0906
  285MOL0     C37508  -0.530   4.637   2.765  0.0451  0.5715 -0.3813
  285MOL0     C37509  -0.678   4.597   2.738  0.4942  0.4023  0.3309
  285MOL0     C37510  -0.698   4.438   2.745  0.4875 -1.4002 -1.0473
  285MOL0     C37511  -0.850   4.395   2.717  1.0278  0.5350 -1.0151
  285MOL0     O37512  -0.920   4.421   2.846 -0.9782 -0.1577 -0.0894
  285MOL0     C37513  -1.051   4.407   2.848  0.1678 -0.1484 -0.3277
  285MOL0     C37514  -1.126   4.468   2.953 -0.2040  0.0656  0.2515
  285MOL0     C37515  -1.261   4.452   2.971  0.7796  0.0126  0.3266
  285MOL0     C37516  -1.329   4.369   2.880  0.9781 -0.1926 -0.4118
  285MOL0     C37517  -1.473   4.354   2.887 -0.0760 -0.4605  0.6357
  285MOL0     O37518  -1.518   4.275   2.789  0.0897 -0.4738  0.0004
  285MOL0     C37519  -1.657   4.262   2.762 -0.1989  0.1036  0.1995
  285MOL0     C37520  -1.739   4.362   2.715  0.2677  0.0007 -0.0493
  285MOL0     C37521  -1.867   4.327   2.660  1.3096 -0.4986  0.5249
  285MOL0     C37522  -1.909   4.194   2.650 -0.0921  0.0315 -0.1843
  285MOL0     O37523  -2.030   4.144   2.614 -0.2264  0.0648  0.3542
  285MOL0     C37524  -2.129   4.233   2.564  0.4652 -0.3111  0.5513
  285MOL0     C37525  -2.208   4.303   2.668  0.3510  0.5649 -0.6103
  285MOL0     C37526  -2.301   4.398   2.599  0.9655 -0.3144  0.2372
  285MOL0     C37527  -2.226   4.502   2.519  0.2805 -0.3255 -0.2865
  285MOL0     C37528  -2.259   4.648   2.566 -0.7010  0.9453  0.5659
  285MOL0     C37529  -2.163   4.758   2.517 -0.9568  0.3663 -0.7992
  285MOL0     C37530  -2.205   4.892   2.570  0.3930 -0.0409 -0.4085
  285MOL0     C37531  -2.107   4.987   2.506  0.2892 -0.7527  0.8166
  285MOL0    Cl37532  -2.156   5.023   2.327 -0.3996 -0.2600  0.0134
  285MOL0     C37533  -1.823   4.091   2.696 -0.1386  0.3177 -0.0374
  285MOL0     C37534  -1.699   4.129   2.751 -0.2856  0.8263  0.3602
  285MOL0     O37535  -1.534   4.408   2.971  0.4055  0.0331 -0.1104
  285MOL0     C37536  -1.257   4.310   2.775  1.0698 -0.2972  0.1917
  285MOL0     C37537  -1.121   4.325   2.761  0.2512  0.4112 -0.0368
  285MOL0     N37538  -0.555   4.872   2.671  0.2367  0.2224  0.0324
  285MOL0     N37539  -0.545   4.987   2.713 -0.3418 -0.1635  0.2704
  285MOL0     C37540   0.453   5.702   2.781  0.1284  0.4000 -0.4553
  285MOL0     C37541   0.570   5.777   2.800  0.1155  0.4483 -0.8799
  285MOL0     C37542   0.867   6.104   2.976  0.0427 -0.4905 -0.3905
  285MOL0     C37543   0.890   6.201   3.075 -1.0158 -0.5260  0.0532
  285MOL0     C37544   1.032   6.249   3.089  0.2990 -0.8090  0.0907
  285MOL0     C37545   1.126   6.197   3.000 -1.1948 -0.4170  0.4670
  285MOL0     O37546   1.246   6.251   2.990  0.1532 -0.9386  0.5504
  285MOL0     C37547   1.281   6.321   2.867  0.0987  0.7350 -0.7160
  285MOL0     C37548   1.216   6.453   2.859 -0.6469 -0.4485  0.3147
  285MOL0     C37549   1.241   6.549   2.984 -0.0217 -1.2553  0.1069
  285MOL0     C37550   1.376   6.622   2.976  0.2508 -0.0673 -0.8235
  285MOL0     C37551   1.364   6.742   2.889 -0.4365  0.3669  0.2813
  285MOL0     C37552   1.368   6.836   2.817  0.7870 -0.1845  0.5140
  285MOL0     C37553   1.095   6.103   2.908 -0.8573  0.3474 -0.7365
  285MOL0     C37554   0.971   6.052   2.894 -0.6142  0.2920  0.4065
  285MOL0     H37555   0.472   5.947   3.080 -1.1478  1.0792 -0.7447
  285MOL0     H37556   0.262   5.829   3.031  0.7963 -3.2170  0.5709
  285MOL0     H37557   0.093   5.827   2.868  0.7874  0.0919 -1.4761
  285MOL0     H37558   0.093   5.692   2.991  1.7025 -1.8934  0.4466
  285MOL0     H37559  -0.009   5.653   2.702  3.6968  2.4510  0.3115
  285MOL0     H37560  -0.112   5.724   2.832 -0.6633  0.1751  1.0144
  285MOL0     H37561  -0.052   5.543   2.983  1.4433  0.7046 -0.4885
  285MOL0     H37562   0.024   5.451   2.851 -1.0175  0.1347 -1.0104
  285MOL0     H37563  -0.264   5.554   2.817  2.2652  1.1625  1.2963
  285MOL0     H37564  -0.178   5.449   2.715  2.4286  0.7609 -1.0314
  285MOL0     H37565  -0.245   5.414   3.009 -0.4489 -1.5808  0.7226
  285MOL0     H37566  -0.150   5.289   2.921 -0.2764  0.0800 -0.2828
  285MOL0     H37567  -0.351   5.271   2.757 -0.7117  0.4723  0.2663
  285MOL0     H37568  -0.448   5.357   2.877 -1.3433 -0.6512  0.6586
  285MOL0     H37569  -0.310   5.083   2.925 -1.0516 -0.6927 -0.1759
  285MOL0     H37570  -0.369   5.187   3.060  0.3130 -1.6583 -0.1358
  285MOL0     H37571  -0.584   5.186   2.924  1.4702  0.7986  2.6045
  285MOL0     H37572  -0.549   5.073   3.044  0.1176  0.5288  0.4447
  285MOL0     H37573  -0.490   4.807   2.982 -2.2323  0.8104  0.9780
  285MOL0     H37574  -0.489   4.597   2.858 -0.6431 -0.2114 -0.4104
  285MOL0     H37575  -0.470   4.603   2.680 -1.1131 -0.3785 -0.8474
  285MOL0     H37576  -0.711   4.634   2.640 -1.6873 -2.0768  0.0033
  285MOL0     H37577  -0.736   4.640   2.820 -2.6567 -0.7538 -1.1342
  285MOL0     H37578  -0.633   4.399   2.666 -0.4084 -2.4776 -1.2968
  285MOL0     H37579  -0.668   4.392   2.840 -0.6966  1.0183  0.5994
  285MOL0     H37580  -0.858   4.289   2.693 -2.7694  0.6367 -0.8728
  285MOL0     H37581  -0.893   4.453   2.635  0.7285 -0.0513 -1.2757
  285MOL0     H37582  -1.075   4.533   3.024 -0.3228 -0.2430  0.6214
  285MOL0     H37583  -1.306   4.501   3.057  1.9888 -2.5900  2.5975
  285MOL0     H37584  -1.709   4.465   2.723 -1.0821  0.7423 -2.9040
  285MOL0     H37585  -1.938   4.397   2.617 -3.1610 -3.6966  1.9241
  285MOL0     H37586  -2.203   4.169   2.516 -0.5029  1.7528 -0.8926
  285MOL0     H37587  -2.083   4.297   2.488  1.4791 -1.6307  0.0257
  285MOL0     H37588  -2.155   4.344   2.754  0.1519 -1.5101  0.5508
  285MOL0     H37589  -2.273   4.235   2.724  1.0978  4.1061  5.4735
  285MOL0     H37590  -2.371   4.448   2.666  1.8906 -0.0982  1.0550
  285MOL0     H37591  -2.359   4.335   2.530  1.5640 -0.2090 -0.3711
  285MOL0     H37592  -2.117   4.493   2.532  0.5376  1.7244 -0.7280
  285MOL0     H37593  -2.254   4.491   2.414  1.5332  0.1352 -0.6912
  285MOL0     H37594  -2.257   4.643   2.675  2.2294  1.6290  0.6265
  285MOL0     H37595  -2.358   4.678   2.531 -1.2921 -1.2738  0.1923
  285MOL0     H37596  -2.174   4.750   2.409  1.9608 -1.9473 -1.0506
  285MOL0     H37597  -2.058   4.740   2.542 -0.9690 -1.9168 -2.1048
  285MOL0     H37598  -2.305   4.922   2.537 -0.0261 -0.3471  0.5520
  285MOL0     H37599  -2.210   4.902   2.679 -0.0421  3.0994 -0.6231
  285MOL0     H37600  -2.004   4.956   2.525  0.1239 -0.7877  1.6626
  285MOL0     H37601  -2.126   5.077   2.564 -4.8725 -1.1872  0.3232
  285MOL0     H37602  -1.846   3.985   2.694  0.9501  0.0898 -1.2725
  285MOL0     H37603  -1.640   4.055   2.804 -0.3552  0.1454 -0.4947
  285MOL0     H37604  -1.316   4.252   2.705  0.3417  0.0000  0.5502
  285MOL0     H37605  -1.074   4.283   2.673  2.3719  1.0836  0.7136
  285MOL0     H37606   0.435   5.626   2.705 -0.2548 -1.5509  1.5171
  285MOL0     H37607   0.652   5.750   2.734 -0.4138  0.5350 -1.5842
  285MOL0     H37608   0.819   6.233   3.150 -0.4854 -3.2306  1.8527
  285MOL0     H37609   1.052   6.337   3.149 -0.6183 -2.1649  2.5066
  285MOL0     H37610   1.259   6.251   2.786  3.3712  1.4204 -2.4155
  285MOL0     H37611   1.390   6.336   2.873  0.2246 -0.6786  3.5454
  285MOL0     H37612   1.257   6.513   2.777 -0.4257  0.5045  1.1049
  285MOL0     H37613   1.108   6.444   2.841 -0.8318  1.9907 -0.1469
  285MOL0     H37614   1.246   6.486   3.074  2.0291 -3.0445 -1.1555
  285MOL0     H37615   1.156   6.618   2.993  1.8893  1.8558 -3.2897
  285MOL0     H37616   1.407   6.653   3.076 -1.4676  0.7677 -0.4993
  285MOL0     H37617   1.452   6.556   2.934 -2.6246 -2.7294 -2.3013
  285MOL0     H37618   1.362   6.918   2.749  2.2282 -1.1689 -0.8797
  285MOL0     H37619   1.175   6.081   2.837 -2.2757 -0.8402 -2.0344
  285MOL0     H37620   0.955   5.969   2.826 -2.0005  0.6059  0.3242
  286MOL0     O37621   7.712   5.457   0.975 -0.1888  0.3596  0.0694
  286MOL0     C37622   7.671   5.411   1.082 -0.0465  0.6153 -0.4540
  286MOL0     O37623   7.584   5.470   1.159  0.1129 -0.4817 -0.1673
  286MOL0     C37624   7.512   5.584   1.119 -0.2767  0.8787  0.4487
  286MOL0     C37625   7.457   5.610   0.988 -0.5913  0.6674 -0.1823
  286MOL0     C37626   7.392   5.723   0.958 -0.1581 -0.3700 -0.2502
  286MOL0     C37627   7.370   5.815   1.059  0.5506  0.6626 -0.0245
  286MOL0     O37628   7.312   5.931   1.021 -0.1030  0.1612 -0.0161
  286MOL0     C37629   7.330   6.042   1.107 -0.8851  0.9432 -0.2719
  286MOL0     C37630   7.304   6.175   1.033 -0.9378  0.3633 -0.2518
  286MOL0     C37631   7.414   6.198   0.929 -0.1027  0.2376 -0.2657
  286MOL0     C37632   7.392   6.322   0.851 -0.0863 -0.2683 -0.2335
  286MOL0     C37633   7.288   6.316   0.738 -0.2916  0.1411  1.0155
  286MOL0     C37634   7.248   6.456   0.701 -0.1584 -0.2230  0.4372
  286MOL0     C37635   7.125   6.444   0.608 -0.0315  0.2710 -1.1761
  286MOL0     C37636   7.066   6.584   0.607 -0.4552  0.8926  0.1778
  286MOL0     N37637   6.955   6.587   0.509 -0.1177 -0.2177  0.2663
  286MOL0     C37638   6.829   6.543   0.523  0.7879 -0.0872 -0.7222
  286MOL0     C37639   6.772   6.558   0.399  0.4420  0.0937 -0.5702
  286MOL0     C37640   6.628   6.514   0.358 -0.5365 -0.2051  0.6745
  286MOL0     C37641   6.578   6.394   0.434  0.4198  0.4179 -0.3873
  286MOL0     C37642   6.438   6.362   0.401 -0.0273  0.7281 -0.2903
  286MOL0     C37643   6.383   6.247   0.490  0.5527  0.5304  0.7326
  286MOL0     O37644   6.411   6.277   0.628  0.4743  0.2480  0.3561
  286MOL0     C37645   6.314   6.352   0.699 -0.4230 -0.8534 -0.4678
  286MOL0     C37646   6.340   6.365   0.839  0.8139 -0.0138 -0.1204
  286MOL0     C37647   6.246   6.433   0.921 -0.3551 -0.1657  0.1963
  286MOL0     C37648   6.127   6.491   0.869  0.0811  0.0248 -0.0448
  286MOL0     C37649   6.024   6.569   0.947 -0.8533 -0.4341 -0.0661
  286MOL0     O37650   5.900   6.580   0.891 -0.2610 -0.0810  0.0050
  286MOL0     C37651   5.829   6.692   0.930 -0.4657  0.7664 -0.7004
  286MOL0     C37652   5.814   6.796   0.843 -0.2965 -0.3002 -0.1076
  286MOL0     C37653   5.739   6.909   0.882 -0.3234 -0.4418  1.0047
  286MOL0     C37654   5.671   6.913   0.998 -0.4608  0.2855 -0.0083
  286MOL0     O37655   5.592   7.015   1.048  0.2883  0.2290 -0.7276
  286MOL0     C37656   5.519   7.078   0.948 -0.4342  0.1293  0.2159
  286MOL0     C37657   5.395   7.102   1.025  0.3858 -0.2988 -0.1864
  286MOL0     C37658   5.292   7.173   0.931 -0.1835  0.1664 -0.2656
  286MOL0     C37659   5.153   7.186   0.994  0.6763 -0.5226  0.0500
  286MOL0     C37660   5.038   7.207   0.897 -0.1469 -0.0722  0.4114
  286MOL0     C37661   4.900   7.210   0.969 -0.0080  0.2184  0.2917
  286MOL0     C37662   4.806   7.307   0.906 -0.3992 -0.4076 -0.2394
  286MOL0     C37663   4.755   7.243   0.778  0.5155  0.2998 -0.5444
  286MOL0    Cl37664   4.618   7.138   0.816  0.3822 -0.5406  0.1537
  286MOL0     C37665   5.679   6.801   1.079  1.0921 -0.5450 -1.0288
  286MOL0     C37666   5.753   6.690   1.045  0.0308  0.3565 -0.6893
  286MOL0     O37667   6.050   6.608   1.060 -0.5502 -0.2640 -0.1576
  286MOL0     C37668   6.108   6.476   0.731 -0.3499 -0.7225  0.0396
  286MOL0     C37669   6.203   6.419   0.648 -0.6360 -0.4398  0.1854
  286MOL0     N37670   6.871   6.616   0.317  0.0755  0.6273 -0.8528
  286MOL0     N37671   6.968   6.643   0.386 -0.3074 -0.5048 -0.5954
  286MOL0     C37672   7.396   5.786   1.199 -0.0666 -0.1385  0.8219
  286MOL0     C37673   7.472   5.670   1.221 -0.5580 -0.1684 -0.6267
  286MOL0     C37674   7.749   5.293   1.128 -0.6793 -0.0164  0.5003
  286MOL0     C37675   7.740   5.272   1.261 -0.9298  0.0544 -1.0943
  286MOL0     C37676   7.807   5.166   1.324 -0.2350  0.8360  0.0228
  286MOL0     C37677   7.899   5.094   1.254  0.0867 -0.0959  0.3204
  286MOL0     O37678   7.979   4.993   1.300 -0.2323  1.0156 -0.8138
  286MOL0     C37679   7.968   4.952   1.440  0.2515 -0.5551  0.5261
  286MOL0     C37680   7.853   4.857   1.468  0.2700 -0.5057  0.5784
  286MOL0     C37681   7.859   4.716   1.398  0.0385 -0.3344 -0.8949
  286MOL0     C37682   7.719   4.636   1.416  0.5131  0.0151 -0.5247
  286MOL0     C37683   7.700   4.548   1.296 -0.0301 -0.7687 -0.1172
  286MOL0     C37684   7.678   4.484   1.195  1.0438  0.5530 -0.7270
  286MOL0     C37685   7.911   5.114   1.114  0.3458 -0.2560 -0.0883
  286MOL0     C37686   7.844   5.214   1.054 -0.5179  0.7351 -0.0309
  286MOL0     H37687   7.487   5.534   0.916 -0.2851  1.3316 -0.7674
  286MOL0     H37688   7.348   5.750   0.862  0.0386  2.0785  0.2880
  286MOL0     H37689   7.431   6.045   1.149 -1.2077 -2.7845  1.0797
  286MOL0     H37690   7.255   6.036   1.186 -1.7546  1.6812 -1.0099
  286MOL0     H37691   7.306   6.257   1.105  2.9227 -1.2361  1.7644
  286MOL0     H37692   7.204   6.175   0.990 -1.2508 -0.0260  0.4637
  286MOL0     H37693   7.423   6.113   0.860  0.1362 -0.5386  0.7006
  286MOL0     H37694   7.503   6.211   0.991 -0.4325  1.9418 -0.0920
  286MOL0     H37695   7.363   6.398   0.924  0.5386  0.7028 -0.9653
  286MOL0     H37696   7.488   6.357   0.811 -0.1360  1.6124  1.1490
  286MOL0     H37697   7.199   6.262   0.769 -1.7364  3.0021  2.1915
  286MOL0     H37698   7.343   6.259   0.661  2.0573 -0.3062  2.9037
  286MOL0     H37699   7.322   6.510   0.642 -1.1866 -0.8662 -1.5459
  286MOL0     H37700   7.225   6.510   0.793  1.3583  0.4101  0.4678
  286MOL0     H37701   7.164   6.411   0.511 -0.0488 -1.7134 -0.5526
  286MOL0     H37702   7.048   6.377   0.648  0.9327  1.2603  2.7401
  286MOL0     H37703   7.140   6.660   0.579 -1.0149  2.1792  1.9874
  286MOL0     H37704   7.029   6.599   0.709  2.4053 -2.2669  1.9088
  286MOL0     H37705   6.794   6.493   0.613  2.5202  1.6764  1.0366
  286MOL0     H37706   6.637   6.489   0.252 -0.8466 -1.8834  1.0225
  286MOL0     H37707   6.564   6.602   0.370  1.2669  1.1430  0.8805
  286MOL0     H37708   6.586   6.414   0.541 -0.9197 -2.4581  0.3410
  286MOL0     H37709   6.644   6.310   0.409  0.4677  1.0552 -2.7010
  286MOL0     H37710   6.382   6.456   0.412  0.5389  0.7655  3.2024
  286MOL0     H37711   6.424   6.328   0.297  1.1182 -1.7349  0.2972
  286MOL0     H37712   6.431   6.151   0.466  2.5688  1.8798 -0.9694
  286MOL0     H37713   6.275   6.236   0.480  0.5261  1.9497 -0.9117
  286MOL0     H37714   6.420   6.309   0.885  1.6261  0.6992 -0.6454
  286MOL0     H37715   6.264   6.440   1.028 -0.7544 -0.8354  0.3147
  286MOL0     H37716   5.861   6.790   0.745 -1.4407 -3.8445 -0.5838
  286MOL0     H37717   5.742   7.007   0.834  0.0940 -0.1883  1.5375
  286MOL0     H37718   5.501   7.018   0.858  0.3202  3.0207 -2.0311
  286MOL0     H37719   5.565   7.172   0.916 -2.6746  0.5729 -1.9859
  286MOL0     H37720   5.423   7.165   1.109 -0.2098  1.0798 -0.9778
  286MOL0     H37721   5.348   7.010   1.062  0.5216 -1.1580 -2.0208
  286MOL0     H37722   5.280   7.112   0.840  0.9397  0.4494 -0.6191
  286MOL0     H37723   5.323   7.276   0.912 -0.3097  0.2082 -0.2478
  286MOL0     H37724   5.122   7.095   1.046 -0.0170  0.3839  1.2734
  286MOL0     H37725   5.157   7.267   1.067  0.7059  1.2084 -1.7580
  286MOL0     H37726   5.052   7.135   0.815  2.2678 -1.4978  1.9394
  286MOL0     H37727   5.057   7.304   0.850  1.6767 -1.2872 -1.5787
  286MOL0     H37728   4.904   7.245   1.072 -0.7311 -2.4877  1.3114
  286MOL0     H37729   4.872   7.105   0.976  0.3000  0.0218 -1.0943
  286MOL0     H37730   4.726   7.328   0.978  0.9290  1.3767  0.7902
  286MOL0     H37731   4.849   7.403   0.877 -0.9198  0.7197  2.4105
  286MOL0     H37732   4.825   7.178   0.724 -0.3679 -1.8608  0.8274
  286MOL0     H37733   4.727   7.323   0.708  0.5355 -0.7406 -1.7693
  286MOL0     H37734   5.621   6.801   1.171  0.6732  0.9485 -1.2640
  286MOL0     H37735   5.764   6.607   1.115  0.8423  0.4122 -0.7322
  286MOL0     H37736   6.020   6.527   0.694 -1.4378 -1.9601  0.8428
  286MOL0     H37737   6.175   6.424   0.543 -1.1706  0.2853  0.3560
  286MOL0     H37738   7.351   5.842   1.280  0.1483  0.0636  0.8014
  286MOL0     H37739   7.497   5.648   1.325 -0.6241 -2.3320 -1.0195
  286MOL0     H37740   7.671   5.339   1.311 -0.2989  1.8840 -2.5899
  286MOL0     H37741   7.782   5.153   1.429  0.0136  1.6806  0.1966
  286MOL0     H37742   7.956   5.042   1.502  3.8558  1.4361 -1.3314
  286MOL0     H37743   8.064   4.907   1.470 -1.0841 -3.7558  0.4040
  286MOL0     H37744   7.836   4.845   1.576 -0.9576  0.0497  0.4623
  286MOL0     H37745   7.760   4.901   1.432  1.1827 -0.1403 -1.4893
  286MOL0     H37746   7.939   4.656   1.443  2.1481  1.0826 -2.5479
  286MOL0     H37747   7.877   4.741   1.293 -0.8344  3.5444 -0.2765
  286MOL0     H37748   7.721   4.581   1.511 -0.8735  0.9523  0.0820
  286MOL0     H37749   7.631   4.699   1.430  0.9929  0.9689 -1.5927
  286MOL0     H37750   7.658   4.423   1.110  4.6444  0.5576 -1.7142
  286MOL0     H37751   7.976   5.047   1.058  0.6842 -1.0432  1.2001
  286MOL0     H37752   7.855   5.220   0.947 -0.7174  0.4326 -0.0707
  287MOL0     O37753   3.902  10.672   0.198  0.5756  0.3182  0.4663
  287MOL0     C37754   3.958  10.561   0.165  0.4322 -0.6582  0.8172
  287MOL0     O37755   3.908  10.429   0.185  0.8005 -0.4114  0.0004
  287MOL0     C37756   3.778  10.432   0.227  0.1484 -1.3112 -0.2672
  287MOL0     C37757   3.729  10.491   0.347 -0.0676 -0.5714 -0.2996
  287MOL0     C37758   3.593  10.478   0.385  0.5821  0.4968  0.2634
  287MOL0     C37759   3.494  10.417   0.311 -0.0754 -0.1972  0.4879
  287MOL0     O37760   3.371  10.395   0.364 -0.5612  0.3088  0.2140
  287MOL0     C37761   3.258  10.439   0.278  0.4486 -0.5773 -0.5271
  287MOL0     C37762   3.131  10.409   0.364 -0.9430 -0.3546 -0.3983
  287MOL0     C37763   3.008  10.472   0.290  1.3269 -0.4866 -0.6389
  287MOL0     C37764   2.886  10.385   0.279  0.2991 -0.5846  0.4868
  287MOL0     C37765   2.827  10.350   0.410 -0.8639 -0.0748  0.6305
  287MOL0     C37766   2.678  10.312   0.404  0.5825  1.4196  0.4074
  287MOL0     C37767   2.638  10.236   0.533  0.2821 -0.0557 -0.4093
  287MOL0     C37768   2.668  10.312   0.668 -0.8240  0.9967  0.6608
  287MOL0     N37769   2.626  10.234   0.788  0.3693  0.0368  0.4768
  287MOL0     C37770   2.507  10.259   0.849 -0.0885  0.5217  0.0950
  287MOL0     C37771   2.510  10.176   0.955 -0.5694  0.0462 -0.8738
  287MOL0     C37772   2.398  10.165   1.048  0.5784  0.1450  0.0324
  287MOL0     C37773   2.344  10.304   1.081  0.5575  0.1430 -0.2857
  287MOL0     C37774   2.285  10.315   1.225  0.5537  0.3221 -0.5135
  287MOL0     C37775   2.147  10.252   1.227 -0.8973  0.1305 -0.6046
  287MOL0     O37776   2.064  10.343   1.146 -0.5298 -0.6642 -0.2535
  287MOL0     C37777   1.937  10.299   1.129  0.8773 -0.4957  0.2920
  287MOL0     C37778   1.885  10.174   1.162  0.1459 -0.1934 -0.7619
  287MOL0     C37779   1.752  10.136   1.143 -0.6520 -0.2033  0.1667
  287MOL0     C37780   1.664  10.220   1.081  0.3489  0.9019 -0.5049
  287MOL0     C37781   1.519  10.183   1.056 -0.5699 -0.1358  0.8812
  287MOL0     O37782   1.442  10.275   0.981  0.2422 -0.4253 -0.0012
  287MOL0     C37783   1.305  10.252   0.966  0.3277  0.1581  0.0332
  287MOL0     C37784   1.232  10.368   0.933  0.2270 -0.4037 -0.2113
  287MOL0     C37785   1.094  10.366   0.899 -0.0401  0.2630 -0.3471
  287MOL0     C37786   1.021  10.249   0.910 -0.3205 -0.0732 -0.8380
  287MOL0     O37787   0.889  10.256   0.885  0.2942  0.0956 -0.0754
  287MOL0     C37788   0.789  10.153   0.912  0.3917 -0.5763  0.7409
  287MOL0     C37789   0.650  10.217   0.908 -0.8066  0.4397 -0.8179
  287MOL0     C37790   0.583  10.183   0.775  0.1339  0.3719 -0.8725
  287MOL0     C37791   0.544  10.033   0.775 -0.4901  0.1161  0.5880
  287MOL0     C37792   0.458   9.998   0.655  0.3051  0.0481  0.4488
  287MOL0     C37793   0.313  10.040   0.670 -0.1690  0.6965 -0.1417
  287MOL0     C37794   0.230   9.955   0.578 -0.1380  0.0567 -0.5076
  287MOL0     C37795   0.089  10.013   0.561 -0.6802 -0.6996  0.3466
  287MOL0    Cl37796   0.001   9.900   0.463  0.0644 -0.5134  0.0378
  287MOL0     C37797   1.095  10.134   0.945  0.0293  0.1785 -0.1570
  287MOL0     C37798   1.232  10.134   0.966  0.0161 -0.2816 -0.4248
  287MOL0     O37799   1.475  10.080   1.101 -0.6120  0.2129 -0.2994
  287MOL0     C37800   1.707  10.347   1.043  0.3115 -0.0187  0.3164
  287MOL0     C37801   1.841  10.385   1.063 -0.4073 -0.3799  0.3958
  287MOL0     N37802   2.621  10.094   0.958  0.7099  0.0828 -0.1799
  287MOL0     N37803   2.690  10.133   0.856 -0.4885  0.3492 -0.0851
  287MOL0     C37804   3.540  10.372   0.189 -0.7359  1.0496  0.9794
  287MOL0     C37805   3.680  10.379   0.145  0.6543 -0.0694  0.4022
  287MOL0     C37806   4.096  10.585   0.120  0.5801 -1.2078  0.3731
  287MOL0     C37807   4.144  10.717   0.111 -0.3939 -1.1513  0.4870
  287MOL0     C37808   4.282  10.736   0.071  0.4811  0.2417 -0.8112
  287MOL0     C37809   4.362  10.629   0.027 -0.0144 -0.0507 -0.1843
  287MOL0     O37810   4.487  10.662  -0.017 -0.5688 -0.3008  0.0859
  287MOL0     C37811   4.556  10.580  -0.106 -0.1530 -0.3380 -0.0718
  287MOL0     C37812   4.699  10.614  -0.126 -0.5198 -0.1994  0.6485
  287MOL0     C37813   4.703  10.756  -0.178 -0.1510 -0.7252  0.4883
  287MOL0     C37814   4.850  10.807  -0.200 -0.4565 -0.5486  0.1596
  287MOL0     C37815   4.932  10.714  -0.275  0.1583  0.2192  1.1269
  287MOL0     C37816   5.012  10.633  -0.325 -0.5288  0.3541  0.4374
  287MOL0     C37817   4.314  10.495   0.041 -0.3747 -0.1875  0.1388
  287MOL0     C37818   4.186  10.478   0.083  0.0749 -0.4977  0.6489
  287MOL0     H37819   3.802  10.533   0.415 -0.1094  2.1081 -1.7792
  287MOL0     H37820   3.578  10.516   0.486  1.0391  1.4316 -0.0195
  287MOL0     H37821   3.241  10.388   0.183 -0.3848  0.3220 -0.8808
  287MOL0     H37822   3.253  10.548   0.267  0.5342 -0.5923 -0.7184
  287MOL0     H37823   3.147  10.435   0.469  0.8688  0.4510 -0.8393
  287MOL0     H37824   3.120  10.300   0.371  2.8961 -0.9884 -1.8702
  287MOL0     H37825   3.030  10.498   0.186 -0.0908  0.2584 -0.7752
  287MOL0     H37826   2.980  10.570   0.330 -0.1782 -0.9457 -0.4894
  287MOL0     H37827   2.811  10.434   0.216 -2.1257 -2.7300  1.5752
  287MOL0     H37828   2.920  10.295   0.227  0.7933  0.0299 -0.2869
  287MOL0     H37829   2.825  10.436   0.477 -0.9137  0.4403 -0.0172
  287MOL0     H37830   2.888  10.271   0.454  1.7153  1.3239 -0.2008
  287MOL0     H37831   2.660  10.239   0.324  1.9146 -0.3168  1.6335
  287MOL0     H37832   2.605  10.389   0.377 -0.0844  0.7072  0.1139
  287MOL0     H37833   2.531  10.218   0.540  0.4652 -1.1435 -0.1740
  287MOL0     H37834   2.689  10.140   0.528  0.6741  0.0970  0.3911
  287MOL0     H37835   2.612  10.406   0.672  1.1472  2.4996 -2.5488
  287MOL0     H37836   2.776  10.324   0.686 -0.1600  0.0327 -2.1964
  287MOL0     H37837   2.432  10.335   0.832 -0.6714 -0.4286 -1.9266
  287MOL0     H37838   2.444  10.123   1.138 -1.5735 -2.4238  0.0602
  287MOL0     H37839   2.318  10.101   1.010 -0.3010  0.5122  1.1742
  287MOL0     H37840   2.270  10.340   1.010 -0.3839  1.1194  1.1409
  287MOL0     H37841   2.425  10.376   1.072 -0.3833  1.5967  2.0559
  287MOL0     H37842   2.353  10.273   1.300  1.4330  3.1029  0.3642
  287MOL0     H37843   2.276  10.418   1.262 -1.0325 -0.0061  0.0849
  287MOL0     H37844   2.118  10.249   1.332  1.7894 -0.7916  0.1714
  287MOL0     H37845   2.147  10.150   1.187  2.2157  0.0418 -0.6034
  287MOL0     H37846   1.938  10.096   1.216 -0.8371 -0.6754 -0.4695
  287MOL0     H37847   1.721  10.038   1.179 -0.2738  0.2603  1.8284
  287MOL0     H37848   1.275  10.468   0.930  0.1516 -0.3588  0.1050
  287MOL0     H37849   1.049  10.463   0.879  3.0162  1.7884 -0.3778
  287MOL0     H37850   0.799  10.107   1.011  1.7339  0.4936  1.1364
  287MOL0     H37851   0.799  10.068   0.843 -0.0069  1.4070 -1.8930
  287MOL0     H37852   0.670  10.323   0.927  1.1225  0.2469 -1.5712
  287MOL0     H37853   0.589  10.187   0.993 -1.6114 -0.5470 -1.7337
  287MOL0     H37854   0.652  10.204   0.693 -0.0274  0.9656 -0.8617
  287MOL0     H37855   0.491  10.241   0.760 -0.0922 -0.1558 -1.5474
  287MOL0     H37856   0.634   9.973   0.760 -0.4169  0.6537 -1.3385
  287MOL0     H37857   0.494   9.997   0.866 -1.3500  2.5937  1.1778
  287MOL0     H37858   0.468   9.891   0.635  0.8977  0.0596  0.6553
  287MOL0     H37859   0.495  10.053   0.568  1.2488 -4.4952 -2.3769
  287MOL0     H37860   0.301  10.147   0.648  0.7384  0.6929 -0.6866
  287MOL0     H37861   0.276  10.025   0.772  1.7245 -1.2370  0.3427
  287MOL0     H37862   0.262   9.956   0.474 -0.2624 -2.1580 -0.6157
  287MOL0     H37863   0.222   9.850   0.607 -1.5288 -0.1378 -1.4912
  287MOL0     H37864   0.096  10.110   0.510  0.8264 -0.8507  0.2100
  287MOL0     H37865   0.031  10.031   0.652  0.4831 -0.1282  1.0068
  287MOL0     H37866   1.034  10.044   0.939 -0.1369  0.0938  2.0316
  287MOL0     H37867   1.281  10.038   0.981 -2.3538 -1.4999  0.0446
  287MOL0     H37868   1.640  10.415   0.992 -0.7294 -1.7569 -0.7603
  287MOL0     H37869   1.868  10.488   1.044 -3.1223  0.3565  0.1797
  287MOL0     H37870   3.480  10.315   0.119  0.4150 -0.9433  1.5399
  287MOL0     H37871   3.704  10.328   0.052  0.7634 -0.3939  0.6067
  287MOL0     H37872   4.098  10.811   0.139 -2.1832 -0.8088 -3.0225
  287MOL0     H37873   4.324  10.836   0.069  2.9080 -0.6902  0.0790
  287MOL0     H37874   4.496  10.591  -0.197 -0.0409  2.6984  0.1161
  287MOL0     H37875   4.553  10.478  -0.069 -2.1338  0.5063  2.2908
  287MOL0     H37876   4.759  10.593  -0.037 -0.5377 -0.9841  0.4850
  287MOL0     H37877   4.733  10.543  -0.203 -2.5343  0.6936 -1.1706
  287MOL0     H37878   4.640  10.826  -0.122 -0.0023 -0.2047  0.0219
  287MOL0     H37879   4.661  10.764  -0.279  1.7184 -0.6594 -0.3130
  287MOL0     H37880   4.851  10.903  -0.252  1.6136  0.3549  1.7382
  287MOL0     H37881   4.902  10.811  -0.104 -1.3316 -0.6139  0.6461
  287MOL0     H37882   5.077  10.563  -0.375  1.2174  2.7457 -0.8428
  287MOL0     H37883   4.385  10.417   0.016  1.1708  0.8466  1.1023
  287MOL0     H37884   4.136  10.382   0.097 -0.0195 -0.7129 -1.0064
  288MOL0     O37885   7.652   1.477   1.390  0.1346  0.8603  0.9204
  288MOL0     C37886   7.672   1.457   1.508 -0.5115  0.1628 -0.4087
  288MOL0     O37887   7.584   1.448   1.609 -0.5855  0.6399  0.2346
  288MOL0     C37888   7.452   1.476   1.594 -0.3005  0.3438 -0.0383
  288MOL0     C37889   7.372   1.441   1.699 -0.5897  0.5062  0.5168
  288MOL0     C37890   7.240   1.480   1.712  0.4566  0.3399  0.3570
  288MOL0     C37891   7.183   1.552   1.600  0.5287 -1.3321  0.4335
  288MOL0     O37892   7.046   1.581   1.579 -0.3225 -0.7858  0.5207
  288MOL0     C37893   6.953   1.531   1.666  0.4013  0.5246 -0.7785
  288MOL0     C37894   6.816   1.569   1.615  0.2645  0.1071 -0.1502
  288MOL0     C37895   6.717   1.489   1.703  0.0447 -0.4605  0.2209
  288MOL0     C37896   6.570   1.512   1.675  0.0700  0.3479 -1.1820
  288MOL0     C37897   6.500   1.455   1.803 -0.6570  0.8498 -0.3175
  288MOL0     C37898   6.351   1.440   1.778  0.3150  0.1721 -0.5378
  288MOL0     C37899   6.281   1.581   1.732 -0.5954  0.5167  0.4445
  288MOL0     C37900   6.132   1.562   1.733 -0.2847  0.8277  0.0892
  288MOL0     N37901   6.084   1.544   1.871 -0.6199  0.0635  0.5880
  288MOL0     C37902   6.123   1.604   1.991  0.5224  0.2451  0.1070
  288MOL0     C37903   6.049   1.535   2.089 -0.2982  0.4499  0.3265
  288MOL0     C37904   6.063   1.566   2.235 -1.0157 -0.3017  0.2101
  288MOL0     C37905   6.202   1.552   2.287 -0.2289  0.0573  0.0199
  288MOL0     C37906   6.259   1.409   2.264 -0.3030  0.3387 -0.9763
  288MOL0     C37907   6.413   1.393   2.300  0.3884  0.1404  0.4355
  288MOL0     O37908   6.498   1.406   2.186 -0.3439  0.4702 -0.1674
  288MOL0     C37909   6.628   1.417   2.220 -1.1049  0.6514  0.0151
  288MOL0     C37910   6.688   1.397   2.348 -0.2991 -0.9277 -0.4206
  288MOL0     C37911   6.828   1.403   2.368  0.3356  0.4686  0.0212
  288MOL0     C37912   6.914   1.433   2.263  1.3444  0.2308  0.3671
  288MOL0     C37913   7.064   1.450   2.283  0.6076  0.1211 -0.2811
  288MOL0     O37914   7.138   1.491   2.179  0.2262 -0.0131 -0.3979
  288MOL0     C37915   7.272   1.493   2.179 -0.7085  0.3340 -0.9999
  288MOL0     C37916   7.326   1.566   2.083  0.4040 -0.0581  0.3128
  288MOL0     C37917   7.458   1.575   2.058  0.8309  0.9536  1.0474
  288MOL0     C37918   7.557   1.509   2.133 -0.8329 -0.2537  0.3044
  288MOL0     O37919   7.694   1.530   2.111  0.0865 -1.0042  0.6512
  288MOL0     C37920   7.796   1.464   2.176 -1.0380 -0.3565 -0.6559
  288MOL0     C37921   7.934   1.503   2.125  0.2483  0.4699  0.1533
  288MOL0     C37922   8.036   1.421   2.206 -0.8965 -0.6261  0.0157
  288MOL0     C37923   8.176   1.405   2.130 -0.2949 -0.1131 -0.0499
  288MOL0     C37924   8.294   1.360   2.221 -0.2496  0.0004  0.4081
  288MOL0     C37925   8.434   1.418   2.172 -0.0766  0.1668  0.2658
  288MOL0     C37926   8.524   1.429   2.291 -0.3406  0.4864  0.3436
  288MOL0     C37927   8.661   1.480   2.263  0.1393  0.3513  0.5315
  288MOL0    Cl37928   8.756   1.528   2.416  0.2750  0.3560  0.2188
  288MOL0     C37929   7.508   1.431   2.242  0.6006 -0.0691 -0.4897
  288MOL0     C37930   7.362   1.434   2.271 -0.4723  0.6664 -0.0404
  288MOL0     O37931   7.107   1.434   2.399 -0.0019 -0.0213 -0.0351
  288MOL0     C37932   6.852   1.463   2.140 -0.6887  0.0067 -0.4782
  288MOL0     C37933   6.718   1.450   2.119  0.1546 -0.1171  0.8471
  288MOL0     N37934   5.972   1.431   2.027 -0.6346  0.2620 -0.3109
  288MOL0     N37935   6.004   1.441   1.904  0.3948 -0.1345  1.4460
  288MOL0     C37936   7.263   1.589   1.496 -0.0452 -0.4585  0.2200
  288MOL0     C37937   7.395   1.562   1.495 -1.4352 -0.3353  0.1359
  288MOL0     C37938   7.814   1.445   1.538 -0.2363  0.0848  0.7874
  288MOL0     C37939   7.863   1.468   1.670 -0.1538  0.1866  0.8310
  288MOL0     C37940   7.996   1.449   1.703  0.0667  0.0906 -0.5790
  288MOL0     C37941   8.091   1.413   1.610  0.1941 -0.0264  0.0517
  288MOL0     O37942   8.221   1.436   1.648  0.0184  0.4699  0.4548
  288MOL0     C37943   8.321   1.363   1.583 -0.5175 -0.3135 -0.0368
  288MOL0     C37944   8.437   1.309   1.676 -0.0239 -0.1809 -0.2675
  288MOL0     C37945   8.517   1.429   1.719 -0.4407 -0.4458 -0.2511
  288MOL0     C37946   8.637   1.408   1.823  0.5708  0.3519  0.6635
  288MOL0     C37947   8.707   1.534   1.854 -0.1490 -0.2159  0.5052
  288MOL0     C37948   8.755   1.639   1.883  0.2013  0.3521  0.4974
  288MOL0     C37949   8.044   1.390   1.483 -0.1057 -0.1990 -0.0666
  288MOL0     C37950   7.910   1.400   1.444 -0.2017  1.0392 -0.2282
  288MOL0     H37951   7.430   1.402   1.781 -1.0555 -1.8517 -0.1927
  288MOL0     H37952   7.190   1.453   1.804  0.6503  1.6630  0.8724
  288MOL0     H37953   6.964   1.573   1.766  1.6937  1.6095 -1.3471
  288MOL0     H37954   6.968   1.423   1.673  0.3700  0.4536 -1.6865
  288MOL0     H37955   6.802   1.559   1.507  0.6210  2.3172 -0.4604
  288MOL0     H37956   6.802   1.677   1.631  1.1136  0.1963  0.0331
  288MOL0     H37957   6.748   1.512   1.805  0.2766  0.5856 -0.0691
  288MOL0     H37958   6.733   1.383   1.682 -0.3203 -0.5880  0.5753
  288MOL0     H37959   6.564   1.620   1.668  2.8667  0.6296 -0.6400
  288MOL0     H37960   6.544   1.457   1.584  0.5484 -0.3321 -0.9209
  288MOL0     H37961   6.513   1.531   1.880  1.7255 -1.7596  2.1074
  288MOL0     H37962   6.544   1.358   1.830  2.5404  2.4310  0.6520
  288MOL0     H37963   6.311   1.413   1.876 -0.2379 -1.5840 -1.2130
  288MOL0     H37964   6.328   1.367   1.700  1.4062 -1.0986  0.2734
  288MOL0     H37965   6.313   1.666   1.793  0.6742 -0.7089  1.5945
  288MOL0     H37966   6.314   1.616   1.634 -0.8620  0.4315  0.3247
  288MOL0     H37967   6.113   1.476   1.667  0.1889  0.2666  0.6637
  288MOL0     H37968   6.082   1.651   1.694 -4.6200 -0.5686  1.9368
  288MOL0     H37969   6.196   1.681   2.012 -1.0702  1.6069  0.8231
  288MOL0     H37970   6.004   1.500   2.299 -4.3543  0.6270 -1.6534
  288MOL0     H37971   6.027   1.669   2.244 -2.1854 -0.7306  0.7282
  288MOL0     H37972   6.199   1.581   2.393  0.2450  0.9747 -0.2022
  288MOL0     H37973   6.264   1.620   2.228  0.6701 -1.5655 -0.9597
  288MOL0     H37974   6.192   1.354   2.330 -3.1617  4.3855 -0.0691
  288MOL0     H37975   6.237   1.370   2.164 -0.3252 -2.1736 -0.0410
  288MOL0     H37976   6.425   1.295   2.346  0.8510 -0.5197 -1.0417
  288MOL0     H37977   6.427   1.474   2.372  1.0109  0.0253  0.4504
  288MOL0     H37978   6.624   1.376   2.433 -1.1848  0.6720 -0.6384
  288MOL0     H37979   6.851   1.391   2.473 -1.3968 -0.5509  0.3135
  288MOL0     H37980   7.259   1.629   2.025  1.7519  0.9570 -0.1802
  288MOL0     H37981   7.502   1.637   1.981 -0.5101 -1.0902 -1.5064
  288MOL0     H37982   7.781   1.361   2.142 -0.6537 -0.4203 -0.6283
  288MOL0     H37983   7.786   1.483   2.284 -1.8297  3.0737 -1.2133
  288MOL0     H37984   7.968   1.606   2.139  3.0368 -0.4609  1.1569
  288MOL0     H37985   7.945   1.489   2.018 -0.8824  3.6630 -0.4840
  288MOL0     H37986   7.993   1.323   2.227  0.3045 -2.0465 -3.4355
  288MOL0     H37987   8.058   1.465   2.304  0.2647 -0.8218 -0.1419
  288MOL0     H37988   8.169   1.330   2.051 -2.1493 -0.3660  0.3117
  288MOL0     H37989   8.200   1.500   2.081  0.4263 -0.4542 -0.3840
  288MOL0     H37990   8.303   1.251   2.225 -0.1065  0.0446  1.8587
  288MOL0     H37991   8.272   1.391   2.323 -1.7764 -1.1561  0.4702
  288MOL0     H37992   8.413   1.517   2.130  0.6021  0.6260  0.9531
  288MOL0     H37993   8.482   1.355   2.097  0.5682  0.8724  0.0763
  288MOL0     H37994   8.484   1.493   2.370  0.4333  0.3803  0.8346
  288MOL0     H37995   8.526   1.327   2.331 -0.1738  0.5428  0.4842
  288MOL0     H37996   8.668   1.572   2.205 -0.7013 -0.2383 -0.5342
  288MOL0     H37997   8.715   1.410   2.199 -1.2334  0.1418 -0.4426
  288MOL0     H37998   7.569   1.364   2.301  1.6623  1.7083  0.5326
  288MOL0     H37999   7.326   1.377   2.355 -1.0513 -0.8111 -1.2437
  288MOL0     H38000   6.914   1.497   2.058  1.9898  1.5219  2.0030
  288MOL0     H38001   6.676   1.455   2.019  0.3185 -1.3081  0.6966
  288MOL0     H38002   7.215   1.648   1.418 -2.8761  0.1249  2.2367
  288MOL0     H38003   7.449   1.605   1.411  1.3171 -0.2297  1.8112
  288MOL0     H38004   7.782   1.505   1.732  0.7603  2.6510  0.6878
  288MOL0     H38005   8.029   1.477   1.803  1.3830  2.5928 -1.6085
  288MOL0     H38006   8.353   1.408   1.489  0.5247 -1.9035 -0.4800
  288MOL0     H38007   8.268   1.273   1.551 -2.7117  0.3481  1.5384
  288MOL0     H38008   8.384   1.261   1.759  0.7075  0.9430  0.8984
  288MOL0     H38009   8.497   1.239   1.618 -0.0682  1.6613 -2.7177
  288MOL0     H38010   8.455   1.506   1.767  0.9738  0.0295  0.8864
  288MOL0     H38011   8.560   1.472   1.628 -0.7247  1.4290  0.4477
  288MOL0     H38012   8.600   1.356   1.911 -1.8826 -1.0095 -1.0544
  288MOL0     H38013   8.716   1.351   1.772  1.2313  3.3846 -2.1144
  288MOL0     H38014   8.781   1.738   1.915  0.9859  0.7402 -1.2395
  288MOL0     H38015   8.119   1.365   1.408  0.2412 -2.1184  0.8687
  288MOL0     H38016   7.881   1.368   1.344  0.9770  0.5882 -0.4401
  289MOL0     O38017   1.361   5.785   6.660 -0.5110 -0.1779 -0.4036
  289MOL0     C38018   1.449   5.859   6.707 -0.6740 -0.1153  0.2697
  289MOL0     O38019   1.427   5.970   6.792 -0.4041 -0.4452 -0.2600
  289MOL0     C38020   1.303   6.018   6.799 -0.0926  0.7414 -0.2719
  289MOL0     C38021   1.279   6.157   6.766 -0.6459  0.7994 -0.3656
  289MOL0     C38022   1.146   6.206   6.773 -0.4495 -0.3663  0.3887
  289MOL0     C38023   1.036   6.130   6.790  0.3769  0.2202 -0.2571
  289MOL0     O38024   0.903   6.171   6.765  0.2973  0.1761  0.4863
  289MOL0     C38025   0.833   6.250   6.862  0.4040  0.6233 -0.0686
  289MOL0     C38026   0.703   6.304   6.806  0.5466  0.3912 -0.0199
  289MOL0     C38027   0.629   6.372   6.918  0.0310  0.0157 -0.3881
  289MOL0     C38028   0.689   6.500   6.976 -0.2502  0.3166 -0.2567
  289MOL0     C38029   0.585   6.564   7.077  0.2793  0.7985  0.9774
  289MOL0     C38030   0.639   6.701   7.112 -1.0693 -0.1046 -0.4240
  289MOL0     C38031   0.543   6.788   7.184  0.5318 -0.7921 -0.1601
  289MOL0     C38032   0.511   6.753   7.335  0.1209  0.6872  0.3950
  289MOL0     N38033   0.439   6.864   7.402  0.0948 -0.2837  0.3791
  289MOL0     C38034   0.305   6.849   7.435 -0.2196 -0.2256 -0.5043
  289MOL0     C38035   0.265   6.975   7.476  0.1375  0.5108  0.0077
  289MOL0     C38036   0.125   7.015   7.514  0.3731  0.3861  0.5846
  289MOL0     C38037   0.035   7.037   7.386  0.5625  0.0254  0.0345
  289MOL0     C38038  -0.113   7.055   7.418 -0.0827 -0.8067 -0.4016
  289MOL0     C38039  -0.156   7.181   7.490 -0.2193 -0.2916  0.0278
  289MOL0     O38040  -0.231   7.148   7.605 -0.4824  0.2128 -0.0195
  289MOL0     C38041  -0.324   7.249   7.641  0.1577  0.5257 -0.3180
  289MOL0     C38042  -0.306   7.387   7.626  0.0198  0.2441 -0.4123
  289MOL0     C38043  -0.416   7.464   7.675  0.0053  0.9585 -0.2822
  289MOL0     C38044  -0.527   7.411   7.742 -0.1494  0.0503  0.1691
  289MOL0     C38045  -0.639   7.490   7.803 -0.0998  0.6909 -0.8875
  289MOL0     O38046  -0.770   7.440   7.811 -0.1968  0.4006 -0.2989
  289MOL0     C38047  -0.878   7.515   7.860 -0.4302  0.3018  0.3594
  289MOL0     C38048  -0.998   7.497   7.796  0.1180 -0.7300  0.0883
  289MOL0     C38049  -1.113   7.566   7.838 -0.0844 -0.4887  0.0767
  289MOL0     C38050  -1.108   7.651   7.951  0.4673 -0.2530 -0.8368
  289MOL0     O38051  -1.224   7.709   7.990  0.3911 -0.2295 -0.0483
  289MOL0     C38052  -1.244   7.781   8.116 -0.6253  0.2564 -0.1741
  289MOL0     C38053  -1.385   7.826   8.126  0.1791 -0.4861 -0.4473
  289MOL0     C38054  -1.405   7.896   8.262  0.7926  0.2755  0.0645
  289MOL0     C38055  -1.450   8.041   8.260  0.1529  0.5565 -1.0129
  289MOL0     C38056  -1.600   8.045   8.238 -0.1265 -0.0114 -0.0356
  289MOL0     C38057  -1.645   8.185   8.184 -0.3871  0.9400  0.4825
  289MOL0     C38058  -1.796   8.224   8.192 -0.9960  0.2186  0.4578
  289MOL0     C38059  -1.824   8.352   8.116  0.4119  0.2268 -0.0299
  289MOL0    Cl38060  -1.797   8.344   7.942  0.2268  0.0191  0.0177
  289MOL0     C38061  -0.984   7.669   8.011  0.1061  0.6187 -0.3687
  289MOL0     C38062  -0.878   7.606   7.963 -0.7725  0.5444 -0.4151
  289MOL0     O38063  -0.603   7.606   7.824 -0.2892 -0.1890 -1.3175
  289MOL0     C38064  -0.544   7.274   7.735  0.5777 -0.7820 -0.4400
  289MOL0     C38065  -0.447   7.195   7.684  0.3991  0.1968  0.5222
  289MOL0     N38066   0.372   7.058   7.468  0.6556  0.5404 -0.9039
  289MOL0     N38067   0.470   6.995   7.419 -0.5664 -0.1014 -0.6181
  289MOL0     C38068   1.065   5.993   6.810  0.7110 -0.5690 -0.0250
  289MOL0     C38069   1.192   5.944   6.819 -0.3181 -0.0870 -0.3295
  289MOL0     C38070   1.593   5.826   6.680 -0.1373 -0.6435  0.4604
  289MOL0     C38071   1.624   5.750   6.565 -0.0294 -0.1340  0.8347
  289MOL0     C38072   1.754   5.710   6.539 -0.5298  0.2152 -0.2262
  289MOL0     C38073   1.860   5.751   6.623 -0.0227  0.0272 -1.0447
  289MOL0     O38074   1.984   5.692   6.609 -0.6556  0.2348 -0.0189
  289MOL0     C38075   2.100   5.743   6.685 -0.6766 -0.4765  0.5262
  289MOL0     C38076   2.135   5.885   6.650  0.2579 -0.2564  0.2886
  289MOL0     C38077   2.264   5.943   6.697  0.4996  0.1285 -0.1391
  289MOL0     C38078   2.293   6.071   6.619 -0.6217 -0.0619  0.4164
  289MOL0     C38079   2.213   6.179   6.662  0.3716  0.2210 -0.4421
  289MOL0     C38080   2.144   6.279   6.683 -0.2098 -0.3550 -0.1785
  289MOL0     C38081   1.823   5.826   6.732 -0.1013  0.0903 -1.2177
  289MOL0     C38082   1.696   5.870   6.760  0.3560  0.6260 -0.2335
  289MOL0     H38083   1.361   6.223   6.740 -1.0704  0.6647 -2.2117
  289MOL0     H38084   1.129   6.306   6.735  0.1907  0.2456  1.6388
  289MOL0     H38085   0.895   6.335   6.892 -0.0952  1.3100 -0.9236
  289MOL0     H38086   0.812   6.183   6.945  1.0269  0.5357  0.0283
  289MOL0     H38087   0.640   6.221   6.772  0.1775  0.1366  1.2160
  289MOL0     H38088   0.708   6.378   6.725 -4.9975 -0.0459 -1.1506
  289MOL0     H38089   0.608   6.313   7.007 -0.6549  0.4184 -0.2775
  289MOL0     H38090   0.534   6.391   6.867 -0.2486 -0.9203 -0.2357
  289MOL0     H38091   0.779   6.475   7.034 -0.7842 -2.1941 -0.4112
  289MOL0     H38092   0.712   6.572   6.897 -1.7192  1.2581  0.1313
  289MOL0     H38093   0.570   6.512   7.172  3.9744 -2.1679  0.1950
  289MOL0     H38094   0.486   6.579   7.033 -0.5987 -0.9810  2.2273
  289MOL0     H38095   0.672   6.753   7.022 -0.7245  1.4055  0.5309
  289MOL0     H38096   0.727   6.698   7.177 -1.4552  2.3990  0.3166
  289MOL0     H38097   0.597   6.883   7.180  1.7213 -1.4789 -1.4738
  289MOL0     H38098   0.448   6.800   7.130  1.3468  0.1367 -1.4539
  289MOL0     H38099   0.610   6.738   7.381  0.5473  0.3459 -0.6101
  289MOL0     H38100   0.459   6.658   7.351  0.0913  0.8815  1.5490
  289MOL0     H38101   0.234   6.767   7.426 -1.4718  0.3556  2.8812
  289MOL0     H38102   0.124   7.110   7.569  1.4326  2.2803 -2.4321
  289MOL0     H38103   0.089   6.935   7.579  2.0243 -1.7650 -1.0113
  289MOL0     H38104   0.037   6.945   7.327 -1.1295 -0.0063 -0.0113
  289MOL0     H38105   0.076   7.115   7.321 -0.4048 -0.0646 -0.6998
  289MOL0     H38106  -0.169   7.045   7.324 -1.0660 -0.7050  0.1520
  289MOL0     H38107  -0.151   6.967   7.471 -0.3460 -0.9017 -0.7435
  289MOL0     H38108  -0.209   7.257   7.432  0.0474  1.2527  1.6876
  289MOL0     H38109  -0.066   7.226   7.535 -1.8574  1.0419  2.1718
  289MOL0     H38110  -0.216   7.441   7.597 -0.5701  0.3003 -2.2633
  289MOL0     H38111  -0.422   7.572   7.674  0.8858  1.0368 -2.2114
  289MOL0     H38112  -1.013   7.444   7.702 -0.5641  2.8571 -2.0160
  289MOL0     H38113  -1.206   7.558   7.783 -0.3507  3.8538 -0.4645
  289MOL0     H38114  -1.179   7.868   8.110  0.0586 -0.2605 -0.3324
  289MOL0     H38115  -1.223   7.711   8.198 -1.7302  0.6904  0.5010
  289MOL0     H38116  -1.454   7.743   8.111 -0.2352 -0.2618  0.2009
  289MOL0     H38117  -1.424   7.900   8.057 -1.3116  2.3027  3.1048
  289MOL0     H38118  -1.304   7.886   8.303  1.1281 -0.5963 -0.9440
  289MOL0     H38119  -1.467   7.826   8.318 -0.8505  1.0608 -0.7126
  289MOL0     H38120  -1.417   8.079   8.357 -0.5128 -1.4068  0.0500
  289MOL0     H38121  -1.401   8.100   8.183 -1.7047  3.3906 -0.1679
  289MOL0     H38122  -1.640   8.013   8.335  0.3283 -1.6439 -0.3501
  289MOL0     H38123  -1.629   7.967   8.167 -0.5584  0.0735  0.0478
  289MOL0     H38124  -1.607   8.179   8.081  2.4374 -1.7050  1.5217
  289MOL0     H38125  -1.595   8.271   8.228 -2.5953  2.2734  0.5626
  289MOL0     H38126  -1.853   8.141   8.150  0.1639 -0.4757  0.1984
  289MOL0     H38127  -1.816   8.236   8.298  5.6180 -2.0960  2.5066
  289MOL0     H38128  -1.762   8.433   8.157  1.1026  0.0203 -0.6393
  289MOL0     H38129  -1.931   8.361   8.135 -0.3199 -0.5516 -3.1293
  289MOL0     H38130  -0.961   7.737   8.092  1.9217  2.6223 -2.4201
  289MOL0     H38131  -0.783   7.624   8.012 -0.8414  1.2750 -0.5398
  289MOL0     H38132  -0.631   7.231   7.785  0.0379  1.4950  0.6936
  289MOL0     H38133  -0.473   7.090   7.673 -2.7730  0.8242  1.1116
  289MOL0     H38134   0.979   5.929   6.824 -0.3226  1.0965  1.8758
  289MOL0     H38135   1.207   5.848   6.868 -0.3292  0.1645  0.1767
  289MOL0     H38136   1.548   5.717   6.495  0.3795  2.0042 -0.7522
  289MOL0     H38137   1.775   5.638   6.460  0.2135  1.5105 -1.2394
  289MOL0     H38138   2.187   5.681   6.659 -1.0773 -1.1170  0.6991
  289MOL0     H38139   2.086   5.727   6.792 -1.8369 -1.4471  0.2378
  289MOL0     H38140   2.137   5.893   6.541  0.9816 -0.5708  0.2749
  289MOL0     H38141   2.055   5.956   6.676  2.8659  2.6860  0.9626
  289MOL0     H38142   2.337   5.866   6.671  0.6600  0.0283  0.5981
  289MOL0     H38143   2.271   5.950   6.806  0.8763 -3.0034  0.1191
  289MOL0     H38144   2.400   6.097   6.622 -0.8669  1.1735 -0.6623
  289MOL0     H38145   2.277   6.059   6.512  1.4425  4.2414 -0.5936
  289MOL0     H38146   2.063   6.349   6.691 -3.9936 -4.1215 -1.8635
  289MOL0     H38147   1.894   5.849   6.811 -3.3883 -0.0422  2.0581
  289MOL0     H38148   1.684   5.914   6.859 -0.3088  0.2663 -0.1477
  290MOL0     O38149   0.146   9.857   1.765 -0.0949  0.6926 -0.5864
  290MOL0     C38150   0.165   9.867   1.645  0.4051  0.0603 -0.3958
  290MOL0     O38151   0.079   9.818   1.547 -0.3706  0.7520 -0.4057
  290MOL0     C38152  -0.060   9.814   1.558 -0.4749 -0.5663 -0.5406
  290MOL0     C38153  -0.135   9.799   1.441  0.0848 -0.5458 -0.8344
  290MOL0     C38154  -0.274   9.815   1.436  1.0982  0.0287 -0.0382
  290MOL0     C38155  -0.337   9.832   1.555  0.5112  0.7493 -0.8612
  290MOL0     O38156  -0.476   9.817   1.557  0.2863 -0.3901  0.3762
  290MOL0     C38157  -0.538   9.747   1.669 -0.9855  0.1633 -0.5776
  290MOL0     C38158  -0.689   9.752   1.635  0.2808  0.2648 -0.0843
  290MOL0     C38159  -0.788   9.698   1.746 -0.7167  1.1185 -0.1306
  290MOL0     C38160  -0.941   9.722   1.732  0.7327 -0.5310 -0.2018
  290MOL0     C38161  -0.995   9.655   1.612 -0.1166  0.4929  0.2446
  290MOL0     C38162  -1.143   9.661   1.598 -0.4699  0.6715 -0.2049
  290MOL0     C38163  -1.194   9.556   1.490  0.4078  0.7358 -0.2526
  290MOL0     C38164  -1.164   9.606   1.354 -0.1277  0.1021  0.5448
  290MOL0     N38165  -1.167   9.491   1.259 -1.3280 -0.7435 -0.5211
  290MOL0     C38166  -1.075   9.397   1.255  0.5449  0.4667 -0.3521
  290MOL0     C38167  -1.104   9.333   1.144  0.9362  0.2857  0.2106
  290MOL0     C38168  -1.046   9.203   1.096  0.6836  1.2506 -0.2631
  290MOL0     C38169  -1.070   9.097   1.195 -0.0477  0.6783  0.0716
  290MOL0     C38170  -1.000   8.966   1.159 -0.1576 -0.0695  0.5743
  290MOL0     C38171  -1.052   8.846   1.237  0.1500  0.1554 -0.4161
  290MOL0     O38172  -0.990   8.848   1.366 -0.5953  1.3475  0.1731
  290MOL0     C38173  -1.054   8.799   1.472 -0.0307  0.9176 -1.2855
  290MOL0     C38174  -0.974   8.762   1.587  0.1876  0.3632  0.3878
  290MOL0     C38175  -1.029   8.711   1.705  0.1368 -0.5766 -0.7547
  290MOL0     C38176  -1.160   8.665   1.704 -0.8723  0.1619  0.4025
  290MOL0     C38177  -1.231   8.585   1.812 -0.4242  0.5668  0.2367
  290MOL0     O38178  -1.356   8.549   1.785  0.6736  0.1686  0.2627
  290MOL0     C38179  -1.434   8.473   1.863 -0.1733  1.2657 -0.3086
  290MOL0     C38180  -1.385   8.355   1.930 -0.0031 -0.6263  0.9013
  290MOL0     C38181  -1.469   8.268   2.002 -0.2287  0.4925  0.9345
  290MOL0     C38182  -1.598   8.307   2.020  0.9967 -0.8634  1.1605
  290MOL0     O38183  -1.690   8.252   2.102  0.5898  0.6680 -0.4198
  290MOL0     C38184  -1.643   8.138   2.179 -0.0433  0.2272  0.1517
  290MOL0     C38185  -1.741   8.074   2.285 -0.1554 -0.3982  0.2372
  290MOL0     C38186  -1.674   7.947   2.332 -0.6229  0.5655 -0.3050
  290MOL0     C38187  -1.736   7.881   2.459  0.7019  0.6782 -0.4331
  290MOL0     C38188  -1.739   7.731   2.474  0.3336 -0.6911 -0.1582
  290MOL0     C38189  -1.610   7.651   2.480 -0.6691 -0.3024  0.3201
  290MOL0     C38190  -1.616   7.512   2.525 -0.1478  0.8818 -0.5979
  290MOL0     C38191  -1.481   7.433   2.503 -0.0431 -0.5520  0.4669
  290MOL0    Cl38192  -1.441   7.414   2.329  0.0093 -0.2409  0.0762
  290MOL0     C38193  -1.645   8.425   1.961  0.3143  0.1112  0.3243
  290MOL0     C38194  -1.564   8.509   1.888 -1.1747 -0.7894 -0.4280
  290MOL0     O38195  -1.169   8.559   1.913 -0.3343  0.6277 -0.4078
  290MOL0     C38196  -1.236   8.703   1.591  0.1709 -0.0509 -0.1217
  290MOL0     C38197  -1.192   8.772   1.480 -0.6101  1.0977  0.7813
  290MOL0     N38198  -1.207   9.391   1.071  0.1402 -1.2429 -0.5353
  290MOL0     N38199  -1.237   9.491   1.144 -0.7451  0.2319  0.6980
  290MOL0     C38200  -0.263   9.862   1.673  0.2504 -1.2691  0.5619
  290MOL0     C38201  -0.126   9.859   1.673  0.0322 -0.0942 -0.4056
  290MOL0     C38202   0.291   9.924   1.599  0.0684 -0.2829  0.1326
  290MOL0     C38203   0.305   9.970   1.463  0.6354  0.4664 -0.1538
  290MOL0     C38204   0.428  10.013   1.413  0.1143 -0.1501 -0.4252
  290MOL0     C38205   0.542  10.015   1.493  0.1454  0.9489  0.0243
  290MOL0     O38206   0.649  10.072   1.428  0.4889  0.2494  0.0559
  290MOL0     C38207   0.772  10.073   1.497  0.3130  0.2135 -0.1710
  290MOL0     C38208   0.877  10.138   1.410 -0.2166 -0.1302  0.4765
  290MOL0     C38209   1.020  10.119   1.455 -0.3295  0.3771 -0.8423
  290MOL0     C38210   1.104  10.191   1.357  0.8497  0.3735  0.1743
  290MOL0     C38211   1.251  10.177   1.367 -0.7244  0.3395  0.5706
  290MOL0     C38212   1.373  10.164   1.379  1.2337 -0.2424 -0.7000
  290MOL0     C38213   0.534   9.981   1.628 -0.1648  0.5537 -0.4964
  290MOL0     C38214   0.407   9.943   1.683  0.1360 -0.5035 -0.3220
  290MOL0     H38215  -0.079   9.785   1.350 -0.4630  0.3090 -1.3186
  290MOL0     H38216  -0.321   9.802   1.338 -0.9429 -0.8483  0.9925
  290MOL0     H38217  -0.515   9.801   1.761 -3.7448 -2.7031  2.0427
  290MOL0     H38218  -0.512   9.641   1.672 -4.3738 -0.8162 -1.4177
  290MOL0     H38219  -0.709   9.715   1.534  1.2432  1.6365 -0.7996
  290MOL0     H38220  -0.710   9.859   1.627  1.3701  0.6064  1.1653
  290MOL0     H38221  -0.745   9.725   1.843  1.4262 -1.1898 -0.3321
  290MOL0     H38222  -0.782   9.588   1.746 -0.9954  0.9859  3.3760
  290MOL0     H38223  -0.982   9.672   1.820  0.2317  1.1625  0.5631
  290MOL0     H38224  -0.963   9.828   1.741 -0.2031 -0.8649  1.9615
  290MOL0     H38225  -0.964   9.552   1.595 -1.0781  0.3468 -0.7414
  290MOL0     H38226  -0.953   9.708   1.526 -2.0078  1.6450 -0.0445
  290MOL0     H38227  -1.166   9.765   1.573  3.5300  0.9459 -3.7840
  290MOL0     H38228  -1.188   9.637   1.695 -0.0622 -0.2624 -0.2376
  290MOL0     H38229  -1.150   9.456   1.501  0.0281  0.6199  0.2449
  290MOL0     H38230  -1.302   9.547   1.504  0.7695 -0.0009  2.9530
  290MOL0     H38231  -1.060   9.641   1.353  0.7226 -2.2782 -0.1280
  290MOL0     H38232  -1.233   9.686   1.323 -0.1749  0.3097  1.1545
  290MOL0     H38233  -0.995   9.366   1.321  0.2704 -0.1947 -0.3237
  290MOL0     H38234  -0.938   9.208   1.086  1.0605 -1.7158  1.3646
  290MOL0     H38235  -1.092   9.174   1.002  0.7639 -0.2577  0.1350
  290MOL0     H38236  -1.174   9.075   1.217  0.4286  0.2008  2.0171
  290MOL0     H38237  -1.031   9.130   1.292  0.3150 -1.7314  0.7944
  290MOL0     H38238  -1.019   8.939   1.055 -0.8837 -0.6945  0.8600
  290MOL0     H38239  -0.891   8.971   1.162 -0.0041 -2.4885  1.4378
  290MOL0     H38240  -1.039   8.749   1.188 -1.8197  0.6663 -2.1073
  290MOL0     H38241  -1.161   8.854   1.242  0.2285  0.6666  1.2176
  290MOL0     H38242  -0.868   8.786   1.577  0.3367 -0.7271 -1.2240
  290MOL0     H38243  -0.962   8.696   1.790  1.1454  1.3169 -1.1666
  290MOL0     H38244  -1.281   8.330   1.916 -0.0575 -0.3256 -0.1292
  290MOL0     H38245  -1.430   8.171   2.032  1.7757  0.6611 -0.8930
  290MOL0     H38246  -1.555   8.171   2.234 -0.4638  2.1027 -0.2223
  290MOL0     H38247  -1.614   8.058   2.110 -0.9519 -2.1283  2.3307
  290MOL0     H38248  -1.834   8.046   2.235 -1.2808  0.2433  1.9237
  290MOL0     H38249  -1.756   8.139   2.372  0.5082 -1.0447  0.8466
  290MOL0     H38250  -1.570   7.977   2.351  0.8454 -2.4977 -2.6908
  290MOL0     H38251  -1.663   7.870   2.256 -2.5022  0.1093 -0.1556
  290MOL0     H38252  -1.683   7.924   2.545  0.0980 -2.2313  1.5571
  290MOL0     H38253  -1.840   7.914   2.465  0.4263  0.0808 -1.6782
  290MOL0     H38254  -1.800   7.688   2.395 -2.0937 -1.1929  1.8545
  290MOL0     H38255  -1.786   7.713   2.571  1.6183 -0.5109  0.5166
  290MOL0     H38256  -1.544   7.698   2.554 -0.1039 -2.2025  1.0948
  290MOL0     H38257  -1.564   7.654   2.381 -3.1111 -0.6503 -0.8926
  290MOL0     H38258  -1.620   7.507   2.635 -1.0408 -3.2433 -0.6782
  290MOL0     H38259  -1.699   7.464   2.473 -0.7069  0.3264  0.7518
  290MOL0     H38260  -1.486   7.334   2.551  0.8629 -0.6420  0.3876
  290MOL0     H38261  -1.404   7.492   2.554 -0.2096  1.9802 -1.9968
  290MOL0     H38262  -1.750   8.451   1.972 -0.2397 -1.5308 -0.7724
  290MOL0     H38263  -1.612   8.602   1.860 -0.1270  0.9111  2.9118
  290MOL0     H38264  -1.328   8.649   1.572  0.6270 -1.0781  0.4872
  290MOL0     H38265  -1.258   8.784   1.395  0.2632 -3.1524 -0.7720
  290MOL0     H38266  -0.324   9.898   1.755 -0.3700  1.3402 -0.9325
  290MOL0     H38267  -0.081   9.901   1.762  1.1378  0.6470 -1.2832
  290MOL0     H38268   0.216   9.970   1.401  1.1475 -1.5594 -0.9341
  290MOL0     H38269   0.419  10.046   1.311 -1.1764 -0.0465 -0.2938
  290MOL0     H38270   0.802   9.976   1.537  0.4223  0.2130 -0.2514
  290MOL0     H38271   0.744  10.137   1.582 -0.6479  0.4265 -0.6376
  290MOL0     H38272   0.864  10.116   1.303  1.5788  2.3807 -0.3448
  290MOL0     H38273   0.848  10.243   1.409 -1.4614 -0.4142 -1.9206
  290MOL0     H38274   1.051  10.014   1.446 -0.7073  0.3440 -1.9121
  290MOL0     H38275   1.027  10.160   1.556 -2.2881  1.3422 -1.0590
  290MOL0     H38276   1.081  10.160   1.255 -2.3822 -1.8082  1.4368
  290MOL0     H38277   1.082  10.298   1.369 -2.5333 -0.5131  3.5577
  290MOL0     H38278   1.478  10.142   1.384  0.7757 -3.0470 -1.6088
  290MOL0     H38279   0.623   9.978   1.691  0.5907  2.1686 -1.4309
  290MOL0     H38280   0.403   9.909   1.786 -0.0281 -0.5824 -0.3545
  291MOL0     O38281   0.034   1.767   5.768 -0.3251  0.1050 -0.2654
  291MOL0     C38282   0.055   1.750   5.645 -0.2908  0.8776 -0.0719
  291MOL0     O38283  -0.040   1.716   5.545  0.1044 -0.3443 -0.2737
  291MOL0     C38284  -0.167   1.726   5.582 -0.6252  0.5248  1.1983
  291MOL0     C38285  -0.223   1.840   5.643  0.0517 -0.0621 -0.2193
  291MOL0     C38286  -0.350   1.836   5.693  0.1232  0.1684  0.5310
  291MOL0     C38287  -0.437   1.726   5.670 -0.3987  0.7267 -0.7112
  291MOL0     O38288  -0.567   1.727   5.724 -1.0026  0.0522  0.7046
  291MOL0     C38289  -0.678   1.742   5.621 -0.5789 -0.8727  0.0576
  291MOL0     C38290  -0.774   1.618   5.618  0.2424  0.4450  0.3676
  291MOL0     C38291  -0.814   1.560   5.762  0.0554 -0.1822 -0.7760
  291MOL0     C38292  -0.899   1.666   5.834 -0.4952  0.1844 -0.1174
  291MOL0     C38293  -0.951   1.611   5.968 -0.2527 -0.0054  0.1977
  291MOL0     C38294  -1.084   1.527   5.953 -0.4080 -0.1546  0.0567
  291MOL0     C38295  -1.122   1.475   6.088 -0.4297 -0.1029  0.2014
  291MOL0     C38296  -1.244   1.386   6.067  0.9365 -1.5893 -0.1075
  291MOL0     N38297  -1.210   1.255   6.027 -0.1098 -0.0374 -0.4978
  291MOL0     C38298  -1.233   1.142   6.100  0.7328 -0.4092  0.0859
  291MOL0     C38299  -1.222   1.037   6.011  0.5217  0.5952 -0.4397
  291MOL0     C38300  -1.230   0.897   6.050 -0.3984 -0.3637 -0.2887
  291MOL0     C38301  -1.329   0.818   5.960  0.0192  0.9175 -0.6326
  291MOL0     C38302  -1.469   0.842   6.022  0.1830 -0.1949 -0.5260
  291MOL0     C38303  -1.578   0.776   5.937  0.5482 -0.5609 -0.9541
  291MOL0     O38304  -1.699   0.852   5.942  0.1076  0.2686 -0.2177
  291MOL0     C38305  -1.808   0.811   5.872 -0.7253  0.6891  0.3134
  291MOL0     C38306  -1.800   0.699   5.781  0.4251  0.4890 -0.3625
  291MOL0     C38307  -1.917   0.658   5.723 -0.3727 -1.1329  0.8394
  291MOL0     C38308  -2.041   0.715   5.747 -0.0695  0.2379 -0.5501
  291MOL0     C38309  -2.160   0.670   5.675  0.2473 -0.0926 -0.6138
  291MOL0     O38310  -2.135   0.601   5.554  0.1642 -0.2261 -0.0224
  291MOL0     C38311  -2.244   0.554   5.493 -0.0290  0.8213  0.3822
  291MOL0     C38312  -2.249   0.564   5.346 -0.0494  0.3446 -0.4693
  291MOL0     C38313  -2.366   0.530   5.284 -0.7534  0.3261  0.3836
  291MOL0     C38314  -2.475   0.474   5.354 -0.4479 -0.1325 -0.1114
  291MOL0     O38315  -2.593   0.443   5.287  0.2392  0.5083 -0.1123
  291MOL0     C38316  -2.619   0.507   5.160  1.5473  0.5668 -0.2615
  291MOL0     C38317  -2.770   0.501   5.126  0.2638 -0.2609  0.0327
  291MOL0     C38318  -2.806   0.373   5.054  0.1825 -0.6946 -0.1420
  291MOL0     C38319  -2.953   0.357   5.020  0.4228 -1.0574  0.4419
  291MOL0     C38320  -2.972   0.216   4.962 -0.0680 -0.3637 -0.1389
  291MOL0     C38321  -3.118   0.196   4.904  1.5574  0.0634 -0.1019
  291MOL0     C38322  -3.152   0.052   4.865  0.1107 -0.9610  0.0720
  291MOL0     C38323  -3.119  -0.052   4.975 -0.0021 -0.1076 -1.4648
  291MOL0    Cl38324  -3.179  -0.005   5.142 -0.3097 -0.2248  0.0136
  291MOL0     C38325  -2.467   0.455   5.492 -0.4107 -0.7253 -0.0939
  291MOL0     C38326  -2.356   0.491   5.559 -1.3244 -0.2309 -0.2357
  291MOL0     O38327  -2.270   0.705   5.721 -0.2804 -0.7196 -0.0281
  291MOL0     C38328  -2.045   0.833   5.831  0.1646  0.2139 -0.4229
  291MOL0     C38329  -1.933   0.873   5.898 -0.0131 -0.1827  0.1719
  291MOL0     N38330  -1.171   1.086   5.891 -0.2135  0.2950 -1.2067
  291MOL0     N38331  -1.162   1.215   5.904 -0.5575  0.0187  0.2410
  291MOL0     C38332  -0.383   1.617   5.604  0.5712 -0.2569 -0.1521
  291MOL0     C38333  -0.253   1.622   5.555  0.2652  0.4819 -0.1339
  291MOL0     C38334   0.192   1.754   5.592 -0.1864  0.4725 -0.2646
  291MOL0     C38335   0.214   1.739   5.452 -0.3774  0.2260  0.2769
  291MOL0     C38336   0.347   1.754   5.405  0.1377  0.4699  1.0590
  291MOL0     C38337   0.452   1.781   5.495  0.3716  0.5325  0.5407
  291MOL0     O38338   0.585   1.803   5.456  0.4134  0.4275  0.1378
  291MOL0     C38339   0.632   1.796   5.324 -0.2558  0.4034  0.1549
  291MOL0     C38340   0.776   1.844   5.319  0.7911 -0.0350  0.5742
  291MOL0     C38341   0.823   1.836   5.176 -0.4873  0.0365  0.0523
  291MOL0     C38342   0.961   1.895   5.168 -0.0668  0.2486  0.4968
  291MOL0     C38343   1.063   1.800   5.207 -0.7228  0.7126  0.2514
  291MOL0     C38344   1.158   1.732   5.249  0.7396  0.5364 -0.3934
  291MOL0     C38345   0.426   1.775   5.631  0.5919 -0.1319  0.7812
  291MOL0     C38346   0.294   1.773   5.675  0.6425  0.1434 -0.3193
  291MOL0     H38347  -0.167   1.927   5.674 -1.6469  1.9429 -2.4835
  291MOL0     H38348  -0.394   1.917   5.751  0.4664  0.2697  0.6498
  291MOL0     H38349  -0.653   1.758   5.516 -2.8276  1.9968 -0.1627
  291MOL0     H38350  -0.730   1.835   5.645  1.3594 -0.1586  1.8036
  291MOL0     H38351  -0.718   1.543   5.562 -0.3633  1.6025 -1.9108
  291MOL0     H38352  -0.867   1.636   5.563  0.7169 -0.3045 -0.7160
  291MOL0     H38353  -0.729   1.537   5.827  1.4881  1.4135 -1.9917
  291MOL0     H38354  -0.877   1.472   5.746 -4.0990  1.5776  3.3079
  291MOL0     H38355  -0.838   1.755   5.852 -1.5886  0.6935  1.2772
  291MOL0     H38356  -0.983   1.686   5.767 -3.3096 -1.4140  2.6469
  291MOL0     H38357  -0.996   1.682   6.039 -1.3829 -0.7312  0.2264
  291MOL0     H38358  -0.880   1.549   6.024 -1.2639 -1.1271  0.2843
  291MOL0     H38359  -1.058   1.444   5.886  3.7170  2.2655 -1.7386
  291MOL0     H38360  -1.166   1.593   5.925  1.9897  3.2812  0.6176
  291MOL0     H38361  -1.044   1.416   6.137  0.5163  1.8658  1.1611
  291MOL0     H38362  -1.155   1.560   6.148  0.2492  1.0473 -1.0223
  291MOL0     H38363  -1.311   1.435   5.995 -1.8989 -2.3875  1.8169
  291MOL0     H38364  -1.297   1.396   6.162  0.7247 -0.0122 -0.3500
  291MOL0     H38365  -1.277   1.134   6.199  0.5915 -0.0127  0.0599
  291MOL0     H38366  -1.254   0.884   6.155  2.3413  0.2298  0.4954
  291MOL0     H38367  -1.127   0.859   6.044 -0.4798 -0.4976 -1.0019
  291MOL0     H38368  -1.297   0.714   5.953  0.4501  0.9954  0.0037
  291MOL0     H38369  -1.314   0.864   5.862  2.6925  0.7009 -0.4008
  291MOL0     H38370  -1.463   0.799   6.123  2.0478 -0.5567 -0.7698
  291MOL0     H38371  -1.492   0.949   6.018 -3.1984 -0.8318 -1.1283
  291MOL0     H38372  -1.602   0.679   5.980  0.2839  1.6041  4.6531
  291MOL0     H38373  -1.543   0.781   5.834  0.4810 -0.7774 -0.9859
  291MOL0     H38374  -1.707   0.643   5.768 -1.1338 -2.3338 -0.1973
  291MOL0     H38375  -1.905   0.580   5.648 -0.4427  0.4759 -0.9395
  291MOL0     H38376  -2.165   0.605   5.291  2.1930 -1.0228  1.7272
  291MOL0     H38377  -2.368   0.538   5.176 -0.1500 -1.4501  0.2233
  291MOL0     H38378  -2.560   0.461   5.080  1.3422  1.7305 -1.0982
  291MOL0     H38379  -2.591   0.612   5.169 -0.5482  1.2963 -1.5085
  291MOL0     H38380  -2.801   0.587   5.067 -3.1042 -1.5272 -0.2563
  291MOL0     H38381  -2.833   0.504   5.215 -0.9716  2.0254 -0.8437
  291MOL0     H38382  -2.784   0.296   5.128 -3.9353 -0.5219  1.5467
  291MOL0     H38383  -2.738   0.354   4.970  0.9295 -0.0783  0.3153
  291MOL0     H38384  -3.012   0.384   5.109  0.3398  1.0503 -0.1823
  291MOL0     H38385  -2.977   0.436   4.949  1.5216  1.6024  2.8122
  291MOL0     H38386  -2.942   0.144   5.038 -1.1757  0.0641  0.7245
  291MOL0     H38387  -2.897   0.197   4.884 -0.5440 -0.6049 -0.5440
  291MOL0     H38388  -3.130   0.266   4.820  1.4305  2.2606  1.6735
  291MOL0     H38389  -3.193   0.216   4.981 -1.6233 -1.9841 -2.4000
  291MOL0     H38390  -3.260   0.053   4.849 -0.2500  2.6292  1.7154
  291MOL0     H38391  -3.106   0.017   4.772  2.3322 -0.1561  0.8066
  291MOL0     H38392  -3.011  -0.070   4.981  0.3803  2.2012  0.0039
  291MOL0     H38393  -3.160  -0.150   4.951 -2.1913  0.6770 -1.1225
  291MOL0     H38394  -2.553   0.415   5.546  0.8257 -3.2893  0.1233
  291MOL0     H38395  -2.346   0.459   5.663 -1.0921 -1.7248 -0.6958
  291MOL0     H38396  -2.141   0.880   5.851  0.7052  0.3141  2.3447
  291MOL0     H38397  -1.936   0.942   5.982  2.1807 -0.5590  0.6141
  291MOL0     H38398  -0.446   1.529   5.602 -1.3107  1.0432 -0.3548
  291MOL0     H38399  -0.214   1.537   5.499  1.5231  2.0281 -1.7360
  291MOL0     H38400   0.130   1.728   5.385 -0.2069  3.3355 -0.5762
  291MOL0     H38401   0.363   1.735   5.299 -2.9833 -0.0012  0.5865
  291MOL0     H38402   0.581   1.863   5.254  0.3014 -1.7356 -2.4719
  291MOL0     H38403   0.627   1.694   5.283 -0.4193  0.3112  0.4063
  291MOL0     H38404   0.792   1.944   5.361  3.0418 -0.0035 -0.1980
  291MOL0     H38405   0.835   1.772   5.376  0.9042 -0.2225  0.2237
  291MOL0     H38406   0.759   1.905   5.120 -1.4011 -1.5941 -0.9989
  291MOL0     H38407   0.823   1.738   5.127 -3.2468 -0.7378  1.3728
  291MOL0     H38408   0.972   1.934   5.066 -0.8812  0.5983  0.5356
  291MOL0     H38409   0.974   1.990   5.221  3.7786 -0.7194  1.6174
  291MOL0     H38410   1.235   1.659   5.266 -1.9124 -2.0430  1.6201
  291MOL0     H38411   0.507   1.772   5.702 -1.1751 -1.5521  2.8749
  291MOL0     H38412   0.277   1.773   5.782  0.1629  0.3405 -0.3929
  292MOL0     O38413   4.719   2.082   9.921  0.6253 -0.5689  0.3590
  292MOL0     C38414   4.731   2.155  10.026  0.4617 -0.0499  0.3724
  292MOL0     O38415   4.635   2.178  10.124  0.9649  0.6988 -0.1531
  292MOL0     C38416   4.505   2.146  10.089 -0.1471 -0.2364  0.5282
  292MOL0     C38417   4.445   2.184   9.963 -0.1908 -0.8993  0.2500
  292MOL0     C38418   4.307   2.159   9.941 -0.5569 -0.6646  0.5239
  292MOL0     C38419   4.225   2.092  10.038 -0.6861  0.2569  0.6961
  292MOL0     O38420   4.089   2.059  10.033  0.6844  0.7231  0.0445
  292MOL0     C38421   4.024   2.112   9.917  0.1027  0.7728  0.2806
  292MOL0     C38422   3.875   2.074   9.899 -0.4806 -0.0941  0.0058
  292MOL0     C38423   3.798   2.118  10.028  0.3108  0.1518 -0.7948
  292MOL0     C38424   3.659   2.096  10.001  1.2361 -0.5030  0.1689
  292MOL0     C38425   3.572   2.103  10.118 -0.6720  0.3596  0.3739
  292MOL0     C38426   3.426   2.081  10.095  0.3194  0.0849 -0.3202
  292MOL0     C38427   3.362   2.035  10.221 -0.4218  0.0523  0.8047
  292MOL0     C38428   3.217   2.024  10.214  0.8528  0.0758  0.0962
  292MOL0     N38429   3.172   2.018  10.351  0.2154 -0.0576  0.1324
  292MOL0     C38430   3.080   2.097  10.418 -0.5326  0.6577 -0.7686
  292MOL0     C38431   3.077   2.034  10.547  0.5749 -0.7450  0.8136
  292MOL0     C38432   2.995   2.089  10.664 -0.1210 -0.7319  0.0099
  292MOL0     C38433   2.844   2.057  10.668  0.4889 -0.0365  0.1146
  292MOL0     C38434   2.833   1.906  10.715 -0.4081  0.4735  0.1586
  292MOL0     C38435   2.695   1.845  10.726 -0.0470  0.7926 -0.6577
  292MOL0     O38436   2.617   1.948  10.795  0.0022 -0.0777  0.3876
  292MOL0     C38437   2.479   1.935  10.803  0.2553  0.3992  0.5879
  292MOL0     C38438   2.409   1.824  10.756  0.2637  0.9607 -0.1373
  292MOL0     C38439   2.269   1.814  10.781 -0.1350 -0.1089 -0.5739
  292MOL0     C38440   2.201   1.933  10.826 -0.0990  0.4214 -0.7313
  292MOL0     C38441   2.058   1.934  10.832  0.2933 -0.1708 -0.8696
  292MOL0     O38442   2.000   2.059  10.809 -0.4237  0.5377  0.7766
  292MOL0     C38443   1.859   2.071  10.816  0.1930  0.3623  0.1149
  292MOL0     C38444   1.805   2.138  10.708 -0.9346  0.5110  0.3664
  292MOL0     C38445   1.675   2.187  10.706 -0.4367 -0.2770 -0.0162
  292MOL0     C38446   1.593   2.163  10.823 -0.3099  0.6512 -0.2387
  292MOL0     O38447   1.463   2.198  10.817 -0.0791 -0.6695  0.3427
  292MOL0     C38448   1.385   2.203  10.940  0.2727 -0.2967  0.0128
  292MOL0     C38449   1.290   2.077  10.951  0.2445 -0.6606  0.8312
  292MOL0     C38450   1.194   2.069  10.829  0.0847 -0.8948 -0.1066
  292MOL0     C38451   1.072   2.159  10.852  1.7654 -0.1112 -0.2605
  292MOL0     C38452   0.989   2.194  10.730  0.2681 -1.0333  0.2818
  292MOL0     C38453   0.946   2.071  10.650  0.6062  0.4402 -0.5597
  292MOL0     C38454   0.864   1.973  10.739  0.4051 -0.0593  0.0199
  292MOL0     C38455   0.719   2.032  10.765 -0.1662  0.2738  0.2253
  292MOL0    Cl38456   0.725   2.126  10.907 -0.1745  0.2503 -0.1012
  292MOL0     C38457   1.646   2.089  10.929 -0.8299 -0.7920  0.0252
  292MOL0     C38458   1.782   2.064  10.933  0.0290  0.7853  0.0652
  292MOL0     O38459   1.999   1.827  10.840  0.5158  0.2298 -0.3092
  292MOL0     C38460   2.276   2.042  10.868  0.3014 -0.2551  0.4779
  292MOL0     C38461   2.418   2.047  10.850 -0.7585  0.4341 -0.8388
  292MOL0     N38462   3.168   1.935  10.549 -0.1997  0.5564 -0.0639
  292MOL0     N38463   3.213   1.912  10.428 -0.1429 -0.0566 -0.6566
  292MOL0     C38464   4.291   2.048  10.153 -0.1581  0.1088 -0.1348
  292MOL0     C38465   4.423   2.075  10.181  0.5696  0.2525  0.3816
  292MOL0     C38466   4.872   2.197  10.056 -0.1303  0.2250 -0.2648
  292MOL0     C38467   4.988   2.160   9.981 -1.2134 -0.6577  0.9446
  292MOL0     C38468   5.122   2.194  10.015 -0.4970 -0.6021  0.4568
  292MOL0     C38469   5.132   2.278  10.131 -0.1063 -0.0718 -0.0497
  292MOL0     O38470   5.243   2.334  10.185 -0.8985 -0.7016 -0.3448
  292MOL0     C38471   5.365   2.262  10.177  0.6111 -0.1765  0.5781
  292MOL0     C38472   5.381   2.181  10.307 -1.0615  0.5913 -0.4695
  292MOL0     C38473   5.436   2.263  10.424  0.3349 -0.3943 -0.5331
  292MOL0     C38474   5.328   2.342  10.501  1.1659 -0.2121  0.2594
  292MOL0     C38475   5.390   2.450  10.575 -0.5491 -0.5547 -0.0948
  292MOL0     C38476   5.434   2.542  10.645 -0.2797  0.0798 -0.5428
  292MOL0     C38477   5.026   2.319  10.204  0.1965 -0.6239  0.0260
  292MOL0     C38478   4.895   2.284  10.165  0.4489  0.0164  0.1449
  292MOL0     H38479   4.497   2.250   9.894  1.2303 -1.4818  0.7321
  292MOL0     H38480   4.258   2.196   9.851 -4.1728  1.6001  3.1841
  292MOL0     H38481   4.073   2.067   9.830  0.1577  3.0642 -0.9363
  292MOL0     H38482   4.042   2.219   9.910 -3.7142  1.4611 -1.0789
  292MOL0     H38483   3.868   1.968   9.877 -1.3568 -0.8369  3.2766
  292MOL0     H38484   3.828   2.129   9.817 -1.4527  2.3014  2.0091
  292MOL0     H38485   3.820   2.223  10.048 -2.0388  0.0988  3.1843
  292MOL0     H38486   3.826   2.057  10.115 -1.0542  2.2840  1.2652
  292MOL0     H38487   3.618   2.173   9.934  2.6249  0.9434  0.8957
  292MOL0     H38488   3.641   1.996   9.961  0.7501  0.0795 -1.1120
  292MOL0     H38489   3.584   2.190  10.184 -0.8374  0.9536 -0.3662
  292MOL0     H38490   3.599   2.015  10.178  0.6028  0.9389  0.6849
  292MOL0     H38491   3.420   2.003  10.018  0.7099 -2.3310  1.9607
  292MOL0     H38492   3.381   2.175  10.061 -0.1778 -0.1951 -0.4615
  292MOL0     H38493   3.410   1.943  10.259 -0.1668 -0.1507  0.0005
  292MOL0     H38494   3.392   2.111  10.294 -0.9180  0.0942  0.9702
  292MOL0     H38495   3.172   1.943  10.157 -2.6637  0.2891  2.3082
  292MOL0     H38496   3.183   2.119  10.172 -0.4031 -0.0012  0.8797
  292MOL0     H38497   3.034   2.190  10.387  0.1486  1.0309 -0.6799
  292MOL0     H38498   2.987   2.198  10.659 -1.0557 -0.8507 -1.8737
  292MOL0     H38499   3.046   2.060  10.757  1.6005  1.2886 -0.2435
  292MOL0     H38500   2.789   2.068  10.574  1.1567 -1.1231 -0.4282
  292MOL0     H38501   2.800   2.123  10.743  0.6915 -2.0470  2.1185
  292MOL0     H38502   2.873   1.842  10.636 -2.7505  2.6201 -3.0569
  292MOL0     H38503   2.881   1.878  10.809 -0.4489 -0.0178  0.0362
  292MOL0     H38504   2.678   1.757  10.789  1.1523  0.6981 -0.4380
  292MOL0     H38505   2.668   1.819  10.623 -0.3394  2.7576 -1.1060
  292MOL0     H38506   2.451   1.734  10.711 -3.5646  0.5099 -3.3911
  292MOL0     H38507   2.223   1.719  10.755  0.6539 -0.5017 -0.5872
  292MOL0     H38508   1.868   2.159  10.622 -0.4521  1.1319  0.8687
  292MOL0     H38509   1.632   2.229  10.616  1.9109 -0.6249 -1.3479
  292MOL0     H38510   1.321   2.292  10.946  2.3539  1.2942 -0.3025
  292MOL0     H38511   1.452   2.198  11.027  3.2334  0.1467 -2.1174
  292MOL0     H38512   1.230   2.093  11.041 -2.0177  0.6102 -0.8261
  292MOL0     H38513   1.343   1.982  10.971 -2.5889 -2.3018  1.0870
  292MOL0     H38514   1.158   1.966  10.819 -0.8490 -0.8918  2.5892
  292MOL0     H38515   1.248   2.093  10.736  1.6853  0.9213  1.2067
  292MOL0     H38516   1.005   2.138  10.936 -1.6177  0.8960 -2.5111
  292MOL0     H38517   1.113   2.255  10.885 -0.1856  0.7035 -0.0712
  292MOL0     H38518   1.055   2.248  10.661 -0.5919 -1.0296 -0.5686
  292MOL0     H38519   0.903   2.255  10.761 -0.2402 -1.5662 -0.0600
  292MOL0     H38520   1.037   2.027  10.609 -0.4208  0.0007 -2.4539
  292MOL0     H38521   0.883   2.101  10.566  0.1520  1.4244  0.1017
  292MOL0     H38522   0.862   1.880  10.681  1.7144  0.7633 -1.4400
  292MOL0     H38523   0.904   1.957  10.839 -1.9803 -1.5995  0.8131
  292MOL0     H38524   0.651   1.951  10.792 -3.0027  2.2752 -0.5060
  292MOL0     H38525   0.679   2.085  10.678 -0.5766 -0.7239 -0.2106
  292MOL0     H38526   1.590   2.059  11.017  1.2737  0.2915  1.8257
  292MOL0     H38527   1.821   2.028  11.028 -2.6288  0.7707  1.2226
  292MOL0     H38528   2.229   2.125  10.919 -1.8413 -2.1193  1.7396
  292MOL0     H38529   2.475   2.136  10.873  0.0792 -0.1766 -0.5142
  292MOL0     H38530   4.237   1.977  10.215 -2.0872 -2.0826 -3.9153
  292MOL0     H38531   4.476   2.038  10.268  1.3871  3.2485  1.2713
  292MOL0     H38532   4.976   2.101   9.891 -0.2160  0.4316  0.0645
  292MOL0     H38533   5.211   2.161   9.963  2.2066 -0.1055  4.3401
  292MOL0     H38534   5.447   2.332  10.159 -1.1828  1.7541 -0.5488
  292MOL0     H38535   5.349   2.193  10.093  0.8579 -1.5941  1.6496
  292MOL0     H38536   5.291   2.123  10.332  1.0806 -1.9024  2.1395
  292MOL0     H38537   5.455   2.103  10.286 -0.5103  0.0058  2.9713
  292MOL0     H38538   5.519   2.326  10.391 -0.2140  0.8828  0.4575
  292MOL0     H38539   5.477   2.187  10.491  0.4364 -0.0240 -0.1749
  292MOL0     H38540   5.251   2.372  10.430  0.9442  0.8114  0.9247
  292MOL0     H38541   5.281   2.277  10.576 -0.1801 -1.3217 -1.4723
  292MOL0     H38542   5.482   2.611  10.711 -1.9219  0.4658  0.2937
  292MOL0     H38543   5.051   2.370  10.296 -1.6751 -0.4647  0.4906
  292MOL0     H38544   4.811   2.316  10.226  1.1107 -0.6681  1.4544
  293MOL0     O38545   4.828   6.261   9.161 -0.1516  0.0652 -0.2866
  293MOL0     C38546   4.902   6.172   9.127 -0.1188 -0.7484  0.5928
  293MOL0     O38547   4.862   6.055   9.076 -0.2232 -0.5883  0.2384
  293MOL0     C38548   4.729   6.029   9.083 -0.9393  0.0605  0.4356
  293MOL0     C38549   4.670   6.039   9.211 -0.6057 -0.3334 -1.9085
  293MOL0     C38550   4.534   6.030   9.238  0.3456 -0.3294  0.3913
  293MOL0     C38551   4.452   5.995   9.127  0.1815 -0.4866 -0.1615
  293MOL0     O38552   4.320   5.970   9.145  0.5540  0.3485  0.5516
  293MOL0     C38553   4.283   5.831   9.164 -0.3064 -0.6067 -0.0638
  293MOL0     C38554   4.153   5.796   9.093 -0.5615  0.3899  0.6044
  293MOL0     C38555   4.156   5.802   8.943 -0.2480  0.5899  0.3053
  293MOL0     C38556   4.226   5.684   8.875 -1.0081  0.9420  0.5899
  293MOL0     C38557   4.214   5.671   8.725  0.0754  0.2163  0.0804
  293MOL0     C38558   4.257   5.529   8.681  0.5533 -0.4696  0.2495
  293MOL0     C38559   4.250   5.521   8.524  0.4748  0.6599  0.4066
  293MOL0     C38560   4.348   5.610   8.446 -0.5000 -0.8250  0.2362
  293MOL0     N38561   4.309   5.622   8.301  0.9056  0.2272 -0.3026
  293MOL0     C38562   4.340   5.507   8.229 -0.8759 -0.5662  0.0306
  293MOL0     C38563   4.280   5.534   8.111 -0.1618  0.3347 -0.0447
  293MOL0     C38564   4.291   5.441   7.994  0.0998  0.3716  0.6972
  293MOL0     C38565   4.150   5.392   7.953 -0.3418  0.3088  0.3052
  293MOL0     C38566   4.104   5.278   8.044  0.4726 -0.7971  0.4981
  293MOL0     C38567   3.968   5.230   8.008 -1.0491  0.4206 -0.1665
  293MOL0     O38568   3.936   5.111   8.090  0.0632 -0.5198  0.2982
  293MOL0     C38569   3.811   5.068   8.110  0.5221  1.0891  0.4430
  293MOL0     C38570   3.730   5.140   8.196 -0.1728 -0.4785 -0.5780
  293MOL0     C38571   3.600   5.098   8.226 -0.1409 -0.0910  0.7507
  293MOL0     C38572   3.547   4.978   8.155 -0.1902 -0.2108 -0.4359
  293MOL0     C38573   3.426   4.918   8.197 -0.1566  0.7347  0.9085
  293MOL0     O38574   3.404   4.783   8.178  0.4965 -0.6724 -0.4023
  293MOL0     C38575   3.276   4.737   8.202  1.1134 -0.6445 -0.0862
  293MOL0     C38576   3.161   4.778   8.141 -0.1074  0.0610 -0.6630
  293MOL0     C38577   3.034   4.714   8.163 -0.8923 -0.0882  0.3166
  293MOL0     C38578   3.031   4.601   8.240  0.4583 -0.1433  0.8891
  293MOL0     O38579   2.923   4.516   8.252 -1.1142  0.3910 -0.2430
  293MOL0     C38580   2.831   4.505   8.143 -0.9307  0.2920 -0.7986
  293MOL0     C38581   2.692   4.458   8.205 -0.0092 -0.0100  0.3805
  293MOL0     C38582   2.593   4.413   8.102 -0.5362 -0.1116  0.1290
  293MOL0     C38583   2.476   4.333   8.170  0.1307 -0.8088 -0.4927
  293MOL0     C38584   2.400   4.238   8.075  0.0225 -0.7421  0.0947
  293MOL0     C38585   2.318   4.133   8.139  0.0420 -0.2864  0.2742
  293MOL0     C38586   2.257   4.023   8.046  0.2841 -0.3759  0.3973
  293MOL0     C38587   2.145   3.944   8.121 -0.2036 -0.2357 -0.4377
  293MOL0    Cl38588   2.231   3.876   8.263  0.2471 -0.1417 -0.8063
  293MOL0     C38589   3.144   4.557   8.303 -1.0338 -0.6558  0.5751
  293MOL0     C38590   3.265   4.627   8.285 -0.0720 -0.7404  0.4292
  293MOL0     O38591   3.350   4.994   8.245 -0.0707 -0.1275  0.0131
  293MOL0     C38592   3.631   4.911   8.067  0.1975  0.0892  0.1275
  293MOL0     C38593   3.764   4.952   8.051 -0.6589 -0.4397 -0.7258
  293MOL0     N38594   4.212   5.656   8.110 -1.0341 -0.3478 -0.0647
  293MOL0     N38595   4.220   5.700   8.235  0.4214  1.3818  0.3118
  293MOL0     C38596   4.513   5.970   8.996 -0.0399 -0.7286 -0.0414
  293MOL0     C38597   4.650   5.988   8.980 -0.0041  0.7408  0.7740
  293MOL0     C38598   5.047   6.182   9.161 -0.1000 -1.1573 -0.6816
  293MOL0     C38599   5.142   6.115   9.084 -0.1589 -0.0091  0.0375
  293MOL0     C38600   5.272   6.102   9.119  0.1548 -0.1866  0.2550
  293MOL0     C38601   5.321   6.182   9.224 -0.4613  0.6072 -0.6024
  293MOL0     O38602   5.449   6.187   9.275  0.0286 -0.3073 -0.7093
  293MOL0     C38603   5.535   6.087   9.231  0.7290 -1.1670  0.9104
  293MOL0     C38604   5.669   6.112   9.289  0.2016  0.3473  1.3900
  293MOL0     C38605   5.749   6.221   9.219 -0.1678  0.4904  0.5344
  293MOL0     C38606   5.864   6.277   9.301 -0.7759  0.1137 -0.0154
  293MOL0     C38607   5.802   6.382   9.383 -0.2713 -0.5187  0.2612
  293MOL0     C38608   5.763   6.473   9.456 -0.1382  0.0595 -0.1144
  293MOL0     C38609   5.235   6.272   9.285 -0.1867  0.1276  0.1998
  293MOL0     C38610   5.096   6.268   9.261  0.4854 -1.0599 -0.4278
  293MOL0     H38611   4.737   6.062   9.293 -2.9213  0.7399 -0.1910
  293MOL0     H38612   4.505   6.030   9.342 -0.1144 -0.8739  0.2661
  293MOL0     H38613   4.274   5.819   9.272 -1.1809  1.7422  0.1797
  293MOL0     H38614   4.360   5.764   9.124  2.0817  3.0225 -2.1589
  293MOL0     H38615   4.071   5.862   9.124 -2.2799 -1.4952  0.2785
  293MOL0     H38616   4.123   5.698   9.133 -2.3002  0.2868 -0.8515
  293MOL0     H38617   4.202   5.897   8.916 -0.4192  0.4317 -0.5641
  293MOL0     H38618   4.050   5.807   8.917 -0.2117 -2.2327 -0.7473
  293MOL0     H38619   4.330   5.679   8.908 -0.8550 -0.6866 -0.0557
  293MOL0     H38620   4.178   5.597   8.920  0.2553  0.8159  1.7578
  293MOL0     H38621   4.279   5.752   8.691  2.8401 -1.2104  1.6374
  293MOL0     H38622   4.110   5.695   8.700 -0.4595 -0.9971  1.0489
  293MOL0     H38623   4.200   5.451   8.734  3.1320 -2.4843  0.2739
  293MOL0     H38624   4.359   5.513   8.716 -0.2357 -0.8404  2.5588
  293MOL0     H38625   4.283   5.422   8.491  2.3743  1.0514  1.0043
  293MOL0     H38626   4.149   5.528   8.483  0.1847 -2.8637  0.1932
  293MOL0     H38627   4.451   5.576   8.458 -0.9847 -3.0682 -1.4892
  293MOL0     H38628   4.352   5.713   8.484 -0.5262  0.0633 -2.0302
  293MOL0     H38629   4.395   5.418   8.256 -2.6844 -2.2654 -1.5817
  293MOL0     H38630   4.366   5.366   8.020  0.7655 -0.0365 -2.0461
  293MOL0     H38631   4.329   5.480   7.898 -0.5508  0.0488  0.3044
  293MOL0     H38632   4.175   5.347   7.856  3.3439 -0.0951  1.2546
  293MOL0     H38633   4.077   5.472   7.939 -0.9979 -0.2428  0.5179
  293MOL0     H38634   4.174   5.194   8.042  0.9147 -0.4673  1.5096
  293MOL0     H38635   4.101   5.312   8.148 -2.0920 -3.0490  1.2744
  293MOL0     H38636   3.967   5.199   7.903 -0.4504  2.9393 -0.9836
  293MOL0     H38637   3.889   5.303   8.028 -3.2557 -1.7113 -0.5977
  293MOL0     H38638   3.771   5.228   8.243 -1.4638  0.2393 -0.7584
  293MOL0     H38639   3.546   5.155   8.301  0.0753  1.8287 -0.4897
  293MOL0     H38640   3.156   4.862   8.073 -1.9421  0.6565  0.1397
  293MOL0     H38641   2.951   4.762   8.112 -1.3077 -0.5210  0.5771
  293MOL0     H38642   2.874   4.435   8.071 -0.7157  0.3447 -0.7234
  293MOL0     H38643   2.801   4.597   8.093  1.5031  1.2900 -0.5446
  293MOL0     H38644   2.658   4.543   8.264  0.8689  1.1153 -0.7006
  293MOL0     H38645   2.707   4.369   8.267  2.0554 -0.5035 -0.7286
  293MOL0     H38646   2.643   4.348   8.029 -0.2829  2.9866 -2.6430
  293MOL0     H38647   2.554   4.502   8.053 -0.3158  0.4965  1.0256
  293MOL0     H38648   2.519   4.269   8.248  1.3325 -0.7079 -1.0600
  293MOL0     H38649   2.409   4.402   8.223  2.5280  2.4523 -1.4138
  293MOL0     H38650   2.470   4.189   8.008  1.3947  1.4973 -0.2089
  293MOL0     H38651   2.332   4.306   8.022 -0.6982  0.4611  2.4265
  293MOL0     H38652   2.232   4.188   8.177  0.4745 -0.4485  1.5453
  293MOL0     H38653   2.369   4.080   8.221 -2.3422 -0.0108  2.0513
  293MOL0     H38654   2.214   4.078   7.962  1.7969  5.8238  3.1614
  293MOL0     H38655   2.336   3.956   8.011 -0.1088 -0.4500 -0.3863
  293MOL0     H38656   2.106   3.856   8.068 -0.8285 -1.1696  1.4615
  293MOL0     H38657   2.064   4.013   8.145 -0.0534  0.6940 -2.4047
  293MOL0     H38658   3.143   4.470   8.368 -1.7240  0.3727  1.9985
  293MOL0     H38659   3.356   4.579   8.320 -0.1776 -0.0890  1.6352
  293MOL0     H38660   3.584   4.826   8.018 -2.5755 -0.0597  2.7201
  293MOL0     H38661   3.823   4.890   7.984  1.8119  0.6888  0.2901
  293MOL0     H38662   4.451   5.944   8.911  0.4016 -0.1221 -0.5552
  293MOL0     H38663   4.692   5.974   8.880  0.2731  0.7907  0.8816
  293MOL0     H38664   5.102   6.057   9.002  0.7926  0.0677 -0.4938
  293MOL0     H38665   5.335   6.034   9.063  0.3204  0.0474  0.1581
  293MOL0     H38666   5.542   6.092   9.122 -2.7474  0.6204  0.6356
  293MOL0     H38667   5.500   5.989   9.263  0.1795 -1.3348 -0.1717
  293MOL0     H38668   5.651   6.138   9.393 -1.8384 -1.0417  1.4419
  293MOL0     H38669   5.719   6.014   9.284 -0.7889 -0.1210  0.0496
  293MOL0     H38670   5.677   6.298   9.191  2.2767  1.9877 -2.2035
  293MOL0     H38671   5.797   6.185   9.127  1.1617  1.6829  0.7259
  293MOL0     H38672   5.915   6.203   9.364 -2.4535 -1.4697 -0.4325
  293MOL0     H38673   5.942   6.322   9.238  1.3976  0.8619  2.9584
  293MOL0     H38674   5.724   6.552   9.517  0.8081  0.8771 -0.5319
  293MOL0     H38675   5.280   6.342   9.355  0.2079  1.6588 -1.4823
  293MOL0     H38676   5.032   6.334   9.319  1.9094 -1.9497  2.2901
  294MOL0     O38677   5.860   6.706   7.332 -0.0580  1.0453  0.8607
  294MOL0     C38678   5.935   6.798   7.356 -0.5966 -0.5429 -0.1491
  294MOL0     O38679   5.931   6.925   7.303 -0.3705 -0.2604  0.2053
  294MOL0     C38680   5.821   6.956   7.232 -0.1662 -0.7073  0.3341
  294MOL0     C38681   5.694   6.989   7.288 -0.0137 -0.3658 -0.2887
  294MOL0     C38682   5.584   7.024   7.205 -0.7259 -0.8639  0.1384
  294MOL0     C38683   5.599   7.020   7.067 -0.4987 -0.4707  0.6525
  294MOL0     O38684   5.499   7.048   6.978  0.3893  0.0369 -0.0144
  294MOL0     C38685   5.388   6.955   6.981 -0.2763  0.1576  0.7958
  294MOL0     C38686   5.282   6.997   7.083 -0.2822  0.3414  0.6761
  294MOL0     C38687   5.241   7.152   7.069 -0.2189  1.1816  0.8650
  294MOL0     C38688   5.126   7.195   7.155  0.8906  0.6149 -0.5073
  294MOL0     C38689   5.119   7.342   7.186 -0.5774  0.1344  0.0800
  294MOL0     C38690   5.002   7.368   7.272  0.6065  0.5425 -0.0964
  294MOL0     C38691   5.009   7.493   7.358  0.4611 -0.6700  0.4144
  294MOL0     C38692   4.966   7.624   7.276 -0.0658 -0.2350 -0.0132
  294MOL0     N38693   4.981   7.737   7.366  0.2971  0.8510 -0.4482
  294MOL0     C38694   4.907   7.766   7.473 -0.1086 -0.1303 -0.0917
  294MOL0     C38695   4.957   7.878   7.525  0.0710 -0.2863  0.2667
  294MOL0     C38696   4.927   7.943   7.656 -0.0001 -1.2830 -0.5580
  294MOL0     C38697   4.841   7.873   7.761 -0.1384  0.2341 -0.1408
  294MOL0     C38698   4.823   7.930   7.900 -1.0714  0.4048 -0.2265
  294MOL0     C38699   4.684   7.902   7.966  0.0301 -0.6052  0.0895
  294MOL0     O38700   4.573   7.959   7.892 -0.0584  0.7882  0.3135
  294MOL0     C38701   4.452   7.956   7.960  0.3020 -0.7587  0.5537
  294MOL0     C38702   4.345   8.007   7.885 -0.8311  0.1978  0.0410
  294MOL0     C38703   4.214   8.007   7.941 -0.0878 -0.7472  0.1326
  294MOL0     C38704   4.193   7.971   8.076  0.8066  0.0604  0.3688
  294MOL0     C38705   4.051   7.979   8.117  0.3238 -0.7094 -0.1358
  294MOL0     O38706   3.959   8.036   8.029 -0.1531 -0.3017  0.0479
  294MOL0     C38707   3.827   8.018   8.058  0.0256  0.4877  0.6222
  294MOL0     C38708   3.744   7.932   7.983 -0.5912  0.1968  0.4299
  294MOL0     C38709   3.612   7.911   8.017  0.0135  0.3730 -0.1751
  294MOL0     C38710   3.548   7.983   8.120 -0.9306  0.5309  0.2531
  294MOL0     O38711   3.417   7.945   8.137  0.0028  1.1685  0.1691
  294MOL0     C38712   3.342   8.017   8.229  0.6862 -0.7421  0.1195
  294MOL0     C38713   3.194   7.979   8.209  0.4622 -0.0352 -0.0410
  294MOL0     C38714   3.078   8.073   8.254 -0.0947 -0.2695 -0.1412
  294MOL0     C38715   2.950   8.016   8.203  0.2853 -0.1503  0.1310
  294MOL0     C38716   2.825   8.099   8.236  0.0635  0.3675  0.2174
  294MOL0     C38717   2.838   8.240   8.172  0.7444  0.6911 -0.0309
  294MOL0     C38718   2.712   8.327   8.164  0.9755 -0.0210 -0.1151
  294MOL0     C38719   2.587   8.259   8.099  0.2682 -0.4786  0.3872
  294MOL0    Cl38720   2.450   8.375   8.101  0.2973  0.4371  0.5837
  294MOL0     C38721   3.627   8.073   8.189  0.6425 -0.8166  0.2009
  294MOL0     C38722   3.765   8.088   8.162  0.4679  0.5459 -0.3912
  294MOL0     O38723   4.027   7.921   8.215  0.0582  0.4737 -0.1740
  294MOL0     C38724   4.300   7.931   8.156  0.1676  0.5163  0.6919
  294MOL0     C38725   4.426   7.924   8.102 -0.1953 -0.3222 -0.1025
  294MOL0     N38726   5.064   7.911   7.445  0.1827  0.0046  0.5683
  294MOL0     N38727   5.072   7.822   7.348 -0.1360 -0.4999 -0.4126
  294MOL0     C38728   5.729   7.006   7.013  0.5564 -0.5768 -0.1364
  294MOL0     C38729   5.836   6.975   7.094 -0.4452  0.2767 -1.3926
  294MOL0     C38730   6.059   6.774   7.445  0.0569  0.2683 -1.2054
  294MOL0     C38731   6.178   6.849   7.427  0.5405 -0.5080  0.8435
  294MOL0     C38732   6.286   6.854   7.518  0.6882  0.0695 -0.5534
  294MOL0     C38733   6.281   6.778   7.640  0.8684  1.2856 -0.2027
  294MOL0     O38734   6.369   6.776   7.743  0.2142  0.3966 -0.2078
  294MOL0     C38735   6.477   6.866   7.748 -0.1607  0.0681  0.6239
  294MOL0     C38736   6.546   6.841   7.879 -0.3621 -0.9787 -0.7644
  294MOL0     C38737   6.642   6.956   7.928  0.2155 -0.8565  0.5972
  294MOL0     C38738   6.753   6.989   7.826  0.0381 -0.3672  0.4092
  294MOL0     C38739   6.836   6.872   7.802  0.5595  0.3419 -0.0638
  294MOL0     C38740   6.905   6.766   7.796  0.3024  0.0586 -0.4957
  294MOL0     C38741   6.164   6.695   7.652  0.8497  0.3659 -0.5415
  294MOL0     C38742   6.052   6.697   7.564  0.0580  0.1140  0.6625
  294MOL0     H38743   5.683   6.979   7.395  0.4558  1.1121 -0.0795
  294MOL0     H38744   5.490   7.056   7.251 -1.2805  0.2375 -1.6686
  294MOL0     H38745   5.421   6.854   7.007  1.0224  1.1081  3.1619
  294MOL0     H38746   5.333   6.964   6.887  0.3662 -2.1237  0.1485
  294MOL0     H38747   5.289   6.970   7.188 -3.1662 -1.2761  0.5543
  294MOL0     H38748   5.195   6.943   7.045 -1.1542  1.8900  0.3866
  294MOL0     H38749   5.215   7.153   6.962  0.2498 -2.3591  0.5736
  294MOL0     H38750   5.329   7.213   7.091  0.8353  0.6053 -1.4099
  294MOL0     H38751   5.034   7.161   7.107  1.1020 -0.3966 -0.2142
  294MOL0     H38752   5.132   7.143   7.251  0.9206  0.9627 -0.3203
  294MOL0     H38753   5.102   7.395   7.092  2.5155 -1.7572 -1.7257
  294MOL0     H38754   5.211   7.371   7.237 -0.6085 -0.6893  0.6212
  294MOL0     H38755   4.992   7.289   7.347 -0.0863 -0.1422 -0.8961
  294MOL0     H38756   4.910   7.360   7.213  0.2364  0.2777  0.5021
  294MOL0     H38757   4.933   7.484   7.436  1.0614  2.1521  1.4316
  294MOL0     H38758   5.107   7.509   7.403  1.0614  1.2671 -1.4132
  294MOL0     H38759   4.868   7.616   7.228  0.0959 -1.0875 -0.2103
  294MOL0     H38760   5.038   7.639   7.195 -1.0153 -3.2301 -1.5648
  294MOL0     H38761   4.825   7.705   7.510  0.6086 -2.7046 -2.3718
  294MOL0     H38762   4.885   8.043   7.643 -0.3308 -1.5319 -1.5431
  294MOL0     H38763   5.021   7.973   7.704 -1.6792  1.9780  1.0009
  294MOL0     H38764   4.893   7.777   7.767  0.3504  0.1096 -3.9492
  294MOL0     H38765   4.739   7.863   7.721 -0.5884  3.1878  0.0639
  294MOL0     H38766   4.904   7.901   7.967 -1.6797 -0.5495  0.1197
  294MOL0     H38767   4.840   8.038   7.904  2.0236 -0.0202  2.4219
  294MOL0     H38768   4.677   7.943   8.067 -3.2350 -0.4877 -0.0927
  294MOL0     H38769   4.681   7.794   7.985 -1.7707 -0.2793  1.9911
  294MOL0     H38770   4.360   8.046   7.785 -2.2180 -0.7533 -0.5737
  294MOL0     H38771   4.141   8.038   7.867  2.4178  0.0525 -2.1641
  294MOL0     H38772   3.803   7.891   7.902 -1.1331  4.0244 -2.1787
  294MOL0     H38773   3.552   7.840   7.960 -0.6813 -0.9000  1.9727
  294MOL0     H38774   3.344   8.123   8.201 -3.0075 -1.2033 -2.6640
  294MOL0     H38775   3.363   8.002   8.335 -1.1387  0.1400  0.6476
  294MOL0     H38776   3.173   7.888   8.265 -0.7355  1.2906  1.7657
  294MOL0     H38777   3.183   7.960   8.102 -0.3214  0.8647 -0.1428
  294MOL0     H38778   3.091   8.171   8.207 -1.5211 -1.7857 -4.0886
  294MOL0     H38779   3.077   8.071   8.363  2.3458 -2.4627 -0.0477
  294MOL0     H38780   2.957   8.007   8.094 -0.5692 -0.4843  0.1013
  294MOL0     H38781   2.946   7.916   8.245 -1.1271  0.4289  1.4291
  294MOL0     H38782   2.830   8.128   8.341 -1.7395  0.8378  0.2107
  294MOL0     H38783   2.734   8.039   8.225 -0.4424  0.7180  2.1053
  294MOL0     H38784   2.881   8.227   8.072 -1.4241 -2.5606 -0.6934
  294MOL0     H38785   2.912   8.292   8.235  0.7717 -0.4009  0.8650
  294MOL0     H38786   2.691   8.339   8.270  4.1093  0.6958  0.5315
  294MOL0     H38787   2.731   8.422   8.113 -2.2114 -0.2094 -1.9262
  294MOL0     H38788   2.558   8.162   8.139  1.0115 -2.5332 -3.5639
  294MOL0     H38789   2.607   8.236   7.994 -0.0248  3.5401 -0.7202
  294MOL0     H38790   3.578   8.144   8.255 -0.4345 -0.5473 -0.8544
  294MOL0     H38791   3.815   8.168   8.215  1.2252  0.1140 -0.4448
  294MOL0     H38792   4.284   7.906   8.260  0.7069 -0.4320  0.5657
  294MOL0     H38793   4.508   7.884   8.161  1.2502 -0.0498 -1.8589
  294MOL0     H38794   5.747   7.023   6.907  2.3572 -0.5773  0.1350
  294MOL0     H38795   5.930   6.958   7.042 -0.8744  1.4418 -2.6087
  294MOL0     H38796   6.191   6.909   7.338 -1.3560 -0.2648  0.6912
  294MOL0     H38797   6.370   6.916   7.488  2.3811 -1.0850  1.5536
  294MOL0     H38798   6.434   6.967   7.748 -0.5605 -0.0646 -1.2278
  294MOL0     H38799   6.540   6.864   7.658  0.4869  1.9914  0.9750
  294MOL0     H38800   6.478   6.832   7.965  1.7575 -0.2478  1.1035
  294MOL0     H38801   6.588   6.740   7.871 -1.5057 -1.8347  2.3293
  294MOL0     H38802   6.698   6.929   8.018  1.5814 -0.8359 -0.2116
  294MOL0     H38803   6.575   7.042   7.940  1.6115  0.5261 -0.8999
  294MOL0     H38804   6.712   7.023   7.731 -0.1861 -2.8972 -0.4713
  294MOL0     H38805   6.817   7.071   7.860  2.3101 -1.4656 -0.9636
  294MOL0     H38806   6.957   6.673   7.782  1.1946  0.0921  2.0770
  294MOL0     H38807   6.164   6.635   7.742 -1.2900 -0.5842 -1.1049
  294MOL0     H38808   5.966   6.633   7.583 -0.6343  1.0256  0.6992
  295MOL0     O38809   5.184  11.152   5.171 -0.5963  0.1688  0.9293
  295MOL0     C38810   5.268  11.093   5.097  0.3347  0.0860 -0.8003
  295MOL0     O38811   5.243  10.994   5.016 -0.0142  0.4289 -0.3248
  295MOL0     C38812   5.116  10.949   5.002  0.2622 -0.2179 -0.1311
  295MOL0     C38813   5.049  10.860   5.093  0.1918  0.1923  0.0168
  295MOL0     C38814   4.928  10.802   5.067 -0.7021  0.5182  0.2455
  295MOL0     C38815   4.846  10.830   4.955 -0.1232  0.4343  0.6427
  295MOL0     O38816   4.725  10.776   4.936  0.6066 -0.6507 -0.7054
  295MOL0     C38817   4.652  10.757   5.058  0.0928 -0.9230  0.5278
  295MOL0     C38818   4.502  10.766   5.029  0.0910  0.1469  0.6523
  295MOL0     C38819   4.453  10.910   5.004  0.1456 -0.2536  0.7102
  295MOL0     C38820   4.445  11.003   5.127  0.0920  0.3267 -0.0312
  295MOL0     C38821   4.328  10.977   5.215 -0.1545 -0.2655 -0.5842
  295MOL0     C38822   4.205  11.048   5.155 -0.4545  0.5285  0.1406
  295MOL0     C38823   4.075  11.002   5.219 -0.1100 -1.0029  0.3626
  295MOL0     C38824   3.960  11.069   5.139 -0.1527 -0.8237 -0.3726
  295MOL0     N38825   3.838  11.029   5.205 -0.6533 -0.3566 -0.2644
  295MOL0     C38826   3.820  10.912   5.266  0.9303  0.3212  0.3545
  295MOL0     C38827   3.687  10.893   5.261  0.0652 -0.1194  0.2693
  295MOL0     C38828   3.622  10.758   5.297 -0.3641 -0.5174  0.5836
  295MOL0     C38829   3.492  10.767   5.382  0.8126  0.0351 -0.3038
  295MOL0     C38830   3.369  10.783   5.288 -0.4209 -0.6551 -0.4419
  295MOL0     C38831   3.246  10.794   5.378  0.2505 -0.1094  0.3061
  295MOL0     O38832   3.205  10.666   5.421  0.0017  0.5052 -0.2177
  295MOL0     C38833   3.079  10.625   5.450 -0.6494 -0.2119  0.0171
  295MOL0     C38834   3.059  10.495   5.494  0.5552 -0.3339  0.3890
  295MOL0     C38835   2.935  10.441   5.526  0.2491  0.1919  0.2571
  295MOL0     C38836   2.815  10.516   5.508 -0.1840 -0.6211 -0.4020
  295MOL0     C38837   2.679  10.452   5.522 -0.1837 -0.3160 -0.1472
  295MOL0     O38838   2.676  10.315   5.509  0.3118  0.1883 -0.0489
  295MOL0     C38839   2.555  10.247   5.513 -0.2289  0.2048  0.0121
  295MOL0     C38840   2.444  10.280   5.436  0.3762  0.2068 -0.5609
  295MOL0     C38841   2.327  10.202   5.420 -0.1668 -0.6982 -0.7707
  295MOL0     C38842   2.322  10.082   5.487 -0.0357 -0.4174  0.1970
  295MOL0     O38843   2.211  10.003   5.478  0.1686  0.3854 -0.3924
  295MOL0     C38844   2.174   9.917   5.587 -0.2888 -0.9829 -0.6457
  295MOL0     C38845   2.022   9.882   5.569 -0.4214  0.2021  0.1747
  295MOL0     C38846   1.984   9.746   5.641 -0.1061  0.1910 -0.1208
  295MOL0     C38847   1.831   9.729   5.647 -0.8002  0.0095  0.3700
  295MOL0     C38848   1.800   9.592   5.684  0.1562  0.8337 -1.1684
  295MOL0     C38849   1.655   9.545   5.702 -0.2604  0.2478  0.6159
  295MOL0     C38850   1.629   9.402   5.741 -0.8631  0.3778  0.3637
  295MOL0     C38851   1.689   9.367   5.878  0.4160  0.6969  0.1718
  295MOL0    Cl38852   1.570   9.415   6.002 -0.8216  0.2827  0.5233
  295MOL0     C38853   2.426  10.043   5.563 -0.4874  1.3554  0.5312
  295MOL0     C38854   2.539  10.124   5.581 -0.5190 -0.5416  0.0293
  295MOL0     O38855   2.585  10.527   5.528  0.3090  0.4356 -0.8918
  295MOL0     C38856   2.835  10.648   5.465 -0.5328  0.4727  0.2431
  295MOL0     C38857   2.967  10.703   5.435  1.2227 -0.6012 -0.8089
  295MOL0     N38858   3.628  11.009   5.211  0.2182 -0.0807  0.4895
  295MOL0     N38859   3.719  11.093   5.182  0.2674  0.4519  0.1146
  295MOL0     C38860   4.909  10.913   4.856 -0.4845  0.6468 -0.3537
  295MOL0     C38861   5.041  10.963   4.876 -1.7507 -0.4045 -0.1605
  295MOL0     C38862   5.407  11.140   5.110 -0.5056 -0.4423  0.5441
  295MOL0     C38863   5.493  11.127   4.994  0.0931 -1.0378  0.2009
  295MOL0     C38864   5.622  11.173   5.009 -0.5549  0.0806  0.1209
  295MOL0     C38865   5.668  11.220   5.135  0.2511 -0.7286  0.3524
  295MOL0     O38866   5.796  11.256   5.158  0.2244  0.4742 -0.0687
  295MOL0     C38867   5.895  11.164   5.115  0.2315  0.0021 -0.9306
  295MOL0     C38868   6.022  11.189   5.191  0.7808 -0.1750 -0.3315
  295MOL0     C38869   6.118  11.065   5.184  0.0355  0.0485 -0.0820
  295MOL0     C38870   6.072  10.958   5.287 -0.6528 -0.4433  0.4101
  295MOL0     C38871   6.172  10.848   5.291 -0.3491 -0.7027  0.2417
  295MOL0     C38872   6.237  10.744   5.316  0.2964 -0.4227 -1.3503
  295MOL0     C38873   5.586  11.224   5.243 -0.1596  0.2362 -0.1778
  295MOL0     C38874   5.461  11.184   5.229  0.2355 -1.3194  0.6762
  295MOL0     H38875   5.092  10.838   5.190  2.6958 -2.3433 -1.4991
  295MOL0     H38876   4.883  10.731   5.136 -2.4094 -0.4482 -1.7474
  295MOL0     H38877   4.681  10.827   5.137  0.5157 -2.9273  2.2425
  295MOL0     H38878   4.659  10.651   5.087 -0.6538 -1.3845 -0.8656
  295MOL0     H38879   4.441  10.714   5.104 -0.2360 -1.3279 -0.5701
  295MOL0     H38880   4.489  10.710   4.936 -0.0492 -0.3314  0.9517
  295MOL0     H38881   4.365  10.907   4.938  2.9344  0.5090 -3.4206
  295MOL0     H38882   4.533  10.961   4.950  0.7733 -0.3827  1.5122
  295MOL0     H38883   4.533  11.002   5.191  0.4268 -1.4772 -0.4646
  295MOL0     H38884   4.443  11.106   5.089 -1.1262  1.2182  2.2348
  295MOL0     H38885   4.336  11.015   5.318 -1.0498  1.5162 -1.1248
  295MOL0     H38886   4.313  10.869   5.223  0.1397 -0.4422 -2.1700
  295MOL0     H38887   4.187  11.021   5.050 -0.6011 -1.3745  0.6256
  295MOL0     H38888   4.222  11.155   5.167  0.9147  0.3953 -0.3270
  295MOL0     H38889   4.066  10.893   5.211  0.0929 -1.0276  0.4614
  295MOL0     H38890   4.081  11.034   5.323  0.4590 -0.7002  0.2397
  295MOL0     H38891   3.942  11.035   5.037 -0.8668  2.2816 -1.3714
  295MOL0     H38892   3.973  11.177   5.134 -2.1809 -0.5576 -0.7965
  295MOL0     H38893   3.898  10.843   5.296 -1.1164 -2.0896  0.3686
  295MOL0     H38894   3.694  10.703   5.358  1.1973 -0.1959 -0.8858
  295MOL0     H38895   3.606  10.704   5.204  2.6318  1.6542 -1.3751
  295MOL0     H38896   3.512  10.839   5.462  2.4739 -0.9905  0.2431
  295MOL0     H38897   3.482  10.668   5.428  1.5793 -0.0327 -0.2684
  295MOL0     H38898   3.390  10.877   5.236 -0.9698  0.3181  1.0515
  295MOL0     H38899   3.356  10.699   5.220 -1.7291 -1.4632  0.7603
  295MOL0     H38900   3.170  10.858   5.333  0.1203 -0.3795  0.1367
  295MOL0     H38901   3.268  10.842   5.473 -1.0583 -1.0530  1.1304
  295MOL0     H38902   3.144  10.436   5.527 -0.3278 -0.1880  3.1737
  295MOL0     H38903   2.933  10.344   5.574 -2.1588 -0.6152 -1.3084
  295MOL0     H38904   2.449  10.381   5.395  0.8847  1.2531  1.8855
  295MOL0     H38905   2.239  10.230   5.363 -1.5011 -0.2600  1.4112
  295MOL0     H38906   2.184   9.955   5.689 -1.8531  0.9532 -1.1614
  295MOL0     H38907   2.239   9.828   5.588  0.0012 -0.7723 -0.6972
  295MOL0     H38908   1.993   9.881   5.463  2.5824  0.0034 -0.7407
  295MOL0     H38909   1.958   9.964   5.603 -1.9507 -1.1303  0.6786
  295MOL0     H38910   2.014   9.757   5.746 -1.2914 -0.7618  0.3403
  295MOL0     H38911   2.046   9.669   5.594  1.5245  2.0766 -1.2240
  295MOL0     H38912   1.803   9.808   5.717 -1.2378  0.7979 -0.6722
  295MOL0     H38913   1.788   9.745   5.547 -2.8293 -2.0649  0.8322
  295MOL0     H38914   1.855   9.583   5.778 -0.6385  2.1325 -0.5444
  295MOL0     H38915   1.859   9.528   5.618 -1.3970 -1.3937 -0.5232
  295MOL0     H38916   1.595   9.563   5.612  2.3967  0.6770 -1.1720
  295MOL0     H38917   1.612   9.604   5.783 -2.0581  0.5771 -0.4984
  295MOL0     H38918   1.522   9.377   5.746 -0.8121 -0.1956 -0.9243
  295MOL0     H38919   1.669   9.343   5.658 -2.0622 -2.6131  1.7661
  295MOL0     H38920   1.791   9.406   5.891  1.6913 -1.5506 -2.1421
  295MOL0     H38921   1.707   9.259   5.887  1.5304  0.9514  1.3078
  295MOL0     H38922   2.433   9.947   5.613  1.9317  0.4850 -1.3001
  295MOL0     H38923   2.632  10.091   5.626  0.8050  1.9173 -0.7181
  295MOL0     H38924   2.744  10.705   5.446 -0.5955  0.1330 -0.5277
  295MOL0     H38925   2.975  10.801   5.388 -1.7412 -0.3854 -1.0531
  295MOL0     H38926   4.855  10.938   4.765 -0.4948 -0.0481 -0.5435
  295MOL0     H38927   5.100  11.011   4.799 -1.7019 -0.8181 -0.3819
  295MOL0     H38928   5.467  11.078   4.901 -1.0379  0.9198 -0.5762
  295MOL0     H38929   5.705  11.177   4.939  0.7210  1.1965  1.6314
  295MOL0     H38930   5.920  11.162   5.008 -2.1644 -0.9496 -1.5595
  295MOL0     H38931   5.852  11.064   5.124  0.8623 -0.1833  0.1578
  295MOL0     H38932   6.050  11.286   5.148  2.3889 -1.9186 -3.5800
  295MOL0     H38933   5.991  11.207   5.294  0.3423  2.1188 -0.8194
  295MOL0     H38934   6.222  11.095   5.202  0.8607 -0.6925 -3.0784
  295MOL0     H38935   6.123  11.014   5.088 -1.8338 -0.7806  0.2054
  295MOL0     H38936   6.081  11.006   5.385 -0.8445  0.2898  0.0759
  295MOL0     H38937   5.971  10.919   5.270 -0.4764 -0.7225 -0.0220
  295MOL0     H38938   6.269  10.650   5.356 -0.9844 -0.2984  0.0708
  295MOL0     H38939   5.618  11.247   5.344 -1.2289  1.8554 -0.1784
  295MOL0     H38940   5.394  11.172   5.314  0.6624  1.3462  1.4659
  296MOL0     O38941   4.475   5.894   0.162 -0.3686  0.8997  0.0693
  296MOL0     C38942   4.502   5.936   0.278  0.9146  0.8924 -0.0355
  296MOL0     O38943   4.410   5.948   0.375  0.7852  0.7659 -0.5189
  296MOL0     C38944   4.276   5.932   0.349 -0.7431 -0.1287  0.3864
  296MOL0     C38945   4.218   5.978   0.228 -0.9406 -0.1440  0.2999
  296MOL0     C38946   4.077   5.941   0.195 -0.5132 -0.5860 -0.1374
  296MOL0     C38947   4.004   5.878   0.296  0.0108 -0.3559  0.7217
  296MOL0     O38948   3.877   5.828   0.273  0.0510  0.1275 -0.3225
  296MOL0     C38949   3.867   5.707   0.193  0.0043  0.2879 -0.1224
  296MOL0     C38950   3.719   5.676   0.165  0.6586  0.6215 -0.1623
  296MOL0     C38951   3.627   5.761   0.088  0.1768  0.3807  0.5930
  296MOL0     C38952   3.672   5.772  -0.061  0.2404 -0.6478  0.7422
  296MOL0     C38953   3.560   5.830  -0.151  0.4372  0.7211  1.1360
  296MOL0     C38954   3.605   5.872  -0.294  0.6018  0.5659 -0.5618
  296MOL0     C38955   3.482   5.929  -0.364  0.3876 -0.3626  1.0916
  296MOL0     C38956   3.362   5.836  -0.388 -0.2428 -0.2280  0.8502
  296MOL0     N38957   3.257   5.902  -0.471  0.0348  0.3629 -0.1166
  296MOL0     C38958   3.161   5.833  -0.545 -0.0695  0.5596  0.0108
  296MOL0     C38959   3.110   5.929  -0.628 -0.0949 -0.3483  0.7789
  296MOL0     C38960   3.005   5.909  -0.740 -0.0048  0.0435  0.2432
  296MOL0     C38961   3.023   6.017  -0.852  0.9666 -0.2581 -0.0022
  296MOL0     C38962   2.927   5.992  -0.966 -0.3328  0.1403  0.9715
  296MOL0     C38963   2.787   6.042  -0.938  0.4030 -0.7809  0.7764
  296MOL0     O38964   2.696   6.001  -1.044  0.4021  0.2746  0.7403
  296MOL0     C38965   2.562   5.999  -1.002  0.0056 -0.1338 -0.8218
  296MOL0     C38966   2.470   5.914  -1.065 -0.0214 -0.3439 -0.1546
  296MOL0     C38967   2.347   5.887  -1.007 -0.3234 -0.0587  0.5968
  296MOL0     C38968   2.304   5.957  -0.895 -0.8101 -0.1215 -0.7884
  296MOL0     C38969   2.163   5.958  -0.854 -0.8114 -0.9843  0.5099
  296MOL0     O38970   2.067   5.897  -0.938 -0.2946  0.3158 -1.0033
  296MOL0     C38971   1.940   5.914  -0.895 -0.1360  0.3529 -0.3953
  296MOL0     C38972   1.891   5.844  -0.789  0.0743 -1.0613  0.2865
  296MOL0     C38973   1.750   5.851  -0.756  0.5486 -0.3056  1.3363
  296MOL0     C38974   1.660   5.928  -0.839 -1.2821 -1.2775 -0.0954
  296MOL0     O38975   1.525   5.929  -0.836 -0.0594  0.4585 -0.0421
  296MOL0     C38976   1.471   5.824  -0.761 -0.2038  0.6458 -0.8843
  296MOL0     C38977   1.317   5.810  -0.779 -0.3054  0.5263 -0.4083
  296MOL0     C38978   1.258   5.683  -0.714 -0.8966  0.6807 -0.2761
  296MOL0     C38979   1.123   5.710  -0.670  0.1343  0.4532 -0.2455
  296MOL0     C38980   1.044   5.581  -0.631  0.1888  0.3290 -0.1323
  296MOL0     C38981   0.904   5.615  -0.567  0.9119 -0.3786 -0.3849
  296MOL0     C38982   0.808   5.493  -0.551 -0.1139  0.1044 -0.1450
  296MOL0     C38983   0.668   5.512  -0.492  0.1778  0.0539 -0.2808
  296MOL0    Cl38984   0.595   5.613  -0.619 -0.6940  0.0374 -0.0416
  296MOL0     C38985   1.724   5.991  -0.947  0.3585  0.0822  0.2347
  296MOL0     C38986   1.855   5.977  -0.978  0.9314  0.5852 -0.5128
  296MOL0     O38987   2.137   6.000  -0.741  0.0745  0.2981 -0.5112
  296MOL0     C38988   2.394   6.050  -0.836  0.4291  0.6294 -0.4247
  296MOL0     C38989   2.520   6.062  -0.878  0.6528  0.1369 -0.6045
  296MOL0     N38990   3.161   6.050  -0.590  0.1552 -0.7357 -0.2190
  296MOL0     N38991   3.243   6.034  -0.491  0.7471 -1.0853  0.5726
  296MOL0     C38992   4.069   5.846   0.417 -0.7883  0.4333  0.6457
  296MOL0     C38993   4.203   5.872   0.448 -0.1757 -0.7277 -0.7628
  296MOL0     C38994   4.635   5.975   0.315  0.2694 -0.1368  0.3573
  296MOL0     C38995   4.675   6.006   0.444  0.4470 -1.1974 -0.0782
  296MOL0     C38996   4.807   6.037   0.477  0.1997  1.3961 -0.6311
  296MOL0     C38997   4.913   6.037   0.387  0.0952 -0.9900 -0.2586
  296MOL0     O38998   5.042   6.081   0.432  0.1871 -0.3010 -0.1908
  296MOL0     C38999   5.153   6.006   0.375 -0.0624  0.0155  0.0920
  296MOL0     C39000   5.152   5.867   0.429 -0.5891  0.1572 -0.6678
  296MOL0     C39001   5.175   5.856   0.579  0.0569  0.5932 -1.1434
  296MOL0     C39002   5.318   5.872   0.631  0.1047 -0.0812 -0.0196
  296MOL0     C39003   5.315   5.889   0.774 -0.4892 -0.3994 -0.1895
  296MOL0     C39004   5.320   5.903   0.899 -0.2090  0.6803 -0.1809
  296MOL0     C39005   4.877   6.004   0.256  0.1270  0.0775  0.3997
  296MOL0     C39006   4.739   5.973   0.214  0.5655 -1.3072 -0.0825
  296MOL0     H39007   4.288   6.038   0.170  1.1159 -1.1367  1.6085
  296MOL0     H39008   4.035   5.964   0.098 -3.7836  2.9244  1.8256
  296MOL0     H39009   3.912   5.622   0.246  0.0306  0.9648  0.9540
  296MOL0     H39010   3.928   5.722   0.104  0.4878  0.6645  0.2693
  296MOL0     H39011   3.664   5.643   0.254 -0.6910 -2.7676 -2.0491
  296MOL0     H39012   3.728   5.589   0.099  1.1564 -0.4278  1.2357
  296MOL0     H39013   3.620   5.860   0.135  0.5522  0.2286  0.9702
  296MOL0     H39014   3.525   5.722   0.080  0.8800 -1.3935 -0.3105
  296MOL0     H39015   3.754   5.845  -0.060 -1.2135  1.0500  1.7396
  296MOL0     H39016   3.699   5.674  -0.102 -1.8618 -1.4931  1.2297
  296MOL0     H39017   3.504   5.911  -0.104 -1.5240 -0.3438  0.7923
  296MOL0     H39018   3.493   5.743  -0.157 -0.6652  1.5414  1.3366
  296MOL0     H39019   3.626   5.783  -0.353 -1.0841  0.6955 -1.4080
  296MOL0     H39020   3.681   5.950  -0.284 -1.3869  2.8430 -1.9620
  296MOL0     H39021   3.457   6.013  -0.298 -0.2661  0.9139 -0.7198
  296MOL0     H39022   3.513   5.970  -0.460 -3.2682  0.9343  0.2973
  296MOL0     H39023   3.320   5.801  -0.293  1.1676 -1.2890  1.1221
  296MOL0     H39024   3.402   5.751  -0.446  0.8674  1.8579 -1.6483
  296MOL0     H39025   3.150   5.726  -0.558 -0.5980  0.7045 -0.7892
  296MOL0     H39026   2.906   5.915  -0.695  0.2882 -2.0479  1.2707
  296MOL0     H39027   3.014   5.807  -0.778 -2.5368 -1.1172  2.4352
  296MOL0     H39028   3.124   6.008  -0.892  0.4790  1.0790 -1.6770
  296MOL0     H39029   3.002   6.119  -0.818 -1.2744  0.1156 -2.2123
  296MOL0     H39030   2.960   6.040  -1.059  0.5580 -0.3857  1.0034
  296MOL0     H39031   2.923   5.883  -0.980  2.9231  0.0696 -0.0529
  296MOL0     H39032   2.781   6.151  -0.934 -4.4807 -0.6638 -1.8566
  296MOL0     H39033   2.765   6.002  -0.839  0.1168  0.1720  1.1066
  296MOL0     H39034   2.515   5.854  -1.144 -0.4343  0.7034 -1.2145
  296MOL0     H39035   2.277   5.815  -1.048 -0.2018 -0.1108  0.4801
  296MOL0     H39036   1.957   5.795  -0.718  0.0532 -2.6906 -0.7596
  296MOL0     H39037   1.699   5.800  -0.675 -2.5901  1.7818  0.8396
  296MOL0     H39038   1.476   5.842  -0.654 -1.8200 -1.6713 -0.3306
  296MOL0     H39039   1.522   5.730  -0.784  0.8060  1.1164 -0.6043
  296MOL0     H39040   1.286   5.808  -0.884 -1.3639  0.5359 -0.1030
  296MOL0     H39041   1.280   5.896  -0.723 -0.1320 -0.6853  1.6779
  296MOL0     H39042   1.325   5.651  -0.633  1.2672 -0.7970 -2.5016
  296MOL0     H39043   1.260   5.606  -0.792  1.2982 -0.0491  0.4102
  296MOL0     H39044   1.129   5.760  -0.572 -1.6660 -1.5960  1.0052
  296MOL0     H39045   1.067   5.773  -0.740 -0.5353 -0.4815 -0.5751
  296MOL0     H39046   1.110   5.517  -0.572  1.5596  0.9395 -0.9566
  296MOL0     H39047   1.027   5.519  -0.719 -0.3810 -0.9498  0.8453
  296MOL0     H39048   0.846   5.693  -0.618 -2.2455  0.9018  4.3970
  296MOL0     H39049   0.932   5.653  -0.468 -0.1466 -1.9376  0.5597
  296MOL0     H39050   0.804   5.433  -0.642 -2.6034 -0.0335 -0.0191
  296MOL0     H39051   0.861   5.428  -0.481 -0.1437 -0.6843 -0.8383
  296MOL0     H39052   0.687   5.580  -0.408 -0.4191  2.3947 -1.9364
  296MOL0     H39053   0.622   5.415  -0.474  0.7876 -0.4320 -1.2664
  296MOL0     H39054   1.663   6.053  -1.013  0.8016  2.3702  1.8667
  296MOL0     H39055   1.885   6.020  -1.073 -1.5335  3.0438 -0.3029
  296MOL0     H39056   2.367   6.115  -0.753  0.7045  0.7888 -0.4590
  296MOL0     H39057   2.583   6.134  -0.828 -0.9821  1.4093 -0.2886
  296MOL0     H39058   4.000   5.804   0.490 -0.5255  0.4090  0.8777
  296MOL0     H39059   4.248   5.839   0.541 -2.3207 -1.8411 -0.0561
  296MOL0     H39060   4.599   6.011   0.522  3.4051 -1.2180  3.0562
  296MOL0     H39061   4.840   6.053   0.579 -0.3707  0.0351 -0.2202
  296MOL0     H39062   5.246   6.055   0.405 -0.2779  0.5430 -0.0850
  296MOL0     H39063   5.145   5.997   0.267 -1.0384  0.3933  0.1213
  296MOL0     H39064   5.058   5.818   0.403  0.5134 -2.4253 -0.1767
  296MOL0     H39065   5.236   5.819   0.377  0.6499  0.3301  1.0710
  296MOL0     H39066   5.142   5.754   0.602  2.3531 -0.1697 -1.0133
  296MOL0     H39067   5.111   5.925   0.634  0.7726 -0.3293  0.9312
  296MOL0     H39068   5.373   5.782   0.601 -1.2985 -0.8441 -0.3817
  296MOL0     H39069   5.367   5.961   0.590  0.2006  0.3180  0.9445
  296MOL0     H39070   5.326   5.919   1.005 -1.0598  2.3763 -0.3496
  296MOL0     H39071   4.959   6.001   0.185  2.3705 -2.5671  2.8756
  296MOL0     H39072   4.709   5.966   0.110  0.0114 -1.1553  0.0653
  297MOL0     O39073   6.547   1.507   8.640  0.6485 -0.4276  0.4857
  297MOL0     C39074   6.598   1.447   8.548 -0.0818 -0.2101  0.0520
  297MOL0     O39075   6.544   1.345   8.479  0.1202 -0.0780  0.6781
  297MOL0     C39076   6.416   1.299   8.495 -0.1463  0.3252 -0.4535
  297MOL0     C39077   6.389   1.167   8.467 -0.3985  0.5175 -0.0566
  297MOL0     C39078   6.260   1.119   8.477 -0.0311  0.6194  0.6578
  297MOL0     C39079   6.153   1.197   8.530 -0.0979 -0.3073 -0.5411
  297MOL0     O39080   6.024   1.159   8.554  0.7260 -0.2900  0.7378
  297MOL0     C39081   5.979   1.036   8.495 -0.2175 -0.5152 -0.5845
  297MOL0     C39082   5.825   1.014   8.522 -0.0848 -0.9231 -0.6320
  297MOL0     C39083   5.733   1.128   8.472 -0.4622 -0.2021  0.1003
  297MOL0     C39084   5.592   1.078   8.448 -0.4597  0.1136 -0.3551
  297MOL0     C39085   5.501   1.086   8.576  0.2364  0.1908 -0.8899
  297MOL0     C39086   5.474   1.228   8.622  0.2889  0.0617  0.4470
  297MOL0     C39087   5.354   1.225   8.711  0.0811  0.4164  0.1580
  297MOL0     C39088   5.330   1.351   8.781  0.5158  0.5039 -0.1944
  297MOL0     N39089   5.293   1.464   8.695  0.0113 -0.3880 -0.1171
  297MOL0     C39090   5.202   1.467   8.593  0.4777 -0.1682 -0.0400
  297MOL0     C39091   5.190   1.595   8.547 -0.5592 -0.1286 -0.6890
  297MOL0     C39092   5.102   1.663   8.443  0.3304  0.3581  0.0314
  297MOL0     C39093   4.969   1.592   8.442  0.1290 -0.5593 -0.3898
  297MOL0     C39094   4.865   1.684   8.374  0.1327 -0.0749  0.1414
  297MOL0     C39095   4.741   1.601   8.352  0.1218  0.0936  0.1105
  297MOL0     O39096   4.740   1.531   8.223  0.1922 -0.2079 -0.6234
  297MOL0     C39097   4.663   1.415   8.212  0.0402 -0.3248 -0.5697
  297MOL0     C39098   4.676   1.335   8.094  0.5010  0.1993 -0.3344
  297MOL0     C39099   4.596   1.221   8.075 -0.3590 -0.1492 -0.3407
  297MOL0     C39100   4.497   1.188   8.174 -0.1376 -0.6423 -0.5873
  297MOL0     C39101   4.418   1.063   8.161 -0.6274  0.0825  0.5835
  297MOL0     O39102   4.321   1.044   8.250  0.0099  0.2008  0.8770
  297MOL0     C39103   4.223   0.950   8.234  0.3164 -0.3680  1.1696
  297MOL0     C39104   4.093   1.001   8.202 -0.1331  0.3738  0.2088
  297MOL0     C39105   3.985   0.908   8.201 -0.4428 -1.2280  0.8962
  297MOL0     C39106   3.993   0.775   8.231  0.0696 -0.1203 -0.5664
  297MOL0     O39107   3.876   0.700   8.225 -0.4917  1.0510  0.7874
  297MOL0     C39108   3.894   0.559   8.199 -0.0890 -0.3190  0.6484
  297MOL0     C39109   3.763   0.477   8.195  0.0608  0.0755 -0.3907
  297MOL0     C39110   3.675   0.471   8.317 -0.4119 -0.0358 -0.4755
  297MOL0     C39111   3.579   0.355   8.298  0.6667  0.7759 -0.2471
  297MOL0     C39112   3.521   0.330   8.435 -0.1716  0.0988  0.0190
  297MOL0     C39113   3.406   0.220   8.432  0.1330  0.1131 -0.5367
  297MOL0     C39114   3.365   0.193   8.579 -0.2695 -0.7633  0.4897
  297MOL0     C39115   3.230   0.124   8.580  0.3625 -0.0065  0.7389
  297MOL0    Cl39116   3.191   0.096   8.752 -0.1327  0.1987 -0.1781
  297MOL0     C39117   4.124   0.728   8.268  0.8712 -0.8177 -0.9478
  297MOL0     C39118   4.233   0.815   8.277 -0.5363  0.4027 -0.0097
  297MOL0     O39119   4.436   0.991   8.065  0.4081  0.2364  0.0167
  297MOL0     C39120   4.497   1.264   8.293  0.2652 -0.0044  0.6004
  297MOL0     C39121   4.579   1.371   8.312  0.3708  0.4098 -0.3554
  297MOL0     N39122   5.284   1.666   8.625 -0.2936  0.3926  0.1336
  297MOL0     N39123   5.341   1.589   8.720  0.1411  0.1498 -0.7661
  297MOL0     C39124   6.186   1.325   8.582  0.0331 -0.3241 -0.3856
  297MOL0     C39125   6.318   1.375   8.562  0.8826 -0.8963 -0.2197
  297MOL0     C39126   6.732   1.500   8.496  0.5643  0.2297  0.3781
  297MOL0     C39127   6.793   1.617   8.554 -0.4106  0.1801  0.5131
  297MOL0     C39128   6.928   1.645   8.529 -0.9329 -0.8882  0.2186
  297MOL0     C39129   7.007   1.574   8.438 -0.4063 -0.5229 -0.2607
  297MOL0     O39130   7.137   1.606   8.402 -0.1762 -0.2008 -0.2576
  297MOL0     C39131   7.206   1.715   8.459  0.2663  0.4917 -0.6018
  297MOL0     C39132   7.337   1.728   8.386  0.1211 -0.7636  1.1453
  297MOL0     C39133   7.430   1.610   8.388  0.0440 -0.0031 -0.2295
  297MOL0     C39134   7.562   1.672   8.329  0.1105  0.0077  0.2857
  297MOL0     C39135   7.663   1.568   8.315  0.4690 -0.9143  0.1310
  297MOL0     C39136   7.754   1.486   8.321  0.0375 -0.2682  0.9885
  297MOL0     C39137   6.942   1.472   8.374  1.0940 -0.0100 -0.2320
  297MOL0     C39138   6.811   1.430   8.404 -0.5392  0.6562  0.0051
  297MOL0     H39139   6.470   1.115   8.417 -0.9376 -0.7982  0.3862
  297MOL0     H39140   6.242   1.015   8.452  2.7266 -0.1881  1.7209
  297MOL0     H39141   6.032   0.955   8.545  3.4073  1.4530 -0.8865
  297MOL0     H39142   5.997   1.032   8.387 -2.1354 -0.2157 -0.9609
  297MOL0     H39143   5.802   1.002   8.629 -1.8263  4.3013 -0.1205
  297MOL0     H39144   5.790   0.919   8.482 -2.2983 -0.4216 -0.0628
  297MOL0     H39145   5.777   1.156   8.376  0.1369  1.9010  0.9283
  297MOL0     H39146   5.735   1.214   8.540  1.3441  0.0254 -0.1960
  297MOL0     H39147   5.550   1.150   8.378  0.0816 -0.0910 -0.9024
  297MOL0     H39148   5.586   0.985   8.390  0.1968 -0.7296  0.8615
  297MOL0     H39149   5.552   1.034   8.658  0.1160 -0.6105 -1.3116
  297MOL0     H39150   5.410   1.035   8.543  0.9258 -0.7852 -1.3411
  297MOL0     H39151   5.460   1.299   8.540 -0.3181 -0.5486  0.0079
  297MOL0     H39152   5.554   1.269   8.684  0.7447 -0.1921  0.0398
  297MOL0     H39153   5.263   1.202   8.653 -0.0708  2.1568 -0.3498
  297MOL0     H39154   5.377   1.154   8.790  3.7538  0.6839 -0.4936
  297MOL0     H39155   5.417   1.370   8.843  1.7228 -4.0281 -0.0991
  297MOL0     H39156   5.239   1.323   8.836  1.2458 -0.8549  0.3805
  297MOL0     H39157   5.136   1.388   8.559  0.0147  0.5087 -0.7298
  297MOL0     H39158   5.147   1.654   8.343 -0.4043 -0.5495 -0.2319
  297MOL0     H39159   5.097   1.770   8.465  0.7190  0.4395 -0.2625
  297MOL0     H39160   4.926   1.571   8.540  0.3950 -1.1690 -0.4002
  297MOL0     H39161   4.989   1.503   8.381  2.3986  0.5442 -1.3834
  297MOL0     H39162   4.842   1.770   8.438  1.3134  0.7058 -0.4545
  297MOL0     H39163   4.907   1.724   8.281  0.5759  1.2783  0.8858
  297MOL0     H39164   4.652   1.665   8.357 -0.0608 -0.1853  0.5666
  297MOL0     H39165   4.736   1.529   8.434 -0.2489 -3.5350 -2.8005
  297MOL0     H39166   4.747   1.355   8.014  0.1847 -2.5040 -1.3726
  297MOL0     H39167   4.610   1.166   7.983 -0.7199 -0.5249 -0.1724
  297MOL0     H39168   4.072   1.105   8.177 -0.4333  1.3794  3.9814
  297MOL0     H39169   3.882   0.936   8.180 -1.3822 -2.9456  2.8150
  297MOL0     H39170   3.960   0.508   8.271  0.1805 -1.1143 -0.1485
  297MOL0     H39171   3.937   0.551   8.099 -0.1417  1.3503  0.4753
  297MOL0     H39172   3.779   0.373   8.164  0.2363  0.5546 -2.0285
  297MOL0     H39173   3.700   0.523   8.118  0.8267  0.4108 -0.8300
  297MOL0     H39174   3.624   0.565   8.337  1.2369  1.2924 -2.1358
  297MOL0     H39175   3.740   0.450   8.402  1.7543  1.8549 -1.5408
  297MOL0     H39176   3.495   0.386   8.235 -1.6076 -0.2209  2.1137
  297MOL0     H39177   3.619   0.265   8.252 -2.5051 -1.2663  0.6689
  297MOL0     H39178   3.484   0.425   8.475  0.0636 -0.0647  0.6498
  297MOL0     H39179   3.599   0.305   8.508 -1.0998  1.4941  1.5698
  297MOL0     H39180   3.443   0.129   8.383 -0.7145 -0.6704  0.2191
  297MOL0     H39181   3.321   0.255   8.373  1.5362  1.6372 -1.7153
  297MOL0     H39182   3.445   0.129   8.617  1.6470  0.7324 -0.8193
  297MOL0     H39183   3.373   0.292   8.625 -1.1764 -0.3073 -0.2941
  297MOL0     H39184   3.231   0.031   8.522 -1.1081 -0.6850  1.7378
  297MOL0     H39185   3.161   0.194   8.532 -0.3507 -0.1879  1.4718
  297MOL0     H39186   4.140   0.626   8.299 -0.9866  0.1873  4.3187
  297MOL0     H39187   4.327   0.777   8.314 -0.4989  0.9493  0.4658
  297MOL0     H39188   4.425   1.227   8.366 -2.2736 -1.0267 -2.2053
  297MOL0     H39189   4.561   1.419   8.408 -0.2379 -1.3966  0.4775
  297MOL0     H39190   6.123   1.375   8.655  0.2560 -0.6585  0.0389
  297MOL0     H39191   6.336   1.477   8.593  0.9887 -0.9404 -0.1368
  297MOL0     H39192   6.738   1.681   8.623  0.5105  1.1921  0.3163
  297MOL0     H39193   6.971   1.725   8.588 -0.7842 -2.0669  1.7570
  297MOL0     H39194   7.227   1.697   8.565 -0.2626  1.4086 -0.3294
  297MOL0     H39195   7.143   1.804   8.454 -1.6476 -0.8446 -1.0948
  297MOL0     H39196   7.319   1.755   8.281 -4.6006 -1.6123  1.5203
  297MOL0     H39197   7.389   1.812   8.433 -0.3576  1.3333 -1.7681
  297MOL0     H39198   7.388   1.531   8.326  0.4811 -1.2932  1.0583
  297MOL0     H39199   7.445   1.564   8.486  2.2013 -0.3232 -0.6544
  297MOL0     H39200   7.541   1.724   8.235  0.6694 -2.5378 -1.3607
  297MOL0     H39201   7.596   1.747   8.401  0.1473 -1.7430  2.2035
  297MOL0     H39202   7.834   1.416   8.311 -0.4238 -0.7006  0.1813
  297MOL0     H39203   6.997   1.421   8.295  0.5711  2.2475 -2.1722
  297MOL0     H39204   6.765   1.345   8.355  1.5396 -0.2976 -0.4239
  298MOL0     O39205  10.465   8.665   4.112 -0.5459 -0.5054  0.3768
  298MOL0     C39206  10.492   8.553   4.132 -0.1242  1.1747  0.6218
  298MOL0     O39207  10.459   8.450   4.048  0.2408 -0.6010 -0.3085
  298MOL0     C39208  10.380   8.471   3.942  0.2251 -0.7908  0.3216
  298MOL0     C39209  10.245   8.465   3.963 -0.0390 -1.5867 -0.1916
  298MOL0     C39210  10.159   8.521   3.860 -1.1189  0.6675 -0.5288
  298MOL0     C39211  10.200   8.552   3.733  0.0014  0.0162  0.2038
  298MOL0     O39212  10.099   8.581   3.645 -1.1975 -0.3414  0.8457
  298MOL0     C39213  10.126   8.665   3.534 -0.4180 -0.2475  0.1656
  298MOL0     C39214  10.138   8.579   3.414  1.2360 -0.3312  0.6511
  298MOL0     C39215  10.164   8.680   3.302  0.8663 -0.3486  0.9342
  298MOL0     C39216  10.101   8.630   3.172 -0.6051 -0.4206  0.4749
  298MOL0     C39217  10.146   8.700   3.045 -0.2959 -0.2657 -0.1077
  298MOL0     C39218  10.102   8.851   3.037 -0.1490  0.2518 -0.0643
  298MOL0     C39219  10.160   8.915   2.921 -0.3623  0.8697  0.8713
  298MOL0     C39220  10.130   9.073   2.919 -0.1813  0.0071  0.4249
  298MOL0     N39221   9.986   9.097   2.900 -0.0965 -0.0967  0.4557
  298MOL0     C39222   9.918   9.069   2.783 -0.5517  0.1791  0.0497
  298MOL0     C39223   9.788   9.102   2.807 -0.0116 -0.0387 -0.3037
  298MOL0     C39224   9.675   9.094   2.703  0.0345  0.5486  0.4338
  298MOL0     C39225   9.650   8.954   2.665  0.8523 -0.0314  0.8827
  298MOL0     C39226   9.503   8.918   2.669 -0.5647  0.0429 -0.1409
  298MOL0     C39227   9.485   8.768   2.655  0.0475 -1.3065  0.0014
  298MOL0     O39228   9.418   8.717   2.771  0.5291  0.3427 -1.3384
  298MOL0     C39229   9.394   8.579   2.780 -0.0313 -0.4743  0.4291
  298MOL0     C39230   9.331   8.544   2.899  0.3398 -0.1274 -0.1331
  298MOL0     C39231   9.295   8.415   2.924 -0.0386 -0.2942  0.0263
  298MOL0     C39232   9.326   8.309   2.840 -0.2298 -1.2842  0.4536
  298MOL0     C39233   9.295   8.170   2.875  0.5966  0.4822 -0.3975
  298MOL0     O39234   9.231   8.153   2.990 -0.0075 -0.6063 -0.0797
  298MOL0     C39235   9.194   8.041   3.043 -0.1539  0.2784 -0.0628
  298MOL0     C39236   9.129   7.949   2.960  0.3472  0.0802  0.1926
  298MOL0     C39237   9.085   7.834   3.017  0.5626 -0.0669 -0.5684
  298MOL0     C39238   9.114   7.808   3.157  0.7651  0.1543  0.2828
  298MOL0     O39239   9.080   7.689   3.200  0.6625  0.1341 -0.2444
  298MOL0     C39240   9.014   7.681   3.329  0.2344 -0.8187  0.1848
  298MOL0     C39241   8.913   7.569   3.324  0.1599  0.6093  0.7085
  298MOL0     C39242   8.867   7.501   3.453  0.2190 -0.1067 -0.9347
  298MOL0     C39243   8.936   7.381   3.506  0.0646 -0.1108 -0.2767
  298MOL0     C39244   8.877   7.319   3.631 -0.0149 -0.2076  0.5297
  298MOL0     C39245   8.959   7.196   3.678 -0.0976 -0.3803 -0.0536
  298MOL0     C39246   8.961   7.077   3.576  0.1476 -0.5779  0.3306
  298MOL0     C39247   8.974   6.935   3.650 -0.1771 -0.3926  0.0576
  298MOL0    Cl39248   8.825   6.898   3.728 -0.2231  0.1420 -0.0197
  298MOL0     C39249   9.184   7.900   3.235  0.7182 -1.0716  0.5034
  298MOL0     C39250   9.226   8.027   3.182  0.2475 -0.3815  0.0091
  298MOL0     O39251   9.348   8.082   2.805 -0.6295 -0.4488 -0.1983
  298MOL0     C39252   9.401   8.349   2.722 -0.7489  0.2622 -0.0132
  298MOL0     C39253   9.434   8.484   2.697 -0.0586  0.3011 -0.1990
  298MOL0     N39254   9.770   9.144   2.940 -1.1716 -0.0977  0.2823
  298MOL0     N39255   9.888   9.126   2.994 -0.2058  0.5641  0.5805
  298MOL0     C39256  10.335   8.554   3.716 -0.0948 -0.1388  0.1688
  298MOL0     C39257  10.429   8.514   3.813  0.1077  1.1367  0.0982
  298MOL0     C39258  10.577   8.516   4.249 -0.4854 -0.0201  1.4243
  298MOL0     C39259  10.630   8.384   4.262 -0.3317 -0.1341 -0.6177
  298MOL0     C39260  10.697   8.340   4.378  0.2861  0.2636 -0.3709
  298MOL0     C39261  10.716   8.435   4.479 -0.9029 -0.2045  0.0582
  298MOL0     O39262  10.773   8.391   4.596  0.3698  0.1296 -0.1864
  298MOL0     C39263  10.909   8.430   4.606 -0.6659 -0.0771 -0.3849
  298MOL0     C39264  10.915   8.503   4.730  0.3446  0.5724  0.3829
  298MOL0     C39265  11.060   8.523   4.771  0.6363  0.0143 -0.3767
  298MOL0     C39266  11.140   8.623   4.690  0.6684  0.1187  0.0998
  298MOL0     C39267  11.272   8.631   4.736  0.0654 -0.2056  0.3350
  298MOL0     C39268  11.386   8.630   4.779 -0.0816 -0.2756 -0.4567
  298MOL0     C39269  10.657   8.561   4.474  0.2752 -0.2847 -0.5025
  298MOL0     C39270  10.590   8.605   4.358  0.8603  0.2661 -0.6041
  298MOL0     H39271  10.213   8.441   4.064  1.3807  1.3241  1.0714
  298MOL0     H39272  10.052   8.524   3.872 -1.0144 -0.7743  1.3085
  298MOL0     H39273  10.219   8.719   3.553 -0.4131 -1.3099  4.2794
  298MOL0     H39274  10.044   8.737   3.526  1.7348  2.2846 -0.5984
  298MOL0     H39275  10.042   8.528   3.397 -0.0316  1.9017  0.7427
  298MOL0     H39276  10.215   8.502   3.426  0.2291 -1.3433  0.8446
  298MOL0     H39277  10.270   8.701   3.286  0.6716 -1.0481 -1.6122
  298MOL0     H39278  10.118   8.778   3.320 -1.2614 -1.7543  4.2555
  298MOL0     H39279  10.137   8.529   3.152  1.4674  0.1841  0.9217
  298MOL0     H39280   9.992   8.624   3.177 -1.0670 -0.8406 -4.8194
  298MOL0     H39281  10.098   8.652   2.960 -4.0014  0.2841  1.4828
  298MOL0     H39282  10.254   8.681   3.044 -0.0822  0.8989 -0.6161
  298MOL0     H39283  10.130   8.909   3.126  1.1631 -1.5854  0.7628
  298MOL0     H39284   9.995   8.863   3.017 -0.1517  0.9876  0.3369
  298MOL0     H39285  10.268   8.896   2.924 -0.1236  1.6767 -1.1818
  298MOL0     H39286  10.110   8.880   2.831 -5.4183  2.2942  2.8128
  298MOL0     H39287  10.170   9.111   2.825 -2.0818 -0.3213 -0.5720
  298MOL0     H39288  10.169   9.137   2.998  3.5588 -1.0911 -0.3556
  298MOL0     H39289   9.957   9.022   2.693 -2.6322  0.8339 -1.2848
  298MOL0     H39290   9.695   9.157   2.616 -0.4736  0.5111  0.2862
  298MOL0     H39291   9.590   9.142   2.753  0.2572  1.5772 -0.1466
  298MOL0     H39292   9.705   8.881   2.726  0.5242 -1.9480 -1.0099
  298MOL0     H39293   9.687   8.932   2.565  0.6976 -0.1566  0.8516
  298MOL0     H39294   9.467   8.953   2.766  0.7023  1.5024 -0.1512
  298MOL0     H39295   9.455   8.971   2.586  0.4550 -0.4791 -1.1004
  298MOL0     H39296   9.576   8.715   2.627 -0.0672 -0.6880 -1.6641
  298MOL0     H39297   9.421   8.744   2.569 -0.3252 -1.6284  0.3659
  298MOL0     H39298   9.300   8.619   2.972 -0.4910 -0.9816  0.4053
  298MOL0     H39299   9.244   8.405   3.020  0.0808 -0.5945  0.0623
  298MOL0     H39300   9.104   7.971   2.857  0.7709 -0.7642 -0.1061
  298MOL0     H39301   9.037   7.759   2.956  1.3512 -1.0353 -0.0313
  298MOL0     H39302   8.966   7.772   3.366  0.6217 -0.1349 -0.9643
  298MOL0     H39303   9.096   7.667   3.400 -0.0982  0.3718  0.8420
  298MOL0     H39304   8.960   7.484   3.274  2.4918  1.1563  1.8442
  298MOL0     H39305   8.824   7.606   3.273  1.4966  0.0869 -2.2192
  298MOL0     H39306   8.760   7.481   3.444  0.2639 -0.7135 -0.2288
  298MOL0     H39307   8.882   7.570   3.537 -1.3418 -1.4328  0.5098
  298MOL0     H39308   8.929   7.301   3.432 -1.2804  0.3643 -0.6894
  298MOL0     H39309   9.044   7.396   3.511  0.6461 -3.7732  1.8977
  298MOL0     H39310   8.771   7.297   3.613  0.2578 -0.7383 -0.4986
  298MOL0     H39311   8.879   7.396   3.709  0.4763 -0.4852  0.7987
  298MOL0     H39312   8.922   7.169   3.777  1.3476 -0.9946  0.3356
  298MOL0     H39313   9.062   7.227   3.697 -0.1914 -0.2326  0.2226
  298MOL0     H39314   8.879   7.075   3.504  1.0069  0.1241 -0.7057
  298MOL0     H39315   9.051   7.094   3.516 -1.6234  1.9632 -1.8568
  298MOL0     H39316   9.057   6.943   3.721  0.4083 -1.5322 -0.4660
  298MOL0     H39317   9.008   6.861   3.577  0.0231 -0.3714  0.1259
  298MOL0     H39318   9.217   7.866   3.332  4.3527 -2.0447 -0.8999
  298MOL0     H39319   9.267   8.106   3.244 -0.4841  0.0698 -0.0775
  298MOL0     H39320   9.416   8.269   2.650  0.1528  0.4806 -0.0868
  298MOL0     H39321   9.497   8.501   2.610  1.0516 -0.7691  0.3500
  298MOL0     H39322  10.367   8.585   3.617  2.4704 -1.2384  0.5518
  298MOL0     H39323  10.532   8.501   3.782  0.0924  1.7796 -0.2289
  298MOL0     H39324  10.610   8.310   4.185 -1.0312 -1.4169  0.7468
  298MOL0     H39325  10.734   8.239   4.392 -0.3572 -0.2159 -1.9139
  298MOL0     H39326  10.943   8.500   4.529 -0.9246  2.8701  2.0098
  298MOL0     H39327  10.974   8.343   4.612 -1.1635 -0.3317  2.6883
  298MOL0     H39328  10.863   8.599   4.722 -0.1123  0.2234 -1.2353
  298MOL0     H39329  10.856   8.450   4.806 -1.3732 -0.4188 -1.5460
  298MOL0     H39330  11.118   8.432   4.790  2.2197  1.5422  3.0844
  298MOL0     H39331  11.046   8.565   4.871 -2.0566  2.3224 -1.5963
  298MOL0     H39332  11.130   8.592   4.586 -2.1935  0.5799  0.1666
  298MOL0     H39333  11.106   8.727   4.686  0.7758  0.1305 -0.5113
  298MOL0     H39334  11.489   8.623   4.808  0.1787 -0.1361 -1.3199
  298MOL0     H39335  10.659   8.626   4.561  0.7549  0.6239 -1.1736
  298MOL0     H39336  10.556   8.707   4.350  1.7401  0.6037 -0.1935
  299MOL0     O39337   5.979   2.790   5.973 -0.1174 -0.4580 -0.7826
  299MOL0     C39338   6.036   2.683   5.946 -0.4342  0.3305 -1.2312
  299MOL0     O39339   5.979   2.587   5.876 -0.3407 -0.4631 -0.3873
  299MOL0     C39340   5.836   2.597   5.857 -1.0568 -1.0176 -1.1466
  299MOL0     C39341   5.785   2.597   5.726 -0.1294 -0.0170  0.6571
  299MOL0     C39342   5.649   2.627   5.706  0.0311 -0.1302 -0.3115
  299MOL0     C39343   5.554   2.632   5.814 -0.1866 -0.1056 -0.2966
  299MOL0     O39344   5.423   2.638   5.774 -0.0045 -0.0271  0.7534
  299MOL0     C39345   5.327   2.672   5.870  0.2429 -0.9640 -0.0159
  299MOL0     C39346   5.216   2.737   5.799 -0.4588  0.6630  1.6071
  299MOL0     C39347   5.079   2.719   5.858 -0.5227  0.0301 -0.1175
  299MOL0     C39348   4.968   2.807   5.812  0.3764  0.8545 -0.1210
  299MOL0     C39349   4.828   2.763   5.865  0.2482  0.1164 -0.1218
  299MOL0     C39350   4.708   2.833   5.785 -1.1623 -0.1878  0.9931
  299MOL0     C39351   4.600   2.895   5.873 -0.0890  0.1286 -0.2516
  299MOL0     C39352   4.517   2.789   5.959  0.0217 -0.5127  0.0800
  299MOL0     N39353   4.392   2.856   5.997  0.3873  0.5332  0.2313
  299MOL0     C39354   4.373   2.952   6.093 -0.2421 -0.3740  0.2356
  299MOL0     C39355   4.243   2.983   6.097  0.5177 -0.6045  0.0979
  299MOL0     C39356   4.157   3.092   6.163  0.2567 -0.9739  0.4234
  299MOL0     C39357   4.103   3.192   6.053 -0.6825  0.0729 -0.5824
  299MOL0     C39358   4.228   3.277   6.007  0.3847  0.4682 -0.0553
  299MOL0     C39359   4.194   3.368   5.888  0.3602 -0.4945 -0.4008
  299MOL0     O39360   4.101   3.462   5.941  0.3418  0.3633 -0.3753
  299MOL0     C39361   3.989   3.476   5.871  0.4298  0.0824  0.2852
  299MOL0     C39362   3.864   3.453   5.918  0.3344 -0.1329 -0.1972
  299MOL0     C39363   3.750   3.488   5.835 -0.3825 -0.1292 -0.2545
  299MOL0     C39364   3.769   3.547   5.706  0.2450 -0.5141  0.3597
  299MOL0     C39365   3.663   3.603   5.626  0.1495 -0.2413  0.0934
  299MOL0     O39366   3.698   3.687   5.519  0.8547  0.7853 -0.1851
  299MOL0     C39367   3.592   3.755   5.464 -0.3445  0.8074  0.0424
  299MOL0     C39368   3.505   3.696   5.372 -0.2259 -0.0861 -0.1681
  299MOL0     C39369   3.408   3.786   5.317  0.5881  0.1856  0.1362
  299MOL0     C39370   3.387   3.918   5.358 -0.6553  0.7620 -0.8144
  299MOL0     O39371   3.294   3.994   5.294 -0.0041 -0.5007 -0.3164
  299MOL0     C39372   3.257   4.119   5.358  1.0397 -0.9761 -0.4717
  299MOL0     C39373   3.110   4.153   5.324  0.6676 -0.1748 -0.4824
  299MOL0     C39374   3.073   4.302   5.362 -0.6906 -0.7838 -0.1495
  299MOL0     C39375   3.144   4.414   5.274  0.1852  0.1759  0.3836
  299MOL0     C39376   3.093   4.558   5.302 -0.4881 -0.3402  0.4981
  299MOL0     C39377   3.109   4.646   5.176  0.1653  0.3650 -0.0645
  299MOL0     C39378   3.072   4.794   5.209 -0.3122  0.6395 -0.0138
  299MOL0     C39379   2.925   4.802   5.199  0.7341  0.7062 -0.0169
  299MOL0    Cl39380   2.885   4.802   5.029 -0.0647 -0.2654  0.3778
  299MOL0     C39381   3.469   3.967   5.469 -0.2530 -0.8125  0.6228
  299MOL0     C39382   3.570   3.880   5.522  0.1416 -0.9438  0.1271
  299MOL0     O39383   3.549   3.598   5.675  0.4609  0.4472 -0.1195
  299MOL0     C39384   3.902   3.551   5.655  1.1227 -0.4894  0.3946
  299MOL0     C39385   4.008   3.528   5.741  0.3774  0.2883 -0.7272
  299MOL0     N39386   4.185   2.876   6.023 -0.5055 -0.8294  0.2092
  299MOL0     N39387   4.274   2.798   5.968  0.2752 -0.3647 -0.2357
  299MOL0     C39388   5.610   2.627   5.943  0.4422 -0.3025 -0.3489
  299MOL0     C39389   5.748   2.615   5.970  0.2396  0.6826 -0.5268
  299MOL0     C39390   6.177   2.673   5.981 -0.5731  0.4520  0.5822
  299MOL0     C39391   6.238   2.786   6.032 -0.2770 -0.4413 -0.4773
  299MOL0     C39392   6.379   2.787   6.065 -0.5328  1.2270 -0.3410
  299MOL0     C39393   6.446   2.670   6.057 -0.2092  0.0815 -0.3014
  299MOL0     O39394   6.567   2.666   6.123 -0.5381 -0.0139 -0.3860
  299MOL0     C39395   6.670   2.625   6.032 -0.4478  0.3974 -0.0329
  299MOL0     C39396   6.766   2.746   6.027  0.1598 -0.4513  0.1708
  299MOL0     C39397   6.878   2.708   5.925 -0.4107  0.2678 -0.2028
  299MOL0     C39398   6.945   2.837   5.879 -0.1720  0.0634 -0.5339
  299MOL0     C39399   7.056   2.797   5.789 -0.0748  0.2882  0.0748
  299MOL0     C39400   7.153   2.775   5.725 -0.7522 -0.7000 -0.2346
  299MOL0     C39401   6.385   2.558   6.004 -0.7432  0.3102  1.3309
  299MOL0     C39402   6.255   2.562   5.954  0.0630  0.4183  0.4998
  299MOL0     H39403   5.855   2.578   5.645 -0.3489  0.4654  0.3547
  299MOL0     H39404   5.616   2.637   5.603 -0.4538  2.0457  0.0105
  299MOL0     H39405   5.369   2.730   5.952  1.3138 -1.0372 -0.4982
  299MOL0     H39406   5.297   2.581   5.921  0.6167 -1.0762  0.0052
  299MOL0     H39407   5.214   2.699   5.697  1.3904 -0.5913  2.0121
  299MOL0     H39408   5.234   2.845   5.796 -2.9095  1.1118  0.6981
  299MOL0     H39409   5.091   2.746   5.963 -1.0874 -3.1380  0.8807
  299MOL0     H39410   5.042   2.617   5.843 -3.6770  0.8298  1.4199
  299MOL0     H39411   4.983   2.912   5.839  2.1661  0.7771 -0.7315
  299MOL0     H39412   4.964   2.801   5.703  0.4785 -3.2351 -0.0459
  299MOL0     H39413   4.811   2.790   5.970 -0.3341 -1.1429  0.1188
  299MOL0     H39414   4.810   2.656   5.855 -1.3641  0.5214 -2.5569
  299MOL0     H39415   4.664   2.761   5.716 -1.6102  1.4346 -0.4685
  299MOL0     H39416   4.750   2.916   5.727  0.1132 -2.6537 -1.8857
  299MOL0     H39417   4.644   2.972   5.937 -1.4987  1.6521 -1.0320
  299MOL0     H39418   4.535   2.943   5.799  1.3135 -0.0684 -1.6481
  299MOL0     H39419   4.568   2.753   6.049 -0.0197 -1.2340 -0.1799
  299MOL0     H39420   4.502   2.695   5.905  0.2444 -1.1980  1.1788
  299MOL0     H39421   4.445   3.012   6.149 -3.6079  2.3260  2.0498
  299MOL0     H39422   4.213   3.149   6.237  1.3592  0.1796 -1.2309
  299MOL0     H39423   4.075   3.038   6.212 -0.8101  1.4519  1.4984
  299MOL0     H39424   4.029   3.252   6.106  0.1370  0.5810  0.0194
  299MOL0     H39425   4.071   3.139   5.963  0.6246 -1.1129 -0.3915
  299MOL0     H39426   4.262   3.340   6.090  3.4496 -1.1682  0.0543
  299MOL0     H39427   4.311   3.212   5.979  0.2209  0.1266  0.2458
  299MOL0     H39428   4.169   3.311   5.798  1.4518 -0.9046 -0.4591
  299MOL0     H39429   4.278   3.426   5.850 -1.7605  1.6420 -2.2125
  299MOL0     H39430   3.850   3.428   6.022  0.9870 -3.9663 -0.9071
  299MOL0     H39431   3.647   3.487   5.870 -0.6811  3.0234 -0.7535
  299MOL0     H39432   3.505   3.594   5.335 -1.4861  0.7756 -2.7853
  299MOL0     H39433   3.348   3.763   5.229 -0.6344  2.1888  0.3923
  299MOL0     H39434   3.323   4.196   5.317  0.0695  1.3263  1.9623
  299MOL0     H39435   3.257   4.119   5.467 -5.3387 -0.5062 -0.0611
  299MOL0     H39436   3.049   4.079   5.376 -1.7879  1.2595 -1.1708
  299MOL0     H39437   3.102   4.143   5.215  1.8927  1.9308 -0.8267
  299MOL0     H39438   3.098   4.321   5.467 -1.0103 -0.9708 -0.0393
  299MOL0     H39439   2.965   4.315   5.352 -0.6185 -0.0319 -0.0180
  299MOL0     H39440   3.253   4.408   5.285  0.5435 -0.5512 -2.6775
  299MOL0     H39441   3.134   4.388   5.169 -1.1849  0.2043  0.4896
  299MOL0     H39442   3.151   4.596   5.387 -1.3861  1.5214  0.3407
  299MOL0     H39443   2.988   4.544   5.330 -0.6815 -0.7404 -0.4106
  299MOL0     H39444   3.061   4.601   5.088  3.2049 -1.9259 -0.7165
  299MOL0     H39445   3.215   4.637   5.152  0.1967 -1.0351  0.5190
  299MOL0     H39446   3.102   4.810   5.313  0.8215  0.7282 -0.3400
  299MOL0     H39447   3.114   4.855   5.129  0.3945 -1.5359 -1.3960
  299MOL0     H39448   2.879   4.890   5.245 -1.7210 -0.2792 -0.4161
  299MOL0     H39449   2.864   4.725   5.247 -0.7803  1.3853 -0.7641
  299MOL0     H39450   3.459   4.069   5.505 -1.5045 -0.9719  0.7597
  299MOL0     H39451   3.639   3.921   5.594 -0.0106  1.3765 -0.9554
  299MOL0     H39452   3.940   3.585   5.559 -1.5800  1.6460 -0.0428
  299MOL0     H39453   4.103   3.537   5.690  0.8988 -1.1412 -0.0616
  299MOL0     H39454   5.542   2.636   6.027 -0.5222  0.1342 -1.1554
  299MOL0     H39455   5.794   2.613   6.068  0.5047 -2.5019 -0.6211
  299MOL0     H39456   6.197   2.886   6.029  1.1180  0.2100  0.5907
  299MOL0     H39457   6.415   2.881   6.104 -1.0114  1.5880 -0.7582
  299MOL0     H39458   6.630   2.603   5.933  3.2336 -1.6148 -1.2625
  299MOL0     H39459   6.729   2.541   6.070  1.0558  1.2029 -0.5118
  299MOL0     H39460   6.711   2.830   5.984  0.1627 -1.0798 -1.1061
  299MOL0     H39461   6.806   2.777   6.124 -1.6559  1.1102  0.4802
  299MOL0     H39462   6.831   2.667   5.835  0.2386  1.9050 -1.3350
  299MOL0     H39463   6.953   2.637   5.962 -2.0473 -0.9962  0.8295
  299MOL0     H39464   6.882   2.904   5.820 -0.7675 -0.0623 -0.0520
  299MOL0     H39465   6.981   2.894   5.965 -2.6335 -3.2425  2.9792
  299MOL0     H39466   7.241   2.758   5.665  0.0890 -0.2984  0.8563
  299MOL0     H39467   6.442   2.466   6.004  0.3305  0.9509  1.5415
  299MOL0     H39468   6.220   2.466   5.917  0.0489  1.4113 -2.2583
  300MOL0     O39469   4.604   7.587   0.628  0.5223 -0.1417 -0.2341
  300MOL0     C39470   4.653   7.698   0.643 -0.4737 -0.6099 -0.7476
  300MOL0     O39471   4.588   7.822   0.636 -0.0352  0.3885  0.0701
  300MOL0     C39472   4.455   7.834   0.607  0.3929 -0.1848  0.2214
  300MOL0     C39473   4.395   7.954   0.637 -0.5015 -0.8533  0.0855
  300MOL0     C39474   4.259   7.979   0.630  0.1050  0.1067  0.1254
  300MOL0     C39475   4.175   7.893   0.572 -0.2838  0.0167  0.0931
  300MOL0     O39476   4.035   7.913   0.569  0.1285 -0.0625 -0.1859
  300MOL0     C39477   3.941   7.806   0.556  0.6901  0.1080 -0.1816
  300MOL0     C39478   3.800   7.851   0.584 -0.1394  0.4688  0.2993
  300MOL0     C39479   3.710   7.734   0.537  0.1601  0.2034 -0.2158
  300MOL0     C39480   3.556   7.765   0.567  0.0731  0.1324  0.6396
  300MOL0     C39481   3.466   7.638   0.552  0.0660 -0.0677  0.2643
  300MOL0     C39482   3.319   7.676   0.553 -0.6249  0.3496  0.6397
  300MOL0     C39483   3.220   7.559   0.549  0.2360 -0.3219 -0.3086
  300MOL0     C39484   3.087   7.591   0.600 -0.2059 -0.0653 -0.2014
  300MOL0     N39485   2.985   7.491   0.570 -0.4619 -0.3529 -0.3721
  300MOL0     C39486   2.904   7.484   0.462 -0.1559 -0.1074 -0.4004
  300MOL0     C39487   2.828   7.376   0.487  0.6873 -0.8436  0.9612
  300MOL0     C39488   2.708   7.335   0.408 -0.8561 -0.4131  0.5331
  300MOL0     C39489   2.588   7.438   0.407 -0.3106  0.5019  0.5802
  300MOL0     C39490   2.490   7.397   0.301  0.3725  0.8427 -0.9383
  300MOL0     C39491   2.406   7.270   0.335 -0.3213 -0.2289 -0.4207
  300MOL0     O39492   2.306   7.261   0.228 -0.0361  0.2256  0.1094
  300MOL0     C39493   2.208   7.167   0.227  0.7580  0.7121 -0.7884
  300MOL0     C39494   2.106   7.184   0.135 -0.0329 -0.1089 -0.7054
  300MOL0     C39495   1.997   7.094   0.134  0.3543 -0.2191  0.8516
  300MOL0     C39496   1.978   7.003   0.229 -0.6423  1.0358 -0.2404
  300MOL0     C39497   1.853   6.914   0.217  0.1941  1.0825  0.0113
  300MOL0     O39498   1.748   6.939   0.137  0.2576  0.4091  0.2594
  300MOL0     C39499   1.642   6.854   0.114  0.3216  0.5055 -0.3503
  300MOL0     C39500   1.630   6.714   0.133  1.0832  0.0601  0.0220
  300MOL0     C39501   1.522   6.646   0.075 -0.3161 -0.2923 -0.0057
  300MOL0     C39502   1.422   6.712  -0.004  0.5976 -0.0585  0.1821
  300MOL0     O39503   1.315   6.644  -0.051 -0.4300 -0.8215  0.2613
  300MOL0     C39504   1.344   6.551  -0.159  0.8645 -0.2704  0.0957
  300MOL0     C39505   1.227   6.456  -0.172  0.3031  0.1326 -0.3353
  300MOL0     C39506   1.171   6.398  -0.046  0.1484  0.4743 -0.9504
  300MOL0     C39507   1.046   6.320  -0.069  0.2327 -0.3865 -0.4827
  300MOL0     C39508   0.983   6.253   0.060  0.1027 -0.4959  0.2897
  300MOL0     C39509   0.939   6.366   0.155 -0.0272 -0.2013  0.4271
  300MOL0     C39510   0.863   6.301   0.272  0.8337 -0.6579  0.1621
  300MOL0     C39511   0.764   6.393   0.336  1.4969 -0.6735 -0.2993
  300MOL0    Cl39512   0.841   6.531   0.415 -0.1714 -0.0821  0.2116
  300MOL0     C39513   1.435   6.852  -0.018  0.0169  0.1558 -0.1748
  300MOL0     C39514   1.548   6.914   0.026  0.6950 -0.5585 -0.5795
  300MOL0     O39515   1.864   6.808   0.285 -0.3392  0.0311  0.5670
  300MOL0     C39516   2.075   6.999   0.330  0.1164 -0.2119 -0.8914
  300MOL0     C39517   2.187   7.079   0.331  0.0002 -0.0464 -0.0772
  300MOL0     N39518   2.869   7.321   0.614  0.4154  0.3805  0.2998
  300MOL0     N39519   2.979   7.378   0.651 -0.0885  0.5377 -0.5134
  300MOL0     C39520   4.229   7.766   0.541  0.3577 -0.0316  0.1290
  300MOL0     C39521   4.363   7.733   0.558 -0.0049  0.0085  1.4167
  300MOL0     C39522   4.803   7.711   0.662  0.3210  0.4770  0.0045
  300MOL0     C39523   4.871   7.834   0.662  0.5826  0.3295 -0.0761
  300MOL0     C39524   5.015   7.842   0.671  0.1706 -0.9434 -0.4794
  300MOL0     C39525   5.091   7.726   0.687 -0.4923  0.8303 -0.1137
  300MOL0     O39526   5.230   7.740   0.666  0.8102 -0.5991  0.3120
  300MOL0     C39527   5.311   7.626   0.710  0.5081  0.0975  0.2237
  300MOL0     C39528   5.460   7.658   0.690 -0.0107 -0.1577  0.5658
  300MOL0     C39529   5.544   7.544   0.736 -0.0746  0.0687  0.8206
  300MOL0     C39530   5.689   7.571   0.708 -0.5581 -0.2527 -0.2530
  300MOL0     C39531   5.782   7.463   0.753  0.0112  0.1624  0.1565
  300MOL0     C39532   5.835   7.363   0.794  0.4690  0.3895 -0.2751
  300MOL0     C39533   5.018   7.599   0.688 -0.7984 -0.1694  0.1790
  300MOL0     C39534   4.885   7.601   0.673  0.2121 -0.1885 -0.3065
  300MOL0     H39535   4.459   8.032   0.676 -1.1398 -1.1358  1.7583
  300MOL0     H39536   4.207   8.066   0.667 -2.9551 -0.3107 -2.7258
  300MOL0     H39537   3.958   7.727   0.630 -0.2754 -0.0884 -0.1492
  300MOL0     H39538   3.938   7.755   0.460 -0.7728  1.6234 -1.0076
  300MOL0     H39539   3.777   7.942   0.528 -0.7044  0.8074  1.0579
  300MOL0     H39540   3.786   7.876   0.690  2.5067 -0.8918  1.0431
  300MOL0     H39541   3.742   7.644   0.590  2.2994  1.3865  0.6195
  300MOL0     H39542   3.721   7.718   0.429  2.9649 -3.3650  0.4017
  300MOL0     H39543   3.546   7.793   0.672 -1.3625 -3.9834  1.7651
  300MOL0     H39544   3.521   7.846   0.502  0.7249 -1.2329 -1.5260
  300MOL0     H39545   3.489   7.576   0.640  0.7908 -1.9853 -1.2161
  300MOL0     H39546   3.489   7.583   0.461 -1.4310  0.9741 -0.7883
  300MOL0     H39547   3.306   7.737   0.462 -4.4717 -2.6206 -1.1216
  300MOL0     H39548   3.311   7.735   0.645  5.2678  1.7352  0.6174
  300MOL0     H39549   3.217   7.519   0.447  1.2528 -1.1708 -0.0215
  300MOL0     H39550   3.271   7.487   0.613  1.0050  1.5006  1.2336
  300MOL0     H39551   3.058   7.688   0.559  0.9983  1.6871  2.7559
  300MOL0     H39552   3.087   7.600   0.709 -1.6295  2.3802 -0.3296
  300MOL0     H39553   2.901   7.557   0.382  2.8995  2.4023  1.5523
  300MOL0     H39554   2.675   7.242   0.456 -0.4412  0.3192  2.2804
  300MOL0     H39555   2.747   7.314   0.308 -0.6994 -0.2956  0.5697
  300MOL0     H39556   2.635   7.534   0.385  0.6995 -0.4599 -1.8647
  300MOL0     H39557   2.542   7.444   0.506 -1.3626 -3.7614  0.5707
  300MOL0     H39558   2.421   7.482   0.293  0.3220  1.4489  3.4672
  300MOL0     H39559   2.531   7.384   0.201 -0.7879 -0.4807 -1.2784
  300MOL0     H39560   2.366   7.280   0.436  4.5116  0.3065  1.7077
  300MOL0     H39561   2.474   7.184   0.329 -1.6635 -1.5403  1.8624
  300MOL0     H39562   2.105   7.256   0.053 -1.9344 -1.3303 -1.8200
  300MOL0     H39563   1.927   7.107   0.052  2.1855  2.0757 -0.4385
  300MOL0     H39564   1.723   6.669   0.167  3.2475 -0.6919 -5.7617
  300MOL0     H39565   1.512   6.539   0.091  1.5730 -1.2880 -4.1296
  300MOL0     H39566   1.425   6.483  -0.131  2.1751  2.7179  4.7233
  300MOL0     H39567   1.375   6.599  -0.253 -0.3334  0.3517  0.0015
  300MOL0     H39568   1.267   6.375  -0.233  0.4995 -1.1480  1.4164
  300MOL0     H39569   1.148   6.514  -0.220 -2.4366  0.1996  3.7063
  300MOL0     H39570   1.156   6.474   0.031  2.6584  1.7584 -1.6112
  300MOL0     H39571   1.260   6.348  -0.009  2.2796  3.6620 -1.3527
  300MOL0     H39572   0.966   6.374  -0.121 -0.0256 -2.9763 -2.9864
  300MOL0     H39573   1.083   6.239  -0.133  1.3924 -0.1268 -0.1656
  300MOL0     H39574   1.056   6.188   0.110  0.8570 -1.6800 -2.1821
  300MOL0     H39575   0.892   6.194   0.043  0.5208 -0.9495 -0.4217
  300MOL0     H39576   0.868   6.436   0.111  0.5906  0.2745  0.1793
  300MOL0     H39577   1.019   6.428   0.195  0.0854  0.8390 -1.3271
  300MOL0     H39578   0.802   6.223   0.226  1.6767 -1.5434  0.5129
  300MOL0     H39579   0.933   6.251   0.339 -1.1441 -1.6031  1.6002
  300MOL0     H39580   0.722   6.332   0.416  3.7214 -2.7714 -0.5866
  300MOL0     H39581   0.678   6.419   0.273  0.0735 -0.2312  1.7501
  300MOL0     H39582   1.355   6.894  -0.079  0.0211 -1.4431 -1.3209
  300MOL0     H39583   1.568   7.018   0.005 -0.1302 -0.4157 -0.6830
  300MOL0     H39584   2.078   6.922   0.406  0.5526  1.6061  1.0389
  300MOL0     H39585   2.260   7.062   0.410 -2.0983 -0.2075  1.9499
  300MOL0     H39586   4.167   7.691   0.491  0.7136 -0.7407  0.7343
  300MOL0     H39587   4.397   7.632   0.535  0.6422  0.9615 -2.3804
  300MOL0     H39588   4.817   7.927   0.653  1.7266  0.9965 -0.2058
  300MOL0     H39589   5.071   7.934   0.658 -1.0769  0.0869  1.1205
  300MOL0     H39590   5.290   7.536   0.652  2.4123 -1.1935  1.4136
  300MOL0     H39591   5.296   7.605   0.816  1.8224  0.3024  0.4760
  300MOL0     H39592   5.469   7.687   0.585 -0.3547 -0.0881  0.5529
  300MOL0     H39593   5.493   7.743   0.751  0.9229 -1.3593  1.7710
  300MOL0     H39594   5.502   7.460   0.680 -3.7991  1.4378  1.2538
  300MOL0     H39595   5.536   7.520   0.842  3.7598  0.6813  1.3680
  300MOL0     H39596   5.707   7.577   0.600  0.4984  0.8582 -0.0441
  300MOL0     H39597   5.717   7.669   0.748 -1.2515  0.0493 -0.4923
  300MOL0     H39598   5.896   7.276   0.806 -0.4024 -0.4576 -1.7121
  300MOL0     H39599   5.068   7.504   0.702 -0.5332  0.1827  1.7582
  300MOL0     H39600   4.841   7.504   0.697  2.0133 -0.4699  2.3667
  301MOL0     O39601   0.974   9.241   4.708 -0.5870 -0.4336 -0.1225
  301MOL0     C39602   1.067   9.184   4.763 -0.5169  0.5502  0.5426
  301MOL0     O39603   1.067   9.115   4.876  0.7431  0.0796 -0.4185
  301MOL0     C39604   0.954   9.081   4.944 -0.1515 -0.3333  0.4732
  301MOL0     C39605   0.842   9.023   4.878 -0.5839  0.5256 -0.0351
  301MOL0     C39606   0.731   8.983   4.958 -0.0452 -0.1934  0.3833
  301MOL0     C39607   0.734   9.004   5.100 -0.0707 -0.1309 -0.4423
  301MOL0     O39608   0.617   8.985   5.176 -0.6322  0.5705 -0.4904
  301MOL0     C39609   0.630   9.024   5.312  0.2515  0.7232  0.0574
  301MOL0     C39610   0.507   8.970   5.383  1.2681  0.3410  0.2823
  301MOL0     C39611   0.371   9.010   5.327 -0.6809  0.9420 -0.0647
  301MOL0     C39612   0.343   9.160   5.336 -0.2034 -0.0182 -0.5220
  301MOL0     C39613   0.205   9.207   5.294 -0.5696 -0.1615 -0.0526
  301MOL0     C39614   0.182   9.348   5.357  0.0940  0.2200  0.7709
  301MOL0     C39615   0.071   9.423   5.283  0.8804 -0.5812  0.2500
  301MOL0     C39616  -0.065   9.350   5.288 -0.6959 -0.1145  0.1533
  301MOL0     N39617  -0.132   9.359   5.420 -0.1767  0.3538  0.3931
  301MOL0     C39618  -0.187   9.474   5.477  0.4244  0.3286 -0.6029
  301MOL0     C39619  -0.183   9.449   5.611  0.8572 -0.2549 -0.2503
  301MOL0     C39620  -0.232   9.551   5.718  0.3242  0.1521  0.3191
  301MOL0     C39621  -0.388   9.582   5.713 -0.2509 -0.0018 -0.2174
  301MOL0     C39622  -0.466   9.494   5.809 -0.6440  0.1630 -0.1033
  301MOL0     C39623  -0.614   9.496   5.778 -0.1001  0.8272 -0.2699
  301MOL0     O39624  -0.642   9.486   5.634  0.4712 -0.6322  0.8056
  301MOL0     C39625  -0.765   9.432   5.600  0.4041 -0.3512 -0.3286
  301MOL0     C39626  -0.880   9.466   5.672 -0.0445  0.7649  0.0524
  301MOL0     C39627  -0.997   9.411   5.624  0.3042  1.3802 -0.9307
  301MOL0     C39628  -1.011   9.327   5.515  0.5281 -0.3602  0.2974
  301MOL0     C39629  -1.143   9.272   5.474  0.6019 -0.3431 -0.1239
  301MOL0     O39630  -1.155   9.229   5.348 -0.3768  0.2746 -0.1290
  301MOL0     C39631  -1.268   9.156   5.306 -0.9348 -0.3110  0.8170
  301MOL0     C39632  -1.329   9.067   5.388  0.3308  0.7275 -0.8225
  301MOL0     C39633  -1.433   8.984   5.339 -0.1792 -0.2149 -0.2742
  301MOL0     C39634  -1.476   8.990   5.205  0.1181  0.1269  0.3782
  301MOL0     O39635  -1.571   8.905   5.169 -0.0345 -0.4177 -0.5503
  301MOL0     C39636  -1.599   8.881   5.028 -1.1748  0.4305  0.3403
  301MOL0     C39637  -1.681   8.749   5.016 -0.3634 -0.2282  0.0899
  301MOL0     C39638  -1.834   8.778   5.035 -0.1463  0.3662  0.2708
  301MOL0     C39639  -1.916   8.657   5.072  0.1728  0.4017 -0.1069
  301MOL0     C39640  -2.066   8.694   5.106 -0.5800  0.6998  0.2751
  301MOL0     C39641  -2.147   8.746   4.979 -0.0114 -0.7825  0.2441
  301MOL0     C39642  -2.298   8.741   5.009 -0.3655  0.7558 -0.7816
  301MOL0     C39643  -2.381   8.664   4.902 -0.0876 -0.4033 -0.4998
  301MOL0    Cl39644  -2.554   8.706   4.935  0.3366 -0.1560  0.3363
  301MOL0     C39645  -1.405   9.081   5.124  0.4907 -0.1403  0.2639
  301MOL0     C39646  -1.304   9.164   5.173 -0.5823 -0.1180  0.1979
  301MOL0     O39647  -1.236   9.280   5.557  0.3660  0.8499  0.6229
  301MOL0     C39648  -0.891   9.298   5.440  0.1588  1.2250 -0.3822
  301MOL0     C39649  -0.771   9.348   5.486 -0.3236 -0.4905  0.1282
  301MOL0     N39650  -0.151   9.313   5.628 -1.0900 -0.7472 -0.3605
  301MOL0     N39651  -0.109   9.267   5.517  0.5316  0.6347 -0.5708
  301MOL0     C39652   0.855   9.051   5.155 -0.0141 -0.1380 -1.0784
  301MOL0     C39653   0.959   9.089   5.079  0.5774  0.1424  0.0827
  301MOL0     C39654   1.192   9.180   4.682  0.7321 -0.7848 -0.5649
  301MOL0     C39655   1.197   9.233   4.551 -0.0634  0.2757  0.5088
  301MOL0     C39656   1.320   9.229   4.480  0.0508  0.5635  0.6256
  301MOL0     C39657   1.437   9.170   4.530 -0.5267  0.0555  0.9809
  301MOL0     O39658   1.562   9.168   4.462 -0.1970  0.1259 -0.0400
  301MOL0     C39659   1.581   9.245   4.339 -0.8794  0.4228  0.6309
  301MOL0     C39660   1.738   9.236   4.305 -0.1475 -0.3725 -0.2772
  301MOL0     C39661   1.761   9.294   4.164  0.0554  0.0511  0.3996
  301MOL0     C39662   1.916   9.292   4.131 -1.1147 -0.5010  0.7769
  301MOL0     C39663   1.992   9.384   4.215 -0.5202  0.2423 -0.4809
  301MOL0     C39664   2.061   9.450   4.291  0.3345  0.6954  0.0720
  301MOL0     C39665   1.432   9.119   4.661 -0.3634  0.8033 -0.2404
  301MOL0     C39666   1.311   9.126   4.739  0.4971 -0.7280  0.2554
  301MOL0     H39667   0.845   9.022   4.770 -2.0432  1.4103 -0.1010
  301MOL0     H39668   0.638   8.954   4.910 -1.0262  2.1269  0.7648
  301MOL0     H39669   0.632   9.131   5.333  1.6069  0.8998 -0.8811
  301MOL0     H39670   0.716   8.972   5.355 -0.0376 -2.7071 -3.0132
  301MOL0     H39671   0.501   8.996   5.489 -2.4447  0.1786  0.2447
  301MOL0     H39672   0.518   8.862   5.376  1.4715  0.4378 -1.5679
  301MOL0     H39673   0.290   8.961   5.381 -1.1608  0.6191 -1.0429
  301MOL0     H39674   0.377   8.974   5.223  1.5916  0.8300  0.0606
  301MOL0     H39675   0.348   9.189   5.442 -1.9058 -1.5947  0.0477
  301MOL0     H39676   0.417   9.221   5.284  0.0368  2.0568  2.0336
  301MOL0     H39677   0.133   9.139   5.340  1.7098 -3.0664 -0.4543
  301MOL0     H39678   0.203   9.216   5.185 -2.3816 -0.7793 -0.1019
  301MOL0     H39679   0.270   9.412   5.365 -1.7546  2.6933  3.0198
  301MOL0     H39680   0.143   9.334   5.459 -1.6917 -1.0381 -0.0416
  301MOL0     H39681   0.061   9.528   5.311  0.1044 -1.0622  1.9144
  301MOL0     H39682   0.091   9.422   5.176 -0.6375  0.7639 -0.0940
  301MOL0     H39683  -0.054   9.245   5.261  1.1937 -0.0755  0.5894
  301MOL0     H39684  -0.130   9.396   5.213 -0.0818  0.5797  0.0315
  301MOL0     H39685  -0.212   9.566   5.424  2.5013  1.2868 -0.0503
  301MOL0     H39686  -0.187   9.646   5.690  3.0319 -1.3621 -0.8294
  301MOL0     H39687  -0.197   9.533   5.820  1.3616  1.1668  0.1582
  301MOL0     H39688  -0.424   9.579   5.610 -0.9678  0.8007 -0.0030
  301MOL0     H39689  -0.418   9.683   5.743 -1.3433 -0.5736  0.6626
  301MOL0     H39690  -0.431   9.391   5.808  2.5306  1.1095  0.1567
  301MOL0     H39691  -0.445   9.527   5.911  0.8947 -1.7109  0.2436
  301MOL0     H39692  -0.660   9.582   5.827  1.9257  1.2990  0.9014
  301MOL0     H39693  -0.660   9.407   5.824 -0.0406  1.1856  0.4916
  301MOL0     H39694  -0.882   9.533   5.758  1.1564  0.7360  0.1206
  301MOL0     H39695  -1.088   9.442   5.676 -0.3087  0.1063 -1.2027
  301MOL0     H39696  -1.291   9.053   5.488 -0.4373 -0.0005 -0.6189
  301MOL0     H39697  -1.476   8.918   5.413 -1.2783  1.2415  0.4393
  301MOL0     H39698  -1.504   8.868   4.976 -1.8643 -1.8648 -0.4562
  301MOL0     H39699  -1.654   8.965   4.985 -1.3214  0.4528  0.5651
  301MOL0     H39700  -1.640   8.692   5.101 -0.6764 -1.3766 -0.5131
  301MOL0     H39701  -1.650   8.696   4.925  0.6679  1.4546 -0.5842
  301MOL0     H39702  -1.884   8.824   4.950  0.0581  2.4653  1.2393
  301MOL0     H39703  -1.838   8.846   5.120  4.3068 -0.3797  1.3408
  301MOL0     H39704  -1.908   8.603   4.978 -1.2067  0.5443 -0.3267
  301MOL0     H39705  -1.876   8.596   5.154 -2.4000 -0.7702  0.3927
  301MOL0     H39706  -2.064   8.770   5.184  1.7368  0.0080  0.9681
  301MOL0     H39707  -2.116   8.610   5.155 -0.3819  2.1337  3.1233
  301MOL0     H39708  -2.119   8.687   4.891  1.7793  1.0514 -0.5130
  301MOL0     H39709  -2.129   8.853   4.960  1.7315 -0.9915  0.5969
  301MOL0     H39710  -2.304   8.676   5.097  0.0562 -1.7191 -2.4471
  301MOL0     H39711  -2.320   8.846   5.027  0.5928  0.9025 -0.4100
  301MOL0     H39712  -2.363   8.556   4.908  0.1883 -0.5048 -2.6050
  301MOL0     H39713  -2.361   8.692   4.799 -1.0740  2.8070  0.0710
  301MOL0     H39714  -1.439   9.089   5.021  1.0527 -2.0512 -0.1220
  301MOL0     H39715  -1.264   9.239   5.106 -3.0050 -0.5278 -1.8546
  301MOL0     H39716  -0.894   9.239   5.348  0.4490 -0.7734  0.8446
  301MOL0     H39717  -0.678   9.321   5.437 -0.9072 -0.8533 -0.8023
  301MOL0     H39718   0.874   9.071   5.260  0.9711  1.8557 -1.5840
  301MOL0     H39719   1.047   9.130   5.128 -0.7671  0.6021  2.2344
  301MOL0     H39720   1.108   9.266   4.499  0.5139 -0.8757 -1.2915
  301MOL0     H39721   1.318   9.277   4.382  0.9553  1.4027  0.9976
  301MOL0     H39722   1.544   9.347   4.354 -2.5213  0.0366 -0.5470
  301MOL0     H39723   1.518   9.208   4.258  0.5146 -0.7769  0.0528
  301MOL0     H39724   1.791   9.297   4.379  0.4593  0.6604 -1.5312
  301MOL0     H39725   1.767   9.131   4.296  2.8514  0.5674 -3.9229
  301MOL0     H39726   1.716   9.392   4.151  1.4726  0.6849  0.0444
  301MOL0     H39727   1.705   9.225   4.101  0.8051 -1.9812  1.8482
  301MOL0     H39728   1.964   9.195   4.144  2.9689  0.7698 -2.5499
  301MOL0     H39729   1.928   9.319   4.026  1.2017  2.2261  1.6123
  301MOL0     H39730   2.101   9.515   4.365 -0.7233 -1.6530  2.8949
  301MOL0     H39731   1.526   9.089   4.706 -1.9961 -0.4048  2.6222
  301MOL0     H39732   1.299   9.107   4.845  2.4162  0.9162  0.8105
  302MOL0     O39733  10.195   4.615   9.582  0.0110 -0.4714 -0.3429
  302MOL0     C39734  10.175   4.652   9.698  0.2860  0.2386 -0.2905
  302MOL0     O39735  10.054   4.680   9.752 -0.1658 -0.3201 -0.2906
  302MOL0     C39736   9.951   4.636   9.675 -0.1389  0.7520 -0.1442
  302MOL0     C39737   9.884   4.517   9.708  0.2402  0.7391  0.0332
  302MOL0     C39738   9.779   4.458   9.627 -0.9223 -0.8999 -0.3940
  302MOL0     C39739   9.740   4.531   9.514  0.1822 -0.6869 -0.0397
  302MOL0     O39740   9.638   4.499   9.432 -0.9960 -0.0487 -0.3872
  302MOL0     C39741   9.606   4.359   9.413  0.7247  0.3833  0.6210
  302MOL0     C39742   9.537   4.336   9.275 -0.0255  0.1993  0.1967
  302MOL0     C39743   9.403   4.416   9.259 -0.1601 -0.2475  0.5937
  302MOL0     C39744   9.376   4.444   9.113  0.5738  0.4285  0.4667
  302MOL0     C39745   9.239   4.503   9.092  0.4020  0.1367  0.2697
  302MOL0     C39746   9.215   4.521   8.934 -0.0977  1.2802 -0.5646
  302MOL0     C39747   9.080   4.574   8.909  0.3174  0.8240 -0.0895
  302MOL0     C39748   9.048   4.595   8.763 -0.6219  0.0505  0.0083
  302MOL0     N39749   8.916   4.641   8.733 -0.5884 -0.4222  0.0891
  302MOL0     C39750   8.858   4.747   8.799 -0.2291  0.2379  0.0787
  302MOL0     C39751   8.739   4.758   8.742  1.0107 -0.7784  0.0230
  302MOL0     C39752   8.646   4.870   8.782 -0.1540 -0.3127 -0.3130
  302MOL0     C39753   8.539   4.855   8.897  0.4475 -0.0840 -0.0410
  302MOL0     C39754   8.482   4.994   8.936 -0.0374 -0.4877  0.3309
  302MOL0     C39755   8.389   4.972   9.050 -0.3207 -0.1445 -0.7448
  302MOL0     O39756   8.296   5.085   9.048  0.4250 -0.1898  0.0037
  302MOL0     C39757   8.176   5.064   9.106  0.7454  0.0344  0.6299
  302MOL0     C39758   8.137   4.949   9.179  0.3018  0.2439  0.5954
  302MOL0     C39759   8.003   4.926   9.229  0.1516  0.4258  0.1534
  302MOL0     C39760   7.899   5.017   9.207  0.1000  1.0563 -0.7627
  302MOL0     C39761   7.765   5.003   9.275  0.4327  0.3890  0.0411
  302MOL0     O39762   7.654   5.029   9.195  0.1635  0.3415  0.2024
  302MOL0     C39763   7.526   5.033   9.251  0.1222  0.3007 -0.4077
  302MOL0     C39764   7.493   5.057   9.388  0.2524 -0.2976 -0.1982
  302MOL0     C39765   7.360   5.047   9.436  0.3558  0.1185  0.2656
  302MOL0     C39766   7.261   5.000   9.347  0.5379 -0.1682  0.2652
  302MOL0     O39767   7.130   4.978   9.382 -0.1376 -0.7049  0.4963
  302MOL0     C39768   7.058   5.105   9.424 -0.1127  0.2675  0.0561
  302MOL0     C39769   6.931   5.140   9.343 -1.1147 -0.0592  0.3009
  302MOL0     C39770   6.804   5.062   9.377 -0.2902  0.6474 -0.1049
  302MOL0     C39771   6.673   5.117   9.313 -0.0640  0.3294  0.4644
  302MOL0     C39772   6.554   5.020   9.329  0.8269 -0.2296  0.2424
  302MOL0     C39773   6.432   5.075   9.251 -0.0590 -0.5592 -0.8645
  302MOL0     C39774   6.314   4.967   9.267 -0.1066 -0.8551 -0.3446
  302MOL0     C39775   6.180   5.017   9.201  0.8448 -0.2018 -0.1082
  302MOL0    Cl39776   6.081   4.862   9.187  0.1908  0.4364  0.3263
  302MOL0     C39777   7.294   4.991   9.217 -0.6712  0.2565  1.1818
  302MOL0     C39778   7.423   5.009   9.168 -0.0448  0.1459 -0.1529
  302MOL0     O39779   7.770   4.976   9.396 -0.1662 -0.5101 -0.3161
  302MOL0     C39780   7.936   5.126   9.127 -0.1615 -0.1335  0.7033
  302MOL0     C39781   8.068   5.149   9.077 -0.0739 -0.3518  0.1890
  302MOL0     N39782   8.731   4.675   8.631  0.0583  0.6605 -0.2484
  302MOL0     N39783   8.845   4.614   8.622 -0.3286  0.6007 -0.3400
  302MOL0     C39784   9.804   4.651   9.486 -0.1598  0.9144  0.4178
  302MOL0     C39785   9.908   4.707   9.562 -0.0161  0.2227  0.5154
  302MOL0     C39786  10.281   4.694   9.783  0.4713 -0.3818 -0.2135
  302MOL0     C39787  10.265   4.699   9.921 -0.3330 -0.6621  0.0705
  302MOL0     C39788  10.372   4.744  10.000 -0.2639 -0.2023  0.3597
  302MOL0     C39789  10.485   4.797   9.943  0.1482  0.0667 -0.8284
  302MOL0     O39790  10.571   4.855  10.025 -0.2059 -0.4249  0.5164
  302MOL0     C39791  10.711   4.877   9.988  0.3367  0.1498 -0.7678
  302MOL0     C39792  10.793   4.740   9.969 -0.2130  0.3258 -0.0731
  302MOL0     C39793  10.902   4.747   9.874 -0.4117  0.0813  0.3723
  302MOL0     C39794  11.021   4.845   9.912 -0.4776 -0.6096  0.8397
  302MOL0     C39795  11.085   4.812  10.037 -0.5447 -1.4578  0.9210
  302MOL0     C39796  11.117   4.813  10.152 -0.6365  0.1367 -0.1735
  302MOL0     C39797  10.504   4.783   9.807 -0.0499  0.8015 -0.0333
  302MOL0     C39798  10.402   4.730   9.726  0.8073  0.2338  0.1358
  302MOL0     H39799   9.922   4.448   9.783 -0.9549 -0.3410 -0.3185
  302MOL0     H39800   9.744   4.357   9.643 -0.2781 -1.0769 -0.0492
  302MOL0     H39801   9.535   4.330   9.491  0.4741 -0.1747  0.1940
  302MOL0     H39802   9.692   4.293   9.400 -0.1477 -0.2353 -3.3273
  302MOL0     H39803   9.519   4.228   9.273  0.3466  0.1486 -0.3260
  302MOL0     H39804   9.610   4.360   9.198  1.2383 -3.4754  0.0546
  302MOL0     H39805   9.417   4.511   9.310 -0.4515  1.5574 -2.4472
  302MOL0     H39806   9.323   4.364   9.313 -0.0186  1.3786  2.4730
  302MOL0     H39807   9.451   4.512   9.072 -0.0966  2.2795  2.1979
  302MOL0     H39808   9.387   4.344   9.070  3.6475  0.4613  0.9530
  302MOL0     H39809   9.230   4.597   9.147 -2.9641  0.0467  0.0375
  302MOL0     H39810   9.164   4.437   9.136 -0.8788  2.1375  1.2301
  302MOL0     H39811   9.211   4.416   8.902  1.6805  2.2207 -4.4489
  302MOL0     H39812   9.292   4.579   8.882  0.4283  1.1960  0.1108
  302MOL0     H39813   9.008   4.508   8.960 -0.4619  1.0597 -0.8577
  302MOL0     H39814   9.076   4.670   8.961  1.7662  1.2682 -0.7650
  302MOL0     H39815   9.058   4.502   8.707  1.6465 -0.1905  0.7262
  302MOL0     H39816   9.122   4.663   8.720 -0.3231 -1.5243 -2.1391
  302MOL0     H39817   8.896   4.803   8.884 -0.4895  2.8370 -1.4223
  302MOL0     H39818   8.596   4.902   8.690 -1.7436 -2.5472 -0.3125
  302MOL0     H39819   8.707   4.955   8.814  0.9317 -0.5712 -1.6148
  302MOL0     H39820   8.579   4.800   8.983 -1.4073  1.9467  2.2868
  302MOL0     H39821   8.452   4.796   8.866  0.3569 -0.7649  1.4332
  302MOL0     H39822   8.558   5.067   8.964  0.3969 -0.8025 -0.0115
  302MOL0     H39823   8.431   5.032   8.848  2.1668  3.7940  0.6416
  302MOL0     H39824   8.445   4.961   9.143  0.3103 -1.7621 -1.2762
  302MOL0     H39825   8.336   4.878   9.037  1.9276 -1.8494  1.5683
  302MOL0     H39826   8.215   4.882   9.212 -0.9077 -2.0013 -0.9072
  302MOL0     H39827   7.972   4.835   9.281  0.7043  0.3816  0.4042
  302MOL0     H39828   7.563   5.093   9.463  0.0822  1.0152 -0.6340
  302MOL0     H39829   7.344   5.078   9.539  1.5589 -0.5758  0.6784
  302MOL0     H39830   7.123   5.192   9.430  0.0152  0.1581  0.2446
  302MOL0     H39831   7.034   5.069   9.524 -1.7272 -2.9160 -1.3082
  302MOL0     H39832   6.945   5.142   9.234 -1.1558 -0.1888  0.2935
  302MOL0     H39833   6.899   5.244   9.357 -1.4499 -0.3110  1.4734
  302MOL0     H39834   6.790   5.059   9.485 -0.9947  3.8417  0.0001
  302MOL0     H39835   6.811   4.963   9.331 -1.5318 -0.5611  2.1462
  302MOL0     H39836   6.650   5.208   9.369 -0.9604 -0.4066  1.3120
  302MOL0     H39837   6.702   5.149   9.212 -0.4252  0.9924  0.5692
  302MOL0     H39838   6.553   5.008   9.437  3.6915  0.9377  0.4837
  302MOL0     H39839   6.577   4.922   9.285 -0.9355 -1.7402  2.4639
  302MOL0     H39840   6.450   5.090   9.144 -0.3662 -0.2524 -0.8739
  302MOL0     H39841   6.400   5.169   9.297 -0.3448 -0.7914 -0.5814
  302MOL0     H39842   6.341   4.872   9.219 -0.2158 -0.4859 -1.1538
  302MOL0     H39843   6.298   4.956   9.375  1.0693  2.5908  0.3212
  302MOL0     H39844   6.185   5.056   9.100 -0.3890  0.6580  0.1450
  302MOL0     H39845   6.132   5.089   9.268  0.9493 -1.8080  1.8111
  302MOL0     H39846   7.215   4.982   9.143 -0.4651  1.5117  0.7798
  302MOL0     H39847   7.432   4.992   9.062  0.7803 -1.3343  0.1333
  302MOL0     H39848   7.858   5.201   9.115  0.3583  0.4924  1.2381
  302MOL0     H39849   8.088   5.245   9.030  0.3619 -1.1902 -1.4273
  302MOL0     H39850   9.791   4.692   9.387  2.2938  0.9918  0.0438
  302MOL0     H39851   9.972   4.783   9.517  0.2684 -0.5741 -0.4621
  302MOL0     H39852  10.174   4.666   9.971 -1.0905  2.1232  0.6899
  302MOL0     H39853  10.363   4.748  10.108  0.6694 -1.9278  0.5319
  302MOL0     H39854  10.766   4.937  10.061  0.4702  0.4069 -1.0742
  302MOL0     H39855  10.711   4.927   9.890  0.2886 -3.5518 -2.8341
  302MOL0     H39856  10.827   4.703  10.067 -2.7931  0.6098  1.0078
  302MOL0     H39857  10.719   4.668   9.934  1.3298 -1.6779  0.6020
  302MOL0     H39858  10.868   4.777   9.774 -1.9188 -3.7721 -0.4247
  302MOL0     H39859  10.939   4.647   9.848 -1.2044 -0.1883  0.2671
  302MOL0     H39860  11.095   4.832   9.832  1.2772 -1.7871  2.5782
  302MOL0     H39861  10.991   4.950   9.919  0.2018 -0.4253  1.0403
  302MOL0     H39862  11.143   4.810  10.256  0.4466  0.9110 -0.4138
  302MOL0     H39863  10.587   4.827   9.752  0.0632 -0.2016 -0.6877
  302MOL0     H39864  10.412   4.719   9.618 -2.1553 -0.6033 -0.1547
  303MOL0     O39865   7.951   6.557   3.486  0.0937 -0.3216 -0.4991
  303MOL0     C39866   7.991   6.490   3.389 -0.8451 -0.2111  0.1237
  303MOL0     O39867   7.949   6.362   3.353 -0.0908  0.6306  0.2771
  303MOL0     C39868   7.860   6.300   3.438 -0.0992  0.1038 -1.1559
  303MOL0     C39869   7.909   6.234   3.551 -0.0889  0.2035  0.1739
  303MOL0     C39870   7.824   6.156   3.630 -0.2742  0.0787  0.5553
  303MOL0     C39871   7.687   6.139   3.594  0.1288 -0.4601 -0.6527
  303MOL0     O39872   7.603   6.047   3.659  0.1757 -0.1465 -0.3759
  303MOL0     C39873   7.646   5.984   3.783 -1.2203 -0.2333 -1.0218
  303MOL0     C39874   7.523   5.903   3.844  0.1072 -0.2806  0.0227
  303MOL0     C39875   7.453   5.819   3.740  0.1286 -0.6458 -0.1712
  303MOL0     C39876   7.343   5.722   3.797 -0.4848 -0.3809  0.7461
  303MOL0     C39877   7.266   5.661   3.687 -0.0452 -0.1539  0.7090
  303MOL0     C39878   7.353   5.549   3.610 -0.1977 -0.2879 -0.0989
  303MOL0     C39879   7.312   5.525   3.460 -0.3198 -0.9127 -0.4004
  303MOL0     C39880   7.157   5.519   3.445  0.3633 -1.3229  0.4983
  303MOL0     N39881   7.104   5.400   3.515 -0.3288 -0.2711  0.9535
  303MOL0     C39882   7.090   5.275   3.456 -0.7696  0.2224  0.5935
  303MOL0     C39883   7.006   5.213   3.541  0.6241 -0.0995 -0.3730
  303MOL0     C39884   6.982   5.073   3.514 -0.2245  0.6337 -0.3279
  303MOL0     C39885   6.830   5.054   3.506 -0.0986 -0.0167  1.0345
  303MOL0     C39886   6.801   4.934   3.586  0.5732  0.6014 -1.0257
  303MOL0     C39887   6.660   4.883   3.571  0.0326  0.2523  0.0426
  303MOL0     O39888   6.651   4.826   3.436  0.0961  0.2442 -0.4134
  303MOL0     C39889   6.534   4.806   3.372 -0.7773  0.3927  0.0434
  303MOL0     C39890   6.540   4.755   3.245  0.0176 -0.3536  0.3626
  303MOL0     C39891   6.425   4.740   3.168  0.2785  0.4079 -0.0467
  303MOL0     C39892   6.300   4.750   3.226  0.2361 -0.7779  0.7374
  303MOL0     C39893   6.184   4.721   3.138  0.2160  0.1684 -0.3172
  303MOL0     O39894   6.066   4.750   3.196 -0.0538  0.1315 -0.2905
  303MOL0     C39895   5.953   4.742   3.128 -0.2325 -0.2476 -0.3559
  303MOL0     C39896   5.852   4.667   3.179  0.8392  0.7172 -0.0297
  303MOL0     C39897   5.717   4.661   3.123 -0.5854  0.0295 -0.2476
  303MOL0     C39898   5.691   4.730   3.004  0.5178  0.0720 -0.0149
  303MOL0     O39899   5.567   4.712   2.945 -0.0248  0.5637  0.1718
  303MOL0     C39900   5.442   4.726   3.011  0.0772 -0.4085 -0.2904
  303MOL0     C39901   5.425   4.874   3.063  0.5295  0.0155 -0.1629
  303MOL0     C39902   5.422   4.988   2.961 -0.4125 -1.4607  0.0647
  303MOL0     C39903   5.307   4.964   2.853 -0.7188 -0.1049  0.0678
  303MOL0     C39904   5.300   5.095   2.777  0.7337  0.6384  0.0410
  303MOL0     C39905   5.243   5.209   2.869  0.2151 -0.2691  1.2784
  303MOL0     C39906   5.308   5.346   2.843 -0.1856 -0.2965 -0.1699
  303MOL0     C39907   5.433   5.368   2.929  0.4980  0.4167 -1.1602
  303MOL0    Cl39908   5.540   5.486   2.841 -0.1294  0.0854  0.1055
  303MOL0     C39909   5.796   4.796   2.932  0.3381 -0.0996 -0.7175
  303MOL0     C39910   5.923   4.803   2.995  0.4071 -0.5160  0.0653
  303MOL0     O39911   6.197   4.692   3.018  0.0041 -0.2713 -0.6369
  303MOL0     C39912   6.291   4.813   3.351  0.5696  0.4840 -0.4935
  303MOL0     C39913   6.404   4.841   3.422  0.2054  0.1122 -0.3615
  303MOL0     N39914   6.978   5.296   3.653  0.6873 -0.2042  0.1699
  303MOL0     N39915   7.031   5.410   3.626  0.0324  0.3884 -0.1992
  303MOL0     C39916   7.635   6.205   3.480 -0.5526 -0.0302  0.2490
  303MOL0     C39917   7.728   6.277   3.399  0.8160 -0.2288 -0.3564
  303MOL0     C39918   8.078   6.563   3.300  0.0033  0.6169 -0.4711
  303MOL0     C39919   8.119   6.692   3.335  0.1675 -0.5652 -0.0918
  303MOL0     C39920   8.206   6.761   3.254 -0.2806  0.2358  1.0319
  303MOL0     C39921   8.235   6.718   3.128  0.3872  0.5430 -0.4760
  303MOL0     O39922   8.322   6.779   3.046 -0.3594 -0.3156  0.0046
  303MOL0     C39923   8.368   6.913   3.076 -0.4440 -0.0327 -0.7043
  303MOL0     C39924   8.489   6.958   2.992 -0.2849  0.4998  0.6200
  303MOL0     C39925   8.518   7.106   3.000  0.0037 -0.0912 -0.4946
  303MOL0     C39926   8.605   7.130   3.120  1.1988  0.1914 -0.5766
  303MOL0     C39927   8.605   7.275   3.153 -0.1074  0.2850  0.1782
  303MOL0     C39928   8.602   7.399   3.167 -0.2486 -0.3276  0.1355
  303MOL0     C39929   8.197   6.592   3.093 -0.6624  0.0965 -0.2046
  303MOL0     C39930   8.122   6.512   3.175  1.2650 -0.3068 -0.4163
  303MOL0     H39931   8.015   6.251   3.567 -0.2845  1.4737  0.1832
  303MOL0     H39932   7.869   6.101   3.712 -0.6091 -0.1074  0.6158
  303MOL0     H39933   7.665   6.057   3.862 -0.2258 -3.8902  2.4846
  303MOL0     H39934   7.740   5.932   3.763 -0.4641  0.9606 -0.6050
  303MOL0     H39935   7.452   5.975   3.887  0.2276 -0.4953  0.5865
  303MOL0     H39936   7.562   5.844   3.927 -1.5698  1.0059  1.8301
  303MOL0     H39937   7.534   5.763   3.693  0.6674 -1.2074  1.3743
  303MOL0     H39938   7.405   5.885   3.667  0.1473 -2.0861 -1.5304
  303MOL0     H39939   7.397   5.638   3.841  0.5578  0.0327  0.2795
  303MOL0     H39940   7.280   5.772   3.871  1.2299 -1.6744  3.2092
  303MOL0     H39941   7.236   5.742   3.621  1.5842  0.2202  0.3665
  303MOL0     H39942   7.173   5.613   3.716 -0.8874  0.2364 -1.1785
  303MOL0     H39943   7.357   5.460   3.674 -0.1580  1.4953  2.4925
  303MOL0     H39944   7.451   5.597   3.605 -0.1567 -0.1303  1.6758
  303MOL0     H39945   7.356   5.603   3.397 -1.6288  1.8564  1.8402
  303MOL0     H39946   7.351   5.430   3.423  1.5171 -0.2733 -0.2352
  303MOL0     H39947   7.132   5.518   3.338  0.9875  0.8356  0.2836
  303MOL0     H39948   7.111   5.612   3.481  0.1037 -1.0847 -0.4291
  303MOL0     H39949   7.133   5.236   3.364  1.1001  2.1286  0.5931
  303MOL0     H39950   7.042   5.021   3.590  2.6016  0.8531 -2.2374
  303MOL0     H39951   7.025   5.039   3.419 -0.2891  1.4315 -0.6467
  303MOL0     H39952   6.791   5.049   3.403 -2.1945  2.4052  1.6289
  303MOL0     H39953   6.783   5.137   3.559 -1.0798  0.0206  0.1505
  303MOL0     H39954   6.875   4.858   3.560  1.5511  1.6214 -1.3138
  303MOL0     H39955   6.815   4.953   3.693 -0.3578  2.0206 -1.1345
  303MOL0     H39956   6.587   4.960   3.596 -0.4653 -0.6986  1.6644
  303MOL0     H39957   6.630   4.811   3.648 -2.5428 -1.5511 -2.4276
  303MOL0     H39958   6.636   4.738   3.198 -0.6183 -2.1925 -0.3799
  303MOL0     H39959   6.431   4.700   3.067  1.3831  1.4513 -0.4178
  303MOL0     H39960   5.875   4.616   3.273  1.5729  1.5383  0.2515
  303MOL0     H39961   5.637   4.617   3.181 -3.2122  1.4461 -2.5333
  303MOL0     H39962   5.456   4.654   3.092 -1.3540  1.4823  1.7428
  303MOL0     H39963   5.363   4.689   2.945  2.3215 -2.3648 -2.0869
  303MOL0     H39964   5.509   4.895   3.129  1.9694 -1.5257 -1.4160
  303MOL0     H39965   5.339   4.882   3.130  0.9482 -1.9911  0.7020
  303MOL0     H39966   5.518   4.986   2.909  1.7001  0.5655  3.4590
  303MOL0     H39967   5.413   5.083   3.015 -1.8901 -1.8639  0.5953
  303MOL0     H39968   5.347   4.880   2.795  1.6957  1.0930 -0.1229
  303MOL0     H39969   5.212   4.940   2.901 -1.0212  2.7092  1.0516
  303MOL0     H39970   5.239   5.081   2.688 -3.0976 -1.0693  2.6736
  303MOL0     H39971   5.406   5.110   2.754  1.1536 -1.9165  0.0274
  303MOL0     H39972   5.235   5.194   2.977  2.3170  1.3701  1.7412
  303MOL0     H39973   5.146   5.238   2.828  1.3117  2.2247  0.2201
  303MOL0     H39974   5.325   5.361   2.736 -1.2236  2.7052 -0.0317
  303MOL0     H39975   5.238   5.423   2.877  1.9507  1.2243  1.0115
  303MOL0     H39976   5.483   5.271   2.942 -0.4509 -0.2781 -2.4794
  303MOL0     H39977   5.411   5.408   3.029  1.8815  0.6175 -0.9080
  303MOL0     H39978   5.765   4.840   2.837 -1.6392 -0.3266 -0.2294
  303MOL0     H39979   6.001   4.857   2.942 -0.7898  1.4496  0.1761
  303MOL0     H39980   6.189   4.822   3.388 -0.0525  1.5248 -2.2815
  303MOL0     H39981   6.390   4.891   3.517 -2.7627 -0.0737 -0.6002
  303MOL0     H39982   7.532   6.190   3.450  0.3102 -1.7725 -2.1398
  303MOL0     H39983   7.701   6.321   3.304  0.9151 -0.2530 -0.3962
  303MOL0     H39984   8.103   6.752   3.423 -1.1820  0.7462 -1.1730
  303MOL0     H39985   8.232   6.861   3.287  0.3079  1.6484 -3.1724
  303MOL0     H39986   8.403   6.915   3.180 -0.2445 -2.2339 -0.6746
  303MOL0     H39987   8.277   6.971   3.058 -1.2688 -0.0849  2.5666
  303MOL0     H39988   8.570   6.889   3.017 -2.0453 -1.2515  1.7604
  303MOL0     H39989   8.472   6.925   2.889  4.1174 -0.6579  0.0421
  303MOL0     H39990   8.429   7.169   3.012  0.5103  0.7487 -1.0848
  303MOL0     H39991   8.567   7.147   2.912  0.3137  2.1284  0.6326
  303MOL0     H39992   8.568   7.067   3.202  0.4328 -1.5706 -2.2158
  303MOL0     H39993   8.709   7.108   3.099  2.6531  3.1861  2.4763
  303MOL0     H39994   8.605   7.506   3.170  3.0995 -0.2769 -0.9390
  303MOL0     H39995   8.235   6.543   3.004 -1.6712  1.0453 -1.1879
  303MOL0     H39996   8.088   6.417   3.135  0.5189 -0.0001 -0.5282
  304MOL0     O39997   7.615   2.183   3.259  0.4862  0.1887  0.1751
  304MOL0     C39998   7.706   2.120   3.202  0.4656  0.3748 -0.6156
  304MOL0     O39999   7.683   2.047   3.088  0.2876  0.1950  0.2163
  304MOL0     C40000   7.553   2.021   3.031 -0.4943  0.3426  0.8195
  304MOL0     C40001   7.533   2.042   2.896  0.7652  0.6686  0.6455
  304MOL0     C40002   7.404   2.014   2.833  0.0975 -0.2631 -0.9259
  304MOL0     C40003   7.306   1.960   2.914  0.0699 -0.5204  0.3610
  304MOL0     O40004   7.186   1.929   2.843  0.2670 -0.2944  0.7591
  304MOL0     C40005   7.062   1.910   2.913  0.2234  0.2385  0.2435
  304MOL0     C40006   6.945   1.893   2.818 -0.4785  0.5021  0.5036
  304MOL0     C40007   6.821   1.879   2.899  0.1117  0.2853 -1.3993
  304MOL0     C40008   6.699   1.850   2.818  0.1518 -0.4494  1.0033
  304MOL0     C40009   6.562   1.894   2.862  0.9208  0.3750 -0.4946
  304MOL0     C40010   6.522   2.035   2.823  0.9195 -0.4789  0.1459
  304MOL0     C40011   6.371   2.040   2.840  0.4545  1.2264 -0.0379
  304MOL0     C40012   6.295   2.041   2.701  0.4805 -0.4131 -0.8729
  304MOL0     N40013   6.175   2.115   2.728 -0.3826 -0.7868  0.3929
  304MOL0     C40014   6.118   2.203   2.637  0.0802  0.4550  0.0130
  304MOL0     C40015   6.002   2.243   2.688  0.2079 -0.4757 -0.4118
  304MOL0     C40016   5.911   2.350   2.633 -0.3717 -0.1219  0.2633
  304MOL0     C40017   5.770   2.299   2.612 -0.3992 -0.6247  0.8709
  304MOL0     C40018   5.757   2.197   2.504  0.2257 -0.0738 -0.0610
  304MOL0     C40019   5.615   2.155   2.465 -0.5801 -0.3904  0.8610
  304MOL0     O40020   5.550   2.266   2.405 -0.1003 -1.0153  0.1794
  304MOL0     C40021   5.418   2.248   2.365  0.2099 -0.0228 -0.1376
  304MOL0     C40022   5.376   2.326   2.260  0.0871  0.1377  0.6533
  304MOL0     C40023   5.250   2.320   2.217 -0.4093 -0.0366  0.1719
  304MOL0     C40024   5.158   2.243   2.278  0.0119 -0.1098 -0.5983
  304MOL0     C40025   5.019   2.243   2.240  0.0089 -0.2146  0.0132
  304MOL0     O40026   4.994   2.275   2.108  0.5430  0.3563 -0.1872
  304MOL0     C40027   4.862   2.285   2.068  0.1440  0.0599 -0.5788
  304MOL0     C40028   4.769   2.397   2.078 -0.0223  0.0631  0.0654
  304MOL0     C40029   4.632   2.396   2.019  0.0150 -0.1239  0.2024
  304MOL0     C40030   4.593   2.273   1.958 -1.0378 -0.2083  0.1134
  304MOL0     O40031   4.470   2.288   1.899 -0.4098  0.3425 -0.7234
  304MOL0     C40032   4.417   2.189   1.809  0.6531  1.5116  0.0307
  304MOL0     C40033   4.317   2.254   1.707 -0.0408  0.2133  0.0709
  304MOL0     C40034   4.173   2.267   1.763  0.3337 -0.4874  0.6545
  304MOL0     C40035   4.073   2.335   1.670  0.4910  0.8918 -0.5380
  304MOL0     C40036   3.991   2.238   1.578 -0.3494  1.0334  0.7275
  304MOL0     C40037   3.864   2.185   1.656 -0.8587  0.3418  0.1412
  304MOL0     C40038   3.798   2.062   1.591 -0.4894  0.3954  0.5172
  304MOL0     C40039   3.669   2.029   1.665  0.0401 -0.1602 -0.4717
  304MOL0    Cl40040   3.587   1.889   1.588 -0.1730  0.2265  0.5610
  304MOL0     C40041   4.686   2.164   1.944  0.1353 -0.6346 -0.3987
  304MOL0     C40042   4.818   2.175   1.995  0.3976  0.7709  0.0546
  304MOL0     O40043   4.932   2.218   2.325  0.5165  0.0306 -0.3410
  304MOL0     C40044   5.195   2.167   2.390  0.2165 -0.0518 -0.2158
  304MOL0     C40045   5.326   2.167   2.438  0.5898 -0.1779 -0.1157
  304MOL0     N40046   5.987   2.183   2.812 -0.4788  0.6437  0.0373
  304MOL0     N40047   6.080   2.098   2.828 -0.4482  0.1508  0.0803
  304MOL0     C40048   7.327   1.947   3.044 -0.4560 -0.2233 -0.0010
  304MOL0     C40049   7.446   1.972   3.109 -0.5024  0.6823 -0.1960
  304MOL0     C40050   7.840   2.115   3.261  0.5118  0.1674  0.4312
  304MOL0     C40051   7.930   2.009   3.223  0.3659 -0.2189 -0.0940
  304MOL0     C40052   8.057   2.006   3.282 -0.9064 -0.3194  0.3231
  304MOL0     C40053   8.106   2.114   3.353 -0.2841 -0.5430  0.0027
  304MOL0     O40054   8.242   2.115   3.377  0.5249 -0.2244  0.2677
  304MOL0     C40055   8.311   2.217   3.452 -0.0304 -0.1314 -0.1066
  304MOL0     C40056   8.457   2.177   3.481 -0.0114 -0.8733 -0.3762
  304MOL0     C40057   8.525   2.296   3.544 -0.0953  0.2647  0.7906
  304MOL0     C40058   8.672   2.266   3.574 -0.1084 -0.0961 -0.9674
  304MOL0     C40059   8.690   2.166   3.681 -0.4323 -0.5418 -0.4600
  304MOL0     C40060   8.696   2.084   3.773  0.4310 -1.0759 -0.2957
  304MOL0     C40061   8.022   2.219   3.385 -0.2175 -0.5104  0.6574
  304MOL0     C40062   7.892   2.214   3.342  0.2286 -0.5866  0.0686
  304MOL0     H40063   7.619   2.071   2.836  1.1390  1.2675  1.4424
  304MOL0     H40064   7.385   2.020   2.726 -2.3051 -0.4995 -0.5615
  304MOL0     H40065   7.045   2.000   2.973  1.2211  0.4181  0.2788
  304MOL0     H40066   7.067   1.823   2.980 -3.6879 -0.4136 -0.0975
  304MOL0     H40067   6.962   1.809   2.751  1.9524  0.3404  1.2069
  304MOL0     H40068   6.923   1.983   2.758 -1.3373 -0.6733 -1.0081
  304MOL0     H40069   6.814   1.969   2.961 -2.2753 -0.0897 -1.0371
  304MOL0     H40070   6.837   1.800   2.974  0.4693 -0.8843 -2.6683
  304MOL0     H40071   6.705   1.908   2.726 -1.1750 -1.7956  0.0261
  304MOL0     H40072   6.686   1.745   2.793 -1.3213 -0.3591  1.2724
  304MOL0     H40073   6.549   1.886   2.971  0.1066 -4.0133 -0.7260
  304MOL0     H40074   6.482   1.835   2.818 -2.0017  2.4706  1.6391
  304MOL0     H40075   6.551   2.060   2.720  3.5327 -0.4214  0.8171
  304MOL0     H40076   6.578   2.108   2.882  3.8093 -2.1284 -0.3597
  304MOL0     H40077   6.331   1.956   2.898 -0.4869  3.0019  2.0520
  304MOL0     H40078   6.332   2.126   2.897 -1.2271  0.2609  0.3505
  304MOL0     H40079   6.251   1.945   2.671  1.1936 -1.4800  1.2757
  304MOL0     H40080   6.343   2.098   2.621 -1.0571  3.7482  0.9351
  304MOL0     H40081   6.162   2.258   2.554  0.7577 -1.9314 -1.3206
  304MOL0     H40082   5.953   2.387   2.538  0.7840 -2.3133 -0.1501
  304MOL0     H40083   5.906   2.434   2.703  2.0765 -0.4036  0.8894
  304MOL0     H40084   5.705   2.380   2.578 -2.3216 -2.3466  0.2464
  304MOL0     H40085   5.730   2.259   2.705 -2.4550  1.3913  0.9499
  304MOL0     H40086   5.815   2.223   2.415  2.0853  2.3069  1.7074
  304MOL0     H40087   5.811   2.111   2.545  0.1659  1.1232  2.8198
  304MOL0     H40088   5.570   2.116   2.557 -1.8171 -0.4971  0.2431
  304MOL0     H40089   5.621   2.069   2.398 -0.6752  0.1739  0.1114
  304MOL0     H40090   5.441   2.395   2.207  1.5640 -2.1591 -0.6948
  304MOL0     H40091   5.209   2.385   2.139 -0.8527  1.7463  1.8050
  304MOL0     H40092   4.800   2.480   2.142  0.9256  0.9533 -1.4920
  304MOL0     H40093   4.557   2.474   2.015 -1.1860 -1.2722 -0.5520
  304MOL0     H40094   4.362   2.111   1.862  1.0161  0.2534 -1.3816
  304MOL0     H40095   4.493   2.134   1.753 -0.1102 -0.5554  0.9374
  304MOL0     H40096   4.320   2.199   1.612 -0.0241  2.5944 -1.3868
  304MOL0     H40097   4.359   2.354   1.696 -0.5058  0.7876  2.9723
  304MOL0     H40098   4.175   2.328   1.853 -3.8407 -0.8450  1.1891
  304MOL0     H40099   4.137   2.165   1.780  0.2345 -0.7289 -0.8512
  304MOL0     H40100   4.000   2.392   1.729 -1.2157 -1.8460  0.2131
  304MOL0     H40101   4.118   2.413   1.608  0.1227  1.5305 -0.0249
  304MOL0     H40102   4.060   2.157   1.552 -1.2265  0.1279  1.1723
  304MOL0     H40103   3.963   2.286   1.484  0.0199  1.1884  0.6955
  304MOL0     H40104   3.789   2.258   1.686  0.2960  0.8984  1.8096
  304MOL0     H40105   3.904   2.132   1.744  0.3420 -3.6847 -2.5268
  304MOL0     H40106   3.783   2.080   1.484  1.1314  1.2079  0.4088
  304MOL0     H40107   3.868   1.979   1.605 -0.8057  0.1671  0.7599
  304MOL0     H40108   3.607   2.119   1.661  1.4592  0.9310  0.8290
  304MOL0     H40109   3.699   2.006   1.767  0.8471  3.6982  0.3256
  304MOL0     H40110   4.662   2.064   1.909 -2.4728 -0.3351  0.3462
  304MOL0     H40111   4.885   2.090   1.989 -1.0665 -0.4672  0.6821
  304MOL0     H40112   5.118   2.111   2.443  0.5976 -0.4522 -0.0851
  304MOL0     H40113   5.357   2.114   2.528 -0.4213  0.4637  0.6239
  304MOL0     H40114   7.247   1.907   3.106 -0.5311  0.5752  0.4237
  304MOL0     H40115   7.451   1.952   3.216 -1.0678 -1.8586 -0.5739
  304MOL0     H40116   7.906   1.938   3.144 -2.2966  1.6192 -1.1015
  304MOL0     H40117   8.120   1.923   3.253  1.5089  0.8300  1.8785
  304MOL0     H40118   8.261   2.237   3.547  3.0348  0.7231  1.4430
  304MOL0     H40119   8.318   2.306   3.389  0.4609  0.6998  1.0888
  304MOL0     H40120   8.447   2.092   3.549 -1.2797 -0.8420 -0.4874
  304MOL0     H40121   8.510   2.143   3.392  0.3849  0.3126 -0.6099
  304MOL0     H40122   8.469   2.328   3.632 -0.7176 -0.3651  0.6316
  304MOL0     H40123   8.517   2.376   3.470 -0.8393 -0.6787 -0.1876
  304MOL0     H40124   8.730   2.247   3.483 -0.3915 -1.8306 -0.8181
  304MOL0     H40125   8.718   2.356   3.616 -1.6083 -0.8163  2.5474
  304MOL0     H40126   8.701   1.994   3.831  4.2204 -2.4424 -2.3890
  304MOL0     H40127   8.060   2.306   3.438  1.7239 -1.5896  1.1623
  304MOL0     H40128   7.821   2.294   3.363 -0.1526 -0.7469 -0.5842
  305MOL0     O40129   5.535   0.996  10.941  1.0383  0.0327 -0.2248
  305MOL0     C40130   5.605   1.064  11.018 -0.2385  0.3072  0.1286
  305MOL0     O40131   5.565   1.128  11.132 -0.2543 -0.3336  0.3137
  305MOL0     C40132   5.427   1.129  11.156 -0.0625  0.7238  0.0837
  305MOL0     C40133   5.354   1.248  11.151 -0.4493 -0.2421 -0.0728
  305MOL0     C40134   5.218   1.241  11.146 -0.6586 -0.8849 -0.2627
  305MOL0     C40135   5.150   1.115  11.153 -0.2525 -0.1242 -0.1766
  305MOL0     O40136   5.011   1.120  11.145 -0.1685  0.6314  0.0942
  305MOL0     C40137   4.935   1.014  11.199 -0.0158 -0.5997 -0.1466
  305MOL0     C40138   4.797   1.061  11.258 -0.7666 -0.1667  0.4813
  305MOL0     C40139   4.706   1.088  11.139  0.7617 -0.1850 -0.3866
  305MOL0     C40140   4.562   1.120  11.204  0.3178 -0.1586 -0.2469
  305MOL0     C40141   4.460   1.167  11.111 -0.4121  0.5064 -0.7266
  305MOL0     C40142   4.327   1.145  11.166  0.4166  0.4404  0.2370
  305MOL0     C40143   4.209   1.182  11.076  0.4142  0.7011  0.4477
  305MOL0     C40144   4.188   1.076  10.963  0.1859  0.4757 -1.1838
  305MOL0     N40145   4.125   0.956  11.029 -1.0671 -0.3133  0.1051
  305MOL0     C40146   3.992   0.937  11.049  0.6369  0.9426  0.0102
  305MOL0     C40147   3.975   0.809  11.085 -0.4551  0.2124 -0.1514
  305MOL0     C40148   3.845   0.747  11.128  0.2991 -0.4516  0.0171
  305MOL0     C40149   3.843   0.751  11.278 -0.6751 -0.7354 -0.4218
  305MOL0     C40150   3.700   0.734  11.327  0.1792  0.4803  0.4219
  305MOL0     C40151   3.639   0.602  11.270  0.2178  0.3917 -0.4912
  305MOL0     O40152   3.536   0.546  11.357 -0.4890  0.2126  0.2699
  305MOL0     C40153   3.409   0.605  11.370  0.0436  0.5997 -0.1480
  305MOL0     C40154   3.312   0.546  11.455 -0.5771  0.9596  0.4438
  305MOL0     C40155   3.193   0.607  11.491  0.2443 -1.3138 -0.1882
  305MOL0     C40156   3.157   0.737  11.428 -0.0706  0.1501  0.0218
  305MOL0     C40157   3.031   0.797  11.464  0.1651  0.3521  0.1475
  305MOL0     O40158   2.929   0.714  11.501  0.4313 -0.1702 -0.6276
  305MOL0     C40159   2.798   0.750  11.529  0.5969  0.1527 -0.3341
  305MOL0     C40160   2.740   0.877  11.507 -0.5325 -0.5221 -1.2353
  305MOL0     C40161   2.608   0.900  11.543 -0.0939 -0.7328  0.2307
  305MOL0     C40162   2.520   0.799  11.588 -0.7800  0.2939 -0.4745
  305MOL0     O40163   2.385   0.806  11.620  0.1005  0.0758  0.1762
  305MOL0     C40164   2.325   0.936  11.623  0.0114  0.1623 -0.1624
  305MOL0     C40165   2.187   0.902  11.681  0.6302  0.1642 -0.5031
  305MOL0     C40166   2.103   1.026  11.701  0.0045  0.0877 -0.2579
  305MOL0     C40167   1.975   0.977  11.762 -0.1127  0.9295 -0.4032
  305MOL0     C40168   1.987   0.915  11.900  0.4277 -0.4344 -0.3086
  305MOL0     C40169   1.851   0.854  11.942 -0.2070 -0.4312 -0.5292
  305MOL0     C40170   1.740   0.959  11.958 -0.4560 -0.3704  0.2263
  305MOL0     C40171   1.610   0.910  12.017  0.4061  0.9236 -0.6787
  305MOL0    Cl40172   1.500   0.812  11.918 -0.0748  0.1606  0.0259
  305MOL0     C40173   2.578   0.677  11.607  0.1808 -0.5741 -1.1252
  305MOL0     C40174   2.712   0.651  11.579 -0.1223 -0.8315  0.1182
  305MOL0     O40175   3.021   0.922  11.440  0.7150  0.1492  0.6230
  305MOL0     C40176   3.254   0.790  11.337  0.7167 -0.8761  0.4055
  305MOL0     C40177   3.372   0.732  11.310 -0.0928 -0.5865 -0.6818
  305MOL0     N40178   4.099   0.747  11.084  0.1557 -0.1140  0.6576
  305MOL0     N40179   4.187   0.834  11.051 -0.2355  0.4036  0.6492
  305MOL0     C40180   5.226   0.998  11.165  0.1914  0.8062 -0.8349
  305MOL0     C40181   5.361   1.006  11.171  0.6568  0.2090  0.5187
  305MOL0     C40182   5.748   1.075  10.988 -0.6332 -0.8023  0.0415
  305MOL0     C40183   5.805   1.038  10.862 -0.4160 -0.1675  0.3001
  305MOL0     C40184   5.934   1.081  10.823 -0.2465 -0.2803 -0.4157
  305MOL0     C40185   6.017   1.144  10.921 -0.6353 -0.0826  0.0147
  305MOL0     O40186   6.153   1.182  10.896  0.0511  0.0488  0.0715
  305MOL0     C40187   6.220   1.106  10.800 -0.1429  0.0960  0.1897
  305MOL0     C40188   6.375   1.120  10.825 -0.0987  0.0917 -0.0140
  305MOL0     C40189   6.456   1.019  10.736 -0.2931  0.1092  0.2429
  305MOL0     C40190   6.467   1.077  10.601  0.9438  0.3535 -0.6098
  305MOL0     C40191   6.530   0.979  10.514 -0.3729  0.2997  0.4572
  305MOL0     C40192   6.586   0.900  10.445 -0.0215 -0.1880  0.3484
  305MOL0     C40193   5.962   1.184  11.044 -0.1324 -0.3540  1.4226
  305MOL0     C40194   5.823   1.149  11.074 -0.1792 -0.2677 -0.8114
  305MOL0     H40195   5.398   1.347  11.139 -0.4059  0.1193  2.5951
  305MOL0     H40196   5.153   1.326  11.128  0.7532 -0.0019 -1.4696
  305MOL0     H40197   4.987   0.978  11.288  0.1494 -0.2171 -0.0859
  305MOL0     H40198   4.928   0.929  11.131  1.2496 -0.4036 -0.5420
  305MOL0     H40199   4.813   1.152  11.317  1.3567  1.1360 -1.8818
  305MOL0     H40200   4.751   0.988  11.325 -0.3003  0.1358  1.1447
  305MOL0     H40201   4.713   0.998  11.077  2.0432 -0.6903  0.4423
  305MOL0     H40202   4.736   1.170  11.074 -0.7230 -1.0256 -2.2304
  305MOL0     H40203   4.530   1.022  11.241  2.2183 -0.8094 -0.2246
  305MOL0     H40204   4.571   1.181  11.294  3.3469 -1.4299  0.4241
  305MOL0     H40205   4.468   1.107  11.020 -3.2561 -2.5988  0.8375
  305MOL0     H40206   4.477   1.273  11.090  2.2447 -0.2406 -2.9511
  305MOL0     H40207   4.318   1.205  11.257 -0.9745  1.9666 -0.8345
  305MOL0     H40208   4.308   1.044  11.203  0.6797  0.5953  0.8056
  305MOL0     H40209   4.120   1.180  11.139  0.1625  0.3503  0.0931
  305MOL0     H40210   4.224   1.279  11.028  1.7192  0.0905 -0.4437
  305MOL0     H40211   4.278   1.061  10.903 -0.2187  3.1147 -2.6687
  305MOL0     H40212   4.113   1.103  10.887 -0.5275  1.1997 -0.2605
  305MOL0     H40213   3.909   1.007  11.049 -2.5817 -2.5304  1.8106
  305MOL0     H40214   3.839   0.638  11.112 -0.6831 -0.3896 -0.1128
  305MOL0     H40215   3.754   0.794  11.089  1.1224  3.8697  2.7089
  305MOL0     H40216   3.873   0.849  11.315 -0.3623 -0.2634 -1.8472
  305MOL0     H40217   3.906   0.674  11.324 -0.8376 -0.6801 -0.1072
  305MOL0     H40218   3.683   0.740  11.434  1.5662  1.3918  0.6225
  305MOL0     H40219   3.645   0.813  11.275  0.9137 -0.2422 -1.5636
  305MOL0     H40220   3.718   0.527  11.269 -0.0698  0.0614  0.4888
  305MOL0     H40221   3.604   0.620  11.167  1.2426  0.3806 -0.8486
  305MOL0     H40222   3.340   0.455  11.505 -0.2008  0.4187 -0.7177
  305MOL0     H40223   3.129   0.550  11.558  2.0649 -1.7500  1.3009
  305MOL0     H40224   2.786   0.963  11.460 -0.6628  0.0349 -0.3669
  305MOL0     H40225   2.569   0.999  11.525  0.9104  0.1796  2.6475
  305MOL0     H40226   2.316   0.980  11.524  2.1168  3.4469  0.9479
  305MOL0     H40227   2.395   1.000  11.678 -1.6579  1.8544  0.0951
  305MOL0     H40228   2.203   0.845  11.773  2.1315  0.3272 -0.6434
  305MOL0     H40229   2.138   0.832  11.612 -0.3414  0.1489  0.1949
  305MOL0     H40230   2.093   1.083  11.608 -1.1478 -0.6597 -0.6142
  305MOL0     H40231   2.160   1.093  11.766 -0.5035  0.9928 -0.7286
  305MOL0     H40232   1.916   1.069  11.772 -1.0734  0.1026  3.2479
  305MOL0     H40233   1.918   0.902  11.706 -3.7690  1.1936  2.5435
  305MOL0     H40234   2.026   0.988  11.972 -0.8551  0.8081 -0.8141
  305MOL0     H40235   2.053   0.828  11.906 -0.2381 -0.8609  1.8689
  305MOL0     H40236   1.877   0.804  12.036  2.2127 -0.7428 -1.2878
  305MOL0     H40237   1.812   0.793  11.860 -0.8956  2.7607 -2.7797
  305MOL0     H40238   1.791   1.035  12.019  1.1454  0.8961 -2.4814
  305MOL0     H40239   1.715   0.992  11.857 -2.6769 -0.9620  0.5254
  305MOL0     H40240   1.561   1.005  12.042  2.6194  2.0503 -0.2988
  305MOL0     H40241   1.645   0.857  12.106  1.7220  1.9401 -0.5583
  305MOL0     H40242   2.523   0.590  11.641 -3.0263  0.9644 -2.0021
  305MOL0     H40243   2.754   0.553  11.597 -1.2953 -1.3774 -0.0081
  305MOL0     H40244   3.247   0.887  11.289 -0.9588  0.0588  2.4016
  305MOL0     H40245   3.442   0.784  11.245 -0.8615  2.3762  0.6929
  305MOL0     H40246   5.187   0.897  11.154 -2.8645  1.6654  0.9309
  305MOL0     H40247   5.414   0.913  11.187  1.4977  0.8104  1.3329
  305MOL0     H40248   5.741   0.992  10.787 -0.6879 -1.1423  1.1031
  305MOL0     H40249   5.968   1.059  10.722 -1.5534 -0.3319 -0.8674
  305MOL0     H40250   6.197   1.127  10.696  1.7327 -0.3619 -0.3592
  305MOL0     H40251   6.203   1.000  10.821  3.0291 -0.2063  1.8113
  305MOL0     H40252   6.405   1.223  10.804 -2.8526  0.8863 -0.4001
  305MOL0     H40253   6.393   1.110  10.932 -0.4395  0.8288  0.1160
  305MOL0     H40254   6.407   0.921  10.736 -4.5877  1.9935 -1.6500
  305MOL0     H40255   6.554   1.007  10.782 -0.7693 -1.3582  0.9215
  305MOL0     H40256   6.370   1.109  10.561  0.6462  0.3151  0.0605
  305MOL0     H40257   6.529   1.167  10.591 -1.2208  1.8716 -1.1304
  305MOL0     H40258   6.624   0.828  10.374 -1.2798  0.3106 -0.8679
  305MOL0     H40259   6.016   1.250  11.110 -1.8202  0.6782  1.8251
  305MOL0     H40260   5.779   1.184  11.167  0.4803  0.3992 -0.7350
  306MOL0     O40261   4.562  10.186   0.126  0.7465  0.0160 -0.0307
  306MOL0     C40262   4.604  10.273   0.207  0.7682 -0.2582  0.9455
  306MOL0     O40263   4.529  10.331   0.306 -0.1213 -0.9832 -0.3080
  306MOL0     C40264   4.410  10.270   0.344 -0.4406 -0.4770 -0.2011
  306MOL0     C40265   4.379  10.137   0.338 -0.2042 -0.0176 -0.2791
  306MOL0     C40266   4.249  10.095   0.386  0.0074 -0.3186 -0.2561
  306MOL0     C40267   4.144  10.183   0.412 -0.1975 -0.7561 -0.2573
  306MOL0     O40268   4.031  10.122   0.449 -0.8513 -0.1935  0.8577
  306MOL0     C40269   3.926  10.209   0.490  0.0934  0.1783 -0.8751
  306MOL0     C40270   3.801  10.123   0.518 -0.0304 -1.2985  0.7087
  306MOL0     C40271   3.716  10.188   0.623 -1.1066  0.3850  0.3640
  306MOL0     C40272   3.572  10.139   0.621  0.2214  0.6746  0.5764
  306MOL0     C40273   3.486  10.234   0.704 -0.2871  0.6723 -0.2810
  306MOL0     C40274   3.339  10.196   0.684  0.0195 -0.2850 -0.6002
  306MOL0     C40275   3.258  10.312   0.748  0.3819 -0.3734  0.4181
  306MOL0     C40276   3.115  10.272   0.783  1.0047  0.6504 -0.4262
  306MOL0     N40277   3.032  10.399   0.809  0.1163 -0.0534 -0.0253
  306MOL0     C40278   2.964  10.418   0.926  0.6543  1.0236  0.4080
  306MOL0     C40279   2.881  10.516   0.909  0.4789 -0.7163  0.8510
  306MOL0     C40280   2.809  10.603   1.012  0.0804  1.1092 -0.1614
  306MOL0     C40281   2.657  10.597   0.999  0.3614 -0.2017  0.2588
  306MOL0     C40282   2.600  10.672   0.878  0.5501  0.4100  0.3420
  306MOL0     C40283   2.450  10.694   0.870 -0.7277  0.0378  0.3350
  306MOL0     O40284   2.405  10.784   0.976 -0.3097 -0.0135  0.0726
  306MOL0     C40285   2.268  10.817   0.968  0.1737 -0.4674  0.7023
  306MOL0     C40286   2.198  10.885   1.074 -0.4987  0.1362 -0.1048
  306MOL0     C40287   2.062  10.914   1.069  0.9022  0.0437  0.3136
  306MOL0     C40288   1.986  10.869   0.967 -0.5571 -0.2852  0.2480
  306MOL0     C40289   1.836  10.881   0.973 -0.0124  0.1144 -0.5916
  306MOL0     O40290   1.760  10.826   0.876 -0.8407  0.0904 -0.4346
  306MOL0     C40291   1.622  10.843   0.881 -0.4278 -0.0861 -0.3298
  306MOL0     C40292   1.570  10.936   0.788  0.1197 -0.9289 -0.8949
  306MOL0     C40293   1.434  10.946   0.768  1.0535 -0.2970 -0.1094
  306MOL0     C40294   1.344  10.866   0.850  0.4881 -0.1798  0.5508
  306MOL0     O40295   1.213  10.860   0.826 -0.9825 -0.2784 -0.5548
  306MOL0     C40296   1.148  10.958   0.756 -0.9371  0.6674 -0.0393
  306MOL0     C40297   1.009  10.972   0.813  0.1945  0.4743 -0.0691
  306MOL0     C40298   0.948  10.835   0.826 -0.0403  0.8257 -0.9817
  306MOL0     C40299   0.798  10.846   0.850 -0.7841 -0.0348  0.0094
  306MOL0     C40300   0.746  10.707   0.849 -0.3800  0.6704  0.5680
  306MOL0     C40301   0.594  10.687   0.875 -0.0848 -0.1529  0.1236
  306MOL0     C40302   0.558  10.748   1.011  0.8653  0.3131 -0.4241
  306MOL0     C40303   0.440  10.683   1.079 -0.4002 -0.1824  0.3454
  306MOL0    Cl40304   0.293  10.668   0.977 -0.4588  0.0201  0.0809
  306MOL0     C40305   1.396  10.780   0.943 -0.1050 -0.4520 -0.4225
  306MOL0     C40306   1.538  10.770   0.960  0.6578  0.0963 -0.4319
  306MOL0     O40307   1.795  10.947   1.071  0.2129  0.0223  1.1840
  306MOL0     C40308   2.043  10.794   0.865 -1.0090 -0.5434  0.0374
  306MOL0     C40309   2.183  10.776   0.862  0.0811  0.9373  0.4038
  306MOL0     N40310   2.890  10.552   0.771  0.2274 -0.2565  0.0273
  306MOL0     N40311   2.975  10.476   0.712  0.2865  1.0800 -0.4597
  306MOL0     C40312   4.181  10.315   0.409 -0.3489  1.6662  0.6006
  306MOL0     C40313   4.310  10.360   0.381 -0.0713 -0.0750  0.4680
  306MOL0     C40314   4.735  10.331   0.179 -0.8140  0.4577  0.6884
  306MOL0     C40315   4.797  10.320   0.050  0.4761  0.5288 -0.3686
  306MOL0     C40316   4.921  10.364   0.018 -0.0798  0.6152 -0.3447
  306MOL0     C40317   5.005  10.427   0.111 -0.7807 -0.1589 -0.6979
  306MOL0     O40318   5.125  10.487   0.081  0.0908 -0.6130  0.4394
  306MOL0     C40319   5.203  10.460  -0.031 -0.4595 -0.0313 -0.1335
  306MOL0     C40320   5.309  10.569  -0.046 -0.2923  0.0085  0.5192
  306MOL0     C40321   5.397  10.519  -0.165  0.0683 -0.0487 -1.1783
  306MOL0     C40322   5.498  10.612  -0.205  1.1354  0.0689 -0.2296
  306MOL0     C40323   5.439  10.743  -0.251 -0.5987  0.9193  0.0394
  306MOL0     C40324   5.380  10.844  -0.289 -0.3340 -0.4647  0.5683
  306MOL0     C40325   4.945  10.444   0.239 -0.3558  0.8901 -0.1628
  306MOL0     C40326   4.817  10.398   0.270 -0.3459 -1.0295  0.0935
  306MOL0     H40327   4.458  10.067   0.312  1.1825  0.9055  1.1903
  306MOL0     H40328   4.226   9.990   0.399 -1.8362 -0.1090 -1.4633
  306MOL0     H40329   3.895  10.276   0.409  0.8922 -0.5030 -1.7670
  306MOL0     H40330   3.953  10.267   0.579  2.1055 -1.3735 -0.3953
  306MOL0     H40331   3.819  10.018   0.539  0.5712 -1.2477  0.4636
  306MOL0     H40332   3.747  10.136   0.423 -2.9682 -0.0491  2.4126
  306MOL0     H40333   3.713  10.297   0.610 -0.2577  0.2298 -1.5224
  306MOL0     H40334   3.762  10.167   0.720 -2.0273 -0.5435  0.6166
  306MOL0     H40335   3.526  10.131   0.522  0.0991 -1.6147  0.7735
  306MOL0     H40336   3.565  10.041   0.668  1.3233  1.7593  3.2369
  306MOL0     H40337   3.504  10.338   0.677  0.9336 -0.0383 -2.5207
  306MOL0     H40338   3.507  10.225   0.811 -0.0206 -1.2738 -0.4595
  306MOL0     H40339   3.318  10.101   0.735 -3.5360  0.7875  0.2184
  306MOL0     H40340   3.304  10.177   0.582 -0.7058 -3.2296  0.0889
  306MOL0     H40341   3.298  10.349   0.843 -0.3766 -1.8258  1.3419
  306MOL0     H40342   3.258  10.390   0.671  1.4401 -1.0431 -0.2832
  306MOL0     H40343   3.116  10.223   0.881  1.1221  2.1477  0.3541
  306MOL0     H40344   3.065  10.218   0.702 -0.9802  1.6411  0.0513
  306MOL0     H40345   2.978  10.359   1.017  1.0256  1.1860  0.4580
  306MOL0     H40346   2.845  10.705   0.997  1.3593  0.4220 -2.1549
  306MOL0     H40347   2.833  10.565   1.112  0.4101  1.2102 -0.2002
  306MOL0     H40348   2.607  10.635   1.089 -0.8824 -3.1363  0.9396
  306MOL0     H40349   2.620  10.494   0.992  0.0982 -0.2024  1.4191
  306MOL0     H40350   2.647  10.767   0.853 -2.4154  1.9139 -0.0431
  306MOL0     H40351   2.622  10.606   0.794 -0.6800 -0.3822  0.6045
  306MOL0     H40352   2.407  10.593   0.868  2.1940 -1.2837 -0.7869
  306MOL0     H40353   2.425  10.744   0.777  0.4024 -0.1896 -0.0996
  306MOL0     H40354   2.257  10.912   1.161 -0.6756 -1.0315  0.3988
  306MOL0     H40355   2.012  10.959   1.154  1.1157  0.0609  0.4305
  306MOL0     H40356   1.625  11.003   0.723 -1.5406 -0.7388 -2.1682
  306MOL0     H40357   1.394  11.007   0.688 -0.6131 -1.5962 -0.3165
  306MOL0     H40358   1.135  10.922   0.654  2.0738 -0.9575  0.0132
  306MOL0     H40359   1.201  11.053   0.758  2.5240 -1.1081  0.6818
  306MOL0     H40360   0.946  11.031   0.746 -0.6740  1.1391  1.2882
  306MOL0     H40361   1.017  11.027   0.908  1.3718 -0.2358  0.2641
  306MOL0     H40362   0.995  10.782   0.910 -0.7092 -1.4607 -1.9690
  306MOL0     H40363   0.965  10.775   0.736  4.0995 -0.8800  0.6968
  306MOL0     H40364   0.781  10.890   0.949 -0.3155  0.6762 -0.2149
  306MOL0     H40365   0.750  10.899   0.767 -0.2632  0.4986  0.0437
  306MOL0     H40366   0.795  10.647   0.927  0.7201  0.4897 -0.2402
  306MOL0     H40367   0.765  10.659   0.753 -1.5767 -0.2923  0.7950
  306MOL0     H40368   0.586  10.579   0.887  1.1608 -0.4101 -1.0711
  306MOL0     H40369   0.527  10.719   0.795  0.2457  3.1806  1.0396
  306MOL0     H40370   0.646  10.742   1.076  0.3641  0.4168  0.2755
  306MOL0     H40371   0.524  10.852   1.019 -0.4254 -0.2313  1.9395
  306MOL0     H40372   0.415  10.747   1.164  0.8177 -2.6894  2.7494
  306MOL0     H40373   0.470  10.587   1.122  0.4171  0.5611  1.4962
  306MOL0     H40374   1.324  10.719   0.998 -1.0750  0.9363 -0.0775
  306MOL0     H40375   1.585  10.703   1.031 -1.8190 -1.9250 -0.5628
  306MOL0     H40376   1.990  10.745   0.784  2.9317 -1.5384 -2.2040
  306MOL0     H40377   2.218  10.716   0.778 -0.7517 -0.9240  1.3087
  306MOL0     H40378   4.098  10.381   0.434 -2.2717 -0.7826  1.0601
  306MOL0     H40379   4.326  10.467   0.373 -2.4439  0.2781 -0.3534
  306MOL0     H40380   4.738  10.275  -0.029  0.9677  2.0068 -1.6377
  306MOL0     H40381   4.957  10.341  -0.082 -0.1706  0.0411 -0.2506
  306MOL0     H40382   5.152  10.446  -0.127  1.2881 -2.2359 -0.8446
  306MOL0     H40383   5.256  10.364  -0.024 -1.0825 -0.3668  0.1446
  306MOL0     H40384   5.254  10.659  -0.072  0.4918  0.0041 -1.3084
  306MOL0     H40385   5.378  10.579   0.039 -0.7285  0.3573  0.8392
  306MOL0     H40386   5.335  10.495  -0.252 -1.1300 -1.4385  0.0048
  306MOL0     H40387   5.444  10.430  -0.122  1.1256  0.4169 -1.3482
  306MOL0     H40388   5.562  10.624  -0.117 -1.4208 -0.5946  1.8682
  306MOL0     H40389   5.561  10.561  -0.279 -1.0503 -0.3837 -1.8790
  306MOL0     H40390   5.318  10.926  -0.319 -0.9025 -1.3920 -0.9350
  306MOL0     H40391   5.003  10.492   0.318 -0.2810 -0.4104  0.6037
  306MOL0     H40392   4.786  10.421   0.372  0.7798 -1.1795  0.4739
  307MOL0     O40393   3.841   0.929   2.938  0.2598 -0.0388 -0.2551
  307MOL0     C40394   3.897   1.033   2.985 -0.4426  0.2661  0.2846
  307MOL0     O40395   3.837   1.144   3.032  0.4576 -0.5391 -0.7437
  307MOL0     C40396   3.697   1.126   3.031 -1.2735 -0.6209  0.5750
  307MOL0     C40397   3.628   1.064   3.128 -1.1780 -0.7423 -0.8115
  307MOL0     C40398   3.490   1.051   3.127  1.1342 -0.2625  0.6539
  307MOL0     C40399   3.416   1.119   3.019 -1.2727 -1.0706 -0.3824
  307MOL0     O40400   3.276   1.125   3.041 -0.8016  0.9775  0.1428
  307MOL0     C40401   3.199   1.199   2.939  0.3183  0.3058 -0.3032
  307MOL0     C40402   3.050   1.172   2.955  0.6350 -0.2656  0.2168
  307MOL0     C40403   2.997   1.210   3.100 -0.2398  0.3149  0.5934
  307MOL0     C40404   2.839   1.193   3.109 -0.4865  0.0636 -0.2890
  307MOL0     C40405   2.775   1.246   3.241  0.2105 -0.3755  0.2485
  307MOL0     C40406   2.623   1.233   3.228 -0.2277  0.5470 -0.1220
  307MOL0     C40407   2.531   1.257   3.342 -0.2469 -0.4415 -0.4411
  307MOL0     C40408   2.387   1.218   3.308 -0.5966  0.3397  0.3033
  307MOL0     N40409   2.309   1.195   3.432  0.6007  0.0919  0.4041
  307MOL0     C40410   2.338   1.133   3.555  0.0161  0.6895 -0.4364
  307MOL0     C40411   2.236   1.170   3.639  0.3547 -0.3657  0.6904
  307MOL0     C40412   2.224   1.127   3.784  0.2048 -0.2252 -0.1170
  307MOL0     C40413   2.087   1.153   3.849  0.1431  0.4955  1.2291
  307MOL0     C40414   2.053   1.059   3.965  0.1383  0.3256  0.3021
  307MOL0     C40415   1.908   1.069   4.006 -0.6884 -0.2865 -0.7179
  307MOL0     O40416   1.892   1.204   4.051 -0.3418  0.0128  0.4571
  307MOL0     C40417   1.774   1.228   4.123  0.9099  0.2670 -0.2001
  307MOL0     C40418   1.765   1.352   4.188 -0.3668 -0.4562  0.1814
  307MOL0     C40419   1.650   1.383   4.266 -0.3533  0.3539 -0.2454
  307MOL0     C40420   1.552   1.279   4.295 -0.2817 -0.5995  0.1674
  307MOL0     C40421   1.450   1.299   4.394 -0.3224 -0.8347 -0.6594
  307MOL0     O40422   1.359   1.207   4.401 -0.7463 -0.0046 -0.3670
  307MOL0     C40423   1.278   1.209   4.512  0.4141  0.1825  0.1414
  307MOL0     C40424   1.146   1.256   4.494 -0.7321  0.7108 -0.8441
  307MOL0     C40425   1.052   1.261   4.604  0.7861  1.1731 -1.2374
  307MOL0     C40426   1.089   1.199   4.722  0.2050  0.2940  0.0975
  307MOL0     O40427   0.986   1.194   4.821 -0.6263  0.5788 -0.1737
  307MOL0     C40428   0.994   1.119   4.940 -0.5249 -0.6750 -0.5725
  307MOL0     C40429   0.868   1.144   5.023  1.1958 -0.8151 -0.8397
  307MOL0     C40430   0.735   1.113   4.962 -0.4335 -0.2193 -0.4374
  307MOL0     C40431   0.634   1.131   5.076  0.0694  0.5067  0.1818
  307MOL0     C40432   0.491   1.127   5.031 -0.5015 -0.2493 -0.8156
  307MOL0     C40433   0.440   0.988   4.991  0.7260  0.4826  0.4684
  307MOL0     C40434   0.283   0.984   5.003 -0.0692  0.5802  0.5667
  307MOL0     C40435   0.230   0.862   4.941  0.2345  0.1386 -0.4154
  307MOL0    Cl40436   0.050   0.868   4.986  0.2699  0.5119 -0.4756
  307MOL0     C40437   1.214   1.134   4.740  0.3174 -0.3528  0.4033
  307MOL0     C40438   1.307   1.148   4.633 -0.1614  0.3612 -0.5793
  307MOL0     O40439   1.450   1.408   4.457  0.1981 -0.0907 -0.4793
  307MOL0     C40440   1.565   1.168   4.221 -0.3302  0.2041  0.4564
  307MOL0     C40441   1.668   1.139   4.131  0.1479 -0.6939 -0.0545
  307MOL0     N40442   2.156   1.262   3.571  0.3773  0.0984 -0.2557
  307MOL0     N40443   2.205   1.281   3.453  0.2663 -0.8797  0.3417
  307MOL0     C40444   3.494   1.188   2.926  0.3322 -0.3855 -0.2403
  307MOL0     C40445   3.633   1.191   2.927  0.5569  0.5665 -0.2197
  307MOL0     C40446   4.047   1.036   2.998  0.5871  0.8209  0.1811
  307MOL0     C40447   4.118   0.917   2.962 -0.5804  0.3467  0.3811
  307MOL0     C40448   4.257   0.927   2.947 -0.3480 -0.3094  1.1669
  307MOL0     C40449   4.331   1.041   2.975 -0.0054 -0.4665 -0.9121
  307MOL0     O40450   4.467   1.066   2.952  0.1756  0.1541 -0.4932
  307MOL0     C40451   4.547   0.968   2.875  0.7554 -0.6349 -0.2065
  307MOL0     C40452   4.695   0.974   2.904 -0.0616 -0.6085  0.3442
  307MOL0     C40453   4.761   0.855   2.837  0.1510 -0.4096  0.5902
  307MOL0     C40454   4.909   0.867   2.809 -0.5163  0.0578 -0.3815
  307MOL0     C40455   4.979   0.889   2.941 -0.0228 -0.1847  1.4571
  307MOL0     C40456   5.026   0.921   3.047 -0.2765 -0.0143  0.8211
  307MOL0     C40457   4.260   1.145   3.035  0.0670  0.3830  0.2736
  307MOL0     C40458   4.123   1.146   3.036 -0.3460  0.5411  0.0098
  307MOL0     H40459   3.686   1.018   3.208  4.1304  2.0340 -2.5532
  307MOL0     H40460   3.445   0.991   3.206 -0.4436  1.4716  1.1286
  307MOL0     H40461   3.227   1.163   2.839  2.5556 -1.2939  0.8005
  307MOL0     H40462   3.210   1.307   2.946 -2.6619  0.6768 -0.0628
  307MOL0     H40463   3.028   1.066   2.935 -0.2681 -0.2291  0.9873
  307MOL0     H40464   3.007   1.239   2.880  1.0801 -0.6544 -0.4059
  307MOL0     H40465   3.016   1.316   3.114  1.6584  0.0069  0.5416
  307MOL0     H40466   3.049   1.151   3.176  0.2539 -1.3793 -0.9763
  307MOL0     H40467   2.808   1.243   3.017 -0.8730 -0.6862 -0.5753
  307MOL0     H40468   2.804   1.091   3.090 -0.9179 -0.1349  1.3937
  307MOL0     H40469   2.803   1.350   3.260 -1.3667 -0.1515  1.5694
  307MOL0     H40470   2.817   1.191   3.325  4.7144 -0.5490 -1.8483
  307MOL0     H40471   2.614   1.128   3.198  1.7283 -0.1228  1.4345
  307MOL0     H40472   2.589   1.297   3.146  0.6322  1.0434 -0.1046
  307MOL0     H40473   2.567   1.194   3.424  1.6670 -0.6144 -1.3455
  307MOL0     H40474   2.543   1.359   3.381  0.5404 -0.9250  0.6296
  307MOL0     H40475   2.388   1.129   3.244 -1.8157 -0.6592  1.5964
  307MOL0     H40476   2.347   1.302   3.251  0.5925 -0.6133 -2.0526
  307MOL0     H40477   2.419   1.069   3.587 -0.4823 -0.6693 -1.7309
  307MOL0     H40478   2.297   1.179   3.845  0.3806 -2.0778  1.3462
  307MOL0     H40479   2.251   1.021   3.786 -0.9140 -0.5178  0.5117
  307MOL0     H40480   2.006   1.146   3.776  0.3177  2.4051  0.8031
  307MOL0     H40481   2.075   1.255   3.888  3.1085  0.8366  1.4788
  307MOL0     H40482   2.069   0.955   3.933 -1.0939 -0.7218  2.7692
  307MOL0     H40483   2.127   1.078   4.043  0.6284 -0.9580  0.1810
  307MOL0     H40484   1.892   0.998   4.088  1.3752 -0.9825 -0.8583
  307MOL0     H40485   1.846   1.024   3.928 -0.4111 -0.4857 -0.8238
  307MOL0     H40486   1.834   1.434   4.171 -0.8089 -0.6564 -3.4824
  307MOL0     H40487   1.641   1.483   4.307  3.0687  0.4082  0.6670
  307MOL0     H40488   1.117   1.301   4.400 -1.5930  2.3795  0.1753
  307MOL0     H40489   0.958   1.316   4.596  0.3848  1.4570  3.0159
  307MOL0     H40490   1.084   1.149   4.994  0.3811 -1.7830 -1.3937
  307MOL0     H40491   0.991   1.011   4.922  3.3259 -0.9429 -0.5821
  307MOL0     H40492   0.871   1.253   5.035 -1.3954 -0.4515 -2.6947
  307MOL0     H40493   0.873   1.103   5.124 -1.8637  1.8977  0.5932
  307MOL0     H40494   0.736   1.007   4.936  1.5776  0.0392 -1.5755
  307MOL0     H40495   0.710   1.179   4.878 -1.6439  0.9363  0.7732
  307MOL0     H40496   0.653   1.058   5.156 -0.4809 -0.9079 -0.9278
  307MOL0     H40497   0.651   1.232   5.114  1.2343 -0.1034  1.3589
  307MOL0     H40498   0.482   1.181   4.937 -2.1671  0.0642 -0.5127
  307MOL0     H40499   0.427   1.172   5.108  2.6268 -0.9257  2.4953
  307MOL0     H40500   0.477   0.915   5.063  0.3132 -1.6248 -1.3635
  307MOL0     H40501   0.476   0.965   4.890  1.4767  0.4695  0.7353
  307MOL0     H40502   0.251   0.996   5.107  0.9074 -0.5788  1.0284
  307MOL0     H40503   0.244   1.067   4.943 -0.2876 -0.6899 -1.1433
  307MOL0     H40504   0.284   0.780   4.991  1.1616  0.6620 -0.5282
  307MOL0     H40505   0.250   0.873   4.834 -1.3535  0.9590 -0.6499
  307MOL0     H40506   1.242   1.101   4.839 -0.8918 -1.8547  0.2761
  307MOL0     H40507   1.406   1.103   4.635 -1.0993 -1.8572 -0.5490
  307MOL0     H40508   1.496   1.085   4.235  0.6932 -0.4544  1.8539
  307MOL0     H40509   1.666   1.053   4.064 -0.4086 -0.1284 -0.7925
  307MOL0     H40510   3.441   1.247   2.852  0.9946  0.4992 -0.0342
  307MOL0     H40511   3.685   1.256   2.857 -0.2907  1.5986  0.0864
  307MOL0     H40512   4.065   0.826   2.935  0.8023 -1.1022  2.2572
  307MOL0     H40513   4.312   0.836   2.925  0.2966  0.1793  0.7282
  307MOL0     H40514   4.529   0.992   2.770 -2.4689 -0.0286  0.3956
  307MOL0     H40515   4.522   0.864   2.896  1.7083 -0.5616  1.4447
  307MOL0     H40516   4.732   1.070   2.865 -0.9151 -0.1673  0.5896
  307MOL0     H40517   4.712   0.984   3.011  0.4761  1.8526  0.0882
  307MOL0     H40518   4.713   0.832   2.741  1.9370  1.6215 -0.8720
  307MOL0     H40519   4.743   0.771   2.905  0.0373 -0.6510  0.2652
  307MOL0     H40520   4.947   0.775   2.763  1.9047  1.1803 -0.8189
  307MOL0     H40521   4.924   0.952   2.743 -0.0773  2.4866  2.6281
  307MOL0     H40522   5.075   0.932   3.142  6.1367 -0.8794 -1.8674
  307MOL0     H40523   4.320   1.234   3.057  0.5346 -0.0517  0.7702
  307MOL0     H40524   4.064   1.232   3.065  0.7568  0.9427  1.1233
  308MOL0     O40525   6.600   5.348   0.080  0.3335 -0.7133  0.0252
  308MOL0     C40526   6.671   5.417   0.005 -0.2051  0.0054  0.3549
  308MOL0     O40527   6.655   5.553  -0.019 -0.2216 -0.0598  0.2187
  308MOL0     C40528   6.528   5.608  -0.018  0.8657  0.5029 -0.2898
  308MOL0     C40529   6.487   5.687  -0.125 -0.6679  0.6351  0.1805
  308MOL0     C40530   6.358   5.742  -0.133 -0.7430  0.6965  0.4685
  308MOL0     C40531   6.268   5.736  -0.027 -0.2820  0.1507  0.4802
  308MOL0     O40532   6.147   5.786  -0.058  0.1600 -0.6220 -0.7130
  308MOL0     C40533   6.052   5.815   0.045  0.4354  0.2688  0.0509
  308MOL0     C40534   5.931   5.876  -0.026  0.6667  0.5578 -0.6743
  308MOL0     C40535   5.833   5.922   0.084  0.4272  0.0196 -0.0904
  308MOL0     C40536   5.710   5.983   0.028  0.6426  0.1627  0.7318
  308MOL0     C40537   5.597   6.002   0.136 -0.2523 -0.0719  1.8378
  308MOL0     C40538   5.632   6.114   0.235 -0.0426 -0.4531 -0.0604
  308MOL0     C40539   5.626   6.261   0.181  0.6410 -0.7088  0.5373
  308MOL0     C40540   5.705   6.359   0.275  0.5205 -0.4859  0.2730
  308MOL0     N40541   5.853   6.339   0.284 -0.6199  1.0633  0.1530
  308MOL0     C40542   5.929   6.261   0.198  0.6139  0.0026  0.0256
  308MOL0     C40543   6.057   6.288   0.227  1.0442 -0.5836  0.2442
  308MOL0     C40544   6.169   6.213   0.168  0.7570 -0.1025  0.4782
  308MOL0     C40545   6.246   6.283   0.061 -0.2231 -0.6771 -0.7705
  308MOL0     C40546   6.370   6.202   0.016  0.5845 -0.4737 -1.2157
  308MOL0     C40547   6.351   6.058  -0.030  0.8842  0.6984  0.5510
  308MOL0     O40548   6.464   6.019  -0.108  0.0119 -0.3683  0.1645
  308MOL0     C40549   6.583   5.975  -0.047 -0.3484 -0.1039 -0.1839
  308MOL0     C40550   6.612   5.960   0.091  0.1205 -0.7241 -0.0326
  308MOL0     C40551   6.734   5.903   0.139  0.4081 -0.2882 -0.3667
  308MOL0     C40552   6.827   5.859   0.044 -0.6593  0.2016  0.3814
  308MOL0     C40553   6.951   5.799   0.096 -0.3588  1.2907  0.1667
  308MOL0     O40554   7.002   5.687   0.031  0.5065 -0.3582  0.1914
  308MOL0     C40555   7.126   5.650   0.065  0.0850 -0.0023 -0.1949
  308MOL0     C40556   7.166   5.519   0.092 -0.0948  0.2155 -0.6548
  308MOL0     C40557   7.300   5.469   0.106 -0.1212 -0.7452  0.1752
  308MOL0     C40558   7.405   5.562   0.102 -0.3847  0.0148  0.0706
  308MOL0     O40559   7.537   5.539   0.123 -0.4546  0.3270  0.2185
  308MOL0     C40560   7.584   5.405   0.126  0.4212  0.7618  0.0168
  308MOL0     C40561   7.738   5.398   0.143 -0.2275 -0.9387 -0.3541
  308MOL0     C40562   7.788   5.461   0.278 -0.1067 -0.0491  0.3642
  308MOL0     C40563   7.813   5.609   0.282 -0.2446 -0.2891 -0.2618
  308MOL0     C40564   7.880   5.668   0.406 -0.2732 -0.0460  0.0498
  308MOL0     C40565   7.780   5.674   0.525  1.3961  1.2287 -0.4852
  308MOL0     C40566   7.820   5.771   0.628  0.2076  0.7708 -0.2486
  308MOL0     C40567   7.730   5.765   0.753 -0.4023 -0.1388 -0.1921
  308MOL0    Cl40568   7.581   5.850   0.702  0.1507 -0.0053  0.2028
  308MOL0     C40569   7.370   5.690   0.063 -0.4112 -0.2112 -0.4160
  308MOL0     C40570   7.239   5.739   0.045 -0.5772 -0.2354 -0.3233
  308MOL0     O40571   7.004   5.855   0.188 -0.0916  0.1741 -0.5267
  308MOL0     C40572   6.790   5.879  -0.090 -0.7678  0.2752 -0.7966
  308MOL0     C40573   6.676   5.936  -0.141 -0.6014  0.2751  0.1853
  308MOL0     N40574   6.060   6.389   0.322 -0.2958  0.1158 -0.1793
  308MOL0     N40575   5.939   6.418   0.357  0.9731  0.1606  0.0084
  308MOL0     C40576   6.320   5.679   0.090 -0.0141  0.5203 -0.4145
  308MOL0     C40577   6.440   5.606   0.091 -0.1837  0.2817  0.3698
  308MOL0     C40578   6.781   5.344  -0.072  0.8257  0.3382  0.1196
  308MOL0     C40579   6.814   5.211  -0.044 -0.3462 -0.5305 -0.1254
  308MOL0     C40580   6.932   5.152  -0.114  0.9995  0.8152 -0.0949
  308MOL0     C40581   6.997   5.214  -0.224 -0.1864  0.0753 -0.7929
  308MOL0     O40582   7.111   5.164  -0.291  0.6863 -0.5538 -0.5831
  308MOL0     C40583   7.218   5.105  -0.223  0.3956  0.1403  0.0573
  308MOL0     C40584   7.344   5.194  -0.241  0.2799 -0.1757  0.0306
  308MOL0     C40585   7.462   5.127  -0.162 -0.2253 -0.1603  0.1176
  308MOL0     C40586   7.538   5.017  -0.253  0.1464 -0.1099  0.2907
  308MOL0     C40587   7.633   4.937  -0.175 -0.6227 -0.3823  0.4766
  308MOL0     C40588   7.711   4.863  -0.118  0.2714 -0.3299 -0.2810
  308MOL0     C40589   6.952   5.339  -0.255  1.3267 -0.4790 -0.6182
  308MOL0     C40590   6.850   5.402  -0.181  0.5077 -0.1861  0.6544
  308MOL0     H40591   6.548   5.708  -0.213 -0.7226  1.1728  0.2688
  308MOL0     H40592   6.323   5.792  -0.223 -1.7249 -0.4383  0.1872
  308MOL0     H40593   6.103   5.888   0.108  1.8123  0.8415 -1.6537
  308MOL0     H40594   6.017   5.725   0.096  1.0295 -1.7128 -2.8278
  308MOL0     H40595   5.880   5.794  -0.079  0.2615  2.1386 -2.8646
  308MOL0     H40596   5.956   5.961  -0.090 -0.9983  0.4034 -1.5928
  308MOL0     H40597   5.884   5.982   0.161 -0.1324 -2.5875  2.5093
  308MOL0     H40598   5.820   5.843   0.158  3.4538  1.0652  1.7780
  308MOL0     H40599   5.726   6.076  -0.028  0.9866 -0.5631 -0.4116
  308MOL0     H40600   5.670   5.909  -0.041  1.2208  0.9046 -0.4446
  308MOL0     H40601   5.586   5.905   0.185 -1.5846 -1.5268 -1.0920
  308MOL0     H40602   5.502   6.028   0.088  0.3960 -0.3622  0.3211
  308MOL0     H40603   5.729   6.099   0.284  0.1461  3.3376  1.0474
  308MOL0     H40604   5.555   6.114   0.313 -0.8478 -1.7501 -0.8232
  308MOL0     H40605   5.660   6.278   0.078 -0.0486  2.2276  0.7049
  308MOL0     H40606   5.520   6.286   0.187  0.8125  0.4483 -0.7017
  308MOL0     H40607   5.670   6.351   0.379  2.1681 -3.1038  0.7266
  308MOL0     H40608   5.686   6.459   0.235 -1.4433 -0.8172  0.2993
  308MOL0     H40609   5.894   6.192   0.121 -1.4142  1.4300 -0.4076
  308MOL0     H40610   6.119   6.134   0.110  0.4003  0.8340 -0.5292
  308MOL0     H40611   6.249   6.179   0.234 -0.7724 -2.8136  1.0955
  308MOL0     H40612   6.286   6.378   0.097 -0.5102 -0.6416 -0.5455
  308MOL0     H40613   6.175   6.297  -0.021 -4.1538  0.8691  2.5518
  308MOL0     H40614   6.427   6.269  -0.049  0.5763  1.1312  0.3284
  308MOL0     H40615   6.422   6.192   0.112 -1.1838  0.1854 -0.1429
  308MOL0     H40616   6.255   6.054  -0.083  2.5754  1.2892 -2.8259
  308MOL0     H40617   6.347   5.998   0.061 -0.9374 -0.0215  0.0556
  308MOL0     H40618   6.530   5.993   0.154 -1.7039  2.7688 -3.7378
  308MOL0     H40619   6.760   5.897   0.244  2.0774  0.2797 -0.7073
  308MOL0     H40620   7.085   5.448   0.082  0.9060 -1.1631  0.5902
  308MOL0     H40621   7.312   5.363   0.126 -3.0574 -1.3558 -0.7363
  308MOL0     H40622   7.562   5.356   0.031  0.4723 -1.3320  1.0385
  308MOL0     H40623   7.528   5.353   0.205  0.3955  1.9190  0.7921
  308MOL0     H40624   7.792   5.438   0.057  1.2704 -0.0426  0.9458
  308MOL0     H40625   7.763   5.292   0.153  0.8216 -0.7339 -0.6333
  308MOL0     H40626   7.881   5.409   0.302  0.4908  0.4212 -0.8621
  308MOL0     H40627   7.727   5.429   0.363 -0.7757  0.1946 -0.0193
  308MOL0     H40628   7.884   5.646   0.208 -0.5983  1.5913  0.3013
  308MOL0     H40629   7.718   5.660   0.266 -1.0408 -1.5540  0.2695
  308MOL0     H40630   7.904   5.772   0.384 -1.2644  0.6966  2.2017
  308MOL0     H40631   7.979   5.624   0.421 -0.7055 -0.9992  0.1970
  308MOL0     H40632   7.782   5.572   0.563 -0.6297  1.3898  0.1438
  308MOL0     H40633   7.676   5.687   0.497  0.6138 -2.8787 -0.1223
  308MOL0     H40634   7.918   5.747   0.670 -0.9729 -1.0824  1.6132
  308MOL0     H40635   7.815   5.877   0.599 -1.1238  1.2722  1.6164
  308MOL0     H40636   7.771   5.813   0.842 -0.1160  0.7698 -0.8076
  308MOL0     H40637   7.704   5.663   0.783 -1.2703  0.5958  1.7115
  308MOL0     H40638   7.450   5.761   0.045 -2.4546  1.9925 -1.3316
  308MOL0     H40639   7.224   5.845   0.030  0.1567  0.4127  2.7820
  308MOL0     H40640   6.863   5.849  -0.165 -0.1498  0.3546 -0.2294
  308MOL0     H40641   6.647   5.936  -0.246  2.6467  0.6744 -0.8180
  308MOL0     H40642   6.260   5.686   0.180 -0.6639  0.5896 -0.8494
  308MOL0     H40643   6.472   5.554   0.181 -2.7319 -0.6007  0.8662
  308MOL0     H40644   6.772   5.145   0.031  0.2409 -2.7898 -1.6932
  308MOL0     H40645   6.971   5.058  -0.077  3.0630  1.1881 -1.1503
  308MOL0     H40646   7.229   5.006  -0.266 -0.2391  0.0564  0.0848
  308MOL0     H40647   7.190   5.102  -0.117 -3.2672 -2.5723 -0.8088
  308MOL0     H40648   7.373   5.209  -0.345  0.9849  0.6278  0.3254
  308MOL0     H40649   7.316   5.293  -0.202 -0.0268 -0.2339 -0.0341
  308MOL0     H40650   7.423   5.084  -0.070  1.2120  0.2443  0.9513
  308MOL0     H40651   7.535   5.205  -0.141 -2.4085  1.8273  0.6954
  308MOL0     H40652   7.472   4.940  -0.293  0.2916 -1.2701  2.1724
  308MOL0     H40653   7.587   5.074  -0.333  0.6002  2.2478  2.1209
  308MOL0     H40654   7.773   4.799  -0.060 -0.5588  1.3768  2.7090
  308MOL0     H40655   6.998   5.375  -0.347  1.3675 -2.2170 -1.3139
  308MOL0     H40656   6.823   5.501  -0.217 -0.2070 -0.7240 -0.3523
  309MOL0     O40657   6.298   0.640   3.879 -0.4381 -0.0598 -0.4825
  309MOL0     C40658   6.310   0.695   3.991 -0.2207 -1.6556 -0.2537
  309MOL0     O40659   6.217   0.704   4.095  0.1202  0.7863 -0.3222
  309MOL0     C40660   6.093   0.644   4.071 -0.2173  0.4466 -0.4905
  309MOL0     C40661   6.008   0.682   3.959 -0.1236  0.2860  0.6997
  309MOL0     C40662   5.877   0.630   3.946  1.0264  0.1457  0.2444
  309MOL0     C40663   5.829   0.530   4.032 -0.2526 -0.5389 -0.2550
  309MOL0     O40664   5.708   0.467   4.003  0.5676 -0.2361  0.7913
  309MOL0     C40665   5.666   0.361   4.082  0.5255  0.1089 -0.0268
  309MOL0     C40666   5.530   0.291   4.038 -0.2550 -0.2109  0.2178
  309MOL0     C40667   5.546   0.142   4.023 -0.4718 -0.7387 -0.2496
  309MOL0     C40668   5.588   0.069   4.153 -0.0372  0.4689  1.0021
  309MOL0     C40669   5.560  -0.078   4.138  0.2083 -0.1739 -0.2709
  309MOL0     C40670   5.419  -0.116   4.184 -0.3847  0.8746  0.0955
  309MOL0     C40671   5.411  -0.250   4.260  0.4503 -0.4553  0.2201
  309MOL0     C40672   5.274  -0.318   4.247  0.1758  0.2331  0.4869
  309MOL0     N40673   5.270  -0.418   4.138  0.0424 -0.4749  0.2150
  309MOL0     C40674   5.209  -0.544   4.138  0.5945 -0.3713 -0.8899
  309MOL0     C40675   5.222  -0.592   4.014 -0.2983 -0.4628 -0.1138
  309MOL0     C40676   5.161  -0.724   3.967 -0.0832 -1.1147 -0.1767
  309MOL0     C40677   5.259  -0.841   3.997 -0.0049  0.1354  0.5318
  309MOL0     C40678   5.224  -0.976   3.936 -0.0779  0.4183 -0.2494
  309MOL0     C40679   5.293  -1.096   3.988  0.1268  0.0340 -0.3866
  309MOL0     O40680   5.434  -1.081   3.968 -0.2013 -0.1751 -0.2635
  309MOL0     C40681   5.509  -1.192   3.996 -0.2855 -0.2592  0.3573
  309MOL0     C40682   5.580  -1.247   3.889 -0.2237 -0.2319 -0.1749
  309MOL0     C40683   5.680  -1.345   3.904 -0.4601 -0.8256  0.2708
  309MOL0     C40684   5.699  -1.391   4.035  0.1045 -0.2666  0.7026
  309MOL0     C40685   5.786  -1.507   4.055  0.1432  0.9672 -0.4392
  309MOL0     O40686   5.838  -1.531   4.190 -0.2742  0.4475  0.7165
  309MOL0     C40687   5.949  -1.603   4.176 -0.8448  0.3681 -0.5451
  309MOL0     C40688   6.077  -1.551   4.143  0.5083 -0.3298  0.2098
  309MOL0     C40689   6.187  -1.637   4.141 -0.7758  0.1586  0.1830
  309MOL0     C40690   6.172  -1.774   4.173 -0.2979 -0.5885 -1.0032
  309MOL0     O40691   6.279  -1.855   4.180 -0.3285 -0.0193 -0.1567
  309MOL0     C40692   6.409  -1.808   4.230  0.1295  0.4481 -0.1763
  309MOL0     C40693   6.469  -1.936   4.299 -0.5468 -0.9652 -0.4595
  309MOL0     C40694   6.627  -1.925   4.285 -0.6500  1.1804  0.1393
  309MOL0     C40695   6.690  -1.819   4.359  0.4620 -0.0893 -0.4287
  309MOL0     C40696   6.848  -1.826   4.363  0.1456 -0.7018  0.1334
  309MOL0     C40697   6.913  -1.811   4.226  0.3577  0.5616  0.0097
  309MOL0     C40698   7.068  -1.821   4.242 -1.0241 -1.1476  0.5133
  309MOL0     C40699   7.134  -1.741   4.138 -0.1288  0.5364 -0.1822
  309MOL0    Cl40700   7.097  -1.569   4.161 -0.0821 -0.2063 -0.2337
  309MOL0     C40701   6.046  -1.820   4.199  0.2468  0.5669 -0.2583
  309MOL0     C40702   5.935  -1.735   4.205 -0.3338  0.0412 -0.1042
  309MOL0     O40703   5.814  -1.575   3.956  0.4449 -0.0823 -0.1510
  309MOL0     C40704   5.620  -1.345   4.146  0.3859 -0.8014 -0.0962
  309MOL0     C40705   5.531  -1.241   4.131  0.2906  0.8572  0.8169
  309MOL0     N40706   5.292  -0.498   3.943  0.5796 -0.3894  0.1047
  309MOL0     N40707   5.316  -0.394   4.010  0.1621 -0.0566  0.4833
  309MOL0     C40708   5.911   0.485   4.135 -0.3744  0.2972  0.0431
  309MOL0     C40709   6.031   0.549   4.161 -0.9986 -0.3301  0.4231
  309MOL0     C40710   6.438   0.769   4.016 -0.1254  0.8034 -0.6590
  309MOL0     C40711   6.451   0.817   4.148 -0.3861 -0.5298  0.5215
  309MOL0     C40712   6.585   0.864   4.179 -0.2982  0.1244  0.2695
  309MOL0     C40713   6.695   0.870   4.089 -0.4997  0.5204  0.2736
  309MOL0     O40714   6.820   0.914   4.122  0.1398 -0.0088 -0.1366
  309MOL0     C40715   6.888   1.009   4.030  0.9474  0.3508  0.0856
  309MOL0     C40716   6.986   1.118   4.094  1.7910 -0.1823  0.5779
  309MOL0     C40717   7.120   1.064   4.142  0.0573 -0.0433 -0.1399
  309MOL0     C40718   7.197   1.177   4.222 -0.0193 -0.9064  0.1267
  309MOL0     C40719   7.317   1.129   4.289  1.2200 -0.6369  1.0103
  309MOL0     C40720   7.410   1.062   4.316  0.5930  0.1898 -0.1391
  309MOL0     C40721   6.664   0.825   3.959  0.2098  0.3543 -0.3457
  309MOL0     C40722   6.540   0.775   3.924  0.2901 -0.7401 -0.0571
  309MOL0     H40723   6.031   0.771   3.901  1.3466  1.5552  3.0740
  309MOL0     H40724   5.808   0.666   3.871 -0.7244 -3.3794 -0.0031
  309MOL0     H40725   5.649   0.394   4.185 -0.2265 -1.3717  0.3543
  309MOL0     H40726   5.745   0.286   4.084  0.9885  0.5884 -0.0079
  309MOL0     H40727   5.503   0.332   3.940 -0.1826 -0.4814  0.0860
  309MOL0     H40728   5.467   0.322   4.122  1.4229  1.4833  0.9029
  309MOL0     H40729   5.621   0.140   3.943  0.8868  0.7119  0.9314
  309MOL0     H40730   5.454   0.094   3.989  0.3856 -2.1729 -0.6431
  309MOL0     H40731   5.695   0.083   4.172 -0.3371  1.1144  2.3741
  309MOL0     H40732   5.543   0.117   4.240  3.1176  2.0814  1.9040
  309MOL0     H40733   5.636  -0.137   4.192  0.6496 -1.0269 -1.7795
  309MOL0     H40734   5.559  -0.115   4.035  1.8390  0.5379 -0.5820
  309MOL0     H40735   5.352  -0.128   4.097 -0.8986 -1.6843  0.7435
  309MOL0     H40736   5.378  -0.049   4.260 -2.0484 -1.8281  1.7912
  309MOL0     H40737   5.480  -0.319   4.211 -2.5180 -1.8422 -2.3687
  309MOL0     H40738   5.433  -0.231   4.366 -0.8190  0.1818  0.3876
  309MOL0     H40739   5.193  -0.246   4.234 -0.5970 -0.4810  1.2220
  309MOL0     H40740   5.252  -0.373   4.339  0.4363 -0.3172  0.2231
  309MOL0     H40741   5.168  -0.586   4.229  2.7753 -0.8765 -0.0756
  309MOL0     H40742   5.138  -0.716   3.860 -0.7038  0.5970  0.0449
  309MOL0     H40743   5.063  -0.745   4.012  0.0791  1.5061  1.6522
  309MOL0     H40744   5.271  -0.845   4.106  0.2568 -0.7498  0.4762
  309MOL0     H40745   5.355  -0.814   3.953 -0.2227  0.3694  0.1987
  309MOL0     H40746   5.116  -0.978   3.952 -0.2183  0.6153 -1.1233
  309MOL0     H40747   5.242  -0.974   3.828  0.8873  1.4295 -0.0959
  309MOL0     H40748   5.255  -1.179   3.928 -0.0603  1.4093 -2.2783
  309MOL0     H40749   5.264  -1.113   4.091 -0.4531  1.2044 -0.3408
  309MOL0     H40750   5.552  -1.214   3.789  0.8573 -1.4038 -0.8863
  309MOL0     H40751   5.747  -1.362   3.821 -0.6038  0.0219 -0.0352
  309MOL0     H40752   6.082  -1.447   4.113 -3.5484 -0.6730 -2.5123
  309MOL0     H40753   6.282  -1.596   4.106 -1.5061  1.0845 -0.7831
  309MOL0     H40754   6.410  -1.723   4.299  2.4657 -0.8292  1.4781
  309MOL0     H40755   6.473  -1.792   4.143  1.7712 -1.1268  0.6768
  309MOL0     H40756   6.429  -2.027   4.255 -1.8584 -0.1107 -1.0775
  309MOL0     H40757   6.437  -1.926   4.403  2.7228 -1.6672  0.7371
  309MOL0     H40758   6.668  -1.905   4.185  1.1140  0.7305  0.7470
  309MOL0     H40759   6.665  -2.026   4.298 -0.3692  1.1133 -1.0849
  309MOL0     H40760   6.673  -1.722   4.312 -2.7272 -0.1606  0.3729
  309MOL0     H40761   6.648  -1.815   4.460 -1.8607 -0.2297 -1.3435
  309MOL0     H40762   6.868  -1.926   4.404  1.0735 -0.0775  1.2491
  309MOL0     H40763   6.887  -1.749   4.429 -0.1050 -2.1367  2.0399
  309MOL0     H40764   6.878  -1.720   4.177 -0.7045 -0.8721 -2.0901
  309MOL0     H40765   6.871  -1.891   4.164  0.4153 -0.4321  1.2156
  309MOL0     H40766   7.113  -1.790   4.337  0.4533  0.0981 -0.5260
  309MOL0     H40767   7.113  -1.920   4.233  1.3729 -0.0966 -0.0757
  309MOL0     H40768   7.110  -1.773   4.036 -0.8554 -0.2576  0.2303
  309MOL0     H40769   7.243  -1.744   4.128 -0.1122  0.5670 -0.0155
  309MOL0     H40770   6.030  -1.923   4.230  2.5032  0.1907 -0.1161
  309MOL0     H40771   5.838  -1.770   4.240 -0.9405 -0.8348 -2.4729
  309MOL0     H40772   5.639  -1.386   4.245 -0.4373 -2.1755 -0.4718
  309MOL0     H40773   5.483  -1.192   4.216 -0.2916  1.3100  0.2346
  309MOL0     H40774   5.875   0.406   4.200 -2.0845  0.1808 -0.9895
  309MOL0     H40775   6.078   0.505   4.248  0.2085 -0.3129 -0.2011
  309MOL0     H40776   6.371   0.822   4.221 -2.2803 -1.3832 -1.3950
  309MOL0     H40777   6.591   0.901   4.281  2.3878 -1.4345  0.7538
  309MOL0     H40778   6.813   1.061   3.969  2.2455  0.7246 -1.2622
  309MOL0     H40779   6.944   0.948   3.958  0.7620  0.5086 -0.1977
  309MOL0     H40780   7.013   1.185   4.011 -2.1245 -0.5697 -1.2130
  309MOL0     H40781   6.940   1.177   4.174 -1.3028 -1.4625 -0.1094
  309MOL0     H40782   7.179   1.029   4.056 -1.5342 -1.5319 -0.6897
  309MOL0     H40783   7.102   0.979   4.208  3.6351 -0.7262  0.1378
  309MOL0     H40784   7.231   1.257   4.156  1.1955 -1.5381 -0.0431
  309MOL0     H40785   7.123   1.219   4.291 -0.0139 -2.3540  1.0682
  309MOL0     H40786   7.492   1.005   4.356 -0.7995 -2.0294 -0.2438
  309MOL0     H40787   6.734   0.830   3.876 -1.2631  1.1788 -1.5895
  309MOL0     H40788   6.529   0.736   3.823  0.4542 -2.7821  0.6491
  310MOL0     O40789   0.918   8.013   7.725  0.2747 -0.0788 -0.6232
  310MOL0     C40790   0.952   7.997   7.614 -0.1970  0.1030 -0.1960
  310MOL0     O40791   0.880   8.029   7.498  0.5937  0.2953 -0.6501
  310MOL0     C40792   0.744   8.052   7.495  0.1931 -0.2137  0.2352
  310MOL0     C40793   0.664   8.082   7.613  0.0295 -0.7874 -1.2553
  310MOL0     C40794   0.529   8.115   7.590 -0.0374 -0.2224 -0.6587
  310MOL0     C40795   0.472   8.131   7.462 -0.6989  0.8330  0.0437
  310MOL0     O40796   0.342   8.160   7.438  0.1568 -0.4312  0.0376
  310MOL0     C40797   0.244   8.182   7.552  0.0743  0.5478 -0.1565
  310MOL0     C40798   0.123   8.286   7.509 -0.8642  1.0186  0.7434
  310MOL0     C40799   0.017   8.221   7.429 -0.0089 -0.0890 -0.4183
  310MOL0     C40800  -0.078   8.335   7.378 -0.1247  0.1837 -0.4437
  310MOL0     C40801  -0.223   8.294   7.374  0.4210  0.3082  0.0392
  310MOL0     C40802  -0.311   8.415   7.331 -0.0193 -0.3118  0.2728
  310MOL0     C40803  -0.455   8.371   7.296 -0.3150 -0.1507  0.2672
  310MOL0     C40804  -0.482   8.258   7.204 -0.0925  0.4688  0.2905
  310MOL0     N40805  -0.464   8.297   7.060 -0.6614 -0.1674  0.0780
  310MOL0     C40806  -0.402   8.203   6.982 -0.2078 -0.2984 -0.4944
  310MOL0     C40807  -0.382   8.267   6.865 -0.4253 -0.1597 -0.1148
  310MOL0     C40808  -0.311   8.224   6.737  0.1603 -0.7289 -0.7145
  310MOL0     C40809  -0.157   8.175   6.752  0.5699 -0.1006  0.3094
  310MOL0     C40810  -0.079   8.247   6.856 -0.9556 -1.1744 -0.3919
  310MOL0     C40811   0.051   8.180   6.872 -0.4944 -0.4606 -0.3798
  310MOL0     O40812   0.139   8.266   6.946  0.1685 -0.0867  0.0546
  310MOL0     C40813   0.272   8.239   6.947  0.0592 -0.0491  0.2526
  310MOL0     C40814   0.347   8.295   7.040 -0.0959 -0.3973 -0.3933
  310MOL0     C40815   0.487   8.279   7.043 -0.8598 -0.0762 -0.6223
  310MOL0     C40816   0.557   8.201   6.943  0.5423 -0.5324  0.0578
  310MOL0     C40817   0.697   8.172   6.956 -0.2178 -0.2708  0.2550
  310MOL0     O40818   0.754   8.206   7.074 -0.1952  0.6041 -0.3033
  310MOL0     C40819   0.887   8.180   7.104  0.0046 -0.2406 -0.7760
  310MOL0     C40820   0.937   8.267   7.198 -1.1321 -0.5326  0.0034
  310MOL0     C40821   1.071   8.248   7.236  1.1500  0.8037  0.6834
  310MOL0     C40822   1.154   8.154   7.168 -0.4390  0.3706 -1.0307
  310MOL0     O40823   1.281   8.121   7.202  0.1504  0.0858 -0.2866
  310MOL0     C40824   1.352   8.207   7.298  0.0402  0.1297  0.1380
  310MOL0     C40825   1.482   8.130   7.327 -0.2732  0.7993 -1.2508
  310MOL0     C40826   1.587   8.205   7.408  0.3669 -0.3337  0.5032
  310MOL0     C40827   1.711   8.111   7.421 -0.3782 -0.9484 -0.0919
  310MOL0     C40828   1.817   8.170   7.511  0.0483  0.5617 -0.5777
  310MOL0     C40829   1.910   8.274   7.456 -0.3944 -0.2602  0.1292
  310MOL0     C40830   1.999   8.231   7.342 -0.4748  0.1212  0.2922
  310MOL0     C40831   2.140   8.219   7.382  0.4638 -0.1923 -0.1338
  310MOL0    Cl40832   2.219   8.140   7.243 -0.2750  0.0428 -0.7216
  310MOL0     C40833   1.099   8.068   7.079  0.4082  0.3313 -0.2975
  310MOL0     C40834   0.969   8.084   7.046  0.3230 -0.2413 -0.2126
  310MOL0     O40835   0.760   8.114   6.866  0.2904 -0.9277  0.3956
  310MOL0     C40836   0.476   8.139   6.845  0.7525 -0.1047 -0.2721
  310MOL0     C40837   0.337   8.165   6.849 -0.1085 -0.2334  0.8770
  310MOL0     N40838  -0.448   8.387   6.877 -0.3603  1.0958  0.4929
  310MOL0     N40839  -0.481   8.412   6.995  0.1080 -0.7727  0.7668
  310MOL0     C40840   0.551   8.100   7.351  0.1389  0.4734 -0.3785
  310MOL0     C40841   0.684   8.070   7.374  0.9361  0.5144 -0.3158
  310MOL0     C40842   1.087   7.939   7.601 -0.6098  0.3944  0.4020
  310MOL0     C40843   1.143   7.915   7.471  0.1355 -0.5591 -0.2350
  310MOL0     C40844   1.262   7.845   7.454 -0.3197 -0.3088 -0.2799
  310MOL0     C40845   1.325   7.790   7.566  1.4011 -0.0564 -0.1933
  310MOL0     O40846   1.451   7.730   7.548  0.4062 -0.4198  0.6790
  310MOL0     C40847   1.549   7.758   7.649  0.2883 -0.9903  0.1355
  310MOL0     C40848   1.688   7.706   7.608  0.4116 -0.0001  0.4238
  310MOL0     C40849   1.686   7.557   7.581  0.4806  1.3543  0.3630
  310MOL0     C40850   1.691   7.465   7.706 -0.1544  0.0940 -0.0083
  310MOL0     C40851   1.614   7.344   7.702  0.3678 -0.0780  0.7680
  310MOL0     C40852   1.546   7.241   7.693 -0.3650 -0.8343 -1.4861
  310MOL0     C40853   1.271   7.803   7.695  0.2868  0.7465  0.2767
  310MOL0     C40854   1.151   7.872   7.712  0.4385  0.1384  0.4703
  310MOL0     H40855   0.703   8.070   7.714 -2.3333  0.0643 -0.1791
  310MOL0     H40856   0.473   8.129   7.682 -0.8686  1.3643 -1.3632
  310MOL0     H40857   0.298   8.238   7.628  0.9635  1.1945 -1.2385
  310MOL0     H40858   0.209   8.084   7.585 -0.0899 -0.0014 -1.8530
  310MOL0     H40859   0.167   8.353   7.435 -1.8394 -2.4743 -3.4205
  310MOL0     H40860   0.086   8.334   7.600  0.9126 -0.9441  2.6459
  310MOL0     H40861  -0.038   8.151   7.493  0.8880  2.4538  3.4344
  310MOL0     H40862   0.055   8.163   7.344  1.2933 -1.7202  1.2031
  310MOL0     H40863  -0.061   8.417   7.449  1.2731 -0.6499  0.2301
  310MOL0     H40864  -0.043   8.379   7.284  0.2841 -0.1934 -0.4731
  310MOL0     H40865  -0.256   8.259   7.472  0.7996 -0.2698 -0.0344
  310MOL0     H40866  -0.221   8.210   7.304 -1.7289 -0.9354  1.3620
  310MOL0     H40867  -0.270   8.476   7.250  1.6893 -0.1257  1.2336
  310MOL0     H40868  -0.320   8.479   7.419 -2.8345 -0.0696 -0.1021
  310MOL0     H40869  -0.489   8.336   7.393 -0.2987  0.0383  0.3412
  310MOL0     H40870  -0.513   8.462   7.275  1.9668  1.3213 -0.0334
  310MOL0     H40871  -0.583   8.225   7.227  0.4815 -1.9067 -0.2903
  310MOL0     H40872  -0.423   8.172   7.237  1.6327  0.2018 -2.9692
  310MOL0     H40873  -0.376   8.101   7.009  0.2820 -0.0220  0.0964
  310MOL0     H40874  -0.316   8.315   6.677 -2.5272 -0.7095 -0.6031
  310MOL0     H40875  -0.367   8.146   6.685 -0.5813 -3.3059  3.4363
  310MOL0     H40876  -0.110   8.197   6.656 -0.1578  2.8567  0.5332
  310MOL0     H40877  -0.163   8.067   6.771  0.0986 -0.3475 -1.1102
  310MOL0     H40878  -0.065   8.352   6.828  0.0946 -1.1590  0.1084
  310MOL0     H40879  -0.123   8.260   6.956  3.2936 -0.4005  1.6150
  310MOL0     H40880   0.089   8.153   6.773  1.7157  0.4300  0.1605
  310MOL0     H40881   0.034   8.087   6.926 -2.7168  0.7770  1.2544
  310MOL0     H40882   0.288   8.353   7.109  0.5796  0.5464 -0.5726
  310MOL0     H40883   0.547   8.318   7.124  2.2569 -1.9991 -1.8215
  310MOL0     H40884   0.868   8.331   7.253 -0.4319  0.7375 -0.5369
  310MOL0     H40885   1.094   8.303   7.327  1.2247 -0.7916  1.6634
  310MOL0     H40886   1.302   8.230   7.392 -0.3684 -0.8777  0.1710
  310MOL0     H40887   1.380   8.298   7.243 -3.5127  1.5043  0.3461
  310MOL0     H40888   1.535   8.099   7.237 -0.5220 -0.0189 -1.1170
  310MOL0     H40889   1.454   8.041   7.383 -0.6178  0.8333 -1.3664
  310MOL0     H40890   1.536   8.231   7.502 -0.5356  0.2507 -0.1251
  310MOL0     H40891   1.615   8.296   7.354 -0.8837 -0.5429 -0.5434
  310MOL0     H40892   1.678   8.022   7.475 -0.3244  0.2796  2.0652
  310MOL0     H40893   1.745   8.079   7.322 -3.2636  0.1504 -1.5682
  310MOL0     H40894   1.883   8.088   7.542 -0.4803  0.3803  0.0920
  310MOL0     H40895   1.786   8.221   7.603  0.2525 -0.3037 -0.0159
  310MOL0     H40896   1.972   8.324   7.530  0.5852  0.4136 -1.1137
  310MOL0     H40897   1.850   8.356   7.415 -2.8196 -1.2582  1.4529
  310MOL0     H40898   1.958   8.140   7.298  0.6092 -0.2579  0.0427
  310MOL0     H40899   1.991   8.308   7.265 -1.0657  1.5809  1.7547
  310MOL0     H40900   2.146   8.159   7.474  0.9166  0.8998  0.5735
  310MOL0     H40901   2.190   8.313   7.410  0.8421 -0.5391  0.3751
  310MOL0     H40902   1.159   7.988   7.037 -0.8580 -0.9506  0.2459
  310MOL0     H40903   0.933   8.005   6.982 -1.5061 -0.6530  1.2158
  310MOL0     H40904   0.528   8.079   6.772  0.2613  1.6023 -2.0992
  310MOL0     H40905   0.290   8.108   6.770  0.8507 -0.5854  0.5512
  310MOL0     H40906   0.529   8.101   7.245  1.3912  1.0192 -0.6485
  310MOL0     H40907   0.747   8.067   7.285 -2.1569 -1.1023 -2.6683
  310MOL0     H40908   1.100   7.961   7.383 -2.4846  1.8435  2.0537
  310MOL0     H40909   1.308   7.839   7.356  1.5389 -1.3987  0.6026
  310MOL0     H40910   1.524   7.693   7.734 -3.9684  0.1686  0.0239
  310MOL0     H40911   1.545   7.865   7.671 -0.5035 -0.7791 -0.9652
  310MOL0     H40912   1.718   7.753   7.514 -2.3534 -1.6589 -1.4604
  310MOL0     H40913   1.757   7.732   7.688  1.2820 -1.8270  0.3261
  310MOL0     H40914   1.767   7.530   7.513 -0.1641  3.1277 -1.1777
  310MOL0     H40915   1.602   7.524   7.519  0.1044  0.0586  1.5076
  310MOL0     H40916   1.794   7.428   7.703 -0.7215 -1.5091 -2.7078
  310MOL0     H40917   1.671   7.518   7.800 -0.0376  0.6716 -0.3097
  310MOL0     H40918   1.477   7.161   7.672 -0.1015 -1.7015  0.7087
  310MOL0     H40919   1.322   7.774   7.786  0.2577  0.3358  0.1640
  310MOL0     H40920   1.102   7.896   7.806  0.5100  1.3026  0.2270
  311MOL0     O40921   5.640   4.080  10.327 -0.4355 -0.3511 -0.4918
  311MOL0     C40922   5.674   4.196  10.302 -0.0231 -0.1085  0.0191
  311MOL0     O40923   5.591   4.306  10.287  0.3536 -0.5109 -0.4713
  311MOL0     C40924   5.456   4.295  10.313  0.7374  0.0075 -0.4570
  311MOL0     C40925   5.367   4.185  10.304 -0.4572  0.4254 -0.9027
  311MOL0     C40926   5.228   4.194  10.340  0.7555  0.4040  0.3901
  311MOL0     C40927   5.162   4.315  10.366  0.1501  0.0441  0.4794
  311MOL0     O40928   5.029   4.324  10.394 -0.5227 -0.2406 -0.0073
  311MOL0     C40929   4.941   4.217  10.362 -0.3305  0.5912 -0.2308
  311MOL0     C40930   4.798   4.268  10.352  0.1236  0.2838 -0.2154
  311MOL0     C40931   4.693   4.151  10.360  0.2357  0.5746 -0.4599
  311MOL0     C40932   4.554   4.215  10.354  0.1652  0.7414  0.6053
  311MOL0     C40933   4.448   4.103  10.370 -0.4430  0.5566  0.0302
  311MOL0     C40934   4.317   4.158  10.317  0.3773  0.9124 -0.0225
  311MOL0     C40935   4.200   4.084  10.381  0.3541 -0.0598 -0.9043
  311MOL0     C40936   4.077   4.100  10.305 -0.1404 -0.5527  0.4450
  311MOL0     N40937   3.960   4.062  10.383 -0.3746  0.0632 -0.1885
  311MOL0     C40938   3.944   3.944  10.454 -1.3836  0.0474 -0.3030
  311MOL0     C40939   3.827   3.953  10.530 -1.2146 -1.0008 -0.2885
  311MOL0     C40940   3.759   3.856  10.627 -0.7076 -0.2217  0.2070
  311MOL0     C40941   3.603   3.858  10.596  0.4937 -0.3368  0.2870
  311MOL0     C40942   3.533   3.811  10.723  0.5036  0.0112  0.2378
  311MOL0     C40943   3.382   3.795  10.707 -1.2612 -0.3540 -0.1758
  311MOL0     O40944   3.340   3.770  10.844  0.1368 -0.2343 -0.5522
  311MOL0     C40945   3.207   3.734  10.853 -0.4995  0.4712 -0.2531
  311MOL0     C40946   3.158   3.708  10.980  0.0700  0.5786 -0.2995
  311MOL0     C40947   3.021   3.692  11.000 -0.3761  0.3630 -1.0170
  311MOL0     C40948   2.927   3.689  10.891 -0.1313  0.2016 -0.5263
  311MOL0     C40949   2.778   3.681  10.911  0.3951 -0.0531 -0.7934
  311MOL0     O40950   2.730   3.623  11.027 -0.2475  0.1314  0.4368
  311MOL0     C40951   2.596   3.600  11.024 -0.5553  0.7073  0.4105
  311MOL0     C40952   2.543   3.479  10.979  0.2083  0.4201  0.0272
  311MOL0     C40953   2.399   3.469  10.960 -0.1029  0.0699  0.2424
  311MOL0     C40954   2.306   3.572  10.997  0.0289  0.1657  0.9158
  311MOL0     O40955   2.171   3.547  11.001 -0.5246  0.2255  0.4804
  311MOL0     C40956   2.079   3.662  11.009  1.2057  0.9201  0.0342
  311MOL0     C40957   1.963   3.650  10.907 -0.5233 -0.5890  0.7898
  311MOL0     C40958   1.864   3.543  10.934  0.1828  0.2098 -0.0996
  311MOL0     C40959   1.768   3.514  10.817  0.5479 -0.7051 -0.4476
  311MOL0     C40960   1.659   3.410  10.853 -0.3747  0.2585  0.1692
  311MOL0     C40961   1.579   3.374  10.727  0.1541 -0.4144 -0.8259
  311MOL0     C40962   1.525   3.493  10.643  0.6579  0.5168  0.0100
  311MOL0     C40963   1.415   3.569  10.730 -0.6980  0.3830  0.0388
  311MOL0    Cl40964   1.412   3.743  10.666 -0.3296  0.0365 -0.2401
  311MOL0     C40965   2.369   3.691  11.048 -0.2493 -0.2686  0.7408
  311MOL0     C40966   2.507   3.704  11.069 -0.5005 -1.1460 -0.5013
  311MOL0     O40967   2.707   3.717  10.815  0.4186  0.4739 -0.6473
  311MOL0     C40968   2.982   3.696  10.762  0.3097 -0.3789  0.2799
  311MOL0     C40969   3.119   3.726  10.744 -0.4322 -0.3231 -0.3120
  311MOL0     N40970   3.783   4.085  10.504 -0.7977  0.2482  0.2796
  311MOL0     N40971   3.860   4.142  10.413 -0.6254  0.6532 -0.6682
  311MOL0     C40972   5.255   4.422  10.376 -0.1307  0.1517 -1.0867
  311MOL0     C40973   5.390   4.414  10.350 -0.4157  0.7785  0.0199
  311MOL0     C40974   5.820   4.219  10.267  0.1188  1.0473 -0.2375
  311MOL0     C40975   5.916   4.115  10.265  0.7615 -0.9484  1.3373
  311MOL0     C40976   6.051   4.136  10.242  0.7405  0.0088 -0.4894
  311MOL0     C40977   6.102   4.268  10.214  0.8910  0.2246 -0.0559
  311MOL0     O40978   6.237   4.289  10.197  0.4546  0.1968 -0.3128
  311MOL0     C40979   6.330   4.214  10.270  0.4083 -0.1356 -0.4117
  311MOL0     C40980   6.463   4.275  10.283 -0.7576 -0.2550 -0.3047
  311MOL0     C40981   6.551   4.265  10.152  0.1070  0.0492 -0.2232
  311MOL0     C40982   6.698   4.286  10.191 -0.7106 -0.3589 -0.2192
  311MOL0     C40983   6.780   4.296  10.072  0.2746 -0.3764  0.1629
  311MOL0     C40984   6.847   4.305   9.973 -0.0025  0.0097  0.2461
  311MOL0     C40985   6.006   4.370  10.215  0.8423 -0.1926  0.1155
  311MOL0     C40986   5.866   4.347  10.237  0.4987 -0.5324  0.4023
  311MOL0     H40987   5.393   4.084  10.274 -0.9351 -0.0376  0.2026
  311MOL0     H40988   5.162   4.109  10.329  0.7694  0.4224  0.1688
  311MOL0     H40989   4.951   4.140  10.440 -0.8464  0.3853 -0.3610
  311MOL0     H40990   4.966   4.177  10.263  2.3237  4.2161 -1.2001
  311MOL0     H40991   4.773   4.313  10.256 -0.3199 -2.9587 -1.7727
  311MOL0     H40992   4.782   4.334  10.438  0.6675 -2.0452  1.8216
  311MOL0     H40993   4.704   4.094  10.453 -2.9344  0.7160  0.1093
  311MOL0     H40994   4.707   4.080  10.279  2.1127 -1.1489  1.2564
  311MOL0     H40995   4.537   4.290  10.432  0.2825  0.7969  0.5767
  311MOL0     H40996   4.541   4.265  10.257 -1.0045 -0.5868  0.0360
  311MOL0     H40997   4.441   4.068  10.473 -0.0768  0.3891 -0.0017
  311MOL0     H40998   4.479   4.013  10.316  0.4368  0.0530  1.3275
  311MOL0     H40999   4.306   4.139  10.210 -3.3798  2.2371 -0.0452
  311MOL0     H41000   4.307   4.264  10.340  1.2366  0.8317  0.7636
  311MOL0     H41001   4.235   3.984  10.407  1.7394 -0.0540 -2.5429
  311MOL0     H41002   4.174   4.128  10.478 -1.1656  2.5137 -2.3549
  311MOL0     H41003   4.076   4.030  10.221 -1.8426  1.4823 -1.3670
  311MOL0     H41004   4.066   4.202  10.268  2.0423  0.2495  1.8664
  311MOL0     H41005   4.009   3.858  10.443 -0.6040  0.7461 -1.4806
  311MOL0     H41006   3.779   3.894  10.727 -3.7757 -1.3502  1.3739
  311MOL0     H41007   3.813   3.762  10.616 -0.0875  0.3814 -2.9474
  311MOL0     H41008   3.583   3.778  10.525 -0.6349 -0.2649  0.4976
  311MOL0     H41009   3.575   3.955  10.553  0.1734  0.2435  1.7123
  311MOL0     H41010   3.576   3.714  10.750 -0.1165 -0.8394 -1.6317
  311MOL0     H41011   3.555   3.880  10.805  0.3719  0.5085 -0.1397
  311MOL0     H41012   3.361   3.717  10.633 -1.0155  3.1397 -4.3022
  311MOL0     H41013   3.349   3.892  10.670  1.1620  0.3764 -0.5827
  311MOL0     H41014   3.219   3.704  11.070  0.8237 -1.3215 -0.8441
  311MOL0     H41015   2.991   3.687  11.105  1.0853  2.9538 -0.3831
  311MOL0     H41016   2.607   3.400  10.943 -0.6696  0.1394 -0.9804
  311MOL0     H41017   2.367   3.379  10.908  1.7042 -0.2322 -0.4276
  311MOL0     H41018   2.132   3.752  10.980  0.6045  1.9976  2.0508
  311MOL0     H41019   2.034   3.665  11.109 -0.4775  0.9163 -0.6911
  311MOL0     H41020   2.015   3.618  10.816 -2.4103 -0.0942 -0.5309
  311MOL0     H41021   1.922   3.750  10.892  0.7541 -0.0039  1.0311
  311MOL0     H41022   1.812   3.584  11.020 -1.1527 -0.6894 -0.4526
  311MOL0     H41023   1.919   3.453  10.965 -0.3322 -0.7064 -1.7256
  311MOL0     H41024   1.715   3.606  10.793  0.4550 -0.4667  0.5995
  311MOL0     H41025   1.815   3.483  10.723 -1.5552 -2.8264 -0.9180
  311MOL0     H41026   1.589   3.458  10.923 -0.4564  0.4451 -0.0382
  311MOL0     H41027   1.692   3.320  10.905  0.6125 -0.3689 -1.4861
  311MOL0     H41028   1.497   3.313  10.766  2.2330 -2.2228  0.9572
  311MOL0     H41029   1.645   3.316  10.662 -1.2581 -1.6293 -1.2328
  311MOL0     H41030   1.615   3.547  10.613 -0.0928  2.3906  0.9610
  311MOL0     H41031   1.477   3.455  10.552  2.5621  0.3840 -0.9886
  311MOL0     H41032   1.442   3.582  10.835 -0.0412 -2.3265  0.2901
  311MOL0     H41033   1.316   3.521  10.727 -0.1314 -0.8772 -3.2839
  311MOL0     H41034   2.317   3.782  11.077  0.4099  0.2595  0.2768
  311MOL0     H41035   2.545   3.789  11.124 -1.7435 -1.6458  1.2098
  311MOL0     H41036   2.919   3.701  10.673  1.4393  0.5375 -0.5080
  311MOL0     H41037   3.146   3.750  10.641 -1.0239  1.6628 -0.0379
  311MOL0     H41038   5.208   4.516  10.403 -1.9573 -0.7126 -1.1592
  311MOL0     H41039   5.445   4.502  10.381 -0.4039  0.6438  0.3902
  311MOL0     H41040   5.878   4.015  10.283  1.6383 -1.1085  2.3665
  311MOL0     H41041   6.112   4.047  10.252 -1.1528 -1.2882 -0.1095
  311MOL0     H41042   6.326   4.113  10.228 -1.3773  1.1790 -3.8059
  311MOL0     H41043   6.289   4.205  10.371 -0.0180 -2.8775 -0.7582
  311MOL0     H41044   6.445   4.379  10.313  1.2045 -0.2915  1.1799
  311MOL0     H41045   6.516   4.219  10.360 -1.8828  0.6585  1.1920
  311MOL0     H41046   6.509   4.339  10.083  0.0292  4.0831  3.6486
  311MOL0     H41047   6.545   4.163  10.114  5.3522 -0.9359  0.8828
  311MOL0     H41048   6.719   4.381  10.241  1.8065 -0.3266 -1.1725
  311MOL0     H41049   6.735   4.203  10.251  2.2819 -0.3822 -1.9119
  311MOL0     H41050   6.907   4.319   9.886  0.5071  2.3567  0.8916
  311MOL0     H41051   6.043   4.471  10.199 -2.1331  1.1916  1.1716
  311MOL0     H41052   5.814   4.442  10.229  1.1333 -0.2811 -1.0028
  312MOL0     O41053   0.841   0.823   2.205 -0.1942  0.0675  0.1655
  312MOL0     C41054   0.819   0.777   2.090  0.0646  0.2998  0.2119
  312MOL0     O41055   0.902   0.749   1.978  0.4186 -0.4047 -0.8739
  312MOL0     C41056   1.039   0.756   1.994  0.3909  0.2031  0.2397
  312MOL0     C41057   1.117   0.720   2.103  0.4540 -0.1266 -0.2486
  312MOL0     C41058   1.260   0.726   2.102  0.2691 -0.1280 -0.3870
  312MOL0     C41059   1.328   0.750   1.988 -0.5701 -0.6577  0.0815
  312MOL0     O41060   1.470   0.753   1.999 -0.0753 -0.1249  0.5043
  312MOL0     C41061   1.539   0.786   1.883  0.3874 -0.0942 -0.6608
  312MOL0     C41062   1.672   0.843   1.917 -0.2954  0.1107  0.6942
  312MOL0     C41063   1.761   0.857   1.781 -0.2043  0.2917 -0.4886
  312MOL0     C41064   1.901   0.915   1.816  0.0696  0.0141 -0.5249
  312MOL0     C41065   1.993   0.916   1.689 -0.7494  0.3073 -0.0737
  312MOL0     C41066   2.102   1.027   1.715 -1.0779 -0.2060  0.1529
  312MOL0     C41067   2.189   0.991   1.845 -0.9318 -0.3615 -0.1358
  312MOL0     C41068   2.305   1.089   1.847 -0.1761 -0.9461  0.4896
  312MOL0     N41069   2.408   1.083   1.947  0.4316 -0.4849 -0.4242
  312MOL0     C41070   2.538   1.067   1.911  0.1659 -0.5793  0.0493
  312MOL0     C41071   2.609   1.049   2.034  0.5096 -0.1748  0.7012
  312MOL0     C41072   2.764   1.031   2.040 -0.0437 -0.4246 -0.4303
  312MOL0     C41073   2.799   0.895   1.994  0.0629 -0.4062  0.2508
  312MOL0     C41074   2.941   0.858   2.017 -0.0662  0.6845  0.5288
  312MOL0     C41075   3.055   0.949   1.987  1.0518  0.1352 -0.2608
  312MOL0     O41076   3.160   0.892   2.063 -0.4157  0.1943  0.3340
  312MOL0     C41077   3.286   0.957   2.060  0.2310  0.1064 -0.1169
  312MOL0     C41078   3.387   0.909   2.151  0.2767  0.1219 -0.2365
  312MOL0     C41079   3.514   0.958   2.153 -0.0846  0.1145  0.4999
  312MOL0     C41080   3.547   1.061   2.064 -0.9271 -0.3888 -0.4052
  312MOL0     C41081   3.681   1.126   2.069 -0.1371 -0.6570 -0.2048
  312MOL0     O41082   3.777   1.061   2.136 -0.5651  0.1770 -0.5605
  312MOL0     C41083   3.890   1.130   2.149 -0.3616  0.2106  0.6244
  312MOL0     C41084   3.998   1.098   2.057  0.9034 -0.5971 -0.3452
  312MOL0     C41085   4.106   1.173   2.061 -0.6795  0.2673  0.5749
  312MOL0     C41086   4.117   1.283   2.158  0.6717 -0.0416  1.1663
  312MOL0     O41087   4.245   1.328   2.185  0.1736 -0.2448 -0.4520
  312MOL0     C41088   4.262   1.451   2.265 -0.3480 -0.1600  0.3607
  312MOL0     C41089   4.396   1.524   2.239 -0.1630 -0.3199  0.1279
  312MOL0     C41090   4.514   1.456   2.314  0.8294 -0.2395 -0.5636
  312MOL0     C41091   4.647   1.517   2.266 -0.6844 -0.4018 -0.0084
  312MOL0     C41092   4.765   1.422   2.309 -0.0115  0.2551  0.0103
  312MOL0     C41093   4.905   1.469   2.263 -0.1876 -0.2362  0.5656
  312MOL0     C41094   5.020   1.395   2.328  0.3102 -0.9380 -0.0208
  312MOL0     C41095   5.155   1.468   2.326  0.5107  0.4402  0.0290
  312MOL0    Cl41096   5.177   1.586   2.464  0.6958  0.2708  0.3828
  312MOL0     C41097   4.013   1.311   2.243  0.4953  0.1700 -0.2123
  312MOL0     C41098   3.902   1.236   2.237  0.1518 -0.0064 -0.2958
  312MOL0     O41099   3.695   1.239   2.015 -0.1670 -0.2584  0.7842
  312MOL0     C41100   3.452   1.118   1.977 -0.4303 -0.1365  0.6355
  312MOL0     C41101   3.321   1.068   1.978  0.1525  0.1659 -0.3153
  312MOL0     N41102   2.521   1.049   2.141 -0.0609 -0.0915  0.6671
  312MOL0     N41103   2.406   1.061   2.087  0.5488 -0.7361 -0.0165
  312MOL0     C41104   1.253   0.794   1.881  1.2978 -0.6172 -0.4394
  312MOL0     C41105   1.114   0.800   1.886  0.6707 -0.8790 -0.3890
  312MOL0     C41106   0.677   0.768   2.061 -0.5565  0.7706  0.8324
  312MOL0     C41107   0.578   0.723   2.152  0.6194 -0.5575 -0.6598
  312MOL0     C41108   0.440   0.724   2.116 -0.4652  0.3657  0.3571
  312MOL0     C41109   0.407   0.770   1.991  0.3613 -0.2420 -0.7792
  312MOL0     O41110   0.281   0.772   1.945  0.4755  0.4573  0.0665
  312MOL0     C41111   0.185   0.851   2.019  0.1498 -0.9185 -0.4654
  312MOL0     C41112   0.033   0.827   1.991 -0.0834  0.2965  0.3419
  312MOL0     C41113  -0.013   0.684   1.983  0.0334  0.1210  0.5468
  312MOL0     C41114  -0.155   0.657   2.032  0.5311 -0.3940 -0.2418
  312MOL0     C41115  -0.263   0.755   1.990  0.6384 -0.1599  0.0169
  312MOL0     C41116  -0.348   0.826   1.947 -0.1077 -0.6041 -0.2905
  312MOL0     C41117   0.501   0.798   1.901 -0.2634 -0.8738  0.3641
  312MOL0     C41118   0.638   0.801   1.936 -0.0863  0.4602 -0.0596
  312MOL0     H41119   1.053   0.703   2.189 -0.1439  1.3631 -0.3725
  312MOL0     H41120   1.302   0.695   2.197  1.1666  2.4050  0.1271
  312MOL0     H41121   1.493   0.870   1.829 -2.6414 -1.7351 -0.8647
  312MOL0     H41122   1.545   0.704   1.811 -1.3295  1.0416 -2.1830
  312MOL0     H41123   1.724   0.773   1.983 -3.2432 -3.6120 -0.5584
  312MOL0     H41124   1.658   0.944   1.957 -0.6267  0.8776 -1.2628
  312MOL0     H41125   1.715   0.938   1.723  0.5312 -0.6772 -2.5463
  312MOL0     H41126   1.778   0.770   1.717 -1.1454 -0.1983 -0.0926
  312MOL0     H41127   1.887   1.021   1.837  1.3031  0.2396 -0.7931
  312MOL0     H41128   1.934   0.856   1.902  0.2266 -0.9084 -1.2028
  312MOL0     H41129   1.937   0.937   1.598  1.2425  0.6201 -1.3025
  312MOL0     H41130   2.048   0.823   1.671  2.5056  2.1834 -0.6003
  312MOL0     H41131   2.052   1.124   1.722  1.3609  1.1337  0.2121
  312MOL0     H41132   2.165   1.019   1.626 -2.2819 -1.8191 -0.6003
  312MOL0     H41133   2.130   1.014   1.934 -5.2055 -0.5901 -2.6514
  312MOL0     H41134   2.219   0.886   1.841  0.3184 -0.0728  0.8116
  312MOL0     H41135   2.259   1.188   1.841  0.7033 -0.4850  1.0862
  312MOL0     H41136   2.361   1.085   1.753  1.7729  2.0350  1.4079
  312MOL0     H41137   2.570   1.063   1.807 -2.4780 -2.4566 -0.8062
  312MOL0     H41138   2.784   1.041   2.147 -0.7878 -0.6957 -0.2583
  312MOL0     H41139   2.819   1.105   1.981  1.4752 -1.4580 -0.3741
  312MOL0     H41140   2.762   0.888   1.891 -3.1556  2.7978  0.9610
  312MOL0     H41141   2.746   0.817   2.049  1.1182 -0.0090  1.9037
  312MOL0     H41142   2.944   0.832   2.123  0.1604  0.8888  0.5729
  312MOL0     H41143   2.961   0.763   1.967  1.1495  0.8461  0.6750
  312MOL0     H41144   3.028   1.053   2.007 -1.9111 -0.1626 -2.0562
  312MOL0     H41145   3.076   0.945   1.880  0.7354 -0.6398 -0.3007
  312MOL0     H41146   3.357   0.833   2.222  0.5680 -1.8981 -2.1546
  312MOL0     H41147   3.587   0.920   2.223 -1.0940 -0.2925  1.3440
  312MOL0     H41148   4.002   1.017   1.984  0.6154 -0.6449 -0.3080
  312MOL0     H41149   4.192   1.157   1.998 -1.0223 -0.1938  0.2209
  312MOL0     H41150   4.267   1.426   2.372  1.6366  1.6761  0.7675
  312MOL0     H41151   4.182   1.519   2.237  1.2185  0.4360 -3.1621
  312MOL0     H41152   4.381   1.630   2.260 -2.2523 -0.7712  1.2508
  312MOL0     H41153   4.411   1.518   2.131 -0.5644 -2.6511  0.1476
  312MOL0     H41154   4.517   1.348   2.296  3.3057 -0.6923  1.8465
  312MOL0     H41155   4.482   1.468   2.418  0.8647 -0.5870 -0.5116
  312MOL0     H41156   4.645   1.541   2.159 -0.1066  2.1638  0.4958
  312MOL0     H41157   4.663   1.611   2.319 -0.1696 -0.5171  0.0450
  312MOL0     H41158   4.751   1.328   2.253  1.9888  0.0618 -0.2335
  312MOL0     H41159   4.751   1.397   2.415 -0.4869 -2.6481 -0.6533
  312MOL0     H41160   4.911   1.575   2.290  2.4442 -0.2226  0.1152
  312MOL0     H41161   4.912   1.457   2.155  1.6646 -3.3106  0.9085
  312MOL0     H41162   5.004   1.393   2.436  1.6064 -2.6905  0.1905
  312MOL0     H41163   5.014   1.290   2.297  0.9598 -0.8576 -0.4328
  312MOL0     H41164   5.163   1.521   2.230  0.6887  2.9249  1.3284
  312MOL0     H41165   5.234   1.393   2.323 -0.9231 -1.0928 -1.4214
  312MOL0     H41166   4.026   1.383   2.323  1.2527  0.7151 -0.8189
  312MOL0     H41167   3.826   1.252   2.313 -0.4488  0.2103 -0.9226
  312MOL0     H41168   3.479   1.205   1.917  0.5816  1.4086  3.1709
  312MOL0     H41169   3.248   1.130   1.926  0.1818  1.4588  1.0967
  312MOL0     H41170   1.294   0.835   1.790  0.9870 -0.3290 -0.4534
  312MOL0     H41171   1.053   0.837   1.804  1.6311  2.3013  0.1812
  312MOL0     H41172   0.605   0.687   2.251 -0.5645 -0.3046 -0.2269
  312MOL0     H41173   0.367   0.698   2.192 -0.6744  1.7786  0.6702
  312MOL0     H41174   0.199   0.954   1.984  0.5573 -2.0265 -3.9682
  312MOL0     H41175   0.207   0.846   2.126  0.7004 -0.0890 -0.5294
  312MOL0     H41176  -0.028   0.886   2.060 -0.2785 -0.4368  0.8097
  312MOL0     H41177   0.018   0.872   1.893  0.0121 -2.4011 -1.0177
  312MOL0     H41178   0.057   0.628   2.046  0.6596 -0.0866 -0.3251
  312MOL0     H41179  -0.002   0.651   1.880 -1.7132 -0.7284  0.5883
  312MOL0     H41180  -0.181   0.552   2.020  1.9772 -0.7633 -0.4061
  312MOL0     H41181  -0.149   0.669   2.140  1.9067  2.2464 -0.5121
  312MOL0     H41182  -0.421   0.883   1.892  0.2173  0.3721  0.2654
  312MOL0     H41183   0.468   0.823   1.800 -1.2116 -2.3341  0.2908
  312MOL0     H41184   0.711   0.839   1.865  0.8496 -0.2056  0.5249
  313MOL0     O41185   5.089   5.354   7.157  0.5176  0.1667 -0.4780
  313MOL0     C41186   5.147   5.462   7.132 -0.1973  0.7315  0.4628
  313MOL0     O41187   5.095   5.584   7.121  0.2391 -0.2590 -0.1777
  313MOL0     C41188   4.956   5.595   7.135  0.0323 -0.1472  0.8390
  313MOL0     C41189   4.888   5.599   7.261  0.2845  0.0218 -0.0359
  313MOL0     C41190   4.754   5.600   7.275  0.7868  0.6893  0.0764
  313MOL0     C41191   4.671   5.609   7.158  0.2295  0.1816  0.5361
  313MOL0     O41192   4.541   5.620   7.194 -0.3521  0.1754  0.1230
  313MOL0     C41193   4.451   5.574   7.091 -0.4350 -0.3397 -0.5715
  313MOL0     C41194   4.313   5.562   7.150  0.2654  0.1068  0.8806
  313MOL0     C41195   4.205   5.509   7.051 -0.4063 -0.3092  0.2282
  313MOL0     C41196   4.065   5.538   7.102  0.3014  0.4702  0.0514
  313MOL0     C41197   3.964   5.543   6.989  0.5033  0.4336 -0.9350
  313MOL0     C41198   3.821   5.522   7.046  0.4024 -1.1884 -0.5135
  313MOL0     C41199   3.787   5.391   7.093 -0.2085  0.5018 -0.2264
  313MOL0     C41200   3.636   5.376   7.128 -0.3332  0.0222  0.4889
  313MOL0     N41201   3.623   5.280   7.240 -0.3423  0.2177 -0.2450
  313MOL0     C41202   3.530   5.175   7.239 -0.4906  0.3155  0.3497
  313MOL0     C41203   3.551   5.117   7.352 -0.9223 -0.6937 -0.6487
  313MOL0     C41204   3.459   5.003   7.394 -0.3019 -0.3349 -0.2068
  313MOL0     C41205   3.459   4.880   7.295  0.1777 -0.1213  0.3134
  313MOL0     C41206   3.388   4.762   7.353  0.6912  0.0436 -0.1232
  313MOL0     C41207   3.248   4.804   7.415  0.2114 -0.5897  0.3222
  313MOL0     O41208   3.152   4.853   7.311 -0.4598  0.1065 -0.3254
  313MOL0     C41209   3.016   4.855   7.330 -0.2018  0.1426 -0.2099
  313MOL0     C41210   2.947   4.809   7.449 -0.3228  1.0169  0.4063
  313MOL0     C41211   2.812   4.834   7.471  0.3377  0.1314  0.0715
  313MOL0     C41212   2.729   4.886   7.376 -0.2426 -0.5734  0.1614
  313MOL0     C41213   2.581   4.908   7.403 -0.5811 -0.5107  0.4409
  313MOL0     O41214   2.500   4.965   7.307  0.6469  0.2068  0.3891
  313MOL0     C41215   2.366   4.961   7.322 -0.2501 -0.0753 -0.0547
  313MOL0     C41216   2.298   5.087   7.314 -0.1090  0.2142  0.2927
  313MOL0     C41217   2.161   5.104   7.342 -0.2792  0.0061  0.4259
  313MOL0     C41218   2.085   4.985   7.359 -0.6454 -0.1293 -0.2439
  313MOL0     O41219   1.950   4.984   7.374 -0.8713 -0.5262  0.3852
  313MOL0     C41220   1.883   5.076   7.299 -0.7637 -0.0778 -0.1175
  313MOL0     C41221   1.748   5.016   7.276  0.0828  0.5246 -0.2651
  313MOL0     C41222   1.645   5.054   7.376 -0.0746  0.6875  0.3018
  313MOL0     C41223   1.509   5.015   7.331  0.3319  0.4113 -0.1062
  313MOL0     C41224   1.404   5.035   7.438 -0.1006 -0.1031 -0.5250
  313MOL0     C41225   1.381   5.177   7.448  0.4726 -0.9580  0.5232
  313MOL0     C41226   1.294   5.215   7.567  0.6979 -0.2937  1.3967
  313MOL0     C41227   1.148   5.159   7.553 -0.5496  0.0366 -0.3169
  313MOL0    Cl41228   1.066   5.225   7.416 -0.2488 -0.1492  0.3358
  313MOL0     C41229   2.149   4.860   7.351 -0.6530 -0.1127 -0.2345
  313MOL0     C41230   2.288   4.847   7.335  0.3377  0.6004 -0.7388
  313MOL0     O41231   2.540   4.870   7.515 -0.8887  0.4557  0.0275
  313MOL0     C41232   2.794   4.927   7.258 -0.1018  0.1281  0.3876
  313MOL0     C41233   2.934   4.900   7.233  0.4282 -0.7622 -0.5881
  313MOL0     N41234   3.639   5.193   7.434  0.3914  1.0308 -0.1099
  313MOL0     N41235   3.680   5.286   7.360 -0.6403 -0.4206  0.4148
  313MOL0     C41236   4.733   5.595   7.032 -0.3653  0.7765  0.2002
  313MOL0     C41237   4.879   5.587   7.021 -0.1771  0.0843  0.1628
  313MOL0     C41238   5.294   5.459   7.145  0.1572  0.1567  0.3469
  313MOL0     C41239   5.370   5.580   7.145  0.8312 -0.2579 -0.2565
  313MOL0     C41240   5.510   5.585   7.164  0.0567 -0.4968  0.1879
  313MOL0     C41241   5.575   5.462   7.173  0.6437 -0.7019  0.2204
  313MOL0     O41242   5.709   5.448   7.187 -0.1616 -0.8685  0.1554
  313MOL0     C41243   5.792   5.564   7.203 -0.5012 -0.0355  0.3617
  313MOL0     C41244   5.932   5.508   7.214 -0.4873 -0.5891  0.1833
  313MOL0     C41245   5.949   5.411   7.337 -0.1811 -0.4680 -0.0653
  313MOL0     C41246   6.091   5.362   7.355 -0.0584  0.3250 -0.3614
  313MOL0     C41247   6.181   5.463   7.397  0.2152 -0.4169 -0.8433
  313MOL0     C41248   6.253   5.554   7.425  0.5157 -0.1069  0.7345
  313MOL0     C41249   5.497   5.341   7.156 -0.5006 -0.2045 -1.6011
  313MOL0     C41250   5.361   5.342   7.142  0.0765  0.0052 -0.1671
  313MOL0     H41251   4.952   5.588   7.348  1.4377  1.8066 -0.5956
  313MOL0     H41252   4.705   5.603   7.371 -3.0628 -0.3014 -1.6462
  313MOL0     H41253   4.480   5.473   7.061 -0.4085 -0.4713 -0.1182
  313MOL0     H41254   4.443   5.647   7.010 -0.3007  0.7570  0.3832
  313MOL0     H41255   4.286   5.661   7.188  1.3198  1.0338 -0.6788
  313MOL0     H41256   4.312   5.484   7.227  2.4660  0.5193  1.4138
  313MOL0     H41257   4.217   5.403   7.028 -2.7031 -0.6541  0.3918
  313MOL0     H41258   4.208   5.564   6.956 -2.3207  0.5159  0.6000
  313MOL0     H41259   4.031   5.461   7.172  2.6487 -2.4803 -1.7975
  313MOL0     H41260   4.055   5.632   7.158 -0.9542 -0.8617  2.2510
  313MOL0     H41261   3.991   5.460   6.923  2.5352 -1.0412  1.5890
  313MOL0     H41262   3.975   5.643   6.945 -2.4784  2.4621  2.3616
  313MOL0     H41263   3.748   5.544   6.967 -2.1018 -1.4651  1.5787
  313MOL0     H41264   3.814   5.592   7.130 -0.1923 -2.2746  0.3754
  313MOL0     H41265   3.830   5.321   7.021  3.2131  1.9277  0.2180
  313MOL0     H41266   3.843   5.372   7.185  0.4826 -2.0625 -1.0970
  313MOL0     H41267   3.587   5.337   7.038 -0.2663 -0.9471  0.8619
  313MOL0     H41268   3.590   5.473   7.151 -0.3143 -0.0132  0.6807
  313MOL0     H41269   3.467   5.141   7.158  0.8528 -0.8267 -0.2480
  313MOL0     H41270   3.359   5.049   7.390  0.4522  1.5829  1.2182
  313MOL0     H41271   3.470   4.963   7.495 -2.6079 -2.5504 -0.7310
  313MOL0     H41272   3.565   4.860   7.275  0.6496  0.5953  1.9037
  313MOL0     H41273   3.420   4.897   7.194 -0.4440 -1.7114  0.2584
  313MOL0     H41274   3.380   4.687   7.274 -1.7245 -1.3775  1.3239
  313MOL0     H41275   3.445   4.720   7.437  1.1308 -1.2370 -1.0265
  313MOL0     H41276   3.261   4.881   7.490  2.7417  0.9094 -1.5062
  313MOL0     H41277   3.204   4.721   7.472 -1.7386  0.6555  0.7470
  313MOL0     H41278   3.002   4.763   7.530  0.4130  1.3762  0.1195
  313MOL0     H41279   2.766   4.812   7.567  0.1034  3.5899  0.8663
  313MOL0     H41280   2.356   5.178   7.303 -0.8502  0.7711  0.9303
  313MOL0     H41281   2.124   5.207   7.344  1.6182  0.7632 -0.8626
  313MOL0     H41282   1.940   5.095   7.208  0.8514 -1.0496  0.6419
  313MOL0     H41283   1.885   5.173   7.349 -2.0405 -0.8957  1.6502
  313MOL0     H41284   1.739   4.907   7.264 -4.2667  0.7070 -0.2097
  313MOL0     H41285   1.711   5.050   7.179 -2.3150  1.9843  1.0660
  313MOL0     H41286   1.652   5.163   7.387  0.9879  0.5231  1.4597
  313MOL0     H41287   1.671   5.010   7.473 -0.6970 -2.6026 -0.9164
  313MOL0     H41288   1.468   5.069   7.245 -2.1886 -2.5430 -0.9412
  313MOL0     H41289   1.515   4.917   7.283 -0.1872  1.9555 -3.6603
  313MOL0     H41290   1.444   4.999   7.533  0.4742 -2.7184 -1.6524
  313MOL0     H41291   1.320   4.970   7.408  0.3989 -1.3557  0.6936
  313MOL0     H41292   1.335   5.214   7.357 -1.4695  0.3876  1.9693
  313MOL0     H41293   1.473   5.229   7.474 -0.1397  0.2404  0.3469
  313MOL0     H41294   1.331   5.165   7.657  2.9452 -0.3703  0.4849
  313MOL0     H41295   1.292   5.323   7.585 -1.6866 -0.2674  1.2891
  313MOL0     H41296   1.085   5.195   7.634  1.1448 -0.3018  1.2197
  313MOL0     H41297   1.144   5.049   7.546  1.2585 -0.1063  0.5679
  313MOL0     H41298   2.101   4.763   7.340  1.8581 -1.1810 -4.0888
  313MOL0     H41299   2.326   4.746   7.342 -0.4083  0.4288  2.7275
  313MOL0     H41300   2.734   4.993   7.196 -1.7448  0.6675  2.4247
  313MOL0     H41301   2.984   4.921   7.139  0.7695  1.4232  0.0466
  313MOL0     H41302   4.675   5.587   6.941 -1.4863  2.7131  0.6924
  313MOL0     H41303   4.926   5.559   6.927 -2.6811 -0.6291 -0.9653
  313MOL0     H41304   5.314   5.671   7.126 -0.3726 -0.8357  0.4141
  313MOL0     H41305   5.554   5.684   7.174 -2.0305  0.7953 -2.2432
  313MOL0     H41306   5.763   5.628   7.287  1.3984 -0.9461  1.7841
  313MOL0     H41307   5.777   5.630   7.117 -2.6051  0.4780  1.0586
  313MOL0     H41308   5.951   5.456   7.120 -1.7462  2.3040 -1.8325
  313MOL0     H41309   6.005   5.590   7.215 -0.5568 -0.5191 -0.2866
  313MOL0     H41310   5.878   5.331   7.317  2.0629 -2.1627 -1.8836
  313MOL0     H41311   5.928   5.472   7.425  2.2098  0.8898 -0.3256
  313MOL0     H41312   6.108   5.289   7.435  0.4371  2.0515  1.1986
  313MOL0     H41313   6.130   5.316   7.264  2.8431  1.1878  0.3391
  313MOL0     H41314   6.304   5.643   7.456  3.4253 -0.9940 -1.1193
  313MOL0     H41315   5.554   5.249   7.154  0.5016  0.0876  2.7925
  313MOL0     H41316   5.319   5.242   7.135  2.4760 -1.1025  0.1029
  314MOL0     O41317   9.933   1.225   8.608  0.5039  0.4443 -0.0885
  314MOL0     C41318   9.999   1.137   8.556 -0.0584  0.7522 -0.0841
  314MOL0     O41319   9.985   1.094   8.424  0.4752 -0.1629 -0.0536
  314MOL0     C41320   9.902   1.174   8.350  0.2709  0.9304 -0.5382
  314MOL0     C41321   9.951   1.268   8.261 -0.2327 -0.4224  0.7667
  314MOL0     C41322   9.869   1.321   8.157 -0.5841  0.1893  0.0214
  314MOL0     C41323   9.736   1.301   8.162  0.0062  0.1799  0.2461
  314MOL0     O41324   9.648   1.353   8.069 -0.2873 -0.1926 -0.5111
  314MOL0     C41325   9.687   1.461   7.975  0.7321  0.3039 -0.4642
  314MOL0     C41326   9.701   1.601   8.038 -0.6783 -0.7459  0.0110
  314MOL0     C41327   9.563   1.653   8.089  0.5886 -0.5616 -0.2587
  314MOL0     C41328   9.570   1.792   8.152  0.7190 -0.1818 -0.3918
  314MOL0     C41329   9.440   1.815   8.234 -0.1569 -0.7059  0.0063
  314MOL0     C41330   9.433   1.972   8.267 -0.4777 -0.1761  0.2624
  314MOL0     C41331   9.311   2.007   8.354  0.3390 -0.3500 -0.4438
  314MOL0     C41332   9.204   2.073   8.277  0.6197 -0.9268  0.2251
  314MOL0     N41333   9.098   2.122   8.370 -0.1539  0.1616 -0.7039
  314MOL0     C41334   9.004   2.035   8.422  0.0778 -0.3143 -0.7053
  314MOL0     C41335   8.905   2.111   8.463  0.1495  0.1373 -0.6742
  314MOL0     C41336   8.771   2.076   8.529 -0.0364  0.3537  0.3092
  314MOL0     C41337   8.656   2.074   8.425  0.2023  0.1278 -0.9996
  314MOL0     C41338   8.539   1.988   8.479  0.2131  0.4522 -1.0131
  314MOL0     C41339   8.458   2.059   8.591 -0.7435 -0.5283  0.3176
  314MOL0     O41340   8.392   1.954   8.661  0.2734 -0.3535  0.2929
  314MOL0     C41341   8.271   1.981   8.720  0.7408  0.0408 -0.2309
  314MOL0     C41342   8.224   1.866   8.785  1.0213  0.0627 -0.3407
  314MOL0     C41343   8.093   1.865   8.844 -0.2608  1.2862 -0.0344
  314MOL0     C41344   8.015   1.976   8.851 -0.2095 -0.1338 -0.0568
  314MOL0     C41345   7.885   1.978   8.932  0.1163  0.4930 -0.1011
  314MOL0     O41346   7.850   1.872   8.999  0.2082  0.4002 -0.3592
  314MOL0     C41347   7.741   1.864   9.087  0.0835  0.2091 -0.1433
  314MOL0     C41348   7.605   1.876   9.045 -0.3276  0.3115  0.3482
  314MOL0     C41349   7.504   1.854   9.136  0.7119  0.6190 -0.8760
  314MOL0     C41350   7.522   1.815   9.262 -0.0109  0.5217  0.5093
  314MOL0     O41351   7.414   1.777   9.338 -0.3392  0.4172  0.2710
  314MOL0     C41352   7.425   1.688   9.456  0.0735 -0.0380  0.7980
  314MOL0     C41353   7.305   1.598   9.449 -0.3428 -0.8846  0.1534
  314MOL0     C41354   7.307   1.508   9.580  0.4350  0.0758 -0.1055
  314MOL0     C41355   7.186   1.427   9.610 -0.1028 -0.0821  0.1878
  314MOL0     C41356   7.049   1.494   9.591 -0.2629 -0.4230  0.3576
  314MOL0     C41357   7.029   1.616   9.684 -0.0339 -0.2941  0.0970
  314MOL0     C41358   6.878   1.652   9.695 -0.1636 -0.0577 -0.2119
  314MOL0     C41359   6.818   1.739   9.580  1.1260 -0.2037 -0.0171
  314MOL0    Cl41360   6.883   1.908   9.581  0.5367  0.0209  0.0637
  314MOL0     C41361   7.659   1.807   9.312  0.1882 -0.2958  0.2131
  314MOL0     C41362   7.771   1.829   9.223 -0.9751 -0.0606 -0.5897
  314MOL0     O41363   7.824   2.089   8.935  0.3529  1.3439  0.9856
  314MOL0     C41364   8.060   2.093   8.786 -0.2710 -0.7775  0.6887
  314MOL0     C41365   8.181   2.101   8.719 -0.6463 -0.0851  0.1588
  314MOL0     N41366   8.930   2.240   8.431 -0.1198 -0.5804  0.8678
  314MOL0     N41367   9.046   2.249   8.371 -0.8174  0.2322  0.6957
  314MOL0     C41368   9.679   1.203   8.252  0.5712 -0.0712  0.2153
  314MOL0     C41369   9.771   1.132   8.333  0.2999  0.3498 -0.7990
  314MOL0     C41370  10.099   1.065   8.635 -1.1527  0.2943 -0.3742
  314MOL0     C41371  10.126   1.096   8.779  0.4338 -0.1523  0.5952
  314MOL0     C41372  10.218   1.012   8.847  0.0375 -0.4150 -0.2848
  314MOL0     C41373  10.276   0.901   8.788 -0.6476 -0.0101  0.2564
  314MOL0     O41374  10.366   0.819   8.847 -0.7924  0.5593 -0.5640
  314MOL0     C41375  10.454   0.859   8.950  0.3620 -0.9704 -0.2349
  314MOL0     C41376  10.414   0.802   9.085  0.3383  0.4867  0.1475
  314MOL0     C41377  10.449   0.652   9.112 -1.3083  0.2375  0.3692
  314MOL0     C41378  10.584   0.642   9.202  0.5095 -0.3461 -0.4817
  314MOL0     C41379  10.653   0.508   9.174 -0.3722 -0.2259 -0.3483
  314MOL0     C41380  10.712   0.407   9.151 -0.2241  0.3229  0.7232
  314MOL0     C41381  10.242   0.868   8.668 -0.0173  0.6582 -0.2123
  314MOL0     C41382  10.160   0.948   8.586 -0.1031 -0.0631 -0.1643
  314MOL0     H41383  10.060   1.275   8.265  0.2615 -4.7708 -0.4459
  314MOL0     H41384   9.920   1.393   8.093 -0.0291 -2.0736 -2.2204
  314MOL0     H41385   9.610   1.471   7.899 -0.3184  1.5583  0.7286
  314MOL0     H41386   9.780   1.440   7.921  1.3029  2.2903 -0.3423
  314MOL0     H41387   9.739   1.666   7.959 -1.2642 -0.7726 -0.2996
  314MOL0     H41388   9.773   1.613   8.120 -2.6218  1.5307  1.5280
  314MOL0     H41389   9.524   1.584   8.165  1.9195  0.1579  1.1367
  314MOL0     H41390   9.498   1.662   8.002 -1.3219  0.5957  1.1937
  314MOL0     H41391   9.663   1.799   8.211  0.0767 -0.0318  0.6339
  314MOL0     H41392   9.568   1.873   8.079  2.2949  0.3170  0.0694
  314MOL0     H41393   9.436   1.754   8.325 -1.8663  1.1843  1.2840
  314MOL0     H41394   9.349   1.780   8.186  0.0849 -1.3116 -0.0228
  314MOL0     H41395   9.443   2.043   8.184  0.5603 -1.0950 -0.4251
  314MOL0     H41396   9.521   1.998   8.326  0.2999  0.3793 -1.1050
  314MOL0     H41397   9.271   1.917   8.403  0.9805 -0.0889  0.5747
  314MOL0     H41398   9.354   2.068   8.433  0.7357 -0.3030 -0.6909
  314MOL0     H41399   9.156   2.003   8.207 -1.0221  0.8042 -0.4943
  314MOL0     H41400   9.241   2.158   8.219 -2.9846 -0.3167 -1.5121
  314MOL0     H41401   9.016   1.928   8.413 -1.3960 -0.4115 -1.9630
  314MOL0     H41402   8.749   2.150   8.606 -0.1320  1.5959 -0.8929
  314MOL0     H41403   8.777   1.978   8.577  1.6419  1.1069  1.7264
  314MOL0     H41404   8.691   2.035   8.329  2.2852 -1.6747  0.3748
  314MOL0     H41405   8.628   2.180   8.416 -1.3560  0.1248  2.1395
  314MOL0     H41406   8.481   1.963   8.390 -1.3435 -1.1947  0.3951
  314MOL0     H41407   8.571   1.892   8.520  1.4158  1.4412  0.5300
  314MOL0     H41408   8.393   2.132   8.541  0.7148  1.6239  1.3984
  314MOL0     H41409   8.523   2.113   8.661 -1.4309  1.3159 -0.4124
  314MOL0     H41410   8.278   1.773   8.799 -1.9935 -1.6706  0.7255
  314MOL0     H41411   8.059   1.769   8.883 -0.0678  1.9234  1.7628
  314MOL0     H41412   7.583   1.910   8.944 -1.5886  0.0911  0.5330
  314MOL0     H41413   7.401   1.867   9.104  1.0841  2.0032 -1.5836
  314MOL0     H41414   7.417   1.734   9.555 -3.0726 -0.3434  0.7984
  314MOL0     H41415   7.509   1.622   9.438  0.2205  0.9907 -3.0950
  314MOL0     H41416   7.317   1.529   9.364  0.3462 -1.1007  0.4221
  314MOL0     H41417   7.211   1.653   9.440 -0.6933 -1.6749 -1.4653
  314MOL0     H41418   7.307   1.570   9.670 -0.8253 -0.5714  0.3617
  314MOL0     H41419   7.395   1.442   9.575  0.9129  0.7138 -0.2933
  314MOL0     H41420   7.189   1.338   9.546  2.5004 -0.2408  0.4346
  314MOL0     H41421   7.186   1.385   9.711 -0.6975 -0.5976 -0.0195
  314MOL0     H41422   6.975   1.416   9.610 -1.3403  0.7600  1.2357
  314MOL0     H41423   7.039   1.526   9.487  2.1161 -1.5662 -0.3052
  314MOL0     H41424   7.101   1.694   9.656 -1.5112  1.5654  1.1981
  314MOL0     H41425   7.061   1.586   9.784 -0.8935  2.0308  1.1413
  314MOL0     H41426   6.831   1.554   9.700 -1.6175  0.6076 -0.2714
  314MOL0     H41427   6.856   1.704   9.788  1.2902 -3.1211  1.9990
  314MOL0     H41428   6.712   1.734   9.606  1.6311 -0.3167  2.1721
  314MOL0     H41429   6.819   1.694   9.480  2.7426  0.9163 -0.5372
  314MOL0     H41430   7.677   1.794   9.418 -1.5251  1.0980  0.7180
  314MOL0     H41431   7.871   1.819   9.264 -1.3521 -2.9105 -0.1466
  314MOL0     H41432   7.995   2.180   8.793 -0.6359 -1.0609  0.8699
  314MOL0     H41433   8.197   2.198   8.675 -0.4169 -0.7552 -1.3024
  314MOL0     H41434   9.572   1.184   8.251  0.0615  2.4622  0.6402
  314MOL0     H41435   9.725   1.063   8.402  1.3689 -0.1143 -0.5215
  314MOL0     H41436  10.068   1.175   8.826  0.9026  0.3286  0.3733
  314MOL0     H41437  10.237   1.046   8.949  0.7884 -2.5284  0.3500
  314MOL0     H41438  10.441   0.965   8.976  2.3026 -0.8387  0.3724
  314MOL0     H41439  10.555   0.833   8.917  0.7019  0.4339 -0.3639
  314MOL0     H41440  10.457   0.862   9.166  1.8451 -0.0778 -0.2010
  314MOL0     H41441  10.309   0.830   9.075  0.6265  1.1093 -1.2097
  314MOL0     H41442  10.472   0.606   9.015 -0.9741 -0.5747  0.8225
  314MOL0     H41443  10.367   0.593   9.154 -0.2295 -0.3084  1.7717
  314MOL0     H41444  10.650   0.724   9.171  2.0537 -2.4920 -3.3430
  314MOL0     H41445  10.543   0.646   9.303 -1.0855 -0.6106 -1.0892
  314MOL0     H41446  10.763   0.313   9.140  1.7327  1.5804 -1.9971
  314MOL0     H41447  10.268   0.768   8.636  2.5247  1.0662  0.3499
  314MOL0     H41448  10.125   0.918   8.488 -2.1300 -1.1276  0.8354
  315MOL0     O41449   2.836   0.654   2.490 -0.4076 -0.5565  0.5955
  315MOL0     C41450   2.876   0.629   2.372 -0.7413 -0.5938  0.2395
  315MOL0     O41451   2.794   0.612   2.267  0.1483 -0.1377 -0.1684
  315MOL0     C41452   2.659   0.628   2.295  0.0567  0.7768 -1.0029
  315MOL0     C41453   2.596   0.521   2.367 -0.2903  0.1605  0.3098
  315MOL0     C41454   2.462   0.512   2.382  0.3872  1.0813 -0.2573
  315MOL0     C41455   2.378   0.623   2.343 -0.0351  0.1522 -0.2056
  315MOL0     O41456   2.245   0.626   2.378 -0.0242  0.0914 -0.1810
  315MOL0     C41457   2.213   0.585   2.515  0.2532  0.0555 -0.0427
  315MOL0     C41458   2.142   0.696   2.601 -0.2666  0.1898  0.3995
  315MOL0     C41459   2.215   0.830   2.568  0.0558  0.2579  0.1383
  315MOL0     C41460   2.142   0.955   2.633 -0.0618 -0.5253 -0.1388
  315MOL0     C41461   2.233   1.086   2.605 -0.0644 -0.4872 -0.3894
  315MOL0     C41462   2.220   1.143   2.460 -0.1734  0.2369  0.7560
  315MOL0     C41463   2.315   1.258   2.418 -0.1811 -0.1817 -0.2861
  315MOL0     C41464   2.468   1.219   2.445  0.1014 -0.0664  0.5373
  315MOL0     N41465   2.566   1.317   2.410 -0.0280  0.0258 -0.4489
  315MOL0     C41466   2.664   1.308   2.307  0.6179 -0.6634 -1.2808
  315MOL0     C41467   2.711   1.432   2.286  0.7526 -0.7092  0.4533
  315MOL0     C41468   2.805   1.487   2.185 -0.0111  1.6202  0.1888
  315MOL0     C41469   2.886   1.378   2.103  0.1619  0.1295 -0.1637
  315MOL0     C41470   2.957   1.423   1.983 -0.4120 -0.1279 -0.0357
  315MOL0     C41471   3.082   1.508   2.017 -0.5429 -0.5683 -0.4030
  315MOL0     O41472   3.187   1.424   2.049 -0.1810  0.1265  0.3035
  315MOL0     C41473   3.298   1.485   2.107  0.4072  1.3600 -0.2053
  315MOL0     C41474   3.386   1.404   2.179 -0.5234  0.1230  0.3757
  315MOL0     C41475   3.492   1.471   2.247  0.2236 -0.0440  0.3555
  315MOL0     C41476   3.530   1.611   2.229  0.7994  1.1383  0.2298
  315MOL0     C41477   3.659   1.667   2.265 -0.7473 -0.9944 -0.8154
  315MOL0     O41478   3.747   1.601   2.348  0.6881 -0.1880 -0.3070
  315MOL0     C41479   3.843   1.678   2.399 -0.0191  0.3178  0.4908
  315MOL0     C41480   3.822   1.763   2.503  1.0209  0.0349 -0.3816
  315MOL0     C41481   3.919   1.851   2.535 -0.0909  0.2512  0.4030
  315MOL0     C41482   4.037   1.857   2.464  1.0551 -0.3878  0.8810
  315MOL0     O41483   4.134   1.942   2.515  0.3043  0.3013 -0.1056
  315MOL0     C41484   4.213   1.879   2.622  0.0746  0.2725 -0.2690
  315MOL0     C41485   4.319   1.789   2.568 -0.7520 -0.7232  0.0478
  315MOL0     C41486   4.427   1.778   2.675 -0.3889  0.3235 -0.7915
  315MOL0     C41487   4.506   1.657   2.648  0.4933  0.1850 -0.1055
  315MOL0     C41488   4.625   1.633   2.745  0.5546 -0.5847 -0.5523
  315MOL0     C41489   4.722   1.516   2.698  0.9903  0.1097  0.3810
  315MOL0     C41490   4.841   1.486   2.797  0.1278  0.5257  0.0300
  315MOL0     C41491   4.903   1.348   2.765  0.3810  1.0151 -1.2077
  315MOL0    Cl41492   5.060   1.316   2.855 -0.2221  0.3638  0.3335
  315MOL0     C41493   4.067   1.767   2.363 -0.6658  0.3534  0.2226
  315MOL0     C41494   3.962   1.685   2.320 -0.0148 -0.5736 -0.4750
  315MOL0     O41495   3.683   1.783   2.216  0.2749  0.9514 -0.3049
  315MOL0     C41496   3.429   1.690   2.160  0.5783 -0.2890 -0.2825
  315MOL0     C41497   3.319   1.622   2.098  0.1630 -0.7454 -0.2726
  315MOL0     N41498   2.643   1.507   2.378  0.1283 -1.2763  0.9311
  315MOL0     N41499   2.573   1.440   2.464 -0.2922 -0.3631 -0.7031
  315MOL0     C41500   2.436   0.730   2.275  0.6009  0.2358 -0.0542
  315MOL0     C41501   2.572   0.728   2.251  0.2128 -0.0077 -0.2320
  315MOL0     C41502   3.023   0.613   2.351 -0.2412 -0.2865  0.1751
  315MOL0     C41503   3.105   0.607   2.464 -0.3775 -0.6726 -0.6236
  315MOL0     C41504   3.242   0.590   2.464 -0.2440  0.2444  0.4264
  315MOL0     C41505   3.302   0.571   2.339 -0.4562 -0.1033 -0.4426
  315MOL0     O41506   3.431   0.541   2.311  0.3273 -0.9722 -0.9081
  315MOL0     C41507   3.528   0.581   2.410 -0.9109  1.1970  0.0280
  315MOL0     C41508   3.559   0.465   2.509  0.0057  0.3970 -0.2827
  315MOL0     C41509   3.601   0.333   2.448 -0.1704  0.0678  0.2272
  315MOL0     C41510   3.642   0.230   2.559  0.2211 -0.6111 -0.1145
  315MOL0     C41511   3.673   0.095   2.506 -0.3414  0.5606  0.3792
  315MOL0     C41512   3.710  -0.018   2.479 -0.5879 -0.7815  0.8312
  315MOL0     C41513   3.223   0.576   2.224  0.0592  0.6774 -0.3954
  315MOL0     C41514   3.085   0.589   2.229  0.1780  0.1171  0.2444
  315MOL0     H41515   2.657   0.438   2.401 -1.4942 -0.5082  0.9162
  315MOL0     H41516   2.423   0.427   2.436 -0.8380  2.7969  1.7360
  315MOL0     H41517   2.295   0.541   2.573 -2.4507 -3.8544  1.2518
  315MOL0     H41518   2.147   0.498   2.502 -1.6544  1.6982 -2.1197
  315MOL0     H41519   2.164   0.664   2.703 -0.4162 -0.5606  0.2008
  315MOL0     H41520   2.034   0.690   2.585 -0.3641  1.7695  0.3366
  315MOL0     H41521   2.207   0.846   2.460 -1.8219  2.8072  0.5604
  315MOL0     H41522   2.317   0.825   2.606 -0.4264 -1.6070  1.3235
  315MOL0     H41523   2.039   0.974   2.602 -1.0791 -1.8866  2.1547
  315MOL0     H41524   2.142   0.941   2.741  0.1696  0.8544  0.0579
  315MOL0     H41525   2.337   1.061   2.629  0.4432  2.0715  0.4486
  315MOL0     H41526   2.201   1.170   2.667 -1.1070 -0.6333 -0.7103
  315MOL0     H41527   2.119   1.180   2.441 -0.4221 -1.6648 -2.2254
  315MOL0     H41528   2.224   1.065   2.383 -0.1459  1.5967 -0.6575
  315MOL0     H41529   2.307   1.264   2.309 -0.2840 -2.7907 -0.4836
  315MOL0     H41530   2.282   1.349   2.470 -2.5018 -0.7552 -0.6584
  315MOL0     H41531   2.471   1.121   2.397 -3.6806 -1.1267  2.0702
  315MOL0     H41532   2.476   1.206   2.553  3.0155 -1.3702  0.2633
  315MOL0     H41533   2.673   1.216   2.250  1.1860 -1.6358  0.2779
  315MOL0     H41534   2.876   1.550   2.240  2.8611  0.0211 -1.4373
  315MOL0     H41535   2.748   1.541   2.110 -0.2130  0.0342 -0.8562
  315MOL0     H41536   2.803   1.314   2.069 -0.6068  2.0894 -2.2122
  315MOL0     H41537   2.958   1.328   2.169 -1.5182 -1.0330  0.8814
  315MOL0     H41538   2.986   1.334   1.927  1.3741  1.1544 -1.2204
  315MOL0     H41539   2.887   1.478   1.919 -0.2242  0.7851  0.5302
  315MOL0     H41540   3.063   1.583   2.094  2.5377  1.1063 -1.1074
  315MOL0     H41541   3.105   1.557   1.922  0.2073  0.9560  0.5208
  315MOL0     H41542   3.372   1.296   2.176  3.9456 -0.6804 -3.1168
  315MOL0     H41543   3.577   1.410   2.275  1.1859 -0.8614 -3.7001
  315MOL0     H41544   3.727   1.759   2.555  1.1066  0.0686 -0.2216
  315MOL0     H41545   3.903   1.920   2.617  3.3680  3.0157 -0.9887
  315MOL0     H41546   4.154   1.828   2.699 -1.5219 -0.4333 -1.9082
  315MOL0     H41547   4.269   1.962   2.667  1.3584 -0.3616 -0.6748
  315MOL0     H41548   4.371   1.837   2.484 -0.7719  1.2191  1.0824
  315MOL0     H41549   4.281   1.690   2.543 -0.4813 -1.2562  1.6164
  315MOL0     H41550   4.375   1.769   2.770 -1.0260  1.9442 -0.9570
  315MOL0     H41551   4.478   1.875   2.673 -1.1785  0.7672 -3.5756
  315MOL0     H41552   4.442   1.568   2.650  0.5501  0.1449  1.5520
  315MOL0     H41553   4.543   1.668   2.546  1.3192  1.8319  0.3333
  315MOL0     H41554   4.591   1.603   2.844  1.3507 -0.3127 -0.1807
  315MOL0     H41555   4.678   1.729   2.752 -0.6201  0.0492 -0.1678
  315MOL0     H41556   4.758   1.543   2.598 -2.3133  0.2443 -0.8910
  315MOL0     H41557   4.665   1.424   2.681 -0.2065  0.7112  1.0512
  315MOL0     H41558   4.921   1.560   2.804  2.5685 -2.0300  1.4743
  315MOL0     H41559   4.812   1.478   2.903  1.4056 -1.0014  0.3124
  315MOL0     H41560   4.932   1.324   2.662  2.5043 -3.3384  0.1691
  315MOL0     H41561   4.834   1.271   2.799 -0.2891  2.5156  1.0463
  315MOL0     H41562   4.165   1.764   2.315 -0.0678 -0.2046  1.4329
  315MOL0     H41563   3.971   1.624   2.230 -0.6108 -0.8554 -0.3431
  315MOL0     H41564   3.425   1.798   2.144 -3.9889 -0.6138 -3.0615
  315MOL0     H41565   3.252   1.695   2.053  0.1647 -0.2368  0.5217
  315MOL0     H41566   2.364   0.807   2.245 -1.7617 -1.7515  0.1630
  315MOL0     H41567   2.614   0.808   2.190  0.3638 -1.6996 -2.4761
  315MOL0     H41568   3.067   0.602   2.566 -0.1863  0.7579 -0.4687
  315MOL0     H41569   3.296   0.580   2.558  1.4823  2.9923 -0.1513
  315MOL0     H41570   3.493   0.667   2.468 -1.9880  0.2765  0.7681
  315MOL0     H41571   3.615   0.604   2.347 -0.9477 -0.9408 -0.8753
  315MOL0     H41572   3.636   0.496   2.581 -1.0213  1.2139  0.4864
  315MOL0     H41573   3.473   0.451   2.575 -3.4441 -1.4365 -4.6335
  315MOL0     H41574   3.694   0.345   2.392 -0.8932 -1.9354 -1.5206
  315MOL0     H41575   3.526   0.290   2.381 -0.0207 -0.5884  0.4678
  315MOL0     H41576   3.736   0.266   2.603  0.9655 -4.2178  1.6270
  315MOL0     H41577   3.560   0.230   2.632 -1.6176  1.0445 -2.0358
  315MOL0     H41578   3.721  -0.122   2.455 -2.3382 -0.3140 -2.5745
  315MOL0     H41579   3.278   0.540   2.138  0.1101 -3.1181  1.0600
  315MOL0     H41580   3.023   0.567   2.142  0.1987  1.0669 -0.0195
  316MOL0     O41581   5.370   2.666   4.837  0.4597  0.4758 -0.3292
  316MOL0     C41582   5.308   2.561   4.871  0.0695  0.1510  0.4810
  316MOL0     O41583   5.350   2.462   4.955  0.0953 -0.6016  0.5923
  316MOL0     C41584   5.462   2.490   5.035 -0.6657  0.8624  0.0968
  316MOL0     C41585   5.563   2.398   5.025 -0.3095  0.0363 -0.6275
  316MOL0     C41586   5.694   2.432   5.074 -0.1581  0.0932  0.0982
  316MOL0     C41587   5.711   2.550   5.157 -0.4829 -0.1306 -0.4398
  316MOL0     O41588   5.832   2.570   5.227 -0.5805 -0.3557 -0.0570
  316MOL0     C41589   5.864   2.699   5.297 -0.0226  0.0479  0.2323
  316MOL0     C41590   6.005   2.673   5.355  0.2701  0.6036 -0.7775
  316MOL0     C41591   6.052   2.787   5.446  0.6003 -0.0790  0.1101
  316MOL0     C41592   6.182   2.767   5.504 -0.2593 -0.0976 -0.1693
  316MOL0     C41593   6.223   2.894   5.595  0.1225 -0.6246 -0.2875
  316MOL0     C41594   6.373   2.913   5.605 -0.4781  0.4921 -0.3557
  316MOL0     C41595   6.439   2.788   5.661  0.1421  0.0575 -0.2089
  316MOL0     C41596   6.582   2.825   5.707  0.2048  1.0483  0.7015
  316MOL0     N41597   6.654   2.916   5.608 -0.6998 -0.2136 -0.1583
  316MOL0     C41598   6.690   3.046   5.633  0.3068 -0.1404  0.3012
  316MOL0     C41599   6.773   3.081   5.531  0.0392 -0.3796  0.1725
  316MOL0     C41600   6.843   3.215   5.509  0.3061 -0.3968  0.7074
  316MOL0     C41601   6.744   3.339   5.529  0.0223 -0.0589  0.8899
  316MOL0     C41602   6.674   3.389   5.399  0.4636  0.1836  0.1707
  316MOL0     C41603   6.603   3.287   5.309  0.5035 -0.1928 -0.0321
  316MOL0     O41604   6.479   3.236   5.365  0.6314  0.0690 -0.7341
  316MOL0     C41605   6.423   3.134   5.292 -0.6125 -0.1612 -1.3385
  316MOL0     C41606   6.487   3.019   5.258  0.0975  0.7305  0.4083
  316MOL0     C41607   6.435   2.915   5.177 -0.2801 -0.4931  0.1160
  316MOL0     C41608   6.305   2.931   5.126  0.2323 -0.3897 -0.1371
  316MOL0     C41609   6.244   2.839   5.023  0.3241 -0.1331  0.6700
  316MOL0     O41610   6.115   2.862   4.996 -0.5173  0.2243  0.2343
  316MOL0     C41611   6.035   2.767   4.930  0.0233 -0.5413  0.2506
  316MOL0     C41612   5.911   2.821   4.880  0.4974  0.0484 -0.1577
  316MOL0     C41613   5.823   2.737   4.814 -0.1460 -0.4697 -0.3962
  316MOL0     C41614   5.847   2.606   4.792  0.3248  0.7169 -0.0838
  316MOL0     O41615   5.760   2.522   4.726 -0.1496 -0.5845  0.7090
  316MOL0     C41616   5.658   2.581   4.640 -0.3411 -0.0609  0.2855
  316MOL0     C41617   5.592   2.467   4.566 -0.8183 -0.1313  0.3095
  316MOL0     C41618   5.511   2.369   4.649 -0.4338  1.7207 -1.0259
  316MOL0     C41619   5.391   2.294   4.586  0.0277  0.1182 -0.5878
  316MOL0     C41620   5.326   2.194   4.683 -0.1709  1.0748 -0.7656
  316MOL0     C41621   5.226   2.102   4.619 -0.0652  0.3619  0.2155
  316MOL0     C41622   5.089   2.173   4.585  0.3222  0.1197  0.1788
  316MOL0     C41623   5.007   2.074   4.501 -0.3923  0.5299 -0.1022
  316MOL0    Cl41624   4.983   1.922   4.593  0.1386  0.6812 -0.2323
  316MOL0     C41625   5.965   2.549   4.849  0.8345  0.1109 -0.4454
  316MOL0     C41626   6.059   2.631   4.912 -0.0473 -0.1347  0.8563
  316MOL0     O41627   6.312   2.741   4.992 -0.0212  0.3253  0.7418
  316MOL0     C41628   6.237   3.046   5.174 -0.3663 -0.6584 -0.3146
  316MOL0     C41629   6.294   3.140   5.263 -0.6462 -0.6625 -0.1148
  316MOL0     N41630   6.784   2.968   5.442 -0.1985  0.4582 -1.1827
  316MOL0     N41631   6.708   2.875   5.494 -0.6203 -0.2535  0.7734
  316MOL0     C41632   5.599   2.633   5.165 -0.2731 -0.0047  0.1175
  316MOL0     C41633   5.480   2.608   5.099  0.1544  0.3685  0.5130
  316MOL0     C41634   5.179   2.550   4.814 -0.4734 -0.7952 -0.5485
  316MOL0     C41635   5.143   2.627   4.706 -1.6517 -0.2456 -0.2665
  316MOL0     C41636   5.018   2.623   4.654 -0.8717 -0.2232 -0.1487
  316MOL0     C41637   4.920   2.542   4.710  0.0147  0.3168 -0.2060
  316MOL0     O41638   4.791   2.556   4.657 -0.6700  0.1508  0.5622
  316MOL0     C41639   4.702   2.441   4.645 -0.0803  0.2906 -0.0217
  316MOL0     C41640   4.737   2.369   4.511  1.4182 -0.3440  0.4760
  316MOL0     C41641   4.633   2.407   4.398 -0.2130 -0.2261 -0.0859
  316MOL0     C41642   4.645   2.340   4.267 -0.4716  0.9531 -0.0360
  316MOL0     C41643   4.778   2.368   4.210  0.4539  0.1959  0.9624
  316MOL0     C41644   4.878   2.427   4.164  0.1691 -0.4004  0.2798
  316MOL0     C41645   4.952   2.462   4.814  0.5684 -0.2273 -0.5274
  316MOL0     C41646   5.083   2.468   4.870 -0.1761  0.0640 -0.2486
  316MOL0     H41647   5.548   2.301   4.979 -5.2374 -0.0380  0.5958
  316MOL0     H41648   5.767   2.352   5.064  0.4458  0.1739  2.9349
  316MOL0     H41649   5.798   2.727   5.380  1.6507 -2.3394  2.5448
  316MOL0     H41650   5.873   2.770   5.214 -0.3166 -3.0663 -2.6824
  316MOL0     H41651   6.073   2.658   5.271  0.4101 -1.2507 -0.3839
  316MOL0     H41652   5.999   2.584   5.419 -2.7362  3.0338  2.7697
  316MOL0     H41653   5.987   2.818   5.529  1.9218  1.9661  0.4648
  316MOL0     H41654   6.056   2.878   5.384  0.6587 -0.1467  0.0143
  316MOL0     H41655   6.187   2.680   5.569 -0.9294 -0.0418 -0.0358
  316MOL0     H41656   6.247   2.752   5.417  0.0951  2.9772 -0.5527
  316MOL0     H41657   6.185   2.879   5.697 -0.1252 -3.5769 -0.7247
  316MOL0     H41658   6.180   2.988   5.561  0.0536 -0.4776  0.1931
  316MOL0     H41659   6.387   2.995   5.676  2.4738  0.2946 -0.5666
  316MOL0     H41660   6.422   2.942   5.511 -0.0434 -0.4328 -0.4233
  316MOL0     H41661   6.377   2.742   5.738 -0.0709 -0.9732 -0.9828
  316MOL0     H41662   6.445   2.722   5.575  2.1790 -3.0779  2.1141
  316MOL0     H41663   6.637   2.730   5.710 -3.8791 -1.6272 -0.4764
  316MOL0     H41664   6.592   2.877   5.803  0.8883  2.2030  0.0265
  316MOL0     H41665   6.646   3.108   5.710  0.0481 -1.0954  0.9377
  316MOL0     H41666   6.882   3.218   5.406  0.7889 -0.2168  0.8916
  316MOL0     H41667   6.923   3.206   5.583 -0.6103 -2.4571  1.5164
  316MOL0     H41668   6.808   3.421   5.561 -0.6597  1.2256 -0.8537
  316MOL0     H41669   6.671   3.311   5.606 -1.5713  0.8153 -0.2348
  316MOL0     H41670   6.593   3.460   5.422 -0.0747 -0.2985 -0.2021
  316MOL0     H41671   6.757   3.428   5.339 -0.1097 -1.1849 -1.5838
  316MOL0     H41672   6.678   3.211   5.285  2.8967  2.1588 -0.5689
  316MOL0     H41673   6.579   3.338   5.215  2.1074  1.1886  0.2500
  316MOL0     H41674   6.582   2.990   5.301  0.2164 -2.8136 -1.8665
  316MOL0     H41675   6.502   2.833   5.151  0.3654  0.6647 -2.2107
  316MOL0     H41676   5.887   2.926   4.889  0.3347 -0.0440  0.5210
  316MOL0     H41677   5.733   2.785   4.777  0.4243  4.7863  3.9066
  316MOL0     H41678   5.703   2.653   4.572  0.1462  0.2481  0.9277
  316MOL0     H41679   5.586   2.637   4.701 -0.3310 -1.4267  1.6175
  316MOL0     H41680   5.661   2.417   4.498 -3.5790 -1.7606 -1.4790
  316MOL0     H41681   5.524   2.509   4.492  0.2726  1.6141  0.2247
  316MOL0     H41682   5.485   2.419   4.742  0.7507 -0.9737  0.8878
  316MOL0     H41683   5.575   2.293   4.696 -0.8562  3.2077  2.2070
  316MOL0     H41684   5.319   2.370   4.556 -1.5831 -1.2264 -0.2587
  316MOL0     H41685   5.428   2.245   4.496 -0.1881  0.3147 -0.7834
  316MOL0     H41686   5.285   2.243   4.772 -0.0399  0.1675 -0.1906
  316MOL0     H41687   5.404   2.123   4.712 -1.6430 -0.3180 -0.0073
  316MOL0     H41688   5.216   2.017   4.687  3.0593  1.0058  1.6884
  316MOL0     H41689   5.266   2.060   4.527  0.5613  0.5256  0.4062
  316MOL0     H41690   5.024   2.189   4.672  2.2767 -0.6165  1.8540
  316MOL0     H41691   5.108   2.265   4.529  1.7317 -0.9782 -1.2268
  316MOL0     H41692   5.076   2.048   4.420 -0.2947  1.6204 -0.3926
  316MOL0     H41693   4.907   2.112   4.478 -0.8360  2.2732  3.8158
  316MOL0     H41694   5.999   2.448   4.831  2.2236  0.8081 -1.9055
  316MOL0     H41695   6.150   2.581   4.942 -1.1115 -2.4381  0.4558
  316MOL0     H41696   6.135   3.058   5.139 -1.5820 -3.4387  1.8305
  316MOL0     H41697   6.226   3.218   5.295 -1.3493 -1.7544  1.1728
  316MOL0     H41698   5.619   2.733   5.204 -0.2018 -0.4978  1.3779
  316MOL0     H41699   5.394   2.673   5.086  0.6431  0.4848 -2.8888
  316MOL0     H41700   5.217   2.698   4.671 -0.3608 -0.6451  1.5326
  316MOL0     H41701   4.991   2.681   4.567 -0.8506 -0.1502 -0.1070
  316MOL0     H41702   4.597   2.471   4.642  0.0935  0.8635 -1.8315
  316MOL0     H41703   4.710   2.366   4.724 -2.8847 -1.7291 -1.4992
  316MOL0     H41704   4.835   2.394   4.468 -0.1308 -0.1497 -3.3183
  316MOL0     H41705   4.731   2.261   4.530 -0.3415 -0.7336 -1.8543
  316MOL0     H41706   4.651   2.513   4.374  0.2694 -0.6917 -2.0005
  316MOL0     H41707   4.528   2.413   4.427  0.3892 -0.5126  2.3199
  316MOL0     H41708   4.633   2.231   4.276  0.9315  0.9564  3.2010
  316MOL0     H41709   4.568   2.380   4.200 -0.3697  0.9691 -0.1429
  316MOL0     H41710   4.958   2.475   4.112  0.0344 -0.6226 -0.1373
  316MOL0     H41711   4.873   2.398   4.851 -0.7588  0.9864 -1.1889
  316MOL0     H41712   5.112   2.403   4.951  1.6681 -0.6440 -1.4002
  317MOL0     O41713   0.442   8.939   1.409 -0.0057  0.4454 -0.5475
  317MOL0     C41714   0.513   8.844   1.450 -0.2254 -0.3912 -0.3391
  317MOL0     O41715   0.479   8.712   1.441 -0.4692 -0.0448  0.2585
  317MOL0     C41716   0.347   8.673   1.425 -0.1211  0.1808  1.1544
  317MOL0     C41717   0.298   8.653   1.292  0.1787  0.5271  0.1893
  317MOL0     C41718   0.165   8.611   1.280  0.3207  0.8140  0.5878
  317MOL0     C41719   0.084   8.587   1.392  0.6923 -0.8825  0.4948
  317MOL0     O41720  -0.040   8.542   1.371  0.4547  0.4655  0.3396
  317MOL0     C41721  -0.126   8.503   1.472  0.1855  0.3774  0.0668
  317MOL0     C41722  -0.257   8.455   1.420 -0.3862 -0.1857 -0.5886
  317MOL0     C41723  -0.349   8.559   1.349 -0.0002 -0.2265  0.2481
  317MOL0     C41724  -0.490   8.515   1.289 -0.7544  0.3330 -0.0590
  317MOL0     C41725  -0.572   8.629   1.258  0.7955 -0.3826 -0.6248
  317MOL0     C41726  -0.674   8.579   1.158  0.3070 -0.6031  0.1020
  317MOL0     C41727  -0.740   8.687   1.083  0.8393 -0.1216 -0.3209
  317MOL0     C41728  -0.658   8.753   0.971 -0.0094 -0.5839 -0.7239
  317MOL0     N41729  -0.713   8.875   0.918  0.2194  0.0224  0.1353
  317MOL0     C41730  -0.775   8.905   0.794  0.4069 -0.7604 -0.1360
  317MOL0     C41731  -0.784   9.041   0.797 -0.5126  0.5219  0.6872
  317MOL0     C41732  -0.843   9.127   0.681  0.4490 -0.5015  0.4051
  317MOL0     C41733  -0.741   9.193   0.585  0.4389 -0.2601 -0.3109
  317MOL0     C41734  -0.617   9.250   0.656 -0.1955  0.3480 -0.6976
  317MOL0     C41735  -0.513   9.316   0.568  0.2316 -0.3626  0.6676
  317MOL0     O41736  -0.561   9.415   0.470 -0.0962  0.5650  0.5329
  317MOL0     C41737  -0.619   9.527   0.512  0.7003 -0.6847 -0.0672
  317MOL0     C41738  -0.705   9.586   0.420 -0.1101 -0.1086 -1.7737
  317MOL0     C41739  -0.780   9.696   0.452 -0.6856 -0.2953  0.4620
  317MOL0     C41740  -0.777   9.744   0.582  0.2429 -0.0632 -0.8897
  317MOL0     C41741  -0.875   9.846   0.615  0.3400 -0.3758 -0.7251
  317MOL0     O41742  -0.866   9.903   0.732  0.2297 -0.3559 -0.1818
  317MOL0     C41743  -0.957   9.999   0.755  0.2190 -0.3328  0.1599
  317MOL0     C41744  -0.931  10.134   0.750  0.1709  0.4665 -0.3111
  317MOL0     C41745  -1.008  10.234   0.779  0.1923  0.3666 -0.6949
  317MOL0     C41746  -1.142  10.202   0.818 -0.8042 -0.5154 -0.2117
  317MOL0     O41747  -1.217  10.314   0.854  0.6331 -0.1530  1.0358
  317MOL0     C41748  -1.362  10.310   0.853 -0.5315  0.3652  0.2089
  317MOL0     C41749  -1.409  10.455   0.898 -0.1320  0.1478  0.2896
  317MOL0     C41750  -1.543  10.462   0.972 -0.3738 -0.3763  1.0062
  317MOL0     C41751  -1.644  10.379   0.898 -0.0833  0.0581 -0.6149
  317MOL0     C41752  -1.778  10.385   0.973  0.3631  0.9523 -0.0533
  317MOL0     C41753  -1.908  10.347   0.898 -1.1239  0.9469  0.0571
  317MOL0     C41754  -1.934  10.457   0.801 -1.1310  0.0015 -0.0315
  317MOL0     C41755  -2.079  10.449   0.748  0.9949  0.8004  0.1185
  317MOL0    Cl41756  -2.201  10.499   0.869 -0.1856 -0.4706 -0.0859
  317MOL0     C41757  -1.182  10.069   0.828  0.0911 -0.4647 -0.3234
  317MOL0     C41758  -1.092   9.963   0.803  0.7684 -0.3955  0.2604
  317MOL0     O41759  -0.954   9.881   0.523  0.4440 -0.2997  0.6957
  317MOL0     C41760  -0.687   9.690   0.672 -0.9302 -0.3503  0.3275
  317MOL0     C41761  -0.606   9.585   0.638  0.5732 -0.2595 -0.0795
  317MOL0     N41762  -0.725   9.078   0.910 -0.0917 -0.0086  0.7187
  317MOL0     N41763  -0.686   8.985   0.982  0.3023  0.1826 -0.2017
  317MOL0     C41764   0.133   8.622   1.516  0.2920  0.2541  1.0834
  317MOL0     C41765   0.270   8.655   1.531  0.6501 -0.6393 -0.5145
  317MOL0     C41766   0.645   8.870   1.503  0.2431  0.2663  0.4991
  317MOL0     C41767   0.741   8.761   1.513 -0.0524 -0.6379  1.3006
  317MOL0     C41768   0.861   8.781   1.572 -0.9576  0.3124 -0.3965
  317MOL0     C41769   0.889   8.903   1.627 -0.0165  0.0534  0.0536
  317MOL0     O41770   1.016   8.925   1.672 -0.0567 -0.0764 -0.6896
  317MOL0     C41771   1.032   8.894   1.810 -0.4721 -0.0086  0.1060
  317MOL0     C41772   1.187   8.888   1.840 -0.1566 -0.6033 -0.1771
  317MOL0     C41773   1.242   9.028   1.807 -0.7252  0.2292  0.8836
  317MOL0     C41774   1.383   9.037   1.864  0.2068  0.1237  0.9328
  317MOL0     C41775   1.485   8.978   1.776  0.1454  0.6396  0.8862
  317MOL0     C41776   1.572   8.923   1.709  0.0286 -0.5989 -0.2415
  317MOL0     C41777   0.791   9.004   1.628 -0.5795  0.2400 -0.3424
  317MOL0     C41778   0.664   8.990   1.573 -0.2483  0.4495 -0.9679
  317MOL0     H41779   0.377   8.668   1.220 -1.6365  2.5071 -1.5320
  317MOL0     H41780   0.120   8.591   1.183  3.0195  1.2555 -0.8491
  317MOL0     H41781  -0.153   8.589   1.535 -2.5395  0.2326 -0.7529
  317MOL0     H41782  -0.078   8.437   1.545  0.9692  0.2307 -0.5731
  317MOL0     H41783  -0.309   8.410   1.505  1.3536  0.5102  0.9086
  317MOL0     H41784  -0.243   8.373   1.350 -2.5665  1.7625 -3.5850
  317MOL0     H41785  -0.286   8.599   1.269  0.7976 -2.2600 -0.1859
  317MOL0     H41786  -0.365   8.638   1.424 -1.8056 -1.5689  1.3751
  317MOL0     H41787  -0.473   8.452   1.202 -1.4525 -1.9387  1.3364
  317MOL0     H41788  -0.534   8.440   1.357 -0.2406 -1.5393 -1.6921
  317MOL0     H41789  -0.515   8.717   1.227  0.5376 -0.4510 -1.3145
  317MOL0     H41790  -0.624   8.658   1.349  0.0623 -0.5773 -0.9806
  317MOL0     H41791  -0.748   8.519   1.212 -2.1909  2.4068  0.2573
  317MOL0     H41792  -0.630   8.524   1.074 -0.3547  2.5392 -2.4780
  317MOL0     H41793  -0.829   8.656   1.028  0.5595  1.6710 -0.9632
  317MOL0     H41794  -0.776   8.754   1.162 -1.3083 -3.0217  1.3428
  317MOL0     H41795  -0.647   8.676   0.894  0.1212 -0.7567 -0.5342
  317MOL0     H41796  -0.556   8.778   1.005 -0.0877  1.7233 -1.9421
  317MOL0     H41797  -0.802   8.839   0.712 -2.6826 -1.1505  1.0511
  317MOL0     H41798  -0.894   9.205   0.739  3.7871  1.7524  0.5985
  317MOL0     H41799  -0.925   9.078   0.628 -1.3708  0.8434  1.8106
  317MOL0     H41800  -0.789   9.270   0.523 -0.2866 -0.5041 -0.0700
  317MOL0     H41801  -0.709   9.113   0.517  0.1640 -1.3158  0.7673
  317MOL0     H41802  -0.653   9.322   0.731  0.2586  1.0901 -1.1783
  317MOL0     H41803  -0.561   9.176   0.714  0.1783 -0.2665 -1.8170
  317MOL0     H41804  -0.469   9.236   0.508  1.8485 -0.5554  2.0398
  317MOL0     H41805  -0.444   9.367   0.636 -2.3612 -1.2357  4.2891
  317MOL0     H41806  -0.711   9.550   0.318 -1.4193  1.5719 -2.3243
  317MOL0     H41807  -0.845   9.728   0.372  1.0745  1.0295 -0.5246
  317MOL0     H41808  -0.826  10.149   0.726 -0.1533  1.0639 -1.4072
  317MOL0     H41809  -0.993  10.341   0.766 -0.7171  0.5589 -0.2133
  317MOL0     H41810  -1.394  10.239   0.931  1.3428  1.0010  1.6267
  317MOL0     H41811  -1.404  10.289   0.754 -1.4339  3.4489 -0.1565
  317MOL0     H41812  -1.425  10.515   0.808 -1.2226 -1.6767 -0.8085
  317MOL0     H41813  -1.338  10.514   0.957 -1.1738 -0.4210  2.2177
  317MOL0     H41814  -1.572  10.567   0.971 -0.0738 -0.2841 -0.1449
  317MOL0     H41815  -1.530  10.421   1.072  0.1754 -0.7143  0.8038
  317MOL0     H41816  -1.645  10.415   0.795 -2.1545 -4.1133 -2.3239
  317MOL0     H41817  -1.607  10.276   0.904  0.3887  0.1526 -1.7462
  317MOL0     H41818  -1.785  10.479   1.028  2.3336  0.4983  1.0742
  317MOL0     H41819  -1.759  10.302   1.041 -1.3703  0.0302 -0.6219
  317MOL0     H41820  -1.988  10.332   0.971 -2.6250  0.0015 -1.7017
  317MOL0     H41821  -1.910  10.258   0.834 -2.5723  1.3626 -0.5302
  317MOL0     H41822  -1.919  10.550   0.857  1.5629 -2.0994  3.1636
  317MOL0     H41823  -1.854  10.447   0.727 -0.4672  2.1859  0.3125
  317MOL0     H41824  -2.102  10.346   0.721 -2.3203  1.7045 -1.0625
  317MOL0     H41825  -2.092  10.516   0.662 -0.4622  1.3524  0.7260
  317MOL0     H41826  -1.282  10.040   0.857  0.0241 -0.2232 -0.3138
  317MOL0     H41827  -1.125   9.860   0.795 -0.8586  0.0105  1.4248
  317MOL0     H41828  -0.680   9.732   0.772 -1.0833 -0.0474  0.2143
  317MOL0     H41829  -0.545   9.533   0.712 -0.5645 -0.8524  0.4684
  317MOL0     H41830   0.063   8.620   1.598 -0.4635 -2.0158  0.4430
  317MOL0     H41831   0.300   8.666   1.635  0.7258 -3.1069 -0.2034
  317MOL0     H41832   0.725   8.663   1.469  1.8545  0.1447 -1.4416
  317MOL0     H41833   0.928   8.696   1.585 -1.3804  0.2060  1.4332
  317MOL0     H41834   0.998   8.793   1.836 -1.2623  0.3881  0.6562
  317MOL0     H41835   0.971   8.971   1.858 -4.0171  0.8990 -5.0679
  317MOL0     H41836   1.202   8.873   1.947 -1.3079  1.8324  0.3986
  317MOL0     H41837   1.235   8.814   1.775  1.0857 -2.1131  2.3365
  317MOL0     H41838   1.178   9.095   1.865  0.1382 -0.3132  2.5275
  317MOL0     H41839   1.232   9.051   1.700 -1.3385 -0.1064  0.8635
  317MOL0     H41840   1.413   9.141   1.882  1.3179 -0.1983  1.0218
  317MOL0     H41841   1.391   8.990   1.963 -1.2785  1.1972  1.5961
  317MOL0     H41842   1.655   8.891   1.649  0.5836  0.0399  0.1715
  317MOL0     H41843   0.814   9.099   1.676  2.9471 -0.1339 -1.0028
  317MOL0     H41844   0.597   9.075   1.571 -0.8169  0.0014 -1.4495
  318MOL0     O41845   1.040   5.824   9.193  0.2909  0.6057  0.0844
  318MOL0     C41846   1.147   5.806   9.252 -0.6716  0.1091  0.6268
  318MOL0     O41847   1.170   5.780   9.379 -0.0667 -0.6657 -0.7657
  318MOL0     C41848   1.062   5.761   9.459 -0.6931  0.2815  0.4469
  318MOL0     C41849   0.972   5.657   9.429  0.0522 -0.1236 -0.0611
  318MOL0     C41850   0.879   5.622   9.523 -0.3390 -0.0887  0.0867
  318MOL0     C41851   0.873   5.696   9.639  0.7350 -0.4834  1.0870
  318MOL0     O41852   0.784   5.677   9.738 -0.4783 -0.0353  0.2451
  318MOL0     C41853   0.689   5.571   9.722 -0.4374 -0.2030 -0.5966
  318MOL0     C41854   0.560   5.610   9.650  0.1958  0.9258  0.0706
  318MOL0     C41855   0.467   5.500   9.688 -0.0925  0.7321  0.0360
  318MOL0     C41856   0.334   5.516   9.622  0.9465 -0.7099  0.4926
  318MOL0     C41857   0.222   5.421   9.673 -0.3615 -0.0057  0.1614
  318MOL0     C41858   0.079   5.455   9.622 -0.3159 -0.2635  0.3204
  318MOL0     C41859  -0.012   5.386   9.712 -0.4807 -0.3189 -0.3750
  318MOL0     C41860  -0.150   5.404   9.655 -0.2363  0.8287 -0.3578
  318MOL0     N41861  -0.241   5.325   9.739  0.1202  0.2549  0.0149
  318MOL0     C41862  -0.301   5.368   9.858 -0.3100  1.0371 -0.7272
  318MOL0     C41863  -0.378   5.260   9.895  0.4227  0.1568  1.2755
  318MOL0     C41864  -0.453   5.261  10.024 -0.2431  0.4708 -0.3429
  318MOL0     C41865  -0.606   5.233  10.014 -0.6553 -0.2667 -0.4747
  318MOL0     C41866  -0.677   5.355   9.968  0.3584 -0.2547  0.7003
  318MOL0     C41867  -0.823   5.349   9.999  0.5825 -0.4061 -0.1778
  318MOL0     O41868  -0.878   5.225   9.943  0.1115  0.4677 -0.2474
  318MOL0     C41869  -1.011   5.219   9.900 -0.1883  0.2302  0.0710
  318MOL0     C41870  -1.053   5.097   9.841 -0.2997  0.2816  0.7894
  318MOL0     C41871  -1.182   5.077   9.789  0.4559 -0.8192  0.3558
  318MOL0     C41872  -1.278   5.179   9.801  0.0977 -0.3887 -0.0753
  318MOL0     C41873  -1.412   5.159   9.745 -0.2604  0.5031 -0.1667
  318MOL0     O41874  -1.436   5.030   9.699 -0.3469 -0.0643  0.4264
  318MOL0     C41875  -1.543   5.001   9.617  0.4011 -1.7765  0.0579
  318MOL0     C41876  -1.559   5.082   9.502 -0.7056 -0.4289  0.6004
  318MOL0     C41877  -1.670   5.065   9.419  0.5753 -0.9009 -0.2371
  318MOL0     C41878  -1.753   4.953   9.443  0.1294  0.6251 -0.2832
  318MOL0     O41879  -1.871   4.929   9.377 -0.3502 -0.2676  0.3195
  318MOL0     C41880  -1.912   5.025   9.274  0.7413 -0.2101 -0.1275
  318MOL0     C41881  -2.061   5.023   9.248  0.4872  1.1190  0.5156
  318MOL0     C41882  -2.092   5.097   9.114 -0.4761  0.2206 -0.0302
  318MOL0     C41883  -2.233   5.112   9.077  0.1263 -0.3972  0.3116
  318MOL0     C41884  -2.305   5.226   9.157 -0.3718 -0.0268  0.0297
  318MOL0     C41885  -2.449   5.244   9.110  0.3292 -0.1280 -0.3111
  318MOL0     C41886  -2.452   5.312   8.973 -0.5794 -0.0130 -0.3141
  318MOL0     C41887  -2.550   5.437   8.979 -0.4382  0.6062  0.6851
  318MOL0    Cl41888  -2.713   5.372   9.005  0.2324 -0.1834 -0.1218
  318MOL0     C41889  -1.726   4.874   9.553 -0.4643  0.3318  0.1751
  318MOL0     C41890  -1.625   4.891   9.639 -0.4058  0.0435 -0.2384
  318MOL0     O41891  -1.481   5.256   9.736  0.3052 -0.0792 -0.7046
  318MOL0     C41892  -1.237   5.299   9.865 -0.2191 -0.3457 -0.1392
  318MOL0     C41893  -1.106   5.318   9.909 -0.1384 -0.0020  0.7425
  318MOL0     N41894  -0.349   5.152   9.808 -0.1562  0.6447 -0.6428
  318MOL0     N41895  -0.266   5.191   9.722  0.0939 -0.0230 -0.1426
  318MOL0     C41896   0.959   5.800   9.666  0.1005 -0.2190  0.6824
  318MOL0     C41897   1.063   5.823   9.581  0.3097 -0.1441 -0.4163
  318MOL0     C41898   1.280   5.817   9.188 -0.3216 -0.6447  0.0970
  318MOL0     C41899   1.274   5.840   9.044 -0.5672  0.2352  0.1756
  318MOL0     C41900   1.389   5.850   8.977 -0.8070 -0.3584  1.1347
  318MOL0     C41901   1.518   5.839   9.033  0.3820  1.2356  0.1873
  318MOL0     O41902   1.639   5.839   8.969  0.1667  0.4551  0.5366
  318MOL0     C41903   1.637   5.794   8.828 -0.6395 -0.2394 -1.0330
  318MOL0     C41904   1.668   5.643   8.818  0.4375  0.0828  0.7001
  318MOL0     C41905   1.787   5.603   8.896 -0.3708  0.3623 -0.5825
  318MOL0     C41906   1.855   5.464   8.853  0.1423  0.2706  0.9111
  318MOL0     C41907   1.808   5.334   8.905  0.0753 -0.6248  0.1806
  318MOL0     C41908   1.740   5.232   8.921 -0.0649  1.0373  0.2686
  318MOL0     C41909   1.523   5.817   9.165  0.3969  0.2222 -0.5514
  318MOL0     C41910   1.409   5.797   9.241  0.2146  0.1504 -0.2513
  318MOL0     H41911   0.998   5.607   9.336  1.7280 -0.3510  0.4939
  318MOL0     H41912   0.819   5.532   9.515 -1.4061  0.2330  3.2724
  318MOL0     H41913   0.666   5.558   9.828  2.2687  1.6382  0.3216
  318MOL0     H41914   0.744   5.482   9.690 -0.0776  0.6176 -2.4035
  318MOL0     H41915   0.571   5.624   9.543 -0.5470  2.3818  0.1678
  318MOL0     H41916   0.532   5.711   9.681  0.9346  1.6202 -1.4486
  318MOL0     H41917   0.450   5.500   9.796  1.2165  1.7504  0.2692
  318MOL0     H41918   0.508   5.400   9.671 -1.5945  0.1642 -0.4086
  318MOL0     H41919   0.300   5.616   9.653 -3.0854 -1.8368  0.2994
  318MOL0     H41920   0.331   5.522   9.513 -0.1753 -0.5801  0.5107
  318MOL0     H41921   0.214   5.428   9.782 -1.6903 -0.0529  0.0788
  318MOL0     H41922   0.242   5.317   9.647 -0.3114 -0.3175  1.3749
  318MOL0     H41923   0.064   5.437   9.515  0.3828 -0.9777  0.3346
  318MOL0     H41924   0.060   5.561   9.642  1.6564  0.0072  1.0303
  318MOL0     H41925   0.018   5.282   9.730  0.7678 -0.0405 -0.7734
  318MOL0     H41926  -0.009   5.428   9.813 -0.0459 -0.1060 -0.4754
  318MOL0     H41927  -0.152   5.365   9.552  1.7998 -1.1758  0.2667
  318MOL0     H41928  -0.181   5.508   9.646  1.9183  1.3911 -2.2055
  318MOL0     H41929  -0.267   5.462   9.901  2.0385 -0.3360  0.5936
  318MOL0     H41930  -0.428   5.351  10.081  0.3793  0.9245 -1.3056
  318MOL0     H41931  -0.409   5.181  10.085  1.7758  2.2354  0.6138
  318MOL0     H41932  -0.639   5.206  10.115 -0.1612 -0.4948 -0.3704
  318MOL0     H41933  -0.623   5.147   9.950 -1.4007 -1.8770  1.7847
  318MOL0     H41934  -0.637   5.448  10.010  2.0314 -0.7047  0.1801
  318MOL0     H41935  -0.672   5.370   9.860 -0.2939  0.1528  0.7194
  318MOL0     H41936  -0.868   5.440   9.958  1.2411  0.3711  0.7890
  318MOL0     H41937  -0.838   5.353  10.107  0.4084  1.1634 -0.2429
  318MOL0     H41938  -0.976   5.024   9.821  0.8581  2.0071 -1.5013
  318MOL0     H41939  -1.207   4.983   9.740 -0.5377  0.1234 -1.0172
  318MOL0     H41940  -1.487   5.155   9.468 -2.3760  1.6160  1.2312
  318MOL0     H41941  -1.689   5.142   9.345 -0.1321  1.3736  2.1290
  318MOL0     H41942  -1.849   5.002   9.188  2.1588 -0.5977  0.9825
  318MOL0     H41943  -1.890   5.128   9.305 -3.5457  0.7825  0.2662
  318MOL0     H41944  -2.111   5.062   9.337 -0.0158  0.4383  0.5374
  318MOL0     H41945  -2.089   4.918   9.246  0.0773  1.2334 -0.6522
  318MOL0     H41946  -2.040   5.043   9.034 -1.0662  0.7723 -0.7972
  318MOL0     H41947  -2.051   5.197   9.127 -0.8135  0.1970  1.3492
  318MOL0     H41948  -2.228   5.146   8.973  2.1537 -0.6539  0.2679
  318MOL0     H41949  -2.282   5.016   9.088 -3.2715  0.8337 -2.4065
  318MOL0     H41950  -2.260   5.326   9.155 -0.8335  0.2438  1.8430
  318MOL0     H41951  -2.309   5.178   9.255  0.7905 -1.2220 -0.4808
  318MOL0     H41952  -2.513   5.286   9.187  0.4651  0.2723 -0.4154
  318MOL0     H41953  -2.489   5.142   9.099  3.4479 -1.4462 -0.6427
  318MOL0     H41954  -2.352   5.347   8.945 -0.8912  0.7763 -0.4677
  318MOL0     H41955  -2.484   5.237   8.900  0.0528 -0.7735  0.1763
  318MOL0     H41956  -2.553   5.489   8.882  1.6333  1.2970  0.9453
  318MOL0     H41957  -2.531   5.506   9.062  1.0943  1.5745 -0.4129
  318MOL0     H41958  -1.801   4.800   9.578 -0.3596  0.2554  0.2627
  318MOL0     H41959  -1.602   4.830   9.726  1.6678 -1.2518 -1.6009
  318MOL0     H41960  -1.314   5.374   9.870  1.6294  1.7318 -1.2153
  318MOL0     H41961  -1.073   5.412   9.951 -1.3892  0.9202 -0.2533
  318MOL0     H41962   0.956   5.852   9.761  2.1245 -0.0443  0.7007
  318MOL0     H41963   1.133   5.902   9.608 -1.0899  0.6545  1.1186
  318MOL0     H41964   1.180   5.848   8.991 -0.0324  1.1973 -0.6591
  318MOL0     H41965   1.367   5.856   8.870 -1.9591 -0.2800  1.3658
  318MOL0     H41966   1.725   5.837   8.778  0.2192 -4.3168 -3.4600
  318MOL0     H41967   1.544   5.821   8.778 -1.2135 -1.8271 -0.8548
  318MOL0     H41968   1.575   5.594   8.847 -1.5930  3.0499 -0.4000
  318MOL0     H41969   1.681   5.611   8.713  0.2453  1.5621  0.2100
  318MOL0     H41970   1.760   5.588   9.001  1.4960  0.2261 -0.0882
  318MOL0     H41971   1.861   5.682   8.878  0.1372 -0.7271 -3.8750
  318MOL0     H41972   1.861   5.454   8.744 -3.9646  2.9789  0.1539
  318MOL0     H41973   1.951   5.482   8.901  0.1832 -0.6414  1.1805
  318MOL0     H41974   1.674   5.148   8.913  1.7859 -0.4810  0.2564
  318MOL0     H41975   1.621   5.797   9.207 -0.3444 -1.8140  0.3361
  318MOL0     H41976   1.418   5.772   9.346  0.0255 -3.8082 -1.0206
  319MOL0     O41977  10.600  10.372   8.347  0.1733  0.1156  0.2612
  319MOL0     C41978  10.633  10.449   8.260 -0.7773 -0.2815 -0.4817
  319MOL0     O41979  10.549  10.533   8.182 -0.5798  0.1004  0.6919
  319MOL0     C41980  10.417  10.522   8.212  0.0279  1.2267 -0.8644
  319MOL0     C41981  10.337  10.451   8.121  1.1225  0.4402 -0.4571
  319MOL0     C41982  10.197  10.425   8.152 -0.2694  0.1832  1.1761
  319MOL0     C41983  10.144  10.486   8.264  0.3645  0.3563  0.7209
  319MOL0     O41984  10.007  10.476   8.281 -0.3778  0.6002  0.0359
  319MOL0     C41985   9.959  10.422   8.404 -0.1075  0.8091 -1.1290
  319MOL0     C41986  10.015  10.282   8.434  0.8961 -0.0203  0.0019
  319MOL0     C41987   9.956  10.164   8.359 -0.4730 -0.1114  0.6429
  319MOL0     C41988  10.018  10.031   8.414 -0.1138 -0.7981 -0.6373
  319MOL0     C41989   9.974   9.912   8.323 -0.8534 -0.5800 -0.6614
  319MOL0     C41990   9.829   9.881   8.326  0.3215 -0.6981  0.3693
  319MOL0     C41991   9.801   9.772   8.215  0.2071  0.4516  0.3864
  319MOL0     C41992   9.822   9.811   8.065  0.7809  0.4463 -0.2686
  319MOL0     N41993   9.767   9.709   7.972  0.6721 -0.9207 -0.2153
  319MOL0     C41994   9.781   9.722   7.837 -1.0137 -0.6821  0.7833
  319MOL0     C41995   9.709   9.627   7.777  0.7505 -0.3458 -0.6613
  319MOL0     C41996   9.678   9.625   7.626 -0.1839  0.2315 -0.7350
  319MOL0     C41997   9.545   9.699   7.589  0.3446 -0.7327  0.1372
  319MOL0     C41998   9.555   9.832   7.517  0.3279  0.2486 -0.2659
  319MOL0     C41999   9.415   9.888   7.484 -0.6081  0.3474  0.6875
  319MOL0     O42000   9.313   9.897   7.584 -0.2529  0.2402 -0.0571
  319MOL0     C42001   9.212   9.986   7.559 -0.3077  0.3579  0.3300
  319MOL0     C42002   9.165  10.055   7.674 -0.3450 -0.2316 -0.6627
  319MOL0     C42003   9.063  10.144   7.664 -0.6621  0.1057  0.0234
  319MOL0     C42004   8.996  10.173   7.542  0.0549  0.6503  0.0249
  319MOL0     C42005   8.862  10.236   7.538 -0.5837 -0.0893 -0.2056
  319MOL0     O42006   8.800  10.235   7.423  0.1697 -0.4459  0.4490
  319MOL0     C42007   8.677  10.296   7.405 -0.6645  0.7770  0.4069
  319MOL0     C42008   8.573  10.209   7.356 -0.4492 -0.1251 -0.0596
  319MOL0     C42009   8.458  10.262   7.301  0.7520  0.5869 -0.3037
  319MOL0     C42010   8.448  10.401   7.295 -0.5313  1.1347  1.0578
  319MOL0     O42011   8.344  10.453   7.222  0.2592 -0.2068  0.5053
  319MOL0     C42012   8.216  10.403   7.264 -0.1032  0.9317 -1.0301
  319MOL0     C42013   8.114  10.456   7.166 -0.0099  1.2390  0.4129
  319MOL0     C42014   7.974  10.388   7.170  1.3477  0.6043  0.0032
  319MOL0     C42015   7.887  10.436   7.054  0.2148 -0.2949  0.3132
  319MOL0     C42016   7.754  10.364   7.056 -0.6560 -0.4101 -0.2615
  319MOL0     C42017   7.658  10.396   6.938 -0.2528 -0.3579  0.0359
  319MOL0     C42018   7.526  10.316   6.970 -0.0984 -0.5796 -0.2882
  319MOL0     C42019   7.435  10.297   6.841 -0.1385  0.1449 -1.2528
  319MOL0    Cl42020   7.418  10.451   6.756  0.4102 -0.2854  0.1100
  319MOL0     C42021   8.540  10.486   7.344 -0.7901 -0.8243  0.1251
  319MOL0     C42022   8.659  10.434   7.399  0.0181 -0.2972 -0.2820
  319MOL0     O42023   8.830  10.302   7.637  0.4177  0.3080 -0.3304
  319MOL0     C42024   9.037  10.105   7.424 -0.6776 -0.7087 -0.9525
  319MOL0     C42025   9.146  10.010   7.435  0.6184 -0.5240  0.2061
  319MOL0     N42026   9.647   9.553   7.880 -0.0592 -0.3837  0.1689
  319MOL0     N42027   9.680   9.611   7.994 -0.2527 -0.3656 -0.2166
  319MOL0     C42028  10.226  10.561   8.351 -0.0465  1.4544 -0.5231
  319MOL0     C42029  10.358  10.582   8.328 -0.2664  0.1730  1.0734
  319MOL0     C42030  10.774  10.469   8.229  0.3229  0.4639  0.4141
  319MOL0     C42031  10.810  10.486   8.088 -0.3699 -0.7576 -2.1233
  319MOL0     C42032  10.938  10.522   8.051 -0.2210  0.3791 -0.5477
  319MOL0     C42033  11.042  10.526   8.146  0.0488  0.4971  0.8454
  319MOL0     O42034  11.177  10.545   8.116  0.0916 -0.0878 -0.4905
  319MOL0     C42035  11.219  10.552   7.979  0.3844  0.7900 -0.2039
  319MOL0     C42036  11.196  10.690   7.912  0.0590 -0.2302 -0.0983
  319MOL0     C42037  11.294  10.794   7.957 -0.0045 -0.3357  0.3282
  319MOL0     C42038  11.282  10.818   8.108  0.1360  0.7107  0.5952
  319MOL0     C42039  11.366  10.935   8.140  0.2797  0.2058 -0.3637
  319MOL0     C42040  11.447  11.024   8.158 -0.2248 -0.0662 -0.5217
  319MOL0     C42041  11.014  10.507   8.278 -0.0416  0.7630 -0.1609
  319MOL0     C42042  10.880  10.473   8.319 -0.6597  0.2902  0.0708
  319MOL0     H42043  10.374  10.411   8.027  0.5374  1.0802 -0.9778
  319MOL0     H42044  10.134  10.368   8.084  0.2746  1.1971 -0.2226
  319MOL0     H42045   9.850  10.418   8.398 -0.0303 -2.9285 -2.9374
  319MOL0     H42046   9.999  10.482   8.486  1.1275 -0.3261 -0.8570
  319MOL0     H42047   9.993  10.263   8.540 -2.0799 -0.1822 -0.5596
  319MOL0     H42048  10.124  10.281   8.435  0.9929 -3.3539 -0.4881
  319MOL0     H42049   9.991  10.176   8.255  0.6324 -0.4444  0.9567
  319MOL0     H42050   9.847  10.165   8.356 -0.5285  0.6182  2.2618
  319MOL0     H42051  10.127  10.027   8.410 -0.0186 -0.5093  1.0746
  319MOL0     H42052   9.993  10.013   8.519  2.5403  0.3078  0.2760
  319MOL0     H42053  10.021   9.819   8.358  0.0291 -1.1167 -3.0725
  319MOL0     H42054  10.005   9.932   8.220  1.0453 -1.5259 -0.3193
  319MOL0     H42055   9.771   9.972   8.308  0.2496 -0.8741 -0.3261
  319MOL0     H42056   9.801   9.840   8.423 -1.4425  0.9209  0.6145
  319MOL0     H42057   9.863   9.685   8.238 -1.0922 -0.3407  1.0116
  319MOL0     H42058   9.698   9.734   8.216  0.8006 -1.2660 -0.6902
  319MOL0     H42059   9.930   9.822   8.052  1.2292  4.3890  4.0698
  319MOL0     H42060   9.765   9.904   8.054 -0.4277 -0.4501 -1.8721
  319MOL0     H42061   9.824   9.810   7.791  0.7619 -1.5893  0.6495
  319MOL0     H42062   9.674   9.518   7.601 -0.6617 -0.2087  1.0501
  319MOL0     H42063   9.755   9.669   7.563 -0.2507  0.1361 -0.8853
  319MOL0     H42064   9.491   9.707   7.684  0.0782 -0.6144 -0.0220
  319MOL0     H42065   9.495   9.633   7.517  1.0207  0.6023 -1.6309
  319MOL0     H42066   9.619   9.904   7.569 -0.6925  1.8360 -1.1169
  319MOL0     H42067   9.596   9.815   7.417  1.3651  2.1469 -0.2202
  319MOL0     H42068   9.371   9.821   7.409 -1.8704  0.5048  1.2688
  319MOL0     H42069   9.433   9.987   7.441  2.8642 -0.8742 -1.0876
  319MOL0     H42070   9.217  10.034   7.766  3.7075  2.9378 -1.9245
  319MOL0     H42071   9.019  10.188   7.753  0.0906  0.9880 -0.0182
  319MOL0     H42072   8.596  10.103   7.355  2.0410  0.2890  1.8106
  319MOL0     H42073   8.382  10.200   7.255  0.8715 -2.4612  3.1154
  319MOL0     H42074   8.195  10.431   7.368  0.8943  1.4489 -0.9533
  319MOL0     H42075   8.215  10.294   7.253  2.3112  0.6257  0.9572
  319MOL0     H42076   8.171  10.445   7.073  1.2208  0.8109  1.1889
  319MOL0     H42077   8.103  10.562   7.193 -0.9879  1.6298 -1.4195
  319MOL0     H42078   7.925  10.411   7.265 -1.8114 -1.4515 -0.9929
  319MOL0     H42079   7.988  10.280   7.159 -2.7296  0.1285 -2.4312
  319MOL0     H42080   7.885  10.545   7.046 -1.8059 -0.2898  0.4029
  319MOL0     H42081   7.935  10.398   6.963 -1.4101  1.8260 -1.5556
  319MOL0     H42082   7.705  10.409   7.142 -1.5616 -0.5941 -0.6716
  319MOL0     H42083   7.766  10.256   7.070 -1.2692 -0.3929  0.4331
  319MOL0     H42084   7.704  10.355   6.848 -1.4118 -2.4014  0.3344
  319MOL0     H42085   7.630  10.501   6.923  1.2469 -0.2086 -2.3248
  319MOL0     H42086   7.557  10.223   7.019  2.5959 -0.3144 -1.3245
  319MOL0     H42087   7.463  10.375   7.037  2.1498  0.6181  0.9019
  319MOL0     H42088   7.340  10.254   6.872  0.9605 -1.2680  0.2992
  319MOL0     H42089   7.470  10.213   6.780  3.6678  1.9953 -1.9385
  319MOL0     H42090   8.512  10.591   7.341 -0.7106 -0.7930  0.4455
  319MOL0     H42091   8.742  10.495   7.433 -0.9530  0.4729  0.7890
  319MOL0     H42092   8.991  10.123   7.327 -1.0217 -0.8133 -0.8083
  319MOL0     H42093   9.178   9.968   7.340  1.8382  1.8763 -0.5494
  319MOL0     H42094  10.178  10.618   8.430  1.1824 -0.2990  1.5859
  319MOL0     H42095  10.433  10.634   8.387  3.5530 -1.9796 -1.5118
  319MOL0     H42096  10.736  10.467   8.011  1.0809  1.9059 -4.3628
  319MOL0     H42097  10.950  10.530   7.944 -0.4058 -0.4774 -0.6348
  319MOL0     H42098  11.155  10.491   7.914 -1.7398  3.1159 -0.4619
  319MOL0     H42099  11.322  10.519   7.964  0.0400 -1.0346  1.1317
  319MOL0     H42100  11.210  10.684   7.804 -0.7256  0.1673 -0.2275
  319MOL0     H42101  11.092  10.720   7.932  0.0817 -0.2483  0.0474
  319MOL0     H42102  11.280  10.892   7.909 -1.5343 -1.3285 -1.3620
  319MOL0     H42103  11.396  10.763   7.935  0.4473  1.4948 -0.3109
  319MOL0     H42104  11.176  10.835   8.129  0.8214  3.6932  2.3276
  319MOL0     H42105  11.321  10.728   8.155  0.3288  0.5793  0.1873
  319MOL0     H42106  11.513  11.103   8.190 -0.6532 -0.1437  0.6160
  319MOL0     H42107  11.098  10.507   8.346  1.8200  1.4630 -2.3496
  319MOL0     H42108  10.864  10.443   8.422  0.7690  1.0042  0.5331
  320MOL0     O42109   0.375   0.273   6.317 -0.0076  0.2068 -0.3630
  320MOL0     C42110   0.493   0.288   6.356 -0.2715 -0.2952  0.0517
  320MOL0     O42111   0.599   0.257   6.285  0.2277  0.4016 -0.0571
  320MOL0     C42112   0.580   0.194   6.160 -0.3143 -0.7064  0.9397
  320MOL0     C42113   0.506   0.084   6.131  0.6731 -0.2312  0.3335
  320MOL0     C42114   0.485   0.019   6.009 -0.6466  0.7251 -0.0334
  320MOL0     C42115   0.531   0.091   5.900 -0.5076  0.3330 -0.1696
  320MOL0     O42116   0.495   0.033   5.781  0.0352 -0.0401  0.2160
  320MOL0     C42117   0.575   0.057   5.665  0.6756  0.5348 -0.7712
  320MOL0     C42118   0.508   0.177   5.596 -0.2180  0.3127  0.0053
  320MOL0     C42119   0.365   0.136   5.557 -0.1207 -0.8516 -0.3940
  320MOL0     C42120   0.289   0.269   5.529  0.3569  0.8866 -0.8105
  320MOL0     C42121   0.163   0.246   5.438 -0.8255  0.7600 -0.3935
  320MOL0     C42122   0.088   0.379   5.420 -0.2396 -0.2079 -0.0738
  320MOL0     C42123  -0.034   0.357   5.326  0.3881  0.0054  0.4940
  320MOL0     C42124  -0.109   0.486   5.299  0.0917 -0.7480  0.2375
  320MOL0     N42125  -0.217   0.455   5.204 -0.0788  0.1931 -0.5189
  320MOL0     C42126  -0.340   0.429   5.246  0.6670  0.9271  0.0070
  320MOL0     C42127  -0.421   0.439   5.138 -0.8445 -0.2143 -0.5401
  320MOL0     C42128  -0.559   0.409   5.117  0.5997  0.5976  0.2793
  320MOL0     C42129  -0.629   0.511   5.198  0.7283 -0.4209  0.0841
  320MOL0     C42130  -0.783   0.490   5.167 -0.1210 -0.0946  0.1286
  320MOL0     C42131  -0.867   0.594   5.246  0.1068 -0.2671 -0.2213
  320MOL0     O42132  -1.004   0.546   5.283 -0.1658 -0.0435  0.1041
  320MOL0     C42133  -1.106   0.558   5.194  0.0339 -0.2095  0.1336
  320MOL0     C42134  -1.239   0.572   5.239  1.2733  0.0717  0.0424
  320MOL0     C42135  -1.346   0.614   5.157 -0.2689  0.3686  0.2485
  320MOL0     C42136  -1.326   0.637   5.013  0.2151  0.7946 -0.2087
  320MOL0     C42137  -1.446   0.676   4.925  0.0580 -0.0378  0.0460
  320MOL0     O42138  -1.570   0.642   4.972  0.5794  0.8175  0.0039
  320MOL0     C42139  -1.690   0.681   4.926  0.5738  0.2774  0.4322
  320MOL0     C42140  -1.804   0.643   5.004 -0.9449  0.2075 -0.7573
  320MOL0     C42141  -1.936   0.675   4.970 -0.8861 -1.0549 -0.4457
  320MOL0     C42142  -1.963   0.768   4.871 -0.4486 -0.4575  0.3716
  320MOL0     O42143  -2.094   0.798   4.839 -0.3899  0.5054 -0.1428
  320MOL0     C42144  -2.112   0.845   4.706  0.4145  0.3661 -0.7661
  320MOL0     C42145  -2.257   0.897   4.683 -0.2827 -0.6313 -0.8688
  320MOL0     C42146  -2.270   0.950   4.542 -0.0130 -0.3563  0.5442
  320MOL0     C42147  -2.251   0.858   4.425  0.1031  0.0418  0.3790
  320MOL0     C42148  -2.320   0.726   4.442  0.5173 -0.5533 -0.0603
  320MOL0     C42149  -2.471   0.747   4.420 -0.4207  0.8685  0.4850
  320MOL0     C42150  -2.510   0.718   4.271  1.3320  0.2349 -0.2645
  320MOL0     C42151  -2.605   0.592   4.261  0.7178  0.2769 -0.2396
  320MOL0    Cl42152  -2.554   0.447   4.347 -0.3175  0.3349 -0.1285
  320MOL0     C42153  -1.850   0.810   4.790  0.3365  0.9104  1.2309
  320MOL0     C42154  -1.717   0.763   4.808  0.7109  0.4075  0.2551
  320MOL0     O42155  -1.429   0.760   4.835 -0.1890  1.2034  0.0869
  320MOL0     C42156  -1.195   0.628   4.966  0.2162  1.8160 -0.0305
  320MOL0     C42157  -1.092   0.580   5.054  0.9005  0.2107  0.4744
  320MOL0     N42158  -0.338   0.466   5.035 -0.5123 -0.2169 -0.4623
  320MOL0     N42159  -0.215   0.477   5.071 -0.1150 -0.1876 -1.0377
  320MOL0     C42160   0.606   0.208   5.919 -0.0500  0.2027  0.1808
  320MOL0     C42161   0.640   0.252   6.049  0.5100 -0.8729 -0.0053
  320MOL0     C42162   0.529   0.360   6.486 -0.3308  0.5379 -0.2735
  320MOL0     C42163   0.659   0.394   6.528 -0.5812 -0.5181 -0.3330
  320MOL0     C42164   0.674   0.449   6.659  0.3854 -0.4557 -0.0172
  320MOL0     C42165   0.568   0.456   6.755  0.8289  0.0426 -0.3551
  320MOL0     O42166   0.586   0.517   6.873 -1.0123  0.1736  0.1596
  320MOL0     C42167   0.486   0.501   6.975 -0.4008 -0.8945  0.4231
  320MOL0     C42168   0.568   0.518   7.102  0.8375  0.0204  0.0794
  320MOL0     C42169   0.485   0.489   7.229 -0.2511  0.1671  0.5221
  320MOL0     C42170   0.523   0.575   7.341 -0.1341  0.1853 -0.8402
  320MOL0     C42171   0.662   0.566   7.388  0.4779  0.8923 -0.4549
  320MOL0     C42172   0.771   0.547   7.421  0.5149  0.0307 -0.3758
  320MOL0     C42173   0.441   0.413   6.714  0.2947 -0.1027 -0.3481
  320MOL0     C42174   0.426   0.366   6.586 -0.6250  0.1746 -0.1141
  320MOL0     H42175   0.475   0.018   6.213  2.8620 -3.4290 -1.1984
  320MOL0     H42176   0.431  -0.073   5.992  0.1724  0.2851 -0.2671
  320MOL0     H42177   0.573  -0.027   5.595 -3.6289  0.0273 -0.3249
  320MOL0     H42178   0.678   0.067   5.700 -0.0059  1.2548  1.1957
  320MOL0     H42179   0.565   0.195   5.504 -2.9332  0.2603 -1.8077
  320MOL0     H42180   0.513   0.268   5.657 -2.3786  2.0430 -2.1830
  320MOL0     H42181   0.314   0.085   5.639  1.5362  0.0737  1.2722
  320MOL0     H42182   0.355   0.075   5.467 -2.4915 -0.4406 -0.4753
  320MOL0     H42183   0.244   0.305   5.622  1.1456  2.0761 -0.8750
  320MOL0     H42184   0.359   0.343   5.488 -0.0757  1.5470 -0.3678
  320MOL0     H42185   0.093   0.170   5.475 -1.8473  1.0100 -1.7312
  320MOL0     H42186   0.195   0.209   5.340 -0.7897  1.9638 -0.8543
  320MOL0     H42187   0.151   0.460   5.382 -3.8672  3.2740  0.6657
  320MOL0     H42188   0.062   0.416   5.519 -1.8071 -2.3521  0.4111
  320MOL0     H42189   0.004   0.335   5.226  0.6504 -0.5241  0.7090
  320MOL0     H42190  -0.105   0.284   5.365  0.9417 -0.2148  1.1038
  320MOL0     H42191  -0.037   0.551   5.250 -1.3582 -1.0207 -2.4041
  320MOL0     H42192  -0.154   0.523   5.392 -1.6020 -0.0870 -0.8007
  320MOL0     H42193  -0.377   0.406   5.345 -0.1545  0.3628 -0.4101
  320MOL0     H42194  -0.577   0.303   5.137 -1.2561  0.8462  0.1214
  320MOL0     H42195  -0.579   0.420   5.010  1.6915  0.1643  0.0185
  320MOL0     H42196  -0.590   0.607   5.162  1.8417 -0.8762  0.0472
  320MOL0     H42197  -0.605   0.485   5.302  0.5667 -2.5045 -0.3655
  320MOL0     H42198  -0.803   0.499   5.060 -3.3356  3.0962  0.7938
  320MOL0     H42199  -0.819   0.393   5.203 -0.5072 -0.7587 -1.9311
  320MOL0     H42200  -0.872   0.690   5.193  1.5007 -0.0678 -0.0241
  320MOL0     H42201  -0.805   0.619   5.333  0.0056  0.0869 -0.2464
  320MOL0     H42202  -1.274   0.563   5.341 -1.8326  0.5010 -0.8848
  320MOL0     H42203  -1.440   0.621   5.212 -0.6334 -2.4036  0.1013
  320MOL0     H42204  -1.798   0.570   5.084 -1.6472 -0.2763 -1.1295
  320MOL0     H42205  -2.023   0.642   5.026  0.8206 -3.2039  1.0990
  320MOL0     H42206  -2.088   0.766   4.634 -2.8063 -1.2152 -0.2940
  320MOL0     H42207  -2.049   0.934   4.695 -0.5161  1.0790 -0.4551
  320MOL0     H42208  -2.271   0.978   4.755 -1.3329 -0.2646 -1.4567
  320MOL0     H42209  -2.337   0.826   4.704 -0.5349 -0.8549 -2.4543
  320MOL0     H42210  -2.210   1.041   4.532 -2.1740  1.1526  0.5524
  320MOL0     H42211  -2.372   0.990   4.548  0.6565  1.5251  0.1617
  320MOL0     H42212  -2.284   0.909   4.334 -0.2451 -0.2379  0.3473
  320MOL0     H42213  -2.145   0.831   4.415 -0.1216 -0.2125 -1.9077
  320MOL0     H42214  -2.298   0.689   4.543 -2.9744 -0.6255  0.7978
  320MOL0     H42215  -2.286   0.642   4.381 -1.2972 -1.2158 -0.2332
  320MOL0     H42216  -2.492   0.852   4.440 -0.0765  0.7469  1.5685
  320MOL0     H42217  -2.533   0.686   4.486  0.8599  0.4964  1.3992
  320MOL0     H42218  -2.565   0.809   4.244  1.6018  1.1955  2.1901
  320MOL0     H42219  -2.423   0.707   4.205  1.1665  0.2592 -0.4862
  320MOL0     H42220  -2.608   0.574   4.153 -2.0232 -0.4465 -0.0986
  320MOL0     H42221  -2.701   0.632   4.293  0.3981 -0.1974 -0.5925
  320MOL0     H42222  -1.857   0.872   4.702  0.3617 -1.3103 -0.4307
  320MOL0     H42223  -1.637   0.795   4.742 -1.7187  2.5491 -1.8659
  320MOL0     H42224  -1.173   0.648   4.861 -0.3710  2.3981 -0.0569
  320MOL0     H42225  -0.997   0.577   5.003 -1.0607  0.3809 -3.5334
  320MOL0     H42226   0.648   0.257   5.831  0.8658  0.9444  1.0072
  320MOL0     H42227   0.715   0.331   6.051 -0.2324 -0.1040 -1.1397
  320MOL0     H42228   0.737   0.387   6.453  1.0141 -0.5811  1.2569
  320MOL0     H42229   0.765   0.485   6.705 -0.0536 -0.8849  1.2539
  320MOL0     H42230   0.436   0.405   6.967 -0.9192 -0.6173  0.2664
  320MOL0     H42231   0.406   0.575   6.967  0.0847 -0.3978  0.0401
  320MOL0     H42232   0.650   0.445   7.101  0.2327 -0.6582 -0.9027
  320MOL0     H42233   0.587   0.626   7.104 -1.3685  0.4529 -0.1733
  320MOL0     H42234   0.497   0.387   7.267 -1.4741 -0.2108 -0.0490
  320MOL0     H42235   0.378   0.502   7.207 -0.6480 -0.1643  2.0944
  320MOL0     H42236   0.516   0.682   7.321  3.6645  0.7210 -0.0547
  320MOL0     H42237   0.460   0.547   7.426 -0.0421 -1.1528 -1.1876
  320MOL0     H42238   0.869   0.533   7.462  0.5564  0.6666 -0.2482
  320MOL0     H42239   0.345   0.416   6.765 -0.4102 -1.5554 -1.5058
  320MOL0     H42240   0.328   0.325   6.565 -1.5074  1.2629  1.6862
  321MOL0     O42241   7.163   8.741   8.759 -0.0062  0.1588  0.7062
  321MOL0     C42242   7.208   8.628   8.786 -0.3848  0.5511 -0.8852
  321MOL0     O42243   7.130   8.517   8.777 -0.3397  0.6419  0.2878
  321MOL0     C42244   6.996   8.524   8.790  0.4593 -0.1206 -0.6321
  321MOL0     C42245   6.933   8.450   8.887 -0.4860  0.1589 -0.3673
  321MOL0     C42246   6.791   8.448   8.902 -0.4012 -0.5528  0.0679
  321MOL0     C42247   6.709   8.536   8.824 -0.1445  0.2607  0.9781
  321MOL0     O42248   6.572   8.549   8.843  0.4798  0.9386  0.1840
  321MOL0     C42249   6.521   8.491   8.967  0.7107  0.6586 -0.5318
  321MOL0     C42250   6.384   8.554   8.993 -0.7037  0.4443  0.0908
  321MOL0     C42251   6.281   8.502   8.900  0.3966 -0.4323 -0.1531
  321MOL0     C42252   6.154   8.581   8.924 -0.5456 -0.1271  0.7438
  321MOL0     C42253   6.032   8.514   8.859  0.6367 -0.3868  0.6274
  321MOL0     C42254   6.062   8.482   8.710 -0.3365 -0.2149  0.1379
  321MOL0     C42255   5.939   8.455   8.615 -0.0146  0.7897  0.3724
  321MOL0     C42256   5.892   8.308   8.615  0.6902  0.2175 -0.1346
  321MOL0     N42257   5.852   8.264   8.753  0.7040  0.1334 -0.0207
  321MOL0     C42258   5.738   8.306   8.817  0.3963  0.2590  0.1599
  321MOL0     C42259   5.738   8.245   8.940  0.3158  0.1783  0.4912
  321MOL0     C42260   5.629   8.247   9.032  0.0687 -0.6648  0.5697
  321MOL0     C42261   5.539   8.131   9.023  0.1768 -0.2397  0.1396
  321MOL0     C42262   5.445   8.140   9.143  0.1994  0.0453 -0.1868
  321MOL0     C42263   5.313   8.053   9.133 -0.0177  0.0849 -0.7790
  321MOL0     O42264   5.207   8.113   9.057 -0.1584 -0.4567 -0.1368
  321MOL0     C42265   5.112   8.028   9.002 -0.6030  0.4276  0.9917
  321MOL0     C42266   5.108   7.889   9.034  0.3262  0.1037 -0.1192
  321MOL0     C42267   5.004   7.813   8.973  0.1201  0.0296 -0.5074
  321MOL0     C42268   4.914   7.866   8.881  0.6146 -0.8382 -0.6878
  321MOL0     C42269   4.799   7.786   8.819  0.1916  0.3068 -0.0066
  321MOL0     O42270   4.708   7.865   8.737 -0.3485  0.3089  0.5837
  321MOL0     C42271   4.586   7.809   8.694 -0.4798 -0.0886 -0.3322
  321MOL0     C42272   4.505   7.890   8.609  0.1655  0.0482 -0.2778
  321MOL0     C42273   4.364   7.862   8.590 -0.0391  0.0447  0.4250
  321MOL0     C42274   4.316   7.735   8.621 -0.1444  0.1344 -0.7630
  321MOL0     O42275   4.199   7.692   8.572  0.1196  0.0285  0.1593
  321MOL0     C42276   4.137   7.740   8.452  0.0639 -0.6662  0.4336
  321MOL0     C42277   4.039   7.634   8.411 -0.5067  0.2859 -0.1737
  321MOL0     C42278   3.902   7.658   8.481 -0.7895 -0.2217 -0.0801
  321MOL0     C42279   3.813   7.536   8.458  0.4416  0.0701  0.4333
  321MOL0     C42280   3.659   7.562   8.486 -0.1308 -0.4786  0.6316
  321MOL0     C42281   3.590   7.647   8.377 -0.3239 -0.0968 -0.2032
  321MOL0     C42282   3.439   7.659   8.390  0.8671 -0.1873 -0.0164
  321MOL0     C42283   3.361   7.537   8.350  0.1753  0.2124 -0.5233
  321MOL0    Cl42284   3.206   7.510   8.440 -0.0276 -0.0717  0.0433
  321MOL0     C42285   4.399   7.643   8.696 -0.7718  0.0565  0.5591
  321MOL0     C42286   4.524   7.686   8.738 -0.0549  0.0445  0.2542
  321MOL0     O42287   4.786   7.662   8.844 -0.0057 -0.7389  0.0111
  321MOL0     C42288   4.932   8.004   8.849 -0.6450 -0.1465  0.1568
  321MOL0     C42289   5.025   8.085   8.912  0.5997 -0.4563 -0.2245
  321MOL0     N42290   5.844   8.154   8.935  0.1791  0.8745  0.1150
  321MOL0     N42291   5.918   8.177   8.830  0.0983  0.6260 -0.5132
  321MOL0     C42292   6.778   8.618   8.728  0.2324  0.1298 -1.1077
  321MOL0     C42293   6.917   8.599   8.701  0.5145  0.5358 -0.0288
  321MOL0     C42294   7.351   8.621   8.821  0.0709 -0.3058  0.0826
  321MOL0     C42295   7.411   8.741   8.868 -0.9462 -0.3283  0.3447
  321MOL0     C42296   7.543   8.742   8.905  0.0051  0.1479 -0.2882
  321MOL0     C42297   7.622   8.625   8.920  0.2640  0.2692 -0.1509
  321MOL0     O42298   7.739   8.613   8.986  0.8138  0.0863  0.0613
  321MOL0     C42299   7.775   8.724   9.073 -0.4782 -0.2786 -0.6493
  321MOL0     C42300   7.888   8.693   9.181 -0.2870  0.5715 -0.3516
  321MOL0     C42301   8.017   8.635   9.117  0.0508  0.3276 -0.0066
  321MOL0     C42302   8.108   8.592   9.236  0.1889 -0.0139  0.1076
  321MOL0     C42303   8.244   8.574   9.200 -0.3190 -0.0410 -0.4513
  321MOL0     C42304   8.362   8.538   9.181  0.3510  0.3949 -0.7221
  321MOL0     C42305   7.563   8.506   8.867  0.4304 -0.4227  0.2547
  321MOL0     C42306   7.432   8.508   8.814 -0.5604  0.3323  0.3192
  321MOL0     H42307   6.988   8.375   8.942 -0.9972 -0.7462 -1.0662
  321MOL0     H42308   6.761   8.390   8.989 -2.6144  2.4366  1.4951
  321MOL0     H42309   6.582   8.511   9.055  0.3203 -1.4298  0.2655
  321MOL0     H42310   6.511   8.383   8.953  1.9934  0.7590 -2.5896
  321MOL0     H42311   6.386   8.661   8.971 -2.3979  0.7364  1.1436
  321MOL0     H42312   6.359   8.541   9.099  0.4433 -0.7792  0.2400
  321MOL0     H42313   6.255   8.398   8.920 -1.4161  0.2906  1.5440
  321MOL0     H42314   6.315   8.515   8.797  2.4164 -0.6608  0.4538
  321MOL0     H42315   6.135   8.588   9.032 -0.7383  1.5014  0.6228
  321MOL0     H42316   6.156   8.679   8.876  0.7611 -1.2467 -1.7062
  321MOL0     H42317   5.940   8.572   8.863  1.0726  0.5928 -1.7472
  321MOL0     H42318   6.019   8.423   8.919 -0.1702 -0.9009 -0.3089
  321MOL0     H42319   6.135   8.400   8.705 -1.4880 -1.1987 -1.5982
  321MOL0     H42320   6.112   8.571   8.672  1.4114 -0.6565  1.2765
  321MOL0     H42321   5.849   8.514   8.637 -0.0383  0.6687  0.6056
  321MOL0     H42322   5.987   8.481   8.520 -0.3747  3.0029  0.7329
  321MOL0     H42323   5.975   8.245   8.583  0.5654 -1.9032  3.1536
  321MOL0     H42324   5.810   8.299   8.544  0.4704  0.2724  0.1095
  321MOL0     H42325   5.656   8.372   8.790  1.9433  2.3573  0.3714
  321MOL0     H42326   5.570   8.336   9.007  0.9084 -0.5301 -1.0566
  321MOL0     H42327   5.672   8.253   9.133 -0.2564 -2.2615  0.8301
  321MOL0     H42328   5.589   8.034   9.032  0.6803  0.0434  0.4497
  321MOL0     H42329   5.500   8.142   8.921  1.4967  1.1770 -0.2527
  321MOL0     H42330   5.494   8.114   9.236  0.5782  2.9066  0.5213
  321MOL0     H42331   5.415   8.245   9.156  0.7570 -0.0365  2.0007
  321MOL0     H42332   5.282   8.035   9.236  0.6259 -0.2237 -0.6404
  321MOL0     H42333   5.345   7.959   9.088  1.6997  0.0903  0.3677
  321MOL0     H42334   5.169   7.835   9.106  0.7056 -3.0226 -2.5901
  321MOL0     H42335   4.986   7.710   9.002  0.3762 -0.2309 -1.2520
  321MOL0     H42336   4.547   7.982   8.571  1.6202  0.7101  2.6465
  321MOL0     H42337   4.313   7.937   8.531  0.5054 -0.6171 -0.9198
  321MOL0     H42338   4.212   7.737   8.372 -0.3494 -4.2844  0.0261
  321MOL0     H42339   4.089   7.838   8.463  4.1337  1.8413 -1.3723
  321MOL0     H42340   4.069   7.533   8.441 -2.0945 -0.6288 -1.4840
  321MOL0     H42341   4.023   7.634   8.302  1.0426  0.0949 -0.4259
  321MOL0     H42342   3.855   7.747   8.438  0.7505 -0.6017 -2.7707
  321MOL0     H42343   3.905   7.678   8.589 -4.2503 -2.2662  0.5378
  321MOL0     H42344   3.816   7.495   8.357 -1.2910 -0.4298  0.5575
  321MOL0     H42345   3.849   7.456   8.523  0.7555 -0.4477 -0.3666
  321MOL0     H42346   3.640   7.599   8.587  0.0317 -0.6984  0.7435
  321MOL0     H42347   3.615   7.463   8.476  3.1903 -2.0145 -0.1909
  321MOL0     H42348   3.604   7.595   8.282 -2.9241 -3.8327  1.2499
  321MOL0     H42349   3.636   7.746   8.377  0.2376 -0.2988  2.2319
  321MOL0     H42350   3.422   7.685   8.495  0.2085  1.3629 -0.4742
  321MOL0     H42351   3.398   7.743   8.332 -1.3081  0.6216  2.5059
  321MOL0     H42352   3.429   7.451   8.350  1.8232  1.4761 -0.3038
  321MOL0     H42353   3.327   7.539   8.246 -1.3927 -0.9251 -0.0721
  321MOL0     H42354   4.361   7.547   8.729 -2.9863  1.3311  1.9608
  321MOL0     H42355   4.570   7.619   8.810 -1.9323 -2.3767 -0.6515
  321MOL0     H42356   4.867   8.045   8.773  0.6832  1.2803 -0.2774
  321MOL0     H42357   5.032   8.193   8.903 -0.0403 -0.5401 -1.9768
  321MOL0     H42358   6.721   8.685   8.665  1.6143  4.3203  1.6606
  321MOL0     H42359   6.965   8.654   8.620  1.4095  1.1282  0.8760
  321MOL0     H42360   7.362   8.838   8.877 -0.9719 -0.3581  0.5258
  321MOL0     H42361   7.578   8.842   8.931 -0.3891 -0.4224  2.8195
  321MOL0     H42362   7.684   8.757   9.123  0.2788  2.6807 -1.0294
  321MOL0     H42363   7.816   8.803   9.009  1.1297  2.3325  3.2280
  321MOL0     H42364   7.910   8.782   9.240  0.9443 -1.1988  2.0546
  321MOL0     H42365   7.841   8.629   9.257  0.7997 -1.2577 -1.1405
  321MOL0     H42366   8.071   8.696   9.044 -0.2540  1.2713  0.5339
  321MOL0     H42367   7.992   8.540   9.068 -1.4990 -1.2205  3.4287
  321MOL0     H42368   8.100   8.671   9.311  1.3226  1.7606 -1.5837
  321MOL0     H42369   8.074   8.499   9.284  0.1949  0.1449  0.4232
  321MOL0     H42370   8.468   8.529   9.164  0.6049 -3.1687  1.5554
  321MOL0     H42371   7.611   8.410   8.853 -0.3707 -0.6278 -1.3500
  321MOL0     H42372   7.388   8.414   8.783 -1.2711  0.4570  0.9075
  322MOL0     O42373   6.820   4.968   5.751  0.1930  0.0643  0.4219
  322MOL0     C42374   6.799   5.091   5.782 -0.4219  0.6358  0.4982
  322MOL0     O42375   6.671   5.149   5.815  0.0148  0.5546  0.5347
  322MOL0     C42376   6.554   5.079   5.858 -0.0263 -0.0777  0.8843
  322MOL0     C42377   6.435   5.143   5.851 -0.2448  0.0734  0.6984
  322MOL0     C42378   6.317   5.083   5.898  0.0759  0.1413 -0.6885
  322MOL0     C42379   6.314   4.949   5.951  0.3595  0.8604  0.4324
  322MOL0     O42380   6.195   4.892   5.982  0.2673 -0.5734  0.2226
  322MOL0     C42381   6.186   4.798   6.092 -0.7222 -0.3487  0.6073
  322MOL0     C42382   6.205   4.655   6.038 -0.3760  0.2889 -0.1615
  322MOL0     C42383   6.102   4.610   5.939  0.1192  0.2088 -0.1704
  322MOL0     C42384   6.121   4.468   5.887  0.1478  0.2427  0.9270
  322MOL0     C42385   6.001   4.412   5.813 -0.7626 -0.2545  0.4534
  322MOL0     C42386   6.013   4.262   5.772  0.2116 -0.2740 -0.1305
  322MOL0     C42387   5.901   4.225   5.673 -0.2472  0.0321 -0.2917
  322MOL0     C42388   5.894   4.078   5.646 -0.8180  0.5148 -0.3013
  322MOL0     N42389   5.781   4.054   5.552 -1.1243 -0.6272 -0.0749
  322MOL0     C42390   5.781   4.095   5.416  0.5542  0.3962 -0.5639
  322MOL0     C42391   5.659   4.053   5.373 -0.5911 -0.1960 -0.9576
  322MOL0     C42392   5.594   4.073   5.241 -0.4043  0.5312  0.2369
  322MOL0     C42393   5.688   4.079   5.125  0.2718 -0.5800 -0.2954
  322MOL0     C42394   5.609   4.102   4.995 -0.0441 -0.0707  0.0331
  322MOL0     C42395   5.693   4.079   4.876 -0.2747  0.0399 -0.2353
  322MOL0     O42396   5.771   4.200   4.845  0.5190  0.1572 -0.7311
  322MOL0     C42397   5.885   4.237   4.909  0.0564  0.4158 -0.1850
  322MOL0     C42398   6.001   4.155   4.913  0.0439 -0.7254 -0.0265
  322MOL0     C42399   6.119   4.204   4.967  0.0465 -0.2147  0.5889
  322MOL0     C42400   6.134   4.342   4.997 -0.1816  0.6340 -0.5896
  322MOL0     C42401   6.270   4.406   5.034  0.2663  0.4029  0.6712
  322MOL0     O42402   6.368   4.320   5.057 -0.0831 -0.8130 -0.2554
  322MOL0     C42403   6.495   4.370   5.081  0.1050 -0.0536 -0.0194
  322MOL0     C42404   6.524   4.437   5.197  0.3687 -0.2730  0.6112
  322MOL0     C42405   6.652   4.488   5.212  0.5109 -0.4153 -0.5217
  322MOL0     C42406   6.746   4.466   5.112 -0.2901  0.0100 -0.1986
  322MOL0     O42407   6.884   4.514   5.115  0.1084 -0.1170  0.5766
  322MOL0     C42408   6.930   4.589   5.226 -0.6442 -0.1713 -0.0322
  322MOL0     C42409   6.974   4.501   5.340  0.4871  0.0442 -0.3296
  322MOL0     C42410   7.094   4.403   5.315 -0.7269 -0.7558  0.0320
  322MOL0     C42411   7.190   4.402   5.434  1.0529  0.4213  0.9598
  322MOL0     C42412   7.291   4.282   5.416  0.7806  0.2928  0.1777
  322MOL0     C42413   7.372   4.252   5.541 -0.3768  0.3353 -0.0313
  322MOL0     C42414   7.444   4.115   5.527 -0.3858 -0.2464  1.1145
  322MOL0     C42415   7.347   3.994   5.532  0.2959  0.2669  0.1226
  322MOL0    Cl42416   7.437   3.847   5.469  0.2472 -0.1350 -0.1046
  322MOL0     C42417   6.716   4.387   5.001 -0.6068 -0.1263 -0.0385
  322MOL0     C42418   6.587   4.341   4.978 -0.0966  0.4279 -0.3118
  322MOL0     O42419   6.280   4.529   5.033 -0.0404 -0.1012  0.0485
  322MOL0     C42420   6.023   4.425   4.983 -0.4566 -0.4495  0.3715
  322MOL0     C42421   5.898   4.373   4.940 -0.2218 -0.6384 -1.3024
  322MOL0     N42422   5.594   3.988   5.479  0.2084  0.5902  0.0483
  322MOL0     N42423   5.669   3.992   5.583  0.4306 -0.0108 -0.3647
  322MOL0     C42424   6.443   4.884   5.970  0.6895  0.2143 -0.0577
  322MOL0     C42425   6.558   4.954   5.924 -0.1109  0.6392 -0.7012
  322MOL0     C42426   6.910   5.184   5.757  0.6365 -0.3684 -0.6521
  322MOL0     C42427   7.009   5.160   5.668  0.8337 -0.4166 -0.5242
  322MOL0     C42428   7.116   5.248   5.652 -0.5660 -0.6518  0.5642
  322MOL0     C42429   7.111   5.377   5.721 -0.5320  0.4688  1.3741
  322MOL0     O42430   7.216   5.454   5.689  0.0085 -0.4924 -0.4279
  322MOL0     C42431   7.242   5.579   5.752 -0.8175  0.9319 -0.5112
  322MOL0     C42432   7.314   5.555   5.884 -0.4389  0.2927  0.6023
  322MOL0     C42433   7.459   5.529   5.857 -0.3773  0.4800  0.1481
  322MOL0     C42434   7.539   5.654   5.846  0.0109  0.4731 -0.0896
  322MOL0     C42435   7.686   5.632   5.839 -0.3540  0.2692  0.3466
  322MOL0     C42436   7.807   5.617   5.830  0.7053 -0.1731  0.4036
  322MOL0     C42437   6.998   5.414   5.800 -0.3892  0.0328  0.1506
  322MOL0     C42438   6.897   5.314   5.818  0.6319 -0.3980  0.9328
  322MOL0     H42439   6.439   5.246   5.816 -2.3261  0.4371  1.4034
  322MOL0     H42440   6.216   5.120   5.883  0.1856  0.3709 -0.8700
  322MOL0     H42441   6.089   4.811   6.140 -1.8669 -0.0780 -1.6161
  322MOL0     H42442   6.260   4.821   6.169  0.2231 -0.5682 -0.2056
  322MOL0     H42443   6.195   4.581   6.117 -0.6558  0.7451  0.2357
  322MOL0     H42444   6.305   4.643   5.995 -0.0037  0.5077  0.6358
  322MOL0     H42445   6.099   4.685   5.860 -1.1765 -0.3534 -0.6817
  322MOL0     H42446   6.002   4.610   5.984  0.4297  0.6015  0.5354
  322MOL0     H42447   6.211   4.475   5.824 -0.5662  3.5178  0.0764
  322MOL0     H42448   6.130   4.399   5.972 -1.4991 -2.3086 -0.8193
  322MOL0     H42449   5.973   4.474   5.727  0.4924  0.0968  0.2752
  322MOL0     H42450   5.914   4.409   5.880 -0.5360  0.4768  0.7897
  322MOL0     H42451   6.001   4.199   5.861  0.4848 -0.7655 -0.4342
  322MOL0     H42452   6.107   4.245   5.719  1.7323  1.9480  1.6449
  322MOL0     H42453   5.812   4.266   5.721  2.0687  0.9931  3.6730
  322MOL0     H42454   5.916   4.274   5.576  0.6518 -0.1232 -0.2397
  322MOL0     H42455   5.877   4.046   5.749  0.5216  2.9472  0.7606
  322MOL0     H42456   5.987   4.032   5.613 -0.6256 -0.5161  1.5500
  322MOL0     H42457   5.854   4.145   5.354  2.1577 -1.3636 -0.1783
  322MOL0     H42458   5.536   4.165   5.239 -2.1114 -0.4832 -2.6768
  322MOL0     H42459   5.522   3.995   5.212 -0.1141 -0.4259  1.9267
  322MOL0     H42460   5.749   3.988   5.133 -0.2087 -0.7420  2.4228
  322MOL0     H42461   5.763   4.159   5.132  2.6410 -2.5602 -1.5671
  322MOL0     H42462   5.522   4.036   4.990  0.5414 -0.7730 -2.0330
  322MOL0     H42463   5.576   4.206   5.003 -0.0054  0.0966 -1.5389
  322MOL0     H42464   5.637   4.062   4.784  0.5450 -1.2404 -0.5152
  322MOL0     H42465   5.768   4.001   4.884 -0.8909 -0.6742 -1.2816
  322MOL0     H42466   5.990   4.050   4.887  0.2662 -0.2570 -2.1275
  322MOL0     H42467   6.196   4.127   4.972  0.0289 -0.3451 -0.7951
  322MOL0     H42468   6.439   4.451   5.263 -0.7475  5.1151 -1.4264
  322MOL0     H42469   6.669   4.541   5.305 -4.3719 -1.3286  1.1600
  322MOL0     H42470   6.856   4.665   5.253  0.2762  0.5935  0.4088
  322MOL0     H42471   7.018   4.646   5.194  1.2323 -2.4956  0.7173
  322MOL0     H42472   6.890   4.448   5.384 -2.3955  3.1633 -1.6789
  322MOL0     H42473   7.005   4.574   5.416  0.0331 -0.7959  0.6798
  322MOL0     H42474   7.153   4.435   5.229 -1.2521 -1.1689 -0.4870
  322MOL0     H42475   7.056   4.304   5.287  0.2865 -0.6187 -1.9952
  322MOL0     H42476   7.251   4.493   5.445  3.7301 -0.9263 -1.4429
  322MOL0     H42477   7.136   4.371   5.525  0.9606 -1.5320  0.2865
  322MOL0     H42478   7.360   4.292   5.332 -0.3264  0.5718 -0.7224
  322MOL0     H42479   7.231   4.195   5.390 -1.1741  1.3609  0.9189
  322MOL0     H42480   7.305   4.251   5.628 -0.7733  3.7578 -0.1738
  322MOL0     H42481   7.442   4.334   5.560  1.0388 -0.6596 -0.7819
  322MOL0     H42482   7.493   4.111   5.429  0.5317 -0.0940  1.5497
  322MOL0     H42483   7.520   4.112   5.606 -0.4014 -2.0858  1.1074
  322MOL0     H42484   7.254   3.998   5.475  0.2152 -1.8758  0.0450
  322MOL0     H42485   7.313   3.976   5.634 -0.1426 -0.4146 -0.1419
  322MOL0     H42486   6.795   4.364   4.930 -0.5400 -3.3350  0.9293
  322MOL0     H42487   6.566   4.280   4.890  0.8082 -0.2290 -0.0836
  322MOL0     H42488   6.030   4.530   5.009 -0.2443 -0.7498  1.5798
  322MOL0     H42489   5.813   4.436   4.916 -0.3767 -0.1096  0.4850
  322MOL0     H42490   6.461   4.787   6.013  1.3735 -0.3991 -1.6514
  322MOL0     H42491   6.652   4.903   5.940 -1.2232 -1.9140 -1.7109
  322MOL0     H42492   7.018   5.058   5.632  3.4417 -0.8959  1.2099
  322MOL0     H42493   7.193   5.229   5.578 -1.8092 -2.1533 -0.4028
  322MOL0     H42494   7.153   5.638   5.773 -1.3193 -0.0239  0.1329
  322MOL0     H42495   7.301   5.646   5.689 -2.4849  2.7918 -0.1641
  322MOL0     H42496   7.306   5.638   5.955  1.3439 -1.8704  3.5936
  322MOL0     H42497   7.267   5.470   5.935  1.4160 -1.4233 -0.4270
  322MOL0     H42498   7.473   5.464   5.770 -0.1094  0.0087  0.5378
  322MOL0     H42499   7.496   5.479   5.948  0.4430  0.9424  0.0825
  322MOL0     H42500   7.504   5.700   5.754  0.3073 -1.2677 -1.1344
  322MOL0     H42501   7.504   5.711   5.932  0.0635 -0.9909  0.9472
  322MOL0     H42502   7.914   5.614   5.826  0.6646 -0.8538 -0.4444
  322MOL0     H42503   6.985   5.511   5.847 -0.4800 -0.3654  0.9752
  322MOL0     H42504   6.807   5.335   5.875  0.7020 -0.8685  1.2276
  323MOL0     O42505   3.845   8.656   5.069 -0.1402  0.5057  0.2380
  323MOL0     C42506   3.848   8.554   5.136  0.3782  0.0140  0.7269
  323MOL0     O42507   3.745   8.459   5.141 -0.7498 -0.2502  0.0938
  323MOL0     C42508   3.624   8.481   5.096  0.2260  0.4084 -0.2984
  323MOL0     C42509   3.533   8.568   5.161  0.2661 -0.5981  1.2756
  323MOL0     C42510   3.407   8.585   5.107 -0.5158 -0.1356  0.1338
  323MOL0     C42511   3.374   8.524   4.989  0.3380  0.2234 -0.1132
  323MOL0     O42512   3.249   8.541   4.940 -0.0819  0.2183 -0.8973
  323MOL0     C42513   3.185   8.426   4.890  0.3960 -0.0906  0.3817
  323MOL0     C42514   3.027   8.441   4.880  0.3804  0.4572  0.0194
  323MOL0     C42515   2.953   8.346   4.786  0.0643  0.1056 -0.2001
  323MOL0     C42516   2.806   8.327   4.835  0.4430 -0.6344  0.1427
  323MOL0     C42517   2.703   8.243   4.740 -1.1248  0.4739 -0.4433
  323MOL0     C42518   2.567   8.247   4.800 -0.5487 -0.7497 -0.9796
  323MOL0     C42519   2.479   8.140   4.747 -0.3949 -0.9443  0.4609
  323MOL0     C42520   2.336   8.158   4.808  0.3607  0.0439  0.2582
  323MOL0     N42521   2.247   8.077   4.730 -0.2699 -1.1385  0.2780
  323MOL0     C42522   2.245   7.942   4.710  0.5936 -0.0934 -0.5775
  323MOL0     C42523   2.135   7.922   4.628 -0.0747 -0.2927  0.0623
  323MOL0     C42524   2.083   7.792   4.572  0.5964  0.5472  0.9390
  323MOL0     C42525   2.200   7.704   4.523 -0.1178  0.0256  0.2856
  323MOL0     C42526   2.237   7.576   4.603 -0.1035 -0.4866 -0.2295
  323MOL0     C42527   2.381   7.534   4.576 -0.4206  0.4800 -0.8418
  323MOL0     O42528   2.467   7.629   4.653 -0.4011  0.2492 -1.5587
  323MOL0     C42529   2.602   7.633   4.644  0.6813  0.0445  0.6983
  323MOL0     C42530   2.674   7.562   4.544 -0.9287 -0.0314  0.3299
  323MOL0     C42531   2.809   7.581   4.524 -0.9983 -0.2648 -0.4143
  323MOL0     C42532   2.880   7.665   4.611 -0.0337 -0.6301 -0.4834
  323MOL0     C42533   3.028   7.699   4.582 -0.2664 -0.4182 -0.4861
  323MOL0     O42534   3.071   7.671   4.460 -0.8527  0.4577 -0.1105
  323MOL0     C42535   3.192   7.722   4.410  0.0947  0.8173 -0.5560
  323MOL0     C42536   3.317   7.710   4.475 -0.4565 -0.4679 -0.4911
  323MOL0     C42537   3.437   7.754   4.416  0.3451  0.3510 -0.1002
  323MOL0     C42538   3.423   7.799   4.284  0.6604  0.1469 -0.1649
  323MOL0     O42539   3.540   7.838   4.212  0.9606  0.3497  0.0610
  323MOL0     C42540   3.659   7.880   4.287 -0.0304  0.1896 -0.0292
  323MOL0     C42541   3.777   7.772   4.302  0.8234  0.3211  0.3550
  323MOL0     C42542   3.792   7.687   4.180  0.2791  0.6994  0.2075
  323MOL0     C42543   3.890   7.585   4.226  0.7017  0.3234 -0.0891
  323MOL0     C42544   3.939   7.515   4.106  0.2443 -0.2311  0.4271
  323MOL0     C42545   3.839   7.415   4.051  0.3529  0.7779 -0.4305
  323MOL0     C42546   3.886   7.349   3.924  0.5165  0.3105  0.1384
  323MOL0     C42547   3.788   7.244   3.869 -0.2003  0.3449  1.3957
  323MOL0    Cl42548   3.826   7.173   3.710  0.2154 -0.0167 -0.0373
  323MOL0     C42549   3.301   7.815   4.222  0.2574  0.2605 -1.0091
  323MOL0     C42550   3.183   7.781   4.284 -0.1039 -0.0787 -0.1489
  323MOL0     O42551   3.094   7.734   4.682  0.2363 -0.4463  0.7427
  323MOL0     C42552   2.814   7.728   4.717  0.4866 -0.2532  0.3652
  323MOL0     C42553   2.681   7.707   4.731  0.3504  0.0284 -0.2618
  323MOL0     N42554   2.068   8.042   4.601  0.5434  0.0191 -0.2294
  323MOL0     N42555   2.140   8.131   4.670  0.0673  0.1331  1.0822
  323MOL0     C42556   3.460   8.430   4.932  0.7263  0.6135 -0.5510
  323MOL0     C42557   3.594   8.416   4.983  0.3659 -0.2920  0.8022
  323MOL0     C42558   3.974   8.528   5.196 -0.1865 -0.1710 -0.6378
  323MOL0     C42559   4.095   8.587   5.154  0.0094 -0.6358 -0.3504
  323MOL0     C42560   4.218   8.548   5.204  0.0564 -0.8016 -0.2371
  323MOL0     C42561   4.228   8.457   5.312 -0.1966  0.1706 -1.0866
  323MOL0     O42562   4.349   8.437   5.386  0.1775  0.7396  0.0833
  323MOL0     C42563   4.469   8.475   5.329 -0.6203 -0.2394  0.4118
  323MOL0     C42564   4.576   8.452   5.439  0.3988  0.4174  0.2743
  323MOL0     C42565   4.596   8.562   5.546  0.9167  0.2451  0.6408
  323MOL0     C42566   4.660   8.504   5.666 -0.1624 -0.1143  0.4625
  323MOL0     C42567   4.802   8.470   5.669 -0.4319 -0.2699 -0.3788
  323MOL0     C42568   4.918   8.445   5.662 -0.4843  0.2966  0.2058
  323MOL0     C42569   4.111   8.400   5.367 -0.0333  0.8413 -0.7520
  323MOL0     C42570   3.990   8.439   5.307 -0.3366 -0.1800 -0.3573
  323MOL0     H42571   3.568   8.613   5.253  1.9495 -1.3119  1.0220
  323MOL0     H42572   3.338   8.660   5.142  0.3122  0.6477  0.1372
  323MOL0     H42573   3.208   8.337   4.948 -0.1782 -0.4592  0.0550
  323MOL0     H42574   3.218   8.402   4.788  0.4616  2.1832 -0.1811
  323MOL0     H42575   3.015   8.536   4.827  1.8776 -1.1614 -3.6490
  323MOL0     H42576   2.977   8.445   4.976  1.2333 -3.4484  0.8150
  323MOL0     H42577   3.008   8.252   4.803  1.4138  1.2722  2.5800
  323MOL0     H42578   2.960   8.376   4.681  1.3683 -0.7375 -0.3876
  323MOL0     H42579   2.814   8.273   4.930  5.9948 -1.4920 -0.4931
  323MOL0     H42580   2.760   8.426   4.846 -1.3091 -0.8135 -3.7714
  323MOL0     H42581   2.741   8.140   4.740  1.3265  1.2864 -1.8195
  323MOL0     H42582   2.707   8.285   4.640  1.2580 -0.8964 -1.0188
  323MOL0     H42583   2.518   8.342   4.779 -1.3598 -0.7837  0.6397
  323MOL0     H42584   2.566   8.243   4.909 -0.6385 -1.5453 -0.9988
  323MOL0     H42585   2.493   8.139   4.639  1.1052 -1.1545  0.6403
  323MOL0     H42586   2.522   8.047   4.787  0.5303 -0.7702 -0.1049
  323MOL0     H42587   2.305   8.263   4.815 -0.5288 -0.2193  0.2895
  323MOL0     H42588   2.337   8.110   4.906  0.3600  1.2808  0.8760
  323MOL0     H42589   2.317   7.869   4.745 -0.5586 -0.8269  0.3432
  323MOL0     H42590   2.024   7.812   4.482  1.0788 -1.4930  0.1298
  323MOL0     H42591   2.036   7.733   4.651  3.6140 -1.7678  1.1674
  323MOL0     H42592   2.290   7.764   4.505 -0.8425  0.6388 -1.4921
  323MOL0     H42593   2.172   7.682   4.420 -2.0128  0.0922  0.7462
  323MOL0     H42594   2.239   7.605   4.708  1.7948  2.9290 -1.0635
  323MOL0     H42595   2.170   7.490   4.591 -1.9461  0.0708  4.3362
  323MOL0     H42596   2.406   7.546   4.470  0.2819 -0.5108 -0.8039
  323MOL0     H42597   2.401   7.430   4.605  0.3834  0.9978  0.5291
  323MOL0     H42598   2.635   7.503   4.461  2.1050  2.4073 -3.1282
  323MOL0     H42599   2.857   7.529   4.442 -1.1107  1.8447 -1.8903
  323MOL0     H42600   3.319   7.674   4.577 -2.5845  2.6090  0.7795
  323MOL0     H42601   3.527   7.726   4.470  0.6927  0.1421 -0.7766
  323MOL0     H42602   3.639   7.916   4.388 -1.0987  1.9251 -0.8144
  323MOL0     H42603   3.714   7.961   4.238  3.7303 -2.3732 -0.5513
  323MOL0     H42604   3.730   7.702   4.372 -0.4839 -0.3959 -1.1650
  323MOL0     H42605   3.868   7.820   4.338 -0.1551  3.3340 -0.8132
  323MOL0     H42606   3.826   7.731   4.086 -2.5368  0.8775 -0.8377
  323MOL0     H42607   3.702   7.628   4.158 -0.0242 -0.1772  3.3684
  323MOL0     H42608   3.969   7.633   4.284 -0.6312 -0.8486  2.9466
  323MOL0     H42609   3.857   7.516   4.305  1.2237  0.6230  0.3965
  323MOL0     H42610   4.033   7.464   4.129  0.9407  1.5183  1.6625
  323MOL0     H42611   3.964   7.582   4.023  0.6536 -0.6500  0.2108
  323MOL0     H42612   3.742   7.457   4.023 -1.4911 -3.2490 -0.8685
  323MOL0     H42613   3.821   7.330   4.119 -1.3232 -0.0461 -1.8313
  323MOL0     H42614   3.895   7.430   3.851 -2.4581  0.3979 -0.2756
  323MOL0     H42615   3.980   7.296   3.941 -0.3031 -1.3352 -0.2614
  323MOL0     H42616   3.689   7.290   3.862 -0.6892 -0.8538 -0.3560
  323MOL0     H42617   3.784   7.160   3.939 -1.3500  0.1834  1.1652
  323MOL0     H42618   3.297   7.851   4.120 -0.6437  0.7186 -0.8194
  323MOL0     H42619   3.086   7.784   4.235  0.6365 -1.4484 -1.8102
  323MOL0     H42620   2.882   7.786   4.779 -0.7023  1.1028  0.4688
  323MOL0     H42621   2.624   7.733   4.820 -1.2141  1.6913 -1.6801
  323MOL0     H42622   3.435   8.356   4.857 -0.0584  0.1078  0.1945
  323MOL0     H42623   3.664   8.346   4.938 -0.5354 -1.4465  1.1214
  323MOL0     H42624   4.106   8.645   5.063  0.5603 -1.7909 -1.0329
  323MOL0     H42625   4.309   8.583   5.156 -0.2533  0.1514 -0.1585
  323MOL0     H42626   4.464   8.576   5.286 -0.7692 -0.4076  0.0260
  323MOL0     H42627   4.480   8.410   5.242  1.6404 -0.4864  0.8270
  323MOL0     H42628   4.552   8.360   5.492  2.6589 -0.5715 -0.3079
  323MOL0     H42629   4.672   8.431   5.390 -0.9969 -0.9220 -2.0165
  323MOL0     H42630   4.495   8.600   5.562 -0.6263 -1.8225 -2.8876
  323MOL0     H42631   4.661   8.643   5.512  0.9216  0.0085  0.0573
  323MOL0     H42632   4.664   8.587   5.737 -1.9006  0.9618 -0.6149
  323MOL0     H42633   4.601   8.422   5.709  1.4208 -2.6166 -1.8638
  323MOL0     H42634   5.023   8.430   5.645 -0.5924  0.9575 -1.2898
  323MOL0     H42635   4.115   8.337   5.455 -0.1081  2.3408  0.3760
  323MOL0     H42636   3.900   8.388   5.339 -0.6143 -0.0886 -0.9844
  324MOL0     O42637   1.209   4.089   3.583 -0.1387 -0.1359  0.2084
  324MOL0     C42638   1.291   4.054   3.662  0.0802  0.0665 -0.2917
  324MOL0     O42639   1.263   3.989   3.782 -0.2629  0.0262 -0.0702
  324MOL0     C42640   1.135   3.951   3.807  0.3077 -0.0570 -0.3757
  324MOL0     C42641   1.061   3.883   3.715  0.2158 -0.1859  0.8231
  324MOL0     C42642   0.929   3.848   3.748 -0.7972 -0.0890  0.2647
  324MOL0     C42643   0.882   3.865   3.878 -0.1073 -0.8565 -0.0588
  324MOL0     O42644   0.756   3.818   3.899  0.2154 -0.7024 -0.2728
  324MOL0     C42645   0.671   3.841   4.013  0.1655 -0.9433  0.5491
  324MOL0     C42646   0.534   3.814   3.967 -0.1699  0.0327 -0.8914
  324MOL0     C42647   0.448   3.839   4.083  0.4612 -0.7209  0.2234
  324MOL0     C42648   0.302   3.810   4.055 -0.4379  1.4095  0.1518
  324MOL0     C42649   0.212   3.864   4.164  0.2820  0.0134  0.1172
  324MOL0     C42650   0.240   3.815   4.309 -1.0112  0.5908  0.3216
  324MOL0     C42651   0.121   3.826   4.399  0.4384 -0.0938  0.1079
  324MOL0     C42652   0.054   3.970   4.417  0.8033  0.6129 -0.0411
  324MOL0     N42653  -0.090   3.951   4.463  0.0816 -0.1644  0.7526
  324MOL0     C42654  -0.127   3.904   4.586  0.2253 -0.8005  0.5944
  324MOL0     C42655  -0.263   3.906   4.582  0.4684 -0.8050 -0.2529
  324MOL0     C42656  -0.363   3.850   4.681  0.0876 -0.3627  0.3491
  324MOL0     C42657  -0.485   3.940   4.696  0.8598  0.1999  0.1359
  324MOL0     C42658  -0.581   3.908   4.812  0.0109  0.1571 -0.4706
  324MOL0     C42659  -0.696   3.812   4.778 -0.4735 -0.0252  0.1002
  324MOL0     O42660  -0.774   3.882   4.672  0.4591  0.1610  0.3385
  324MOL0     C42661  -0.903   3.879   4.696 -0.0313  0.0078 -0.6075
  324MOL0     C42662  -0.978   3.995   4.662  0.6761 -0.4718 -0.8641
  324MOL0     C42663  -1.113   3.993   4.698 -0.3578 -0.3580  0.4083
  324MOL0     C42664  -1.177   3.878   4.741  0.8055 -0.0657  0.1951
  324MOL0     C42665  -1.316   3.874   4.772 -0.5580 -0.8114  0.0078
  324MOL0     O42666  -1.383   3.764   4.795 -0.4577  0.3423 -0.9498
  324MOL0     C42667  -1.513   3.788   4.821  1.1638 -0.5467 -0.0241
  324MOL0     C42668  -1.597   3.811   4.711 -0.4962  0.4725 -0.0377
  324MOL0     C42669  -1.730   3.843   4.729  0.0560 -0.7334  0.5441
  324MOL0     C42670  -1.783   3.856   4.857  0.8684 -0.7457  0.5403
  324MOL0     O42671  -1.911   3.898   4.876  0.0095 -0.2996  0.4364
  324MOL0     C42672  -1.938   4.023   4.810 -0.2948 -1.2368  0.7662
  324MOL0     C42673  -2.068   4.084   4.854  0.4514 -0.1157  0.0646
  324MOL0     C42674  -2.058   4.134   4.998 -0.4311 -0.0723  0.4097
  324MOL0     C42675  -2.198   4.179   5.044 -0.1613 -0.3599 -0.2362
  324MOL0     C42676  -2.197   4.267   5.169 -0.5319  0.0821 -0.3500
  324MOL0     C42677  -2.338   4.288   5.221 -0.2340 -0.4883 -0.4884
  324MOL0     C42678  -2.332   4.352   5.361  0.1515 -0.0433 -0.6452
  324MOL0     C42679  -2.478   4.383   5.405  0.4570 -0.6271 -0.2995
  324MOL0    Cl42680  -2.550   4.514   5.313  0.1924  0.2510  0.5709
  324MOL0     C42681  -1.703   3.825   4.968 -0.2345  0.5060 -0.3231
  324MOL0     C42682  -1.563   3.786   4.950 -0.0714  0.4176  0.3568
  324MOL0     O42683  -1.366   3.986   4.772 -0.4197  0.3530 -0.1149
  324MOL0     C42684  -1.105   3.766   4.746  0.0206  1.7918 -0.0526
  324MOL0     C42685  -0.972   3.765   4.732 -0.7989  0.5977  0.6896
  324MOL0     N42686  -0.300   3.962   4.464  0.2661  0.8505 -0.0457
  324MOL0     N42687  -0.194   3.980   4.389 -0.0108  0.2312  0.4147
  324MOL0     C42688   0.957   3.912   3.979 -0.9471  0.3267  0.3359
  324MOL0     C42689   1.089   3.957   3.936  0.4356 -0.2813 -0.6946
  324MOL0     C42690   1.437   4.069   3.625 -0.3633  0.2563  0.6357
  324MOL0     C42691   1.546   4.020   3.710  0.1981  0.2381 -0.1556
  324MOL0     C42692   1.678   4.043   3.676  0.1981 -0.5772 -0.1017
  324MOL0     C42693   1.707   4.129   3.571 -0.1412 -1.3563  0.0710
  324MOL0     O42694   1.844   4.155   3.566 -0.6415 -0.3684 -0.7838
  324MOL0     C42695   1.899   4.243   3.461 -0.2824  0.0199  0.0442
  324MOL0     C42696   1.903   4.180   3.327 -0.2415  0.1430  1.0723
  324MOL0     C42697   2.006   4.065   3.333  0.3957  0.1618 -0.5029
  324MOL0     C42698   2.014   3.982   3.209 -0.2987  0.2461  0.0671
  324MOL0     C42699   2.099   4.050   3.110 -0.1590  0.8332  0.9636
  324MOL0     C42700   2.174   4.090   3.023  0.3096 -0.4508 -1.0421
  324MOL0     C42701   1.610   4.176   3.480  0.6994  0.5899  0.6996
  324MOL0     C42702   1.478   4.137   3.504  0.3532  0.2996 -0.3327
  324MOL0     H42703   1.085   3.863   3.611 -0.6638  1.9609  0.1659
  324MOL0     H42704   0.862   3.800   3.678 -2.9405 -1.6138  3.1337
  324MOL0     H42705   0.674   3.948   4.035  1.3194 -0.6360 -0.9786
  324MOL0     H42706   0.700   3.779   4.099  3.2481 -0.9181 -0.3646
  324MOL0     H42707   0.521   3.707   3.946 -1.7593  0.3628 -1.8169
  324MOL0     H42708   0.504   3.873   3.880 -1.2632  1.9375  0.7084
  324MOL0     H42709   0.459   3.947   4.075  2.0780 -0.9721 -1.8145
  324MOL0     H42710   0.482   3.791   4.175  0.3694 -1.4248 -0.1024
  324MOL0     H42711   0.280   3.857   3.959  0.4351  0.4225 -0.5385
  324MOL0     H42712   0.301   3.701   4.049  1.4618  1.4735 -3.7071
  324MOL0     H42713   0.110   3.849   4.130  0.1438 -1.7981  1.1602
  324MOL0     H42714   0.229   3.971   4.154  2.4587 -0.3206 -0.3251
  324MOL0     H42715   0.320   3.872   4.358 -0.9987  1.9158 -1.1388
  324MOL0     H42716   0.279   3.713   4.302  1.5047  1.5453 -1.0209
  324MOL0     H42717   0.050   3.755   4.355  0.5909 -0.8349  1.0222
  324MOL0     H42718   0.148   3.779   4.494  0.7986 -2.5365 -1.1325
  324MOL0     H42719   0.054   4.021   4.321  4.0477 -1.9744 -1.6374
  324MOL0     H42720   0.115   4.021   4.491  0.9086 -0.0874  0.3695
  324MOL0     H42721  -0.062   3.868   4.665  0.6506  0.1955  0.7199
  324MOL0     H42722  -0.315   3.843   4.779 -0.8916 -2.4039  0.7300
  324MOL0     H42723  -0.407   3.760   4.637  0.5334  0.3515 -1.6739
  324MOL0     H42724  -0.550   3.940   4.608  1.7505  1.7279 -0.5554
  324MOL0     H42725  -0.450   4.044   4.702 -0.5087  0.6141  2.1301
  324MOL0     H42726  -0.524   3.863   4.894 -0.7658  1.5796  0.9068
  324MOL0     H42727  -0.619   4.002   4.852 -2.8877 -1.5021  1.0238
  324MOL0     H42728  -0.757   3.802   4.868 -0.5127  1.9783  0.3538
  324MOL0     H42729  -0.655   3.713   4.760 -0.6061 -0.5585  2.4695
  324MOL0     H42730  -0.933   4.087   4.625  0.7069  0.6848  1.7478
  324MOL0     H42731  -1.175   4.081   4.681  0.7418  0.3805  0.0983
  324MOL0     H42732  -1.558   3.804   4.610  1.3896 -3.2236  0.7486
  324MOL0     H42733  -1.794   3.854   4.643  0.7725 -0.6849  0.0139
  324MOL0     H42734  -1.941   4.000   4.703  2.5596 -0.8619  0.5356
  324MOL0     H42735  -1.859   4.097   4.824 -0.8925 -0.5506  0.5915
  324MOL0     H42736  -2.142   4.004   4.850  0.0028  0.3412 -3.1653
  324MOL0     H42737  -2.098   4.171   4.794  2.2311  1.1131  0.8428
  324MOL0     H42738  -1.988   4.217   5.011  0.0063 -0.5922  1.6105
  324MOL0     H42739  -2.018   4.060   5.068  2.7690  2.3702  1.4042
  324MOL0     H42740  -2.239   4.248   4.969 -1.8344  1.3019  2.0841
  324MOL0     H42741  -2.266   4.094   5.041  1.1342 -1.4184 -2.5824
  324MOL0     H42742  -2.144   4.363   5.159 -0.6496  0.1755 -0.0897
  324MOL0     H42743  -2.151   4.201   5.243 -0.3165 -0.2536 -0.7861
  324MOL0     H42744  -2.390   4.193   5.212  1.0019 -0.9975 -3.4954
  324MOL0     H42745  -2.391   4.361   5.159 -1.6261  0.1803  1.4032
  324MOL0     H42746  -2.279   4.285   5.430 -0.5998 -0.2279 -0.2342
  324MOL0     H42747  -2.284   4.450   5.361 -0.5984  0.5613  4.1413
  324MOL0     H42748  -2.482   4.408   5.512 -0.4736 -1.9279 -0.0086
  324MOL0     H42749  -2.531   4.291   5.380  2.3574 -1.7223 -0.4336
  324MOL0     H42750  -1.739   3.843   5.068  2.0888  4.2287  0.0423
  324MOL0     H42751  -1.503   3.765   5.038  0.9464 -0.3693 -0.5029
  324MOL0     H42752  -1.142   3.669   4.778  0.4186  2.2760  2.0511
  324MOL0     H42753  -0.924   3.668   4.744  1.2390  1.5001  0.1758
  324MOL0     H42754   0.922   3.923   4.081  1.5611  1.6813  1.1288
  324MOL0     H42755   1.144   3.997   4.021 -2.4690 -4.0791  3.4981
  324MOL0     H42756   1.505   3.966   3.795 -2.1108  2.7640  0.4857
  324MOL0     H42757   1.762   3.996   3.727  1.3158  1.1619 -0.2473
  324MOL0     H42758   2.004   4.266   3.479 -0.6583  1.6330  0.3225
  324MOL0     H42759   1.835   4.331   3.453 -4.2360 -2.5163  0.6027
  324MOL0     H42760   1.809   4.134   3.295  0.6636  1.0507 -3.7813
  324MOL0     H42761   1.939   4.249   3.249  0.0379  0.3669  1.3979
  324MOL0     H42762   1.976   3.994   3.411  2.3916  0.8968  1.0229
  324MOL0     H42763   2.100   4.113   3.360 -0.4117  1.7651 -0.4427
  324MOL0     H42764   2.071   3.893   3.238 -0.0565  0.0532 -0.9685
  324MOL0     H42765   1.918   3.944   3.173  0.5484 -3.0248  0.9841
  324MOL0     H42766   2.214   4.124   2.929 -0.0610  0.8580 -0.7345
  324MOL0     H42767   1.632   4.232   3.390  0.0963  0.6248  0.5678
  324MOL0     H42768   1.402   4.195   3.453  0.9281  4.0375  2.6319
  325MOL0     O42769  10.053   8.443   5.157  0.2465  0.1412  0.5843
  325MOL0     C42770  10.023   8.567   5.144 -0.2166 -0.6163  0.1153
  325MOL0     O42771   9.908   8.622   5.093  0.2725 -0.2884  0.4067
  325MOL0     C42772   9.831   8.542   5.019  0.4862 -0.2572 -0.1373
  325MOL0     C42773   9.826   8.561   4.884 -0.4156 -0.0988 -0.4095
  325MOL0     C42774   9.734   8.493   4.810  0.4068 -0.5267  0.1775
  325MOL0     C42775   9.644   8.400   4.868  0.3202 -0.2342 -0.3800
  325MOL0     O42776   9.543   8.324   4.807 -0.7530  0.0174 -0.1795
  325MOL0     C42777   9.564   8.294   4.667 -1.2599 -0.7453 -0.0464
  325MOL0     C42778   9.443   8.234   4.606 -0.1008 -0.0354  0.3399
  325MOL0     C42779   9.463   8.232   4.455 -0.9544  0.0239  0.4080
  325MOL0     C42780   9.335   8.214   4.377  0.4732  0.0107  0.2655
  325MOL0     C42781   9.356   8.147   4.236 -0.2997 -0.8414 -0.7038
  325MOL0     C42782   9.235   8.100   4.170 -0.2334 -0.0049  0.2083
  325MOL0     C42783   9.254   8.030   4.034  0.0521 -0.6323 -0.9106
  325MOL0     C42784   9.116   7.973   3.983 -0.1566  0.5999  0.9634
  325MOL0     N42785   9.152   7.887   3.865  0.5384  0.0511  0.4863
  325MOL0     C42786   9.215   7.760   3.879  1.4497 -0.3298 -0.8533
  325MOL0     C42787   9.180   7.709   3.757 -0.7721 -0.6163 -0.6225
  325MOL0     C42788   9.194   7.571   3.707 -0.4555 -0.3283 -0.0794
  325MOL0     C42789   9.341   7.519   3.726  0.6031  0.4090 -1.0647
  325MOL0     C42790   9.456   7.591   3.655  0.3476  0.0106 -0.5572
  325MOL0     C42791   9.598   7.568   3.708 -0.5969 -0.6972  0.2622
  325MOL0     O42792   9.608   7.637   3.832  0.2277  0.2871 -0.1186
  325MOL0     C42793   9.718   7.618   3.912  0.0195  0.6718  1.3635
  325MOL0     C42794   9.821   7.522   3.887 -0.6642  0.6381 -0.3541
  325MOL0     C42795   9.948   7.540   3.957 -0.5137 -0.0834  0.1625
  325MOL0     C42796   9.967   7.644   4.051  0.1032  0.8850  0.9128
  325MOL0     C42797  10.097   7.663   4.116  0.1183  0.3940  0.4444
  325MOL0     O42798  10.181   7.557   4.089  0.0077  0.2531 -0.4077
  325MOL0     C42799  10.312   7.555   4.141  0.5829 -0.6399 -0.1179
  325MOL0     C42800  10.348   7.435   4.205  0.2360 -1.2069  0.0409
  325MOL0     C42801  10.475   7.423   4.250 -0.2713 -1.1444  1.1572
  325MOL0     C42802  10.566   7.524   4.239 -0.1283 -0.5657 -0.5375
  325MOL0     O42803  10.696   7.507   4.284 -0.1118  0.2003 -0.4305
  325MOL0     C42804  10.715   7.457   4.419  0.3827 -0.6783 -0.1618
  325MOL0     C42805  10.651   7.549   4.524  0.1569  0.0643 -0.2276
  325MOL0     C42806  10.645   7.487   4.672 -0.3882 -0.8381  0.0969
  325MOL0     C42807  10.778   7.419   4.715  0.0795  0.4491  0.6281
  325MOL0     C42808  10.768   7.349   4.854 -0.3655 -0.6754 -1.0534
  325MOL0     C42809  10.758   7.458   4.967  0.2786  0.0703  0.2955
  325MOL0     C42810  10.744   7.400   5.110  0.0066 -0.2696 -0.0239
  325MOL0     C42811  10.752   7.512   5.212  0.1344 -0.4475  0.2106
  325MOL0    Cl42812  10.660   7.476   5.361  0.2468  0.1604  0.1905
  325MOL0     C42813  10.530   7.650   4.181 -0.0552 -0.1033  0.1937
  325MOL0     C42814  10.402   7.667   4.132  0.7026 -0.3153  0.3005
  325MOL0     O42815  10.120   7.763   4.186  0.3218 -0.4464  0.2300
  325MOL0     C42816   9.860   7.740   4.062  0.1401 -0.2884 -0.6779
  325MOL0     C42817   9.741   7.718   3.997  0.0233 -0.1945 -0.3176
  325MOL0     N42818   9.100   7.801   3.681 -0.3434 -0.0207 -0.1960
  325MOL0     N42819   9.087   7.903   3.752  0.2157 -0.8259  0.3194
  325MOL0     C42820   9.645   8.390   5.002 -0.1020 -0.1762  0.0290
  325MOL0     C42821   9.736   8.466   5.082  0.0643 -0.0032  0.3400
  325MOL0     C42822  10.126   8.656   5.198  0.2323  0.6997  0.3300
  325MOL0     C42823  10.255   8.608   5.206 -0.8663  0.5445  0.2865
  325MOL0     C42824  10.343   8.690   5.280  0.0659  0.9444 -0.3747
  325MOL0     C42825  10.315   8.831   5.317 -0.2181  0.5424 -0.5379
  325MOL0     O42826  10.407   8.924   5.370 -0.6355  0.3600 -0.3581
  325MOL0     C42827  10.543   8.882   5.381 -1.0235  0.1810  0.1380
  325MOL0     C42828  10.620   9.012   5.413  0.9913  1.2601 -0.3067
  325MOL0     C42829  10.763   8.973   5.433 -0.0600 -0.0858  0.1546
  325MOL0     C42830  10.846   9.104   5.431  1.0353  0.2376  0.2876
  325MOL0     C42831  10.880   9.152   5.292  0.8992  0.4916 -0.7972
  325MOL0     C42832  10.905   9.188   5.175 -0.4361 -0.3338 -0.1750
  325MOL0     C42833  10.189   8.881   5.291 -0.7868 -0.5122  0.0977
  325MOL0     C42834  10.098   8.792   5.230 -0.2146 -0.2148  0.1579
  325MOL0     H42835   9.878   8.645   4.839 -1.2889 -1.5780 -4.6418
  325MOL0     H42836   9.751   8.514   4.705  1.4594  4.2040  1.0513
  325MOL0     H42837   9.636   8.212   4.677 -3.3747 -2.7971 -0.6841
  325MOL0     H42838   9.599   8.385   4.618  0.2235 -0.9212  0.6111
  325MOL0     H42839   9.355   8.297   4.624 -0.2751  0.1269 -0.9715
  325MOL0     H42840   9.430   8.134   4.649  1.2959 -0.8942 -1.1182
  325MOL0     H42841   9.532   8.149   4.436 -4.1904 -2.4221 -1.8593
  325MOL0     H42842   9.511   8.325   4.425 -0.3648  1.0367  3.9871
  325MOL0     H42843   9.257   8.158   4.429  0.6675 -0.6495 -0.1472
  325MOL0     H42844   9.295   8.315   4.359 -1.7494 -0.6544  1.1020
  325MOL0     H42845   9.415   8.059   4.264 -0.4301  0.3182  4.0227
  325MOL0     H42846   9.431   8.211   4.190  4.2105 -0.7793  5.4537
  325MOL0     H42847   9.161   8.180   4.157 -0.2205 -0.0740 -0.3083
  325MOL0     H42848   9.182   8.028   4.233  1.8147 -0.1174  1.9198
  325MOL0     H42849   9.300   8.098   3.963  2.6882 -1.7395 -0.3712
  325MOL0     H42850   9.332   7.957   4.057  2.2108  0.6684 -3.4677
  325MOL0     H42851   9.040   8.044   3.948 -2.1509 -1.4411  0.9446
  325MOL0     H42852   9.063   7.908   4.053  1.2274  1.0678  2.5404
  325MOL0     H42853   9.272   7.719   3.961 -1.5469  0.3075  1.7687
  325MOL0     H42854   9.166   7.560   3.602  0.1983  0.4337 -0.3426
  325MOL0     H42855   9.128   7.511   3.771  2.9614 -2.5928  1.6148
  325MOL0     H42856   9.351   7.415   3.695 -1.0729  0.4938 -2.0360
  325MOL0     H42857   9.361   7.526   3.833  1.1563  3.1073 -1.2665
  325MOL0     H42858   9.455   7.556   3.552  3.4402  0.8592 -0.9533
  325MOL0     H42859   9.418   7.694   3.650 -2.8376 -1.0261  0.0437
  325MOL0     H42860   9.668   7.603   3.631  0.2718 -0.1471  1.2718
  325MOL0     H42861   9.609   7.459   3.710 -0.2309 -0.6793 -0.4488
  325MOL0     H42862   9.811   7.432   3.828  3.6534  0.4899 -1.2124
  325MOL0     H42863  10.024   7.463   3.944  0.2320  0.7874 -0.8127
  325MOL0     H42864  10.280   7.352   4.217 -1.2449  0.1394  1.4523
  325MOL0     H42865  10.505   7.323   4.279 -1.7603 -1.4673  1.6803
  325MOL0     H42866  10.823   7.446   4.432  0.4290  0.2974  0.3985
  325MOL0     H42867  10.668   7.358   4.428  0.5985 -0.9072 -1.4328
  325MOL0     H42868  10.547   7.573   4.499 -0.2008 -0.7846  0.4097
  325MOL0     H42869  10.711   7.641   4.529  2.2795 -1.2771  0.2386
  325MOL0     H42870  10.566   7.414   4.687 -1.2937 -0.0853 -0.8359
  325MOL0     H42871  10.629   7.566   4.746 -0.6431 -0.9909  0.2044
  325MOL0     H42872  10.792   7.333   4.649  3.2559  0.0747  1.6318
  325MOL0     H42873  10.863   7.488   4.714  2.5333 -2.3833  0.6766
  325MOL0     H42874  10.861   7.299   4.882 -0.7001  0.1288  1.8249
  325MOL0     H42875  10.697   7.265   4.854  0.5340 -1.6502  2.6569
  325MOL0     H42876  10.667   7.517   4.955 -0.6482 -1.4914 -0.8639
  325MOL0     H42877  10.847   7.521   4.964 -0.6002  1.3386 -2.8739
  325MOL0     H42878  10.645   7.355   5.123 -1.6046  2.6673 -1.1229
  325MOL0     H42879  10.812   7.316   5.122 -1.5802 -1.4056  1.7275
  325MOL0     H42880  10.722   7.611   5.176 -0.1760 -0.7385 -0.3437
  325MOL0     H42881  10.851   7.518   5.259 -1.0304  1.3133  2.6687
  325MOL0     H42882  10.602   7.728   4.157  0.6193 -1.1339 -1.3573
  325MOL0     H42883  10.364   7.752   4.078 -2.7890  0.2038  3.1590
  325MOL0     H42884   9.873   7.827   4.126  0.5294 -0.3088 -0.7233
  325MOL0     H42885   9.661   7.789   4.017 -0.6307 -0.9888 -0.1072
  325MOL0     H42886   9.568   8.329   5.048 -1.3256  2.1676  1.2897
  325MOL0     H42887   9.723   8.468   5.189 -2.3778  1.1315  0.1008
  325MOL0     H42888  10.291   8.508   5.183 -1.1208  0.3628  0.6819
  325MOL0     H42889  10.435   8.647   5.318 -1.6350  0.3679  3.6557
  325MOL0     H42890  10.579   8.831   5.291 -1.0558 -0.2857  0.3863
  325MOL0     H42891  10.556   8.805   5.458 -1.1122 -1.7356 -1.6620
  325MOL0     H42892  10.592   9.089   5.340  0.0038  0.3043 -0.9570
  325MOL0     H42893  10.583   9.043   5.512  2.1574  0.0950  0.5315
  325MOL0     H42894  10.799   8.911   5.351 -2.6772 -1.0238 -0.4075
  325MOL0     H42895  10.783   8.911   5.521  2.0787 -0.3133 -0.4442
  325MOL0     H42896  10.801   9.186   5.487 -0.4599  0.4036 -1.0934
  325MOL0     H42897  10.937   9.080   5.488  1.3024  1.1917  0.2818
  325MOL0     H42898  10.921   9.198   5.070 -1.1829 -2.3030 -0.5351
  325MOL0     H42899  10.168   8.985   5.315 -0.1847 -0.0161 -1.4031
  325MOL0     H42900   9.996   8.828   5.223 -0.8824 -1.8565  0.8984
  326MOL0     O42901   3.265   9.648   0.896 -0.1341  1.1002 -0.3703
  326MOL0     C42902   3.349   9.735   0.876 -0.4472  0.8720  0.9473
  326MOL0     O42903   3.371   9.848   0.945 -0.5456 -0.3229 -0.4497
  326MOL0     C42904   3.270   9.909   1.015  0.5304 -0.1359 -0.5004
  326MOL0     C42905   3.133   9.897   0.987  0.4586  0.1958 -0.0942
  326MOL0     C42906   3.037   9.972   1.067 -0.5341 -0.1309  1.0163
  326MOL0     C42907   3.077  10.070   1.163 -0.4269  0.1178  0.1294
  326MOL0     O42908   2.993  10.163   1.218  0.0219 -0.3682 -1.1305
  326MOL0     C42909   2.848  10.148   1.189 -0.8673 -0.5924  0.0881
  326MOL0     C42910   2.777  10.262   1.257  0.1562 -0.0918 -0.0317
  326MOL0     C42911   2.757  10.240   1.409 -0.7912  0.2792  0.2167
  326MOL0     C42912   2.696  10.364   1.474 -0.5191  1.0697 -0.0475
  326MOL0     C42913   2.662  10.329   1.615 -1.1610 -0.1688  0.0129
  326MOL0     C42914   2.586  10.448   1.674 -0.3068  0.3287  0.3810
  326MOL0     C42915   2.564  10.435   1.825  0.8715 -0.0623  0.0573
  326MOL0     C42916   2.437  10.509   1.865 -0.2040  0.9067 -0.3672
  326MOL0     N42917   2.441  10.652   1.842  0.3933 -0.1239 -1.3672
  326MOL0     C42918   2.454  10.743   1.936 -0.0187  0.3279 -0.5998
  326MOL0     C42919   2.468  10.864   1.877 -0.9927  0.0366  0.2653
  326MOL0     C42920   2.473  10.993   1.948 -0.1978 -0.5040  0.6977
  326MOL0     C42921   2.326  11.024   1.977 -0.5022 -0.0972  0.5594
  326MOL0     C42922   2.306  11.158   2.053  0.2688 -0.1602  0.4417
  326MOL0     C42923   2.159  11.174   2.097 -0.9983  0.0211  0.0927
  326MOL0     O42924   2.113  11.055   2.163  0.2998  0.0400  0.5761
  326MOL0     C42925   1.979  11.057   2.194 -0.9159  0.7694  0.2723
  326MOL0     C42926   1.883  11.151   2.152 -0.0171 -0.0952 -0.2775
  326MOL0     C42927   1.757  11.148   2.210  0.2539  0.5082 -0.6305
  326MOL0     C42928   1.710  11.041   2.296  0.3965 -0.3951 -0.5217
  326MOL0     C42929   1.576  11.054   2.362  0.1476  0.1837 -0.2313
  326MOL0     O42930   1.483  11.147   2.314  0.4829  0.4304 -0.4717
  326MOL0     C42931   1.371  11.147   2.396  0.7726 -1.0062  0.1317
  326MOL0     C42932   1.366  11.243   2.502  0.5504  1.1309  0.4325
  326MOL0     C42933   1.250  11.247   2.583 -0.4076  0.2167  0.3719
  326MOL0     C42934   1.140  11.170   2.552 -0.1622  0.7401  0.0473
  326MOL0     O42935   1.021  11.197   2.617  0.1023 -0.0759  0.3000
  326MOL0     C42936   0.923  11.091   2.626 -0.3918  0.1413  0.1021
  326MOL0     C42937   0.827  11.128   2.734 -0.2833  0.3910 -0.5878
  326MOL0     C42938   0.892  11.121   2.877  0.8667 -0.4960  0.3233
  326MOL0     C42939   0.804  11.188   2.985 -0.3356  0.5238  0.0756
  326MOL0     C42940   0.862  11.145   3.119  0.1646  0.8118  0.4861
  326MOL0     C42941   0.768  11.171   3.242 -0.1367  0.1218  0.0767
  326MOL0     C42942   0.852  11.144   3.369 -0.2590 -0.6019 -0.0447
  326MOL0     C42943   0.764  11.182   3.491  0.1023  0.5425 -1.2327
  326MOL0    Cl42944   0.853  11.132   3.633 -0.2481 -0.1093  0.3297
  326MOL0     C42945   1.151  11.069   2.454  0.3229 -0.3467  0.0266
  326MOL0     C42946   1.268  11.062   2.372 -0.3679  0.2533 -0.4602
  326MOL0     O42947   1.560  10.972   2.455  0.1647  0.2386  0.0416
  326MOL0     C42948   1.799  10.943   2.327 -0.6381  0.0876 -0.1317
  326MOL0     C42949   1.938  10.950   2.280  0.6908 -0.5701  0.1251
  326MOL0     N42950   2.455  10.837   1.741  0.4647  0.5234 -0.5658
  326MOL0     N42951   2.438  10.712   1.722 -0.0686  0.9817 -0.0542
  326MOL0     C42952   3.211  10.073   1.194  1.0206 -0.7110 -0.4262
  326MOL0     C42953   3.305   9.997   1.124  0.4935 -0.0014  0.6225
  326MOL0     C42954   3.456   9.690   0.787 -0.1369  0.5058 -0.6854
  326MOL0     C42955   3.431   9.594   0.696 -1.6144 -0.0931 -0.2971
  326MOL0     C42956   3.526   9.564   0.608 -0.3583 -0.8357 -0.2138
  326MOL0     C42957   3.658   9.626   0.605  0.1284  0.6646  0.7259
  326MOL0     O42958   3.756   9.566   0.524 -0.1255  0.5325 -0.1292
  326MOL0     C42959   3.884   9.644   0.511  0.0825 -0.0851 -0.3907
  326MOL0     C42960   3.962   9.596   0.388  0.0166  0.3053 -0.5737
  326MOL0     C42961   4.092   9.662   0.371  0.2557  0.3102  0.4520
  326MOL0     C42962   4.130   9.670   0.223  0.6506  0.1465  0.1191
  326MOL0     C42963   4.257   9.736   0.215  0.3325  0.2364  0.4428
  326MOL0     C42964   4.376   9.765   0.208  0.3537  0.4992  0.2568
  326MOL0     C42965   3.686   9.727   0.694  0.0199 -0.3874 -0.2273
  326MOL0     C42966   3.583   9.761   0.784  0.3331 -0.3681 -0.3167
  326MOL0     H42967   3.100   9.817   0.922 -0.1197  0.5576 -0.2506
  326MOL0     H42968   2.929   9.969   1.051 -0.6491  2.7301  0.7194
  326MOL0     H42969   2.813  10.051   1.227 -1.6867 -1.1691 -1.9960
  326MOL0     H42970   2.832  10.171   1.083 -1.4876  1.5335  0.5931
  326MOL0     H42971   2.684  10.266   1.201 -1.4275 -2.8963  2.1549
  326MOL0     H42972   2.833  10.356   1.257 -0.6085  0.3940  1.4362
  326MOL0     H42973   2.854  10.224   1.457 -0.4599  1.6744  0.0529
  326MOL0     H42974   2.696  10.150   1.427  0.2041 -0.3759  0.4155
  326MOL0     H42975   2.769  10.446   1.470 -0.9451  1.4278 -0.5959
  326MOL0     H42976   2.604  10.395   1.424  0.4591  1.0187 -1.9696
  326MOL0     H42977   2.757  10.324   1.669 -0.9193  2.8295  0.0401
  326MOL0     H42978   2.615  10.232   1.630 -2.0887  0.3550  0.5345
  326MOL0     H42979   2.489  10.453   1.625 -0.0921  0.0675 -0.0665
  326MOL0     H42980   2.629  10.548   1.658 -0.7717  0.4665 -0.0284
  326MOL0     H42981   2.555  10.329   1.850 -1.1732  0.5105  2.0613
  326MOL0     H42982   2.651  10.467   1.883  3.4075 -0.8796 -3.0298
  326MOL0     H42983   2.405  10.486   1.968  0.7486  1.2727  0.0228
  326MOL0     H42984   2.359  10.470   1.799 -0.7371  0.5338  0.4574
  326MOL0     H42985   2.454  10.719   2.042  2.1819  0.0266 -0.6215
  326MOL0     H42986   2.515  11.077   1.891 -0.1196 -0.8176  0.2923
  326MOL0     H42987   2.528  10.972   2.039  0.4067 -1.9494  0.0258
  326MOL0     H42988   2.289  10.937   2.032 -2.7656  0.4271 -0.0297
  326MOL0     H42989   2.266  11.029   1.886  1.9326  2.4766 -1.0467
  326MOL0     H42990   2.382  11.166   2.131  1.6374  0.1757 -0.8855
  326MOL0     H42991   2.336  11.233   1.979  2.1249  0.2802  1.5887
  326MOL0     H42992   2.106  11.183   2.002 -1.4090 -1.7404  0.1206
  326MOL0     H42993   2.135  11.262   2.159 -4.7166  0.5215 -1.7689
  326MOL0     H42994   1.913  11.234   2.089 -1.7045  0.0821 -0.9128
  326MOL0     H42995   1.685  11.226   2.190 -0.6787 -0.0206  0.4956
  326MOL0     H42996   1.457  11.293   2.534  1.5402  0.1029 -0.6731
  326MOL0     H42997   1.247  11.324   2.659 -0.8106  1.7732 -1.1304
  326MOL0     H42998   0.967  10.998   2.662 -0.7935 -0.7418 -1.6228
  326MOL0     H42999   0.866  11.072   2.535  1.4892 -1.9020 -0.7407
  326MOL0     H43000   0.737  11.066   2.728 -0.5392  0.8291 -1.5492
  326MOL0     H43001   0.798  11.233   2.721 -0.2376  0.8765  2.5240
  326MOL0     H43002   1.000  11.132   2.886  0.9005 -1.1922  0.8527
  326MOL0     H43003   0.876  11.013   2.892  0.7829 -0.6952 -1.0608
  326MOL0     H43004   0.810  11.298   2.988  3.3981  0.4383  2.3595
  326MOL0     H43005   0.701  11.154   2.972  0.6826 -2.7653 -0.2747
  326MOL0     H43006   0.959  11.195   3.130  2.0544 -1.5402 -3.3227
  326MOL0     H43007   0.886  11.039   3.115  0.7243  0.9198  0.9521
  326MOL0     H43008   0.683  11.102   3.242  0.6597 -1.2456 -4.9739
  326MOL0     H43009   0.741  11.277   3.244  1.3048  0.5029  1.1051
  326MOL0     H43010   0.885  11.040   3.377 -1.3236 -1.1583 -2.2780
  326MOL0     H43011   0.944  11.202   3.371 -0.4179 -0.3268 -0.6577
  326MOL0     H43012   0.667  11.132   3.501 -0.0371  1.2813  5.2621
  326MOL0     H43013   0.759  11.291   3.495 -0.4357  0.5026  2.9705
  326MOL0     H43014   1.065  11.008   2.429  1.5147 -1.1051 -2.4687
  326MOL0     H43015   1.273  10.977   2.305 -1.7994  1.0196 -1.6062
  326MOL0     H43016   1.761  10.851   2.370  0.3218  0.5867  1.9185
  326MOL0     H43017   2.019  10.883   2.310  0.5215 -0.2114  1.4426
  326MOL0     H43018   3.237  10.143   1.273 -3.8448 -0.5954  1.4230
  326MOL0     H43019   3.410  10.008   1.152  0.3974  0.6941  0.7255
  326MOL0     H43020   3.335   9.543   0.694 -1.1258 -1.1135  0.7471
  326MOL0     H43021   3.489   9.502   0.527  0.5724  0.8567 -2.0442
  326MOL0     H43022   3.940   9.625   0.603  3.9928 -1.7930 -2.8770
  326MOL0     H43023   3.856   9.750   0.508 -0.7791 -0.2391  1.3073
  326MOL0     H43024   3.986   9.489   0.396  3.0689  0.9455 -0.3455
  326MOL0     H43025   3.892   9.607   0.305 -1.5084 -2.0398  0.2858
  326MOL0     H43026   4.166   9.597   0.420  1.0758  0.1399 -0.9506
  326MOL0     H43027   4.092   9.764   0.409  0.4702  1.0619 -1.4586
  326MOL0     H43028   4.132   9.578   0.165  0.5036  0.1502  0.1092
  326MOL0     H43029   4.061   9.736   0.170 -1.7002 -1.6566  0.7804
  326MOL0     H43030   4.481   9.786   0.204  0.1871  1.7438  1.5516
  326MOL0     H43031   3.784   9.775   0.697 -0.5475  0.8001 -0.3670
  326MOL0     H43032   3.598   9.841   0.856  0.2402 -1.7451  1.3031
  327MOL0     O43033   7.223   2.613   7.738  0.1391 -0.1624 -0.5553
  327MOL0     C43034   7.226   2.505   7.682  0.4429 -1.0800 -0.6800
  327MOL0     O43035   7.336   2.443   7.634 -0.1971  0.4616 -0.3581
  327MOL0     C43036   7.463   2.486   7.654 -0.4594 -0.3529 -0.6032
  327MOL0     C43037   7.553   2.488   7.545 -0.2739  0.3272  0.6039
  327MOL0     C43038   7.690   2.514   7.558  0.1586 -0.7298 -0.0460
  327MOL0     C43039   7.740   2.550   7.680  0.7371  0.7216 -0.6772
  327MOL0     O43040   7.875   2.581   7.678 -0.4027  0.0351 -0.4856
  327MOL0     C43041   7.950   2.583   7.805  1.0735  0.6438  0.0097
  327MOL0     C43042   8.090   2.628   7.759 -0.4200 -0.4472  0.6330
  327MOL0     C43043   8.140   2.737   7.842 -0.4152  0.0364 -0.3783
  327MOL0     C43044   8.163   2.694   7.991 -0.1495 -0.1572 -0.2862
  327MOL0     C43045   8.234   2.803   8.062 -0.0352  0.1816 -0.4197
  327MOL0     C43046   8.251   2.760   8.213  0.4876  0.3002 -0.0936
  327MOL0     C43047   8.342   2.855   8.291 -0.0614  0.6920  0.0529
  327MOL0     C43048   8.298   2.871   8.434 -0.0638 -0.2152  0.4414
  327MOL0     N43049   8.185   2.962   8.449 -0.4751 -0.5452  0.0135
  327MOL0     C43050   8.200   3.095   8.459  0.4897  0.0803  0.3677
  327MOL0     C43051   8.075   3.138   8.487  1.1234 -0.9167 -0.6871
  327MOL0     C43052   8.035   3.276   8.527 -0.2973  1.5448 -0.0337
  327MOL0     C43053   8.036   3.376   8.412  0.2368 -0.1492 -0.5552
  327MOL0     C43054   8.051   3.510   8.491  0.0069 -0.2681  0.2103
  327MOL0     C43055   8.061   3.622   8.384  0.3873  0.2425  0.4588
  327MOL0     O43056   7.943   3.648   8.308  0.1804  0.3102 -0.2415
  327MOL0     C43057   7.869   3.757   8.343 -0.3626 -0.6075  0.6083
  327MOL0     C43058   7.828   3.782   8.476  0.4843  0.1117 -0.0003
  327MOL0     C43059   7.743   3.898   8.506 -0.0817  0.5235  0.0753
  327MOL0     C43060   7.709   3.983   8.399  0.3267 -0.7455 -0.0374
  327MOL0     C43061   7.618   4.099   8.430 -0.3653  0.3571  0.3319
  327MOL0     O43062   7.558   4.148   8.319  0.2291  0.0617  0.4025
  327MOL0     C43063   7.475   4.260   8.315  0.2612 -0.2168 -1.1972
  327MOL0     C43064   7.436   4.309   8.190 -0.3122  0.1284 -0.3138
  327MOL0     C43065   7.360   4.426   8.179  0.0985 -0.1561  0.8682
  327MOL0     C43066   7.310   4.493   8.287 -0.2358  0.2803 -0.1482
  327MOL0     O43067   7.238   4.606   8.256 -0.1397 -0.2542 -0.6389
  327MOL0     C43068   7.213   4.706   8.357 -1.3066 -0.5901 -0.3946
  327MOL0     C43069   7.138   4.828   8.304  0.5251 -0.5920  0.0035
  327MOL0     C43070   6.990   4.793   8.278  0.9266  0.0799  0.0172
  327MOL0     C43071   6.906   4.911   8.250 -0.2933 -0.9229  0.7567
  327MOL0     C43072   6.759   4.888   8.231  0.7888 -0.5154  0.2314
  327MOL0     C43073   6.733   4.867   8.090 -0.0149 -0.0240  0.4999
  327MOL0     C43074   6.589   4.871   8.059 -0.5192  0.1549  0.0118
  327MOL0     C43075   6.557   4.820   7.917  0.5202  0.1782 -0.2174
  327MOL0    Cl43076   6.378   4.814   7.899 -0.2293  0.1187  0.3493
  327MOL0     C43077   7.336   4.437   8.413  1.2236  0.9824 -0.2219
  327MOL0     C43078   7.426   4.327   8.433  0.3292 -0.3994 -0.2319
  327MOL0     O43079   7.593   4.132   8.545 -0.1481  0.7104  0.2368
  327MOL0     C43080   7.742   3.951   8.266  0.0184 -0.2950 -0.3230
  327MOL0     C43081   7.822   3.842   8.241  0.2976 -0.2408  0.8502
  327MOL0     N43082   7.986   3.033   8.487  0.0520 -0.3900  0.1283
  327MOL0     N43083   8.053   2.930   8.453 -0.3273  0.6136  0.2241
  327MOL0     C43084   7.653   2.558   7.792 -0.7592  0.6014 -0.6139
  327MOL0     C43085   7.517   2.524   7.777 -0.1253 -0.1247 -0.6178
  327MOL0     C43086   7.095   2.452   7.643  0.4392 -0.2816 -0.4050
  327MOL0     C43087   6.970   2.515   7.667  0.4860 -0.1363 -0.6922
  327MOL0     C43088   6.851   2.447   7.622  0.4285 -0.4884  0.2724
  327MOL0     C43089   6.855   2.334   7.540 -0.3957  0.0022 -0.2346
  327MOL0     O43090   6.741   2.295   7.469  0.8441  0.3907  0.1510
  327MOL0     C43091   6.619   2.318   7.535  0.9313 -0.1745 -0.9016
  327MOL0     C43092   6.509   2.224   7.482  0.2560 -0.3977  0.4016
  327MOL0     C43093   6.383   2.223   7.568  0.2587  0.5911  0.0748
  327MOL0     C43094   6.260   2.142   7.522 -0.2059 -0.2819 -0.2733
  327MOL0     C43095   6.191   2.182   7.409  0.4101  0.4376 -0.0331
  327MOL0     C43096   6.130   2.199   7.307  0.0549  0.4083  0.4369
  327MOL0     C43097   6.973   2.263   7.528  0.1413  0.1601 -0.1076
  327MOL0     C43098   7.092   2.328   7.573 -0.0328 -0.4287  0.5329
  327MOL0     H43099   7.513   2.471   7.445 -1.5217  0.4119  1.0634
  327MOL0     H43100   7.766   2.529   7.482 -1.3861  2.0113 -1.2028
  327MOL0     H43101   7.945   2.485   7.854 -4.5863  1.3922  1.6433
  327MOL0     H43102   7.906   2.651   7.878 -1.7100 -2.2102  1.2165
  327MOL0     H43103   8.083   2.661   7.655 -0.2221 -1.6014  0.2361
  327MOL0     H43104   8.153   2.539   7.757  2.4174  1.4216 -1.3522
  327MOL0     H43105   8.071   2.821   7.837 -1.7523 -1.0085 -0.0263
  327MOL0     H43106   8.239   2.761   7.801  0.6631 -0.0826  2.0276
  327MOL0     H43107   8.064   2.679   8.034 -0.2955  0.1666 -0.5031
  327MOL0     H43108   8.219   2.600   7.988  2.5634  1.3592 -0.5467
  327MOL0     H43109   8.172   2.894   8.064 -1.8095 -0.9865  0.3297
  327MOL0     H43110   8.333   2.829   8.023  0.0408  0.9338  0.2263
  327MOL0     H43111   8.294   2.661   8.226 -2.1227 -0.5012  5.1375
  327MOL0     H43112   8.157   2.766   8.269  0.1019 -0.9294 -0.5691
  327MOL0     H43113   8.439   2.806   8.281  0.5436  1.3945  1.9726
  327MOL0     H43114   8.346   2.960   8.261  0.9942  2.0284  4.2199
  327MOL0     H43115   8.377   2.908   8.499 -0.9072  0.9734  0.8067
  327MOL0     H43116   8.272   2.773   8.475 -0.0184 -0.4303 -0.0272
  327MOL0     H43117   8.292   3.150   8.478  0.4975 -0.6801  2.9570
  327MOL0     H43118   8.105   3.294   8.610  1.0748 -0.5357 -0.6816
  327MOL0     H43119   7.937   3.278   8.574 -0.5647  2.3042 -0.5977
  327MOL0     H43120   7.946   3.371   8.350 -1.9443  4.9133  1.6164
  327MOL0     H43121   8.116   3.348   8.343 -0.1231 -2.1220 -0.2064
  327MOL0     H43122   7.969   3.527   8.561 -0.4933 -2.1816  0.1504
  327MOL0     H43123   8.145   3.509   8.546  0.4713 -2.1674 -0.5172
  327MOL0     H43124   8.143   3.599   8.315  0.0742 -2.1426  0.7654
  327MOL0     H43125   8.094   3.709   8.441  1.2017  0.2121  0.0502
  327MOL0     H43126   7.865   3.711   8.550  4.2144  2.2362  0.4486
  327MOL0     H43127   7.728   3.919   8.611 -2.0053  1.0746 -0.2760
  327MOL0     H43128   7.462   4.254   8.100  1.0726  1.5467 -0.8247
  327MOL0     H43129   7.355   4.467   8.079 -2.9878 -0.8014  0.6551
  327MOL0     H43130   7.303   4.736   8.412 -0.5218 -1.6424 -1.0609
  327MOL0     H43131   7.148   4.655   8.429 -1.6813 -0.3653 -0.5722
  327MOL0     H43132   7.184   4.865   8.212  2.8045 -0.3780  1.1591
  327MOL0     H43133   7.136   4.908   8.379 -2.4290  0.0153 -0.5949
  327MOL0     H43134   6.960   4.736   8.366 -2.4132  1.6659  0.0577
  327MOL0     H43135   6.971   4.727   8.193  1.1086  0.7616 -0.5654
  327MOL0     H43136   6.919   4.984   8.330 -1.4930 -0.7544  0.8098
  327MOL0     H43137   6.947   4.962   8.162 -3.4448 -2.2881 -1.7362
  327MOL0     H43138   6.711   4.979   8.268  0.9267 -0.1281 -0.5212
  327MOL0     H43139   6.723   4.808   8.297  0.9895 -0.1881  0.7458
  327MOL0     H43140   6.782   4.772   8.068  2.8679  0.3720  4.2446
  327MOL0     H43141   6.780   4.952   8.039  0.9505 -0.8963 -0.0842
  327MOL0     H43142   6.537   4.805   8.129 -1.9112 -0.0540 -1.1861
  327MOL0     H43143   6.559   4.975   8.080 -1.6989 -0.1760  0.0425
  327MOL0     H43144   6.594   4.718   7.908 -0.8296 -0.5775  1.9561
  327MOL0     H43145   6.606   4.891   7.850  2.9433 -1.1633  0.0341
  327MOL0     H43146   7.292   4.490   8.498  0.0651  1.7014 -1.2299
  327MOL0     H43147   7.433   4.289   8.534  0.7842 -2.1793 -0.9021
  327MOL0     H43148   7.709   4.007   8.179  0.4009  0.4912  0.0251
  327MOL0     H43149   7.851   3.829   8.137  1.0459  2.3659  0.6416
  327MOL0     H43150   7.696   2.583   7.888 -1.1167  1.3709 -0.6476
  327MOL0     H43151   7.449   2.536   7.861  0.1919 -2.0629 -0.0397
  327MOL0     H43152   6.973   2.610   7.718 -0.2874 -0.8209  0.6760
  327MOL0     H43153   6.759   2.503   7.627  1.1069  0.9541 -2.0675
  327MOL0     H43154   6.588   2.422   7.525  0.1292 -0.4214 -1.0745
  327MOL0     H43155   6.623   2.288   7.641 -0.1780  0.5258 -0.6407
  327MOL0     H43156   6.473   2.251   7.382 -0.1241 -4.4322 -0.7400
  327MOL0     H43157   6.553   2.125   7.472 -0.5407 -0.5863 -1.7293
  327MOL0     H43158   6.353   2.328   7.578  1.8140  0.9799  1.2009
  327MOL0     H43159   6.415   2.185   7.665  2.0390 -2.4017 -1.5466
  327MOL0     H43160   6.290   2.038   7.510  4.7247  1.0567 -1.7065
  327MOL0     H43161   6.182   2.145   7.599  0.0378 -2.7865  0.1435
  327MOL0     H43162   6.075   2.226   7.219  1.7023 -0.8281 -1.0379
  327MOL0     H43163   6.976   2.172   7.469 -0.2476  0.1403 -0.0953
  327MOL0     H43164   7.185   2.274   7.559  0.0270 -1.2135  3.4277
  328MOL0     O43165   3.433   1.232   3.894  0.1438  0.5805 -0.9127
  328MOL0     C43166   3.521   1.173   3.957 -1.1976 -0.6243 -0.8437
  328MOL0     O43167   3.499   1.066   4.035  0.8776  0.0499 -0.1841
  328MOL0     C43168   3.363   1.022   4.050 -1.1238 -0.2494  0.0006
  328MOL0     C43169   3.313   1.016   4.182  0.7113  0.6354  0.3563
  328MOL0     C43170   3.187   0.964   4.195 -0.8025 -0.3691 -0.2859
  328MOL0     C43171   3.113   0.914   4.095 -0.5643 -0.0476  0.5699
  328MOL0     O43172   2.989   0.865   4.113  0.3636 -0.1275  0.3436
  328MOL0     C43173   3.003   0.735   4.170 -0.6364  0.7464 -0.3556
  328MOL0     C43174   2.866   0.662   4.170  0.7269 -0.6020  0.2067
  328MOL0     C43175   2.780   0.711   4.290 -0.1323 -0.0323 -0.1126
  328MOL0     C43176   2.647   0.643   4.309  0.1995  0.1429 -0.0656
  328MOL0     C43177   2.577   0.698   4.439  1.2529 -0.4121 -0.8727
  328MOL0     C43178   2.443   0.625   4.461  0.5441  0.6825  0.5265
  328MOL0     C43179   2.371   0.653   4.591  0.1368  0.8881  0.5825
  328MOL0     C43180   2.348   0.803   4.600  0.6555  0.0998 -0.5820
  328MOL0     N43181   2.260   0.826   4.713 -0.3076  0.2161  0.1916
  328MOL0     C43182   2.257   0.769   4.836  0.1820 -0.4206 -0.2029
  328MOL0     C43183   2.150   0.822   4.896  0.3104 -0.2181  0.2776
  328MOL0     C43184   2.089   0.795   5.033 -0.8903  0.0930  0.7984
  328MOL0     C43185   2.161   0.865   5.149 -0.2800 -0.3291 -0.7737
  328MOL0     C43186   2.153   1.023   5.143 -0.5655 -0.2262  1.0101
  328MOL0     C43187   2.010   1.077   5.121 -0.0804  0.6149 -0.7058
  328MOL0     O43188   1.922   1.007   5.215  0.0918  0.0565  0.1505
  328MOL0     C43189   1.811   1.070   5.262  0.7978 -0.3641  0.1082
  328MOL0     C43190   1.750   1.185   5.206 -0.0125  0.4863 -0.5944
  328MOL0     C43191   1.635   1.240   5.259 -0.5368 -0.9022 -0.0914
  328MOL0     C43192   1.565   1.179   5.367  0.9203  0.5811 -0.5911
  328MOL0     C43193   1.441   1.244   5.414  0.9557 -0.1435 -0.3099
  328MOL0     O43194   1.355   1.289   5.316  0.0165 -0.0762  0.4829
  328MOL0     C43195   1.222   1.314   5.334  0.0837 -0.2250  0.4819
  328MOL0     C43196   1.152   1.319   5.453  0.5785 -0.6798  0.8775
  328MOL0     C43197   1.013   1.354   5.456 -0.2436 -0.5865  0.2180
  328MOL0     C43198   0.946   1.389   5.334 -0.2019 -0.2339 -0.9652
  328MOL0     O43199   0.815   1.440   5.334 -0.2242  0.3330  0.2761
  328MOL0     C43200   0.716   1.419   5.437 -0.7739  0.7550 -0.3410
  328MOL0     C43201   0.668   1.273   5.423 -0.5569  0.0077 -0.1966
  328MOL0     C43202   0.572   1.246   5.542  1.3040  0.7763 -0.7040
  328MOL0     C43203   0.446   1.339   5.536  0.5000 -0.0113  0.1595
  328MOL0     C43204   0.332   1.280   5.605  1.2769 -0.3029  0.6360
  328MOL0     C43205   0.204   1.378   5.622  0.3210  0.5177  0.1897
  328MOL0     C43206   0.111   1.319   5.730 -0.5287 -0.0369 -0.2536
  328MOL0     C43207  -0.004   1.411   5.761  0.5371  0.9645 -0.1494
  328MOL0    Cl43208  -0.137   1.354   5.863  0.4428  0.2466  0.1409
  328MOL0     C43209   1.016   1.395   5.219  0.3874 -0.1250  0.0843
  328MOL0     C43210   1.151   1.354   5.219 -0.4545  0.2105 -0.3992
  328MOL0     O43211   1.412   1.240   5.535 -0.5924 -0.4192 -0.4530
  328MOL0     C43212   1.627   1.068   5.427 -0.7450  0.1436 -0.6761
  328MOL0     C43213   1.748   1.016   5.379  0.3397  0.4381 -0.5305
  328MOL0     N43214   2.100   0.915   4.810  0.2878 -0.7536  0.6493
  328MOL0     N43215   2.174   0.921   4.705 -0.1352  0.5741 -0.6540
  328MOL0     C43216   3.168   0.924   3.968 -0.2861 -0.5027  0.2200
  328MOL0     C43217   3.293   0.967   3.941 -0.0044  0.0087 -0.2148
  328MOL0     C43218   3.662   1.222   3.948 -0.5098 -0.5021  0.3504
  328MOL0     C43219   3.777   1.142   3.980  0.0652 -0.5368 -0.1678
  328MOL0     C43220   3.904   1.197   3.964  0.5932  0.1456  0.1672
  328MOL0     C43221   3.926   1.329   3.909  0.2436 -0.8788  0.1316
  328MOL0     O43222   4.052   1.388   3.909 -0.2640  0.1175 -0.3257
  328MOL0     C43223   4.166   1.315   3.963 -0.3915 -0.2011 -0.2365
  328MOL0     C43224   4.294   1.391   3.923  0.4157 -0.0550 -0.0398
  328MOL0     C43225   4.319   1.407   3.769 -0.6028  1.0221 -0.5526
  328MOL0     C43226   4.470   1.390   3.738 -0.3647  0.0378 -0.0682
  328MOL0     C43227   4.506   1.243   3.730 -0.1308 -0.5300 -0.1010
  328MOL0     C43228   4.529   1.129   3.737 -0.5677  0.5722  0.4158
  328MOL0     C43229   3.815   1.406   3.880  0.6797  0.5175 -0.1187
  328MOL0     C43230   3.686   1.348   3.905  0.3866 -0.4306 -0.5795
  328MOL0     H43231   3.382   1.063   4.250  0.0399  1.1198  0.7141
  328MOL0     H43232   3.131   0.968   4.288 -1.0160 -1.1292 -0.3720
  328MOL0     H43233   3.045   0.723   4.270 -0.2453 -0.5301 -0.6460
  328MOL0     H43234   3.070   0.674   4.109 -0.1482 -0.9706  1.7993
  328MOL0     H43235   2.880   0.553   4.168 -0.4371 -0.7828 -2.0260
  328MOL0     H43236   2.813   0.694   4.079 -0.2906  3.4232  1.9839
  328MOL0     H43237   2.769   0.819   4.292 -0.2478 -0.0021 -1.3674
  328MOL0     H43238   2.844   0.691   4.377  0.6605 -0.6516 -0.8230
  328MOL0     H43239   2.577   0.651   4.225 -0.3570 -0.3049  0.3534
  328MOL0     H43240   2.666   0.536   4.323  2.5815  0.7612  2.1407
  328MOL0     H43241   2.556   0.805   4.431 -0.8570 -0.7555 -0.6954
  328MOL0     H43242   2.642   0.689   4.526  1.5691  2.5987 -0.7023
  328MOL0     H43243   2.454   0.517   4.473  0.5496  0.6666  0.3808
  328MOL0     H43244   2.380   0.639   4.372 -1.2879  0.5854  1.7627
  328MOL0     H43245   2.281   0.590   4.584 -1.0974  2.6846 -0.6417
  328MOL0     H43246   2.443   0.626   4.668  1.6742  2.7817 -0.1058
  328MOL0     H43247   2.289   0.835   4.514  0.2171  1.1007  0.0729
  328MOL0     H43248   2.432   0.873   4.609 -0.1449  1.0106  0.1539
  328MOL0     H43249   2.327   0.699   4.881  0.7392 -0.8989 -1.7658
  328MOL0     H43250   2.097   0.687   5.053  0.4876 -0.2997 -1.4938
  328MOL0     H43251   1.979   0.797   5.038 -1.1309 -3.9016  1.0276
  328MOL0     H43252   2.264   0.831   5.145  0.1205  0.8916 -3.7707
  328MOL0     H43253   2.118   0.839   5.246 -0.7998  2.1463 -0.2854
  328MOL0     H43254   2.192   1.055   5.240  0.6058 -2.0225  1.1756
  328MOL0     H43255   2.213   1.066   5.062 -0.8975 -1.8680 -0.1410
  328MOL0     H43256   1.965   1.054   5.024 -3.3944  0.2855  0.7461
  328MOL0     H43257   2.011   1.185   5.135 -1.5083  0.7090 -1.1471
  328MOL0     H43258   1.788   1.231   5.115 -0.2843  0.9296 -0.4883
  328MOL0     H43259   1.593   1.325   5.206 -1.5883 -1.1319  0.3517
  328MOL0     H43260   1.197   1.289   5.547  0.6490  0.4024  1.1998
  328MOL0     H43261   0.965   1.344   5.553  0.3157 -0.3129  0.5304
  328MOL0     H43262   0.635   1.490   5.417 -0.2098  1.7568  0.8084
  328MOL0     H43263   0.760   1.458   5.529 -0.5225  2.7509 -1.2436
  328MOL0     H43264   0.750   1.201   5.420 -2.1606 -1.8942 -0.6644
  328MOL0     H43265   0.622   1.270   5.323  0.2090  0.3900 -0.5634
  328MOL0     H43266   0.615   1.255   5.642  0.0836  3.4325 -0.3232
  328MOL0     H43267   0.538   1.142   5.539  0.8873  0.4420  4.6540
  328MOL0     H43268   0.476   1.433   5.583  0.8097 -0.0016 -0.0537
  328MOL0     H43269   0.423   1.352   5.430  0.9741 -0.5956 -0.0208
  328MOL0     H43270   0.363   1.250   5.706  0.9394  1.3828  1.2599
  328MOL0     H43271   0.296   1.197   5.543  0.8252  1.7596 -2.0892
  328MOL0     H43272   0.143   1.368   5.531  1.0852 -2.0814 -0.1357
  328MOL0     H43273   0.254   1.473   5.640  1.7281 -0.4530  1.6689
  328MOL0     H43274   0.071   1.225   5.690 -0.7440  0.3469 -0.9617
  328MOL0     H43275   0.175   1.299   5.817  1.5691 -1.1677 -1.9513
  328MOL0     H43276  -0.062   1.425   5.669 -1.4663 -2.3735  0.4311
  328MOL0     H43277   0.040   1.505   5.795  1.6880  0.7591 -1.0064
  328MOL0     H43278   0.959   1.428   5.133 -1.7835 -3.1102  0.2276
  328MOL0     H43279   1.206   1.355   5.126  0.1297  1.9556 -0.0799
  328MOL0     H43280   1.580   1.018   5.511 -2.0991 -1.5199 -2.3176
  328MOL0     H43281   1.798   0.931   5.423 -1.2642 -2.0551 -3.1979
  328MOL0     H43282   3.104   0.897   3.884 -0.1737 -0.2586  0.0540
  328MOL0     H43283   3.322   0.966   3.836 -2.1875 -1.3206 -0.8783
  328MOL0     H43284   3.769   1.042   4.021  2.2902 -0.2450  1.1255
  328MOL0     H43285   3.983   1.127   3.991  1.8455  0.7937 -1.6202
  328MOL0     H43286   4.173   1.212   3.928  2.2611 -0.4370  0.8227
  328MOL0     H43287   4.149   1.311   4.071 -2.3808 -2.0310 -0.5525
  328MOL0     H43288   4.293   1.487   3.975  1.8672 -0.2455  0.4160
  328MOL0     H43289   4.382   1.337   3.962  0.2963  0.4369  0.9651
  328MOL0     H43290   4.288   1.508   3.742  0.1281  2.1378  2.4497
  328MOL0     H43291   4.256   1.338   3.712  1.4379 -1.6517  0.1727
  328MOL0     H43292   4.481   1.423   3.634 -3.5515  3.7044  0.5496
  328MOL0     H43293   4.531   1.447   3.807 -0.3648  2.8803 -2.2436
  328MOL0     H43294   4.566   1.031   3.759  1.9602  0.8739 -2.0001
  328MOL0     H43295   3.816   1.503   3.831 -0.7756  0.1277 -1.0137
  328MOL0     H43296   3.607   1.417   3.877  1.9678  1.0263 -1.7403
  329MOL0     O43297   1.660   8.299   2.509  0.2343  0.1090 -0.6395
  329MOL0     C43298   1.652   8.339   2.394 -0.6915 -0.1785 -0.2165
  329MOL0     O43299   1.571   8.296   2.301  0.6285 -0.7249 -0.3498
  329MOL0     C43300   1.499   8.180   2.311  0.6376 -0.4174 -0.2210
  329MOL0     C43301   1.523   8.066   2.391  0.3753 -0.2493  0.0884
  329MOL0     C43302   1.422   7.972   2.403  0.5748 -0.1976  0.2728
  329MOL0     C43303   1.300   7.983   2.339 -0.2781 -0.5259  0.0089
  329MOL0     O43304   1.208   7.888   2.369 -0.8632 -0.0990 -0.1812
  329MOL0     C43305   1.091   7.882   2.287 -0.1625 -0.7946 -0.1364
  329MOL0     C43306   1.010   7.749   2.311  0.3916 -0.3023  0.4666
  329MOL0     C43307   0.913   7.721   2.195 -0.3208  0.6911 -0.4914
  329MOL0     C43308   0.784   7.811   2.206 -0.7560 -0.0491  0.0929
  329MOL0     C43309   0.681   7.796   2.083 -0.3325  0.1730  0.1796
  329MOL0     C43310   0.553   7.871   2.103  0.2747  0.2473  0.4510
  329MOL0     C43311   0.441   7.826   2.009 -0.7093 -0.0671 -0.4346
  329MOL0     C43312   0.435   7.897   1.869  0.1934  0.6496  0.1892
  329MOL0     N43313   0.326   7.824   1.806  0.1392 -1.2166  0.4011
  329MOL0     C43314   0.193   7.856   1.813 -0.1679 -0.5794 -0.3138
  329MOL0     C43315   0.130   7.744   1.779 -0.0468  0.5755  0.2429
  329MOL0     C43316  -0.018   7.742   1.777 -0.0902 -0.0956  0.2598
  329MOL0     C43317  -0.069   7.595   1.800 -0.4475  0.4733 -1.2625
  329MOL0     C43318  -0.223   7.582   1.798  0.6790 -0.5555  0.0316
  329MOL0     C43319  -0.269   7.436   1.800  0.2791  0.2401 -0.1380
  329MOL0     O43320  -0.407   7.429   1.766  0.3286 -0.2279 -0.4522
  329MOL0     C43321  -0.490   7.342   1.839 -0.0210 -0.2968 -0.3652
  329MOL0     C43322  -0.455   7.247   1.934 -0.2198  0.3371 -0.5922
  329MOL0     C43323  -0.552   7.161   1.992 -0.0229  0.1079 -0.3932
  329MOL0     C43324  -0.691   7.180   1.964 -0.1981  0.0234 -0.0877
  329MOL0     C43325  -0.798   7.082   2.001  0.0696 -0.3836 -0.0738
  329MOL0     O43326  -0.763   6.950   2.030  0.1690 -0.5471 -0.4067
  329MOL0     C43327  -0.863   6.859   2.071  0.2820  0.9210 -0.3895
  329MOL0     C43328  -0.972   6.821   1.990 -0.0392 -0.0214  0.6062
  329MOL0     C43329  -1.053   6.722   2.026 -0.0601 -0.2108  0.1301
  329MOL0     C43330  -1.037   6.655   2.150  0.7011 -0.6723 -0.2560
  329MOL0     O43331  -1.116   6.544   2.174 -0.5116  0.5096  0.6792
  329MOL0     C43332  -1.162   6.527   2.309  0.0300 -0.1512  0.4792
  329MOL0     C43333  -1.314   6.537   2.318 -0.9117 -0.3601 -0.0020
  329MOL0     C43334  -1.374   6.423   2.238  0.5119 -0.6180 -0.3942
  329MOL0     C43335  -1.516   6.382   2.281  0.4019 -0.5690  0.0547
  329MOL0     C43336  -1.571   6.287   2.173 -0.9383 -0.7095 -0.1923
  329MOL0     C43337  -1.719   6.272   2.179 -0.0363 -0.0763 -0.6737
  329MOL0     C43338  -1.762   6.206   2.312  0.0318 -0.6968  0.8915
  329MOL0     C43339  -1.913   6.162   2.289 -0.9361  0.0199  0.4006
  329MOL0    Cl43340  -2.025   6.297   2.232 -0.4337 -0.2958 -0.4332
  329MOL0     C43341  -0.932   6.689   2.239 -0.9091 -0.2705  0.2598
  329MOL0     C43342  -0.849   6.794   2.200  0.2323 -0.1621  0.5878
  329MOL0     O43343  -0.913   7.130   2.018 -1.0284  0.3149  0.1444
  329MOL0     C43344  -0.719   7.282   1.878 -0.1660  0.2006  0.2140
  329MOL0     C43345  -0.621   7.364   1.815  0.4647  0.2568 -0.5544
  329MOL0     N43346   0.226   7.646   1.747 -0.7354  0.5105 -0.1433
  329MOL0     N43347   0.342   7.699   1.759  0.7103 -0.6219 -0.2773
  329MOL0     C43348   1.277   8.093   2.260  0.3612 -0.3629 -0.6625
  329MOL0     C43349   1.378   8.188   2.243 -0.5880  0.1360  0.4399
  329MOL0     C43350   1.738   8.451   2.355  1.4385 -0.0938  0.5742
  329MOL0     C43351   1.789   8.537   2.449  0.1754 -0.6257 -0.2326
  329MOL0     C43352   1.860   8.652   2.414  0.2297 -0.0613  0.3017
  329MOL0     C43353   1.871   8.688   2.281  0.0893 -0.3046 -0.0295
  329MOL0     O43354   1.929   8.818   2.259  1.1529 -0.0440 -0.3537
  329MOL0     C43355   1.931   8.875   2.129  0.2045  0.4600 -1.0197
  329MOL0     C43356   2.045   8.806   2.048  0.6223  0.4443 -0.4196
  329MOL0     C43357   2.176   8.789   2.117  0.1056 -0.2621 -0.1473
  329MOL0     C43358   2.276   8.733   2.015  1.2717 -0.2030 -0.6058
  329MOL0     C43359   2.405   8.782   2.053 -0.6074 -0.4225  0.3505
  329MOL0     C43360   2.508   8.820   2.099  0.5760 -0.2927 -0.2870
  329MOL0     C43361   1.812   8.608   2.184 -0.5693  0.7262  0.1616
  329MOL0     C43362   1.744   8.489   2.219 -0.3768 -0.0788 -0.1707
  329MOL0     H43363   1.612   8.056   2.452  0.1906 -2.5009  0.0754
  329MOL0     H43364   1.431   7.894   2.479  1.3316 -3.1793 -2.6605
  329MOL0     H43365   1.120   7.882   2.181 -2.8890 -1.5927 -0.9796
  329MOL0     H43366   1.023   7.967   2.301  2.5402  1.5765 -0.4973
  329MOL0     H43367   0.948   7.752   2.401 -1.9414  0.6402 -1.0630
  329MOL0     H43368   1.084   7.669   2.315 -0.0963 -1.0130 -2.1920
  329MOL0     H43369   0.884   7.616   2.192  0.1365  0.5587 -0.4332
  329MOL0     H43370   0.971   7.745   2.106  2.4825  0.9746  1.2915
  329MOL0     H43371   0.718   7.774   2.285 -1.8256 -1.4947 -1.3823
  329MOL0     H43372   0.814   7.915   2.218  1.0773 -0.7660  2.5875
  329MOL0     H43373   0.664   7.689   2.067  0.2405  0.1795 -0.5578
  329MOL0     H43374   0.729   7.832   1.991  0.3865  0.6693  0.7387
  329MOL0     H43375   0.572   7.978   2.085  0.5524 -0.0889 -1.5322
  329MOL0     H43376   0.517   7.866   2.206  1.2531  1.3637  0.8725
  329MOL0     H43377   0.439   7.717   1.996 -2.6733  0.0923 -1.9764
  329MOL0     H43378   0.354   7.858   2.068 -0.4786  0.7609 -0.5408
  329MOL0     H43379   0.531   7.875   1.822 -0.1159  0.2022 -0.2507
  329MOL0     H43380   0.414   8.004   1.878 -1.0958  0.8967 -3.7155
  329MOL0     H43381   0.154   7.952   1.845  0.9262 -0.4811  0.7931
  329MOL0     H43382  -0.062   7.787   1.688 -0.2057 -0.8840 -0.0936
  329MOL0     H43383  -0.060   7.811   1.850  0.9695  2.3808 -1.3552
  329MOL0     H43384  -0.027   7.555   1.893 -1.5781 -0.7999 -1.2712
  329MOL0     H43385  -0.027   7.538   1.716  2.7637  2.0915 -0.9320
  329MOL0     H43386  -0.270   7.641   1.877  0.9242 -0.4657  0.1099
  329MOL0     H43387  -0.251   7.619   1.699  0.2469  1.6795  0.9381
  329MOL0     H43388  -0.241   7.381   1.891  0.7755 -2.2133 -1.6814
  329MOL0     H43389  -0.210   7.380   1.726  0.6835  1.2503 -0.5871
  329MOL0     H43390  -0.353   7.220   1.960 -1.0398 -2.4711  0.0639
  329MOL0     H43391  -0.519   7.080   2.056 -2.2349 -0.4350  0.1574
  329MOL0     H43392  -0.987   6.888   1.905 -1.4436 -1.4981 -0.3689
  329MOL0     H43393  -1.134   6.690   1.961 -0.6172  1.1851  0.1184
  329MOL0     H43394  -1.128   6.602   2.380  1.1280 -1.2600  1.1600
  329MOL0     H43395  -1.123   6.429   2.339 -1.7509 -1.9213 -2.4562
  329MOL0     H43396  -1.353   6.633   2.282 -1.0786 -0.2570  0.4370
  329MOL0     H43397  -1.331   6.523   2.425 -0.6319 -1.7456 -0.1181
  329MOL0     H43398  -1.319   6.328   2.235 -0.6849 -1.4372  1.4834
  329MOL0     H43399  -1.377   6.460   2.135 -1.0710  3.8091  1.0092
  329MOL0     H43400  -1.518   6.329   2.377 -0.6703  2.9111  2.1327
  329MOL0     H43401  -1.576   6.473   2.284  2.3606  1.0034 -2.9762
  329MOL0     H43402  -1.524   6.188   2.169  0.3488 -0.1065 -0.7125
  329MOL0     H43403  -1.550   6.328   2.073  2.3470 -1.7673 -0.0555
  329MOL0     H43404  -1.760   6.214   2.097 -0.5578 -0.8475  0.1149
  329MOL0     H43405  -1.764   6.372   2.173 -1.0179 -0.4658 -0.0598
  329MOL0     H43406  -1.707   6.116   2.338 -0.3912 -1.7737 -1.6610
  329MOL0     H43407  -1.757   6.294   2.377 -3.4128 -0.3639  0.8941
  329MOL0     H43408  -1.957   6.121   2.380  0.6691  0.0826  1.2538
  329MOL0     H43409  -1.919   6.085   2.212 -2.0506 -0.6392  1.1189
  329MOL0     H43410  -0.923   6.630   2.329  0.0563  2.7128  2.2826
  329MOL0     H43411  -0.766   6.817   2.266  1.8321 -1.3011 -0.9129
  329MOL0     H43412  -0.822   7.307   1.853 -0.0452 -0.0528 -0.5433
  329MOL0     H43413  -0.647   7.441   1.743  0.4422  0.3781 -0.4182
  329MOL0     H43414   1.183   8.100   2.208  1.3729  2.3289 -2.3251
  329MOL0     H43415   1.367   8.285   2.195  0.4308  0.8351  1.5814
  329MOL0     H43416   1.782   8.526   2.557 -1.7915  0.3138 -0.2165
  329MOL0     H43417   1.904   8.721   2.485 -1.0546 -0.2976  1.3615
  329MOL0     H43418   1.951   8.980   2.149 -3.8459  1.6631 -2.1775
  329MOL0     H43419   1.835   8.864   2.077 -1.8124  0.3842  2.4117
  329MOL0     H43420   2.011   8.711   2.006  1.4258 -0.3985  0.7651
  329MOL0     H43421   2.072   8.874   1.967  1.1980 -0.4152 -0.9596
  329MOL0     H43422   2.167   8.721   2.202  1.4918 -1.9541 -1.2762
  329MOL0     H43423   2.217   8.886   2.144  0.2897 -0.2900 -0.3169
  329MOL0     H43424   2.281   8.624   2.027 -0.3362 -0.2059  0.4232
  329MOL0     H43425   2.255   8.749   1.909 -0.6593  0.7322 -0.1321
  329MOL0     H43426   2.604   8.858   2.127 -0.3005  2.6280 -0.9218
  329MOL0     H43427   1.822   8.631   2.079  2.2680 -1.0603 -0.0618
  329MOL0     H43428   1.706   8.420   2.145 -0.7834 -3.5401  2.9453
  330MOL0     O43429   1.994   3.157  11.213 -0.4164  0.6677 -1.3060
  330MOL0     C43430   2.027   3.144  11.329  0.0403 -0.2977 -0.3330
  330MOL0     O43431   1.946   3.102  11.429 -0.7986  0.1260 -0.4778
  330MOL0     C43432   1.826   3.060  11.398  0.9550 -0.5507 -0.0234
  330MOL0     C43433   1.803   2.938  11.332 -0.6222 -0.9532  0.2732
  330MOL0     C43434   1.673   2.894  11.317  0.4105  0.2401  0.1879
  330MOL0     C43435   1.560   2.966  11.354 -1.1002  0.3549  0.0883
  330MOL0     O43436   1.433   2.929  11.363  0.5293 -0.7648 -0.3430
  330MOL0     C43437   1.422   2.789  11.366  0.5582 -0.0106  0.0519
  330MOL0     C43438   1.281   2.729  11.366  0.0354  0.2640  0.6844
  330MOL0     C43439   1.201   2.779  11.482  1.1964 -0.8390 -0.6049
  330MOL0     C43440   1.051   2.755  11.465  0.2815 -0.3717  0.7186
  330MOL0     C43441   0.949   2.746  11.580 -0.2146  0.7561 -0.6228
  330MOL0     C43442   0.960   2.856  11.687 -0.7930  0.3526  0.0499
  330MOL0     C43443   0.851   2.856  11.789 -0.4263 -0.2990 -1.2487
  330MOL0     C43444   0.883   2.766  11.910 -0.2245 -0.0548 -1.1118
  330MOL0     N43445   0.782   2.783  12.022  0.0092 -0.9593  0.5116
  330MOL0     C43446   0.773   2.902  12.092  0.7498  0.3525 -0.7549
  330MOL0     C43447   0.660   2.897  12.158  0.5549  0.5606 -0.8451
  330MOL0     C43448   0.589   3.001  12.235 -0.0636 -0.2580  0.3799
  330MOL0     C43449   0.554   3.126  12.156  0.6582 -0.1866  0.6030
  330MOL0     C43450   0.432   3.118  12.063  0.2739 -0.2398 -0.0101
  330MOL0     C43451   0.397   3.250  11.981  0.3542 -0.1082 -0.5990
  330MOL0     O43452   0.345   3.347  12.078  0.1009  0.6813  0.2299
  330MOL0     C43453   0.225   3.327  12.124 -0.2124  0.7681 -1.1378
  330MOL0     C43454   0.119   3.300  12.046  1.0883  0.3397  0.0537
  330MOL0     C43455  -0.007   3.260  12.100 -0.0868 -0.4057  0.0853
  330MOL0     C43456  -0.027   3.244  12.232 -0.0694  0.8314  0.4581
  330MOL0     C43457  -0.156   3.216  12.290 -0.1028  0.8060 -0.1834
  330MOL0     O43458  -0.257   3.178  12.200 -0.6916 -0.7570 -0.1885
  330MOL0     C43459  -0.385   3.147  12.243 -0.4350 -1.4707 -0.6847
  330MOL0     C43460  -0.429   3.019  12.270  0.5169 -0.0286  0.5704
  330MOL0     C43461  -0.558   2.997  12.324  0.3480 -0.2013 -0.1305
  330MOL0     C43462  -0.631   3.108  12.363 -0.2574 -0.6286  0.1633
  330MOL0     O43463  -0.760   3.101  12.418  0.0157 -0.4313  0.8448
  330MOL0     C43464  -0.773   3.010  12.529  0.0351  0.2308 -0.1728
  330MOL0     C43465  -0.892   3.034  12.614  0.5199 -0.2154  0.6381
  330MOL0     C43466  -1.020   3.008  12.534  0.0065  0.1285 -0.2511
  330MOL0     C43467  -1.140   3.022  12.631 -0.6035  0.0587  0.2011
  330MOL0     C43468  -1.280   3.050  12.564 -0.4947  1.1501  0.0280
  330MOL0     C43469  -1.394   3.065  12.664  0.3949 -0.2868  0.0235
  330MOL0     C43470  -1.405   3.205  12.718 -0.8347  0.4677  0.1335
  330MOL0     C43471  -1.502   3.220  12.823  0.9201 -0.2226 -0.1279
  330MOL0    Cl43472  -1.664   3.165  12.776 -0.1800  0.1683  0.0102
  330MOL0     C43473  -0.586   3.238  12.332 -0.3103 -0.5210  0.3383
  330MOL0     C43474  -0.461   3.258  12.279 -1.0806  0.1182 -0.6274
  330MOL0     O43475  -0.164   3.236  12.416 -0.3319  0.0494 -0.1917
  330MOL0     C43476   0.082   3.264  12.315  0.8134 -0.2320  0.1656
  330MOL0     C43477   0.203   3.308  12.261  0.3362  0.4711  0.3232
  330MOL0     N43478   0.608   2.771  12.135  0.2568  0.3897 -0.2204
  330MOL0     N43479   0.678   2.708  12.053  0.0178 -0.4756 -0.4965
  330MOL0     C43480   1.589   3.090  11.408  0.1989 -0.9993  0.3234
  330MOL0     C43481   1.718   3.144  11.427 -0.4216 -0.5039  0.2943
  330MOL0     C43482   2.156   3.201  11.364 -0.0363 -0.7801  0.3269
  330MOL0     C43483   2.220   3.176  11.490 -0.2304  0.0866  0.1916
  330MOL0     C43484   2.346   3.236  11.526 -0.1790 -0.2908  0.1357
  330MOL0     C43485   2.420   3.306  11.431 -0.3075  0.3904  0.6074
  330MOL0     O43486   2.544   3.353  11.447  0.2441 -0.1367  0.2434
  330MOL0     C43487   2.631   3.303  11.553  0.9420 -0.6358  0.0656
  330MOL0     C43488   2.770   3.361  11.534  0.3341 -0.3483  0.1001
  330MOL0     C43489   2.847   3.312  11.412  0.3222  0.3294  0.2477
  330MOL0     C43490   2.892   3.434  11.324  1.0333 -0.5727 -0.1456
  330MOL0     C43491   2.990   3.376  11.231 -0.1025  0.4894  0.1670
  330MOL0     C43492   3.074   3.324  11.157 -0.7005 -0.3258 -0.1748
  330MOL0     C43493   2.364   3.313  11.301  0.5197 -0.3731 -0.3271
  330MOL0     C43494   2.241   3.259  11.268 -0.0944  0.5199  0.4393
  330MOL0     H43495   1.885   2.880  11.291 -0.1123  1.4318 -2.3866
  330MOL0     H43496   1.673   2.795  11.272 -1.5880 -0.3191  1.3204
  330MOL0     H43497   1.462   2.757  11.462  1.4672  3.0729  0.8043
  330MOL0     H43498   1.475   2.732  11.289  3.6890 -1.7128  3.1985
  330MOL0     H43499   1.288   2.620  11.371 -2.8089 -0.1718 -1.9730
  330MOL0     H43500   1.241   2.743  11.265  1.5918 -1.2365 -0.1961
  330MOL0     H43501   1.218   2.887  11.486 -0.0216 -0.6769  1.0926
  330MOL0     H43502   1.220   2.742  11.583 -4.4057 -2.1890  0.3146
  330MOL0     H43503   1.014   2.836  11.402 -1.7994 -0.0532  2.2706
  330MOL0     H43504   1.037   2.662  11.409 -2.2026  0.1157  0.4557
  330MOL0     H43505   0.955   2.652  11.635 -0.7608  0.5888 -0.8429
  330MOL0     H43506   0.851   2.745  11.531 -1.1967 -0.8925  1.2231
  330MOL0     H43507   0.953   2.942  11.620  1.7656 -0.8883 -1.9772
  330MOL0     H43508   1.055   2.855  11.740 -2.3988 -0.3460  3.1676
  330MOL0     H43509   0.847   2.962  11.819 -1.4161 -1.1122  1.8570
  330MOL0     H43510   0.754   2.830  11.746 -2.1028  1.7897  0.9392
  330MOL0     H43511   0.980   2.785  11.957 -0.7408  2.2327 -0.8555
  330MOL0     H43512   0.876   2.663  11.874 -2.9576 -0.5800  0.5900
  330MOL0     H43513   0.838   2.989  12.099  1.9226 -0.5934  1.5310
  330MOL0     H43514   0.666   3.035  12.305  0.6888 -2.1722  0.5562
  330MOL0     H43515   0.502   2.965  12.290  1.3775  1.3172  3.9963
  330MOL0     H43516   0.641   3.156  12.097 -0.7341  1.8780 -0.5142
  330MOL0     H43517   0.541   3.206  12.229  0.7468  1.9480 -1.5877
  330MOL0     H43518   0.445   3.032  11.997 -1.9914 -0.3521 -0.3822
  330MOL0     H43519   0.349   3.090  12.128  0.1800 -3.1991 -1.2468
  330MOL0     H43520   0.324   3.234  11.901 -0.8829  0.2121  0.4386
  330MOL0     H43521   0.490   3.289  11.939 -0.6770  2.9834 -0.3138
  330MOL0     H43522   0.133   3.309  11.939  1.0761 -0.6474 -0.0359
  330MOL0     H43523  -0.095   3.245  12.037  0.2785  1.5617 -0.9778
  330MOL0     H43524  -0.375   2.930  12.239 -2.2458 -1.9733  1.0415
  330MOL0     H43525  -0.609   2.902  12.318 -1.9404  0.9655  0.0070
  330MOL0     H43526  -0.682   3.021  12.590  0.1281 -0.5235 -0.1691
  330MOL0     H43527  -0.777   2.904  12.501 -0.5674  0.2881 -0.3165
  330MOL0     H43528  -0.893   3.132  12.662  2.1377  0.1566 -0.0214
  330MOL0     H43529  -0.892   2.963  12.697 -1.1659 -1.1681 -0.1395
  330MOL0     H43530  -1.016   2.912  12.483  0.8683  1.0884 -2.0783
  330MOL0     H43531  -1.033   3.093  12.466 -0.3665 -0.3213 -0.7487
  330MOL0     H43532  -1.154   2.930  12.689 -0.8427  1.8276  3.1608
  330MOL0     H43533  -1.115   3.101  12.703  1.7114 -0.7636  0.3876
  330MOL0     H43534  -1.297   2.957  12.509 -1.0044  0.7058  0.9211
  330MOL0     H43535  -1.277   3.138  12.498 -1.5356  0.5590 -0.8378
  330MOL0     H43536  -1.371   3.002  12.750  2.3454  0.3563  0.0195
  330MOL0     H43537  -1.487   3.039  12.613 -0.7738  2.2263  0.6858
  330MOL0     H43538  -1.305   3.227  12.758 -2.1387  0.9292  3.4398
  330MOL0     H43539  -1.414   3.282  12.642  0.7795 -1.7184 -2.4518
  330MOL0     H43540  -1.515   3.324  12.853 -0.8877 -1.5094  4.2671
  330MOL0     H43541  -1.471   3.169  12.914  0.6305  0.9764  0.6639
  330MOL0     H43542  -0.647   3.325  12.355  1.8221  1.6887 -1.7560
  330MOL0     H43543  -0.415   3.355  12.259  3.2042 -1.6539 -0.2998
  330MOL0     H43544   0.074   3.254  12.422  2.1226 -0.1233  0.2793
  330MOL0     H43545   0.284   3.323  12.333 -0.9240 -2.2462  2.4787
  330MOL0     H43546   1.505   3.151  11.439  0.7146 -0.4252  0.6161
  330MOL0     H43547   1.720   3.247  11.462  1.5695 -0.5696  0.4857
  330MOL0     H43548   2.182   3.125  11.577  2.0149 -0.6739  0.7923
  330MOL0     H43549   2.389   3.225  11.625  1.1242  2.5463 -0.0119
  330MOL0     H43550   2.639   3.195  11.543  0.5199 -0.6059 -0.6642
  330MOL0     H43551   2.593   3.330  11.652  2.0361  1.0575  0.0623
  330MOL0     H43552   2.770   3.471  11.536  1.4298 -0.3212 -0.6592
  330MOL0     H43553   2.818   3.323  11.624 -0.4539 -0.3185  0.5464
  330MOL0     H43554   2.788   3.243  11.352 -3.2092  3.6609 -0.5018
  330MOL0     H43555   2.934   3.268  11.463 -1.9417 -1.8175  2.5211
  330MOL0     H43556   2.816   3.483  11.262  2.7275  2.1391 -0.2522
  330MOL0     H43557   2.928   3.516  11.387 -3.2117  0.9934  0.6383
  330MOL0     H43558   3.133   3.268  11.087 -0.0068 -1.5646  1.3610
  330MOL0     H43559   2.427   3.353  11.222 -1.2559 -0.1374 -1.7115
  330MOL0     H43560   2.213   3.272  11.164  0.6857  1.7729  0.3669
  331MOL0     O43561   8.873   7.869   2.700  0.0719 -0.3168 -0.5725
  331MOL0     C43562   8.874   7.877   2.576  0.2343 -0.4319  0.1414
  331MOL0     O43563   8.769   7.934   2.498 -0.8532  0.0383 -0.0352
  331MOL0     C43564   8.659   7.963   2.575  0.9981 -1.2510 -0.0068
  331MOL0     C43565   8.645   8.074   2.656 -0.0571  0.3985 -0.3211
  331MOL0     C43566   8.526   8.110   2.720  0.1514 -0.1007 -0.4080
  331MOL0     C43567   8.411   8.027   2.714 -1.4031 -0.2924 -0.5992
  331MOL0     O43568   8.313   8.073   2.797 -0.2510  0.2771 -0.6958
  331MOL0     C43569   8.198   7.996   2.795  1.0913 -0.3632 -0.5735
  331MOL0     C43570   8.111   8.047   2.913  0.9239  0.5566 -0.4072
  331MOL0     C43571   7.990   7.955   2.943 -0.7545  0.3620  0.3202
  331MOL0     C43572   8.029   7.865   3.065 -0.3563  0.8710 -0.3683
  331MOL0     C43573   7.945   7.740   3.094 -0.1985 -0.4120  0.6145
  331MOL0     C43574   7.842   7.764   3.207 -0.0118 -0.0503  0.7762
  331MOL0     C43575   7.747   7.874   3.156 -0.4102  0.3988  0.1099
  331MOL0     C43576   7.622   7.884   3.249 -0.3071 -0.4214 -0.6431
  331MOL0     N43577   7.511   7.948   3.177  0.5662  0.1596  0.1332
  331MOL0     C43578   7.463   7.913   3.056 -0.3440  0.9467 -0.5244
  331MOL0     C43579   7.366   7.997   3.023  0.0187  0.3675  0.0470
  331MOL0     C43580   7.286   7.994   2.902 -0.2608 -0.6687  0.4806
  331MOL0     C43581   7.136   7.996   2.903  0.5032  0.4413 -0.2850
  331MOL0     C43582   7.069   8.119   2.959 -0.3861  0.0105  0.2708
  331MOL0     C43583   7.049   8.116   3.110  1.1974  0.1034  0.3067
  331MOL0     O43584   6.910   8.094   3.142  0.3463  0.6071  0.0408
  331MOL0     C43585   6.814   8.199   3.144  0.5946 -0.0697  0.2135
  331MOL0     C43586   6.782   8.267   3.261 -0.1315  0.7832  0.2581
  331MOL0     C43587   6.699   8.375   3.259  0.8859 -0.1486 -0.1591
  331MOL0     C43588   6.622   8.414   3.139 -0.2514  1.0740 -0.0827
  331MOL0     C43589   6.510   8.504   3.134 -0.0129  0.4134 -0.4341
  331MOL0     O43590   6.431   8.497   3.033  0.2376  0.4681  0.0016
  331MOL0     C43591   6.311   8.563   3.030  0.6198  0.1090 -0.3730
  331MOL0     C43592   6.303   8.703   3.048 -0.1841  0.1751 -0.8722
  331MOL0     C43593   6.179   8.767   3.049  0.2010 -0.5528  1.3070
  331MOL0     C43594   6.062   8.695   3.025  0.8910  0.8443  0.5776
  331MOL0     O43595   5.947   8.764   3.004  0.4531 -0.0060  0.6180
  331MOL0     C43596   5.824   8.706   3.042  0.1691 -0.3154  0.6576
  331MOL0     C43597   5.808   8.664   3.186  0.2214  0.8169 -0.3285
  331MOL0     C43598   5.670   8.594   3.212  0.1371  0.0062  0.3658
  331MOL0     C43599   5.552   8.694   3.209  0.4115  0.5592 -0.4781
  331MOL0     C43600   5.420   8.620   3.172 -0.5887  0.0395 -0.0125
  331MOL0     C43601   5.314   8.725   3.128 -0.4689 -0.0038 -1.1081
  331MOL0     C43602   5.174   8.656   3.141 -0.4386 -0.7129 -0.2440
  331MOL0     C43603   5.075   8.763   3.070 -0.0569  0.7840 -0.2825
  331MOL0    Cl43604   5.009   8.877   3.184 -0.1423 -0.0382  0.3776
  331MOL0     C43605   6.068   8.556   3.008 -0.0989 -0.1976  0.5699
  331MOL0     C43606   6.190   8.490   3.018 -0.4455  0.3751  0.8644
  331MOL0     O43607   6.494   8.564   3.237  0.2949  0.5709  0.8176
  331MOL0     C43608   6.653   8.333   3.022 -0.3527 -0.4415  0.0035
  331MOL0     C43609   6.744   8.235   3.031 -1.0318 -0.0974  0.5226
  331MOL0     N43610   7.361   8.095   3.122 -0.3366 -0.6909  0.0321
  331MOL0     N43611   7.454   8.071   3.216 -0.1879 -0.6804  0.8685
  331MOL0     C43612   8.429   7.911   2.645  0.3006  0.8780  0.1909
  331MOL0     C43613   8.545   7.880   2.574 -0.2656 -0.5828 -0.1022
  331MOL0     C43614   8.966   7.791   2.506  0.0034 -0.5160 -0.3209
  331MOL0     C43615   9.067   7.726   2.576  0.2076  0.9535  0.7896
  331MOL0     C43616   9.132   7.617   2.517 -0.4848  0.0236  0.2452
  331MOL0     C43617   9.120   7.584   2.383 -0.4978  0.0322  0.8317
  331MOL0     O43618   9.205   7.487   2.330  0.6515  0.1675 -0.9360
  331MOL0     C43619   9.283   7.522   2.221 -0.1545  0.6646  0.0426
  331MOL0     C43620   9.269   7.431   2.100 -0.2938 -0.4177  0.8882
  331MOL0     C43621   9.383   7.446   1.995 -0.1254 -0.0030  0.3068
  331MOL0     C43622   9.523   7.422   2.041  0.2704  0.0842 -0.2164
  331MOL0     C43623   9.548   7.276   2.055  0.6761  0.1004  0.2775
  331MOL0     C43624   9.547   7.153   2.043  0.3246 -0.3092 -0.2863
  331MOL0     C43625   9.027   7.666   2.311 -0.0411  0.3933 -0.0045
  331MOL0     C43626   8.946   7.758   2.371 -0.0303 -0.3873  0.3265
  331MOL0     H43627   8.728   8.144   2.658  0.0703  0.2448  0.7692
  331MOL0     H43628   8.518   8.202   2.776 -0.5139  0.9042 -2.0650
  331MOL0     H43629   8.212   7.889   2.814  0.7443 -0.1342  1.1477
  331MOL0     H43630   8.133   8.001   2.708 -0.3415 -2.7179  0.2542
  331MOL0     H43631   8.079   8.151   2.899 -1.7173 -0.2732 -0.9513
  331MOL0     H43632   8.173   8.059   3.002  2.0574 -2.3068 -0.6957
  331MOL0     H43633   7.967   7.886   2.861 -0.4473  0.7760 -0.1252
  331MOL0     H43634   7.897   8.011   2.958 -0.7460  0.1631  1.1503
  331MOL0     H43635   8.129   7.831   3.038  0.3879  2.1262  0.6858
  331MOL0     H43636   8.055   7.918   3.157  1.5764  1.1536 -1.0170
  331MOL0     H43637   8.010   7.660   3.130 -2.8173 -1.8715  2.4308
  331MOL0     H43638   7.885   7.700   3.011 -0.1785 -0.5780  0.6790
  331MOL0     H43639   7.886   7.815   3.293  0.2011  3.2056 -1.0832
  331MOL0     H43640   7.805   7.671   3.250  3.8677 -2.2051 -0.0623
  331MOL0     H43641   7.797   7.971   3.166  0.6708 -0.3584  3.2051
  331MOL0     H43642   7.729   7.842   3.053  2.8805  1.5968 -0.9579
  331MOL0     H43643   7.655   7.936   3.339  0.8678 -1.2782 -0.5461
  331MOL0     H43644   7.583   7.782   3.261 -0.6324 -0.3752 -1.2709
  331MOL0     H43645   7.503   7.827   3.003  2.0146  0.4680  1.7801
  331MOL0     H43646   7.309   7.899   2.852  3.3287  0.6947 -0.7861
  331MOL0     H43647   7.315   8.071   2.830 -0.4360 -0.4382  0.6562
  331MOL0     H43648   7.097   7.906   2.951 -2.3615  1.5380 -0.3659
  331MOL0     H43649   7.109   7.992   2.797 -4.2747 -0.3787  0.7448
  331MOL0     H43650   7.130   8.208   2.941 -0.8258  0.0680 -1.0773
  331MOL0     H43651   6.969   8.122   2.914 -0.1056 -4.1318 -1.0503
  331MOL0     H43652   7.087   8.208   3.154  0.5940  1.7258 -2.3739
  331MOL0     H43653   7.100   8.029   3.153 -0.8443 -0.8830  0.8838
  331MOL0     H43654   6.838   8.240   3.350  0.8351 -0.7928 -0.7863
  331MOL0     H43655   6.672   8.424   3.352 -2.9565  0.0797 -1.2220
  331MOL0     H43656   6.402   8.743   3.066  0.4270 -1.5035 -0.2971
  331MOL0     H43657   6.166   8.875   3.057 -0.6242 -0.1333 -3.2382
  331MOL0     H43658   5.804   8.620   2.979 -2.9193  1.2183 -0.6711
  331MOL0     H43659   5.751   8.782   3.010  3.1347  1.8473 -1.6789
  331MOL0     H43660   5.832   8.744   3.257 -0.2107 -0.6821  1.5868
  331MOL0     H43661   5.887   8.591   3.206 -1.5616 -0.5888  1.9071
  331MOL0     H43662   5.671   8.549   3.311 -1.4479  1.9894  1.3720
  331MOL0     H43663   5.657   8.520   3.132 -0.7191  1.2667 -0.6990
  331MOL0     H43664   5.539   8.749   3.303  0.5023  0.8521 -0.6366
  331MOL0     H43665   5.576   8.756   3.122  0.4218  0.9176 -0.2242
  331MOL0     H43666   5.383   8.564   3.259 -1.4913  2.0950  0.9811
  331MOL0     H43667   5.433   8.545   3.093 -1.6709 -2.9185  2.4040
  331MOL0     H43668   5.325   8.768   3.028 -2.2579 -0.1639 -1.4173
  331MOL0     H43669   5.328   8.809   3.196  3.9370 -1.7831  0.5233
  331MOL0     H43670   5.186   8.561   3.088 -0.2449  0.6845 -2.8758
  331MOL0     H43671   5.152   8.643   3.247  0.7389 -2.5256 -0.1697
  331MOL0     H43672   4.993   8.708   3.022  1.9309 -1.1987 -1.6206
  331MOL0     H43673   5.130   8.826   2.999  0.8924  0.5490  0.2279
  331MOL0     H43674   5.985   8.493   2.977  0.4492 -0.6931  0.0858
  331MOL0     H43675   6.204   8.383   3.004  0.5778  0.8297 -2.4384
  331MOL0     H43676   6.595   8.352   2.933 -0.8297  1.5787  0.6907
  331MOL0     H43677   6.758   8.189   2.934 -2.9146  2.7314 -1.2448
  331MOL0     H43678   8.343   7.844   2.640  0.6812  0.1627  2.1195
  331MOL0     H43679   8.547   7.792   2.511 -2.2753 -0.8648  0.1763
  331MOL0     H43680   9.078   7.743   2.682 -0.9306 -2.5695  1.5976
  331MOL0     H43681   9.208   7.566   2.576 -0.2918 -0.5861 -0.4945
  331MOL0     H43682   9.386   7.517   2.257 -0.1487  0.1321 -0.0385
  331MOL0     H43683   9.271   7.625   2.187 -0.1867  0.4715 -0.5499
  331MOL0     H43684   9.283   7.325   2.122  3.3315 -0.2363  0.1205
  331MOL0     H43685   9.173   7.449   2.050  0.5975  1.3771 -0.3306
  331MOL0     H43686   9.382   7.548   1.953  0.5189 -0.4013 -0.7311
  331MOL0     H43687   9.374   7.375   1.912 -1.9940 -0.3088  0.7260
  331MOL0     H43688   9.590   7.462   1.964 -0.5468  1.0008 -0.4784
  331MOL0     H43689   9.543   7.480   2.132 -1.9406 -1.3239  1.2566
  331MOL0     H43690   9.529   7.047   2.049 -0.0534 -0.1926  1.0007
  331MOL0     H43691   9.002   7.626   2.213 -1.0706 -0.1862  0.4796
  331MOL0     H43692   8.870   7.806   2.310  1.5375  0.3503 -1.1485
  332MOL0     O43693   0.234   2.104   5.804 -0.2177  0.1048  0.0191
  332MOL0     C43694   0.248   2.171   5.910 -1.1411  0.8704  1.3602
  332MOL0     O43695   0.159   2.184   6.016  0.8873  0.5981 -0.1562
  332MOL0     C43696   0.044   2.110   6.041 -0.1539 -0.1538  0.5815
  332MOL0     C43697  -0.072   2.163   6.096  0.5816 -0.4724 -0.0630
  332MOL0     C43698  -0.192   2.088   6.106  0.1780  0.3191  1.4405
  332MOL0     C43699  -0.190   1.946   6.079  0.0203 -0.6522 -0.2587
  332MOL0     O43700  -0.297   1.873   6.119  0.0067 -0.4184 -0.9829
  332MOL0     C43701  -0.304   1.737   6.059  0.1848  0.6613  0.4800
  332MOL0     C43702  -0.435   1.664   6.098 -0.0401  0.3444 -0.6776
  332MOL0     C43703  -0.445   1.530   6.024 -0.0920 -0.1642 -0.4749
  332MOL0     C43704  -0.577   1.464   6.064 -0.5539 -0.2269 -0.2578
  332MOL0     C43705  -0.591   1.324   5.991 -0.4947 -0.0789  0.2812
  332MOL0     C43706  -0.724   1.260   6.028  0.2115  1.0022  0.0364
  332MOL0     C43707  -0.723   1.201   6.170 -0.2017 -0.0538  0.3816
  332MOL0     C43708  -0.837   1.113   6.199  0.2459 -0.3778 -0.3755
  332MOL0     N43709  -0.823   0.982   6.142  0.5686  0.9334  0.5015
  332MOL0     C43710  -0.861   0.956   6.006  0.0646 -0.7186 -0.9981
  332MOL0     C43711  -0.820   0.836   5.982  0.2523  0.6862  0.2657
  332MOL0     C43712  -0.840   0.760   5.849  0.4596 -0.8900  0.1554
  332MOL0     C43713  -0.989   0.720   5.832 -0.5691  0.2676  0.3709
  332MOL0     C43714  -1.011   0.651   5.701  0.1745  0.5347  0.4844
  332MOL0     C43715  -1.160   0.619   5.682 -0.2040  0.2201  0.3494
  332MOL0     O43716  -1.225   0.742   5.663  0.9985  0.0763  0.1404
  332MOL0     C43717  -1.348   0.729   5.599  0.2563 -0.0840  0.3610
  332MOL0     C43718  -1.417   0.852   5.570 -0.2279 -0.1518 -0.2189
  332MOL0     C43719  -1.540   0.857   5.513  0.1379 -0.6362 -0.0086
  332MOL0     C43720  -1.601   0.740   5.472 -0.0969  0.0325 -0.6311
  332MOL0     C43721  -1.733   0.748   5.399  0.4505 -0.4468  1.0924
  332MOL0     O43722  -1.776   0.870   5.355 -0.1544 -0.0166  0.2820
  332MOL0     C43723  -1.903   0.884   5.314 -0.3879  0.8708 -0.2882
  332MOL0     C43724  -2.000   0.884   5.414 -0.5148 -0.1464 -0.2808
  332MOL0     C43725  -2.135   0.879   5.379 -0.2320 -0.3583 -0.0396
  332MOL0     C43726  -2.179   0.898   5.247 -1.1961  0.0957 -0.1729
  332MOL0     O43727  -2.317   0.905   5.227 -0.0138  0.0686  0.3292
  332MOL0     C43728  -2.366   0.932   5.093 -0.0860  0.1142 -0.1907
  332MOL0     C43729  -2.513   0.936   5.083  0.9770 -1.4854 -0.5420
  332MOL0     C43730  -2.553   0.934   4.934  0.5419  0.5533  0.8603
  332MOL0     C43731  -2.708   0.941   4.911 -0.2992  0.5014  0.5929
  332MOL0     C43732  -2.752   0.866   4.776  0.2497  0.2476  0.3085
  332MOL0     C43733  -2.698   0.942   4.654 -0.1425 -0.2966 -0.2514
  332MOL0     C43734  -2.779   1.064   4.606  0.6176  0.2867 -0.6203
  332MOL0     C43735  -2.723   1.118   4.489 -0.1491  0.2382  0.5801
  332MOL0    Cl43736  -2.824   1.248   4.428  0.0392  0.9849 -0.1180
  332MOL0     C43737  -2.080   0.918   5.147 -1.1563  0.2759  0.3575
  332MOL0     C43738  -1.943   0.911   5.182  0.8675  0.4209 -0.0835
  332MOL0     O43739  -1.802   0.646   5.398 -0.5017 -0.3235 -0.5151
  332MOL0     C43740  -1.541   0.616   5.507  0.3459 -0.2226  0.1752
  332MOL0     C43741  -1.416   0.605   5.572 -0.0316 -0.7999  0.5962
  332MOL0     N43742  -0.771   0.782   6.101  0.5063  0.9249 -1.2874
  332MOL0     N43743  -0.771   0.867   6.195 -0.0997 -0.4616  0.2909
  332MOL0     C43744  -0.067   1.897   6.030  0.0652 -0.3719 -0.7781
  332MOL0     C43745   0.044   1.976   6.010 -0.4801  0.0576  0.4897
  332MOL0     C43746   0.384   2.235   5.922 -0.6583 -0.5711 -1.4843
  332MOL0     C43747   0.489   2.217   5.821  0.2403  0.4980  0.3920
  332MOL0     C43748   0.618   2.280   5.820  0.1551  0.1763  0.0173
  332MOL0     C43749   0.648   2.363   5.921 -0.3168  0.1987 -0.2079
  332MOL0     O43750   0.772   2.426   5.930 -0.4150  0.2556  0.5887
  332MOL0     C43751   0.757   2.561   5.900  0.9333 -0.4566 -0.1810
  332MOL0     C43752   0.787   2.573   5.742  0.0707 -0.8068 -0.2136
  332MOL0     C43753   0.939   2.560   5.715  0.3244  0.4079  0.0272
  332MOL0     C43754   0.969   2.561   5.568 -0.0756 -0.9174  0.6837
  332MOL0     C43755   1.103   2.593   5.547 -0.0212 -0.2292 -0.0048
  332MOL0     C43756   1.223   2.612   5.542 -0.2074 -0.6871 -0.4708
  332MOL0     C43757   0.551   2.394   6.020 -0.2731  0.6289 -0.3091
  332MOL0     C43758   0.430   2.315   6.027  0.0965  0.0181  0.3672
  332MOL0     H43759  -0.073   2.269   6.121 -2.8291  0.3049 -2.7794
  332MOL0     H43760  -0.282   2.133   6.147 -0.5181  0.3855 -0.0925
  332MOL0     H43761  -0.221   1.669   6.085 -0.0647 -0.2285 -0.9422
  332MOL0     H43762  -0.299   1.752   5.951  1.2212  0.7633  0.5321
  332MOL0     H43763  -0.524   1.722   6.068 -1.0999 -0.7815  0.1735
  332MOL0     H43764  -0.447   1.648   6.206 -2.1274  1.5027 -0.6851
  332MOL0     H43765  -0.356   1.469   6.042 -1.1367 -1.2292  1.5176
  332MOL0     H43766  -0.440   1.551   5.917  2.6259 -3.6938 -1.2468
  332MOL0     H43767  -0.578   1.447   6.172 -1.3922 -0.4746 -0.2996
  332MOL0     H43768  -0.668   1.521   6.043 -1.3718 -1.6059 -0.5651
  332MOL0     H43769  -0.509   1.258   6.020 -0.8373 -0.4095  0.5055
  332MOL0     H43770  -0.570   1.334   5.884 -3.3320 -0.7960 -0.4446
  332MOL0     H43771  -0.737   1.189   5.946  1.0476  0.9008 -0.0167
  332MOL0     H43772  -0.808   1.329   6.023 -0.6362 -0.0369 -0.5712
  332MOL0     H43773  -0.632   1.140   6.170 -0.7385 -0.8889  0.7045
  332MOL0     H43774  -0.721   1.282   6.243 -2.8392  1.7702 -1.4071
  332MOL0     H43775  -0.929   1.156   6.158  0.2561  1.8687  1.6991
  332MOL0     H43776  -0.855   1.110   6.307 -0.0410 -0.3267 -0.4214
  332MOL0     H43777  -0.897   1.043   5.951 -1.2711  1.9125  3.5563
  332MOL0     H43778  -0.775   0.673   5.865  1.4664 -0.6639 -2.1930
  332MOL0     H43779  -0.808   0.805   5.755 -0.8246  0.0731  0.1531
  332MOL0     H43780  -1.051   0.810   5.836 -3.2432 -1.5145  2.4115
  332MOL0     H43781  -1.025   0.667   5.921  0.6360  2.2891  2.1642
  332MOL0     H43782  -0.983   0.708   5.612 -0.3954  1.2971  0.7787
  332MOL0     H43783  -0.951   0.559   5.697 -1.0623 -0.2682 -0.6090
  332MOL0     H43784  -1.207   0.563   5.763  1.9905 -0.9073  0.9241
  332MOL0     H43785  -1.173   0.555   5.595 -0.0455  1.8507 -0.9108
  332MOL0     H43786  -1.369   0.945   5.597  0.2356 -0.0367 -1.4250
  332MOL0     H43787  -1.592   0.952   5.503  1.1380  0.0679  1.2383
  332MOL0     H43788  -1.963   0.873   5.515 -2.5914 -4.9090  0.2748
  332MOL0     H43789  -2.217   0.885   5.451  1.4387  0.3922  1.8961
  332MOL0     H43790  -2.341   0.847   5.028  1.4506 -1.1637  1.9356
  332MOL0     H43791  -2.333   1.024   5.043 -0.4898  1.3097  1.6361
  332MOL0     H43792  -2.558   1.022   5.134  1.0944 -1.4730 -0.4608
  332MOL0     H43793  -2.540   0.843   5.134 -0.4581 -1.4167 -1.1086
  332MOL0     H43794  -2.516   0.838   4.898 -1.1557 -0.7207  2.3330
  332MOL0     H43795  -2.510   1.022   4.886 -0.8997  1.2312  0.7574
  332MOL0     H43796  -2.750   0.882   4.993  0.3672 -0.7619  0.0695
  332MOL0     H43797  -2.742   1.044   4.908 -2.8793 -0.2208  1.9997
  332MOL0     H43798  -2.860   0.882   4.774  0.3414  2.0246  3.2077
  332MOL0     H43799  -2.723   0.761   4.770  0.6207  0.4134 -1.2018
  332MOL0     H43800  -2.690   0.868   4.574 -1.3131 -0.8646  0.1380
  332MOL0     H43801  -2.602   0.993   4.668 -0.1078 -0.0855 -1.1801
  332MOL0     H43802  -2.883   1.031   4.592  1.0611 -0.4046 -2.7288
  332MOL0     H43803  -2.779   1.145   4.679  0.6790 -0.2324 -0.0366
  332MOL0     H43804  -2.706   1.040   4.414  1.1523  0.7930  0.2689
  332MOL0     H43805  -2.625   1.162   4.509  0.9496 -1.2438 -1.2550
  332MOL0     H43806  -2.112   0.937   5.045 -0.7318  1.4010  0.4193
  332MOL0     H43807  -1.861   0.930   5.114  1.1824 -1.4435 -0.2776
  332MOL0     H43808  -1.590   0.524   5.474  0.1615 -0.1501  0.2460
  332MOL0     H43809  -1.364   0.512   5.590  0.1564 -0.5165  1.6079
  332MOL0     H43810  -0.046   1.794   6.003 -0.8526 -1.3775  2.0124
  332MOL0     H43811   0.136   1.931   5.972  0.7479  2.1528  0.7962
  332MOL0     H43812   0.453   2.158   5.738 -1.5106  1.4302  0.4402
  332MOL0     H43813   0.694   2.260   5.745 -0.2349  0.2615 -0.4056
  332MOL0     H43814   0.826   2.611   5.969 -0.3343 -1.0822  1.6213
  332MOL0     H43815   0.659   2.605   5.919 -0.9395 -2.5777 -3.9152
  332MOL0     H43816   0.739   2.486   5.696  3.2515 -1.4003 -2.7494
  332MOL0     H43817   0.732   2.658   5.700  1.3843  0.3275  0.2947
  332MOL0     H43818   0.968   2.462   5.754  1.1021  0.4446 -0.4358
  332MOL0     H43819   0.982   2.642   5.774 -5.1850  1.4452  3.4029
  332MOL0     H43820   0.959   2.461   5.525  0.5704 -0.0196 -1.6680
  332MOL0     H43821   0.907   2.628   5.509  0.9962 -3.2439 -3.4782
  332MOL0     H43822   1.327   2.638   5.532  0.0530 -0.7731  1.4695
  332MOL0     H43823   0.584   2.446   6.110  2.2008 -1.0921 -0.1402
  332MOL0     H43824   0.361   2.341   6.107 -0.8208 -1.5267  0.1046
  333MOL0     O43825   5.971   3.723   8.242  0.6579  0.0392  0.9768
  333MOL0     C43826   6.038   3.813   8.289  0.0457 -0.1685 -0.7056
  333MOL0     O43827   5.997   3.915   8.383 -0.1470  0.4805  0.5682
  333MOL0     C43828   5.890   3.895   8.468  0.7973  0.2738 -0.1303
  333MOL0     C43829   5.824   3.775   8.493  0.3709 -1.3704 -0.3062
  333MOL0     C43830   5.716   3.770   8.584  0.6623 -0.3853 -0.2627
  333MOL0     C43831   5.677   3.896   8.655 -0.6014  0.0979 -0.1198
  333MOL0     O43832   5.585   3.917   8.756  0.1132  0.0738 -0.2205
  333MOL0     C43833   5.500   3.813   8.795  0.6240  0.6742  0.7213
  333MOL0     C43834   5.408   3.873   8.893  0.3626 -0.6562  0.8430
  333MOL0     C43835   5.331   3.770   8.977 -0.2800 -0.7389  0.0233
  333MOL0     C43836   5.257   3.667   8.894 -0.2261  0.1607  0.7674
  333MOL0     C43837   5.169   3.585   8.989 -0.5673  0.0815  0.4419
  333MOL0     C43838   5.055   3.661   9.059 -0.0113 -0.2031 -1.1016
  333MOL0     C43839   4.940   3.566   9.107 -0.4307  0.3790 -0.3975
  333MOL0     C43840   4.842   3.656   9.178  0.2094  0.8008 -0.6624
  333MOL0     N43841   4.707   3.593   9.191 -0.0822  0.9300 -0.5518
  333MOL0     C43842   4.631   3.581   9.306 -0.3425  0.8309  0.9275
  333MOL0     C43843   4.513   3.533   9.268  0.2674 -0.3206 -0.3387
  333MOL0     C43844   4.392   3.515   9.362 -0.2207  1.0201 -0.7094
  333MOL0     C43845   4.289   3.403   9.309 -0.7583 -0.3826 -0.5012
  333MOL0     C43846   4.150   3.466   9.341 -0.6265  0.4670 -0.6858
  333MOL0     C43847   4.052   3.405   9.246  0.4988 -0.2312 -1.0262
  333MOL0     O43848   4.020   3.270   9.275 -0.3041  0.0497  0.3778
  333MOL0     C43849   3.898   3.220   9.229 -0.7651 -0.0377 -0.2737
  333MOL0     C43850   3.835   3.255   9.111 -0.2099 -0.0376 -0.3489
  333MOL0     C43851   3.713   3.202   9.075  0.1297  0.1043  0.8962
  333MOL0     C43852   3.646   3.102   9.152 -1.4958 -0.7791 -0.2987
  333MOL0     C43853   3.524   3.037   9.108 -0.1458 -0.2188 -0.3620
  333MOL0     O43854   3.480   2.932   9.180  1.5144 -0.9491  0.8959
  333MOL0     C43855   3.385   2.852   9.113  0.3758  0.7170 -0.6656
  333MOL0     C43856   3.421   2.755   9.018 -1.0922 -0.6014  0.4951
  333MOL0     C43857   3.325   2.667   8.970  0.5859 -0.3599 -0.4819
  333MOL0     C43858   3.197   2.658   9.025 -0.4139 -0.0397 -0.3129
  333MOL0     O43859   3.123   2.555   8.971 -0.6272  0.0480 -0.0121
  333MOL0     C43860   3.026   2.478   9.052 -0.2120  1.0155 -0.2845
  333MOL0     C43861   2.964   2.374   8.950  0.1880 -0.5452  0.4190
  333MOL0     C43862   2.865   2.266   9.014 -0.1111 -0.1029  0.2834
  333MOL0     C43863   2.739   2.327   9.071  0.0014 -0.6156  0.2282
  333MOL0     C43864   2.643   2.219   9.104 -0.1015 -0.8070  0.2140
  333MOL0     C43865   2.559   2.204   8.983  0.7875 -0.7828  0.7095
  333MOL0     C43866   2.442   2.108   9.001  0.1685 -0.2810  0.6945
  333MOL0     C43867   2.345   2.140   9.112  0.4727 -0.4591 -0.0956
  333MOL0    Cl43868   2.178   2.081   9.063 -0.2863  0.3168 -0.5471
  333MOL0     C43869   3.163   2.747   9.125 -0.1300 -0.0124 -0.2452
  333MOL0     C43870   3.256   2.843   9.171 -0.4203  0.7588  0.1338
  333MOL0     O43871   3.481   3.083   9.002  0.4500 -0.4583 -0.8475
  333MOL0     C43872   3.708   3.076   9.277  0.1687 -0.4693 -0.3903
  333MOL0     C43873   3.826   3.140   9.318  0.3188 -1.2439  0.3576
  333MOL0     N43874   4.514   3.523   9.128  0.1755  0.3008 -0.2588
  333MOL0     N43875   4.626   3.560   9.081  0.5567  0.6579 -0.3747
  333MOL0     C43876   5.747   4.014   8.615 -0.4117 -0.2351 -0.6765
  333MOL0     C43877   5.844   4.011   8.516 -0.9425  0.0197 -0.0786
  333MOL0     C43878   6.167   3.826   8.223 -0.0886 -0.7479 -0.9433
  333MOL0     C43879   6.269   3.909   8.282  0.1031  0.3450 -0.5565
  333MOL0     C43880   6.400   3.931   8.238  0.4019  0.3517  0.0008
  333MOL0     C43881   6.430   3.875   8.114 -0.2745  0.2356  0.5100
  333MOL0     O43882   6.546   3.928   8.050 -0.5091  0.1087 -0.0720
  333MOL0     C43883   6.587   3.876   7.916  0.3298  0.1215 -1.1590
  333MOL0     C43884   6.716   3.942   7.875 -0.2396 -0.5144  0.0161
  333MOL0     C43885   6.749   3.900   7.730 -0.1796  0.1249 -1.4687
  333MOL0     C43886   6.877   3.980   7.693 -0.4103 -0.3217  0.4569
  333MOL0     C43887   6.913   3.965   7.551  0.3670  1.3261 -0.6776
  333MOL0     C43888   6.943   3.937   7.438  0.0369  0.2986 -0.0074
  333MOL0     C43889   6.333   3.799   8.045 -0.6839  0.0184  0.3081
  333MOL0     C43890   6.201   3.778   8.094 -0.5831  0.1163 -0.1978
  333MOL0     H43891   5.858   3.684   8.445  1.3727 -0.7246 -0.8665
  333MOL0     H43892   5.659   3.679   8.602  1.9382 -1.4965 -1.6172
  333MOL0     H43893   5.561   3.730   8.831 -1.3813 -2.8041 -3.0639
  333MOL0     H43894   5.444   3.776   8.708  0.9477 -0.1999  0.8751
  333MOL0     H43895   5.335   3.939   8.844 -0.0718  0.2480  2.6386
  333MOL0     H43896   5.461   3.947   8.953  0.6155 -1.3957  1.5425
  333MOL0     H43897   5.257   3.827   9.033 -0.9619 -0.5006 -1.0891
  333MOL0     H43898   5.398   3.712   9.042 -0.5762 -0.8128  0.2670
  333MOL0     H43899   5.197   3.724   8.823 -0.2993  1.2654  1.6868
  333MOL0     H43900   5.329   3.606   8.838 -0.9072 -0.2889  0.3763
  333MOL0     H43901   5.228   3.529   9.063 -0.8702  0.4088  0.9379
  333MOL0     H43902   5.125   3.510   8.923  1.7362 -1.7181  0.7850
  333MOL0     H43903   5.018   3.744   8.998  0.0143 -1.1541 -2.4660
  333MOL0     H43904   5.100   3.705   9.148 -0.8437  1.6586 -1.5438
  333MOL0     H43905   4.898   3.519   9.018 -0.0218 -0.1997 -0.2926
  333MOL0     H43906   4.973   3.487   9.175 -0.4097  0.8918  0.1940
  333MOL0     H43907   4.822   3.751   9.128 -2.9489  0.1522 -0.8447
  333MOL0     H43908   4.878   3.674   9.280  0.6084 -2.4655 -0.0921
  333MOL0     H43909   4.657   3.617   9.405 -0.0993  0.5135  0.9820
  333MOL0     H43910   4.345   3.610   9.387 -2.6949 -0.4230  0.5115
  333MOL0     H43911   4.426   3.476   9.458 -0.6135  2.8991  0.2327
  333MOL0     H43912   4.299   3.313   9.370 -1.4914 -0.5011 -0.5437
  333MOL0     H43913   4.309   3.382   9.203  0.9416  1.7808 -0.6671
  333MOL0     H43914   4.119   3.452   9.445 -1.2477 -2.8928 -1.2046
  333MOL0     H43915   4.156   3.573   9.318  1.3934  0.5743  0.2018
  333MOL0     H43916   4.086   3.403   9.142 -1.9207 -2.3447 -1.8833
  333MOL0     H43917   3.960   3.463   9.260 -0.2663 -1.0688 -2.3844
  333MOL0     H43918   3.880   3.331   9.048  0.5289  0.7947  1.1234
  333MOL0     H43919   3.660   3.231   8.985 -1.5418 -0.1959  1.7445
  333MOL0     H43920   3.518   2.761   8.969 -0.3373 -0.5637  1.9451
  333MOL0     H43921   3.344   2.611   8.879 -0.5347  0.6370 -1.3707
  333MOL0     H43922   2.948   2.542   9.094 -1.0814  0.3696 -0.8770
  333MOL0     H43923   3.081   2.420   9.126  1.5119  0.5152 -1.8690
  333MOL0     H43924   3.052   2.328   8.904  1.1966  1.6645  0.0212
  333MOL0     H43925   2.910   2.415   8.865  1.9600 -0.2678 -0.6082
  333MOL0     H43926   2.930   2.216   9.087  3.1295  1.2935 -1.4411
  333MOL0     H43927   2.847   2.192   8.935  0.0493  0.7756 -0.5902
  333MOL0     H43928   2.757   2.386   9.161  0.7053 -1.0416  0.3721
  333MOL0     H43929   2.690   2.399   9.005 -1.5514 -1.1327  0.7776
  333MOL0     H43930   2.580   2.243   9.191  0.2510 -3.3609  1.2506
  333MOL0     H43931   2.695   2.124   9.109  3.0610  0.5793 -2.5321
  333MOL0     H43932   2.622   2.167   8.902  0.2418 -0.4088  0.1054
  333MOL0     H43933   2.525   2.303   8.949 -1.4088 -1.6955  0.0896
  333MOL0     H43934   2.386   2.114   8.907  1.2981  2.5068  0.0845
  333MOL0     H43935   2.485   2.008   9.010  1.7853  0.2832 -0.3195
  333MOL0     H43936   2.348   2.249   9.119  0.5304 -0.4973  0.5683
  333MOL0     H43937   2.379   2.098   9.207  0.9550  2.1575  0.9704
  333MOL0     H43938   3.061   2.751   9.162  0.1301  1.8894  0.4152
  333MOL0     H43939   3.244   2.914   9.252  2.2934  0.3050  1.0519
  333MOL0     H43940   3.665   3.007   9.349 -2.3155 -0.0817 -1.3959
  333MOL0     H43941   3.871   3.115   9.414  1.9528 -0.3589 -0.1347
  333MOL0     H43942   5.729   4.112   8.659  1.2397 -0.1214 -0.2019
  333MOL0     H43943   5.890   4.106   8.493  3.4530 -1.9356 -0.2183
  333MOL0     H43944   6.247   3.964   8.373  1.4279 -1.2515  0.8176
  333MOL0     H43945   6.481   3.983   8.288  1.4464 -2.7738  1.8393
  333MOL0     H43946   6.511   3.882   7.837 -1.8420 -0.8836  0.7073
  333MOL0     H43947   6.617   3.773   7.936 -0.0404  0.4589  1.5238
  333MOL0     H43948   6.705   4.051   7.881 -2.5120 -0.7348  0.7081
  333MOL0     H43949   6.804   3.912   7.933 -0.1740  0.9684  0.7305
  333MOL0     H43950   6.664   3.933   7.669 -1.1622  0.4415  0.0314
  333MOL0     H43951   6.756   3.792   7.715 -2.9915 -0.2113 -1.0204
  333MOL0     H43952   6.865   4.085   7.721 -4.3451 -0.5785  0.3446
  333MOL0     H43953   6.964   3.951   7.753  0.6488  3.9080  1.3321
  333MOL0     H43954   6.955   3.916   7.333 -2.3732  1.2313 -0.5434
  333MOL0     H43955   6.350   3.765   7.944  0.7309  2.6691 -0.4556
  333MOL0     H43956   6.130   3.715   8.041 -0.4544 -0.0144 -0.2163
  334MOL0     O43957   0.608   9.434   8.521 -0.3174  0.2174 -0.0994
  334MOL0     C43958   0.647   9.448   8.636 -0.2474  0.4580  0.1630
  334MOL0     O43959   0.573   9.450   8.750 -0.0568 -0.2296 -0.0817
  334MOL0     C43960   0.443   9.477   8.745 -0.2483  0.1059  0.4182
  334MOL0     C43961   0.362   9.398   8.825  0.1249  0.3667 -0.7822
  334MOL0     C43962   0.222   9.417   8.848  0.3867 -0.6357  0.3881
  334MOL0     C43963   0.165   9.519   8.764 -0.6236  0.3582  0.6449
  334MOL0     O43964   0.031   9.536   8.771  0.1761  0.6303 -0.5523
  334MOL0     C43965  -0.032   9.626   8.677  0.3650 -0.0948  0.0330
  334MOL0     C43966  -0.178   9.656   8.705  0.3090  0.9134 -0.3175
  334MOL0     C43967  -0.230   9.757   8.592  0.1162  0.3754  0.3668
  334MOL0     C43968  -0.360   9.820   8.638  1.1355  1.3121  0.1922
  334MOL0     C43969  -0.409   9.920   8.533 -0.2566 -0.0100  0.0955
  334MOL0     C43970  -0.564   9.943   8.553 -0.7756 -0.7674  0.1865
  334MOL0     C43971  -0.611  10.045   8.436  0.9418 -0.0267 -0.7359
  334MOL0     C43972  -0.764  10.050   8.416 -0.4146 -0.3996 -0.9356
  334MOL0     N43973  -0.841  10.098   8.530  0.5518  0.3340 -0.0938
  334MOL0     C43974  -0.833  10.224   8.574  0.1603 -0.4999 -0.1608
  334MOL0     C43975  -0.878  10.218   8.703 -0.1689 -0.6170  0.4911
  334MOL0     C43976  -0.864  10.335   8.795  0.7444  0.2382  0.3891
  334MOL0     C43977  -0.725  10.390   8.811 -0.0181 -0.4122  0.3618
  334MOL0     C43978  -0.712  10.492   8.924  0.6212  0.0169  0.1042
  334MOL0     C43979  -0.782  10.627   8.888  0.3326  0.4409  0.0840
  334MOL0     O43980  -0.919  10.610   8.935 -0.0975 -0.1187 -0.0825
  334MOL0     C43981  -0.996  10.727   8.962 -0.6147 -0.3760  0.8302
  334MOL0     C43982  -1.130  10.706   9.006  0.2396  0.0963  0.5546
  334MOL0     C43983  -1.225  10.807   9.002  0.2629 -0.6164 -1.3629
  334MOL0     C43984  -1.186  10.935   8.958  0.0592  1.2378  0.5061
  334MOL0     C43985  -1.284  11.043   8.942 -0.7003 -0.8292 -0.3364
  334MOL0     O43986  -1.398  11.029   9.011  0.0134 -0.7895  0.2942
  334MOL0     C43987  -1.498  11.124   9.001 -0.2232 -0.0414  0.2796
  334MOL0     C43988  -1.494  11.261   9.013  0.5530 -0.1788 -0.2865
  334MOL0     C43989  -1.608  11.337   8.995  0.1415  0.2514 -0.1299
  334MOL0     C43990  -1.737  11.276   8.974 -1.0315 -0.0608 -0.0328
  334MOL0     O43991  -1.845  11.361   8.980  0.8843  0.2071  0.4813
  334MOL0     C43992  -1.886  11.404   8.852  0.6431 -0.3596  0.2456
  334MOL0     C43993  -2.028  11.467   8.874 -0.6041  0.2817  0.0912
  334MOL0     C43994  -2.113  11.490   8.748 -0.3087 -0.4539  0.8057
  334MOL0     C43995  -2.165  11.361   8.684  0.1042  0.3289 -0.4348
  334MOL0     C43996  -2.244  11.395   8.559 -0.8626  0.1616  1.6043
  334MOL0     C43997  -2.332  11.271   8.531 -0.6279  1.3679  0.1750
  334MOL0     C43998  -2.368  11.263   8.380  0.1706  0.1926  0.4902
  334MOL0     C43999  -2.446  11.385   8.335  0.0369  0.6437  0.7189
  334MOL0    Cl44000  -2.628  11.388   8.371 -0.7724  0.5171 -0.0225
  334MOL0     C44001  -1.744  11.145   8.947 -0.2243  0.0534  0.4466
  334MOL0     C44002  -1.623  11.069   8.958 -0.2712  0.2002 -0.5029
  334MOL0     O44003  -1.250  11.136   8.874  0.1838 -0.4513 -0.1978
  334MOL0     C44004  -1.050  10.959   8.921 -0.3559  0.5936 -0.2993
  334MOL0     C44005  -0.956  10.853   8.931  0.0969  0.2264 -0.1367
  334MOL0     N44006  -0.930  10.094   8.725 -0.3190 -0.0803 -0.6987
  334MOL0     N44007  -0.917  10.025   8.618 -0.6940 -0.1416  0.4212
  334MOL0     C44008   0.246   9.599   8.676  0.2032  0.8244 -0.2105
  334MOL0     C44009   0.381   9.577   8.670 -0.0956 -0.3760  0.4667
  334MOL0     C44010   0.795   9.449   8.661  0.2788  0.1614  0.4939
  334MOL0     C44011   0.843   9.481   8.786 -0.7338 -0.6895  0.2623
  334MOL0     C44012   0.976   9.504   8.814  0.0060 -1.0477  0.1893
  334MOL0     C44013   1.073   9.492   8.708 -0.0257  0.2419  0.8931
  334MOL0     O44014   1.200   9.522   8.745 -0.0876 -0.3754  0.1627
  334MOL0     C44015   1.302   9.527   8.640  0.1396  0.1070 -0.4482
  334MOL0     C44016   1.443   9.549   8.714 -0.1896 -0.1452 -0.4027
  334MOL0     C44017   1.554   9.550   8.615 -0.1366 -0.8167  0.6682
  334MOL0     C44018   1.690   9.586   8.691 -0.0495 -0.6499  0.2389
  334MOL0     C44019   1.800   9.549   8.592 -0.0289  0.5768 -0.8392
  334MOL0     C44020   1.891   9.507   8.524  0.1610  0.2501  0.7189
  334MOL0     C44021   1.034   9.448   8.587  0.0087  0.4582  0.5400
  334MOL0     C44022   0.897   9.427   8.561  0.7650  0.3874 -0.1731
  334MOL0     H44023   0.407   9.315   8.879  2.6183  1.6192 -0.7706
  334MOL0     H44024   0.157   9.355   8.908 -0.5400  2.9763  3.5583
  334MOL0     H44025  -0.029   9.596   8.572 -0.9867 -1.4612  0.3502
  334MOL0     H44026   0.022   9.720   8.691  2.6942 -1.2404 -0.7674
  334MOL0     H44027  -0.180   9.704   8.804  1.7435  0.0715  0.1409
  334MOL0     H44028  -0.245   9.569   8.712  3.5738 -1.7177  0.7489
  334MOL0     H44029  -0.253   9.702   8.501 -0.4331  1.5896 -0.2527
  334MOL0     H44030  -0.159   9.838   8.572  1.5979 -0.9115  0.3062
  334MOL0     H44031  -0.440   9.747   8.649  0.5795  1.5973 -1.7202
  334MOL0     H44032  -0.349   9.858   8.741 -2.3014 -0.0446  1.1827
  334MOL0     H44033  -0.381   9.881   8.435 -2.5352  1.8641 -1.4299
  334MOL0     H44034  -0.355  10.011   8.560  2.5518 -2.1198  2.0429
  334MOL0     H44035  -0.587   9.979   8.654  0.6488 -0.6050  0.4746
  334MOL0     H44036  -0.621   9.851   8.541 -1.5703 -0.3599  0.7308
  334MOL0     H44037  -0.578  10.145   8.465 -0.9278 -0.2186  2.5070
  334MOL0     H44038  -0.569  10.017   8.339  1.9205 -0.0061 -0.3291
  334MOL0     H44039  -0.799   9.949   8.395 -3.5079 -0.3361  2.7064
  334MOL0     H44040  -0.780  10.121   8.335 -2.2547  0.4550  0.0982
  334MOL0     H44041  -0.788  10.305   8.516 -1.0238  0.6198  0.4256
  334MOL0     H44042  -0.911  10.290   8.883 -2.8630 -3.9717 -3.2044
  334MOL0     H44043  -0.931  10.415   8.762 -1.0332 -1.4666 -0.3500
  334MOL0     H44044  -0.696  10.434   8.715  1.5411  0.6063  1.2678
  334MOL0     H44045  -0.663  10.301   8.827  2.6612  0.7554 -2.4658
  334MOL0     H44046  -0.749  10.461   9.022  0.5709  1.2683  0.5043
  334MOL0     H44047  -0.603  10.503   8.928  1.0537 -0.8545 -4.4500
  334MOL0     H44048  -0.782  10.651   8.781 -0.9712 -1.7226 -0.4720
  334MOL0     H44049  -0.729  10.711   8.934  0.6720 -0.0865  0.6770
  334MOL0     H44050  -1.150  10.601   9.027  1.8086 -0.3586 -0.0636
  334MOL0     H44051  -1.325  10.786   9.037  0.5122  0.8270  0.3712
  334MOL0     H44052  -1.400  11.313   9.028  2.3351 -2.3818 -2.9096
  334MOL0     H44053  -1.598  11.445   8.997  0.4282  0.2155  1.3191
  334MOL0     H44054  -1.895  11.317   8.786 -1.6284  0.3810 -0.5012
  334MOL0     H44055  -1.823  11.476   8.799 -1.2429  0.2928 -1.2395
  334MOL0     H44056  -2.012  11.556   8.935  1.9295  0.7459 -1.1077
  334MOL0     H44057  -2.079  11.401   8.944  2.3667 -1.7740  0.5017
  334MOL0     H44058  -2.052  11.536   8.670  0.2527 -1.9068  0.3427
  334MOL0     H44059  -2.200  11.553   8.766 -0.8662 -1.6186  2.4772
  334MOL0     H44060  -2.090  11.283   8.674 -0.5340 -0.4470  0.6300
  334MOL0     H44061  -2.230  11.311   8.756  1.5592 -0.9943 -0.0041
  334MOL0     H44062  -2.179  11.423   8.475 -3.2965  1.0861 -0.0783
  334MOL0     H44063  -2.306  11.483   8.577  0.2380  1.2654  0.2657
  334MOL0     H44064  -2.424  11.273   8.590  0.6590 -0.7114  2.4695
  334MOL0     H44065  -2.281  11.177   8.554 -1.1904  0.1033 -3.2478
  334MOL0     H44066  -2.270  11.243   8.337  0.0194 -1.9821  1.0136
  334MOL0     H44067  -2.434  11.178   8.357 -0.4764  0.4076  1.4932
  334MOL0     H44068  -2.444  11.387   8.226 -1.2816 -2.3465  0.5333
  334MOL0     H44069  -2.392  11.475   8.367  1.4921  0.6676 -1.5974
  334MOL0     H44070  -1.839  11.092   8.939 -0.6963  0.7223  1.3574
  334MOL0     H44071  -1.636  10.963   8.940 -0.3237  0.2734 -0.9144
  334MOL0     H44072  -1.016  11.059   8.899 -0.0380  0.8501  1.2178
  334MOL0     H44073  -0.858  10.875   8.889  0.3866  0.3125  0.5699
  334MOL0     H44074   0.199   9.675   8.615 -2.3513 -0.0398  0.5369
  334MOL0     H44075   0.434   9.638   8.597 -1.0755  0.1149  0.1460
  334MOL0     H44076   0.772   9.474   8.868 -0.1161  1.6092  1.0843
  334MOL0     H44077   1.017   9.522   8.913  2.8837  2.2804 -1.4030
  334MOL0     H44078   1.279   9.608   8.571 -0.7484  1.8687  1.7803
  334MOL0     H44079   1.308   9.429   8.593  0.8476  0.2275 -0.6263
  334MOL0     H44080   1.441   9.643   8.770 -5.3698 -0.1922  0.0469
  334MOL0     H44081   1.449   9.464   8.783 -2.1617  0.4754  0.6175
  334MOL0     H44082   1.542   9.629   8.540  2.0354  0.2983  1.3802
  334MOL0     H44083   1.566   9.450   8.572 -1.8016 -0.3444 -1.0121
  334MOL0     H44084   1.697   9.692   8.716  1.9180 -0.7417  0.1902
  334MOL0     H44085   1.699   9.541   8.791  0.2109  1.6474  1.3179
  334MOL0     H44086   1.980   9.478   8.470 -0.2557 -0.6771  0.5038
  334MOL0     H44087   1.107   9.432   8.509 -1.9500 -0.5603 -1.1455
  334MOL0     H44088   0.866   9.406   8.459  0.7848 -4.0787  0.5186
  335MOL0     O44089   5.248   0.382   0.791 -0.8178  0.1648  0.3081
  335MOL0     C44090   5.299   0.442   0.698  0.7144 -0.5466 -1.1625
  335MOL0     O44091   5.224   0.510   0.605  0.0073 -0.1200  0.2823
  335MOL0     C44092   5.093   0.523   0.612 -0.3732  0.3619 -0.6781
  335MOL0     C44093   5.021   0.492   0.498  0.2201  0.6279 -0.4497
  335MOL0     C44094   4.884   0.530   0.490 -0.6573  0.5789 -1.3867
  335MOL0     C44095   4.820   0.577   0.601 -0.3445 -0.2178  0.1185
  335MOL0     O44096   4.681   0.584   0.587  0.3847 -0.1064  0.2920
  335MOL0     C44097   4.600   0.629   0.694 -0.1721 -0.1920 -0.5305
  335MOL0     C44098   4.455   0.671   0.661 -0.5142  0.3051 -1.3707
  335MOL0     C44099   4.381   0.578   0.574  0.4008  0.2808  0.5530
  335MOL0     C44100   4.239   0.639   0.534  0.4644  0.3564 -0.8062
  335MOL0     C44101   4.160   0.519   0.476  0.1372 -0.3543  0.1422
  335MOL0     C44102   4.022   0.585   0.423 -0.4605 -0.1147  0.0837
  335MOL0     C44103   3.909   0.492   0.367 -0.6344  0.7233 -0.6582
  335MOL0     C44104   3.865   0.395   0.479 -0.7383 -0.1352 -0.0023
  335MOL0     N44105   3.740   0.318   0.438  0.3916 -0.4244  0.3054
  335MOL0     C44106   3.737   0.228   0.328  0.0484 -0.2743  0.2714
  335MOL0     C44107   3.610   0.180   0.344  0.0081  0.3679  0.3813
  335MOL0     C44108   3.538   0.099   0.245  0.5117  0.3019  1.0774
  335MOL0     C44109   3.490   0.179   0.120 -0.5091 -0.2295  0.7260
  335MOL0     C44110   3.368   0.112   0.045  0.4738  0.0457  0.0046
  335MOL0     C44111   3.227   0.166   0.071  0.5678 -0.5382 -0.8249
  335MOL0     O44112   3.208   0.177   0.207  0.2857  0.1842 -0.4772
  335MOL0     C44113   3.077   0.196   0.242 -0.0749  0.3474  0.1592
  335MOL0     C44114   3.033   0.136   0.362 -0.7021  0.7623  0.1466
  335MOL0     C44115   2.896   0.149   0.410 -0.1483  0.2686  0.5671
  335MOL0     C44116   2.802   0.221   0.339  0.3344 -0.5749  0.9115
  335MOL0     C44117   2.658   0.234   0.387  0.0366  0.3742 -0.1508
  335MOL0     O44118   2.580   0.289   0.297  0.0525 -0.6246 -0.5049
  335MOL0     C44119   2.447   0.326   0.318  0.1279  0.8238  0.1415
  335MOL0     C44120   2.400   0.423   0.243 -0.8237 -0.9323 -0.0253
  335MOL0     C44121   2.266   0.461   0.260  0.2996 -0.1422  0.3198
  335MOL0     C44122   2.177   0.397   0.347  0.1880  0.0241  0.2277
  335MOL0     O44123   2.050   0.437   0.361  0.4792  0.1208 -0.3752
  335MOL0     C44124   2.015   0.575   0.373  0.3726  0.2024  0.3584
  335MOL0     C44125   1.862   0.569   0.388  0.8011 -0.1768 -0.9847
  335MOL0     C44126   1.803   0.478   0.503 -1.1407 -0.3315  0.0664
  335MOL0     C44127   1.650   0.476   0.493  0.5852  0.4928  0.4044
  335MOL0     C44128   1.606   0.369   0.588  0.5122  0.4458 -0.2661
  335MOL0     C44129   1.460   0.325   0.568  0.0560 -0.5577 -0.4142
  335MOL0     C44130   1.363   0.410   0.659 -0.5586 -0.4698  0.0645
  335MOL0     C44131   1.211   0.367   0.651  0.2269  0.0361  0.3511
  335MOL0    Cl44132   1.111   0.489   0.732 -0.3127 -0.3017 -0.0469
  335MOL0     C44133   2.229   0.297   0.426 -0.4262 -0.7373  0.0597
  335MOL0     C44134   2.362   0.259   0.409  0.2187 -0.1226  1.1102
  335MOL0     O44135   2.633   0.207   0.507  0.0486  0.3919  0.3436
  335MOL0     C44136   2.846   0.285   0.219 -0.0034  0.6777 -0.4476
  335MOL0     C44137   2.979   0.268   0.171 -0.2523  0.2167 -0.0136
  335MOL0     N44138   3.546   0.214   0.470 -0.7702 -0.4972  0.4816
  335MOL0     N44139   3.628   0.303   0.515 -0.0663 -0.2597 -0.6347
  335MOL0     C44140   4.893   0.602   0.721 -0.2164  0.5729  0.8241
  335MOL0     C44141   5.027   0.583   0.722  0.2223 -0.3936  0.2259
  335MOL0     C44142   5.443   0.412   0.674 -0.1315  0.1657 -0.8926
  335MOL0     C44143   5.535   0.354   0.766  0.0323 -0.4708 -0.7159
  335MOL0     C44144   5.671   0.352   0.745  0.0080 -0.2680  0.4431
  335MOL0     C44145   5.715   0.389   0.617  0.1693  0.3450  0.2308
  335MOL0     O44146   5.842   0.369   0.567  0.3237  0.0200  0.4510
  335MOL0     C44147   5.939   0.342   0.661 -0.0431 -0.2569 -0.1622
  335MOL0     C44148   6.077   0.337   0.593  0.1347 -0.1757  0.0919
  335MOL0     C44149   6.071   0.219   0.487  0.0548  0.1162  0.7756
  335MOL0     C44150   6.188   0.237   0.393  0.0189  0.1988  0.3852
  335MOL0     C44151   6.176   0.126   0.285 -0.1391 -0.2306  0.1581
  335MOL0     C44152   6.182   0.045   0.194  0.3112  0.4049 -0.1820
  335MOL0     C44153   5.624   0.429   0.522 -0.8074 -0.8858 -0.3884
  335MOL0     C44154   5.494   0.446   0.551 -0.3115  0.0954 -0.0460
  335MOL0     H44155   5.071   0.444   0.415 -1.7172 -1.2957 -0.5873
  335MOL0     H44156   4.832   0.501   0.399 -0.9628 -4.2695  0.0762
  335MOL0     H44157   4.651   0.708   0.750 -1.0283  0.6005 -0.8467
  335MOL0     H44158   4.594   0.551   0.770 -0.7647  1.8697  1.6587
  335MOL0     H44159   4.457   0.766   0.607  0.5075 -0.1105 -2.0999
  335MOL0     H44160   4.414   0.685   0.761  0.5028 -0.6089 -0.7989
  335MOL0     H44161   4.365   0.483   0.626  0.8798 -1.6130 -2.4775
  335MOL0     H44162   4.437   0.557   0.482  0.2218  0.9118  0.2904
  335MOL0     H44163   4.178   0.669   0.620 -1.1442  0.7678 -2.0423
  335MOL0     H44164   4.246   0.727   0.469 -0.0646  0.9755 -0.0386
  335MOL0     H44165   4.132   0.437   0.542  1.5521 -1.4271 -0.5342
  335MOL0     H44166   4.219   0.481   0.392  1.4456  1.4049  0.2045
  335MOL0     H44167   4.041   0.670   0.357  3.2829  0.1470  1.2306
  335MOL0     H44168   3.973   0.642   0.502 -0.9721  1.5688 -1.3742
  335MOL0     H44169   3.830   0.553   0.324  0.6041  3.1573  0.3176
  335MOL0     H44170   3.956   0.439   0.283 -0.5483  1.5841 -1.1621
  335MOL0     H44171   3.844   0.455   0.568 -0.0593 -0.7431  0.5788
  335MOL0     H44172   3.948   0.328   0.506  0.8560  2.2949  1.4892
  335MOL0     H44173   3.807   0.205   0.249  2.5390  1.8791  1.7168
  335MOL0     H44174   3.461   0.042   0.298  0.4583 -1.5693 -0.8320
  335MOL0     H44175   3.597   0.019   0.198 -0.7873  0.0281 -0.1488
  335MOL0     H44176   3.575   0.188   0.052 -2.1771  0.8692 -1.3656
  335MOL0     H44177   3.459   0.279   0.153  0.1713 -0.1114  1.0215
  335MOL0     H44178   3.376   0.117  -0.064 -2.8186 -1.8004 -0.4520
  335MOL0     H44179   3.371   0.005   0.068  2.2649  0.1479  0.3842
  335MOL0     H44180   3.160   0.092   0.025  1.1266 -0.9986 -0.8993
  335MOL0     H44181   3.215   0.266   0.027  0.2578 -0.7267 -1.1785
  335MOL0     H44182   3.105   0.091   0.429 -0.0009  2.1688  0.3778
  335MOL0     H44183   2.868   0.094   0.499 -0.2247  1.7966  1.5277
  335MOL0     H44184   2.467   0.460   0.166  0.3487 -1.0480  0.9145
  335MOL0     H44185   2.230   0.543   0.199 -2.6301 -0.5482  1.3556
  335MOL0     H44186   2.057   0.626   0.286 -0.1963  1.2592  0.6789
  335MOL0     H44187   2.045   0.618   0.469 -2.0367  1.4259  0.6559
  335MOL0     H44188   1.817   0.531   0.296  1.6207  0.7896 -1.8031
  335MOL0     H44189   1.823   0.670   0.404  2.0083  0.2656 -0.7049
  335MOL0     H44190   1.839   0.519   0.598  2.0684 -0.2406 -1.0844
  335MOL0     H44191   1.845   0.379   0.484 -1.3541 -0.1100 -1.7437
  335MOL0     H44192   1.605   0.569   0.530 -0.5873 -0.4794  1.5628
  335MOL0     H44193   1.630   0.462   0.387  2.8496  2.1923 -0.3207
  335MOL0     H44194   1.625   0.399   0.691  3.7835  1.8207 -1.1431
  335MOL0     H44195   1.673   0.283   0.577  0.9123  0.6088  0.8205
  335MOL0     H44196   1.441   0.219   0.587 -2.0062 -0.6022 -2.4246
  335MOL0     H44197   1.437   0.346   0.463  0.9850  0.9234 -0.3483
  335MOL0     H44198   1.398   0.406   0.762  1.5029  0.9299 -0.5203
  335MOL0     H44199   1.375   0.515   0.631  3.2233  0.0946  3.0078
  335MOL0     H44200   1.185   0.270   0.695 -4.5762  1.1820  0.6036
  335MOL0     H44201   1.172   0.359   0.549 -1.2214  0.1344  0.8803
  335MOL0     H44202   2.168   0.239   0.494 -1.5453 -0.4060 -0.6323
  335MOL0     H44203   2.390   0.164   0.451  0.7629  1.2302  4.0203
  335MOL0     H44204   2.775   0.331   0.151 -1.7781  1.9575  2.1007
  335MOL0     H44205   3.003   0.317   0.078  1.9603 -0.1663  0.3069
  335MOL0     H44206   4.835   0.639   0.804  0.1641  1.0729  0.8750
  335MOL0     H44207   5.086   0.621   0.805  3.1553  1.3110 -2.3810
  335MOL0     H44208   5.498   0.334   0.866  0.7883  0.4143 -0.2349
  335MOL0     H44209   5.733   0.309   0.822  1.5710 -1.9722 -1.6531
  335MOL0     H44210   5.918   0.246   0.708  2.0343 -1.2969 -1.1770
  335MOL0     H44211   5.943   0.430   0.726  0.3495  0.8406 -1.6141
  335MOL0     H44212   6.104   0.425   0.533  0.1802 -1.6887 -2.2395
  335MOL0     H44213   6.150   0.316   0.671  0.4711 -0.7924 -0.3821
  335MOL0     H44214   5.975   0.238   0.436 -0.5666  0.4563  2.0228
  335MOL0     H44215   6.063   0.120   0.531 -3.3922  0.0896  0.4273
  335MOL0     H44216   6.192   0.333   0.340  1.6835 -0.7967 -1.4298
  335MOL0     H44217   6.285   0.227   0.443  0.1460 -1.3216 -0.1131
  335MOL0     H44218   6.206  -0.007   0.104  2.4092  2.7965 -1.1040
  335MOL0     H44219   5.647   0.456   0.419 -0.5814  2.5489  0.4194
  335MOL0     H44220   5.434   0.477   0.466  1.5525 -2.9230 -2.6826
  336MOL0     O44221   0.177  10.168   4.635  0.5897 -0.8246  0.0674
  336MOL0     C44222   0.186  10.091   4.546 -1.1899  1.3931  0.0412
  336MOL0     O44223   0.102   9.977   4.519  0.1385  0.3265 -0.0203
  336MOL0     C44224  -0.010   9.961   4.609  0.9493  0.2209  1.9776
  336MOL0     C44225  -0.143   9.927   4.554 -0.2787  0.7318  0.7367
  336MOL0     C44226  -0.259   9.911   4.632 -0.0581 -0.5682 -0.1268
  336MOL0     C44227  -0.246   9.945   4.775  0.2542 -0.2002 -0.0441
  336MOL0     O44228  -0.358   9.961   4.859 -0.4761 -0.4894  0.3755
  336MOL0     C44229  -0.479   9.879   4.834  0.0111 -0.4749 -0.2318
  336MOL0     C44230  -0.569   9.865   4.953 -0.6028 -0.3063 -0.1839
  336MOL0     C44231  -0.596  10.004   5.016 -0.3715  0.7085  0.1378
  336MOL0     C44232  -0.671  10.099   4.918 -0.1499 -0.6623 -0.2255
  336MOL0     C44233  -0.694  10.234   5.002  0.6657 -0.1558 -0.0780
  336MOL0     C44234  -0.765  10.341   4.914 -0.2271  0.3787  0.4573
  336MOL0     C44235  -0.863  10.442   4.978 -0.8679 -0.3433 -0.7941
  336MOL0     C44236  -0.798  10.506   5.102  0.7259 -0.2012  0.0855
  336MOL0     N44237  -0.896  10.596   5.166 -0.5990  0.1881 -0.7140
  336MOL0     C44238  -0.959  10.706   5.108 -0.2909 -0.6482  0.1026
  336MOL0     C44239  -1.024  10.759   5.219  0.2489  0.1179  0.3666
  336MOL0     C44240  -1.118  10.878   5.218 -0.2666  0.5666  0.4150
  336MOL0     C44241  -1.035  10.996   5.277 -0.3425  0.4316 -0.2107
  336MOL0     C44242  -0.926  11.052   5.187 -0.4433 -0.2918  0.4213
  336MOL0     C44243  -0.784  11.071   5.245 -0.4648 -0.1608 -0.1295
  336MOL0     O44244  -0.689  11.113   5.149  0.4550 -0.6340  0.0212
  336MOL0     C44245  -0.556  11.130   5.197 -0.6941 -0.5333  1.0305
  336MOL0     C44246  -0.534  11.142   5.334  0.4772  0.4859 -0.0464
  336MOL0     C44247  -0.404  11.167   5.385 -0.0979 -0.5755  0.6245
  336MOL0     C44248  -0.292  11.183   5.302 -0.6774  0.5122 -0.2232
  336MOL0     C44249  -0.153  11.207   5.343  0.7482 -0.2314 -0.0150
  336MOL0     O44250  -0.060  11.220   5.240 -0.6671 -0.1928  0.8490
  336MOL0     C44251   0.077  11.190   5.253  0.1086 -0.0321  0.1089
  336MOL0     C44252   0.144  11.132   5.356 -0.4133  0.5555 -0.2032
  336MOL0     C44253   0.277  11.089   5.343  1.3861  0.6900 -0.2917
  336MOL0     C44254   0.345  11.118   5.228 -0.7051 -0.1997  0.4566
  336MOL0     O44255   0.474  11.066   5.211  0.2651 -0.0758 -0.0265
  336MOL0     C44256   0.476  10.944   5.145 -0.4132 -0.8261 -0.0342
  336MOL0     C44257   0.614  10.945   5.065  0.0251 -0.0317 -0.3895
  336MOL0     C44258   0.613  10.844   4.956 -0.2993 -0.7818 -0.0995
  336MOL0     C44259   0.661  10.707   5.018  0.5400  0.1513 -0.3389
  336MOL0     C44260   0.631  10.588   4.930 -0.0612 -0.2457  0.7170
  336MOL0     C44261   0.480  10.552   4.934 -0.1335  0.4225 -0.1550
  336MOL0     C44262   0.453  10.426   4.848  1.0586 -0.1267  1.0949
  336MOL0     C44263   0.302  10.388   4.866  1.3675  0.5872  0.7778
  336MOL0    Cl44264   0.186  10.495   4.782  0.0406 -0.0734  0.4542
  336MOL0     C44265   0.291  11.187   5.123 -0.0260 -0.0917 -0.0985
  336MOL0     C44266   0.146  11.221   5.132  0.0407 -0.1531 -0.2050
  336MOL0     O44267  -0.132  11.206   5.461 -0.2305  0.3023  0.1892
  336MOL0     C44268  -0.315  11.151   5.167  0.3186 -0.4040  0.1957
  336MOL0     C44269  -0.444  11.129   5.113 -0.5173  0.6461  0.9489
  336MOL0     N44270  -0.998  10.692   5.335  0.1060  0.2256  0.5913
  336MOL0     N44271  -0.922  10.590   5.303 -0.3335 -0.4627 -0.8742
  336MOL0     C44272  -0.129   9.978   4.831  0.1891  0.4396 -0.5908
  336MOL0     C44273  -0.013   9.977   4.751  0.2734 -0.3348 -0.0995
  336MOL0     C44274   0.298  10.120   4.448 -0.4976  0.1157 -0.6368
  336MOL0     C44275   0.324  10.037   4.344  0.2373  0.3258 -0.0342
  336MOL0     C44276   0.414  10.064   4.243 -0.0581  0.6323 -0.2745
  336MOL0     C44277   0.485  10.186   4.255  0.5533  0.3832  0.1938
  336MOL0     O44278   0.566  10.207   4.144 -0.3508 -0.2667  0.3615
  336MOL0     C44279   0.673  10.307   4.155  1.0222  0.3699 -0.6265
  336MOL0     C44280   0.785  10.287   4.055  0.1154 -1.4019  0.1078
  336MOL0     C44281   0.727  10.316   3.907  0.3445 -0.0570 -0.1498
  336MOL0     C44282   0.726  10.458   3.859  0.7698  0.4651 -0.0861
  336MOL0     C44283   0.864  10.517   3.853 -0.4780  0.1297 -0.5032
  336MOL0     C44284   0.980  10.558   3.847 -0.3931 -0.1374 -0.2778
  336MOL0     C44285   0.461  10.275   4.353  0.2949  0.1714 -0.2953
  336MOL0     C44286   0.370  10.243   4.446  0.1465 -0.2250 -0.0220
  336MOL0     H44287  -0.160   9.910   4.449 -4.0820 -1.3646  1.5154
  336MOL0     H44288  -0.355   9.882   4.590 -0.2366 -2.0128  1.1568
  336MOL0     H44289  -0.449   9.776   4.813 -1.3622 -0.9243 -0.0740
  336MOL0     H44290  -0.525   9.906   4.739  3.8147  0.7785 -1.9275
  336MOL0     H44291  -0.522   9.805   5.031  1.8274  1.7789  0.0887
  336MOL0     H44292  -0.668   9.828   4.926  0.5482 -2.3104 -1.9334
  336MOL0     H44293  -0.501  10.049   5.045  1.1714 -0.9726 -1.9677
  336MOL0     H44294  -0.658   9.981   5.103 -1.1909  2.0227 -0.0872
  336MOL0     H44295  -0.617  10.125   4.827 -1.0397  1.5003 -0.1879
  336MOL0     H44296  -0.770  10.065   4.888 -1.0938  2.6043 -1.2044
  336MOL0     H44297  -0.601  10.274   5.043  1.0127  0.6872 -1.6091
  336MOL0     H44298  -0.751  10.212   5.092  2.9471  0.6748  1.6703
  336MOL0     H44299  -0.825  10.302   4.831 -1.6595  1.0553  1.1514
  336MOL0     H44300  -0.692  10.394   4.851  1.9835 -0.3776  2.2733
  336MOL0     H44301  -0.885  10.522   4.907 -0.8541 -0.7103 -1.2169
  336MOL0     H44302  -0.955  10.384   4.993 -0.6755 -1.7244 -4.0911
  336MOL0     H44303  -0.710  10.563   5.070  0.2753 -0.4014 -1.6210
  336MOL0     H44304  -0.782  10.420   5.167 -3.6313 -2.4800 -1.4197
  336MOL0     H44305  -0.974  10.736   5.005 -2.2409  2.0063  1.0219
  336MOL0     H44306  -1.207  10.863   5.280  1.2738 -1.9870  2.1845
  336MOL0     H44307  -1.158  10.894   5.118  3.2774  0.8943 -1.0923
  336MOL0     H44308  -0.996  10.973   5.377 -1.7728 -1.1311  0.0462
  336MOL0     H44309  -1.106  11.078   5.287 -0.8074  0.2797 -1.9469
  336MOL0     H44310  -0.932  10.999   5.091  0.4493  2.2497 -1.1548
  336MOL0     H44311  -0.945  11.159   5.171  0.6658 -0.3640 -1.7444
  336MOL0     H44312  -0.758  10.973   5.286  1.4167 -0.3237 -1.5513
  336MOL0     H44313  -0.787  11.142   5.328  2.5914  0.6119 -0.5521
  336MOL0     H44314  -0.607  11.134   5.414  2.6076 -2.2438  1.8140
  336MOL0     H44315  -0.389  11.189   5.490  1.0654  2.4548 -0.0802
  336MOL0     H44316   0.085  11.101   5.443 -1.5495 -2.0228 -1.7602
  336MOL0     H44317   0.328  11.034   5.420  0.8790  1.0456  0.3047
  336MOL0     H44318   0.394  10.942   5.073 -0.3204  1.2689 -0.2686
  336MOL0     H44319   0.462  10.862   5.216 -0.1235 -0.3554  0.5793
  336MOL0     H44320   0.702  10.933   5.129  1.1564  0.3691 -1.8155
  336MOL0     H44321   0.626  11.038   5.008 -0.7066  0.0816 -0.3618
  336MOL0     H44322   0.684  10.871   4.877 -0.5099  0.4021  0.1052
  336MOL0     H44323   0.513  10.838   4.911 -0.0669  1.6184 -1.0776
  336MOL0     H44324   0.769  10.722   5.032  0.7676 -1.4711 -0.1556
  336MOL0     H44325   0.607  10.691   5.111  0.9104  0.6892 -0.0253
  336MOL0     H44326   0.682  10.498   4.962  0.4113  0.3770  1.7422
  336MOL0     H44327   0.671  10.607   4.830  1.7164  2.5386  1.8347
  336MOL0     H44328   0.419  10.638   4.904 -2.7631 -1.5200 -0.6708
  336MOL0     H44329   0.443  10.530   5.035 -4.0901  2.7812 -0.8723
  336MOL0     H44330   0.477  10.434   4.742 -0.7349 -2.3595  0.4532
  336MOL0     H44331   0.513  10.351   4.901  0.8462  0.1338  1.7183
  336MOL0     H44332   0.263  10.382   4.968 -0.8363 -1.1330 -0.0813
  336MOL0     H44333   0.288  10.285   4.833 -2.2614  1.6094 -1.4113
  336MOL0     H44334   0.339  11.201   5.026 -0.6013  0.6634 -0.2853
  336MOL0     H44335   0.094  11.263   5.047 -1.8866  0.6426  1.2749
  336MOL0     H44336  -0.241  11.156   5.087 -1.3555  1.3417 -1.3562
  336MOL0     H44337  -0.467  11.116   5.007 -1.0705  0.6449  1.0674
  336MOL0     H44338  -0.115   9.995   4.937  0.5103  2.6199 -0.9414
  336MOL0     H44339   0.085   9.974   4.797  0.1333  0.4864  0.2731
  336MOL0     H44340   0.269   9.944   4.335  1.5713 -0.5317  0.2592
  336MOL0     H44341   0.421  10.001   4.156 -1.0604 -2.7488  1.9053
  336MOL0     H44342   0.723  10.307   4.252  1.2232 -3.5816 -0.5631
  336MOL0     H44343   0.627  10.404   4.135 -0.3853  1.0272  4.5212
  336MOL0     H44344   0.877  10.344   4.070 -0.1384 -0.4150 -1.8387
  336MOL0     H44345   0.810  10.181   4.064 -1.3293 -1.7184  0.8060
  336MOL0     H44346   0.632  10.261   3.896  0.8222 -1.3213  1.5703
  336MOL0     H44347   0.807  10.278   3.842  0.4117  0.4579 -0.3688
  336MOL0     H44348   0.672  10.463   3.764  1.4870 -0.0195 -0.5317
  336MOL0     H44349   0.668  10.513   3.933 -2.1174 -1.8857 -0.3938
  336MOL0     H44350   1.081  10.594   3.847  0.0308 -1.2880  0.1743
  336MOL0     H44351   0.520  10.365   4.364  1.4535 -0.1957 -2.7151
  336MOL0     H44352   0.350  10.314   4.526 -2.1671  0.2903 -0.9794
  337MOL0     O44353   5.596   0.405   7.587 -0.4192 -0.3412 -0.3157
  337MOL0     C44354   5.655   0.512   7.566  0.0222 -0.1841  0.5452
  337MOL0     O44355   5.599   0.625   7.515  0.8402 -0.2052 -0.4994
  337MOL0     C44356   5.462   0.629   7.503  0.1295  0.0528  0.2982
  337MOL0     C44357   5.366   0.577   7.593 -0.1394  0.5432 -0.0752
  337MOL0     C44358   5.230   0.593   7.575 -0.2439 -0.3191 -0.1080
  337MOL0     C44359   5.188   0.678   7.470  0.1149  0.0008  0.7120
  337MOL0     O44360   5.049   0.696   7.466  0.2305 -0.3920  0.6650
  337MOL0     C44361   5.005   0.814   7.391 -0.9916  0.0442 -0.6372
  337MOL0     C44362   4.863   0.857   7.437  0.1257  0.0561 -0.6208
  337MOL0     C44363   4.764   0.778   7.342 -0.7227 -0.2133  0.0750
  337MOL0     C44364   4.618   0.805   7.373  0.1995 -0.1569  0.2412
  337MOL0     C44365   4.538   0.707   7.283 -0.8178  0.0961 -0.2685
  337MOL0     C44366   4.388   0.733   7.309  0.2890  0.4654  0.6320
  337MOL0     C44367   4.313   0.714   7.174  0.7261  0.4144  0.2426
  337MOL0     C44368   4.260   0.567   7.168 -0.4143 -0.4116  0.0584
  337MOL0     N44369   4.139   0.555   7.088 -0.0218 -0.3724 -0.5399
  337MOL0     C44370   4.019   0.622   7.102  0.1289 -0.4972  0.1712
  337MOL0     C44371   3.951   0.592   6.982  0.5369  0.4033  0.2155
  337MOL0     C44372   3.823   0.661   6.943 -0.3394  0.5326 -0.6312
  337MOL0     C44373   3.711   0.558   6.936 -0.0954  0.3933 -0.0089
  337MOL0     C44374   3.588   0.644   6.966 -0.2947  0.8911  0.1908
  337MOL0     C44375   3.452   0.569   6.964  0.5496 -0.2182  0.5896
  337MOL0     O44376   3.449   0.467   7.065  0.1141 -1.0784 -0.2502
  337MOL0     C44377   3.337   0.389   7.078 -0.2274 -0.1644 -0.2411
  337MOL0     C44378   3.367   0.262   7.121 -0.4453  0.3185 -0.5275
  337MOL0     C44379   3.260   0.176   7.143 -0.0867 -0.5974 -0.5313
  337MOL0     C44380   3.126   0.210   7.116 -0.4166  0.6260 -0.9986
  337MOL0     C44381   3.017   0.114   7.122 -0.2959 -0.0415 -0.1179
  337MOL0     O44382   2.895   0.156   7.074  0.1110  0.1994 -0.7240
  337MOL0     C44383   2.782   0.078   7.096  0.1205  0.1911  0.4557
  337MOL0     C44384   2.766  -0.065   7.100  0.3156  0.1585 -0.0909
  337MOL0     C44385   2.633  -0.121   7.098  0.5298  0.2758 -0.6125
  337MOL0     C44386   2.520  -0.034   7.077 -0.1661  0.3672  0.1637
  337MOL0     O44387   2.390  -0.075   7.070  0.3057 -0.6416  0.3697
  337MOL0     C44388   2.352  -0.215   7.069 -0.2486 -0.4630 -0.1534
  337MOL0     C44389   2.350  -0.282   7.203  0.9593 -0.3376  0.1040
  337MOL0     C44390   2.265  -0.208   7.309 -0.3157 -0.5157 -0.2628
  337MOL0     C44391   2.285  -0.280   7.447 -0.1030 -0.8057  0.9116
  337MOL0     C44392   2.420  -0.239   7.523 -0.2753  0.1955  0.2756
  337MOL0     C44393   2.449  -0.317   7.653  0.0924  0.0014  0.6652
  337MOL0     C44394   2.588  -0.304   7.698  0.1369 -0.0748 -0.3309
  337MOL0     C44395   2.616  -0.397   7.816 -0.4564 -1.1669  1.0737
  337MOL0    Cl44396   2.758  -0.345   7.912 -0.0587  0.0088 -0.3948
  337MOL0     C44397   2.541   0.097   7.059 -0.8821 -0.0940 -0.5067
  337MOL0     C44398   2.665   0.154   7.072  0.2756 -0.3715  0.4608
  337MOL0     O44399   3.030   0.014   7.188  0.1799  0.2145  0.8725
  337MOL0     C44400   3.096   0.338   7.072  0.3068  0.3025  0.0478
  337MOL0     C44401   3.202   0.428   7.060 -0.0134  0.1108 -0.2428
  337MOL0     N44402   4.028   0.506   6.908 -0.2005  0.2455  0.6488
  337MOL0     N44403   4.142   0.486   6.969 -0.4477  0.2743 -0.1966
  337MOL0     C44404   5.276   0.746   7.391  0.1574  0.7353 -0.5195
  337MOL0     C44405   5.416   0.716   7.400  0.6572 -0.3348  0.3742
  337MOL0     C44406   5.800   0.522   7.591 -0.5329  0.4806  0.0982
  337MOL0     C44407   5.864   0.418   7.656  0.1853 -0.4502 -0.7154
  337MOL0     C44408   5.997   0.430   7.679 -0.2441  0.2154 -0.7711
  337MOL0     C44409   6.069   0.539   7.633 -0.3026 -0.5976 -0.4214
  337MOL0     O44410   6.204   0.548   7.669 -0.1144 -0.3031  0.1517
  337MOL0     C44411   6.285   0.648   7.602  0.9296  0.5114  0.8331
  337MOL0     C44412   6.427   0.606   7.592  0.1121 -0.3740 -0.0144
  337MOL0     C44413   6.505   0.627   7.722 -0.5078 -0.2264 -1.4838
  337MOL0     C44414   6.650   0.577   7.703  0.6559  0.7005  0.1425
  337MOL0     C44415   6.732   0.669   7.629 -0.5554  0.2196  0.0681
  337MOL0     C44416   6.796   0.725   7.542  0.2124  0.0163 -0.1661
  337MOL0     C44417   6.006   0.641   7.560  0.6186 -0.6176  0.0531
  337MOL0     C44418   5.870   0.629   7.535 -0.4143  0.1464 -0.2386
  337MOL0     H44419   5.383   0.527   7.687 -2.6063  1.2844  0.8385
  337MOL0     H44420   5.156   0.561   7.649 -0.6551 -0.8980 -0.7628
  337MOL0     H44421   5.021   0.803   7.283  0.0341 -0.3117 -0.4608
  337MOL0     H44422   5.072   0.898   7.412  0.5614 -0.9372 -1.4054
  337MOL0     H44423   4.851   0.965   7.421 -3.4178 -0.2403 -0.7541
  337MOL0     H44424   4.841   0.835   7.542 -0.3524  1.8021 -0.3263
  337MOL0     H44425   4.793   0.674   7.357 -0.4072 -0.0189  0.8937
  337MOL0     H44426   4.795   0.797   7.239  0.8349  0.2664  0.6147
  337MOL0     H44427   4.601   0.788   7.479  1.3781 -1.3742  0.2696
  337MOL0     H44428   4.598   0.910   7.352  1.9405  1.3224  4.8420
  337MOL0     H44429   4.565   0.601   7.290 -1.2965 -0.0601 -0.7637
  337MOL0     H44430   4.566   0.735   7.181 -1.1567  0.0750 -0.3662
  337MOL0     H44431   4.364   0.834   7.346 -0.0223  0.8794 -0.6624
  337MOL0     H44432   4.351   0.660   7.381 -1.1768 -2.0506 -2.4782
  337MOL0     H44433   4.229   0.784   7.171  0.7479  0.4405  0.2363
  337MOL0     H44434   4.377   0.736   7.088  0.8462  0.6215  0.3837
  337MOL0     H44435   4.242   0.542   7.273  1.1843 -0.5810  0.3146
  337MOL0     H44436   4.341   0.500   7.136  1.4069  1.4772  0.4613
  337MOL0     H44437   3.981   0.666   7.194  1.6562 -3.4067  2.3330
  337MOL0     H44438   3.832   0.694   6.839  1.0639 -3.1188 -1.8617
  337MOL0     H44439   3.811   0.740   7.017 -2.1936 -2.4970  2.6260
  337MOL0     H44440   3.725   0.480   7.012 -0.0254 -0.6181 -1.0274
  337MOL0     H44441   3.708   0.516   6.835 -0.8782  1.1885 -0.3346
  337MOL0     H44442   3.602   0.692   7.063  0.6835  2.5373 -0.7247
  337MOL0     H44443   3.580   0.726   6.895 -2.4928  1.1106  0.6102
  337MOL0     H44444   3.450   0.521   6.865 -0.4855  3.9276 -1.6692
  337MOL0     H44445   3.372   0.643   6.975  1.6284  1.2876 -1.0613
  337MOL0     H44446   3.470   0.238   7.145 -0.5653  0.7062  0.4269
  337MOL0     H44447   3.285   0.078   7.183  0.9562  0.4142  1.5020
  337MOL0     H44448   2.855  -0.127   7.109  0.1552  0.0804  1.2684
  337MOL0     H44449   2.616  -0.228   7.093 -2.1416  0.5950  0.0160
  337MOL0     H44450   2.412  -0.277   7.001 -1.0988 -2.8741  1.1679
  337MOL0     H44451   2.250  -0.219   7.028  0.1747  0.4527 -1.3375
  337MOL0     H44452   2.451  -0.295   7.243 -0.1282 -2.7893  2.2823
  337MOL0     H44453   2.319  -0.386   7.194  1.3442 -0.5238  0.8844
  337MOL0     H44454   2.158  -0.215   7.284  0.1431 -0.7882 -2.2892
  337MOL0     H44455   2.290  -0.102   7.315 -2.5701  0.0074  1.4224
  337MOL0     H44456   2.202  -0.258   7.515  0.1782  0.8151  0.7663
  337MOL0     H44457   2.286  -0.388   7.428  1.4007 -0.7115  0.3398
  337MOL0     H44458   2.428  -0.131   7.535 -0.1726  0.4238 -1.5233
  337MOL0     H44459   2.502  -0.266   7.456 -0.0782  4.9252 -1.7776
  337MOL0     H44460   2.412  -0.420   7.650 -0.3193  0.1552  0.3775
  337MOL0     H44461   2.390  -0.270   7.732  0.7441  1.2523  0.4305
  337MOL0     H44462   2.656  -0.333   7.617  0.9681  0.6032  0.0946
  337MOL0     H44463   2.608  -0.202   7.733 -0.4939 -0.0811  0.0604
  337MOL0     H44464   2.633  -0.500   7.787  0.7609 -0.8098  0.4915
  337MOL0     H44465   2.529  -0.403   7.882 -0.1124  0.3627  1.7281
  337MOL0     H44466   2.455   0.159   7.034  0.1639  1.7100  0.2429
  337MOL0     H44467   2.678   0.261   7.057 -0.7628 -0.1326  1.1128
  337MOL0     H44468   3.002   0.366   7.026 -0.1752  0.4170  1.0690
  337MOL0     H44469   3.181   0.522   7.011  3.9767 -0.2115 -2.9817
  337MOL0     H44470   5.240   0.813   7.314  0.4335 -1.6627 -2.9134
  337MOL0     H44471   5.476   0.771   7.328 -1.9035  0.4591 -1.2854
  337MOL0     H44472   5.794   0.339   7.682 -2.1990  1.9732  0.7536
  337MOL0     H44473   6.049   0.350   7.730 -0.3236  0.3883 -0.4227
  337MOL0     H44474   6.265   0.742   7.654  0.6804  0.4868  0.7836
  337MOL0     H44475   6.248   0.662   7.500 -1.1828  1.4755  1.6619
  337MOL0     H44476   6.439   0.505   7.553  0.3117  0.0325 -1.0521
  337MOL0     H44477   6.475   0.669   7.516  0.9287  1.1298  1.6525
  337MOL0     H44478   6.462   0.560   7.797  1.9822  3.0106  3.3709
  337MOL0     H44479   6.505   0.730   7.757 -0.6446 -0.9049  0.6342
  337MOL0     H44480   6.702   0.544   7.794 -0.1394 -2.4689 -0.4324
  337MOL0     H44481   6.640   0.487   7.642  0.1996  0.8106  0.0468
  337MOL0     H44482   6.861   0.739   7.458 -0.9532 -0.7403 -1.2264
  337MOL0     H44483   6.058   0.734   7.541  1.6784 -0.7087  2.2408
  337MOL0     H44484   5.813   0.713   7.497 -1.7125 -1.1372 -1.2656
  338MOL0     O44485  10.522   3.594   9.664  0.1643  0.1595 -0.5924
  338MOL0     C44486  10.492   3.476   9.658 -0.3921 -0.7856  0.4306
  338MOL0     O44487  10.389   3.423   9.586  0.3053 -0.6434 -0.4373
  338MOL0     C44488  10.316   3.501   9.491 -0.3876 -0.0864  0.0034
  338MOL0     C44489  10.373   3.595   9.406 -0.7260  1.3231  0.2564
  338MOL0     C44490  10.293   3.670   9.322  0.7578  0.2042 -0.2131
  338MOL0     C44491  10.152   3.660   9.326 -0.2680 -0.2810 -0.1100
  338MOL0     O44492  10.063   3.724   9.241  0.1589 -0.4528 -0.7272
  338MOL0     C44493  10.115   3.850   9.180  0.0761  0.6824 -0.0667
  338MOL0     C44494  10.023   3.909   9.080  0.1056 -0.6053  0.8775
  338MOL0     C44495   9.878   3.928   9.120  0.6324  0.1058  0.6303
  338MOL0     C44496   9.799   3.969   8.991 -0.9780  0.5837  0.1054
  338MOL0     C44497   9.657   4.003   9.024  0.4436 -0.0946  0.4261
  338MOL0     C44498   9.563   3.965   8.914 -0.8874  0.0793  0.2581
  338MOL0     C44499   9.421   4.008   8.954  1.0703 -0.3632  0.2328
  338MOL0     C44500   9.308   3.972   8.853 -0.6298 -0.2173 -0.3824
  338MOL0     N44501   9.325   4.032   8.721  0.0334  0.5249 -1.1252
  338MOL0     C44502   9.321   3.968   8.609 -0.1718 -0.7213 -0.0161
  338MOL0     C44503   9.333   4.053   8.506 -0.0814 -0.8596 -0.7200
  338MOL0     C44504   9.325   4.026   8.358  0.0201  0.2897  0.8850
  338MOL0     C44505   9.178   4.040   8.313  0.3242  0.3469  0.1988
  338MOL0     C44506   9.152   4.062   8.157  0.0761  0.1752  0.3874
  338MOL0     C44507   9.015   4.135   8.146 -0.1414 -0.5515  0.9990
  338MOL0     O44508   8.973   4.127   8.009 -0.3446 -0.5971  0.6717
  338MOL0     C44509   8.863   4.200   7.977  0.8592 -0.4352 -0.4041
  338MOL0     C44510   8.877   4.341   7.966 -0.5063 -0.0127 -0.0541
  338MOL0     C44511   8.765   4.412   7.936 -0.2690 -0.8089 -0.4351
  338MOL0     C44512   8.639   4.353   7.925 -0.6173  0.2387 -0.0361
  338MOL0     C44513   8.517   4.434   7.901  0.0158  0.6675 -0.2143
  338MOL0     O44514   8.405   4.365   7.879 -0.3040  0.6924 -0.4303
  338MOL0     C44515   8.285   4.428   7.863 -0.1651 -0.9113  0.4047
  338MOL0     C44516   8.231   4.513   7.963 -1.1431 -0.5872 -0.2462
  338MOL0     C44517   8.097   4.543   7.971  0.4603 -0.9405 -0.3309
  338MOL0     C44518   8.010   4.500   7.869  0.8795  0.5493 -0.0013
  338MOL0     O44519   7.869   4.527   7.861 -0.4430  0.2394 -0.6110
  338MOL0     C44520   7.795   4.562   7.977 -0.1929  0.0643 -0.2325
  338MOL0     C44521   7.662   4.502   7.984 -0.2802  0.6556 -0.3455
  338MOL0     C44522   7.547   4.565   7.894  0.1367  0.2037 -0.6094
  338MOL0     C44523   7.530   4.715   7.919 -0.0986  0.1508  0.2418
  338MOL0     C44524   7.416   4.773   7.835  0.2139 -0.7625  0.1007
  338MOL0     C44525   7.279   4.732   7.909  0.6308 -0.4671  0.0617
  338MOL0     C44526   7.157   4.770   7.819 -0.0391  0.0627  0.1522
  338MOL0     C44527   7.033   4.749   7.889  0.0234  0.1837  0.1838
  338MOL0    Cl44528   6.900   4.802   7.795  0.2675  0.0992  0.2744
  338MOL0     C44529   8.058   4.419   7.770 -0.2410 -0.5165  0.2484
  338MOL0     C44530   8.191   4.375   7.774 -0.6533 -0.1126  1.3859
  338MOL0     O44531   8.532   4.558   7.915  0.6435 -0.1574 -0.0711
  338MOL0     C44532   8.627   4.209   7.922  0.4424 -0.2930 -0.6994
  338MOL0     C44533   8.741   4.131   7.957 -0.1840 -0.5501  0.5800
  338MOL0     N44534   9.342   4.177   8.566  0.6071 -0.4572 -0.2769
  338MOL0     N44535   9.339   4.162   8.690 -0.2501 -0.5103  0.0076
  338MOL0     C44536  10.095   3.574   9.418 -0.5361  0.5946  0.2797
  338MOL0     C44537  10.178   3.494   9.505 -0.4757 -0.5068 -0.4230
  338MOL0     C44538  10.584   3.385   9.723 -0.6638  0.3029  1.0789
  338MOL0     C44539  10.566   3.249   9.710  0.0254  0.8871 -0.1369
  338MOL0     C44540  10.666   3.158   9.757 -0.1573 -0.6886  0.3177
  338MOL0     C44541  10.784   3.210   9.820  0.3498 -0.3084 -0.1608
  338MOL0     O44542  10.876   3.120   9.873 -0.1098  0.3771  0.5132
  338MOL0     C44543  10.976   3.171   9.962  0.9595  0.7313  0.4626
  338MOL0     C44544  11.060   3.058  10.012  0.9699 -0.4904  0.3018
  338MOL0     C44545  10.985   2.967  10.104 -0.2305  0.4548 -0.8784
  338MOL0     C44546  11.048   2.827  10.131  0.6759 -0.8701 -1.0987
  338MOL0     C44547  11.169   2.846  10.225  0.0321  0.1903  0.5869
  338MOL0     C44548  11.263   2.864  10.298 -0.6189 -1.0554 -0.2205
  338MOL0     C44549  10.797   3.346   9.830 -0.3334  1.3434 -0.9327
  338MOL0     C44550  10.703   3.433   9.777 -0.6058  0.8541  0.4406
  338MOL0     H44551  10.477   3.626   9.412  0.4414 -1.8683 -0.9656
  338MOL0     H44552  10.338   3.716   9.234 -2.4296 -0.9202 -2.6462
  338MOL0     H44553  10.213   3.841   9.134  1.3465 -2.5259  2.8436
  338MOL0     H44554  10.120   3.923   9.262 -0.2716  1.5092 -0.7585
  338MOL0     H44555  10.025   3.842   8.994  1.5732  1.5893 -0.8889
  338MOL0     H44556  10.057   4.009   9.054 -0.6197 -0.2489  1.2816
  338MOL0     H44557   9.862   4.001   9.200  2.6775 -0.0852  1.2809
  338MOL0     H44558   9.833   3.835   9.157  1.4401 -1.1232 -1.3004
  338MOL0     H44559   9.847   4.054   8.940 -0.1079  0.0772  0.0594
  338MOL0     H44560   9.802   3.889   8.916 -1.4511  1.0151 -0.3850
  338MOL0     H44561   9.650   4.111   9.042  2.0640  0.1519 -0.2877
  338MOL0     H44562   9.624   3.945   9.111 -0.9926  0.0317 -0.0048
  338MOL0     H44563   9.569   3.857   8.896 -1.3924  0.0934  0.0048
  338MOL0     H44564   9.594   3.992   8.813 -1.1936 -0.0708  0.1250
  338MOL0     H44565   9.409   3.953   9.048  2.1563 -0.2351  0.4640
  338MOL0     H44566   9.409   4.115   8.975  0.8420  0.0181 -1.6661
  338MOL0     H44567   9.216   4.003   8.902  0.5619  0.1587  1.7717
  338MOL0     H44568   9.320   3.865   8.834 -0.4522 -0.1027 -0.9213
  338MOL0     H44569   9.303   3.865   8.579 -0.5194 -0.2465 -1.5498
  338MOL0     H44570   9.372   3.930   8.335 -0.9102 -0.0562  0.3846
  338MOL0     H44571   9.383   4.105   8.310  0.1978  0.3210  1.1493
  338MOL0     H44572   9.139   4.127   8.365  0.9988  1.2617 -0.7720
  338MOL0     H44573   9.123   3.955   8.353  0.6118 -0.0913 -0.3208
  338MOL0     H44574   9.224   4.122   8.102  0.2169 -0.7169 -0.4322
  338MOL0     H44575   9.153   3.968   8.101  1.7606  0.4410 -0.0967
  338MOL0     H44576   9.023   4.241   8.173 -3.1069  0.6840 -2.2802
  338MOL0     H44577   8.940   4.092   8.213  0.5571  0.1652  2.2923
  338MOL0     H44578   8.975   4.383   7.986  1.1659 -2.1972 -2.8353
  338MOL0     H44579   8.773   4.520   7.940  0.1465 -0.8392 -0.4181
  338MOL0     H44580   8.285   4.568   8.039  0.0197  0.4919 -1.8062
  338MOL0     H44581   8.062   4.607   8.051  0.9560  1.3051 -1.8308
  338MOL0     H44582   7.788   4.670   7.994 -0.0168  0.1215 -0.5171
  338MOL0     H44583   7.858   4.526   8.059  1.5088 -2.6319 -2.5512
  338MOL0     H44584   7.624   4.508   8.086 -0.9975 -2.0888 -0.3742
  338MOL0     H44585   7.667   4.395   7.962 -0.1583  0.5045  0.3989
  338MOL0     H44586   7.455   4.512   7.919 -0.3926  2.0118  1.6338
  338MOL0     H44587   7.576   4.553   7.789 -0.3948  0.9441 -0.8538
  338MOL0     H44588   7.507   4.730   8.025  1.5504  2.5139  0.3575
  338MOL0     H44589   7.618   4.779   7.910 -1.3727  1.7643 -1.5072
  338MOL0     H44590   7.425   4.734   7.734  2.4513 -1.1598  0.3965
  338MOL0     H44591   7.418   4.882   7.839  0.1812 -0.7541 -0.1108
  338MOL0     H44592   7.283   4.789   8.002  1.9638  0.5032 -0.5422
  338MOL0     H44593   7.280   4.625   7.934  0.1670 -0.4246  0.2684
  338MOL0     H44594   7.156   4.873   7.785 -0.1374  0.9122  2.5112
  338MOL0     H44595   7.158   4.712   7.726 -2.0616  0.7189 -0.3174
  338MOL0     H44596   7.029   4.806   7.982  0.3716  3.9372 -1.8699
  338MOL0     H44597   7.025   4.648   7.929  1.1225  0.1065  0.2230
  338MOL0     H44598   7.996   4.383   7.688 -0.2191  2.7481 -1.3506
  338MOL0     H44599   8.240   4.299   7.714 -0.5247  1.6995 -0.9326
  338MOL0     H44600   8.528   4.164   7.923  0.0189  0.6239 -0.3651
  338MOL0     H44601   8.742   4.022   7.963 -1.6379 -0.5444  1.5562
  338MOL0     H44602   9.988   3.560   9.414 -0.2838 -1.3347 -1.0436
  338MOL0     H44603  10.137   3.445   9.593  1.2624  0.2958  0.8997
  338MOL0     H44604  10.490   3.205   9.646  1.6699  0.9711 -2.2736
  338MOL0     H44605  10.671   3.055   9.723 -0.4336 -1.0367  1.3237
  338MOL0     H44606  10.949   3.216  10.058  1.2695  1.0679  0.3967
  338MOL0     H44607  11.037   3.246   9.910  0.6341  0.2451 -0.6445
  338MOL0     H44608  11.097   3.005   9.924 -0.5992 -0.4626 -0.4089
  338MOL0     H44609  11.149   3.109  10.051  0.7374  0.9603 -0.9633
  338MOL0     H44610  10.887   2.940  10.062 -0.5436 -2.5175  1.4079
  338MOL0     H44611  10.961   3.017  10.199 -1.5005 -1.2600 -0.2288
  338MOL0     H44612  10.972   2.770  10.185  0.4476  0.6495  0.2831
  338MOL0     H44613  11.090   2.771  10.047 -0.4747  0.5972 -2.6944
  338MOL0     H44614  11.344   2.878  10.368 -0.3154 -3.1723 -0.0929
  338MOL0     H44615  10.872   3.398   9.888 -3.3163  2.4306  2.2667
  338MOL0     H44616  10.731   3.538   9.781  1.9913  0.3408 -1.6206
  339MOL0     O44617   9.865   3.714   3.120 -0.4898  0.0950 -0.2021
  339MOL0     C44618   9.905   3.629   3.205  0.1826 -0.7613  0.6206
  339MOL0     O44619   9.841   3.595   3.324  0.1467 -0.3317  0.4180
  339MOL0     C44620   9.715   3.649   3.355  0.2604 -0.8433 -0.3695
  339MOL0     C44621   9.688   3.746   3.465 -0.2160  0.2602 -0.9252
  339MOL0     C44622   9.559   3.764   3.501  0.9060 -0.9793 -0.1150
  339MOL0     C44623   9.449   3.708   3.434  0.5722 -0.3370  0.5702
  339MOL0     O44624   9.322   3.753   3.482  0.1370  0.4569  0.4552
  339MOL0     C44625   9.203   3.698   3.419  0.7262  0.3430  0.3063
  339MOL0     C44626   9.080   3.760   3.476 -0.9591  0.5437  0.0133
  339MOL0     C44627   8.961   3.730   3.386 -0.6924 -0.1370 -0.6311
  339MOL0     C44628   8.964   3.820   3.260 -0.3769  0.3790  0.5471
  339MOL0     C44629   8.837   3.805   3.172 -0.0742 -0.5089  0.8219
  339MOL0     C44630   8.700   3.837   3.234 -0.4925  0.8048  0.1556
  339MOL0     C44631   8.587   3.804   3.139 -0.2262 -0.4609  0.4840
  339MOL0     C44632   8.454   3.844   3.206 -0.2988  0.5976  0.0878
  339MOL0     N44633   8.346   3.836   3.113 -0.4701 -0.0775  0.7102
  339MOL0     C44634   8.315   3.936   3.027  0.0768 -0.0927  0.0124
  339MOL0     C44635   8.192   3.903   2.981 -0.2614 -1.1070 -0.1398
  339MOL0     C44636   8.109   3.989   2.895 -0.7899  0.2163  0.9250
  339MOL0     C44637   8.191   4.072   2.792 -0.1996 -0.4876  0.0705
  339MOL0     C44638   8.095   4.159   2.696 -0.0123  0.9744  0.7654
  339MOL0     C44639   8.009   4.079   2.597  0.3254  0.0358  0.2437
  339MOL0     O44640   7.941   4.179   2.510  0.0117  0.6072 -0.9092
  339MOL0     C44641   7.810   4.133   2.480 -0.1804  0.0423  0.3267
  339MOL0     C44642   7.774   4.008   2.430 -0.3997 -0.3079 -0.1157
  339MOL0     C44643   7.638   3.987   2.401 -0.3147 -0.7587 -0.6302
  339MOL0     C44644   7.538   4.082   2.433  0.6310  0.1366  0.4427
  339MOL0     C44645   7.397   4.052   2.402  0.2180  0.9749  0.2949
  339MOL0     O44646   7.305   4.151   2.455  0.0014 -0.3889 -0.4676
  339MOL0     C44647   7.167   4.155   2.434 -0.6733  0.0168 -0.0347
  339MOL0     C44648   7.094   4.060   2.378  0.4314 -0.1725 -0.2911
  339MOL0     C44649   6.958   4.080   2.346  1.1150 -0.4387  0.6580
  339MOL0     C44650   6.890   4.202   2.368 -0.2832  0.3952  0.6942
  339MOL0     O44651   6.762   4.238   2.344 -0.1841  0.3897  0.0493
  339MOL0     C44652   6.685   4.133   2.277 -0.0909 -0.0255 -0.1696
  339MOL0     C44653   6.555   4.196   2.202  0.4373 -0.4945 -0.3677
  339MOL0     C44654   6.432   4.223   2.297  0.1177 -1.0302 -0.0195
  339MOL0     C44655   6.323   4.292   2.211 -0.1265  0.7017 -0.2894
  339MOL0     C44656   6.199   4.306   2.299 -0.3177 -0.4041 -0.1986
  339MOL0     C44657   6.073   4.301   2.207 -0.3013 -0.4370 -0.5340
  339MOL0     C44658   5.943   4.341   2.284  0.4078  0.1802 -0.2424
  339MOL0     C44659   5.813   4.325   2.194 -0.8720  0.3039 -0.4520
  339MOL0    Cl44660   5.685   4.408   2.280 -0.1870  0.3586 -0.5690
  339MOL0     C44661   6.965   4.301   2.431 -0.4236  0.3698  0.7690
  339MOL0     C44662   7.094   4.272   2.469 -0.6145  0.1245  0.4985
  339MOL0     O44663   7.364   3.951   2.328  0.0361 -0.1866  0.4855
  339MOL0     C44664   7.577   4.211   2.476  0.6287  0.0600 -0.0001
  339MOL0     C44665   7.716   4.230   2.485  0.3365 -0.6013  0.9929
  339MOL0     N44666   8.158   3.779   3.038  0.3995 -0.1842 -0.4753
  339MOL0     N44667   8.252   3.735   3.122  0.3013 -0.4116  0.2660
  339MOL0     C44668   9.472   3.622   3.327  0.0568 -0.4296  0.3781
  339MOL0     C44669   9.603   3.585   3.299  0.5981 -0.0394  0.9940
  339MOL0     C44670  10.029   3.557   3.165 -0.3315 -0.2041  0.2609
  339MOL0     C44671  10.096   3.484   3.266 -0.3898 -0.7168  0.3657
  339MOL0     C44672  10.219   3.431   3.244 -0.0568 -0.5277 -0.3098
  339MOL0     C44673  10.288   3.448   3.118 -0.0060  0.0709 -0.2334
  339MOL0     O44674  10.411   3.399   3.105 -0.0659  0.2781 -0.0112
  339MOL0     C44675  10.498   3.470   3.012  0.5774 -0.6092  0.0523
  339MOL0     C44676  10.642   3.422   3.029 -0.9364 -0.1762 -0.5538
  339MOL0     C44677  10.660   3.271   3.000 -0.2956  1.1829  0.0146
  339MOL0     C44678  10.719   3.248   2.863 -0.5446  0.9803  0.8349
  339MOL0     C44679  10.867   3.261   2.849  0.9516  1.1547  0.1981
  339MOL0     C44680  10.988   3.272   2.835  0.0850 -0.2792  0.9898
  339MOL0     C44681  10.216   3.513   3.011  0.8369  0.0196 -0.3643
  339MOL0     C44682  10.086   3.569   3.039 -0.4600 -0.2878  0.4799
  339MOL0     H44683   9.770   3.792   3.519  1.3633 -0.8374 -2.2833
  339MOL0     H44684   9.549   3.833   3.584  3.5123 -1.2988  0.5542
  339MOL0     H44685   9.200   3.589   3.418  0.3200  0.3526 -0.9255
  339MOL0     H44686   9.206   3.726   3.313  0.3240 -1.7589 -0.2981
  339MOL0     H44687   9.094   3.869   3.470 -0.9009  0.4787 -1.7349
  339MOL0     H44688   9.070   3.724   3.578 -0.7131  0.0170 -0.1486
  339MOL0     H44689   8.872   3.744   3.447 -1.1604  1.5654 -1.6148
  339MOL0     H44690   8.958   3.626   3.354 -1.7059  0.5216 -2.9077
  339MOL0     H44691   8.988   3.923   3.289  0.0839  0.0694  1.2890
  339MOL0     H44692   9.046   3.787   3.197 -0.9349  0.4731 -0.2424
  339MOL0     H44693   8.820   3.708   3.125 -0.9246 -0.4560  1.0024
  339MOL0     H44694   8.855   3.864   3.082 -1.3689 -0.9857  0.2301
  339MOL0     H44695   8.701   3.941   3.267 -1.7087  0.7390  0.4275
  339MOL0     H44696   8.686   3.773   3.322  3.2674 -0.4877  0.0097
  339MOL0     H44697   8.590   3.869   3.051  0.9372  0.8427  1.4520
  339MOL0     H44698   8.585   3.697   3.117  1.3644 -0.7467  1.5195
  339MOL0     H44699   8.459   3.950   3.233 -1.0005  0.8960 -0.9003
  339MOL0     H44700   8.445   3.775   3.291  2.3474  0.2953  0.1876
  339MOL0     H44701   8.362   4.032   3.005  2.2754 -0.8195  1.2728
  339MOL0     H44702   8.053   4.057   2.960 -0.2558  1.3187  0.2817
  339MOL0     H44703   8.043   3.926   2.836  0.0215  0.9121 -0.8161
  339MOL0     H44704   8.257   4.009   2.733  1.8014  1.2350  0.3482
  339MOL0     H44705   8.260   4.144   2.838  0.0796  1.0297 -2.5142
  339MOL0     H44706   8.038   4.234   2.751  2.0577  2.1361  1.4712
  339MOL0     H44707   8.167   4.222   2.644 -1.4140  4.8659  3.1360
  339MOL0     H44708   7.941   4.010   2.647  0.7539  1.1422  2.4731
  339MOL0     H44709   8.080   4.018   2.539 -0.9169 -0.4848 -0.7620
  339MOL0     H44710   7.850   3.936   2.401  3.5862  2.9187  1.3225
  339MOL0     H44711   7.604   3.898   2.348 -0.5886  0.2607 -2.2204
  339MOL0     H44712   7.127   3.962   2.344  0.8105  0.4453 -1.7970
  339MOL0     H44713   6.912   3.994   2.298  2.7707 -0.4407 -1.0979
  339MOL0     H44714   6.648   4.070   2.359  2.8251 -0.4883  0.8844
  339MOL0     H44715   6.730   4.064   2.206 -1.7054 -1.9181  0.5340
  339MOL0     H44716   6.531   4.129   2.119  2.2125  0.0715 -1.3880
  339MOL0     H44717   6.565   4.294   2.155 -2.3281  0.1927  0.2835
  339MOL0     H44718   6.459   4.293   2.377 -0.2929 -0.2664 -0.5373
  339MOL0     H44719   6.400   4.126   2.338 -1.9909 -1.2717 -2.0282
  339MOL0     H44720   6.364   4.383   2.167  0.8865 -0.7524 -2.5863
  339MOL0     H44721   6.299   4.224   2.128 -0.8205 -1.7023  1.7659
  339MOL0     H44722   6.199   4.398   2.358  1.0546 -0.2186 -0.4637
  339MOL0     H44723   6.191   4.226   2.374 -1.1106  0.3140  0.5016
  339MOL0     H44724   6.068   4.198   2.171 -0.1280 -0.3963 -0.6691
  339MOL0     H44725   6.075   4.370   2.122  1.9308 -0.1046 -0.2690
  339MOL0     H44726   5.929   4.278   2.373  1.2708 -0.2122 -0.3729
  339MOL0     H44727   5.950   4.446   2.313 -1.4991  0.1934  0.2879
  339MOL0     H44728   5.786   4.220   2.184 -0.7699  0.2757 -0.4312
  339MOL0     H44729   5.819   4.364   2.092 -1.1579 -0.4496 -0.7638
  339MOL0     H44730   6.915   4.395   2.453  0.9979  1.3497 -0.0142
  339MOL0     H44731   7.147   4.352   2.521 -0.8061 -0.8973  2.3338
  339MOL0     H44732   7.505   4.286   2.508 -1.0737 -1.4178 -0.2403
  339MOL0     H44733   7.750   4.330   2.505  4.2800 -1.5435 -0.1638
  339MOL0     H44734   9.392   3.586   3.263 -0.7671  0.5822  0.8136
  339MOL0     H44735   9.620   3.516   3.217  0.8742  1.5443 -0.3330
  339MOL0     H44736  10.056   3.492   3.366 -0.4983  0.4111  0.2367
  339MOL0     H44737  10.280   3.395   3.327 -0.6947 -0.0666  0.3752
  339MOL0     H44738  10.490   3.579   3.025 -2.8901 -1.0265  2.9732
  339MOL0     H44739  10.465   3.447   2.910 -2.4602  0.9006  0.5845
  339MOL0     H44740  10.704   3.475   2.956 -0.6437  0.2432 -0.0101
  339MOL0     H44741  10.670   3.452   3.131 -2.3720 -0.9193  0.0917
  339MOL0     H44742  10.558   3.232   3.006 -0.1237  0.9518  2.1082
  339MOL0     H44743  10.717   3.213   3.073  0.8494  1.2305 -0.8011
  339MOL0     H44744  10.686   3.149   2.829  1.7684  0.2853  0.4080
  339MOL0     H44745  10.674   3.314   2.788 -0.6482  0.0574  0.0495
  339MOL0     H44746  11.095   3.266   2.824 -0.0946 -0.0529 -1.5379
  339MOL0     H44747  10.260   3.523   2.913  2.5668  0.2076  0.4096
  339MOL0     H44748  10.023   3.611   2.962 -2.1773 -1.4667  1.1702
  340MOL0     O44749  10.237   2.740   4.396  0.1648  0.1186 -0.3036
  340MOL0     C44750  10.212   2.700   4.278  0.5445 -0.1678 -0.3560
  340MOL0     O44751  10.304   2.644   4.195  0.0246  0.4509 -0.7650
  340MOL0     C44752  10.433   2.637   4.240 -0.6184  0.4201 -0.1410
  340MOL0     C44753  10.475   2.555   4.352  0.9794 -0.2210  0.9185
  340MOL0     C44754  10.609   2.555   4.388  0.9170 -0.4970  0.3755
  340MOL0     C44755  10.699   2.626   4.316 -0.0319  1.2709 -0.5987
  340MOL0     O44756  10.827   2.622   4.353  0.7483  0.3646  0.4904
  340MOL0     C44757  10.897   2.521   4.435 -0.5099  0.3289 -0.0401
  340MOL0     C44758  11.043   2.570   4.436  0.6466  0.0463 -0.0969
  340MOL0     C44759  11.116   2.579   4.298 -0.5314  0.3570  0.3867
  340MOL0     C44760  11.142   2.440   4.244 -0.5093  0.3571  0.6473
  340MOL0     C44761  11.227   2.415   4.112 -0.0298 -0.6006 -0.4836
  340MOL0     C44762  11.219   2.269   4.069  0.4102  0.9070  0.1040
  340MOL0     C44763  11.295   2.255   3.933 -0.1283 -0.8991 -0.7560
  340MOL0     C44764  11.293   2.118   3.872 -0.1070 -0.4557 -0.4843
  340MOL0     N44765  11.363   2.134   3.739 -0.2687 -0.2710  0.2569
  340MOL0     C44766  11.499   2.159   3.718  0.1437 -0.9562  0.5658
  340MOL0     C44767  11.512   2.152   3.581  0.0584  1.1204  0.0013
  340MOL0     C44768  11.636   2.173   3.497 -0.0522  0.2147 -0.2137
  340MOL0     C44769  11.760   2.108   3.557  0.1289 -0.3299 -0.4965
  340MOL0     C44770  11.890   2.139   3.476 -0.2734 -0.1402 -0.9060
  340MOL0     C44771  11.966   2.023   3.436 -0.2430 -0.0754  0.4739
  340MOL0     O44772  11.890   1.946   3.349 -0.0711  0.2398  0.2412
  340MOL0     C44773  11.963   1.833   3.308 -0.1921  0.2370  0.4836
  340MOL0     C44774  12.043   1.836   3.198  0.3771 -0.8046 -0.5782
  340MOL0     C44775  12.128   1.727   3.159 -0.2825  0.2210 -0.2814
  340MOL0     C44776  12.125   1.603   3.232  0.5292  0.2327 -0.5646
  340MOL0     C44777  12.209   1.491   3.189 -1.0024 -0.1845  0.2095
  340MOL0     O44778  12.287   1.513   3.075  0.3331 -0.2047  0.6373
  340MOL0     C44779  12.376   1.426   3.022 -0.1046  0.1387 -0.9508
  340MOL0     C44780  12.390   1.409   2.884  0.2405 -0.0546  0.6143
  340MOL0     C44781  12.486   1.319   2.835  0.2606 -0.3415  0.2298
  340MOL0     C44782  12.564   1.242   2.923 -0.4579  0.0362  0.0539
  340MOL0     O44783  12.655   1.143   2.894 -0.1763 -0.2836  0.0681
  340MOL0     C44784  12.671   1.111   2.758 -0.6903 -0.6139 -0.9495
  340MOL0     C44785  12.781   1.001   2.727 -0.1000  0.5044  0.2129
  340MOL0     C44786  12.756   0.944   2.581 -0.0837 -0.4420  0.0287
  340MOL0     C44787  12.872   0.867   2.523 -0.0770  0.2037  0.6585
  340MOL0     C44788  12.826   0.808   2.389  0.4164 -0.2178 -0.2494
  340MOL0     C44789  12.925   0.719   2.316  0.5948  0.1545  0.7796
  340MOL0     C44790  13.047   0.799   2.270 -0.1317  0.9642  0.1085
  340MOL0     C44791  13.133   0.699   2.187  0.2667  0.1636 -0.4469
  340MOL0    Cl44792  13.292   0.777   2.137 -0.0683  0.1744 -0.0457
  340MOL0     C44793  12.554   1.268   3.054 -1.1214  0.4715  0.1990
  340MOL0     C44794  12.462   1.352   3.112  0.4020 -0.3185  1.0815
  340MOL0     O44795  12.216   1.384   3.252  0.5957  0.1068  0.5030
  340MOL0     C44796  12.029   1.594   3.334 -0.0770  0.4157  0.2529
  340MOL0     C44797  11.962   1.710   3.377  0.4637  0.0363  0.2776
  340MOL0     N44798  11.393   2.120   3.524  0.2178 -0.0329  0.4947
  340MOL0     N44799  11.303   2.133   3.618 -0.1020 -0.0589 -1.0615
  340MOL0     C44800  10.664   2.698   4.204 -0.7506 -0.0436 -0.4880
  340MOL0     C44801  10.529   2.702   4.166  0.0864 -0.6430 -0.0449
  340MOL0     C44802  10.075   2.701   4.227 -0.7650  0.1249  0.6298
  340MOL0     C44803  10.042   2.670   4.094 -0.0214  0.9116  0.2121
  340MOL0     C44804   9.911   2.630   4.052 -0.9790  0.6607 -0.0383
  340MOL0     C44805   9.809   2.638   4.144  0.6541  0.2466  0.6707
  340MOL0     O44806   9.677   2.615   4.107  0.5295 -0.4133  0.2874
  340MOL0     C44807   9.642   2.531   3.996  0.5896  0.3821  0.1516
  340MOL0     C44808   9.513   2.456   4.022 -0.1082 -0.1297 -0.3112
  340MOL0     C44809   9.399   2.563   4.006  0.2896 -0.3129  0.1515
  340MOL0     C44810   9.278   2.516   4.094  0.4921  0.5461  0.2568
  340MOL0     C44811   9.150   2.590   4.073 -0.8657 -0.2922  0.6616
  340MOL0     C44812   9.055   2.656   4.055  0.3371 -0.4802  0.2504
  340MOL0     C44813   9.831   2.666   4.278 -0.4451 -0.4224  0.1126
  340MOL0     C44814   9.964   2.702   4.319  0.8074 -0.2391  0.0245
  340MOL0     H44815  10.400   2.505   4.413 -1.2150  2.6788  0.8247
  340MOL0     H44816  10.639   2.493   4.471 -4.0282 -1.7599  1.5773
  340MOL0     H44817  10.904   2.420   4.392  1.0932  0.2839  0.2632
  340MOL0     H44818  10.870   2.508   4.540 -0.2230 -2.3065 -0.2219
  340MOL0     H44819  11.105   2.497   4.489 -0.0202 -1.4648 -1.3118
  340MOL0     H44820  11.044   2.672   4.476  1.6397  0.4876 -1.1790
  340MOL0     H44821  11.210   2.633   4.308  0.2517 -0.7613 -0.7409
  340MOL0     H44822  11.058   2.637   4.226 -0.0406 -1.1891 -1.3106
  340MOL0     H44823  11.188   2.371   4.316 -1.3908 -1.6120 -0.5758
  340MOL0     H44824  11.043   2.397   4.225 -1.1183  1.3805  1.3657
  340MOL0     H44825  11.331   2.440   4.136  0.4353 -0.1571 -2.6960
  340MOL0     H44826  11.186   2.479   4.033 -1.9195 -0.5118  0.5119
  340MOL0     H44827  11.115   2.240   4.053  0.7210  0.7192 -1.7829
  340MOL0     H44828  11.258   2.204   4.149 -1.2911 -1.0781 -0.5863
  340MOL0     H44829  11.259   2.329   3.860 -0.5912  0.5941  0.9140
  340MOL0     H44830  11.399   2.287   3.946 -1.2721  4.0356 -1.6702
  340MOL0     H44831  11.188   2.087   3.865 -0.9737  1.5435  2.1796
  340MOL0     H44832  11.352   2.044   3.927 -2.6101 -1.7805  0.5765
  340MOL0     H44833  11.575   2.197   3.786  1.3018 -3.6231  0.9014
  340MOL0     H44834  11.652   2.281   3.506 -0.3466  0.2008  0.6210
  340MOL0     H44835  11.623   2.138   3.395  1.5690 -0.1186 -0.3315
  340MOL0     H44836  11.738   2.001   3.544  1.8227 -0.6291 -1.1027
  340MOL0     H44837  11.766   2.133   3.663  1.0290  0.2621 -0.6846
  340MOL0     H44838  11.865   2.201   3.389 -1.4944  0.5608 -0.0921
  340MOL0     H44839  11.968   2.198   3.527 -1.8591  0.3433  1.1004
  340MOL0     H44840  11.988   1.962   3.525  0.2441  0.4341  0.7155
  340MOL0     H44841  12.062   2.052   3.391 -0.4475  0.1135  0.1606
  340MOL0     H44842  12.043   1.924   3.135 -1.4364 -0.1169  0.3094
  340MOL0     H44843  12.188   1.720   3.069  0.4974 -3.8157  0.3716
  340MOL0     H44844  12.328   1.467   2.817  1.1837  1.4286  0.9711
  340MOL0     H44845  12.505   1.309   2.728  3.3789 -4.8600  0.9195
  340MOL0     H44846  12.696   1.200   2.700 -0.4094  0.0101  0.0971
  340MOL0     H44847  12.570   1.086   2.726 -1.0963 -0.0122 -0.1662
  340MOL0     H44848  12.774   0.924   2.804 -3.1675  1.8185  1.4237
  340MOL0     H44849  12.877   1.053   2.727 -0.3084  0.9698 -1.5008
  340MOL0     H44850  12.743   1.031   2.516 -0.4547 -0.5791 -0.0830
  340MOL0     H44851  12.661   0.889   2.581 -0.2423 -0.1985  1.3687
  340MOL0     H44852  12.950   0.942   2.512 -4.0290  4.7255  0.2588
  340MOL0     H44853  12.902   0.787   2.592  0.2252 -0.6579 -0.4505
  340MOL0     H44854  12.791   0.886   2.321 -0.0991 -0.8699 -0.7541
  340MOL0     H44855  12.742   0.741   2.413 -0.8234  0.9764 -1.0721
  340MOL0     H44856  12.877   0.678   2.227 -0.5031 -2.1244  2.3159
  340MOL0     H44857  12.961   0.638   2.379  1.7186  0.8535  1.0638
  340MOL0     H44858  13.015   0.888   2.216 -1.7639  0.0065 -0.5878
  340MOL0     H44859  13.104   0.829   2.359 -1.4340 -2.0576  2.1635
  340MOL0     H44860  13.081   0.670   2.096  2.5912 -0.7290 -1.5667
  340MOL0     H44861  13.147   0.612   2.251  3.3339  0.5624 -0.3963
  340MOL0     H44862  12.626   1.217   3.117  0.5544 -0.6656 -2.4598
  340MOL0     H44863  12.454   1.369   3.219  0.1603 -0.0176  1.0193
  340MOL0     H44864  12.021   1.495   3.377  3.2293 -0.1367 -0.1316
  340MOL0     H44865  11.900   1.707   3.466  1.3549  3.0735  1.1061
  340MOL0     H44866  10.741   2.753   4.151 -0.7549 -0.4813 -0.9644
  340MOL0     H44867  10.489   2.762   4.086 -0.0148 -1.3659 -0.5462
  340MOL0     H44868  10.115   2.659   4.014 -0.2776 -1.7399  0.2374
  340MOL0     H44869   9.896   2.594   3.951 -0.7534  1.1432 -0.2457
  340MOL0     H44870   9.720   2.457   3.971 -1.4145 -1.3399 -1.3704
  340MOL0     H44871   9.623   2.582   3.901  0.6476  1.0421  0.4923
  340MOL0     H44872   9.507   2.380   3.944 -1.3468  1.3537 -1.7486
  340MOL0     H44873   9.527   2.421   4.125  1.9978  1.0162 -0.1499
  340MOL0     H44874   9.372   2.570   3.900  1.4685  1.8703 -0.0484
  340MOL0     H44875   9.432   2.657   4.050 -0.3781  0.5421 -1.1073
  340MOL0     H44876   9.267   2.414   4.057  3.6765  0.1261  0.1206
  340MOL0     H44877   9.301   2.512   4.201 -3.9060 -2.2433  1.3605
  340MOL0     H44878   8.963   2.703   4.027 -0.3533 -1.0143  1.5268
  340MOL0     H44879   9.745   2.675   4.343  0.6409 -2.3814  1.9395
  340MOL0     H44880   9.971   2.748   4.417 -3.2201  1.6414 -0.3852
  341MOL0     O44881   3.651  10.394   7.190  0.7557  0.0247 -0.0522
  341MOL0     C44882   3.678  10.463   7.288  0.2228  0.3788 -0.4145
  341MOL0     O44883   3.616  10.461   7.410  0.5691  0.3880  0.3080
  341MOL0     C44884   3.488  10.404   7.425  0.3601 -1.0063  0.2224
  341MOL0     C44885   3.470  10.269   7.442 -0.5960 -0.6201  0.6903
  341MOL0     C44886   3.344  10.218   7.457 -0.2330  0.2311 -0.0637
  341MOL0     C44887   3.231  10.307   7.457  0.5590  0.6228  0.1426
  341MOL0     O44888   3.108  10.250   7.466 -0.7642  0.8148 -0.1638
  341MOL0     C44889   3.025  10.260   7.352  0.1084  0.1237 -0.6320
  341MOL0     C44890   2.927  10.136   7.338 -0.3672 -0.6650 -0.1461
  341MOL0     C44891   2.996  10.024   7.257  0.1839 -0.4958 -1.2673
  341MOL0     C44892   2.884   9.927   7.209 -0.9056 -0.2280 -0.3578
  341MOL0     C44893   2.941   9.837   7.105  0.2304 -0.1415  0.5875
  341MOL0     C44894   2.846   9.728   7.067  0.4128  0.1098 -1.3460
  341MOL0     C44895   2.717   9.780   6.996 -0.3922  0.1098  0.5191
  341MOL0     C44896   2.618   9.666   6.977  0.7568 -0.0729 -0.8280
  341MOL0     N44897   2.503   9.721   6.903  0.4945 -0.1294 -0.3551
  341MOL0     C44898   2.373   9.709   6.943 -0.3370 -0.4732 -0.5250
  341MOL0     C44899   2.301   9.758   6.835 -0.9970  0.1782 -1.5012
  341MOL0     C44900   2.158   9.776   6.830  0.5075 -0.1095 -0.0318
  341MOL0     C44901   2.093   9.663   6.764  0.0647  0.8598 -0.0401
  341MOL0     C44902   1.945   9.685   6.764  0.1466 -0.2357  0.3509
  341MOL0     C44903   1.872   9.560   6.706  0.2195  0.6526 -0.0939
  341MOL0     O44904   1.739   9.607   6.672 -0.4420 -0.1199 -0.1725
  341MOL0     C44905   1.640   9.653   6.764  0.2774 -0.5399 -0.1697
  341MOL0     C44906   1.561   9.764   6.735 -0.0188  0.5672 -0.4489
  341MOL0     C44907   1.464   9.815   6.822  0.4771  0.6025 -0.2611
  341MOL0     C44908   1.446   9.756   6.948  0.1521  1.0121 -0.0277
  341MOL0     C44909   1.331   9.784   7.035 -0.2932 -0.6108 -0.7361
  341MOL0     O44910   1.225   9.844   6.972 -0.1781  0.2526 -0.1341
  341MOL0     C44911   1.114   9.876   7.042 -0.6255  0.1145  0.0930
  341MOL0     C44912   0.992   9.854   6.987  0.0607 -0.7936  0.2414
  341MOL0     C44913   0.881   9.882   7.061 -0.5309 -0.5902 -0.2914
  341MOL0     C44914   0.889   9.935   7.195 -0.2617  0.1262 -0.4915
  341MOL0     O44915   0.765   9.956   7.257  0.3920 -0.5248 -0.0211
  341MOL0     C44916   0.757  10.010   7.389 -0.6291 -0.1857 -0.6276
  341MOL0     C44917   0.620  10.047   7.423 -0.0591 -0.1790 -0.2809
  341MOL0     C44918   0.516   9.935   7.416 -0.6547 -0.3311 -0.1510
  341MOL0     C44919   0.386   9.985   7.480  0.0460  0.4124 -0.3326
  341MOL0     C44920   0.264   9.893   7.466  1.0592 -0.4548  0.3510
  341MOL0     C44921   0.203   9.903   7.325  0.5281 -0.6859 -0.5780
  341MOL0     C44922   0.101   9.796   7.298  0.0846  0.0988  0.9485
  341MOL0     C44923  -0.019   9.818   7.391  0.8182  0.8896 -0.6765
  341MOL0    Cl44924  -0.160   9.715   7.328 -0.1114  0.2160  0.0143
  341MOL0     C44925   1.022   9.960   7.246 -0.1892 -0.1017 -0.1310
  341MOL0     C44926   1.131   9.936   7.165  0.2346 -0.2437  0.1347
  341MOL0     O44927   1.319   9.722   7.145 -0.3538 -0.1263 -0.4421
  341MOL0     C44928   1.516   9.640   6.981 -0.7394  0.5491  0.0785
  341MOL0     C44929   1.618   9.599   6.893 -1.1088 -0.7005  0.0912
  341MOL0     N44930   2.388   9.789   6.731  0.5241 -0.4844 -0.3521
  341MOL0     N44931   2.509   9.761   6.771 -0.3252 -0.0120  0.5708
  341MOL0     C44932   3.254  10.447   7.448  0.3899  0.2652 -0.0636
  341MOL0     C44933   3.383  10.499   7.430 -0.1679  0.2884 -0.7067
  341MOL0     C44934   3.797  10.551   7.273  0.2764 -0.7858  0.0280
  341MOL0     C44935   3.882  10.533   7.163 -0.0279 -0.2980 -0.1679
  341MOL0     C44936   4.003  10.597   7.155  0.7264 -0.8108 -0.2175
  341MOL0     C44937   4.029  10.704   7.240  0.0107  0.0177 -0.2407
  341MOL0     O44938   4.134  10.792   7.208 -0.5855  0.1974  0.0992
  341MOL0     C44939   4.137  10.924   7.251 -0.1691  0.0453  0.2578
  341MOL0     C44940   4.243  10.998   7.162 -0.1359 -0.6732 -0.2641
  341MOL0     C44941   4.379  10.939   7.156  0.0123 -0.4391 -0.4612
  341MOL0     C44942   4.444  10.952   7.293 -0.7194  0.2433  0.3242
  341MOL0     C44943   4.591  10.944   7.274  0.0261  0.0860  0.5229
  341MOL0     C44944   4.713  10.944   7.242  0.6191  0.4199 -0.4216
  341MOL0     C44945   3.933  10.739   7.340  0.0424  0.1894  0.3757
  341MOL0     C44946   3.828  10.658   7.365  0.4423 -0.9873 -0.2924
  341MOL0     H44947   3.567  10.222   7.441  0.9178  2.2318 -1.6370
  341MOL0     H44948   3.331  10.111   7.475  1.7098 -0.0088  0.1143
  341MOL0     H44949   3.087  10.247   7.263  1.8573 -0.4724  0.6182
  341MOL0     H44950   2.969  10.354   7.341 -0.7370 -0.1291  1.1674
  341MOL0     H44951   2.836  10.164   7.286 -0.7397 -0.2625  0.7065
  341MOL0     H44952   2.900  10.097   7.437  0.7162  1.8219  1.2347
  341MOL0     H44953   3.072   9.975   7.318 -1.9862 -2.0244  0.3507
  341MOL0     H44954   3.033  10.079   7.170  0.9118  1.3953  0.1601
  341MOL0     H44955   2.866   9.870   7.301 -0.8724  0.7458  0.2727
  341MOL0     H44956   2.789   9.970   7.176 -0.8104 -0.7277 -1.3022
  341MOL0     H44957   3.031   9.790   7.146  1.3565  1.5566  0.1602
  341MOL0     H44958   2.962   9.895   7.015 -3.3851  3.6483  1.8669
  341MOL0     H44959   2.811   9.677   7.157  0.6542  0.6256 -0.9538
  341MOL0     H44960   2.891   9.650   7.005  0.5423 -1.0906  0.1887
  341MOL0     H44961   2.666   9.867   7.038  0.9246  1.9024 -1.3715
  341MOL0     H44962   2.755   9.809   6.897 -0.4896  1.9028  0.9770
  341MOL0     H44963   2.584   9.638   7.077  0.0623 -1.0448 -1.3175
  341MOL0     H44964   2.666   9.579   6.931  1.4830 -0.4396  0.5592
  341MOL0     H44965   2.332   9.678   7.039 -1.7218  2.3863 -0.1027
  341MOL0     H44966   2.139   9.871   6.779  0.4701  0.7588  1.5517
  341MOL0     H44967   2.117   9.779   6.931  0.5551 -0.4802 -0.0010
  341MOL0     H44968   2.119   9.568   6.811 -2.0112 -0.7585 -1.9175
  341MOL0     H44969   2.128   9.636   6.664 -1.0686 -1.8859  0.2105
  341MOL0     H44970   1.903   9.693   6.865 -0.0391 -1.2600  0.3683
  341MOL0     H44971   1.925   9.775   6.705 -4.8357 -0.7517  0.8073
  341MOL0     H44972   1.872   9.474   6.773 -0.6319  0.6206 -0.1253
  341MOL0     H44973   1.931   9.523   6.622  0.7998 -3.3925  1.8700
  341MOL0     H44974   1.580   9.810   6.638  3.2612  2.4772  0.9467
  341MOL0     H44975   1.404   9.901   6.792  1.8358  1.1884 -1.3837
  341MOL0     H44976   0.984   9.822   6.884  2.2737  2.3090 -1.0662
  341MOL0     H44977   0.783   9.860   7.018 -0.5295  0.0020 -0.5999
  341MOL0     H44978   0.817  10.101   7.399  0.0028 -0.8585  2.9631
  341MOL0     H44979   0.804   9.945   7.464 -0.4225  2.3202  1.5516
  341MOL0     H44980   0.587  10.133   7.364  0.9500  1.4756  1.4304
  341MOL0     H44981   0.629  10.087   7.525 -0.0964 -3.3301  1.0822
  341MOL0     H44982   0.566   9.858   7.475  2.6472  0.3995 -1.7706
  341MOL0     H44983   0.506   9.892   7.317  2.4266 -2.7119  0.4203
  341MOL0     H44984   0.404   9.985   7.588  1.4573  0.8522 -0.5558
  341MOL0     H44985   0.361  10.083   7.437 -0.4531 -0.3460 -1.8530
  341MOL0     H44986   0.184   9.910   7.538  1.2874  1.8937  0.1029
  341MOL0     H44987   0.297   9.792   7.494 -1.6093 -1.5497 -0.1568
  341MOL0     H44988   0.285   9.897   7.253  0.5723  2.6347 -0.9571
  341MOL0     H44989   0.158  10.001   7.312 -0.4475 -1.0471 -0.0721
  341MOL0     H44990   0.064   9.810   7.196  0.8411 -1.6472  0.4035
  341MOL0     H44991   0.134   9.693   7.315  1.1198  0.1332 -0.7112
  341MOL0     H44992  -0.051   9.923   7.385  1.4619  1.1118 -0.3709
  341MOL0     H44993   0.001   9.792   7.496 -1.9553  0.0164 -0.2699
  341MOL0     H44994   1.030  10.005   7.344  0.0359 -3.4504  1.5217
  341MOL0     H44995   1.231   9.955   7.203  0.3405  1.6174 -0.9748
  341MOL0     H44996   1.493   9.573   7.063 -1.1013 -0.9989 -1.2506
  341MOL0     H44997   1.676   9.510   6.915 -2.2297 -0.8457  2.8887
  341MOL0     H44998   3.184  10.529   7.459 -0.1760 -0.4431  2.4107
  341MOL0     H44999   3.413  10.604   7.428  0.2370  0.2303  1.1002
  341MOL0     H45000   3.855  10.462   7.085  0.4613 -1.0333  0.3195
  341MOL0     H45001   4.062  10.589   7.064 -0.1535  1.2484 -1.0373
  341MOL0     H45002   4.165  10.926   7.357  0.9866  1.9069 -0.0217
  341MOL0     H45003   4.041  10.975   7.241  0.1599  0.7969  0.8362
  341MOL0     H45004   4.206  11.016   7.060  1.3371  1.1061 -0.5491
  341MOL0     H45005   4.248  11.099   7.203 -0.5807 -0.6416 -0.2835
  341MOL0     H45006   4.428  10.983   7.070 -1.0481  0.2444 -0.7334
  341MOL0     H45007   4.378  10.834   7.125 -3.1174 -0.2079 -1.5396
  341MOL0     H45008   4.423  11.051   7.333 -0.8450  1.9752 -3.5618
  341MOL0     H45009   4.409  10.865   7.349  0.9381 -1.6887 -1.4412
  341MOL0     H45010   4.819  10.944   7.228  1.3497  4.7918  3.1119
  341MOL0     H45011   3.957  10.816   7.413  0.5289 -2.2894  2.9611
  341MOL0     H45012   3.770  10.671   7.456 -0.7720  1.4128 -1.3203
  342MOL0     O45013   9.842   1.668  10.652  1.2423  0.0657 -1.1115
  342MOL0     C45014   9.919   1.738  10.710  0.3162  0.4656 -0.3206
  342MOL0     O45015   9.888   1.826  10.798  0.5362 -0.0529 -0.4923
  342MOL0     C45016   9.761   1.876  10.808 -0.8870  0.2665 -0.0488
  342MOL0     C45017   9.659   1.795  10.851  0.3652  0.1053  0.3457
  342MOL0     C45018   9.543   1.849  10.900  0.6873 -0.6609 -0.6909
  342MOL0     C45019   9.523   1.990  10.890  0.1492  0.6667 -0.1381
  342MOL0     O45020   9.408   2.060  10.915  0.0563  0.4351  0.1000
  342MOL0     C45021   9.287   1.994  10.954  0.5350  0.3275  0.0385
  342MOL0     C45022   9.171   2.089  10.929 -0.3379 -0.9065  0.0798
  342MOL0     C45023   9.039   2.026  10.914  0.4842 -0.1903 -0.0797
  342MOL0     C45024   8.931   2.126  10.947  0.1683 -0.7969  0.1688
  342MOL0     C45025   8.800   2.078  10.876  0.2116 -0.2507  0.3288
  342MOL0     C45026   8.698   2.186  10.905 -0.1207 -0.1590 -0.2961
  342MOL0     C45027   8.562   2.142  10.845 -0.8351  0.1284 -0.2914
  342MOL0     C45028   8.445   2.251  10.843 -0.7246 -0.6259  0.3975
  342MOL0     N45029   8.335   2.196  10.765 -0.0662 -0.9477 -0.6458
  342MOL0     C45030   8.324   2.188  10.626  0.8641 -0.2668 -0.0608
  342MOL0     C45031   8.212   2.108  10.606 -0.0087  0.5425  0.1127
  342MOL0     C45032   8.143   2.080  10.473 -1.0344  0.6835  0.1093
  342MOL0     C45033   8.027   2.174  10.441 -0.0570  0.3642  0.1643
  342MOL0     C45034   7.972   2.137  10.296  0.3317 -0.1627  0.3341
  342MOL0     C45035   7.832   2.194  10.276 -0.1174 -1.0272  0.1857
  342MOL0     O45036   7.793   2.175  10.137  0.5852 -1.0325 -0.5121
  342MOL0     C45037   7.681   2.243  10.108 -0.2408 -0.3625  0.6496
  342MOL0     C45038   7.589   2.303  10.193 -0.0111  0.1813  0.1448
  342MOL0     C45039   7.470   2.361  10.149 -0.9307 -0.4916 -0.2621
  342MOL0     C45040   7.447   2.379  10.013 -0.5785  0.1548 -0.3404
  342MOL0     C45041   7.322   2.446   9.978 -1.0223  0.8133  0.8806
  342MOL0     O45042   7.248   2.501  10.083  0.2623 -0.1734  0.2839
  342MOL0     C45043   7.122   2.539  10.038 -0.0110  0.4695  0.1605
  342MOL0     C45044   7.031   2.448  10.000  0.2255  0.4155 -0.0765
  342MOL0     C45045   6.904   2.481   9.955  0.1784 -0.2761  0.1464
  342MOL0     C45046   6.845   2.607   9.977  0.5800  0.0925  0.1514
  342MOL0     O45047   6.709   2.626   9.947  0.2215  0.3936  0.1922
  342MOL0     C45048   6.664   2.754   9.906  0.1119  0.5473 -0.0061
  342MOL0     C45049   6.519   2.732   9.867  0.0844 -0.5906  0.7704
  342MOL0     C45050   6.414   2.731   9.973  0.2008  0.2336  0.4696
  342MOL0     C45051   6.395   2.877  10.026 -0.1568 -0.4552 -0.2959
  342MOL0     C45052   6.287   2.870  10.145  0.2838  0.0521  0.1863
  342MOL0     C45053   6.261   2.992  10.230  0.4411  0.6217 -0.3199
  342MOL0     C45054   6.187   3.107  10.151 -0.1759  0.1193 -0.9004
  342MOL0     C45055   6.180   3.243  10.229  0.6833 -0.2217 -0.3487
  342MOL0    Cl45056   6.050   3.228  10.340  0.0513 -0.3234 -0.3938
  342MOL0     C45057   6.940   2.702  10.011  0.0826 -0.0495 -0.6571
  342MOL0     C45058   7.076   2.678  10.041 -0.5632 -0.3114  0.8282
  342MOL0     O45059   7.302   2.469   9.859  0.4197 -0.3521  0.0313
  342MOL0     C45060   7.537   2.307   9.930  0.0533  0.4963 -0.2219
  342MOL0     C45061   7.655   2.245   9.971  0.5267  0.2217  0.0767
  342MOL0     N45062   8.164   2.071  10.724  0.1498 -0.2352 -0.2120
  342MOL0     N45063   8.244   2.116  10.818  0.4095  0.1195  0.4221
  342MOL0     C45064   9.633   2.067  10.851  0.2580 -0.0009  0.8022
  342MOL0     C45065   9.749   2.014  10.801 -0.5406 -0.1144 -0.4626
  342MOL0     C45066  10.060   1.710  10.697 -1.0740 -0.3830  0.7151
  342MOL0     C45067  10.103   1.657  10.577 -1.1212 -0.0079  0.7143
  342MOL0     C45068  10.235   1.631  10.551  0.5486 -0.4734 -0.0395
  342MOL0     C45069  10.333   1.668  10.643 -0.3245  1.0709  0.9722
  342MOL0     O45070  10.457   1.651  10.595  0.4243  0.1160 -0.2775
  342MOL0     C45071  10.572   1.680  10.675 -0.2179  0.0445  0.2976
  342MOL0     C45072  10.598   1.549  10.753 -0.3286 -0.3211  0.0597
  342MOL0     C45073  10.710   1.566  10.853  0.0913  0.4447  0.7936
  342MOL0     C45074  10.741   1.439  10.921  0.0247  0.4593 -0.4160
  342MOL0     C45075  10.634   1.407  11.002 -0.5428  0.5102 -0.5920
  342MOL0     C45076  10.548   1.379  11.082  1.1511 -0.2446  0.8018
  342MOL0     C45077  10.294   1.707  10.768  0.1649 -1.1291  0.0972
  342MOL0     C45078  10.160   1.738  10.794 -0.2935  0.3947  0.0213
  342MOL0     H45079   9.669   1.687  10.850 -3.0408 -0.3346  1.2936
  342MOL0     H45080   9.475   1.782  10.951 -0.1059  0.4791 -0.2222
  342MOL0     H45081   9.282   1.962  11.059  0.8991 -0.8683 -0.2944
  342MOL0     H45082   9.286   1.912  10.882 -1.2086 -0.7421  1.2049
  342MOL0     H45083   9.196   2.148  10.840 -1.3738 -1.2051 -0.4339
  342MOL0     H45084   9.167   2.167  11.005 -1.5699 -0.3885 -0.4860
  342MOL0     H45085   9.041   1.942  10.984  2.8001  0.7438  1.0986
  342MOL0     H45086   9.028   1.974  10.819 -1.1167  0.7254 -0.4278
  342MOL0     H45087   8.908   2.140  11.053 -0.1603  0.5358 -0.0660
  342MOL0     H45088   8.952   2.223  10.902  0.8243 -0.3622  1.3823
  342MOL0     H45089   8.770   1.980  10.915 -0.6938  0.4229  1.3810
  342MOL0     H45090   8.801   2.057  10.768 -2.1822 -1.7674  0.5252
  342MOL0     H45091   8.743   2.268  10.848  1.1496 -0.5640  0.1059
  342MOL0     H45092   8.683   2.214  11.010 -1.7809  0.5056 -0.6649
  342MOL0     H45093   8.581   2.118  10.740 -0.1028 -1.5324  0.1747
  342MOL0     H45094   8.524   2.058  10.905 -0.7575  0.9728  0.9743
  342MOL0     H45095   8.485   2.343  10.798  1.3148 -1.3402  0.6216
  342MOL0     H45096   8.401   2.280  10.938 -0.8099 -0.0635  0.1894
  342MOL0     H45097   8.389   2.229  10.549  0.3377 -0.0825 -0.4142
  342MOL0     H45098   8.100   1.979  10.481  0.6386  0.0133  1.1250
  342MOL0     H45099   8.222   2.075  10.397 -0.8134 -0.8533  0.3922
  342MOL0     H45100   8.054   2.280  10.434 -1.3829  0.7882  0.9701
  342MOL0     H45101   7.948   2.169  10.517 -0.5854 -0.1899 -0.4147
  342MOL0     H45102   8.049   2.177  10.229 -0.7464  1.7186  0.1550
  342MOL0     H45103   7.963   2.028  10.287  0.5368 -0.1278 -0.3033
  342MOL0     H45104   7.836   2.300  10.302  0.0420 -1.2806  1.2070
  342MOL0     H45105   7.768   2.137  10.344  0.8445 -3.1178 -0.5693
  342MOL0     H45106   7.596   2.314  10.301  0.6738 -1.1336  0.2527
  342MOL0     H45107   7.408   2.414  10.221 -1.6165 -1.6093 -0.0044
  342MOL0     H45108   7.059   2.343  10.000  0.8190  0.5333 -1.6933
  342MOL0     H45109   6.839   2.405   9.913  0.7439 -1.6382  1.6785
  342MOL0     H45110   6.725   2.781   9.820 -0.1965  0.3833 -0.2782
  342MOL0     H45111   6.688   2.820   9.990  1.1307 -0.3214  0.4172
  342MOL0     H45112   6.510   2.640   9.808 -1.1053 -0.4846  0.7575
  342MOL0     H45113   6.494   2.804   9.788 -0.2936 -0.6650  0.8175
  342MOL0     H45114   6.452   2.661  10.048  0.5432 -2.9834 -2.4892
  342MOL0     H45115   6.322   2.690   9.931  0.8738 -2.3142  1.3038
  342MOL0     H45116   6.495   2.902  10.061  0.4506 -0.3442 -2.0019
  342MOL0     H45117   6.360   2.936   9.940  2.6192 -3.2941 -3.7124
  342MOL0     H45118   6.314   2.786  10.210  4.0332  1.0625  0.1045
  342MOL0     H45119   6.193   2.845  10.094  0.1930  1.8339 -0.5695
  342MOL0     H45120   6.355   3.029  10.273  0.5996  0.7791 -0.7979
  342MOL0     H45121   6.199   2.963  10.315  1.2875  0.2784  0.1966
  342MOL0     H45122   6.248   3.134  10.064  1.5527 -1.1697 -0.1448
  342MOL0     H45123   6.090   3.079  10.108  0.7700 -1.8377 -1.9067
  342MOL0     H45124   6.155   3.328  10.165 -1.5107 -0.6373 -0.1271
  342MOL0     H45125   6.277   3.270  10.273  1.0509 -0.6449 -0.8899
  342MOL0     H45126   6.906   2.802  10.036 -0.7341 -0.8528  1.7002
  342MOL0     H45127   7.146   2.756  10.070  1.5215 -1.4693 -0.7746
  342MOL0     H45128   7.502   2.310   9.827 -1.3293  1.1655  0.2504
  342MOL0     H45129   7.729   2.194   9.910  1.3421  1.3489  0.0961
  342MOL0     H45130   9.630   2.176  10.847 -1.2987 -0.0019  1.2626
  342MOL0     H45131   9.835   2.074  10.773 -0.5394 -0.5066 -1.3538
  342MOL0     H45132  10.041   1.637  10.490  1.8069 -2.3397 -1.0357
  342MOL0     H45133  10.267   1.591  10.456 -0.7201 -0.6384 -0.4103
  342MOL0     H45134  10.572   1.773  10.731 -0.7279 -1.2569  2.6008
  342MOL0     H45135  10.647   1.691  10.597  0.5219  2.0635  1.2370
  342MOL0     H45136  10.498   1.524  10.789  0.0809  0.2871  1.7344
  342MOL0     H45137  10.633   1.472  10.684 -4.5391 -3.0729  0.6605
  342MOL0     H45138  10.676   1.646  10.918 -2.6574  0.6713 -0.7832
  342MOL0     H45139  10.795   1.599  10.792 -0.2428  1.3571  0.8146
  342MOL0     H45140  10.760   1.361  10.846  2.5964  1.6984 -1.1513
  342MOL0     H45141  10.833   1.437  10.979 -0.4755  2.7573  0.5475
  342MOL0     H45142  10.458   1.361  11.138  0.1496  2.2333  0.1557
  342MOL0     H45143  10.360   1.720  10.853 -2.1448 -1.9405  2.1572
  342MOL0     H45144  10.135   1.771  10.895 -0.2812 -2.1248  0.9274
  343MOL0     O45145   5.132   5.518   9.771 -0.2918 -0.4366  0.2758
  343MOL0     C45146   5.208   5.565   9.855  0.7383  0.4825 -0.2169
  343MOL0     O45147   5.155   5.642   9.958  0.1429  0.6453  0.4872
  343MOL0     C45148   5.019   5.652   9.968 -0.9696  0.3832 -0.2062
  343MOL0     C45149   4.940   5.710   9.867  0.4131  0.3001  0.7304
  343MOL0     C45150   4.801   5.720   9.866 -0.5514  1.2290 -0.0568
  343MOL0     C45151   4.736   5.653   9.974  0.9276 -0.5098 -0.4620
  343MOL0     O45152   4.598   5.648   9.982  0.6517  0.4844 -0.1868
  343MOL0     C45153   4.523   5.599   9.869  0.0151  0.2999 -0.6787
  343MOL0     C45154   4.376   5.560   9.901 -0.2511  0.2283 -0.8605
  343MOL0     C45155   4.377   5.445  10.006  0.0522 -0.3468  0.1999
  343MOL0     C45156   4.240   5.438  10.066  0.7841 -0.1271 -0.4504
  343MOL0     C45157   4.131   5.373   9.984 -0.6265  0.6206  0.1691
  343MOL0     C45158   3.994   5.416  10.036  0.9898  0.2031 -0.1974
  343MOL0     C45159   3.875   5.351   9.966 -0.0431  1.0693 -0.0028
  343MOL0     C45160   3.850   5.424   9.836 -0.1290 -0.6749  0.2593
  343MOL0     N45161   3.709   5.407   9.794  0.0297 -0.0939  0.6527
  343MOL0     C45162   3.626   5.506   9.741 -0.1129 -1.3715  0.6878
  343MOL0     C45163   3.536   5.436   9.666  0.8781 -0.0307 -0.8349
  343MOL0     C45164   3.441   5.502   9.574 -0.2008 -0.8187 -0.0520
  343MOL0     C45165   3.315   5.418   9.552 -0.4368 -0.8575 -0.5674
  343MOL0     C45166   3.193   5.507   9.496  0.4860 -0.3961 -0.1068
  343MOL0     C45167   3.063   5.424   9.498 -0.2473  0.3342 -0.4735
  343MOL0     O45168   2.951   5.514   9.504  0.3313  0.1516  0.4090
  343MOL0     C45169   2.829   5.458   9.482 -0.0199 -0.9537  0.6196
  343MOL0     C45170   2.804   5.325   9.455 -0.5151 -0.1863  0.5682
  343MOL0     C45171   2.673   5.290   9.420 -0.0996 -0.7973  0.5007
  343MOL0     C45172   2.563   5.387   9.425  0.3326  0.0860 -0.7525
  343MOL0     C45173   2.424   5.348   9.395  1.3243 -0.3317 -0.1623
  343MOL0     O45174   2.328   5.454   9.411  0.5336  0.5514  0.7728
  343MOL0     C45175   2.194   5.419   9.380  0.7105  0.1199  0.1668
  343MOL0     C45176   2.164   5.385   9.250 -0.1715 -0.4694 -0.4356
  343MOL0     C45177   2.029   5.383   9.221 -0.3323 -0.5301  0.4985
  343MOL0     C45178   1.929   5.413   9.311  0.4059  0.7681  0.2689
  343MOL0     O45179   1.804   5.398   9.257 -0.0721  0.4590  0.4350
  343MOL0     C45180   1.693   5.431   9.332  0.3311  0.0021 -0.9754
  343MOL0     C45181   1.584   5.360   9.267 -0.0457  0.9039 -0.1277
  343MOL0     C45182   1.459   5.365   9.360 -0.4911 -0.2374 -0.4762
  343MOL0     C45183   1.340   5.286   9.299 -1.6144  0.8096 -0.2882
  343MOL0     C45184   1.227   5.287   9.396 -0.0034  0.4264 -0.0687
  343MOL0     C45185   1.105   5.228   9.322  0.1031  0.2897 -0.1944
  343MOL0     C45186   0.988   5.224   9.422  0.3031 -0.2963 -0.0729
  343MOL0     C45187   0.860   5.255   9.351 -0.3513  0.1063  0.3654
  343MOL0    Cl45188   0.720   5.261   9.450 -0.3020 -0.0448 -0.4394
  343MOL0     C45189   1.960   5.442   9.436  0.1549  0.4939 -0.5260
  343MOL0     C45190   2.095   5.462   9.471  0.2682  0.7385  0.5432
  343MOL0     O45191   2.399   5.232   9.376 -0.6811  0.1929  0.3208
  343MOL0     C45192   2.595   5.518   9.460 -0.4362 -0.0319  0.4171
  343MOL0     C45193   2.724   5.550   9.489  0.0802 -0.1508 -0.5179
  343MOL0     N45194   3.548   5.299   9.701 -0.0901 -0.0118 -0.1627
  343MOL0     N45195   3.649   5.286   9.781 -0.2180  0.1862  0.4042
  343MOL0     C45196   4.813   5.595  10.068  0.5011  0.7175 -0.5113
  343MOL0     C45197   4.951   5.596  10.072 -0.7716 -0.4804  0.8376
  343MOL0     C45198   5.344   5.557   9.829 -0.9079 -0.3512 -0.7460
  343MOL0     C45199   5.432   5.590   9.933  0.5759  0.2556 -0.7534
  343MOL0     C45200   5.570   5.569   9.915 -0.5822  0.2418 -0.1314
  343MOL0     C45201   5.625   5.509   9.800 -0.4595  0.3362  0.8941
  343MOL0     O45202   5.759   5.485   9.784  0.1561 -0.2483 -0.4421
  343MOL0     C45203   5.794   5.347   9.767  0.1353  0.4648  0.5326
  343MOL0     C45204   5.704   5.241   9.840 -0.1890 -0.0111  0.7416
  343MOL0     C45205   5.773   5.102   9.829  0.2363  0.3006  0.8487
  343MOL0     C45206   5.721   4.986   9.916  0.8483 -0.5914  0.0378
  343MOL0     C45207   5.729   5.000  10.062  1.2004  0.4338  0.3872
  343MOL0     C45208   5.734   5.010  10.178  0.4052  0.0272 -0.3620
  343MOL0     C45209   5.536   5.486   9.691  0.3417  0.2247  0.6507
  343MOL0     C45210   5.399   5.509   9.707 -0.3151 -0.9281 -0.0188
  343MOL0     H45211   4.982   5.750   9.775  0.8404 -2.7600 -0.5330
  343MOL0     H45212   4.745   5.776   9.792 -0.4982 -0.4781 -1.4549
  343MOL0     H45213   4.589   5.518   9.836  0.1702  0.5596 -1.0134
  343MOL0     H45214   4.507   5.685   9.804 -0.6005  0.3734 -0.4323
  343MOL0     H45215   4.328   5.531   9.808 -0.5877 -0.0867 -0.5869
  343MOL0     H45216   4.332   5.651   9.944  0.6237 -0.3904  1.5075
  343MOL0     H45217   4.443   5.463  10.091  1.1645 -4.0349  0.3106
  343MOL0     H45218   4.415   5.350   9.966 -0.6779 -0.1919 -0.8995
  343MOL0     H45219   4.259   5.376  10.154  0.6358  0.2932 -0.1223
  343MOL0     H45220   4.205   5.538  10.092 -1.8423 -0.6973 -1.4696
  343MOL0     H45221   4.155   5.267   9.987 -0.4788  0.6716  1.1499
  343MOL0     H45222   4.128   5.402   9.879  1.3988 -0.6017 -0.2763
  343MOL0     H45223   3.984   5.525  10.033  0.0519  0.1105 -0.9253
  343MOL0     H45224   3.979   5.382  10.139 -2.5688 -0.9421 -0.9634
  343MOL0     H45225   3.892   5.243   9.960 -0.8160  0.9450 -0.0015
  343MOL0     H45226   3.788   5.363  10.031  0.4877  0.7420  0.7977
  343MOL0     H45227   3.921   5.398   9.757  1.3474  2.1059  0.5087
  343MOL0     H45228   3.857   5.533   9.845 -3.0900 -0.3183 -0.8302
  343MOL0     H45229   3.653   5.611   9.728  0.6991 -1.6562  0.0211
  343MOL0     H45230   3.491   5.519   9.478 -1.1629 -0.2602 -0.4652
  343MOL0     H45231   3.406   5.596   9.619  0.4716 -0.6836  0.2089
  343MOL0     H45232   3.278   5.403   9.653 -1.2399 -1.0828 -0.8887
  343MOL0     H45233   3.330   5.321   9.503 -2.0946 -1.7235  0.5464
  343MOL0     H45234   3.173   5.590   9.563 -0.0767 -1.6505  1.3512
  343MOL0     H45235   3.216   5.553   9.400  2.3626 -0.3971  0.2882
  343MOL0     H45236   3.058   5.355   9.583  1.6805  1.5018  0.6354
  343MOL0     H45237   3.066   5.353   9.414  2.4979 -2.5715  1.8265
  343MOL0     H45238   2.876   5.243   9.457 -0.3154 -0.3009 -3.4246
  343MOL0     H45239   2.643   5.189   9.395 -2.0424  0.1071 -1.1786
  343MOL0     H45240   2.239   5.358   9.176 -1.8789 -2.7346 -1.4628
  343MOL0     H45241   1.994   5.358   9.121 -0.3248  0.6948  0.1801
  343MOL0     H45242   1.682   5.539   9.345  0.1661  0.0014 -1.1054
  343MOL0     H45243   1.703   5.373   9.425 -1.4900 -0.3335 -0.9427
  343MOL0     H45244   1.618   5.258   9.248 -1.5391  0.1653  0.9535
  343MOL0     H45245   1.564   5.406   9.170  1.0918 -0.2692 -0.9439
  343MOL0     H45246   1.434   5.470   9.381 -0.2968 -1.0114  5.2792
  343MOL0     H45247   1.480   5.323   9.459  0.4634  1.4201  0.0762
  343MOL0     H45248   1.311   5.317   9.198  0.5356 -0.4000 -1.3490
  343MOL0     H45249   1.381   5.185   9.295  2.8634  2.4602 -1.2078
  343MOL0     H45250   1.199   5.390   9.418  0.1358  0.7031 -1.1233
  343MOL0     H45251   1.252   5.231   9.487 -0.2088  2.0552  1.0208
  343MOL0     H45252   1.117   5.130   9.276 -0.0079  0.3288 -0.3093
  343MOL0     H45253   1.087   5.293   9.235 -0.2598 -0.8095 -0.9709
  343MOL0     H45254   0.971   5.121   9.455  2.9397 -0.6496  0.4061
  343MOL0     H45255   0.996   5.296   9.504 -1.4040  1.5304 -1.4275
  343MOL0     H45256   0.846   5.183   9.269  0.4103  2.2800 -1.7741
  343MOL0     H45257   0.883   5.350   9.303  1.1215 -0.5622 -0.3253
  343MOL0     H45258   1.883   5.470   9.508 -0.2556 -1.2672 -0.2388
  343MOL0     H45259   2.129   5.495   9.569 -0.1236 -1.1130  1.3465
  343MOL0     H45260   2.525   5.601   9.461  3.0633  3.2122 -1.0415
  343MOL0     H45261   2.747   5.647   9.531  0.6580 -0.3144 -0.4426
  343MOL0     H45262   4.768   5.547  10.155  0.9384  2.7859  0.9174
  343MOL0     H45263   5.010   5.548  10.150 -1.2210  0.1425  1.5708
  343MOL0     H45264   5.412   5.636  10.030  1.8953  1.8109 -1.1852
  343MOL0     H45265   5.634   5.595   9.998  0.8991 -2.4594 -0.3005
  343MOL0     H45266   5.894   5.339   9.811 -0.4650 -0.6218  1.7798
  343MOL0     H45267   5.790   5.313   9.663 -3.1912 -3.5785  1.6879
  343MOL0     H45268   5.696   5.266   9.946  1.5771  0.5966  0.7674
  343MOL0     H45269   5.606   5.217   9.798  1.6066 -2.5834 -2.4130
  343MOL0     H45270   5.881   5.111   9.846  0.5495  0.4756 -1.0234
  343MOL0     H45271   5.755   5.078   9.724 -2.7783 -0.5040  1.4633
  343MOL0     H45272   5.616   4.972   9.888  0.6583 -0.9258  0.8904
  343MOL0     H45273   5.778   4.898   9.885  0.3351 -0.4981 -1.2433
  343MOL0     H45274   5.727   5.036  10.282  0.8533 -1.0340 -0.0449
  343MOL0     H45275   5.569   5.452   9.594 -1.2182 -0.1889  0.2362
  343MOL0     H45276   5.339   5.485   9.620 -0.4405 -0.6259 -0.0146
  344MOL0     O45277   7.944   0.621   4.805 -0.1785 -0.6702  0.2680
  344MOL0     C45278   7.954   0.743   4.804 -0.3125 -0.7631 -0.2391
  344MOL0     O45279   7.886   0.821   4.724 -0.4551  0.7554 -0.1052
  344MOL0     C45280   7.783   0.763   4.653  1.1213  0.1877 -0.4745
  344MOL0     C45281   7.659   0.743   4.711 -1.1753 -0.4033  0.1675
  344MOL0     C45282   7.548   0.716   4.626  0.4839 -0.6091 -0.5635
  344MOL0     C45283   7.559   0.705   4.497 -0.0281  0.4604  0.4161
  344MOL0     O45284   7.449   0.701   4.419 -0.2151  0.4574  0.1166
  344MOL0     C45285   7.325   0.659   4.481  0.3783  0.2689 -0.3148
  344MOL0     C45286   7.215   0.655   4.379  0.1425  0.4418  0.4291
  344MOL0     C45287   7.093   0.593   4.438  0.4973  0.4335 -0.4004
  344MOL0     C45288   6.988   0.564   4.335 -0.2760 -0.4374  0.2935
  344MOL0     C45289   6.858   0.505   4.394  0.4676  0.1266 -0.1844
  344MOL0     C45290   6.735   0.527   4.306  0.1371 -0.2647  0.2207
  344MOL0     C45291   6.620   0.435   4.334 -0.7321 -0.1308  0.3606
  344MOL0     C45292   6.500   0.470   4.243 -0.5745 -0.5887 -0.7226
  344MOL0     N45293   6.394   0.376   4.251 -0.6732  0.3811 -0.7166
  344MOL0     C45294   6.301   0.341   4.146 -0.2983 -0.8395  0.4532
  344MOL0     C45295   6.212   0.262   4.214  0.1553  0.1089  0.0838
  344MOL0     C45296   6.097   0.200   4.146  0.1329  0.4498  0.7832
  344MOL0     C45297   6.124   0.088   4.048  0.0286  0.5238 -0.4516
  344MOL0     C45298   6.215  -0.020   4.098 -0.4776  0.4732  0.2391
  344MOL0     C45299   6.375   0.010   4.108  0.6252 -0.2791 -0.5468
  344MOL0     O45300   6.413  -0.017   4.245  0.3481 -0.0572 -0.4013
  344MOL0     C45301   6.540  -0.012   4.289  1.0363  0.9842 -0.4088
  344MOL0     C45302   6.639   0.021   4.200 -0.9656 -0.4897  0.4356
  344MOL0     C45303   6.772   0.036   4.255  0.4090  0.6583  0.1518
  344MOL0     C45304   6.794   0.013   4.397 -0.4789 -0.4136  0.1386
  344MOL0     C45305   6.935   0.038   4.455  0.3253 -0.4599 -0.0505
  344MOL0     O45306   7.029   0.071   4.355 -0.0230  0.6077 -0.0939
  344MOL0     C45307   7.151   0.087   4.403 -0.0243 -0.5963 -0.7893
  344MOL0     C45308   7.252  -0.007   4.377  0.6733 -0.3354 -0.0449
  344MOL0     C45309   7.388   0.013   4.409  0.7773  0.5645  0.7898
  344MOL0     C45310   7.421   0.142   4.462 -1.0550 -0.0345 -0.1990
  344MOL0     O45311   7.550   0.179   4.492 -0.5389  0.6337 -0.0046
  344MOL0     C45312   7.642   0.139   4.397 -0.3059 -0.6129  0.2221
  344MOL0     C45313   7.787   0.174   4.429  0.8959  0.1312  0.2216
  344MOL0     C45314   7.799   0.327   4.438 -0.0051 -0.6217 -0.1621
  344MOL0     C45315   7.934   0.363   4.499  0.2175 -0.1151  0.8947
  344MOL0     C45316   8.045   0.332   4.404  0.6496 -0.4323 -0.4932
  344MOL0     C45317   8.177   0.414   4.424 -0.5082  0.4126  0.9958
  344MOL0     C45318   8.242   0.383   4.556  0.2879  0.0664  0.7972
  344MOL0     C45319   8.390   0.421   4.573  0.1392  0.2100 -0.0664
  344MOL0    Cl45320   8.417   0.595   4.557 -0.4495  0.1905 -0.6273
  344MOL0     C45321   7.321   0.234   4.483 -0.2193 -0.1544  0.7307
  344MOL0     C45322   7.185   0.206   4.463  0.4800 -0.1913 -0.5398
  344MOL0     O45323   6.952   0.035   4.578  0.0831 -0.1464 -0.4683
  344MOL0     C45324   6.682  -0.026   4.476  0.1431 -0.0132  0.4130
  344MOL0     C45325   6.560  -0.039   4.414 -0.1222  0.2692 -0.6977
  344MOL0     N45326   6.251   0.250   4.347 -0.5123  0.5906 -0.2634
  344MOL0     N45327   6.363   0.299   4.361  0.1365  0.0988  0.1882
  344MOL0     C45328   7.681   0.736   4.443  0.0283 -0.8467  0.0875
  344MOL0     C45329   7.798   0.763   4.519 -0.4373 -0.2355 -0.1670
  344MOL0     C45330   8.041   0.797   4.911 -0.0545 -0.0828  0.4951
  344MOL0     C45331   8.086   0.718   5.011 -0.8630  1.1077  0.0846
  344MOL0     C45332   8.188   0.751   5.095 -0.4792 -0.3125 -0.3241
  344MOL0     C45333   8.238   0.884   5.092  0.0966 -0.6644  0.0339
  344MOL0     O45334   8.322   0.939   5.190  0.0248  0.3518 -0.5425
  344MOL0     C45335   8.388   0.849   5.277 -0.7253 -0.0445 -0.4066
  344MOL0     C45336   8.480   0.924   5.374  0.1160 -0.7710 -0.8038
  344MOL0     C45337   8.603   0.853   5.429 -0.4618 -0.0998 -0.4413
  344MOL0     C45338   8.707   0.946   5.498 -0.3562  0.2672 -0.3804
  344MOL0     C45339   8.643   1.017   5.606  0.7920 -0.6073  0.1105
  344MOL0     C45340   8.568   1.069   5.682  1.1276  0.3239 -0.2287
  344MOL0     C45341   8.173   0.971   5.002 -1.1840  0.6304 -1.0534
  344MOL0     C45342   8.079   0.934   4.909  0.5730  0.2315  0.4731
  344MOL0     H45343   7.647   0.757   4.818 -0.7699  0.5155  0.1019
  344MOL0     H45344   7.454   0.706   4.678  1.5511 -2.1316  1.2085
  344MOL0     H45345   7.296   0.730   4.560  1.7751 -1.1865  1.6150
  344MOL0     H45346   7.340   0.562   4.530  1.1128  1.8922  3.0045
  344MOL0     H45347   7.243   0.592   4.293 -0.8543 -1.8064  1.6658
  344MOL0     H45348   7.191   0.754   4.340 -2.8107  0.3790  1.7940
  344MOL0     H45349   7.054   0.658   4.517  0.5248  0.5458 -0.4794
  344MOL0     H45350   7.114   0.498   4.488  3.5784  0.3422 -1.6663
  344MOL0     H45351   6.963   0.658   4.284 -0.1813 -1.3483 -1.5093
  344MOL0     H45352   7.034   0.492   4.267  0.2176 -0.4068  0.5863
  344MOL0     H45353   6.836   0.557   4.488 -1.5478 -3.2237  1.3551
  344MOL0     H45354   6.879   0.401   4.419 -1.3198 -1.0793 -3.2879
  344MOL0     H45355   6.762   0.509   4.201 -0.4207 -1.0102  0.1936
  344MOL0     H45356   6.715   0.632   4.327 -0.2448  0.0022 -1.3659
  344MOL0     H45357   6.646   0.330   4.320 -2.1704 -0.8588  2.6848
  344MOL0     H45358   6.584   0.458   4.434 -1.1232  0.4991  0.0812
  344MOL0     H45359   6.531   0.479   4.139 -1.1119  0.2014 -0.8280
  344MOL0     H45360   6.459   0.568   4.270  2.3591  0.2485  1.2761
  344MOL0     H45361   6.300   0.372   4.042  0.8123 -1.3599  0.2705
  344MOL0     H45362   6.062   0.282   4.083 -1.2998 -1.2050 -0.6876
  344MOL0     H45363   6.022   0.184   4.223  0.1647  1.2323  0.9854
  344MOL0     H45364   6.162   0.127   3.954 -0.2615  1.9967  0.0183
  344MOL0     H45365   6.029   0.039   4.022  0.4642 -1.1533  0.9193
  344MOL0     H45366   6.175  -0.046   4.197 -1.7204  2.8535  0.4418
  344MOL0     H45367   6.198  -0.111   4.040  0.0746 -0.3721  1.3647
  344MOL0     H45368   6.395   0.110   4.068 -0.5958 -0.0944 -0.7269
  344MOL0     H45369   6.417  -0.065   4.041  3.2962 -0.2580  0.9922
  344MOL0     H45370   6.616   0.052   4.099 -3.3724 -0.6851  0.8668
  344MOL0     H45371   6.854   0.062   4.189  0.3335  1.4847  0.3741
  344MOL0     H45372   7.223  -0.095   4.321  0.8609 -1.1507  1.0988
  344MOL0     H45373   7.459  -0.068   4.405 -0.6369 -0.6766 -0.6034
  344MOL0     H45374   7.620   0.179   4.298  0.5617  0.2507  0.3627
  344MOL0     H45375   7.635   0.031   4.382 -3.3430 -0.1465 -2.8276
  344MOL0     H45376   7.858   0.136   4.355  1.5561  1.4614  0.1340
  344MOL0     H45377   7.808   0.135   4.529 -0.4468 -0.6739  0.2143
  344MOL0     H45378   7.724   0.369   4.505 -2.1072 -0.8216 -2.2620
  344MOL0     H45379   7.784   0.359   4.334  1.4413  0.4502 -0.0672
  344MOL0     H45380   7.927   0.470   4.520 -0.7688 -0.0602  0.3397
  344MOL0     H45381   7.948   0.328   4.602  0.9511 -0.7069  0.6044
  344MOL0     H45382   8.024   0.374   4.305  1.0679 -1.8871 -1.2167
  344MOL0     H45383   8.062   0.224   4.402 -2.7498 -1.1212  1.0747
  344MOL0     H45384   8.154   0.521   4.431  0.3674  0.6120  0.8917
  344MOL0     H45385   8.242   0.402   4.337  0.4458 -1.9373  1.9673
  344MOL0     H45386   8.188   0.438   4.633 -2.2238  0.8471 -1.3930
  344MOL0     H45387   8.227   0.277   4.579 -1.6365  0.1113 -0.0717
  344MOL0     H45388   8.448   0.382   4.489 -1.8490  1.9172 -2.3887
  344MOL0     H45389   8.432   0.381   4.665  0.3895 -0.7097 -0.5719
  344MOL0     H45390   7.355   0.333   4.509 -0.2085 -0.1200  0.5869
  344MOL0     H45391   7.101   0.275   4.465  0.8501  0.3265 -1.8678
  344MOL0     H45392   6.674  -0.028   4.584  1.0228 -0.1570  0.4835
  344MOL0     H45393   6.476  -0.071   4.475 -0.5775  0.2668 -1.3200
  344MOL0     H45394   7.697   0.760   4.339  0.5944  1.9662  0.7191
  344MOL0     H45395   7.895   0.784   4.476  0.4925 -2.3974  0.7228
  344MOL0     H45396   8.046   0.620   5.035  0.2801  0.7441  0.5600
  344MOL0     H45397   8.208   0.671   5.166 -0.5617  0.6425  0.8093
  344MOL0     H45398   8.449   0.771   5.232 -0.9959 -0.6311  0.2281
  344MOL0     H45399   8.319   0.798   5.345 -1.9923  1.6530 -0.3370
  344MOL0     H45400   8.519   1.015   5.329  0.3356 -1.3433 -1.8028
  344MOL0     H45401   8.411   0.947   5.455  1.9543 -2.5194  1.3755
  344MOL0     H45402   8.649   0.798   5.346 -2.6400 -1.2531 -0.9594
  344MOL0     H45403   8.578   0.770   5.496 -2.1117  1.8327  1.4622
  344MOL0     H45404   8.785   0.886   5.546 -0.8924  0.6506  1.0096
  344MOL0     H45405   8.751   1.018   5.429 -0.2175  1.9492  1.3808
  344MOL0     H45406   8.498   1.094   5.758  0.0023 -0.4048 -0.9999
  344MOL0     H45407   8.212   1.072   5.014  1.9815 -0.7583  2.4089
  344MOL0     H45408   8.038   1.006   4.839  1.6937  1.9584  1.5031
  345MOL0     O45409   6.655   8.929   4.913  0.4314 -0.9206 -0.5853
  345MOL0     C45410   6.574   8.971   4.996  0.5557  0.4953 -0.5387
  345MOL0     O45411   6.602   9.039   5.108  0.5514 -0.9877 -0.1846
  345MOL0     C45412   6.728   9.029   5.162 -0.1181  0.2617 -0.3285
  345MOL0     C45413   6.844   9.070   5.093  0.2591 -0.0615 -0.3212
  345MOL0     C45414   6.972   9.083   5.143  0.1703  0.1323 -0.2215
  345MOL0     C45415   6.993   9.064   5.273  0.8140  0.0706 -0.8084
  345MOL0     O45416   7.113   9.084   5.342 -0.7817 -0.7309  0.6927
  345MOL0     C45417   7.207   9.175   5.284  0.8860 -0.3308  0.5335
  345MOL0     C45418   7.338   9.200   5.351  0.6862 -0.1567  0.5983
  345MOL0     C45419   7.408   9.066   5.393 -0.2442  1.0010  0.1688
  345MOL0     C45420   7.537   9.100   5.458  0.2828  0.2997  0.2311
  345MOL0     C45421   7.596   8.960   5.517 -0.0302 -0.4188 -0.4648
  345MOL0     C45422   7.732   8.973   5.573  0.5485  0.1488  0.5533
  345MOL0     C45423   7.836   9.002   5.462 -0.8761  0.9421 -0.7058
  345MOL0     C45424   7.973   9.056   5.508  0.0330  0.5748 -0.6726
  345MOL0     N45425   8.049   8.939   5.566  0.8300  0.6990  0.1281
  345MOL0     C45426   8.119   8.927   5.674  0.7170  0.0464 -0.2158
  345MOL0     C45427   8.156   8.796   5.691 -0.1911  0.0465  0.6095
  345MOL0     C45428   8.230   8.738   5.807 -0.3281  0.5050  0.2278
  345MOL0     C45429   8.347   8.831   5.848 -0.0266  0.2989 -0.5602
  345MOL0     C45430   8.464   8.763   5.918  0.9005 -0.3261 -0.3351
  345MOL0     C45431   8.550   8.683   5.825  0.8232 -0.2904 -1.3851
  345MOL0     O45432   8.646   8.777   5.763 -0.0318 -0.1468  0.3220
  345MOL0     C45433   8.747   8.718   5.693 -0.0965  0.5119  0.4159
  345MOL0     C45434   8.767   8.591   5.643  0.3352  0.2251  0.0125
  345MOL0     C45435   8.890   8.547   5.586 -0.4021  1.2157 -0.0794
  345MOL0     C45436   8.990   8.636   5.569 -0.2382 -0.0934 -0.2190
  345MOL0     C45437   9.127   8.598   5.524 -0.4544 -0.0906  0.5795
  345MOL0     O45438   9.232   8.672   5.557 -0.1733 -0.2588  0.6997
  345MOL0     C45439   9.354   8.628   5.511  0.4643  0.1704 -0.7210
  345MOL0     C45440   9.426   8.693   5.416 -0.9648 -0.1581  0.6056
  345MOL0     C45441   9.570   8.669   5.398 -0.1970 -0.4781 -0.2965
  345MOL0     C45442   9.641   8.565   5.469  1.3719  0.8381 -0.4433
  345MOL0     O45443   9.779   8.553   5.453  0.3639 -0.5319 -0.3069
  345MOL0     C45444   9.847   8.484   5.562  0.0778  0.5292  1.3688
  345MOL0     C45445   9.978   8.555   5.587  0.3679 -0.9110 -0.1652
  345MOL0     C45446  10.035   8.521   5.722 -0.4008 -0.2622  0.3276
  345MOL0     C45447  10.164   8.594   5.772 -0.4751  0.0391 -0.9782
  345MOL0     C45448  10.209   8.538   5.904  0.2438 -0.8043  0.4530
  345MOL0     C45449  10.334   8.616   5.947  0.4626  0.2533  0.2905
  345MOL0     C45450  10.370   8.569   6.089  0.2731 -0.3416  0.0963
  345MOL0     C45451  10.488   8.649   6.147  0.1804 -0.2550  0.5742
  345MOL0    Cl45452  10.633   8.578   6.068  0.0566  0.2671 -0.2107
  345MOL0     C45453   9.556   8.488   5.558  0.2992 -0.2603 -0.3250
  345MOL0     C45454   9.418   8.519   5.573  0.3764 -1.0241 -0.0446
  345MOL0     O45455   9.126   8.500   5.453  0.0788  0.1003  0.4493
  345MOL0     C45456   8.961   8.768   5.598 -0.7935 -0.2855  0.1853
  345MOL0     C45457   8.845   8.804   5.665 -0.3249 -0.5879  0.1389
  345MOL0     N45458   8.113   8.729   5.578  1.5785  0.1259 -0.1477
  345MOL0     N45459   8.041   8.811   5.509  1.0298  0.6648  0.6215
  345MOL0     C45460   6.877   9.029   5.350  1.2006 -0.4178  0.3534
  345MOL0     C45461   6.749   9.018   5.299  0.1838  0.1476 -0.4596
  345MOL0     C45462   6.431   8.961   4.956  0.1520  0.7283  0.0917
  345MOL0     C45463   6.334   9.034   5.025  0.2014 -0.0570  0.0924
  345MOL0     C45464   6.201   9.030   4.996  0.4190 -0.4189  0.0954
  345MOL0     C45465   6.152   8.952   4.890  0.5244  0.0608  0.7801
  345MOL0     O45466   6.019   8.954   4.851 -0.2033 -0.0790 -0.4517
  345MOL0     C45467   5.958   8.838   4.789  0.3313 -0.4228 -0.7344
  345MOL0     C45468   5.825   8.807   4.860  0.0791  0.8379 -0.7045
  345MOL0     C45469   5.724   8.920   4.826  0.9227  0.6454 -0.0390
  345MOL0     C45470   5.584   8.870   4.854  0.1267 -0.1062  0.2339
  345MOL0     C45471   5.572   8.809   4.990  0.7049 -0.3513 -0.4190
  345MOL0     C45472   5.566   8.776   5.113  0.2941 -0.5521  0.1196
  345MOL0     C45473   6.246   8.874   4.817 -0.4210  0.6219 -0.0582
  345MOL0     C45474   6.382   8.882   4.858 -0.1411 -0.8961 -0.0797
  345MOL0     H45475   6.822   9.087   4.988  0.4933 -3.0269 -0.9412
  345MOL0     H45476   7.053   9.116   5.080  1.1196  0.4424  1.1198
  345MOL0     H45477   7.145   9.263   5.269  0.8281 -0.1811  1.6308
  345MOL0     H45478   7.223   9.128   5.186 -2.3800  0.2980 -0.4287
  345MOL0     H45479   7.318   9.257   5.442  1.4791  2.2865 -0.6787
  345MOL0     H45480   7.402   9.264   5.289 -1.9277  2.1638  0.1058
  345MOL0     H45481   7.429   8.995   5.312 -0.6375  0.7868  0.2510
  345MOL0     H45482   7.341   9.010   5.459 -1.1333  1.7591 -0.0752
  345MOL0     H45483   7.604   9.153   5.390 -0.5327  0.6264 -0.3350
  345MOL0     H45484   7.518   9.171   5.539  3.2379 -1.1482  2.3806
  345MOL0     H45485   7.606   8.878   5.445  1.4127  0.2048 -1.0142
  345MOL0     H45486   7.521   8.937   5.593 -1.3231 -1.1552 -1.8949
  345MOL0     H45487   7.762   8.880   5.624  1.2489 -0.0996 -0.2869
  345MOL0     H45488   7.735   9.053   5.648  2.6649  0.3981  0.2710
  345MOL0     H45489   7.858   8.916   5.398  2.1489  0.0195  1.3503
  345MOL0     H45490   7.807   9.075   5.387  1.9756  0.1888 -2.7189
  345MOL0     H45491   7.970   9.129   5.590 -2.3522 -0.2041  0.0258
  345MOL0     H45492   8.032   9.104   5.430  1.5249 -0.3427 -0.1608
  345MOL0     H45493   8.140   8.998   5.753 -1.5752 -2.2952  2.7484
  345MOL0     H45494   8.269   8.639   5.784  2.7544  1.5670  0.4693
  345MOL0     H45495   8.160   8.728   5.891 -3.0308 -1.2153 -2.0445
  345MOL0     H45496   8.313   8.918   5.905  2.4962  1.8755 -1.2953
  345MOL0     H45497   8.396   8.873   5.760 -1.0525 -1.4519 -2.0415
  345MOL0     H45498   8.529   8.843   5.954  0.2914 -0.3408  0.8382
  345MOL0     H45499   8.429   8.706   6.005 -3.5664 -4.1665 -4.0768
  345MOL0     H45500   8.488   8.626   5.755 -1.5763 -1.9137  1.8143
  345MOL0     H45501   8.601   8.603   5.878  1.3818  0.4070 -0.8614
  345MOL0     H45502   8.686   8.522   5.663 -1.0172  1.5330 -0.7520
  345MOL0     H45503   8.921   8.446   5.561  0.6093  1.9140 -1.8891
  345MOL0     H45504   9.398   8.781   5.359  2.7059  1.4522  1.0353
  345MOL0     H45505   9.630   8.746   5.351 -1.1590  0.2115 -0.4191
  345MOL0     H45506   9.870   8.383   5.528  2.4892  1.9962 -1.9685
  345MOL0     H45507   9.788   8.480   5.654  0.2667 -0.0012  1.4676
  345MOL0     H45508   9.959   8.663   5.593  4.4279 -0.1234  1.7073
  345MOL0     H45509  10.043   8.541   5.501  0.6217 -1.8862  0.1752
  345MOL0     H45510  10.061   8.415   5.729 -0.3777 -0.2301  0.7365
  345MOL0     H45511   9.960   8.539   5.799 -1.7377 -0.8302 -0.8079
  345MOL0     H45512  10.242   8.589   5.696  2.1506  0.2745  1.5641
  345MOL0     H45513  10.142   8.701   5.774 -3.6690 -0.4867 -1.2341
  345MOL0     H45514  10.228   8.430   5.902  0.7161 -0.7189 -0.0740
  345MOL0     H45515  10.130   8.549   5.978  0.6664 -0.7067  0.8948
  345MOL0     H45516  10.305   8.719   5.967  2.6814  0.8817  0.5644
  345MOL0     H45517  10.414   8.613   5.872 -2.0667 -1.3764 -2.6170
  345MOL0     H45518  10.287   8.587   6.158  1.6736  0.0638  1.7321
  345MOL0     H45519  10.395   8.462   6.089  0.7179 -0.3525 -3.3992
  345MOL0     H45520  10.509   8.626   6.251  0.9446 -0.5116  0.3692
  345MOL0     H45521  10.472   8.756   6.126  0.3362 -0.7735 -2.8720
  345MOL0     H45522   9.595   8.418   5.632 -1.4396  0.8901  1.7934
  345MOL0     H45523   9.352   8.471   5.645  1.7315 -1.2993  1.0632
  345MOL0     H45524   9.042   8.840   5.594 -1.7383  0.9276  1.7148
  345MOL0     H45525   8.834   8.910   5.684  1.6056  0.4006 -3.3212
  345MOL0     H45526   6.886   9.008   5.456 -1.3752 -3.3565  0.1395
  345MOL0     H45527   6.670   8.987   5.366  0.6050 -1.3701 -0.6319
  345MOL0     H45528   6.367   9.110   5.095 -1.2473  1.9226 -1.2492
  345MOL0     H45529   6.129   9.097   5.041  2.6529  1.5731  0.8494
  345MOL0     H45530   6.021   8.749   4.800  1.2274  0.2707 -0.1142
  345MOL0     H45531   5.950   8.862   4.683 -0.3325 -1.9785 -1.0669
  345MOL0     H45532   5.791   8.708   4.829  0.2816  0.1411  1.2039
  345MOL0     H45533   5.847   8.799   4.967 -0.1305 -0.7110 -0.7537
  345MOL0     H45534   5.718   8.947   4.720 -6.2551 -0.1812 -0.3811
  345MOL0     H45535   5.757   9.015   4.868  0.2910  0.8510  0.0144
  345MOL0     H45536   5.510   8.951   4.846 -0.2681 -0.4512  0.3448
  345MOL0     H45537   5.564   8.792   4.780 -1.6662  0.1440  0.3994
  345MOL0     H45538   5.561   8.738   5.213 -2.7005  0.4645  0.4644
  345MOL0     H45539   6.218   8.820   4.728 -1.4675  4.3202 -2.1997
  345MOL0     H45540   6.451   8.827   4.795 -0.4530 -3.0716  1.3722
  346MOL0     O45541   3.600   7.019   2.925 -0.3197 -0.6848 -0.0100
  346MOL0     C45542   3.554   6.965   2.828  0.0619 -0.1967 -0.7478
  346MOL0     O45543   3.429   6.913   2.818 -0.5815 -0.4311  0.0402
  346MOL0     C45544   3.329   6.937   2.910 -0.3886 -0.2065 -0.2612
  346MOL0     C45545   3.233   6.839   2.941  0.0033 -0.3552 -0.2193
  346MOL0     C45546   3.134   6.865   3.039  0.4517 -0.2640 -0.5168
  346MOL0     C45547   3.138   6.988   3.117 -0.0930  0.8674  0.1692
  346MOL0     O45548   3.051   6.996   3.218  0.4330  0.7082 -0.5844
  346MOL0     C45549   3.081   7.096   3.321  0.0913  0.2337 -0.7608
  346MOL0     C45550   2.982   7.086   3.438 -0.3553  0.2781  0.4848
  346MOL0     C45551   2.993   6.955   3.519 -0.4057 -0.6044  0.1563
  346MOL0     C45552   2.863   6.899   3.574 -0.2983 -0.1031 -0.8213
  346MOL0     C45553   2.884   6.772   3.646  0.0920  0.3181  0.1678
  346MOL0     C45554   2.753   6.713   3.694 -0.5448 -0.2640  0.3290
  346MOL0     C45555   2.761   6.567   3.723 -0.6949  0.8881 -1.1843
  346MOL0     C45556   2.635   6.517   3.778 -0.0671 -0.4522 -0.3812
  346MOL0     N45557   2.515   6.546   3.702 -0.6982 -0.0286 -1.0910
  346MOL0     C45558   2.476   6.495   3.580 -0.1314  0.7961  0.2015
  346MOL0     C45559   2.360   6.560   3.545 -0.1472 -0.2387  0.1526
  346MOL0     C45560   2.282   6.547   3.416  0.2135  0.6741  0.5745
  346MOL0     C45561   2.144   6.484   3.461 -0.2540 -0.0588  0.4977
  346MOL0     C45562   2.031   6.501   3.363 -0.5595 -0.7013 -0.2229
  346MOL0     C45563   1.901   6.444   3.421 -0.4170  0.2434  0.0062
  346MOL0     O45564   1.795   6.425   3.331  0.3181 -0.1443  0.4640
  346MOL0     C45565   1.699   6.329   3.352  0.6780  0.5868  0.4732
  346MOL0     C45566   1.606   6.325   3.249  0.0466  0.6980 -0.5382
  346MOL0     C45567   1.493   6.236   3.250  0.2772 -1.1440  0.1378
  346MOL0     C45568   1.476   6.146   3.363 -0.3759  0.4000  1.0505
  346MOL0     C45569   1.355   6.060   3.376 -1.0664  0.4163 -1.2058
  346MOL0     O45570   1.269   6.057   3.270 -0.4268  0.5396  0.2729
  346MOL0     C45571   1.154   5.988   3.287 -0.9645 -1.0033 -0.8925
  346MOL0     C45572   1.112   5.901   3.187  0.2535  0.4145  0.1269
  346MOL0     C45573   0.976   5.852   3.184  0.2548 -0.2618 -0.3033
  346MOL0     C45574   0.886   5.883   3.285 -0.1482 -0.1655  0.7574
  346MOL0     O45575   0.757   5.844   3.295 -0.6421 -0.1368  0.0539
  346MOL0     C45576   0.704   5.735   3.214  0.1163 -0.0361 -0.5408
  346MOL0     C45577   0.596   5.668   3.289  0.4703 -0.6082  0.2532
  346MOL0     C45578   0.542   5.555   3.207  0.0532 -0.0658  0.2503
  346MOL0     C45579   0.403   5.519   3.252  0.0190  0.8362 -0.0134
  346MOL0     C45580   0.347   5.416   3.160  0.2811 -0.4028 -0.3933
  346MOL0     C45581   0.196   5.378   3.195 -0.9996 -0.5644  0.5634
  346MOL0     C45582   0.170   5.224   3.181 -0.5218 -0.7887 -0.0500
  346MOL0     C45583   0.031   5.191   3.238 -0.6047  0.7219  0.6404
  346MOL0    Cl45584   0.038   5.209   3.407 -0.4257 -0.2162  0.0233
  346MOL0     C45585   0.926   5.970   3.382  0.1160 -0.5297 -0.9356
  346MOL0     C45586   1.064   6.026   3.387 -0.2835 -0.6274 -0.1705
  346MOL0     O45587   1.339   6.014   3.490  0.5364  0.1827  0.4261
  346MOL0     C45588   1.564   6.151   3.464  0.2804 -0.3761  0.3857
  346MOL0     C45589   1.671   6.238   3.459 -1.0245 -1.0089 -0.1201
  346MOL0     N45590   2.328   6.638   3.652  0.5883 -0.5649  0.7100
  346MOL0     N45591   2.414   6.632   3.749 -0.0488 -0.0416 -0.6642
  346MOL0     C45592   3.234   7.079   3.089 -0.9010 -1.1380  1.0990
  346MOL0     C45593   3.324   7.066   2.978  0.6434  0.1598  0.3766
  346MOL0     C45594   3.641   6.934   2.716  0.5476 -0.0333  1.0734
  346MOL0     C45595   3.774   6.907   2.734  0.0435  0.1937  0.0275
  346MOL0     C45596   3.854   6.849   2.630  0.6262 -0.0458  0.1794
  346MOL0     C45597   3.800   6.824   2.504  0.4209  0.6133 -0.3304
  346MOL0     O45598   3.862   6.752   2.411  0.3133 -0.0582  0.2327
  346MOL0     C45599   4.005   6.754   2.403 -0.5097 -0.1562  0.4080
  346MOL0     C45600   4.037   6.794   2.253  0.5353 -0.1906 -0.3324
  346MOL0     C45601   4.177   6.792   2.204 -0.1275  0.0175 -0.5507
  346MOL0     C45602   4.232   6.648   2.194 -0.4746 -0.4036 -0.7915
  346MOL0     C45603   4.148   6.560   2.106 -0.1076 -0.0433 -0.0999
  346MOL0     C45604   4.077   6.477   2.064  0.4745  0.2809  0.1518
  346MOL0     C45605   3.663   6.851   2.487 -0.3077  0.2557 -0.3691
  346MOL0     C45606   3.583   6.907   2.587  0.3433 -0.0839  1.0893
  346MOL0     H45607   3.237   6.738   2.900  3.2704 -0.5880  0.4048
  346MOL0     H45608   3.058   6.789   3.052 -0.0217  0.4702  1.4242
  346MOL0     H45609   3.080   7.200   3.285  2.0012  0.9491  1.0166
  346MOL0     H45610   3.182   7.070   3.354 -0.5971 -0.4173  0.9315
  346MOL0     H45611   2.886   7.088   3.385  0.4590 -1.1501 -1.1447
  346MOL0     H45612   2.983   7.169   3.509  0.3481  0.1437  0.6416
  346MOL0     H45613   3.066   6.967   3.599  0.1094 -1.5025 -0.1682
  346MOL0     H45614   3.031   6.877   3.452  0.8414 -2.5822  2.9399
  346MOL0     H45615   2.822   6.970   3.646  2.8930 -0.7841  1.9309
  346MOL0     H45616   2.789   6.886   3.494  1.9284  0.0448 -3.0242
  346MOL0     H45617   2.960   6.791   3.722  0.6035 -0.6529 -0.0869
  346MOL0     H45618   2.922   6.707   3.566 -1.0366 -0.9704  0.6262
  346MOL0     H45619   2.677   6.725   3.617 -1.0964 -1.2955  0.6819
  346MOL0     H45620   2.723   6.767   3.784 -0.3703  0.0425  0.2016
  346MOL0     H45621   2.784   6.515   3.629  1.1304 -0.5987  0.0213
  346MOL0     H45622   2.841   6.549   3.794 -1.9218 -0.3560 -0.0570
  346MOL0     H45623   2.632   6.554   3.881  3.2375  0.8078 -0.6099
  346MOL0     H45624   2.653   6.409   3.789 -0.1086 -0.5680 -1.3755
  346MOL0     H45625   2.531   6.432   3.511 -0.5519  0.7458 -0.0971
  346MOL0     H45626   2.346   6.495   3.343  0.1051  2.5765 -0.9673
  346MOL0     H45627   2.264   6.646   3.373 -0.6810  0.0536 -0.5355
  346MOL0     H45628   2.109   6.542   3.547 -2.1278  1.2817 -1.0716
  346MOL0     H45629   2.159   6.384   3.503  0.4819  0.3950  1.3347
  346MOL0     H45630   2.020   6.610   3.355  0.3033 -0.6910 -1.6366
  346MOL0     H45631   2.050   6.460   3.263  1.3668 -0.8954  0.1935
  346MOL0     H45632   1.851   6.505   3.497  2.5796  0.7498  1.7333
  346MOL0     H45633   1.930   6.346   3.461  1.4468  1.0098  0.6794
  346MOL0     H45634   1.620   6.391   3.164  0.1570 -1.4484 -2.2820
  346MOL0     H45635   1.424   6.246   3.167  0.9579 -2.0617 -0.5671
  346MOL0     H45636   1.185   5.895   3.107  0.3872  2.6793  0.0390
  346MOL0     H45637   0.937   5.802   3.096  0.2438  0.3954 -0.6759
  346MOL0     H45638   0.785   5.671   3.178 -0.1243 -1.3474  1.1512
  346MOL0     H45639   0.664   5.788   3.127 -1.2439 -0.7161 -0.3537
  346MOL0     H45640   0.523   5.747   3.309  1.0979 -0.0985  0.5513
  346MOL0     H45641   0.637   5.633   3.384  0.1355  1.1675  1.0869
  346MOL0     H45642   0.596   5.465   3.238 -0.0443 -0.3506 -0.3885
  346MOL0     H45643   0.540   5.571   3.099  1.4554  1.6172  0.4174
  346MOL0     H45644   0.398   5.474   3.352 -0.1592 -2.4554 -1.3700
  346MOL0     H45645   0.338   5.607   3.252  2.6353  2.9018  0.6000
  346MOL0     H45646   0.404   5.322   3.158 -1.7815 -1.7219 -0.7042
  346MOL0     H45647   0.342   5.466   3.063 -1.7115  1.4938  0.6180
  346MOL0     H45648   0.132   5.439   3.130 -0.6003  0.1551  0.8435
  346MOL0     H45649   0.177   5.399   3.300 -0.3022  0.8658  0.4221
  346MOL0     H45650   0.153   5.202   3.075 -0.1079 -2.6125  0.2184
  346MOL0     H45651   0.251   5.161   3.219  0.4104  0.0238 -0.6311
  346MOL0     H45652  -0.015   5.096   3.208  1.6042 -0.0045 -0.6517
  346MOL0     H45653  -0.035   5.273   3.205 -0.9472  0.1071 -0.2400
  346MOL0     H45654   0.854   5.992   3.461  2.2075 -0.9626  1.2048
  346MOL0     H45655   1.081   6.103   3.462  0.5965 -0.4979 -0.4918
  346MOL0     H45656   1.549   6.080   3.545 -2.0920 -1.7665 -1.1605
  346MOL0     H45657   1.736   6.245   3.546 -0.8516  1.6629 -0.3969
  346MOL0     H45658   3.238   7.178   3.134 -1.9586 -0.5960  0.0508
  346MOL0     H45659   3.393   7.148   2.962 -0.4421  1.0833  0.3220
  346MOL0     H45660   3.819   6.928   2.831 -0.9619  0.6742  0.4042
  346MOL0     H45661   3.959   6.832   2.650  0.9379 -1.0056 -1.9664
  346MOL0     H45662   4.048   6.656   2.426 -2.2285 -1.9508 -3.1853
  346MOL0     H45663   4.049   6.837   2.459  1.8368 -2.5321  2.3791
  346MOL0     H45664   3.982   6.719   2.194  0.2593 -0.4668  0.2689
  346MOL0     H45665   3.991   6.891   2.233  2.6326  0.7714 -0.8129
  346MOL0     H45666   4.242   6.849   2.272 -0.8525  0.1070  0.0854
  346MOL0     H45667   4.180   6.834   2.103  3.7823  0.5985 -0.3407
  346MOL0     H45668   4.332   6.652   2.148  0.5118  1.9260  1.3195
  346MOL0     H45669   4.240   6.606   2.294  3.6000 -1.4042 -1.3400
  346MOL0     H45670   4.015   6.402   2.018  0.2726 -0.6098  1.7622
  346MOL0     H45671   3.610   6.846   2.392 -0.7485  1.8396 -0.2483
  346MOL0     H45672   3.476   6.910   2.573  0.3257 -3.0576 -0.1676
  347MOL0     O45673   0.649  10.438  10.863  0.0431 -0.4079 -0.4211
  347MOL0     C45674   0.731  10.351  10.856 -0.0443 -0.1477  1.4150
  347MOL0     O45675   0.698  10.218  10.807  0.7890 -0.4307  0.1244
  347MOL0     C45676   0.569  10.162  10.788  0.6140 -0.3885 -0.2955
  347MOL0     C45677   0.443  10.220  10.820  0.4023  0.1326  0.1641
  347MOL0     C45678   0.324  10.151  10.814  0.0438  0.9421 -1.1318
  347MOL0     C45679   0.316  10.026  10.764 -0.2065 -0.2022 -0.5793
  347MOL0     O45680   0.192   9.967  10.758 -0.1842  0.3551  0.0240
  347MOL0     C45681   0.186   9.826  10.734  0.6118 -0.3529 -0.1427
  347MOL0     C45682   0.046   9.781  10.764  0.7639 -0.3687 -0.4676
  347MOL0     C45683  -0.014   9.654  10.702  0.3020  0.5895 -0.2816
  347MOL0     C45684   0.049   9.530  10.756  0.3796  0.4001  0.5687
  347MOL0     C45685   0.039   9.416  10.659  0.0589 -0.1203  0.0122
  347MOL0     C45686   0.130   9.306  10.682  0.3547 -0.8011  0.7181
  347MOL0     C45687   0.090   9.190  10.585 -0.8087 -0.6016  0.0026
  347MOL0     C45688   0.125   9.044  10.637  0.3735  1.0477 -0.6837
  347MOL0     N45689   0.272   9.009  10.616 -0.2721  0.7328 -0.1507
  347MOL0     C45690   0.320   8.909  10.537 -0.0390  0.0694  0.6762
  347MOL0     C45691   0.454   8.905  10.566 -1.0697  0.2774  0.0892
  347MOL0     C45692   0.546   8.820  10.485  0.0694  0.2180 -0.5434
  347MOL0     C45693   0.694   8.860  10.501 -0.3605  0.1016  0.4873
  347MOL0     C45694   0.775   8.802  10.382  0.3443  0.2677  0.1816
  347MOL0     C45695   0.908   8.891  10.394 -0.5887 -0.0800  0.3834
  347MOL0     O45696   0.999   8.854  10.293 -0.5745 -0.4485  0.3569
  347MOL0     C45697   1.116   8.918  10.304  0.1890 -0.4357 -0.7023
  347MOL0     C45698   1.210   8.877  10.225 -0.8014  0.9731 -0.2181
  347MOL0     C45699   1.347   8.920  10.234 -0.0152  0.5442 -0.2906
  347MOL0     C45700   1.380   9.018  10.327 -0.3179 -0.3972 -0.2253
  347MOL0     C45701   1.519   9.063  10.326 -0.9702  0.1882  0.1450
  347MOL0     O45702   1.611   9.010  10.236  0.5351 -0.2358 -0.5032
  347MOL0     C45703   1.742   9.011  10.258 -0.6714 -0.3265  0.0447
  347MOL0     C45704   1.822   8.983  10.147  0.4935  0.1309  0.1645
  347MOL0     C45705   1.962   8.967  10.149 -0.0198 -0.2779  0.2013
  347MOL0     C45706   2.029   8.973  10.277 -0.3875 -0.6132  0.1542
  347MOL0     O45707   2.163   8.972  10.292  0.1668 -0.4791 -0.3928
  347MOL0     C45708   2.233   9.044  10.191 -0.0449 -0.1337  1.0136
  347MOL0     C45709   2.365   9.072  10.246  0.6943  0.0716 -0.3572
  347MOL0     C45710   2.445   9.143  10.138  0.3196 -0.9727  0.9411
  347MOL0     C45711   2.592   9.166  10.183  0.6486 -0.7787 -0.2602
  347MOL0     C45712   2.693   9.184  10.070 -0.1390  0.0062 -0.4644
  347MOL0     C45713   2.836   9.203  10.125 -0.4214 -0.0411 -0.5289
  347MOL0     C45714   2.928   9.217  10.009  0.4762  0.2178  0.9756
  347MOL0     C45715   3.079   9.205  10.049 -0.5870 -0.0588 -0.6987
  347MOL0    Cl45716   3.171   9.200   9.901 -0.4232  0.3150  0.1380
  347MOL0     C45717   1.941   8.990  10.394  0.2701  0.1836  0.2182
  347MOL0     C45718   1.805   9.014  10.387  0.0411 -0.1830 -0.1763
  347MOL0     O45719   1.546   9.150  10.409  0.2675 -0.5052  0.3662
  347MOL0     C45720   1.280   9.062  10.415 -0.2045 -0.2533  0.2598
  347MOL0     C45721   1.152   9.009  10.405  0.3781  0.5058  0.5419
  347MOL0     N45722   0.483   9.010  10.651 -0.6746 -0.2630 -0.4979
  347MOL0     N45723   0.373   9.070  10.677 -0.2152  0.1608  0.0527
  347MOL0     C45724   0.430   9.973  10.711 -0.0868 -0.1067  0.1168
  347MOL0     C45725   0.562  10.036  10.724  0.7825 -0.0419 -0.1154
  347MOL0     C45726   0.876  10.385  10.874  0.1811  0.4312 -0.2585
  347MOL0     C45727   0.921  10.515  10.883 -0.2024 -0.1524 -0.4080
  347MOL0     C45728   1.061  10.538  10.894  0.7211 -0.4692 -0.4490
  347MOL0     C45729   1.150  10.428  10.900  0.1734  0.0246 -0.6354
  347MOL0     O45730   1.286  10.431  10.892 -0.4200  0.4075  0.1809
  347MOL0     C45731   1.332  10.558  10.852  0.3217  0.2021 -0.7891
  347MOL0     C45732   1.484  10.569  10.827  1.3001  0.0562  0.1018
  347MOL0     C45733   1.538  10.473  10.718  0.1715 -0.1567  0.2857
  347MOL0     C45734   1.692  10.494  10.716  0.0595 -0.0215  0.1970
  347MOL0     C45735   1.753  10.402  10.627 -0.1070  1.2621  0.1014
  347MOL0     C45736   1.804  10.336  10.536 -0.5466 -0.6436  0.1493
  347MOL0     C45737   1.103  10.298  10.898 -0.1440  0.1550 -0.8186
  347MOL0     C45738   0.968  10.277  10.882  0.1880 -0.2018  0.2421
  347MOL0     H45739   0.421  10.317  10.864  0.4717  0.5761 -0.7542
  347MOL0     H45740   0.236  10.194  10.860  0.5121  1.2355 -0.4973
  347MOL0     H45741   0.257   9.769  10.796 -0.1801 -0.9555  0.2196
  347MOL0     H45742   0.200   9.802  10.628 -1.4580 -4.0618  0.2512
  347MOL0     H45743  -0.022   9.858  10.726 -1.0914 -1.2295  0.8910
  347MOL0     H45744   0.035   9.776  10.873  3.5137 -0.2656 -0.1231
  347MOL0     H45745   0.010   9.649  10.595 -0.6252 -1.7934 -0.4536
  347MOL0     H45746  -0.123   9.649  10.711  0.2171  2.2655 -0.1607
  347MOL0     H45747   0.156   9.540  10.776  1.1511 -1.3973 -2.0729
  347MOL0     H45748   0.001   9.503  10.850  2.5010 -0.1599  1.5534
  347MOL0     H45749   0.057   9.441  10.554 -0.8045  2.1453  0.3364
  347MOL0     H45750  -0.063   9.377  10.665 -1.2309  3.1036  1.6877
  347MOL0     H45751   0.108   9.267  10.782 -0.5223 -0.6373  0.5980
  347MOL0     H45752   0.236   9.327  10.666 -0.0447 -1.0072 -3.3250
  347MOL0     H45753  -0.017   9.186  10.565 -0.7730 -1.0079 -0.1177
  347MOL0     H45754   0.144   9.199  10.491 -1.6619 -1.3466 -0.5691
  347MOL0     H45755   0.055   8.976  10.587 -0.0227 -1.0765  2.4509
  347MOL0     H45756   0.109   9.028  10.744  1.0450 -1.1286 -0.8571
  347MOL0     H45757   0.268   8.844  10.467  0.5401  0.7029 -0.3729
  347MOL0     H45758   0.515   8.839  10.381 -3.5265  1.4269  0.5776
  347MOL0     H45759   0.532   8.716  10.513  2.6747  0.3159  1.5058
  347MOL0     H45760   0.741   8.826  10.593 -0.8527 -0.8842  0.3809
  347MOL0     H45761   0.699   8.970  10.497  0.6114  0.0815  0.7569
  347MOL0     H45762   0.798   8.696  10.400 -2.5399 -0.4260  0.3034
  347MOL0     H45763   0.722   8.817  10.288 -0.2995  0.4741  0.5715
  347MOL0     H45764   0.946   8.889  10.496 -2.7685  1.4917  1.2937
  347MOL0     H45765   0.875   8.992  10.371  1.5075  0.1189 -2.2269
  347MOL0     H45766   1.180   8.804  10.151 -0.8762  0.4809  0.2956
  347MOL0     H45767   1.430   8.876  10.180 -1.0737 -1.2676 -0.4981
  347MOL0     H45768   1.767   8.970  10.054  0.2393  1.6118  0.0822
  347MOL0     H45769   2.019   8.942  10.060  1.2525  1.9348  0.3175
  347MOL0     H45770   2.172   9.132  10.167 -0.2889 -0.3325  0.9055
  347MOL0     H45771   2.244   8.988  10.098 -1.1945  1.0523  0.1145
  347MOL0     H45772   2.415   8.977  10.269  2.2435  1.0425  0.4298
  347MOL0     H45773   2.348   9.135  10.334  2.6593  0.0880  0.0462
  347MOL0     H45774   2.404   9.242  10.115  2.2363 -0.3143  0.0981
  347MOL0     H45775   2.437   9.086  10.045  0.6676 -1.0295  0.9454
  347MOL0     H45776   2.582   9.243  10.261 -1.5750 -0.9431 -0.3064
  347MOL0     H45777   2.627   9.079  10.239 -1.2242  0.8060  3.7780
  347MOL0     H45778   2.672   9.268  10.003  0.4344  0.2800 -0.3058
  347MOL0     H45779   2.692   9.089  10.017 -0.9846  0.5974 -1.5480
  347MOL0     H45780   2.869   9.124  10.193  1.5221  2.0715  1.1306
  347MOL0     H45781   2.850   9.292  10.187  4.0490  0.5234 -1.9819
  347MOL0     H45782   2.907   9.142   9.932  1.0609  1.4347 -0.4210
  347MOL0     H45783   2.906   9.309   9.954  2.5047  0.2831  0.1906
  347MOL0     H45784   3.087   9.113  10.107 -1.3812  0.4630  0.2699
  347MOL0     H45785   3.109   9.289  10.112  0.4456 -1.1155  0.2543
  347MOL0     H45786   1.984   8.985  10.493 -3.0127  1.7871  1.8491
  347MOL0     H45787   1.754   9.016  10.482 -0.3864 -0.4780 -0.3967
  347MOL0     H45788   1.293   9.141  10.489 -1.6158 -0.9378  1.2913
  347MOL0     H45789   1.086   9.049  10.481  0.7677  0.5906  0.8412
  347MOL0     H45790   0.422   9.889  10.643 -2.4714 -0.0833  0.2830
  347MOL0     H45791   0.642   9.985  10.671 -0.2318 -4.0647  1.8093
  347MOL0     H45792   0.864  10.607  10.895  0.2859 -0.2021  3.2914
  347MOL0     H45793   1.095  10.641  10.895 -2.1214  0.6466  2.9746
  347MOL0     H45794   1.296  10.629  10.927 -0.6287 -1.4376  0.3910
  347MOL0     H45795   1.279  10.580  10.758 -0.1375  0.2801 -0.5134
  347MOL0     H45796   1.501  10.676  10.811 -1.3000  1.0718  3.1993
  347MOL0     H45797   1.537  10.559  10.922  0.8640  0.5337  0.3954
  347MOL0     H45798   1.482  10.498  10.627 -0.4562 -0.8971  0.4678
  347MOL0     H45799   1.498  10.374  10.740 -3.5475  0.9424 -0.8094
  347MOL0     H45800   1.721  10.596  10.693  0.6994  0.5813  3.2326
  347MOL0     H45801   1.728  10.473  10.817 -1.3671 -0.9976  0.5303
  347MOL0     H45802   1.855  10.276  10.463 -1.9210 -1.4121 -0.2123
  347MOL0     H45803   1.180  10.222  10.897 -0.8011 -0.5387  0.0658
  347MOL0     H45804   0.927  10.177  10.878  0.2927 -0.2069 -1.4346
  348MOL0     O45805   8.217   8.660   3.356  1.0485  0.0967 -0.6652
  348MOL0     C45806   8.269   8.564   3.313 -0.1426  0.1785  0.2787
  348MOL0     O45807   8.245   8.507   3.188 -0.3152  0.5457  0.4004
  348MOL0     C45808   8.153   8.558   3.099  0.9660 -0.8416 -0.1964
  348MOL0     C45809   8.176   8.539   2.966  0.0784  0.8217  0.4029
  348MOL0     C45810   8.088   8.597   2.875 -0.2319  0.7403 -0.5704
  348MOL0     C45811   7.970   8.661   2.917  0.6957 -0.1926 -0.3872
  348MOL0     O45812   7.876   8.724   2.841  0.5366  0.0882 -0.1877
  348MOL0     C45813   7.819   8.652   2.740  0.6629  0.4294  0.6113
  348MOL0     C45814   7.687   8.713   2.719  0.0735  0.3393 -0.5274
  348MOL0     C45815   7.611   8.691   2.582 -0.8202  0.2882  0.1269
  348MOL0     C45816   7.474   8.774   2.577  0.0202 -0.6704 -0.5171
  348MOL0     C45817   7.379   8.736   2.461 -0.0650 -0.1551  0.2700
  348MOL0     C45818   7.240   8.789   2.476 -0.4012 -0.0245 -0.0864
  348MOL0     C45819   7.144   8.739   2.368  0.3742 -0.1012 -0.6115
  348MOL0     C45820   7.005   8.802   2.405 -0.6689  0.1163  0.4631
  348MOL0     N45821   6.896   8.716   2.350  0.7164  0.0764 -0.2634
  348MOL0     C45822   6.820   8.738   2.235 -0.1156  0.7443  0.1103
  348MOL0     C45823   6.736   8.626   2.230 -0.2944 -1.2938 -0.1284
  348MOL0     C45824   6.642   8.590   2.117  1.0033  0.7819 -0.2309
  348MOL0     C45825   6.496   8.581   2.166 -0.5357  0.1049  0.1297
  348MOL0     C45826   6.476   8.435   2.222  0.5354  0.0346  0.1268
  348MOL0     C45827   6.330   8.409   2.271 -0.4435  0.6522  0.8316
  348MOL0     O45828   6.250   8.445   2.155 -0.4518 -0.9759 -0.0526
  348MOL0     C45829   6.118   8.462   2.183  0.9054 -0.3577 -0.1290
  348MOL0     C45830   6.045   8.362   2.248 -0.0780 -0.6832 -0.3118
  348MOL0     C45831   5.911   8.383   2.288 -0.2318 -0.1902 -0.2678
  348MOL0     C45832   5.844   8.500   2.258  0.4930  0.7042 -0.3595
  348MOL0     C45833   5.703   8.515   2.302 -0.3189  0.7781  0.0978
  348MOL0     O45834   5.632   8.619   2.245 -0.5352  1.1361  0.1851
  348MOL0     C45835   5.497   8.618   2.255  0.5624 -0.7322  0.4749
  348MOL0     C45836   5.435   8.659   2.373 -0.0746 -0.9537 -0.4197
  348MOL0     C45837   5.296   8.686   2.383 -0.2504 -0.2540 -0.0407
  348MOL0     C45838   5.220   8.639   2.279  0.1324  0.3628  0.4132
  348MOL0     O45839   5.084   8.651   2.293 -0.0197 -0.1940  0.1770
  348MOL0     C45840   5.028   8.749   2.197 -0.6097 -0.0850  0.1893
  348MOL0     C45841   5.095   8.885   2.211  0.3171  0.0289  0.1281
  348MOL0     C45842   5.006   8.997   2.141  0.4173 -0.5516 -0.1165
  348MOL0     C45843   4.997   8.986   1.987 -0.8624  0.2337  0.2746
  348MOL0     C45844   4.878   9.061   1.918  0.2326  0.2672 -0.0854
  348MOL0     C45845   4.881   9.209   1.922  0.2692  0.5560  0.8320
  348MOL0     C45846   4.757   9.291   1.879  0.3994  0.0823  0.0236
  348MOL0     C45847   4.630   9.261   1.954  0.9465  0.5995 -0.1241
  348MOL0    Cl45848   4.509   9.405   1.939  0.3947 -0.1481  0.2113
  348MOL0     C45849   5.281   8.605   2.148  0.6212 -0.5095 -0.5818
  348MOL0     C45850   5.420   8.594   2.138 -0.1134 -0.1382  1.1888
  348MOL0     O45851   5.664   8.430   2.380  0.5383  0.6331 -0.9079
  348MOL0     C45852   5.922   8.603   2.197  0.4307  0.5807  0.5592
  348MOL0     C45853   6.051   8.580   2.152  0.0908  0.0534 -0.0775
  348MOL0     N45854   6.768   8.543   2.328 -0.3232 -0.1025 -0.2675
  348MOL0     N45855   6.867   8.592   2.393  0.5073 -0.5797  0.6123
  348MOL0     C45856   7.942   8.666   3.052  0.2439 -0.4081 -0.1002
  348MOL0     C45857   8.036   8.614   3.142  0.5285 -1.2502  0.0902
  348MOL0     C45858   8.367   8.505   3.401 -0.3721  0.7152  0.5467
  348MOL0     C45859   8.412   8.372   3.372  0.1833 -0.5373  0.1219
  348MOL0     C45860   8.506   8.318   3.458 -0.5339  0.4047  0.1285
  348MOL0     C45861   8.553   8.391   3.564  0.3098  0.2299  0.2574
  348MOL0     O45862   8.646   8.332   3.648  0.4057 -1.0060 -0.0478
  348MOL0     C45863   8.728   8.422   3.736  0.3423 -0.1470 -0.0454
  348MOL0     C45864   8.846   8.337   3.791  0.2628  0.6990 -0.4616
  348MOL0     C45865   8.946   8.431   3.861 -0.4594 -0.4647 -0.5339
  348MOL0     C45866   9.068   8.359   3.903 -0.3057 -0.6847  0.2833
  348MOL0     C45867   9.174   8.453   3.944 -0.6845 -0.0155  0.3527
  348MOL0     C45868   9.273   8.513   3.985  1.1475 -0.5630  0.1664
  348MOL0     C45869   8.519   8.520   3.587  0.1144 -0.9375  1.0177
  348MOL0     C45870   8.417   8.576   3.514  0.5930 -0.1295  0.8325
  348MOL0     H45871   8.262   8.476   2.945  0.3665  1.8111 -1.7039
  348MOL0     H45872   8.104   8.569   2.771  2.5817  0.0506 -0.0256
  348MOL0     H45873   7.802   8.546   2.762  1.8772 -0.2392 -1.4153
  348MOL0     H45874   7.887   8.666   2.656  0.9019  1.6478  0.9963
  348MOL0     H45875   7.697   8.819   2.745 -1.3909 -0.6187  5.4502
  348MOL0     H45876   7.622   8.689   2.803  1.7398 -0.1487  0.6660
  348MOL0     H45877   7.580   8.586   2.584 -1.4214  0.4632  1.5929
  348MOL0     H45878   7.677   8.726   2.502 -1.0948 -3.1705 -1.8131
  348MOL0     H45879   7.420   8.757   2.671  0.5234 -0.1125 -0.1203
  348MOL0     H45880   7.506   8.878   2.571  0.3895 -0.7783 -0.4921
  348MOL0     H45881   7.378   8.628   2.450 -0.8921 -0.4319  2.4630
  348MOL0     H45882   7.421   8.783   2.372 -1.6254 -1.7843 -1.4000
  348MOL0     H45883   7.234   8.898   2.485 -2.5844  0.1534 -2.4565
  348MOL0     H45884   7.203   8.775   2.578  3.2172  0.6541  1.4993
  348MOL0     H45885   7.172   8.771   2.268 -1.2722  2.2833 -0.4031
  348MOL0     H45886   7.124   8.631   2.369  0.0870 -0.0964 -2.6459
  348MOL0     H45887   7.004   8.897   2.349  2.9848 -1.1585 -2.1707
  348MOL0     H45888   6.987   8.815   2.512 -1.8347 -0.3711  0.3305
  348MOL0     H45889   6.839   8.821   2.167 -0.3348  2.0152  1.5439
  348MOL0     H45890   6.674   8.497   2.068  1.5937 -0.2814  2.0623
  348MOL0     H45891   6.654   8.670   2.043 -0.1438  1.9344  0.7851
  348MOL0     H45892   6.423   8.613   2.091 -1.1763 -0.1315  0.6371
  348MOL0     H45893   6.497   8.655   2.247 -0.8542  1.7776 -1.3434
  348MOL0     H45894   6.499   8.362   2.144  0.6146 -0.9797  1.0734
  348MOL0     H45895   6.551   8.409   2.298  0.2352 -2.3976 -0.3301
  348MOL0     H45896   6.308   8.462   2.364 -2.2698  2.2805 -0.4460
  348MOL0     H45897   6.316   8.303   2.295 -2.6829  0.3697 -1.2919
  348MOL0     H45898   6.089   8.272   2.289 -0.0048 -0.3549  0.3614
  348MOL0     H45899   5.857   8.302   2.336 -0.7030 -0.0747 -0.5967
  348MOL0     H45900   5.493   8.677   2.463  0.6444 -0.3842 -0.9770
  348MOL0     H45901   5.253   8.730   2.473  2.6020  0.1137  1.2479
  348MOL0     H45902   4.920   8.755   2.217 -0.4756 -0.4995  1.0762
  348MOL0     H45903   5.033   8.709   2.095  1.0169 -0.1469  0.2738
  348MOL0     H45904   5.195   8.878   2.166 -0.4955 -1.9018 -1.5295
  348MOL0     H45905   5.121   8.920   2.311 -0.5479 -0.7569  0.6420
  348MOL0     H45906   5.044   9.095   2.171 -1.1225  1.0106 -2.8466
  348MOL0     H45907   4.904   8.991   2.180 -0.4940 -0.2733 -2.2615
  348MOL0     H45908   5.092   9.016   1.941  0.3280 -2.5704  0.7295
  348MOL0     H45909   4.975   8.880   1.970  2.0938 -0.5630  0.8742
  348MOL0     H45910   4.782   9.025   1.957  1.7211 -0.8526  2.7877
  348MOL0     H45911   4.881   9.038   1.811  1.8677  0.1666 -0.0425
  348MOL0     H45912   4.961   9.249   1.859 -0.0969 -0.0383 -0.0247
  348MOL0     H45913   4.906   9.246   2.022 -0.4043  0.2723  1.1105
  348MOL0     H45914   4.789   9.390   1.910  0.2408  0.4150 -0.8532
  348MOL0     H45915   4.755   9.284   1.770  2.0920 -2.2021  0.0659
  348MOL0     H45916   4.642   9.236   2.060  0.3805 -1.5913 -0.5214
  348MOL0     H45917   4.583   9.175   1.904 -1.3357  1.2436  0.7453
  348MOL0     H45918   5.224   8.584   2.058 -1.4739  1.4776  0.1773
  348MOL0     H45919   5.465   8.569   2.042  0.5734 -2.2420  1.9962
  348MOL0     H45920   5.879   8.700   2.177 -3.1977 -1.0578 -0.4556
  348MOL0     H45921   6.093   8.653   2.083  1.1343  0.1319  0.6160
  348MOL0     H45922   7.856   8.719   3.092  0.5101  1.2585 -1.5853
  348MOL0     H45923   8.012   8.615   3.248 -2.3685 -1.1238 -0.5036
  348MOL0     H45924   8.365   8.310   3.296 -1.7858  0.6704  0.2682
  348MOL0     H45925   8.550   8.221   3.440 -1.5285 -0.1287  0.5041
  348MOL0     H45926   8.674   8.468   3.819  1.2454  0.2748  0.3112
  348MOL0     H45927   8.775   8.503   3.680  1.6909 -1.1051 -0.3530
  348MOL0     H45928   8.807   8.271   3.869  0.5914 -1.1431 -1.7953
  348MOL0     H45929   8.895   8.273   3.717  0.7480  1.9458 -1.2519
  348MOL0     H45930   8.894   8.483   3.942  0.7224  1.3083 -0.8563
  348MOL0     H45931   8.980   8.499   3.783 -2.2851  0.1901 -0.8030
  348MOL0     H45932   9.037   8.289   3.982 -3.3278 -0.8842 -0.9619
  348MOL0     H45933   9.111   8.309   3.816  1.8479  2.7451 -0.8241
  348MOL0     H45934   9.362   8.566   4.010  1.5750 -0.5317 -1.3768
  348MOL0     H45935   8.565   8.580   3.665  0.4487 -1.2723  1.0824
  348MOL0     H45936   8.375   8.676   3.522 -4.6185 -1.8318 -0.9232
  349MOL0     O45937  10.069   5.856   8.136 -0.9785 -0.2921  0.5417
  349MOL0     C45938  10.122   5.751   8.097  0.0645  0.4398  0.1073
  349MOL0     O45939  10.062   5.676   8.002  0.0925  0.5525 -0.1903
  349MOL0     C45940   9.977   5.741   7.909 -0.2587 -0.4437  0.5841
  349MOL0     C45941   9.995   5.859   7.843 -0.3739  0.5963  0.2736
  349MOL0     C45942   9.899   5.917   7.766 -0.1816  0.3627 -0.3846
  349MOL0     C45943   9.771   5.861   7.763 -0.2595  0.5140  0.2855
  349MOL0     O45944   9.670   5.919   7.686 -0.7167  0.1547 -0.7070
  349MOL0     C45945   9.536   5.871   7.683 -1.2332 -0.0258 -0.7042
  349MOL0     C45946   9.528   5.773   7.571  0.2189 -0.1710 -1.0447
  349MOL0     C45947   9.505   5.848   7.442 -0.2944  0.4403 -0.2846
  349MOL0     C45948   9.493   5.749   7.323  1.0071 -0.4841 -0.5357
  349MOL0     C45949   9.454   5.825   7.195  0.1252 -0.5493  0.1898
  349MOL0     C45950   9.305   5.865   7.191  1.4901  0.2652 -0.7546
  349MOL0     C45951   9.258   5.883   7.040 -0.0261  0.3142  0.0062
  349MOL0     C45952   9.113   5.919   7.035  0.1068 -0.1993 -0.1337
  349MOL0     N45953   9.066   6.001   6.924 -0.5835  0.5376  0.9369
  349MOL0     C45954   8.934   6.045   6.917 -0.0534  0.5503  0.7731
  349MOL0     C45955   8.923   6.118   6.795 -0.6625  0.2327 -0.1298
  349MOL0     C45956   8.807   6.187   6.737  0.3987 -0.0291 -0.4479
  349MOL0     C45957   8.782   6.311   6.827  0.9488 -0.0283  0.2636
  349MOL0     C45958   8.658   6.394   6.785  0.0477 -0.2808  0.3849
  349MOL0     C45959   8.652   6.529   6.856  0.3593  0.0720  0.1421
  349MOL0     O45960   8.630   6.503   7.002  0.7013  0.4959  0.9283
  349MOL0     C45961   8.614   6.610   7.080 -0.1287 -0.7129 -0.0903
  349MOL0     C45962   8.579   6.587   7.210 -0.0464 -0.4867 -0.3146
  349MOL0     C45963   8.545   6.695   7.294 -0.0077  1.2483  0.0292
  349MOL0     C45964   8.538   6.824   7.244 -0.2865 -0.4438 -0.4816
  349MOL0     C45965   8.478   6.943   7.325  0.9333 -0.5345  0.2449
  349MOL0     O45966   8.448   6.906   7.454  0.1299 -0.2452  0.0871
  349MOL0     C45967   8.403   6.999   7.545  0.4721 -0.0719 -0.2557
  349MOL0     C45968   8.417   7.138   7.542  0.8474 -0.1044 -0.0538
  349MOL0     C45969   8.381   7.219   7.650  0.0708  0.2377 -0.1807
  349MOL0     C45970   8.335   7.162   7.763  0.3997  1.3549  0.8803
  349MOL0     O45971   8.293   7.228   7.876  0.0570 -0.9602  0.4290
  349MOL0     C45972   8.224   7.357   7.877  0.2640  0.3145  0.4975
  349MOL0     C45973   8.160   7.370   8.017 -0.2875  0.0802  0.4946
  349MOL0     C45974   8.061   7.485   8.035  0.2832  0.6410 -0.1189
  349MOL0     C45975   8.006   7.476   8.171  1.2446 -0.7277 -0.3681
  349MOL0     C45976   7.906   7.592   8.197  0.3914 -0.0072 -0.8726
  349MOL0     C45977   7.864   7.620   8.342 -0.2335  0.0249 -0.3248
  349MOL0     C45978   7.778   7.512   8.406  0.3702  0.0710  0.9036
  349MOL0     C45979   7.710   7.552   8.531 -0.6124 -0.2302  0.5303
  349MOL0    Cl45980   7.832   7.605   8.642  0.2000 -0.2700  0.2572
  349MOL0     C45981   8.327   7.022   7.773  0.1703 -0.5535 -0.2906
  349MOL0     C45982   8.350   6.937   7.662  0.0783  0.8263  0.0151
  349MOL0     O45983   8.446   7.051   7.270  0.7961  0.8082  0.7791
  349MOL0     C45984   8.597   6.849   7.122 -0.3218  0.4391  0.0551
  349MOL0     C45985   8.637   6.742   7.038  0.2416 -0.7850 -0.0383
  349MOL0     N45986   9.051   6.108   6.737 -0.2929 -0.1222  0.9696
  349MOL0     N45987   9.133   6.045   6.818 -0.1274  0.1046  0.6683
  349MOL0     C45988   9.750   5.735   7.826 -0.2622  0.3080 -0.0700
  349MOL0     C45989   9.852   5.678   7.901 -0.3885  0.0156  0.3805
  349MOL0     C45990  10.232   5.697   8.167 -0.4268 -0.5661 -0.8966
  349MOL0     C45991  10.277   5.745   8.294 -0.5040  0.0955  0.5763
  349MOL0     C45992  10.401   5.710   8.336 -0.5885 -0.1785  0.1260
  349MOL0     C45993  10.486   5.610   8.272  0.2952  0.3608 -0.8805
  349MOL0     O45994  10.603   5.565   8.329 -0.0007 -0.0199 -0.3754
  349MOL0     C45995  10.678   5.642   8.417 -0.8580  0.3087  0.8543
  349MOL0     C45996  10.831   5.607   8.420  1.1032  0.2031 -0.3294
  349MOL0     C45997  10.916   5.710   8.497  0.2112  0.3196  0.0555
  349MOL0     C45998  10.893   5.738   8.646  0.2926  0.6440 -0.0259
  349MOL0     C45999  10.890   5.610   8.719 -0.2467 -0.5392  0.1288
  349MOL0     C46000  10.870   5.507   8.779  0.1152  0.0955  1.1413
  349MOL0     C46001  10.440   5.566   8.151  0.5550 -0.7842 -0.4399
  349MOL0     C46002  10.318   5.603   8.099  1.1658  0.7845  0.3152
  349MOL0     H46003  10.090   5.911   7.847  0.5440 -1.0520  0.7902
  349MOL0     H46004   9.909   6.020   7.735  0.0068  0.6637  0.6230
  349MOL0     H46005   9.459   5.948   7.672  0.6445  2.2509  1.0515
  349MOL0     H46006   9.518   5.823   7.780 -0.2387 -1.0743 -1.0289
  349MOL0     H46007   9.452   5.695   7.582  0.8389 -0.7351 -0.6355
  349MOL0     H46008   9.625   5.722   7.566  0.9948  1.1756 -0.4714
  349MOL0     H46009   9.596   5.907   7.431 -0.8141  1.5312  0.9808
  349MOL0     H46010   9.408   5.899   7.454 -0.8559 -0.3416 -1.3108
  349MOL0     H46011   9.592   5.707   7.303  1.4581 -0.0457  0.7102
  349MOL0     H46012   9.420   5.669   7.342 -1.6972  1.4683 -2.0908
  349MOL0     H46013   9.474   5.761   7.108  1.0760 -0.9104  0.6551
  349MOL0     H46014   9.518   5.913   7.187 -0.2490 -0.1817  1.0713
  349MOL0     H46015   9.290   5.954   7.253  1.6839 -0.4613  0.3838
  349MOL0     H46016   9.246   5.792   7.247  0.9780  1.2230 -0.0009
  349MOL0     H46017   9.326   5.949   6.985 -0.3424 -1.0853 -2.1704
  349MOL0     H46018   9.268   5.793   6.979 -2.5361  1.2284 -1.9024
  349MOL0     H46019   9.080   5.970   7.126  1.2343 -0.7864  0.6250
  349MOL0     H46020   9.055   5.827   7.042 -3.9070  2.1300  0.1164
  349MOL0     H46021   8.858   6.027   6.992  1.9128 -2.5953  2.1795
  349MOL0     H46022   8.723   6.117   6.738 -0.1316  0.5775  1.4812
  349MOL0     H46023   8.838   6.209   6.635  3.4554  1.0874  0.5973
  349MOL0     H46024   8.869   6.377   6.838  0.8088  0.0914  0.6798
  349MOL0     H46025   8.763   6.279   6.930  1.3579  1.2300  0.7579
  349MOL0     H46026   8.660   6.414   6.677 -1.4468  1.9674  0.7110
  349MOL0     H46027   8.561   6.348   6.808  0.5546 -1.1366  0.8745
  349MOL0     H46028   8.563   6.575   6.813  1.7083  0.6125 -2.2063
  349MOL0     H46029   8.747   6.582   6.844 -0.1859  0.7398 -1.4376
  349MOL0     H46030   8.552   6.492   7.255  1.4525 -1.1941 -0.8679
  349MOL0     H46031   8.501   6.668   7.389 -1.2782  2.3075 -0.2193
  349MOL0     H46032   8.474   7.180   7.460  1.2490 -4.1052 -2.0067
  349MOL0     H46033   8.384   7.328   7.643 -2.7104  0.4944  1.2702
  349MOL0     H46034   8.143   7.379   7.808  2.3072 -0.5498 -2.3990
  349MOL0     H46035   8.301   7.432   7.855 -0.5785  0.8166 -0.8472
  349MOL0     H46036   8.232   7.378   8.100 -1.5268  0.7567  1.5423
  349MOL0     H46037   8.107   7.277   8.041  0.4312 -1.0530 -2.0175
  349MOL0     H46038   7.978   7.471   7.966 -2.0397  1.4585  2.3225
  349MOL0     H46039   8.110   7.581   8.014  0.3168  0.2277 -2.1013
  349MOL0     H46040   7.962   7.380   8.199  1.2855 -0.4926  0.5249
  349MOL0     H46041   8.086   7.491   8.245 -1.8420 -0.2487  3.1781
  349MOL0     H46042   7.820   7.568   8.135  0.0293 -3.2163  0.6230
  349MOL0     H46043   7.943   7.689   8.164  0.1582  0.3271 -0.1800
  349MOL0     H46044   7.811   7.715   8.357 -0.2301  0.1594 -1.1257
  349MOL0     H46045   7.961   7.624   8.392 -0.6678 -0.4440  0.5713
  349MOL0     H46046   7.695   7.477   8.343  0.3477 -1.5085  1.7703
  349MOL0     H46047   7.845   7.426   8.420  2.0263  0.6770 -2.2043
  349MOL0     H46048   7.659   7.469   8.581 -0.6944  0.9547  2.5431
  349MOL0     H46049   7.642   7.634   8.512 -0.5022  0.1006  1.4884
  349MOL0     H46050   8.292   6.975   7.864  0.9118  1.6952  1.2278
  349MOL0     H46051   8.330   6.831   7.656  1.9972  0.5026 -4.0697
  349MOL0     H46052   8.598   6.954   7.093  0.3838  0.6556  0.8318
  349MOL0     H46053   8.676   6.763   6.939 -0.4719 -2.4209 -0.7034
  349MOL0     H46054   9.657   5.679   7.815  0.1965 -0.5163  0.1710
  349MOL0     H46055   9.837   5.590   7.963 -1.8403  0.1426  0.2430
  349MOL0     H46056  10.216   5.823   8.337 -2.6989 -0.8691 -0.6403
  349MOL0     H46057  10.446   5.765   8.418  0.5697 -1.7528  0.5963
  349MOL0     H46058  10.629   5.632   8.515 -0.9846 -0.3873  0.7197
  349MOL0     H46059  10.681   5.744   8.379  0.7631  0.1662  0.5636
  349MOL0     H46060  10.843   5.505   8.457  2.1180 -0.1819 -1.6504
  349MOL0     H46061  10.855   5.594   8.314 -2.0532  0.5302 -1.1869
  349MOL0     H46062  10.918   5.808   8.448 -0.2656  0.2329 -0.1478
  349MOL0     H46063  11.015   5.667   8.481 -0.8523 -1.2290 -3.5856
  349MOL0     H46064  10.960   5.816   8.682 -1.1867  1.6912  0.5521
  349MOL0     H46065  10.793   5.779   8.664  0.1998  1.0211 -1.2897
  349MOL0     H46066  10.855   5.424   8.845  1.4580  0.3581  1.8040
  349MOL0     H46067  10.506   5.501   8.093  3.7363  2.6849 -1.1070
  349MOL0     H46068  10.284   5.549   8.011 -2.0584  3.8172 -0.5634
  350MOL0     O46069   8.591   3.708   0.520  0.3487 -0.3176  0.0210
  350MOL0     C46070   8.623   3.682   0.408 -0.0426 -0.1056  0.1531
  350MOL0     O46071   8.543   3.682   0.294  0.1030 -0.4233  0.5693
  350MOL0     C46072   8.414   3.736   0.292  0.0170  0.2188  0.4905
  350MOL0     C46073   8.367   3.835   0.381 -0.8307  0.0781 -0.0640
  350MOL0     C46074   8.237   3.884   0.362  0.6900  0.2770  0.8052
  350MOL0     C46075   8.156   3.831   0.254  0.2751  0.6342 -0.4698
  350MOL0     O46076   8.027   3.882   0.254 -0.4598 -0.1650 -0.1569
  350MOL0     C46077   7.923   3.799   0.207 -0.3095 -0.2242 -0.1620
  350MOL0     C46078   7.798   3.892   0.203 -0.0923  0.5157 -0.1195
  350MOL0     C46079   7.720   3.898   0.333 -0.5964 -0.0711  0.2409
  350MOL0     C46080   7.575   3.934   0.315  0.3025 -0.2845  0.3868
  350MOL0     C46081   7.510   3.933   0.454  1.1895  0.0024 -0.3086
  350MOL0     C46082   7.371   3.993   0.445  0.0721 -0.2485 -0.8297
  350MOL0     C46083   7.329   4.030   0.584  0.5252  0.7600 -0.3969
  350MOL0     C46084   7.186   4.089   0.602 -0.4213  0.0779 -0.4543
  350MOL0     N46085   7.156   4.183   0.498  0.1336 -0.6041 -0.0817
  350MOL0     C46086   7.194   4.322   0.501  0.2640  0.2737  0.3950
  350MOL0     C46087   7.137   4.379   0.387  0.1914  0.8970 -0.0171
  350MOL0     C46088   7.142   4.519   0.338  0.5043  0.4982 -0.2902
  350MOL0     C46089   7.025   4.604   0.396  0.2137 -0.1022  0.7393
  350MOL0     C46090   6.902   4.580   0.304 -0.2657 -0.6272 -0.5030
  350MOL0     C46091   6.774   4.639   0.347  0.3324 -0.2506  0.4894
  350MOL0     O46092   6.763   4.774   0.293 -0.2753 -0.1405 -0.2576
  350MOL0     C46093   6.642   4.834   0.330  0.5378  0.4199  1.1703
  350MOL0     C46094   6.624   4.961   0.277  0.3252 -0.3809 -1.2810
  350MOL0     C46095   6.514   5.036   0.309  0.3138 -0.1959  0.0913
  350MOL0     C46096   6.411   4.995   0.391 -0.0739 -0.2070 -0.4761
  350MOL0     C46097   6.297   5.080   0.423 -0.7899 -0.1892  0.2125
  350MOL0     O46098   6.294   5.203   0.356  0.1796 -0.0432 -0.1102
  350MOL0     C46099   6.183   5.280   0.365 -0.2280 -0.0248  0.5249
  350MOL0     C46100   6.192   5.413   0.417 -0.2987 -0.0752  0.2494
  350MOL0     C46101   6.076   5.495   0.424 -0.3963  0.4450  0.0987
  350MOL0     C46102   5.952   5.453   0.369 -1.2427 -0.3677  0.5122
  350MOL0     O46103   5.830   5.515   0.380 -0.0540 -0.0896 -0.5784
  350MOL0     C46104   5.823   5.627   0.468  0.2513 -0.0056  0.8547
  350MOL0     C46105   5.693   5.713   0.431 -0.4889  0.7979 -0.1043
  350MOL0     C46106   5.562   5.636   0.414 -0.0753  0.6665  0.5013
  350MOL0     C46107   5.544   5.571   0.275 -0.4748  1.0542  0.3348
  350MOL0     C46108   5.439   5.461   0.267 -0.2703 -0.0565 -0.3933
  350MOL0     C46109   5.470   5.343   0.354 -0.0629 -0.7616  0.7580
  350MOL0     C46110   5.367   5.231   0.333 -0.2363 -0.5337  0.2149
  350MOL0     C46111   5.372   5.159   0.195 -0.3731  0.0717 -0.2560
  350MOL0    Cl46112   5.280   5.000   0.184 -0.3658 -0.1555 -0.4398
  350MOL0     C46113   5.950   5.329   0.301 -0.2921 -0.1619  0.2125
  350MOL0     C46114   6.064   5.235   0.304  0.5484 -0.5311 -0.1943
  350MOL0     O46115   6.210   5.040   0.492 -0.0871 -0.6180 -0.3338
  350MOL0     C46116   6.427   4.866   0.446 -0.6156 -0.2371  0.3579
  350MOL0     C46117   6.534   4.784   0.410  0.0936 -0.1872  0.0365
  350MOL0     N46118   7.078   4.277   0.324 -0.2124 -0.1198  0.3023
  350MOL0     N46119   7.101   4.160   0.378 -0.1641  0.2355 -0.1297
  350MOL0     C46120   8.209   3.736   0.164  0.8600 -0.4857 -0.2101
  350MOL0     C46121   8.336   3.695   0.180  0.4504 -0.5075 -0.4125
  350MOL0     C46122   8.757   3.622   0.385 -0.2043 -0.3454 -0.1168
  350MOL0     C46123   8.826   3.555   0.487 -0.3875 -0.1671 -0.1663
  350MOL0     C46124   8.945   3.488   0.457 -0.1831  0.3376  0.1061
  350MOL0     C46125   9.014   3.505   0.338 -0.3969  0.2871 -0.4371
  350MOL0     O46126   9.134   3.448   0.336  0.3618  0.2980 -0.3051
  350MOL0     C46127   9.175   3.406   0.211 -0.1668  0.1928  0.7254
  350MOL0     C46128   9.276   3.508   0.154 -0.0568 -0.1543 -0.4405
  350MOL0     C46129   9.400   3.508   0.232 -0.4279  0.9611  0.4199
  350MOL0     C46130   9.519   3.454   0.156  0.5676  0.5402  0.1763
  350MOL0     C46131   9.634   3.426   0.240 -0.9547  0.1373  0.7232
  350MOL0     C46132   9.735   3.409   0.304 -0.5334 -0.7080  0.6191
  350MOL0     C46133   8.946   3.582   0.232  0.8168  0.2804  0.3272
  350MOL0     C46134   8.815   3.627   0.264  0.4471 -0.4439 -0.0746
  350MOL0     H46135   8.425   3.879   0.461 -3.2030  3.6301 -0.0940
  350MOL0     H46136   8.199   3.950   0.439 -1.7661 -3.0218  2.6818
  350MOL0     H46137   7.899   3.721   0.280 -2.7228  0.9136  0.3228
  350MOL0     H46138   7.938   3.760   0.106 -0.2026  1.5005 -0.8412
  350MOL0     H46139   7.734   3.850   0.125 -1.8538 -3.4602  3.0945
  350MOL0     H46140   7.825   3.992   0.167  2.3688 -0.4923 -1.3273
  350MOL0     H46141   7.769   3.968   0.401 -0.5373  0.3398 -0.2143
  350MOL0     H46142   7.731   3.803   0.386  1.1265 -0.2104 -0.3000
  350MOL0     H46143   7.578   4.032   0.266  0.0956 -1.0308 -1.1826
  350MOL0     H46144   7.522   3.870   0.243  0.1082  1.1978 -0.8530
  350MOL0     H46145   7.577   3.988   0.522  1.3102  0.2417 -0.6178
  350MOL0     H46146   7.505   3.829   0.488  0.1464  0.2434  0.3367
  350MOL0     H46147   7.296   3.925   0.403  1.8492 -1.4625 -2.2158
  350MOL0     H46148   7.372   4.086   0.388 -0.6786  1.3200  1.6063
  350MOL0     H46149   7.352   3.949   0.654  1.1862  1.3176  0.0358
  350MOL0     H46150   7.400   4.104   0.622  1.9722 -1.5942  1.8394
  350MOL0     H46151   7.171   4.131   0.702 -0.3059  0.8525 -0.7547
  350MOL0     H46152   7.110   4.013   0.583 -2.1233  1.5505  0.1900
  350MOL0     H46153   7.230   4.365   0.594  0.5874 -2.4403  1.6088
  350MOL0     H46154   7.139   4.519   0.228  1.7028 -1.5735 -0.3722
  350MOL0     H46155   7.235   4.572   0.364  1.1325 -1.3606  1.5402
  350MOL0     H46156   7.060   4.708   0.397 -0.4695  0.2092 -1.4452
  350MOL0     H46157   7.007   4.577   0.501  2.4178  4.1954  2.4802
  350MOL0     H46158   6.927   4.614   0.203  3.3972  2.5904  1.2223
  350MOL0     H46159   6.880   4.474   0.286 -1.7728 -1.0638  2.9621
  350MOL0     H46160   6.764   4.632   0.456  0.4199  0.2561  0.5313
  350MOL0     H46161   6.692   4.581   0.305  1.0921 -0.2966 -0.9923
  350MOL0     H46162   6.690   4.995   0.198 -1.3568  3.3993 -1.2824
  350MOL0     H46163   6.512   5.128   0.251 -3.5978 -1.5068 -2.2221
  350MOL0     H46164   6.284   5.466   0.441 -1.1208  1.3323  0.3771
  350MOL0     H46165   6.087   5.598   0.456 -1.1766  1.3722 -2.4083
  350MOL0     H46166   5.913   5.689   0.464  1.2527 -1.3645  1.3729
  350MOL0     H46167   5.816   5.580   0.566 -1.2792 -2.4493 -0.3310
  350MOL0     H46168   5.706   5.772   0.340 -2.4954 -0.3086 -1.1815
  350MOL0     H46169   5.685   5.780   0.517 -0.5552 -0.1214  0.6217
  350MOL0     H46170   5.473   5.698   0.420  0.1066  0.8321  1.9202
  350MOL0     H46171   5.561   5.559   0.492 -2.4242  1.4372  1.3072
  350MOL0     H46172   5.537   5.651   0.201 -1.4618  1.0643  0.4234
  350MOL0     H46173   5.639   5.525   0.246 -1.6566  0.3020 -2.6446
  350MOL0     H46174   5.429   5.435   0.161  5.6755 -0.0000 -1.3129
  350MOL0     H46175   5.348   5.505   0.309 -0.1046 -0.4680  0.4078
  350MOL0     H46176   5.466   5.371   0.460 -1.3250  0.2719  0.4632
  350MOL0     H46177   5.569   5.301   0.334  0.4570  0.7446  0.0401
  350MOL0     H46178   5.394   5.164   0.415 -0.2004 -1.2842 -0.4018
  350MOL0     H46179   5.264   5.266   0.348  0.1922  0.1136  1.9902
  350MOL0     H46180   5.477   5.131   0.186 -0.2138 -0.3107  2.0630
  350MOL0     H46181   5.355   5.225   0.110  1.6330 -2.8834 -3.1679
  350MOL0     H46182   5.861   5.301   0.246  0.5107 -1.3342 -0.5308
  350MOL0     H46183   6.053   5.132   0.272 -1.3198 -0.0888 -1.1419
  350MOL0     H46184   6.349   4.812   0.497  1.0333 -3.8700 -0.6688
  350MOL0     H46185   6.543   4.687   0.458 -0.3157 -1.7300 -2.7945
  350MOL0     H46186   8.137   3.705   0.089  0.0969  2.0933 -0.6544
  350MOL0     H46187   8.380   3.609   0.131  0.7029 -0.6741  0.0972
  350MOL0     H46188   8.776   3.551   0.583  0.4012  1.2284  0.3162
  350MOL0     H46189   8.996   3.429   0.532  0.0206 -0.5248 -0.6947
  350MOL0     H46190   9.092   3.404   0.140 -0.6800  1.6610  1.2446
  350MOL0     H46191   9.208   3.302   0.216 -2.7760 -0.7490 -0.4392
  350MOL0     H46192   9.303   3.480   0.052  1.6919  1.8650 -0.5944
  350MOL0     H46193   9.233   3.608   0.157  2.6687  1.1068 -0.3051
  350MOL0     H46194   9.387   3.447   0.322 -0.3516 -0.6073 -0.5818
  350MOL0     H46195   9.430   3.611   0.251  2.4411  0.9730 -3.0439
  350MOL0     H46196   9.494   3.369   0.092  0.8685  1.1403 -0.7637
  350MOL0     H46197   9.557   3.538   0.097  3.6570 -0.9075 -0.0860
  350MOL0     H46198   9.820   3.408   0.369  0.2312  1.4124 -0.2597
  350MOL0     H46199   8.992   3.615   0.139 -0.5179  1.3196 -0.0062
  350MOL0     H46200   8.773   3.669   0.172  0.8613 -1.3630 -0.6953
  351MOL0     O46201   1.025   9.953   7.595 -0.2798  0.0234 -0.4841
  351MOL0     C46202   1.127  10.017   7.618 -0.6694  0.0934 -0.1751
  351MOL0     O46203   1.129  10.143   7.664 -0.3477  0.2059 -0.1774
  351MOL0     C46204   1.005  10.209   7.680  0.2461  0.1127  0.2653
  351MOL0     C46205   0.973  10.303   7.581 -0.0028 -0.0827 -0.0947
  351MOL0     C46206   0.848  10.375   7.586 -0.1500 -0.1675 -0.8440
  351MOL0     C46207   0.760  10.354   7.691  0.4797  0.4977  0.1066
  351MOL0     O46208   0.631  10.404   7.672 -0.0038  0.1341  0.6436
  351MOL0     C46209   0.525  10.327   7.737 -0.4451  0.2519  0.6110
  351MOL0     C46210   0.384  10.383   7.748  0.1695  0.1873 -0.5620
  351MOL0     C46211   0.296  10.358   7.614 -0.3646  0.3839  0.0631
  351MOL0     C46212   0.150  10.379   7.646  0.7525  0.6582  0.0720
  351MOL0     C46213   0.075  10.345   7.513 -0.1074 -0.3286  0.1451
  351MOL0     C46214  -0.079  10.348   7.532 -0.0055 -0.4878  0.2985
  351MOL0     C46215  -0.150  10.378   7.403 -0.9591  1.0631  0.0827
  351MOL0     C46216  -0.294  10.342   7.421  1.0572  0.3615 -0.2964
  351MOL0     N46217  -0.355  10.413   7.533  0.3263  0.1432  0.8293
  351MOL0     C46218  -0.369  10.554   7.548  0.0479  0.9144 -0.6207
  351MOL0     C46219  -0.410  10.569   7.679 -0.4328 -0.5679  0.0798
  351MOL0     C46220  -0.428  10.702   7.756  0.1847  0.2651 -0.3658
  351MOL0     C46221  -0.558  10.714   7.843 -0.4634  0.5220 -0.3447
  351MOL0     C46222  -0.681  10.796   7.789 -0.0834  1.1713  0.2322
  351MOL0     C46223  -0.804  10.761   7.869  0.1249 -0.6289  0.4535
  351MOL0     O46224  -0.912  10.796   7.784  0.2031  0.1369  0.6299
  351MOL0     C46225  -1.036  10.763   7.817  0.1246  0.2642 -0.3080
  351MOL0     C46226  -1.126  10.835   7.741 -0.7233 -0.0679  0.4756
  351MOL0     C46227  -1.259  10.803   7.753  0.3067  0.8160  0.3569
  351MOL0     C46228  -1.306  10.707   7.843  0.2142 -0.0895 -0.7363
  351MOL0     C46229  -1.455  10.673   7.845 -0.6891  0.5444  0.0769
  351MOL0     O46230  -1.542  10.769   7.795 -0.6703  0.3864  0.3364
  351MOL0     C46231  -1.669  10.732   7.789 -0.9383  0.1212  0.3207
  351MOL0     C46232  -1.712  10.652   7.689  0.2033  0.7761  0.4893
  351MOL0     C46233  -1.843  10.649   7.652  0.4237 -0.1028  0.1250
  351MOL0     C46234  -1.939  10.723   7.728  0.5055 -0.5789 -0.2020
  351MOL0     O46235  -2.070  10.740   7.688 -0.2953  0.0961 -0.1063
  351MOL0     C46236  -2.144  10.625   7.650 -0.4397 -0.4330 -0.3699
  351MOL0     C46237  -2.273  10.659   7.583 -0.0825 -0.1366 -0.1531
  351MOL0     C46238  -2.347  10.774   7.651 -0.1385 -0.0099  0.1342
  351MOL0     C46239  -2.410  10.736   7.788 -0.2451  0.4884 -0.1602
  351MOL0     C46240  -2.555  10.765   7.795  1.0742  0.0022 -0.3487
  351MOL0     C46241  -2.621  10.676   7.902  0.1725  0.4544 -0.0850
  351MOL0     C46242  -2.778  10.679   7.881 -0.6110 -0.0601  0.8025
  351MOL0     C46243  -2.850  10.617   8.002  0.4035 -0.1868  0.2193
  351MOL0    Cl46244  -3.030  10.599   7.979  0.0928 -0.1274 -0.1780
  351MOL0     C46245  -1.896  10.802   7.840  0.1739  1.4173  0.8023
  351MOL0     C46246  -1.762  10.797   7.868  0.3476  0.2474  0.1475
  351MOL0     O46247  -1.490  10.564   7.897  0.3763 -0.2818 -0.3113
  351MOL0     C46248  -1.215  10.640   7.924  0.1017  0.4342  0.3875
  351MOL0     C46249  -1.076  10.661   7.904 -0.1749  0.3751  0.8764
  351MOL0     N46250  -0.423  10.443   7.737  1.1873 -0.3775  0.1847
  351MOL0     N46251  -0.397  10.357   7.644  0.8813 -0.1551  0.5148
  351MOL0     C46252   0.792  10.263   7.794  0.6288  0.0394  0.0293
  351MOL0     C46253   0.917  10.196   7.785 -0.5494 -0.6872 -0.4653
  351MOL0     C46254   1.260   9.960   7.585 -0.3215 -0.2744  0.3048
  351MOL0     C46255   1.382  10.005   7.640 -0.3864 -0.1660  0.0412
  351MOL0     C46256   1.499   9.935   7.608 -0.8700  1.0509 -0.7184
  351MOL0     C46257   1.502   9.829   7.523 -0.1914  0.1749  1.4103
  351MOL0     O46258   1.608   9.740   7.501 -0.0237  0.4880  0.0833
  351MOL0     C46259   1.740   9.765   7.553 -0.3575  0.3741 -0.1532
  351MOL0     C46260   1.829   9.639   7.543 -0.4619  0.6378 -0.0999
  351MOL0     C46261   1.783   9.539   7.651 -0.0515 -0.7548 -0.2905
  351MOL0     C46262   1.826   9.404   7.618  0.6827  0.4048 -0.4720
  351MOL0     C46263   1.970   9.377   7.613 -0.5810 -0.7871 -0.3866
  351MOL0     C46264   2.088   9.343   7.623  0.2932  0.2811  0.2854
  351MOL0     C46265   1.379   9.792   7.456 -1.0234 -0.2962 -0.2754
  351MOL0     C46266   1.264   9.855   7.491  0.3258 -0.5280 -0.3575
  351MOL0     H46267   1.044  10.332   7.505  1.4806  0.7987  1.5617
  351MOL0     H46268   0.810  10.432   7.502  0.2755 -0.1559 -1.0360
  351MOL0     H46269   0.548  10.323   7.843 -0.7992  1.7105  0.7689
  351MOL0     H46270   0.534  10.222   7.707  3.1857  0.5375  0.3123
  351MOL0     H46271   0.386  10.489   7.775 -0.5570 -0.0953  0.6905
  351MOL0     H46272   0.338  10.331   7.833  0.6746  0.0593 -0.3691
  351MOL0     H46273   0.311  10.251   7.593  1.5988  0.4978  0.6805
  351MOL0     H46274   0.343  10.423   7.539  0.0304  0.0978  0.0553
  351MOL0     H46275   0.107  10.311   7.720  0.3223  0.9022  0.0526
  351MOL0     H46276   0.141  10.483   7.679  3.4382  0.9408  0.1094
  351MOL0     H46277   0.103  10.241   7.491  0.1939 -0.6591  1.9689
  351MOL0     H46278   0.102  10.412   7.431  3.6585 -0.2769  1.2449
  351MOL0     H46279  -0.106  10.426   7.603  1.3448 -0.3469  0.6726
  351MOL0     H46280  -0.115  10.253   7.573 -4.1880 -0.0612 -1.8047
  351MOL0     H46281  -0.125  10.481   7.375  3.9579  0.5433  1.6077
  351MOL0     H46282  -0.108  10.311   7.327 -0.2479  1.4701  0.1109
  351MOL0     H46283  -0.300  10.233   7.430 -0.6524  0.4404 -0.1544
  351MOL0     H46284  -0.348  10.372   7.331 -0.6847 -0.3318  0.4804
  351MOL0     H46285  -0.356  10.637   7.480  0.0296  1.0464 -0.4643
  351MOL0     H46286  -0.420  10.784   7.685  2.0366 -0.8986 -1.5859
  351MOL0     H46287  -0.343  10.715   7.824  0.4004  0.8368 -0.7402
  351MOL0     H46288  -0.517  10.755   7.935  1.7140  1.0162 -1.4682
  351MOL0     H46289  -0.600  10.615   7.866 -0.2107  0.7112  1.0316
  351MOL0     H46290  -0.668  10.904   7.804 -2.5282  2.1911 -3.8025
  351MOL0     H46291  -0.696  10.786   7.682  0.7027  2.4042 -0.0235
  351MOL0     H46292  -0.778  10.828   7.952  2.4316 -0.8070 -0.0665
  351MOL0     H46293  -0.809  10.659   7.907 -1.3135 -1.4567 -1.7266
  351MOL0     H46294  -1.092  10.909   7.669 -1.3905  0.9824  1.1926
  351MOL0     H46295  -1.337  10.853   7.696  1.7391  2.8096  0.0158
  351MOL0     H46296  -1.651  10.597   7.618 -2.6023  3.3019 -4.4604
  351MOL0     H46297  -1.879  10.602   7.560  1.8611 -2.7384  0.8331
  351MOL0     H46298  -2.177  10.568   7.737 -1.7197  2.6622  1.3606
  351MOL0     H46299  -2.089  10.567   7.576 -0.8950 -0.1696 -0.9263
  351MOL0     H46300  -2.336  10.571   7.569  0.5070 -0.5216 -0.3655
  351MOL0     H46301  -2.246  10.693   7.483  1.7310 -0.1340  0.3007
  351MOL0     H46302  -2.426  10.816   7.588  0.2757  1.2856  0.4307
  351MOL0     H46303  -2.280  10.859   7.671  2.0842 -1.6862  0.1273
  351MOL0     H46304  -2.395  10.631   7.816 -0.3289  0.5425  0.0871
  351MOL0     H46305  -2.354  10.789   7.865  1.9160 -0.8452 -0.7254
  351MOL0     H46306  -2.608  10.739   7.702  0.3478  1.3392 -0.3335
  351MOL0     H46307  -2.576  10.870   7.816  0.2980  0.0682 -1.3746
  351MOL0     H46308  -2.596  10.710   8.003  0.0707  0.8826 -0.2045
  351MOL0     H46309  -2.585  10.574   7.888 -1.8482  0.0827 -4.0273
  351MOL0     H46310  -2.794  10.784   7.856 -1.4452 -0.4884 -0.5433
  351MOL0     H46311  -2.805  10.623   7.791  1.0098  3.6658 -2.2640
  351MOL0     H46312  -2.826  10.681   8.088  1.4700 -1.9442  1.3159
  351MOL0     H46313  -2.812  10.516   8.025  1.4728  0.0242 -0.5127
  351MOL0     H46314  -1.952  10.870   7.903  0.0475  2.5356 -0.4772
  351MOL0     H46315  -1.726  10.874   7.936  0.0784 -1.8087  2.7712
  351MOL0     H46316  -1.229  10.571   8.007  0.3243  1.6579  1.4945
  351MOL0     H46317  -0.999  10.609   7.960 -1.0449 -1.3963  0.5163
  351MOL0     H46318   0.730  10.240   7.880 -0.3364  1.2300 -0.3403
  351MOL0     H46319   0.939  10.119   7.858  0.2814 -0.9461 -0.9772
  351MOL0     H46320   1.377  10.092   7.704  0.7984 -1.3797  1.8734
  351MOL0     H46321   1.587   9.976   7.656 -0.9805 -0.1984  0.6605
  351MOL0     H46322   1.734   9.789   7.660  1.2054  0.3622 -0.0353
  351MOL0     H46323   1.778   9.852   7.499 -0.5268 -0.0444 -0.9588
  351MOL0     H46324   1.828   9.601   7.441 -3.0900 -0.2828  0.2123
  351MOL0     H46325   1.933   9.675   7.548 -0.6419  1.2144 -0.4371
  351MOL0     H46326   1.673   9.537   7.648 -0.2276  1.5237  1.4478
  351MOL0     H46327   1.808   9.573   7.752 -0.9014  0.8709 -0.5920
  351MOL0     H46328   1.788   9.336   7.695 -0.7109  1.7042  0.0435
  351MOL0     H46329   1.784   9.367   7.525 -0.4552 -1.1651  0.6183
  351MOL0     H46330   2.187   9.306   7.607  0.0603 -0.2496  0.0516
  351MOL0     H46331   1.388   9.718   7.377  2.2147  1.8325 -2.1534
  351MOL0     H46332   1.170   9.833   7.442  0.4884  0.4250 -1.1172
  352MOL0     O46333   4.574   7.728   5.459 -0.7443 -0.1360  0.0810
  352MOL0     C46334   4.632   7.618   5.491 -0.1377 -0.5126 -1.0015
  352MOL0     O46335   4.573   7.496   5.511  0.8719 -0.4242  0.5659
  352MOL0     C46336   4.437   7.474   5.500 -0.0951 -0.2243 -0.6335
  352MOL0     C46337   4.355   7.542   5.415  0.1122  0.4191  0.0131
  352MOL0     C46338   4.215   7.525   5.414 -0.9474 -0.3527  0.5599
  352MOL0     C46339   4.152   7.440   5.508  0.3354 -0.8133 -0.2377
  352MOL0     O46340   4.015   7.413   5.517 -0.3481  0.1582 -0.2160
  352MOL0     C46341   3.933   7.510   5.464  0.3333 -0.1577  0.3205
  352MOL0     C46342   3.787   7.516   5.499  0.6091 -0.6119 -0.2280
  352MOL0     C46343   3.706   7.627   5.424  0.4636 -0.0108 -0.0514
  352MOL0     C46344   3.563   7.614   5.448 -0.0292 -0.0285  0.2918
  352MOL0     C46345   3.490   7.736   5.391  0.4022  0.6742  0.0051
  352MOL0     C46346   3.345   7.738   5.436  0.8950 -0.2387  0.3464
  352MOL0     C46347   3.270   7.618   5.380  0.9435 -0.3378 -0.2625
  352MOL0     C46348   3.122   7.616   5.408 -0.0417  1.4466 -0.2333
  352MOL0     N46349   3.086   7.585   5.550 -0.1496 -0.0899  0.3668
  352MOL0     C46350   2.978   7.642   5.613 -0.0886  1.1435  0.4141
  352MOL0     C46351   2.970   7.583   5.736  0.0411  0.1587 -0.2961
  352MOL0     C46352   2.877   7.614   5.849 -0.1254  0.0602 -0.3553
  352MOL0     C46353   2.737   7.544   5.834  0.1871  0.4707  0.3269
  352MOL0     C46354   2.743   7.387   5.850  0.1786  0.5335 -0.0709
  352MOL0     C46355   2.603   7.319   5.847 -0.1022 -0.2919  0.7798
  352MOL0     O46356   2.526   7.383   5.746 -0.4580 -0.4678  0.4335
  352MOL0     C46357   2.395   7.352   5.738  0.3720 -0.1891 -0.7515
  352MOL0     C46358   2.312   7.417   5.645 -0.1298 -0.6561  0.6290
  352MOL0     C46359   2.173   7.391   5.641 -0.1289 -0.6295 -0.5940
  352MOL0     C46360   2.110   7.311   5.740 -0.6271 -0.2482 -0.3986
  352MOL0     C46361   1.967   7.291   5.755 -1.0984 -0.5994 -0.4516
  352MOL0     O46362   1.925   7.212   5.860  0.4104 -0.0661 -0.0064
  352MOL0     C46363   1.794   7.171   5.848 -0.4194  0.4182 -0.0770
  352MOL0     C46364   1.767   7.031   5.816 -0.1163  0.6586  0.0451
  352MOL0     C46365   1.636   6.990   5.809  0.7051 -0.6523 -0.1392
  352MOL0     C46366   1.532   7.084   5.843  0.0498 -0.3050  0.4442
  352MOL0     O46367   1.400   7.062   5.840 -0.1708  0.1177  0.1481
  352MOL0     C46368   1.343   6.929   5.841  0.1064  0.5392 -0.3701
  352MOL0     C46369   1.226   6.936   5.944 -0.3494  0.0167 -0.0905
  352MOL0     C46370   1.112   7.019   5.903 -0.0422  0.1553  0.4538
  352MOL0     C46371   0.989   6.980   5.979  0.4591  0.0004 -0.3404
  352MOL0     C46372   0.880   7.085   5.946  0.4575 -0.7512  0.2549
  352MOL0     C46373   0.742   7.064   6.004 -0.5109 -0.3844 -0.2349
  352MOL0     C46374   0.624   7.111   5.917  0.1110 -0.1088  0.2339
  352MOL0     C46375   0.492   7.088   5.995  0.7938  0.4740 -0.1750
  352MOL0    Cl46376   0.345   7.166   5.907  0.1330  0.1101  0.4715
  352MOL0     C46377   1.559   7.215   5.877 -0.4721  0.0073  0.3000
  352MOL0     C46378   1.689   7.260   5.885 -0.5376 -0.1514  0.3396
  352MOL0     O46379   1.902   7.341   5.662  0.2805  0.0920  0.1047
  352MOL0     C46380   2.195   7.250   5.835 -0.1139  0.6849  0.7452
  352MOL0     C46381   2.331   7.257   5.826  0.3295  0.3862  1.1648
  352MOL0     N46382   3.073   7.493   5.744 -0.9126  0.1716  0.1126
  352MOL0     N46383   3.139   7.492   5.639 -1.0085 -0.3456  1.3307
  352MOL0     C46384   4.242   7.379   5.603  0.6219 -0.1058 -0.5616
  352MOL0     C46385   4.379   7.400   5.596  0.0755  0.3855 -1.1777
  352MOL0     C46386   4.781   7.635   5.509  0.1820  0.8810  0.5492
  352MOL0     C46387   4.868   7.522   5.538 -0.7276 -0.6203  0.0047
  352MOL0     C46388   5.005   7.545   5.568 -0.0357  0.9106  0.7971
  352MOL0     C46389   5.065   7.666   5.564  0.3578 -0.6709  0.8083
  352MOL0     O46390   5.200   7.663   5.592 -0.3375  0.1506  0.2119
  352MOL0     C46391   5.279   7.760   5.514  0.3121  0.5595  0.5819
  352MOL0     C46392   5.413   7.799   5.571 -0.3239  0.0462 -0.5806
  352MOL0     C46393   5.508   7.669   5.590 -0.3223  0.0078  0.5342
  352MOL0     C46394   5.636   7.713   5.649  0.4764 -0.2129 -0.6519
  352MOL0     C46395   5.728   7.600   5.662  0.2426  0.1712  0.4094
  352MOL0     C46396   5.811   7.511   5.673  0.4536 -0.4025  0.0993
  352MOL0     C46397   4.990   7.776   5.538 -0.3228 -0.3403  0.0903
  352MOL0     C46398   4.848   7.761   5.509  0.2438 -1.1217  0.5899
  352MOL0     H46399   4.402   7.603   5.338  0.7685  0.4394  0.4193
  352MOL0     H46400   4.157   7.587   5.346 -3.2256 -2.2588  0.6533
  352MOL0     H46401   3.930   7.501   5.355 -1.0696 -1.0405  0.4063
  352MOL0     H46402   3.962   7.609   5.499 -0.2823 -0.6281  2.2547
  352MOL0     H46403   3.774   7.531   5.607 -1.8239  0.7841 -0.6566
  352MOL0     H46404   3.733   7.423   5.477 -0.8892  0.1884 -0.0530
  352MOL0     H46405   3.721   7.628   5.316  1.0395  0.5478  0.0324
  352MOL0     H46406   3.743   7.723   5.460  0.0365 -1.0332  3.5101
  352MOL0     H46407   3.524   7.524   5.401  1.4933 -1.7707  2.1795
  352MOL0     H46408   3.546   7.610   5.556  0.0603  1.9431  0.4234
  352MOL0     H46409   3.480   7.745   5.282 -1.3826  0.0719  0.0819
  352MOL0     H46410   3.537   7.822   5.438 -0.5395  1.1445  0.1083
  352MOL0     H46411   3.303   7.835   5.405  1.7710 -0.1354 -0.5687
  352MOL0     H46412   3.323   7.737   5.543 -0.8446  1.3396  0.0746
  352MOL0     H46413   3.277   7.617   5.271 -0.0906  0.1220 -0.3413
  352MOL0     H46414   3.314   7.520   5.404 -1.1955 -1.7927 -1.8497
  352MOL0     H46415   3.078   7.541   5.341 -0.1401  2.6317 -1.5346
  352MOL0     H46416   3.077   7.713   5.384  0.0159  1.8714  1.2779
  352MOL0     H46417   2.911   7.716   5.570 -2.7959  0.0620  2.5134
  352MOL0     H46418   2.867   7.723   5.850 -0.8132  0.0010  0.7432
  352MOL0     H46419   2.923   7.579   5.942 -0.5463 -2.4987 -1.0402
  352MOL0     H46420   2.699   7.565   5.733  3.3952 -0.9690 -1.3109
  352MOL0     H46421   2.669   7.579   5.912 -0.4576 -2.9726  1.5035
  352MOL0     H46422   2.803   7.348   5.767 -0.0595 -1.2759  0.5511
  352MOL0     H46423   2.803   7.370   5.940  1.0682  3.5499  0.0149
  352MOL0     H46424   2.551   7.332   5.942 -1.7062 -0.9595  0.0210
  352MOL0     H46425   2.606   7.210   5.840 -0.5771 -0.2291 -0.9901
  352MOL0     H46426   2.366   7.481   5.576 -1.4597 -3.1596 -3.0466
  352MOL0     H46427   2.124   7.454   5.567 -0.6854 -0.3634 -0.0222
  352MOL0     H46428   1.844   6.963   5.780  0.6835  1.5328  0.0549
  352MOL0     H46429   1.609   6.896   5.763 -0.7272 -0.0126 -0.6870
  352MOL0     H46430   1.412   6.862   5.892 -2.6755 -0.7040  2.0944
  352MOL0     H46431   1.314   6.905   5.738 -0.8515 -1.1088  0.2453
  352MOL0     H46432   1.274   6.983   6.031  3.7256  0.0291 -2.1051
  352MOL0     H46433   1.190   6.835   5.966 -2.9574  0.4248 -2.0659
  352MOL0     H46434   1.096   7.012   5.795 -1.0877  0.6116  0.5686
  352MOL0     H46435   1.140   7.122   5.927  0.1710 -0.5083  3.4184
  352MOL0     H46436   0.953   6.882   5.948  0.0073 -0.4313  1.4418
  352MOL0     H46437   1.003   6.980   6.088 -1.8803 -1.0414  0.0019
  352MOL0     H46438   0.869   7.080   5.837  0.5049  0.2065  0.2000
  352MOL0     H46439   0.919   7.184   5.973  0.8115 -0.0518 -2.5641
  352MOL0     H46440   0.744   7.125   6.095  2.9274 -0.3624 -0.1953
  352MOL0     H46441   0.728   6.957   6.022  0.0765 -0.6555 -1.3068
  352MOL0     H46442   0.634   7.218   5.898 -2.5099  0.0975 -0.4464
  352MOL0     H46443   0.613   7.061   5.821  1.8319 -0.7058  0.3175
  352MOL0     H46444   0.496   7.133   6.095  0.8930  0.3974 -0.1437
  352MOL0     H46445   0.463   6.983   6.009 -1.0165  0.7396 -1.5884
  352MOL0     H46446   1.475   7.281   5.894  0.0219  0.8698 -0.4727
  352MOL0     H46447   1.710   7.363   5.910 -1.1243 -0.0025  0.2411
  352MOL0     H46448   2.153   7.193   5.917 -0.8833 -2.2403 -1.5362
  352MOL0     H46449   2.390   7.203   5.900  2.5133  1.2881  0.1444
  352MOL0     H46450   4.190   7.319   5.676 -3.3523  1.0545 -2.1574
  352MOL0     H46451   4.438   7.351   5.672 -3.5313  0.7898  2.2348
  352MOL0     H46452   4.835   7.418   5.540 -1.3466 -0.6017 -3.6004
  352MOL0     H46453   5.072   7.463   5.591 -1.3355 -0.1092  1.0881
  352MOL0     H46454   5.219   7.849   5.495  0.2464  0.3086 -0.4482
  352MOL0     H46455   5.291   7.720   5.412 -0.4889 -0.1658  0.7637
  352MOL0     H46456   5.452   7.886   5.518 -1.7761 -0.1471 -2.0379
  352MOL0     H46457   5.388   7.833   5.672  1.0559  2.2328 -0.9196
  352MOL0     H46458   5.524   7.631   5.488  1.6666  2.7743 -0.2993
  352MOL0     H46459   5.456   7.586   5.639 -2.7654 -0.1814 -2.1079
  352MOL0     H46460   5.683   7.792   5.589 -0.7453  1.8843  0.9776
  352MOL0     H46461   5.611   7.751   5.748 -1.2218 -2.9154  0.0604
  352MOL0     H46462   5.883   7.432   5.667 -0.2224 -1.0847  0.7023
  352MOL0     H46463   5.027   7.878   5.541 -2.0618  0.3049  1.0315
  352MOL0     H46464   4.798   7.855   5.492  2.3940  0.1364  0.8452
  353MOL0     O46465   7.741   9.327   6.813  0.2172  0.7845 -0.0491
  353MOL0     C46466   7.753   9.295   6.928 -0.7790  0.1080 -1.2062
  353MOL0     O46467   7.660   9.321   7.021  0.6512  0.5905  0.0123
  353MOL0     C46468   7.527   9.360   6.997 -0.3325 -0.1581 -0.8687
  353MOL0     C46469   7.452   9.323   6.883 -1.0631  0.0320  0.0510
  353MOL0     C46470   7.317   9.357   6.867 -0.1113 -0.4475  0.0228
  353MOL0     C46471   7.241   9.420   6.966 -0.1781  0.5119 -0.1149
  353MOL0     O46472   7.110   9.438   6.952 -0.1661 -0.4417  0.9200
  353MOL0     C46473   7.039   9.327   7.008  0.0904 -0.5896 -0.9456
  353MOL0     C46474   6.896   9.312   6.936 -0.9455 -0.4271 -0.3942
  353MOL0     C46475   6.791   9.383   7.014 -0.2074 -0.8023 -0.0643
  353MOL0     C46476   6.648   9.372   6.963  0.4474 -0.2394 -0.1809
  353MOL0     C46477   6.558   9.477   7.027  0.1261  0.4652 -0.3680
  353MOL0     C46478   6.412   9.451   6.995 -0.9168 -1.1172  0.7516
  353MOL0     C46479   6.384   9.409   6.847 -0.3350 -0.1886  0.1355
  353MOL0     C46480   6.241   9.402   6.811  0.5098 -0.3779  0.1875
  353MOL0     N46481   6.153   9.323   6.893 -0.0924 -0.3370  0.8110
  353MOL0     C46482   6.149   9.188   6.867 -0.5721  0.2338  0.0774
  353MOL0     C46483   6.031   9.145   6.927  0.7662 -0.3468  0.0708
  353MOL0     C46484   5.967   9.007   6.924  0.7067 -0.1561 -0.2994
  353MOL0     C46485   5.834   9.010   6.860 -0.0217 -0.1627  0.0929
  353MOL0     C46486   5.764   8.876   6.831  0.2344 -0.2321 -0.5184
  353MOL0     C46487   5.617   8.871   6.812  0.7283 -0.3587 -0.9359
  353MOL0     O46488   5.567   8.744   6.780 -0.0148  0.2787  0.2945
  353MOL0     C46489   5.441   8.715   6.814 -0.7923 -0.0863 -0.6475
  353MOL0     C46490   5.406   8.595   6.884 -0.1671 -0.1940 -0.4512
  353MOL0     C46491   5.270   8.568   6.922 -0.0858 -0.0549 -0.1503
  353MOL0     C46492   5.165   8.660   6.892 -0.9053 -0.6033 -0.1383
  353MOL0     C46493   5.022   8.637   6.919  0.1164  0.0395 -0.4791
  353MOL0     O46494   4.988   8.509   6.965 -0.3525 -0.3653  0.0258
  353MOL0     C46495   4.857   8.475   6.968  1.1751  1.4489  0.4448
  353MOL0     C46496   4.768   8.496   6.862 -0.1524  0.5203 -0.0738
  353MOL0     C46497   4.645   8.432   6.861 -0.1349 -0.8267  1.3259
  353MOL0     C46498   4.603   8.352   6.975  0.1465 -0.5258  0.4801
  353MOL0     O46499   4.480   8.296   6.992  0.3818  0.8593  0.3260
  353MOL0     C46500   4.376   8.341   6.897  0.1595  0.4189  0.4303
  353MOL0     C46501   4.245   8.277   6.937 -0.6623 -0.6078 -0.2063
  353MOL0     C46502   4.226   8.127   6.898 -0.1086  0.2894 -0.1485
  353MOL0     C46503   4.281   8.083   6.762  0.0609 -0.2972  0.8727
  353MOL0     C46504   4.212   7.961   6.708 -0.7958  0.7501  0.1734
  353MOL0     C46505   4.284   7.899   6.584  0.1401  0.4385 -0.6222
  353MOL0     C46506   4.273   7.974   6.449 -0.0363 -0.0051 -0.0917
  353MOL0     C46507   4.349   7.908   6.329  0.0295 -0.1078  0.1660
  353MOL0    Cl46508   4.521   7.882   6.371  0.3317  0.1970  0.0398
  353MOL0     C46509   4.683   8.334   7.084 -0.1275  0.0915  0.8228
  353MOL0     C46510   4.811   8.391   7.075 -0.4801 -0.5756 -0.7999
  353MOL0     O46511   4.942   8.731   6.900  0.2577 -0.0947  0.4604
  353MOL0     C46512   5.202   8.774   6.818 -0.0964 -0.9260  0.2466
  353MOL0     C46513   5.339   8.799   6.776  0.3052  0.0188  0.2011
  353MOL0     N46514   5.969   9.259   6.981 -0.7233 -0.0595  0.6730
  353MOL0     N46515   6.033   9.367   6.940 -0.0183 -0.7261  0.0225
  353MOL0     C46516   7.315   9.440   7.090 -0.0060 -1.0035 -0.4404
  353MOL0     C46517   7.455   9.422   7.104 -0.1981 -0.1629  0.1895
  353MOL0     C46518   7.884   9.259   6.983 -0.3331 -0.2030 -0.5552
  353MOL0     C46519   7.971   9.188   6.905  0.4702 -0.7649 -0.3931
  353MOL0     C46520   8.089   9.140   6.952  0.4850  0.3964 -0.1372
  353MOL0     C46521   8.135   9.169   7.086 -0.5826  0.6057 -0.8181
  353MOL0     O46522   8.266   9.135   7.130  0.9839  0.0604 -0.3655
  353MOL0     C46523   8.303   9.153   7.269  0.3600  0.5048 -0.5907
  353MOL0     C46524   8.242   9.041   7.357 -0.5554 -0.3315 -0.7807
  353MOL0     C46525   8.273   9.050   7.506 -0.3923  0.7579  1.2434
  353MOL0     C46526   8.198   8.947   7.595 -0.2062 -1.2031 -0.3148
  353MOL0     C46527   8.216   8.811   7.540  0.8127  0.4876 -0.2863
  353MOL0     C46528   8.230   8.698   7.487  0.1478  0.0514  0.3158
  353MOL0     C46529   8.043   9.229   7.170 -0.3456  0.7677 -0.1190
  353MOL0     C46530   7.922   9.282   7.117  0.1140 -0.0262  0.3397
  353MOL0     H46531   7.507   9.267   6.808  1.7820 -0.1265  2.0815
  353MOL0     H46532   7.263   9.333   6.776 -0.3384  0.3259 -0.0485
  353MOL0     H46533   7.032   9.355   7.114 -0.5642  0.5796 -1.2820
  353MOL0     H46534   7.087   9.230   6.997  0.7514 -0.7595  2.3113
  353MOL0     H46535   6.869   9.206   6.932  0.1106 -0.6851 -1.5731
  353MOL0     H46536   6.894   9.352   6.834 -2.6306 -0.0419 -0.2244
  353MOL0     H46537   6.826   9.486   7.020 -0.3921 -0.7155 -0.4262
  353MOL0     H46538   6.788   9.343   7.115 -2.4729  1.6926  0.9639
  353MOL0     H46539   6.637   9.401   6.859 -0.8213  2.1291  0.5581
  353MOL0     H46540   6.613   9.269   6.970 -0.3713 -0.2118 -2.8182
  353MOL0     H46541   6.592   9.576   6.996  2.8040 -0.0901  0.4882
  353MOL0     H46542   6.577   9.471   7.134 -0.4104  2.5262 -0.1216
  353MOL0     H46543   6.359   9.547   7.005  4.3996  2.2797  0.5608
  353MOL0     H46544   6.375   9.376   7.065  1.0817 -0.2952  2.8074
  353MOL0     H46545   6.439   9.475   6.780  2.4700  0.8961  3.1830
  353MOL0     H46546   6.424   9.307   6.840 -0.2885 -0.1621  0.0171
  353MOL0     H46547   6.232   9.364   6.709 -0.7017 -2.1449  0.8997
  353MOL0     H46548   6.197   9.502   6.816 -0.0693 -0.7011  2.6739
  353MOL0     H46549   6.217   9.119   6.817  0.1530  0.5644  0.5893
  353MOL0     H46550   5.961   8.981   7.030  0.9632  2.4636  0.4473
  353MOL0     H46551   6.035   8.938   6.873  1.0775 -0.4377  0.5578
  353MOL0     H46552   5.853   9.059   6.764 -0.6415 -0.0674  0.0133
  353MOL0     H46553   5.774   9.064   6.933  0.1468 -3.2350  2.6969
  353MOL0     H46554   5.821   8.829   6.751  0.3578 -2.6195  0.8532
  353MOL0     H46555   5.787   8.813   6.918  2.2665 -1.7719 -2.0850
  353MOL0     H46556   5.580   8.925   6.724 -0.6987 -2.6598 -1.8559
  353MOL0     H46557   5.563   8.909   6.899 -0.6344 -0.7610 -1.5715
  353MOL0     H46558   5.486   8.525   6.905  3.4836  3.7602  0.1791
  353MOL0     H46559   5.246   8.474   6.971  0.2676  0.7450  1.6476
  353MOL0     H46560   4.794   8.547   6.770 -0.3565 -2.9360 -2.1922
  353MOL0     H46561   4.582   8.450   6.774  0.9342  2.2348  1.0323
  353MOL0     H46562   4.402   8.305   6.797 -0.0176  2.6444 -0.4810
  353MOL0     H46563   4.368   8.450   6.883  3.2444  0.4722 -2.0711
  353MOL0     H46564   4.163   8.331   6.889  1.2405  0.1912 -2.7931
  353MOL0     H46565   4.224   8.296   7.043  0.3753 -0.5348 -0.0090
  353MOL0     H46566   4.117   8.117   6.901 -0.2146  1.5439  0.7898
  353MOL0     H46567   4.265   8.054   6.969 -1.6112  0.8492  1.3181
  353MOL0     H46568   4.263   8.159   6.685 -1.2633 -1.8384 -0.4076
  353MOL0     H46569   4.386   8.053   6.770 -0.5179 -2.3497  1.1175
  353MOL0     H46570   4.105   7.979   6.693 -1.0498  0.3045  1.3258
  353MOL0     H46571   4.213   7.881   6.783  3.0398  1.4214  1.0274
  353MOL0     H46572   4.255   7.798   6.555  3.6831  0.1472 -3.8425
  353MOL0     H46573   4.388   7.894   6.617 -0.7361 -2.5505  2.2798
  353MOL0     H46574   4.170   7.993   6.416  0.4109  0.3466 -1.3398
  353MOL0     H46575   4.294   8.081   6.458 -2.4377  0.6188 -1.0380
  353MOL0     H46576   4.345   7.977   6.244  0.1826  0.1704  0.3869
  353MOL0     H46577   4.296   7.823   6.284 -0.6188 -0.3136  1.2861
  353MOL0     H46578   4.641   8.275   7.165 -1.1243  0.8129  0.8487
  353MOL0     H46579   4.879   8.372   7.156 -1.0612 -2.3689 -0.6960
  353MOL0     H46580   5.131   8.853   6.792  1.5640  0.8154  0.7496
  353MOL0     H46581   5.356   8.873   6.698 -1.5375 -0.4093 -0.6517
  353MOL0     H46582   7.262   9.483   7.174  0.0210 -3.2344  0.7758
  353MOL0     H46583   7.510   9.469   7.185  1.4179  1.0196 -1.4965
  353MOL0     H46584   7.954   9.184   6.798  1.4519  0.4484 -0.6129
  353MOL0     H46585   8.148   9.086   6.879  0.8110 -1.8462  1.6730
  353MOL0     H46586   8.280   9.252   7.308  0.0799  0.5340 -0.8261
  353MOL0     H46587   8.411   9.156   7.285  0.4871 -1.2117 -0.9543
  353MOL0     H46588   8.133   9.049   7.353 -0.5361 -0.4809 -1.7793
  353MOL0     H46589   8.268   8.943   7.315 -1.3152 -0.3856 -1.1328
  353MOL0     H46590   8.248   9.147   7.551 -1.1525  0.0292  2.4457
  353MOL0     H46591   8.380   9.037   7.525 -0.6967  0.4967  3.0035
  353MOL0     H46592   8.252   8.948   7.690 -0.0208 -1.2982 -0.4175
  353MOL0     H46593   8.091   8.965   7.596  0.1882  1.4305  1.2171
  353MOL0     H46594   8.251   8.599   7.451 -0.6375  0.4968 -1.5212
  353MOL0     H46595   8.060   9.245   7.276  0.6645 -3.2849  0.4858
  353MOL0     H46596   7.856   9.330   7.188  1.6219 -0.4739  2.1152
  354MOL0     O46597   0.800   6.606   6.595  0.5086  0.0555  0.1209
  354MOL0     C46598   0.916   6.650   6.559  0.2692 -0.0807 -0.3480
  354MOL0     O46599   0.941   6.710   6.441  0.4391  0.6038 -0.0851
  354MOL0     C46600   0.844   6.719   6.343  0.2660 -0.8620  0.4050
  354MOL0     C46601   0.723   6.789   6.358  0.0137  0.7094  0.2376
  354MOL0     C46602   0.626   6.801   6.252 -0.2546  0.1625  0.3073
  354MOL0     C46603   0.654   6.743   6.128 -0.3283 -0.0607 -0.2458
  354MOL0     O46604   0.546   6.738   6.043  0.6446 -0.0887  0.0028
  354MOL0     C46605   0.560   6.697   5.906 -0.2458 -0.4138  0.2249
  354MOL0     C46606   0.417   6.654   5.856 -1.1585  0.3204  0.4243
  354MOL0     C46607   0.306   6.743   5.905  0.0461  0.8045  0.4351
  354MOL0     C46608   0.173   6.696   5.855 -0.4795 -0.1136 -0.0038
  354MOL0     C46609   0.063   6.806   5.860 -0.6764 -0.0160 -0.5133
  354MOL0     C46610  -0.049   6.770   5.763 -0.1466  0.8679 -0.1691
  354MOL0     C46611  -0.163   6.869   5.744  0.0203  0.0262  1.1282
  354MOL0     C46612  -0.253   6.879   5.872 -0.6006 -0.2692  0.2829
  354MOL0     N46613  -0.323   6.753   5.914  0.5909 -0.3552  0.2664
  354MOL0     C46614  -0.416   6.685   5.840  0.3282 -0.5117  0.3994
  354MOL0     C46615  -0.429   6.575   5.915  0.1992  0.3852  0.4050
  354MOL0     C46616  -0.504   6.448   5.888  0.5204 -0.1644  0.4230
  354MOL0     C46617  -0.633   6.466   5.822 -0.3353  0.5222  0.5517
  354MOL0     C46618  -0.738   6.497   5.927 -0.4277  0.2006  0.2478
  354MOL0     C46619  -0.856   6.558   5.848 -0.3637  0.8481 -1.1998
  354MOL0     O46620  -0.959   6.552   5.942 -0.2076  0.0656  0.0394
  354MOL0     C46621  -1.091   6.569   5.910 -0.0129 -0.3565  0.0992
  354MOL0     C46622  -1.189   6.535   5.996 -0.1125 -0.2115  0.2001
  354MOL0     C46623  -1.329   6.540   5.965 -0.3426  0.1780 -0.0445
  354MOL0     C46624  -1.374   6.586   5.841  0.0771  0.9905  0.0885
  354MOL0     C46625  -1.520   6.595   5.813  0.3538  0.1118  0.5135
  354MOL0     O46626  -1.544   6.662   5.700 -0.4140 -0.8956 -0.4972
  354MOL0     C46627  -1.668   6.688   5.652 -0.2705 -0.3810  0.8749
  354MOL0     C46628  -1.674   6.794   5.559  0.0173 -0.2485  1.0034
  354MOL0     C46629  -1.798   6.820   5.498  0.6211  0.5219 -0.1307
  354MOL0     C46630  -1.909   6.746   5.520 -0.2538  0.2736  0.2082
  354MOL0     O46631  -2.026   6.794   5.461  0.0385 -0.3434  0.6340
  354MOL0     C46632  -2.089   6.693   5.371  0.8023 -0.2617 -0.4548
  354MOL0     C46633  -2.174   6.750   5.259 -0.1390 -0.7738  0.0059
  354MOL0     C46634  -2.287   6.834   5.323 -0.3427  0.2069 -0.5186
  354MOL0     C46635  -2.367   6.896   5.205 -0.3497  0.0598  0.2340
  354MOL0     C46636  -2.443   6.796   5.116  0.4722  0.1551  0.1002
  354MOL0     C46637  -2.542   6.868   5.025 -0.0151 -0.6089  0.5103
  354MOL0     C46638  -2.622   6.773   4.934  0.2169 -0.3830  0.8107
  354MOL0     C46639  -2.691   6.842   4.818 -0.6475  0.3819  0.3762
  354MOL0    Cl46640  -2.795   6.972   4.884  0.1553  0.3876 -0.1243
  354MOL0     C46641  -1.903   6.633   5.604 -0.4669  0.4526  0.5267
  354MOL0     C46642  -1.781   6.609   5.672 -0.3200  0.5258  0.0287
  354MOL0     O46643  -1.597   6.551   5.895  0.0567  0.4402  0.4688
  354MOL0     C46644  -1.277   6.615   5.745  1.0137 -0.2861 -0.2602
  354MOL0     C46645  -1.137   6.609   5.779 -0.8202 -0.3165 -0.5546
  354MOL0     N46646  -0.374   6.592   6.037 -0.2727  0.1495  0.4307
  354MOL0     N46647  -0.319   6.702   6.040 -0.4553  0.9087  0.6382
  354MOL0     C46648   0.775   6.681   6.104 -0.2755 -0.0570  0.3039
  354MOL0     C46649   0.873   6.682   6.210 -0.6774  0.8875  0.6828
  354MOL0     C46650   1.022   6.654   6.667  0.0423 -0.2308  0.3325
  354MOL0     C46651   1.001   6.597   6.795  0.9262  0.5327 -0.3616
  354MOL0     C46652   1.102   6.602   6.888  0.4331 -0.5764  0.1116
  354MOL0     C46653   1.221   6.676   6.862  0.1272 -0.1564 -0.5653
  354MOL0     O46654   1.310   6.694   6.963  0.2815  0.2236 -0.2470
  354MOL0     C46655   1.384   6.577   6.976  0.0493  0.4084 -0.5216
  354MOL0     C46656   1.514   6.577   6.895 -0.5774  0.1243  0.8718
  354MOL0     C46657   1.576   6.439   6.909 -0.3330 -0.2248  0.2024
  354MOL0     C46658   1.680   6.424   6.791 -0.0190 -0.2809 -0.4077
  354MOL0     C46659   1.768   6.312   6.810  0.4243  0.4840  0.7584
  354MOL0     C46660   1.844   6.220   6.819  0.4715  0.5888  0.2326
  354MOL0     C46661   1.232   6.743   6.742  0.1162  0.3238 -0.0752
  354MOL0     C46662   1.141   6.727   6.639  0.0660  0.5248 -0.1440
  354MOL0     H46663   0.691   6.837   6.449  0.7743  0.8323  0.4479
  354MOL0     H46664   0.528   6.841   6.276 -0.5350 -0.9731  1.1058
  354MOL0     H46665   0.624   6.609   5.898 -0.1261 -0.2635 -0.5580
  354MOL0     H46666   0.614   6.769   5.844  0.0773 -0.8280  0.0220
  354MOL0     H46667   0.396   6.554   5.896 -1.7417  1.1190  2.2052
  354MOL0     H46668   0.436   6.644   5.749 -1.1201 -0.9259  0.5315
  354MOL0     H46669   0.331   6.848   5.887  1.4714  0.3955 -0.1859
  354MOL0     H46670   0.297   6.728   6.013 -0.5561 -3.4451 -0.0271
  354MOL0     H46671   0.179   6.648   5.757 -1.6115 -3.1310  1.2668
  354MOL0     H46672   0.151   6.606   5.914  2.8420 -0.2885  1.2006
  354MOL0     H46673   0.100   6.903   5.826  2.5969 -1.8019 -2.5651
  354MOL0     H46674   0.030   6.815   5.964  0.4269 -0.5409 -0.0923
  354MOL0     H46675  -0.103   6.684   5.802  0.2250  1.5355  1.9405
  354MOL0     H46676   0.005   6.746   5.671 -0.3405 -2.3056  0.4586
  354MOL0     H46677  -0.112   6.963   5.719  1.0042 -0.8135 -0.1565
  354MOL0     H46678  -0.224   6.843   5.657  0.9287 -0.7611  0.7026
  354MOL0     H46679  -0.326   6.957   5.849  0.1004 -0.0422 -1.3140
  354MOL0     H46680  -0.195   6.907   5.960 -0.7614 -1.7936  0.9056
  354MOL0     H46681  -0.441   6.709   5.737  4.7548 -1.3542 -1.0856
  354MOL0     H46682  -0.516   6.393   5.982 -0.2085  0.4112  0.6791
  354MOL0     H46683  -0.438   6.395   5.819  0.9413  1.6689 -0.6702
  354MOL0     H46684  -0.670   6.386   5.756 -1.4058 -0.0878  1.8345
  354MOL0     H46685  -0.615   6.554   5.759  0.2636  0.2740  0.3765
  354MOL0     H46686  -0.768   6.408   5.983  2.1031 -1.2435 -0.5418
  354MOL0     H46687  -0.703   6.579   5.990 -2.2331 -0.3521  2.0658
  354MOL0     H46688  -0.883   6.490   5.767 -0.0470 -2.7744  1.4763
  354MOL0     H46689  -0.841   6.659   5.809 -0.5626  1.4678  0.2482
  354MOL0     H46690  -1.148   6.501   6.090  0.3633 -1.8361 -0.5533
  354MOL0     H46691  -1.402   6.530   6.045 -0.1336 -0.5766  0.0608
  354MOL0     H46692  -1.584   6.848   5.531 -1.6269  1.4014 -1.6002
  354MOL0     H46693  -1.805   6.898   5.423 -0.1584  0.3918 -0.2021
  354MOL0     H46694  -2.158   6.634   5.432 -0.1020  3.2849  2.2551
  354MOL0     H46695  -2.019   6.620   5.330  0.9458  0.3509 -1.3303
  354MOL0     H46696  -2.219   6.667   5.204 -2.7556  0.3659  0.2734
  354MOL0     H46697  -2.110   6.807   5.191 -3.1709  3.1372  0.0626
  354MOL0     H46698  -2.251   6.921   5.379  1.9239 -0.6997 -0.4946
  354MOL0     H46699  -2.342   6.773   5.396 -0.5447 -2.6000 -2.8624
  354MOL0     H46700  -2.446   6.960   5.244 -0.8212  0.5363 -1.4228
  354MOL0     H46701  -2.302   6.961   5.145  0.1759 -1.0127 -0.3992
  354MOL0     H46702  -2.512   6.733   5.174 -1.7383  0.0168 -2.5185
  354MOL0     H46703  -2.372   6.733   5.063 -0.5363 -2.1531  1.3489
  354MOL0     H46704  -2.489   6.938   4.959 -1.3743 -0.0931 -0.0641
  354MOL0     H46705  -2.607   6.937   5.080  0.6725  2.7003 -2.4365
  354MOL0     H46706  -2.555   6.707   4.878  1.0369 -0.0416  1.3612
  354MOL0     H46707  -2.685   6.704   4.992  0.3552 -0.3453  1.0085
  354MOL0     H46708  -2.758   6.775   4.763  1.7853 -0.7794 -1.3500
  354MOL0     H46709  -2.610   6.872   4.751  0.5900 -2.0327  0.6758
  354MOL0     H46710  -1.988   6.572   5.630  0.5824 -1.5419 -0.5201
  354MOL0     H46711  -1.788   6.532   5.747  0.7680 -1.2530 -1.6098
  354MOL0     H46712  -1.318   6.647   5.650  0.7821 -0.0183 -0.0717
  354MOL0     H46713  -1.066   6.633   5.701 -1.7398 -0.0111 -1.3221
  354MOL0     H46714   0.804   6.649   6.004 -2.5583  0.7309 -0.6745
  354MOL0     H46715   0.974   6.642   6.205 -0.5955  1.0806  0.8013
  354MOL0     H46716   0.914   6.537   6.822 -0.2727  2.7701  1.0851
  354MOL0     H46717   1.087   6.558   6.986  2.1566  1.8502  1.5864
  354MOL0     H46718   1.330   6.488   6.943  2.5300 -0.8806 -1.3842
  354MOL0     H46719   1.405   6.572   7.084 -0.6428  2.8713 -0.1989
  354MOL0     H46720   1.505   6.600   6.789  4.0320  1.5569  0.5652
  354MOL0     H46721   1.579   6.655   6.936  1.1766  0.0021 -1.4800
  354MOL0     H46722   1.503   6.358   6.909 -1.6165  0.8842 -0.5421
  354MOL0     H46723   1.638   6.449   6.998  0.9500  3.6830 -0.9201
  354MOL0     H46724   1.627   6.410   6.696 -2.0901 -0.9743  0.7790
  354MOL0     H46725   1.734   6.519   6.780  0.6124 -0.6229 -0.3061
  354MOL0     H46726   1.914   6.141   6.837  0.6744  0.3982 -1.2385
  354MOL0     H46727   1.321   6.802   6.722  1.6344 -2.6881 -3.5820
  354MOL0     H46728   1.163   6.779   6.547 -0.0880  1.2427  0.2174
  355MOL0     O46729   1.931   6.159   9.698 -0.7155  0.2344 -0.6619
  355MOL0     C46730   2.007   6.118   9.787 -0.0605 -0.7431 -0.0965
  355MOL0     O46731   1.965   6.049   9.900 -0.5848 -0.7128  0.6704
  355MOL0     C46732   1.826   6.034   9.919 -0.7620  0.6693 -0.2972
  355MOL0     C46733   1.732   6.143   9.913 -0.6339  0.2593 -0.0868
  355MOL0     C46734   1.592   6.123   9.939 -0.8482 -0.8335  0.8155
  355MOL0     C46735   1.547   5.995   9.962 -0.1443 -0.3212 -0.9509
  355MOL0     O46736   1.409   5.994   9.980  0.5184 -0.4017 -0.9460
  355MOL0     C46737   1.364   5.871  10.034  0.5488 -0.5171 -0.2535
  355MOL0     C46738   1.210   5.862  10.038  0.0604  0.9484 -0.1047
  355MOL0     C46739   1.152   5.725  10.078  0.1577  0.0408  0.3156
  355MOL0     C46740   1.007   5.726  10.024 -0.7025 -0.5635  0.1042
  355MOL0     C46741   0.920   5.598  10.039 -0.4305  0.5929  0.1248
  355MOL0     C46742   0.917   5.557  10.193  0.0634 -0.3184  0.4766
  355MOL0     C46743   0.858   5.667  10.285  0.6963 -0.4451 -0.3325
  355MOL0     C46744   0.713   5.720  10.258  0.4057  0.4838  0.5975
  355MOL0     N46745   0.631   5.601  10.231 -0.0072 -0.2867  0.3633
  355MOL0     C46746   0.617   5.493  10.316 -0.1821 -0.0995 -0.6770
  355MOL0     C46747   0.551   5.409  10.244  0.9847  0.0167 -0.4993
  355MOL0     C46748   0.525   5.265  10.283 -0.0619  0.5609 -0.0297
  355MOL0     C46749   0.381   5.249  10.331  0.1032  0.0969  1.1179
  355MOL0     C46750   0.343   5.355  10.432 -0.7260 -0.8024  0.1425
  355MOL0     C46751   0.213   5.323  10.509 -0.4709 -0.8029  0.9142
  355MOL0     O46752   0.174   5.426  10.603 -0.0164 -0.1420 -0.4550
  355MOL0     C46753   0.049   5.418  10.645  0.1257  0.7018  0.2643
  355MOL0     C46754   0.013   5.321  10.736  0.8895 -0.4077  0.1222
  355MOL0     C46755  -0.116   5.314  10.780  0.4385  0.2091 -0.7044
  355MOL0     C46756  -0.216   5.403  10.738  0.4168  0.5405 -0.1732
  355MOL0     C46757  -0.362   5.380  10.777  0.1886 -0.1094  0.6335
  355MOL0     O46758  -0.381   5.303  10.887 -0.2073  0.0734  0.2736
  355MOL0     C46759  -0.501   5.248  10.933 -0.2923  0.1376  0.7845
  355MOL0     C46760  -0.491   5.203  11.062 -0.2526 -0.3418 -0.4173
  355MOL0     C46761  -0.597   5.147  11.131 -0.7865  0.4700 -0.7901
  355MOL0     C46762  -0.720   5.146  11.067 -0.5933  0.1013  0.3969
  355MOL0     O46763  -0.828   5.098  11.125 -1.1121 -0.2710  0.1566
  355MOL0     C46764  -0.844   5.111  11.269  0.4307  0.3443 -0.2992
  355MOL0     C46765  -0.980   5.056  11.320 -0.7079  0.1507 -0.5563
  355MOL0     C46766  -1.095   5.151  11.281  0.3323 -0.2374  0.3541
  355MOL0     C46767  -1.232   5.071  11.291  0.2222  0.4091  0.1956
  355MOL0     C46768  -1.339   5.142  11.217  0.3260 -0.3323  0.2491
  355MOL0     C46769  -1.477   5.087  11.238  0.1365  0.1960 -1.1968
  355MOL0     C46770  -1.541   5.112  11.369  0.5509 -0.0480  0.7899
  355MOL0     C46771  -1.685   5.055  11.391  0.1811  0.1482  0.3646
  355MOL0    Cl46772  -1.782   5.142  11.283 -0.2100 -0.0728  0.0242
  355MOL0     C46773  -0.737   5.197  10.930 -0.5581  0.3492 -0.5359
  355MOL0     C46774  -0.624   5.248  10.867  0.4239  0.3826  0.5202
  355MOL0     O46775  -0.450   5.421  10.705 -0.2591  0.2107  0.4217
  355MOL0     C46776  -0.182   5.504  10.647 -0.0405 -0.3642  1.1337
  355MOL0     C46777  -0.046   5.514  10.602 -0.0397 -0.3709 -1.4550
  355MOL0     N46778   0.521   5.459  10.117 -0.1275 -0.1667  0.5696
  355MOL0     N46779   0.565   5.581  10.112  0.0893  0.4763  0.1353
  355MOL0     C46780   1.642   5.881   9.964 -0.1636  0.2007 -0.1013
  355MOL0     C46781   1.777   5.901   9.938 -0.0298 -0.8469  0.0292
  355MOL0     C46782   2.152   6.133   9.773 -0.2985  0.4634  0.1564
  355MOL0     C46783   2.219   6.187   9.670 -0.4234 -0.8802  0.0106
  355MOL0     C46784   2.363   6.200   9.670  0.0363 -0.2356 -0.0710
  355MOL0     C46785   2.442   6.159   9.781 -0.3157 -0.2080  0.2272
  355MOL0     O46786   2.576   6.168   9.770 -0.7588 -0.3154  0.0732
  355MOL0     C46787   2.660   6.088   9.846  0.6309  0.5972  0.2532
  355MOL0     C46788   2.803   6.069   9.798 -0.9331  0.2253 -0.2583
  355MOL0     C46789   2.863   5.937   9.855  0.2327 -0.2131  0.6128
  355MOL0     C46790   2.803   5.805   9.801  0.5082  0.4727  0.4241
  355MOL0     C46791   2.849   5.704   9.889 -0.0403  0.2021 -0.4125
  355MOL0     C46792   2.885   5.632   9.976 -0.7501  0.0506  0.6845
  355MOL0     C46793   2.368   6.104   9.885  0.5732  0.4511  0.2262
  355MOL0     C46794   2.228   6.095   9.880 -0.3479 -0.3762  0.0743
  355MOL0     H46795   1.779   6.238   9.890 -0.2034 -0.4130 -2.1513
  355MOL0     H46796   1.527   6.209   9.954  0.9717  0.2691  2.7957
  355MOL0     H46797   1.404   5.853  10.135 -0.1368 -0.2336  0.0774
  355MOL0     H46798   1.391   5.787   9.971 -0.7794 -1.5513  0.5129
  355MOL0     H46799   1.174   5.885   9.937 -0.7815 -0.6726 -0.2048
  355MOL0     H46800   1.175   5.944  10.102 -0.7542 -0.3676  1.2095
  355MOL0     H46801   1.158   5.708  10.186  2.8799 -1.7096 -0.0286
  355MOL0     H46802   1.207   5.644  10.029 -2.3928 -1.4350 -0.2632
  355MOL0     H46803   0.952   5.807  10.071  0.4965  0.0079  0.5585
  355MOL0     H46804   0.998   5.743   9.916  1.3766 -1.1172 -0.1973
  355MOL0     H46805   0.963   5.517   9.979 -0.9136  0.8788 -0.6217
  355MOL0     H46806   0.826   5.616   9.985  0.3568  0.6268 -1.2793
  355MOL0     H46807   1.016   5.522  10.223 -0.0384 -0.9197  0.1365
  355MOL0     H46808   0.851   5.471  10.194 -2.2346  1.2733 -1.6979
  355MOL0     H46809   0.853   5.627  10.387  1.7116  2.0741  0.7825
  355MOL0     H46810   0.925   5.752  10.296 -0.7212  0.5394  1.0241
  355MOL0     H46811   0.712   5.788  10.172 -0.0865  1.0749  1.0617
  355MOL0     H46812   0.679   5.776  10.346  2.0774  2.0316  0.3036
  355MOL0     H46813   0.669   5.478  10.411 -0.8635 -0.2599 -0.3249
  355MOL0     H46814   0.595   5.236  10.362 -0.4118  2.1478  0.9032
  355MOL0     H46815   0.541   5.196  10.200 -1.6081 -0.1996  0.2860
  355MOL0     H46816   0.380   5.155  10.386  0.4245  0.5210  1.8630
  355MOL0     H46817   0.317   5.248  10.242  2.5216  1.3716 -0.7943
  355MOL0     H46818   0.425   5.363  10.504  0.9260  0.8033 -1.7925
  355MOL0     H46819   0.326   5.442  10.367  2.0133 -1.5296 -1.7492
  355MOL0     H46820   0.225   5.228  10.562  0.2451 -1.1027  0.2421
  355MOL0     H46821   0.132   5.309  10.438 -0.9917  0.4207  1.2414
  355MOL0     H46822   0.092   5.264  10.784  0.5398 -0.8661  0.1597
  355MOL0     H46823  -0.127   5.237  10.856  2.1006 -0.5461 -1.1785
  355MOL0     H46824  -0.393   5.216  11.106 -0.1420  1.8763 -1.2340
  355MOL0     H46825  -0.575   5.094  11.223 -1.0077  2.2823  0.3720
  355MOL0     H46826  -0.843   5.219  11.290 -0.4493  0.5419 -1.1746
  355MOL0     H46827  -0.768   5.060  11.328 -1.8297 -3.3575 -0.2451
  355MOL0     H46828  -0.983   5.058  11.429  0.0528 -0.0130 -0.5271
  355MOL0     H46829  -0.998   4.954  11.285  0.7023 -0.7494  1.1808
  355MOL0     H46830  -1.077   5.154  11.173  1.4762  0.7202  0.5540
  355MOL0     H46831  -1.103   5.246  11.333 -4.7214 -0.1225 -0.1368
  355MOL0     H46832  -1.223   4.965  11.266  3.8209  0.0695  2.1710
  355MOL0     H46833  -1.263   5.072  11.396  1.2040  0.5506  0.4933
  355MOL0     H46834  -1.321   5.123  11.110 -0.5194 -0.6536  0.1580
  355MOL0     H46835  -1.345   5.248  11.241 -1.5594 -0.7210  1.6654
  355MOL0     H46836  -1.469   4.978  11.223  0.8997 -0.3554  2.4180
  355MOL0     H46837  -1.540   5.126  11.157  2.4216  0.3895 -2.9780
  355MOL0     H46838  -1.473   5.062  11.439  0.4485 -1.0508  0.1949
  355MOL0     H46839  -1.539   5.221  11.377  1.7092 -0.0378  0.6638
  355MOL0     H46840  -1.717   5.070  11.495  2.0162  0.9279  0.8539
  355MOL0     H46841  -1.686   4.947  11.377  0.3558  0.2266 -0.2858
  355MOL0     H46842  -0.828   5.199  10.871 -1.7989  0.5626  1.3092
  355MOL0     H46843  -0.646   5.287  10.768  3.5044 -0.7368 -0.7433
  355MOL0     H46844  -0.252   5.566  10.591  0.8112 -1.1352 -0.8823
  355MOL0     H46845  -0.020   5.596  10.536  2.6550  1.3921  1.4789
  355MOL0     H46846   1.596   5.783   9.975 -0.2847  0.4369  1.9240
  355MOL0     H46847   1.847   5.819   9.930  0.0176 -0.9208  1.1309
  355MOL0     H46848   2.156   6.235   9.596  0.8714  0.9099 -0.0031
  355MOL0     H46849   2.412   6.249   9.586  0.9627  1.8218  1.5590
  355MOL0     H46850   2.616   5.988   9.853  1.3906  0.0828 -1.6131
  355MOL0     H46851   2.654   6.120   9.950  0.7051  0.1746  0.3911
  355MOL0     H46852   2.831   6.066   9.692  1.0054  1.4368  0.1800
  355MOL0     H46853   2.872   6.139   9.844 -1.8345  0.2925  1.0530
  355MOL0     H46854   2.828   5.936   9.959 -1.0470  0.2895  0.2077
  355MOL0     H46855   2.972   5.932   9.850  0.2618  1.0128 -0.3240
  355MOL0     H46856   2.694   5.806   9.792  0.5879  1.3188 -0.5651
  355MOL0     H46857   2.837   5.777   9.701 -0.9216 -3.2427  0.8290
  355MOL0     H46858   2.903   5.568  10.059 -2.1237  1.2165  1.9298
  355MOL0     H46859   2.413   6.053   9.970  0.7046 -0.8781 -0.6037
  355MOL0     H46860   2.188   6.055   9.973  0.6703 -0.6384  0.4086
  356MOL0     O46861   4.963   9.183   9.721 -0.5270  0.2746 -0.2137
  356MOL0     C46862   4.994   9.070   9.671  0.3934 -0.7511 -0.0090
  356MOL0     O46863   4.900   8.973   9.660 -0.5077 -0.1841 -0.0413
  356MOL0     C46864   4.770   8.995   9.700  0.3403 -0.7561  0.7388
  356MOL0     C46865   4.665   9.021   9.605 -0.1659  0.8706 -0.2603
  356MOL0     C46866   4.534   9.003   9.649  0.2564  0.1544 -0.2127
  356MOL0     C46867   4.500   8.967   9.778 -0.6663  0.0482  1.0082
  356MOL0     O46868   4.364   8.967   9.796  0.3933  0.4018 -0.2122
  356MOL0     C46869   4.316   8.866   9.891 -0.0780  0.0835  0.0486
  356MOL0     C46870   4.162   8.865   9.890 -0.5818  0.8893 -0.2435
  356MOL0     C46871   4.105   8.763   9.989  0.4915 -0.1952 -0.0113
  356MOL0     C46872   3.956   8.767   9.965  0.2728  1.3660  0.0115
  356MOL0     C46873   3.882   8.670  10.060  0.4558  0.2117 -0.0102
  356MOL0     C46874   3.849   8.739  10.189 -0.5072  0.1355  0.4094
  356MOL0     C46875   3.744   8.679  10.283 -0.4215  0.4152  0.7592
  356MOL0     C46876   3.666   8.791  10.361  0.2976  0.4477  1.2819
  356MOL0     N46877   3.616   8.733  10.487 -0.0798 -0.3282 -0.3229
  356MOL0     C46878   3.661   8.773  10.611  0.5214 -0.5593  0.5514
  356MOL0     C46879   3.562   8.744  10.695  0.2160  0.0144 -0.6626
  356MOL0     C46880   3.563   8.759  10.851 -0.9219  1.2369  0.9846
  356MOL0     C46881   3.424   8.781  10.912  0.2043  0.5115 -0.6686
  356MOL0     C46882   3.424   8.768  11.063 -0.3152  1.0226  0.1623
  356MOL0     C46883   3.296   8.826  11.125  0.0529 -0.4505  0.1247
  356MOL0     O46884   3.196   8.726  11.112 -0.0257  0.0819  0.2801
  356MOL0     C46885   3.072   8.743  11.168  0.1830 -0.3330 -0.2407
  356MOL0     C46886   2.981   8.646  11.144 -0.5697 -0.6164  0.0880
  356MOL0     C46887   2.857   8.641  11.202  0.2709  0.9805  0.7579
  356MOL0     C46888   2.818   8.725  11.302 -0.0368  0.2975 -1.0197
  356MOL0     C46889   2.679   8.723  11.356 -0.0772 -0.3421 -0.1212
  356MOL0     O46890   2.585   8.671  11.272  0.2959  0.0618  0.0206
  356MOL0     C46891   2.451   8.670  11.303  0.9318 -1.2418  0.3816
  356MOL0     C46892   2.367   8.564  11.270 -0.3484  0.5916 -0.4964
  356MOL0     C46893   2.225   8.579  11.281  0.0468  0.0233  1.3948
  356MOL0     C46894   2.169   8.701  11.314  0.3755  0.4888 -0.2928
  356MOL0     O46895   2.033   8.694  11.337 -0.1689  0.0618  0.7476
  356MOL0     C46896   1.967   8.803  11.265  0.3618 -0.0186  0.9277
  356MOL0     C46897   1.815   8.790  11.284  0.5550  0.2936 -0.1359
  356MOL0     C46898   1.758   8.802  11.427 -0.5990  0.6730 -0.2486
  356MOL0     C46899   1.602   8.792  11.431  0.5634 -0.9290 -0.2158
  356MOL0     C46900   1.528   8.924  11.383  0.3526  0.5704  0.2423
  356MOL0     C46901   1.381   8.919  11.430  0.4713 -1.4074  0.3165
  356MOL0     C46902   1.301   9.046  11.392 -0.4327  0.3659 -0.7031
  356MOL0     C46903   1.241   9.037  11.262  0.1728  0.4095 -0.3778
  356MOL0    Cl46904   1.169   9.196  11.230 -0.1487 -0.4557 -0.6028
  356MOL0     C46905   2.254   8.806  11.342 -0.6165  0.4953  0.5740
  356MOL0     C46906   2.388   8.791  11.338  1.1605 -1.1021  0.1115
  356MOL0     O46907   2.663   8.744  11.480 -0.3781  0.4891  0.1523
  356MOL0     C46908   2.908   8.826  11.340 -0.0286 -1.0762  0.1288
  356MOL0     C46909   3.034   8.835  11.274 -0.1333 -0.1676 -0.5041
  356MOL0     N46910   3.454   8.700  10.628  0.5829  0.2456  0.0532
  356MOL0     N46911   3.486   8.693  10.509 -0.1916  0.4178 -0.3270
  356MOL0     C46912   4.601   8.953   9.866  0.3837 -0.1044 -0.7969
  356MOL0     C46913   4.735   8.975   9.832  1.3063 -0.4115  0.2192
  356MOL0     C46914   5.134   9.043   9.650  0.3149  0.6643 -0.0057
  356MOL0     C46915   5.170   8.911   9.621  0.2488  0.2177  0.2905
  356MOL0     C46916   5.302   8.873   9.623 -0.4027 -0.3467  0.2124
  356MOL0     C46917   5.411   8.952   9.654  0.8591 -0.6826  0.0451
  356MOL0     O46918   5.543   8.900   9.671  0.5145 -0.4214 -0.7710
  356MOL0     C46919   5.562   8.757   9.661 -0.7215 -0.5050  0.0220
  356MOL0     C46920   5.710   8.718   9.682 -0.4691  0.0749 -0.2512
  356MOL0     C46921   5.720   8.571   9.672 -0.5896  0.3191 -0.7615
  356MOL0     C46922   5.860   8.513   9.687 -0.0921  0.3491  0.0052
  356MOL0     C46923   5.927   8.553   9.813 -0.4313  0.1658 -0.7140
  356MOL0     C46924   5.966   8.573   9.923  0.5850 -0.0590 -0.1647
  356MOL0     C46925   5.378   9.085   9.684 -1.0354  0.4338  0.3512
  356MOL0     C46926   5.240   9.125   9.689  0.3530 -0.1456  0.2283
  356MOL0     H46927   4.690   9.049   9.503 -1.5463 -1.6094 -1.3816
  356MOL0     H46928   4.457   9.017   9.575 -1.6469  0.0854  1.6566
  356MOL0     H46929   4.369   8.886   9.985  2.0222 -0.8760 -0.8707
  356MOL0     H46930   4.359   8.776   9.845 -0.3923  0.1829 -0.4423
  356MOL0     H46931   4.129   8.847   9.787 -0.5849  1.8220 -0.4171
  356MOL0     H46932   4.134   8.968   9.912  2.7649  2.1522 -1.1834
  356MOL0     H46933   4.145   8.779  10.090 -1.2487 -2.3171  1.0993
  356MOL0     H46934   4.143   8.665   9.959 -1.0037 -0.6139 -0.5927
  356MOL0     H46935   3.905   8.863   9.971  3.0515  2.8427  2.4159
  356MOL0     H46936   3.941   8.723   9.866  1.5172 -1.9704  1.1539
  356MOL0     H46937   3.944   8.582  10.080  1.4680  0.7430 -0.7401
  356MOL0     H46938   3.789   8.644  10.007 -0.4029  2.4015  0.3158
  356MOL0     H46939   3.815   8.838  10.156  1.6592  0.6553 -0.4608
  356MOL0     H46940   3.946   8.758  10.236  0.8535 -1.9190 -1.3769
  356MOL0     H46941   3.671   8.616  10.230 -1.0035  1.1571  0.6617
  356MOL0     H46942   3.800   8.610  10.346 -0.7079 -0.7406 -0.2153
  356MOL0     H46943   3.575   8.827  10.312  0.7693  0.2599  0.2511
  356MOL0     H46944   3.735   8.875  10.369  0.7046  0.6827 -2.6122
  356MOL0     H46945   3.756   8.819  10.635 -0.0073  0.8830  0.0239
  356MOL0     H46946   3.632   8.842  10.873  0.3769  0.5268 -0.2557
  356MOL0     H46947   3.609   8.672  10.900  1.5910  1.5537 -0.6245
  356MOL0     H46948   3.347   8.713  10.874  0.6734 -1.8364  2.1640
  356MOL0     H46949   3.400   8.886  10.895  1.2585  1.1373  1.3347
  356MOL0     H46950   3.436   8.663  11.090  0.2499  0.4568 -2.1037
  356MOL0     H46951   3.519   8.813  11.092  1.5712 -1.5154 -1.6310
  356MOL0     H46952   3.271   8.925  11.087 -0.1409  0.4174  2.3401
  356MOL0     H46953   3.306   8.852  11.231 -2.6872  0.7072  0.1917
  356MOL0     H46954   3.013   8.579  11.065  2.2917  2.0839 -1.2858
  356MOL0     H46955   2.798   8.562  11.156  3.7370  0.3832 -3.3635
  356MOL0     H46956   2.411   8.470  11.236  1.6076  1.4885 -0.6062
  356MOL0     H46957   2.153   8.504  11.252 -0.4684  1.1086 -0.2559
  356MOL0     H46958   1.985   8.783  11.158 -1.7923 -1.2938  0.7514
  356MOL0     H46959   1.999   8.901  11.300 -1.7708  0.1921  2.4524
  356MOL0     H46960   1.778   8.695  11.243  0.1296  0.0571  0.7518
  356MOL0     H46961   1.769   8.865  11.220  2.9409  1.8339 -0.1674
  356MOL0     H46962   1.792   8.897  11.470  0.0397 -0.5859  2.2213
  356MOL0     H46963   1.801   8.721  11.487 -0.7143 -0.1549 -1.2614
  356MOL0     H46964   1.554   8.711  11.375 -2.7284 -1.2578  2.7425
  356MOL0     H46965   1.569   8.771  11.534 -0.4999  1.9977  0.1180
  356MOL0     H46966   1.519   8.927  11.274  0.2269 -0.1182  0.2307
  356MOL0     H46967   1.573   9.013  11.428 -2.3078  1.0299  2.2825
  356MOL0     H46968   1.373   8.901  11.538 -1.5302  1.5922  0.7979
  356MOL0     H46969   1.328   8.832  11.389  0.1390 -0.6652 -0.8510
  356MOL0     H46970   1.231   9.062  11.474 -0.8203 -0.6620 -0.8165
  356MOL0     H46971   1.370   9.130  11.407 -0.1756  0.0718 -0.2341
  356MOL0     H46972   1.168   8.955  11.261 -0.9641  1.3874 -0.5943
  356MOL0     H46973   1.299   9.015  11.172  1.8931  0.6849  0.6146
  356MOL0     H46974   2.218   8.899  11.384 -0.6932  0.6912  0.0766
  356MOL0     H46975   2.439   8.882  11.368 -0.1349 -0.6946  1.2050
  356MOL0     H46976   2.872   8.891  11.419 -1.0154  0.1595 -1.2735
  356MOL0     H46977   3.101   8.916  11.298  0.3603 -1.0776  1.3172
  356MOL0     H46978   4.586   8.940   9.973  1.4181  0.5801 -0.5467
  356MOL0     H46979   4.822   8.967   9.897  1.2220  3.5697  1.1039
  356MOL0     H46980   5.097   8.834   9.597  0.6820  0.6338 -2.8170
  356MOL0     H46981   5.322   8.770   9.595  1.0194 -0.0731  0.1392
  356MOL0     H46982   5.526   8.719   9.565  3.9310 -1.1021 -1.7432
  356MOL0     H46983   5.506   8.715   9.745  1.9612 -1.1216  1.6168
  356MOL0     H46984   5.771   8.769   9.608 -0.8558 -0.1248 -0.7096
  356MOL0     H46985   5.751   8.755   9.777  3.7150  1.3235 -2.3100
  356MOL0     H46986   5.682   8.546   9.573  0.3456  0.0590 -1.0719
  356MOL0     H46987   5.647   8.523   9.737  0.0228  0.8876  0.3763
  356MOL0     H46988   5.854   8.408   9.658  0.8343  1.0926 -3.2785
  356MOL0     H46989   5.916   8.567   9.611 -0.5498  0.4907 -0.2343
  356MOL0     H46990   5.997   8.589  10.024  1.5032  2.6294 -0.7788
  356MOL0     H46991   5.459   9.156   9.700 -0.5715  0.4047 -1.6594
  356MOL0     H46992   5.213   9.226   9.716 -0.7629 -0.2723 -0.3117
  357MOL0     O46993   8.021   5.290   9.854 -0.1116  0.6481  0.2012
  357MOL0     C46994   8.072   5.248   9.959 -0.5787  0.9474  0.6265
  357MOL0     O46995   8.010   5.228  10.083  0.1940  0.0375  0.5652
  357MOL0     C46996   7.875   5.210  10.067  0.2858  0.0977 -0.4918
  357MOL0     C46997   7.792   5.323  10.061  0.3327  0.6019 -0.2199
  357MOL0     C46998   7.649   5.301  10.071 -0.2246  0.7147  0.0238
  357MOL0     C46999   7.600   5.172  10.090  0.4658 -0.3956  0.2377
  357MOL0     O47000   7.474   5.145  10.126 -0.3737 -0.2429  0.7013
  357MOL0     C47001   7.372   5.244  10.132 -0.5770 -0.4564  0.4126
  357MOL0     C47002   7.231   5.167  10.164 -0.0918  0.0887 -0.0362
  357MOL0     C47003   7.115   5.275  10.183 -0.0469  0.4645  0.1355
  357MOL0     C47004   6.987   5.205  10.233  0.4665 -0.1730 -0.3851
  357MOL0     C47005   6.995   5.160  10.387 -0.0595 -0.0985  0.0208
  357MOL0     C47006   6.977   5.291  10.462  0.3002  0.5172 -0.5516
  357MOL0     C47007   6.836   5.351  10.468  0.0236 -0.1591  0.4182
  357MOL0     C47008   6.827   5.471  10.560  0.2300  0.3108  0.4345
  357MOL0     N47009   6.685   5.511  10.563  0.3334 -0.1400  0.2050
  357MOL0     C47010   6.602   5.533  10.669 -0.3020  0.8083 -0.8530
  357MOL0     C47011   6.474   5.535  10.619 -0.5763  0.1316  0.3090
  357MOL0     C47012   6.350   5.555  10.704 -0.2421 -0.8025 -0.0165
  357MOL0     C47013   6.236   5.506  10.628  0.6466 -0.3584  0.1269
  357MOL0     C47014   6.107   5.508  10.723 -0.7527 -0.3581 -0.1706
  357MOL0     C47015   5.983   5.486  10.639 -1.0004  0.8437 -0.3437
  357MOL0     O47016   5.858   5.523  10.703  0.3641  1.0735  0.6930
  357MOL0     C47017   5.733   5.522  10.633 -0.0810  0.0550  0.0165
  357MOL0     C47018   5.629   5.583  10.703  0.5928  0.0781  0.5026
  357MOL0     C47019   5.504   5.601  10.644 -0.0831 -0.6118  0.2075
  357MOL0     C47020   5.480   5.556  10.513 -0.6487 -0.2107 -0.9719
  357MOL0     C47021   5.348   5.572  10.461  0.0471  0.2199  0.1743
  357MOL0     O47022   5.247   5.585  10.551  0.6833  0.0980 -0.1880
  357MOL0     C47023   5.110   5.565  10.531  0.4222 -0.1521 -0.5885
  357MOL0     C47024   5.051   5.504  10.424  0.4913  0.1231  0.1271
  357MOL0     C47025   4.913   5.490  10.426  0.4048  1.0726  0.5055
  357MOL0     C47026   4.834   5.553  10.518  0.0916 -0.7579 -0.1167
  357MOL0     O47027   4.694   5.540  10.509  0.3453  0.1291 -0.0715
  357MOL0     C47028   4.616   5.623  10.605 -0.4642 -0.3862  0.7313
  357MOL0     C47029   4.465   5.621  10.571 -0.6047 -0.4635 -0.4922
  357MOL0     C47030   4.435   5.707  10.444  0.6380  0.7102 -0.2774
  357MOL0     C47031   4.295   5.737  10.421  0.6436 -0.4727 -0.1800
  357MOL0     C47032   4.287   5.828  10.305 -0.4103 -0.1223 -0.1042
  357MOL0     C47033   4.136   5.841  10.272  0.1282  0.2248  1.4689
  357MOL0     C47034   4.138   5.909  10.133 -0.6210  0.3989  0.2901
  357MOL0     C47035   3.999   5.952  10.098 -0.1681  0.3052  1.1203
  357MOL0    Cl47036   3.895   5.806  10.109  0.2857 -0.4024  0.0389
  357MOL0     C47037   4.899   5.627  10.624 -0.5696 -0.2737  0.5931
  357MOL0     C47038   5.038   5.625  10.633  0.0841 -0.8843  0.6618
  357MOL0     O47039   5.334   5.569  10.339 -0.5010  0.8768 -0.2914
  357MOL0     C47040   5.584   5.489  10.442 -1.1894 -0.2223 -0.4278
  357MOL0     C47041   5.713   5.479  10.505  0.5062  0.6154  0.2033
  357MOL0     N47042   6.489   5.528  10.481  0.7096  0.1837 -0.0022
  357MOL0     N47043   6.611   5.519  10.453 -0.3627  0.3870 -1.2455
  357MOL0     C47044   7.683   5.060  10.082 -0.2215  0.0180  0.1648
  357MOL0     C47045   7.819   5.080  10.070 -0.1786  0.1762 -0.2636
  357MOL0     C47046   8.218   5.230   9.956 -0.5286 -0.6106  0.0553
  357MOL0     C47047   8.291   5.181  10.068 -0.0507  0.0516  0.6674
  357MOL0     C47048   8.432   5.178  10.065 -0.3911  0.0046 -0.0193
  357MOL0     C47049   8.507   5.239   9.971 -0.4761 -0.1614 -0.1295
  357MOL0     O47050   8.647   5.235   9.970 -0.1595 -0.1523 -0.1087
  357MOL0     C47051   8.725   5.261  10.082 -0.5726  0.7812 -0.0071
  357MOL0     C47052   8.865   5.283  10.039  0.5117  0.4826 -0.3145
  357MOL0     C47053   8.945   5.366  10.137  0.6537  0.0143 -0.3394
  357MOL0     C47054   8.958   5.513  10.078  0.2232  0.4381 -0.6388
  357MOL0     C47055   8.841   5.604  10.111  0.5078  0.2479  0.3786
  357MOL0     C47056   8.726   5.636  10.130 -0.3441 -1.0373  0.3213
  357MOL0     C47057   8.439   5.285   9.861  0.6045 -0.8280  0.2886
  357MOL0     C47058   8.296   5.287   9.857  0.2993  0.4513 -0.2976
  357MOL0     H47059   7.829   5.424  10.048 -0.2788  0.7731 -0.6678
  357MOL0     H47060   7.583   5.387  10.079  0.5621  1.2805  0.6618
  357MOL0     H47061   7.364   5.282  10.030 -2.4676 -2.6708 -0.3626
  357MOL0     H47062   7.397   5.312  10.214 -2.5360 -0.1367  0.7925
  357MOL0     H47063   7.263   5.117  10.256  0.5258  1.3608  0.4576
  357MOL0     H47064   7.209   5.101  10.079 -2.1295  2.5498 -1.5753
  357MOL0     H47065   7.091   5.302  10.079 -0.7839 -2.1452 -0.4622
  357MOL0     H47066   7.140   5.356  10.252 -5.1259 -0.4353  3.5669
  357MOL0     H47067   6.902   5.270  10.214  1.5612  2.5334  2.9971
  357MOL0     H47068   6.967   5.118  10.169 -0.3042 -1.4625  1.5007
  357MOL0     H47069   7.092   5.115  10.408  0.3064  0.9417  0.6412
  357MOL0     H47070   6.921   5.082  10.407  2.0135 -2.2204 -0.1741
  357MOL0     H47071   7.055   5.360  10.431  2.0601 -1.1883 -0.1195
  357MOL0     H47072   7.000   5.264  10.566 -2.5468 -0.6272 -0.1126
  357MOL0     H47073   6.815   5.384  10.366  1.6016  0.2952  0.2074
  357MOL0     H47074   6.762   5.274  10.486  0.1455 -0.7841 -1.5116
  357MOL0     H47075   6.883   5.558  10.524  1.8418 -0.8085  0.1283
  357MOL0     H47076   6.856   5.446  10.662 -3.1821  3.3673  2.3994
  357MOL0     H47077   6.644   5.534  10.769 -2.1124  0.6858 -0.0516
  357MOL0     H47078   6.337   5.658  10.739 -1.5931 -0.5144 -1.2440
  357MOL0     H47079   6.375   5.499  10.795  0.5687  1.1768  1.0491
  357MOL0     H47080   6.252   5.403  10.593  0.3949 -0.4336  0.2264
  357MOL0     H47081   6.228   5.567  10.538  0.0018 -0.2318  0.2673
  357MOL0     H47082   6.120   5.439  10.806  1.9454 -1.2043 -1.1948
  357MOL0     H47083   6.104   5.604  10.775  0.6669 -0.4705  0.1661
  357MOL0     H47084   5.983   5.381  10.611 -0.3649  1.0483 -1.1271
  357MOL0     H47085   5.990   5.551  10.551  2.1989  1.5012  0.2566
  357MOL0     H47086   5.663   5.609  10.803  1.1238 -3.3799  1.3383
  357MOL0     H47087   5.424   5.641  10.705  2.0097  1.9637  1.4685
  357MOL0     H47088   5.113   5.462  10.345  0.0066  0.5700 -0.5118
  357MOL0     H47089   4.861   5.440  10.344 -0.5660 -2.0430  2.8297
  357MOL0     H47090   4.649   5.727  10.607  2.0937 -1.1229  1.1232
  357MOL0     H47091   4.625   5.585  10.707 -2.9020  1.1520  1.5841
  357MOL0     H47092   4.418   5.664  10.659 -2.9879  2.0162 -2.7817
  357MOL0     H47093   4.421   5.521  10.568  0.5033 -1.2065  2.9898
  357MOL0     H47094   4.464   5.661  10.349 -0.7369  0.2997 -0.5305
  357MOL0     H47095   4.485   5.802  10.465  2.3182 -0.5615  1.9186
  357MOL0     H47096   4.231   5.650  10.408  0.4873 -0.2019 -1.3034
  357MOL0     H47097   4.253   5.792  10.507 -1.1829 -0.8486 -0.7853
  357MOL0     H47098   4.342   5.778  10.224  0.5779  0.5956  0.0989
  357MOL0     H47099   4.332   5.925  10.329  0.2909  0.4067 -3.0772
  357MOL0     H47100   4.082   5.896  10.349 -0.6382  0.6586  0.6429
  357MOL0     H47101   4.100   5.738  10.264 -1.6060  0.6988  2.6266
  357MOL0     H47102   4.210   5.991  10.144  0.8407 -0.6112 -1.1623
  357MOL0     H47103   4.184   5.831  10.071  1.1768  1.4719  0.2012
  357MOL0     H47104   3.995   6.002  10.000  1.4461  2.0054  1.8562
  357MOL0     H47105   3.965   6.035  10.162  1.8533  2.3565 -0.2993
  357MOL0     H47106   4.856   5.689  10.702  1.0587  0.0055  1.2982
  357MOL0     H47107   5.096   5.657  10.719  0.8132  1.2717 -0.5633
  357MOL0     H47108   5.552   5.443  10.349  1.1535 -2.6882 -0.1321
  357MOL0     H47109   5.799   5.443  10.450  0.8276 -0.1540  1.1822
  357MOL0     H47110   7.652   4.957  10.095  2.8631 -0.9395  0.8023
  357MOL0     H47111   7.889   4.997  10.074 -1.4160 -0.8527  0.5106
  357MOL0     H47112   8.251   5.135  10.157  0.5536  1.4845  1.7135
  357MOL0     H47113   8.480   5.120  10.143 -0.0897 -1.0896 -0.9882
  357MOL0     H47114   8.719   5.181  10.156 -0.8674  0.3939 -0.4444
  357MOL0     H47115   8.695   5.356  10.128 -2.6968  0.0519  0.2565
  357MOL0     H47116   8.905   5.185  10.014 -0.7502 -0.4981  1.2815
  357MOL0     H47117   8.856   5.335   9.943 -0.7664  1.5918  0.3737
  357MOL0     H47118   9.050   5.335  10.143  1.2613  1.4040 -2.6405
  357MOL0     H47119   8.910   5.359  10.241  2.7554 -3.1932  0.2779
  357MOL0     H47120   9.051   5.549  10.124  2.0789 -1.4506 -2.6654
  357MOL0     H47121   8.979   5.517   9.971 -0.5750  1.2776 -0.7808
  357MOL0     H47122   8.628   5.677  10.136  0.8181  1.8691  1.5900
  357MOL0     H47123   8.496   5.325   9.777 -1.7380 -1.3804 -1.6756
  357MOL0     H47124   8.240   5.334   9.776 -0.8985  1.0066  0.8205
  358MOL0     O47125   8.852   2.873   3.275  0.3558  0.1167  0.4241
  358MOL0     C47126   8.928   2.964   3.256  0.2287 -0.5433 -0.3709
  358MOL0     O47127   8.895   3.104   3.254 -0.3158  0.0919  0.4294
  358MOL0     C47128   8.760   3.140   3.245 -0.5334  0.7819 -0.8697
  358MOL0     C47129   8.689   3.141   3.123  0.5812  0.7718  0.4620
  358MOL0     C47130   8.546   3.149   3.123  0.6734 -0.7584 -1.0207
  358MOL0     C47131   8.483   3.191   3.244 -0.1518  0.0003  0.3388
  358MOL0     O47132   8.347   3.221   3.241  0.6216 -0.3223  0.5927
  358MOL0     C47133   8.333   3.356   3.205 -0.1345 -0.7602  0.3471
  358MOL0     C47134   8.185   3.384   3.168 -0.2734 -0.2967 -0.2253
  358MOL0     C47135   8.168   3.349   3.020 -0.1796  0.4160  0.1008
  358MOL0     C47136   8.027   3.381   2.986  0.5631 -0.2669 -0.3126
  358MOL0     C47137   7.985   3.339   2.838 -0.5230  0.0467 -0.7564
  358MOL0     C47138   7.869   3.417   2.775  0.4895  0.2708  0.0983
  358MOL0     C47139   7.734   3.404   2.839  0.2503 -0.3539  0.2395
  358MOL0     C47140   7.674   3.258   2.843 -0.2530  0.8154 -1.1151
  358MOL0     N47141   7.663   3.208   2.705  0.0114  0.6003  0.0842
  358MOL0     C47142   7.549   3.222   2.629  0.2558 -0.0998  0.2630
  358MOL0     C47143   7.556   3.117   2.539 -0.2959 -0.3114 -0.6067
  358MOL0     C47144   7.453   3.073   2.439 -0.0223 -0.6486  0.3938
  358MOL0     C47145   7.396   3.185   2.358 -0.2674 -0.1683  0.1813
  358MOL0     C47146   7.505   3.241   2.262  0.4182 -0.8377  0.4510
  358MOL0     C47147   7.455   3.338   2.151 -0.3684  0.3202  0.6694
  358MOL0     O47148   7.424   3.457   2.210  0.2216  0.3512 -0.0464
  358MOL0     C47149   7.287   3.494   2.219 -0.3330 -0.1107  0.2009
  358MOL0     C47150   7.178   3.423   2.177  0.7892  0.0447  0.0612
  358MOL0     C47151   7.050   3.481   2.185 -0.5797  0.1639  0.5555
  358MOL0     C47152   7.030   3.601   2.245 -0.7263  0.7548  0.1405
  358MOL0     C47153   6.888   3.647   2.256 -0.3563  0.4059 -1.2212
  358MOL0     O47154   6.789   3.598   2.178 -0.5304  0.6406  0.1202
  358MOL0     C47155   6.660   3.649   2.190 -0.2377 -0.2974  0.2078
  358MOL0     C47156   6.556   3.578   2.255 -0.0751  0.5322  0.3590
  358MOL0     C47157   6.419   3.617   2.258  0.6728 -0.0917  0.7095
  358MOL0     C47158   6.382   3.743   2.202 -0.1683 -0.1666  0.4864
  358MOL0     O47159   6.252   3.786   2.222 -0.0244  0.6843 -0.1133
  358MOL0     C47160   6.203   3.887   2.137  0.7662 -0.2487  0.0273
  358MOL0     C47161   6.057   3.898   2.172  0.0530 -0.5701  0.1150
  358MOL0     C47162   5.949   3.880   2.062 -0.3331  0.3983 -0.4693
  358MOL0     C47163   5.816   3.867   2.124  0.4817  0.2364  0.0890
  358MOL0     C47164   5.689   3.853   2.030 -0.9056 -0.0471  0.2133
  358MOL0     C47165   5.653   3.998   1.986  0.3637 -0.4720  0.4705
  358MOL0     C47166   5.548   3.995   1.884  0.4473  0.2365  1.0896
  358MOL0     C47167   5.402   3.981   1.949  1.0157 -0.2343 -0.0599
  358MOL0    Cl47168   5.358   3.821   2.012  0.2372 -0.1728 -0.4662
  358MOL0     C47169   6.484   3.816   2.140 -0.7614 -0.7028  0.1587
  358MOL0     C47170   6.618   3.767   2.134  0.2971 -0.6013  1.6958
  358MOL0     O47171   6.866   3.728   2.353  0.4084 -0.0206  0.0054
  358MOL0     C47172   7.144   3.671   2.294 -0.1140 -0.1762  0.3803
  358MOL0     C47173   7.271   3.620   2.276  0.5306  0.2436 -0.3105
  358MOL0     N47174   7.669   3.044   2.565  0.6226  1.2244 -0.5434
  358MOL0     N47175   7.735   3.107   2.655 -0.7785 -0.0183  0.5668
  358MOL0     C47176   8.559   3.206   3.363 -0.3444  0.3346 -0.3904
  358MOL0     C47177   8.697   3.176   3.367 -0.4410  0.3114  0.4816
  358MOL0     C47178   9.071   2.936   3.245  0.2227 -0.7787 -0.9716
  358MOL0     C47179   9.162   3.034   3.196  0.1394 -0.6775  0.2123
  358MOL0     C47180   9.301   3.012   3.168  0.7287 -0.2012  0.2030
  358MOL0     C47181   9.359   2.885   3.214  0.2485 -0.0024 -0.1360
  358MOL0     O47182   9.490   2.848   3.206 -0.3830  0.2558 -0.0072
  358MOL0     C47183   9.564   2.918   3.102  0.0086  1.1410 -0.1903
  358MOL0     C47184   9.700   2.853   3.110 -0.5905  0.4461  0.8314
  358MOL0     C47185   9.765   2.874   3.252 -1.0371  0.2162  0.5268
  358MOL0     C47186   9.909   2.811   3.258  0.2789 -0.1517  0.3471
  358MOL0     C47187   9.916   2.665   3.222  0.1314  0.4126 -0.1670
  358MOL0     C47188   9.907   2.548   3.195  0.6020 -0.0501  0.1731
  358MOL0     C47189   9.265   2.799   3.275 -0.6382 -0.5744 -0.4596
  358MOL0     C47190   9.119   2.818   3.284  0.6467 -0.3531  0.7643
  358MOL0     H47191   8.739   3.127   3.028 -0.5502 -1.3867  0.1042
  358MOL0     H47192   8.482   3.145   3.035 -1.1918  0.4078  0.1976
  358MOL0     H47193   8.389   3.380   3.114 -1.3875 -2.9491 -1.1021
  358MOL0     H47194   8.374   3.423   3.281  1.1165  0.2129 -1.1084
  358MOL0     H47195   8.170   3.490   3.189 -2.3859 -0.5764 -0.1256
  358MOL0     H47196   8.119   3.329   3.236  1.2286 -0.5648  1.0833
  358MOL0     H47197   8.185   3.244   2.995  0.0789  0.4518  0.1240
  358MOL0     H47198   8.231   3.408   2.953  1.6015 -2.2506 -0.7728
  358MOL0     H47199   7.966   3.337   3.065  1.2728  1.1698  1.0992
  358MOL0     H47200   8.026   3.488   3.008  0.4692 -0.6664  1.8013
  358MOL0     H47201   7.964   3.232   2.847 -1.3185  0.1336 -1.5198
  358MOL0     H47202   8.075   3.368   2.784  1.2848  0.5703  2.2804
  358MOL0     H47203   7.872   3.382   2.672  2.3900  0.4298  0.0623
  358MOL0     H47204   7.894   3.523   2.767  1.2249 -0.0016 -1.5752
  358MOL0     H47205   7.744   3.439   2.943 -3.3839  3.7022 -0.4908
  358MOL0     H47206   7.668   3.473   2.786 -0.4876 -0.2973  1.1852
  358MOL0     H47207   7.576   3.253   2.891  0.9573 -1.6778  1.3649
  358MOL0     H47208   7.744   3.192   2.895  1.5529  1.6804 -2.3485
  358MOL0     H47209   7.474   3.300   2.644  0.4723  0.0309  0.6737
  358MOL0     H47210   7.375   3.031   2.503  0.4714  0.9640  2.1537
  358MOL0     H47211   7.503   3.007   2.368  2.1918  0.4598  0.8236
  358MOL0     H47212   7.361   3.268   2.421 -0.9190  0.2893 -0.7643
  358MOL0     H47213   7.308   3.147   2.305  1.3059 -0.5361 -2.3132
  358MOL0     H47214   7.587   3.292   2.313 -0.2959  0.5282  0.2642
  358MOL0     H47215   7.541   3.154   2.207  2.4006  1.1628 -1.6005
  358MOL0     H47216   7.380   3.290   2.087  0.5732 -1.0183  0.5171
  358MOL0     H47217   7.536   3.347   2.078 -2.0585 -1.4510 -1.5776
  358MOL0     H47218   7.199   3.325   2.134  3.5112  0.8787 -0.6558
  358MOL0     H47219   6.967   3.414   2.165 -1.2337  0.3876  2.3016
  358MOL0     H47220   6.587   3.493   2.315  2.4593  2.0554  1.3545
  358MOL0     H47221   6.344   3.551   2.299  2.3972 -1.8574  1.1475
  358MOL0     H47222   6.219   3.865   2.031  1.6867 -2.1625  0.5323
  358MOL0     H47223   6.245   3.986   2.160 -0.9075  0.7001 -0.8169
  358MOL0     H47224   6.042   3.999   2.210  0.7092  0.3744 -2.0254
  358MOL0     H47225   6.031   3.819   2.245 -0.3775 -0.8174 -0.2960
  358MOL0     H47226   5.979   3.785   2.016  0.8427 -0.5026  2.0224
  358MOL0     H47227   5.946   3.963   1.990  1.0920  0.5057 -0.4367
  358MOL0     H47228   5.826   3.767   2.168 -0.2198 -0.2946 -0.9107
  358MOL0     H47229   5.798   3.936   2.206  1.1411 -0.1814  0.6026
  358MOL0     H47230   5.609   3.808   2.089 -0.9671  0.3727  0.4582
  358MOL0     H47231   5.706   3.795   1.939  1.3159  1.6399 -0.5264
  358MOL0     H47232   5.736   4.058   1.947 -0.0306  0.7064  1.3672
  358MOL0     H47233   5.605   4.049   2.070 -1.8993 -0.7556 -0.5813
  358MOL0     H47234   5.563   4.086   1.825  1.3147 -0.1372  0.7217
  358MOL0     H47235   5.558   3.907   1.819  2.6879  0.1907  1.4186
  358MOL0     H47236   5.335   4.002   1.865 -0.4192 -1.3631  0.7449
  358MOL0     H47237   5.382   4.050   2.031 -0.9233  0.0129 -0.7018
  358MOL0     H47238   6.461   3.909   2.090 -0.5128 -0.3428  0.7069
  358MOL0     H47239   6.694   3.820   2.078 -0.5197 -1.5683 -0.4657
  358MOL0     H47240   7.123   3.755   2.360  1.2538 -0.7653  1.6302
  358MOL0     H47241   7.355   3.671   2.323 -0.7232  1.8402  0.3185
  358MOL0     H47242   8.515   3.243   3.455  2.4677  0.2511  1.1027
  358MOL0     H47243   8.751   3.179   3.461  0.8579 -3.4866  0.0536
  358MOL0     H47244   9.126   3.132   3.165  1.3356  0.0808  1.0782
  358MOL0     H47245   9.358   3.092   3.121 -1.1786  1.6542  0.8506
  358MOL0     H47246   9.567   3.025   3.123 -2.6100  1.3137 -0.3962
  358MOL0     H47247   9.520   2.905   3.003  0.2383  1.7761 -0.3805
  358MOL0     H47248   9.690   2.745   3.096 -0.0874  0.2993  1.5391
  358MOL0     H47249   9.777   2.872   3.034 -0.1453 -3.5941  0.0184
  358MOL0     H47250   9.702   2.836   3.334 -0.1062 -1.0029  0.6965
  358MOL0     H47251   9.778   2.982   3.263 -0.8445  0.3228 -0.6469
  358MOL0     H47252   9.973   2.864   3.187 -2.0100 -1.0466 -2.6104
  358MOL0     H47253   9.950   2.818   3.359  5.4438 -1.5252 -1.3576
  358MOL0     H47254   9.882   2.447   3.174 -1.0813  0.1732  0.9280
  358MOL0     H47255   9.308   2.705   3.307  0.1369 -0.3221 -0.7359
  358MOL0     H47256   9.055   2.737   3.318 -2.3774  0.1792 -2.9328
  359MOL0     O47257   9.172   5.924   7.656 -0.2503  0.5318 -0.4155
  359MOL0     C47258   9.105   6.018   7.705  0.2791 -0.7008 -0.2212
  359MOL0     O47259   8.995   6.075   7.650  0.6605  0.0208 -0.3742
  359MOL0     C47260   8.944   6.014   7.535 -0.2924  0.1154  0.2884
  359MOL0     C47261   8.920   5.876   7.511  0.0105 -0.4331 -0.0890
  359MOL0     C47262   8.866   5.833   7.390 -0.4339  1.0366  0.5849
  359MOL0     C47263   8.812   5.925   7.293  0.1487 -0.0951 -0.0866
  359MOL0     O47264   8.748   5.905   7.171 -0.0778 -0.4162 -0.2857
  359MOL0     C47265   8.723   5.769   7.132 -0.2497 -0.4131  0.1476
  359MOL0     C47266   8.684   5.772   6.976  1.2150  0.6604 -0.1454
  359MOL0     C47267   8.533   5.815   6.956 -1.1393  0.4976 -0.0005
  359MOL0     C47268   8.501   5.834   6.807  0.8501 -0.3349 -0.1827
  359MOL0     C47269   8.349   5.867   6.791 -0.1204 -0.1514  0.2917
  359MOL0     C47270   8.302   5.898   6.650  0.0027 -0.1722 -0.3960
  359MOL0     C47271   8.169   5.981   6.654 -0.5040 -0.6038 -0.1737
  359MOL0     C47272   8.118   6.035   6.525  0.1273  0.2158  0.0097
  359MOL0     N47273   8.211   6.120   6.441  0.3406 -0.1916 -0.5751
  359MOL0     C47274   8.321   6.200   6.481 -1.0020  0.6680  0.4169
  359MOL0     C47275   8.363   6.251   6.365  0.1663 -0.2547  1.3806
  359MOL0     C47276   8.481   6.343   6.337 -1.0332  0.6108 -0.1015
  359MOL0     C47277   8.591   6.250   6.287  0.4501  0.5309 -0.2910
  359MOL0     C47278   8.707   6.337   6.233 -0.6510 -0.4595 -0.4211
  359MOL0     C47279   8.834   6.258   6.207  0.3917  0.2145  0.0372
  359MOL0     O47280   8.915   6.258   6.330 -0.0279 -0.2319 -0.0187
  359MOL0     C47281   9.035   6.190   6.330  0.0453  0.7539  0.3787
  359MOL0     C47282   9.132   6.215   6.427 -0.2876 -0.1777 -0.5815
  359MOL0     C47283   9.245   6.138   6.442 -0.0686 -0.2693 -0.3408
  359MOL0     C47284   9.274   6.023   6.359  0.7115  0.7882  0.3616
  359MOL0     C47285   9.390   5.925   6.362  0.2943 -0.1815 -0.1006
  359MOL0     O47286   9.484   5.966   6.451  0.3660 -0.1332  0.0808
  359MOL0     C47287   9.607   5.904   6.462  0.5062  0.0799 -0.2194
  359MOL0     C47288   9.640   5.775   6.418  0.1339 -1.0098  0.4328
  359MOL0     C47289   9.774   5.734   6.418  0.0896  0.1506 -0.1415
  359MOL0     C47290   9.881   5.811   6.455  0.4759  1.0129  0.5297
  359MOL0     O47291  10.004   5.751   6.437  0.4948  0.7942 -0.2896
  359MOL0     C47292  10.125   5.823   6.459 -0.3350 -0.2799 -0.1076
  359MOL0     C47293  10.240   5.741   6.397  0.2673 -0.9180  0.2855
  359MOL0     C47294  10.281   5.607   6.463  0.0486 -0.5579 -0.2752
  359MOL0     C47295  10.434   5.573   6.451  0.4909  0.1974 -0.0551
  359MOL0     C47296  10.462   5.449   6.533 -0.4446 -0.4123 -0.1313
  359MOL0     C47297  10.608   5.405   6.517  0.2768  0.0085 -0.6320
  359MOL0     C47298  10.647   5.302   6.622 -0.2450  0.1161 -1.2940
  359MOL0     C47299  10.581   5.174   6.614 -0.7178  0.5279  0.7155
  359MOL0    Cl47300  10.617   5.055   6.745  0.3230 -0.0284 -0.1481
  359MOL0     C47301   9.846   5.945   6.495 -1.0798  0.4647  0.4037
  359MOL0     C47302   9.710   5.987   6.502 -0.3915  0.3155 -0.6500
  359MOL0     O47303   9.393   5.825   6.297 -0.5368 -0.1681  0.0947
  359MOL0     C47304   9.179   6.004   6.255 -0.0801  0.1523 -0.0441
  359MOL0     C47305   9.060   6.076   6.245 -1.0256  0.3987 -0.0292
  359MOL0     N47306   8.286   6.200   6.259 -0.7932 -0.8890  1.0965
  359MOL0     N47307   8.194   6.134   6.304  0.7034 -0.6049 -0.0498
  359MOL0     C47308   8.835   6.061   7.318  0.2266 -0.8229  0.4687
  359MOL0     C47309   8.901   6.101   7.434 -0.8404 -0.0605 -0.3663
  359MOL0     C47310   9.153   6.080   7.833 -0.2287 -0.5646 -0.5613
  359MOL0     C47311   9.110   6.205   7.878 -0.3669  0.0834 -0.1176
  359MOL0     C47312   9.151   6.249   8.004  0.2321 -0.8368  0.8954
  359MOL0     C47313   9.239   6.170   8.085  1.3081  0.1747  0.7372
  359MOL0     O47314   9.254   6.217   8.209 -1.2664 -0.1852  0.4660
  359MOL0     C47315   9.376   6.184   8.281 -1.1359  0.3756  0.1786
  359MOL0     C47316   9.501   6.239   8.219  0.0282 -0.1126 -0.0944
  359MOL0     C47317   9.618   6.260   8.318 -0.2969  0.2783  0.5767
  359MOL0     C47318   9.578   6.346   8.435  0.0793 -0.1583 -0.6785
  359MOL0     C47319   9.701   6.396   8.504 -0.0781 -0.2510 -0.5622
  359MOL0     C47320   9.798   6.436   8.555 -0.4104  0.6479  0.2823
  359MOL0     C47321   9.285   6.050   8.034  0.7270 -0.4443  0.2138
  359MOL0     C47322   9.244   6.008   7.911  0.1179  0.1025  0.4582
  359MOL0     H47323   8.947   5.808   7.591  0.3054  3.0022  2.9809
  359MOL0     H47324   8.849   5.727   7.372  2.8432  0.3730  0.8172
  359MOL0     H47325   8.640   5.736   7.195 -0.1670  0.4016  0.6919
  359MOL0     H47326   8.804   5.696   7.142 -0.1010 -0.3518 -0.5506
  359MOL0     H47327   8.692   5.673   6.930 -0.9351  0.4985 -0.2787
  359MOL0     H47328   8.757   5.833   6.920  2.2771 -0.0726  0.4045
  359MOL0     H47329   8.520   5.905   7.016 -1.2651  0.6116 -0.1959
  359MOL0     H47330   8.468   5.738   6.998  0.0817  0.4845  1.9981
  359MOL0     H47331   8.560   5.916   6.766  0.7450 -0.9476 -1.5925
  359MOL0     H47332   8.533   5.753   6.742  1.4258  0.0384 -0.3666
  359MOL0     H47333   8.327   5.952   6.857 -0.7074 -0.7254  0.8584
  359MOL0     H47334   8.291   5.781   6.828  0.5119 -0.1340  1.3557
  359MOL0     H47335   8.295   5.809   6.587 -0.6446  0.1963 -0.8551
  359MOL0     H47336   8.381   5.959   6.606 -1.1242  0.9361 -0.9431
  359MOL0     H47337   8.083   5.940   6.709 -0.5259  1.8577  1.7835
  359MOL0     H47338   8.193   6.068   6.715 -1.0458 -1.0194  0.6499
  359MOL0     H47339   8.029   6.096   6.544  0.0307 -0.1623  0.8377
  359MOL0     H47340   8.095   5.945   6.469 -1.5306 -1.0288  2.5131
  359MOL0     H47341   8.349   6.216   6.585 -1.0672 -2.8188  1.0904
  359MOL0     H47342   8.517   6.401   6.423  1.4443  1.3068 -1.5266
  359MOL0     H47343   8.452   6.406   6.253 -4.0101  0.1001  0.4285
  359MOL0     H47344   8.554   6.186   6.206  3.9335  1.0498 -2.5205
  359MOL0     H47345   8.615   6.187   6.373 -3.2457 -1.8769 -0.7728
  359MOL0     H47346   8.666   6.377   6.140 -0.7256 -1.3128 -0.7612
  359MOL0     H47347   8.726   6.423   6.299 -1.4549 -0.0925 -0.6642
  359MOL0     H47348   8.878   6.305   6.119 -0.6719 -2.9634 -2.3556
  359MOL0     H47349   8.806   6.154   6.189 -1.9432  1.2200 -3.0988
  359MOL0     H47350   9.116   6.294   6.500 -0.0062 -1.0822  0.4980
  359MOL0     H47351   9.310   6.171   6.522 -2.0069  2.2276  0.3217
  359MOL0     H47352   9.566   5.703   6.385 -2.4159 -0.3942  4.0176
  359MOL0     H47353   9.801   5.639   6.373 -3.0259 -0.5697 -0.7823
  359MOL0     H47354  10.137   5.854   6.563  0.6775  0.4120 -0.4239
  359MOL0     H47355  10.114   5.920   6.410  2.9265  1.2388  1.8199
  359MOL0     H47356  10.327   5.807   6.403  0.9833 -1.8543  0.4623
  359MOL0     H47357  10.227   5.729   6.289  1.8675 -3.7424  0.3139
  359MOL0     H47358  10.222   5.535   6.405 -1.2323  1.7071 -1.9397
  359MOL0     H47359  10.240   5.603   6.564 -1.9012  2.6525 -0.8034
  359MOL0     H47360  10.454   5.546   6.347 -2.3615 -3.8521  0.2306
  359MOL0     H47361  10.487   5.660   6.493 -2.6108  2.5397 -0.5875
  359MOL0     H47362  10.393   5.368   6.507 -2.0665  1.3901 -1.7301
  359MOL0     H47363  10.450   5.475   6.639 -0.4714  0.2293 -0.2855
  359MOL0     H47364  10.683   5.483   6.529 -0.0234 -0.0358  2.4590
  359MOL0     H47365  10.620   5.371   6.414  0.0860 -0.4990 -0.4916
  359MOL0     H47366  10.753   5.278   6.607  0.0532  0.4180  0.1419
  359MOL0     H47367  10.646   5.344   6.723 -0.9713 -1.4086 -0.6363
  359MOL0     H47368  10.624   5.130   6.524 -1.3142 -0.3692  0.8557
  359MOL0     H47369  10.472   5.177   6.606 -0.9997 -0.3405  3.3890
  359MOL0     H47370   9.919   6.023   6.513 -0.0666  0.8678 -4.2295
  359MOL0     H47371   9.692   6.090   6.531  0.9287  0.5672 -0.6503
  359MOL0     H47372   9.194   5.929   6.178  2.2913 -0.0065  0.4972
  359MOL0     H47373   8.997   6.032   6.168 -2.0110 -1.2968  1.6685
  359MOL0     H47374   8.802   6.140   7.252  0.5411  0.0434  1.3219
  359MOL0     H47375   8.923   6.204   7.460  0.7658 -0.4276 -0.1953
  359MOL0     H47376   9.045   6.265   7.815  0.4364  0.6392 -0.4358
  359MOL0     H47377   9.108   6.337   8.052 -0.4316 -1.1331  0.8615
  359MOL0     H47378   9.381   6.077   8.303 -0.5441  0.1861 -0.7979
  359MOL0     H47379   9.365   6.237   8.376  1.5003  3.0709 -0.8559
  359MOL0     H47380   9.533   6.178   8.134  0.5791 -0.6436  0.4850
  359MOL0     H47381   9.475   6.343   8.199 -5.0117 -0.5691  2.3282
  359MOL0     H47382   9.689   6.319   8.260 -1.6480 -0.1343 -1.5996
  359MOL0     H47383   9.669   6.168   8.347 -0.0062  0.3507  0.3002
  359MOL0     H47384   9.509   6.425   8.404  0.1061 -1.0524 -3.2463
  359MOL0     H47385   9.533   6.282   8.512  3.2348 -0.2434  1.2992
  359MOL0     H47386   9.887   6.474   8.601 -1.4740  1.3107  1.8537
  359MOL0     H47387   9.346   5.991   8.103  3.6924  1.3075 -0.7203
  359MOL0     H47388   9.276   5.913   7.870  2.4991  2.4319 -3.7789
  360MOL0     O47389   7.752   5.244   4.427 -0.2046 -0.2285  0.3480
  360MOL0     C47390   7.713   5.149   4.493  0.2163  0.5855  0.4743
  360MOL0     O47391   7.580   5.092   4.492 -0.5807  0.1587 -0.4635
  360MOL0     C47392   7.487   5.141   4.407  0.5479 -0.6747  0.4428
  360MOL0     C47393   7.513   5.192   4.281 -0.3725  0.4007 -0.6620
  360MOL0     C47394   7.410   5.237   4.198  0.3631  0.7344  0.2058
  360MOL0     C47395   7.279   5.228   4.231 -0.1198 -0.4278 -0.2199
  360MOL0     O47396   7.175   5.253   4.150  0.1741 -0.0285  0.0106
  360MOL0     C47397   7.190   5.334   4.034  0.2028 -0.2274  1.1722
  360MOL0     C47398   7.059   5.377   3.973 -0.8126  0.0077 -0.4840
  360MOL0     C47399   6.979   5.478   4.049 -0.2396 -0.4406 -0.4902
  360MOL0     C47400   7.001   5.621   3.999 -0.4631 -0.2315  0.1874
  360MOL0     C47401   6.909   5.718   4.065  0.3627 -0.0985 -0.1318
  360MOL0     C47402   6.962   5.863   4.048 -0.6042  1.0282  0.5912
  360MOL0     C47403   6.850   5.948   4.105 -0.9982  0.3946  0.2818
  360MOL0     C47404   6.906   6.070   4.187  0.0730 -0.6997  0.2411
  360MOL0     N47405   6.982   6.159   4.104 -0.1504  0.3607  0.3074
  360MOL0     C47406   7.107   6.134   4.049 -0.4237 -0.3278  0.3770
  360MOL0     C47407   7.112   6.213   3.937  0.0188 -0.0885 -0.4146
  360MOL0     C47408   7.230   6.214   3.836 -0.1803 -0.4505  0.2902
  360MOL0     C47409   7.300   6.353   3.816  0.0758 -1.0265  0.2359
  360MOL0     C47410   7.386   6.377   3.685 -0.3657 -0.4019  0.5882
  360MOL0     C47411   7.486   6.500   3.711 -0.4223  0.2465  0.1416
  360MOL0     O47412   7.435   6.629   3.656  0.0672 -0.5812 -0.4977
  360MOL0     C47413   7.522   6.724   3.603  1.0055  0.3998  0.5586
  360MOL0     C47414   7.657   6.717   3.576 -0.3529  0.9124  0.3973
  360MOL0     C47415   7.728   6.822   3.512  1.1830  0.3119 -0.3415
  360MOL0     C47416   7.672   6.944   3.476 -0.2372 -0.6115  1.3922
  360MOL0     C47417   7.750   7.045   3.393 -0.2289  0.2315 -0.4296
  360MOL0     O47418   7.877   7.005   3.349  0.4080  0.8625  0.2124
  360MOL0     C47419   7.953   7.101   3.293  0.3547  0.2893  0.4000
  360MOL0     C47420   8.005   7.088   3.165 -0.1190  0.2303 -0.5524
  360MOL0     C47421   8.101   7.183   3.127 -0.2144 -0.8823  0.6340
  360MOL0     C47422   8.132   7.304   3.193  0.4786 -0.5142  0.3700
  360MOL0     O47423   8.206   7.401   3.124 -0.0331  0.4112 -0.7597
  360MOL0     C47424   8.256   7.511   3.201  0.3786 -0.3981  0.6532
  360MOL0     C47425   8.322   7.609   3.112 -0.7432  0.0027  0.1662
  360MOL0     C47426   8.366   7.739   3.182 -0.8078 -0.0309 -0.0455
  360MOL0     C47427   8.420   7.855   3.094  0.1603  0.8667  0.2696
  360MOL0     C47428   8.447   7.984   3.180 -0.1455  0.4406  0.1943
  360MOL0     C47429   8.543   8.081   3.122 -0.3881 -0.0463 -0.6215
  360MOL0     C47430   8.685   8.037   3.118  0.2224  0.2005 -0.3475
  360MOL0     C47431   8.760   8.056   2.988 -0.7795 -0.4639  0.0166
  360MOL0    Cl47432   8.783   8.229   2.929 -0.0608  0.3131 -0.2695
  360MOL0     C47433   8.075   7.317   3.315 -0.1813  0.3541 -0.6368
  360MOL0     C47434   7.992   7.211   3.370 -0.7170  0.0672 -0.0763
  360MOL0     O47435   7.691   7.150   3.362  0.8875  0.8836 -0.0533
  360MOL0     C47436   7.539   6.963   3.515  0.3776  0.8978  0.2123
  360MOL0     C47437   7.468   6.850   3.572  0.7616 -0.0071 -0.6950
  360MOL0     N47438   7.003   6.292   3.932 -0.0703 -0.3250  0.4610
  360MOL0     N47439   6.930   6.264   4.032  0.7194  0.1942 -0.2830
  360MOL0     C47440   7.254   5.181   4.361  0.0411  0.0054 -0.1697
  360MOL0     C47441   7.355   5.144   4.448 -0.4258  0.9619  0.1502
  360MOL0     C47442   7.812   5.093   4.599  0.5796  0.3581 -0.2115
  360MOL0     C47443   7.946   5.133   4.594  0.7108  0.9746 -0.2918
  360MOL0     C47444   8.039   5.079   4.676  0.8811  0.1119  0.1090
  360MOL0     C47445   8.003   4.986   4.770  0.5161  0.4608  0.0431
  360MOL0     O47446   8.083   4.945   4.876 -0.2265  0.1835  0.1892
  360MOL0     C47447   8.219   4.974   4.869  0.3749 -0.3847 -0.2558
  360MOL0     C47448   8.299   4.889   4.977 -0.3134 -0.5766  0.9489
  360MOL0     C47449   8.445   4.865   4.945  0.8037 -0.3678  0.8624
  360MOL0     C47450   8.519   4.983   4.908  0.0026 -0.4742  0.4106
  360MOL0     C47451   8.668   4.966   4.901 -0.1538 -0.9405 -0.0833
  360MOL0     C47452   8.786   4.946   4.892 -0.1910 -0.1184  0.7141
  360MOL0     C47453   7.866   4.950   4.785 -0.5026  0.0524  0.2289
  360MOL0     C47454   7.773   5.004   4.701  0.4321  0.6041  0.1269
  360MOL0     H47455   7.613   5.178   4.243 -0.3416  0.4865 -0.6117
  360MOL0     H47456   7.433   5.267   4.097  2.6643  0.4121  0.5742
  360MOL0     H47457   7.244   5.266   3.966 -0.3610 -0.1794  0.6715
  360MOL0     H47458   7.252   5.423   4.050 -0.5859  0.1987  1.9155
  360MOL0     H47459   6.990   5.293   3.967 -0.9416  0.1004 -0.3023
  360MOL0     H47460   7.072   5.420   3.873 -0.4969  1.9714  0.3568
  360MOL0     H47461   6.993   5.471   4.157  2.0737  0.4332 -0.6911
  360MOL0     H47462   6.876   5.445   4.029 -0.6049  0.7878 -0.6902
  360MOL0     H47463   7.100   5.646   4.038  1.5278 -2.5601 -2.9318
  360MOL0     H47464   6.995   5.623   3.890 -0.7885 -1.4281  0.1664
  360MOL0     H47465   6.891   5.694   4.170 -1.4335 -0.2588 -0.4442
  360MOL0     H47466   6.815   5.710   4.010  0.6715 -0.2084 -0.6490
  360MOL0     H47467   6.980   5.889   3.943 -1.9338 -2.1413 -0.5696
  360MOL0     H47468   7.054   5.884   4.103 -0.1475 -2.9522  1.6590
  360MOL0     H47469   6.786   5.979   4.022 -0.3009  3.2515  0.7057
  360MOL0     H47470   6.787   5.891   4.174 -0.3690  0.2628  0.7608
  360MOL0     H47471   6.969   6.032   4.269 -0.1523  0.4477  0.9720
  360MOL0     H47472   6.828   6.133   4.231  2.8468  1.4881  2.3928
  360MOL0     H47473   7.180   6.061   4.080 -1.4816 -1.2198  0.8372
  360MOL0     H47474   7.192   6.180   3.739 -1.1883 -2.8944  1.4825
  360MOL0     H47475   7.301   6.137   3.865  0.0235 -0.6193 -0.6054
  360MOL0     H47476   7.364   6.371   3.903  1.3487  1.1624 -1.0571
  360MOL0     H47477   7.225   6.432   3.806  1.0989 -0.1179 -0.4176
  360MOL0     H47478   7.436   6.286   3.649 -0.5047 -0.2560  0.0153
  360MOL0     H47479   7.319   6.408   3.604 -1.4208  0.6736  1.8309
  360MOL0     H47480   7.581   6.482   3.660  0.0850 -0.9566  1.4564
  360MOL0     H47481   7.514   6.502   3.817 -2.9758  0.6802  0.8696
  360MOL0     H47482   7.721   6.631   3.597  1.5066  2.0766 -0.2169
  360MOL0     H47483   7.829   6.800   3.481  1.1398  0.4912 -0.6215
  360MOL0     H47484   7.972   7.011   3.096 -0.3208  0.4643 -0.7188
  360MOL0     H47485   8.154   7.168   3.033  3.8546  0.9740  2.3859
  360MOL0     H47486   8.322   7.471   3.278 -2.4018 -3.8191  1.4851
  360MOL0     H47487   8.176   7.565   3.253 -0.0560 -0.5034  0.1146
  360MOL0     H47488   8.255   7.632   3.029 -1.5341 -0.4510  0.6747
  360MOL0     H47489   8.409   7.566   3.060 -1.3761  0.6866 -1.5268
  360MOL0     H47490   8.450   7.707   3.243 -0.6023 -1.7959 -1.1873
  360MOL0     H47491   8.282   7.768   3.246 -0.1598  0.6573  0.5025
  360MOL0     H47492   8.504   7.821   3.032 -1.1567 -2.0355 -0.1183
  360MOL0     H47493   8.342   7.882   3.021 -0.0069 -0.8922 -0.2674
  360MOL0     H47494   8.489   7.955   3.277  0.8679 -0.4310 -0.4802
  360MOL0     H47495   8.350   8.033   3.190 -0.0372  1.5167 -2.9988
  360MOL0     H47496   8.537   8.174   3.179 -1.2197 -0.7934  0.5658
  360MOL0     H47497   8.501   8.108   3.025  1.3722  0.7977 -1.1828
  360MOL0     H47498   8.741   8.076   3.204  0.7439 -0.6110 -0.3093
  360MOL0     H47499   8.688   7.928   3.121 -2.0770  0.0992 -0.5194
  360MOL0     H47500   8.709   8.005   2.907  1.7988 -0.1969 -1.8922
  360MOL0     H47501   8.859   8.011   2.981  0.4366  1.9962  0.0510
  360MOL0     H47502   8.084   7.409   3.372 -2.3032 -0.1644  0.6427
  360MOL0     H47503   7.944   7.226   3.466 -2.0949  2.2831 -1.0153
  360MOL0     H47504   7.483   7.051   3.485 -0.1832 -0.1287 -1.9939
  360MOL0     H47505   7.365   6.871   3.599 -0.1571 -2.3775 -2.0150
  360MOL0     H47506   7.153   5.183   4.399  0.3420 -0.9348  0.7262
  360MOL0     H47507   7.318   5.107   4.543  1.5340 -2.0696 -0.1224
  360MOL0     H47508   7.981   5.202   4.518  1.4112  0.7933 -0.1403
  360MOL0     H47509   8.143   5.111   4.684  0.7548  0.1135  2.9159
  360MOL0     H47510   8.244   5.080   4.875  0.7091 -0.3498 -1.8980
  360MOL0     H47511   8.255   4.953   4.768 -0.5085  1.9942 -1.1323
  360MOL0     H47512   8.292   4.935   5.076 -2.2216  2.2212 -0.3710
  360MOL0     H47513   8.256   4.789   4.981 -0.0916 -0.8963 -2.1231
  360MOL0     H47514   8.452   4.795   4.861  0.0284  0.9080 -0.3046
  360MOL0     H47515   8.485   4.820   5.037  0.8444 -3.4960 -0.5467
  360MOL0     H47516   8.493   4.998   4.803 -0.3440 -2.4167  0.1806
  360MOL0     H47517   8.497   5.070   4.970  2.2215 -0.1977  0.8991
  360MOL0     H47518   8.890   4.921   4.895 -0.6404 -2.0673  0.9445
  360MOL0     H47519   7.836   4.869   4.851  2.6813 -2.8280 -1.4707
  360MOL0     H47520   7.666   4.986   4.696  0.3893  0.5452  1.0767
  361MOL0     O47521   6.426   8.092   2.700  0.1402 -0.2099  0.4984
  361MOL0     C47522   6.476   8.183   2.633 -0.3913 -0.0017 -0.4262
  361MOL0     O47523   6.408   8.266   2.551 -0.4451 -0.1798  0.4972
  361MOL0     C47524   6.280   8.294   2.578  0.5676  0.3000 -0.0375
  361MOL0     C47525   6.259   8.417   2.629  0.2214  0.1461  0.0473
  361MOL0     C47526   6.127   8.444   2.670 -0.6013 -0.6508  0.5820
  361MOL0     C47527   6.027   8.352   2.655 -0.1342  0.6129 -0.0728
  361MOL0     O47528   5.916   8.380   2.726  0.5970 -0.0420 -0.4768
  361MOL0     C47529   5.795   8.372   2.655  0.3319  0.4305  0.1843
  361MOL0     C47530   5.682   8.313   2.747  0.0866 -0.6787  0.0503
  361MOL0     C47531   5.554   8.316   2.667 -0.0794 -0.5899 -0.2228
  361MOL0     C47532   5.439   8.253   2.742 -0.2289 -0.0780 -0.3596
  361MOL0     C47533   5.301   8.299   2.681  0.4574 -1.0120 -0.4365
  361MOL0     C47534   5.268   8.446   2.714 -0.2568  0.3556  0.0958
  361MOL0     C47535   5.120   8.482   2.687 -0.3802 -0.3879  0.2639
  361MOL0     C47536   5.029   8.435   2.790  0.3421  0.1610  0.6486
  361MOL0     N47537   4.892   8.486   2.771 -0.1741 -0.5636 -0.2226
  361MOL0     C47538   4.769   8.425   2.756 -0.0824 -0.5179  0.7937
  361MOL0     C47539   4.674   8.508   2.719  0.2586 -0.3256  0.3214
  361MOL0     C47540   4.522   8.488   2.683 -0.7891 -0.1131 -0.3256
  361MOL0     C47541   4.447   8.586   2.764 -0.6849  0.1709  0.0704
  361MOL0     C47542   4.297   8.569   2.751 -0.3725  0.9613 -0.3240
  361MOL0     C47543   4.234   8.623   2.626 -0.4797  0.2412  0.6308
  361MOL0     O47544   4.087   8.602   2.619  0.3913  1.1824 -0.6023
  361MOL0     C47545   4.030   8.479   2.594 -0.5935 -1.3242  0.2588
  361MOL0     C47546   4.101   8.381   2.535  0.0576  0.5608 -0.1754
  361MOL0     C47547   4.040   8.266   2.491 -0.2195  0.4533  0.6671
  361MOL0     C47548   3.900   8.245   2.511  0.5185  0.1321  0.0560
  361MOL0     C47549   3.814   8.128   2.465 -0.0676  0.3208 -0.6543
  361MOL0     O47550   3.686   8.111   2.514  0.1653 -0.5296 -0.1443
  361MOL0     C47551   3.618   7.996   2.479  0.1626 -0.2896 -0.1270
  361MOL0     C47552   3.683   7.871   2.462 -0.3019  1.1877  0.0172
  361MOL0     C47553   3.602   7.769   2.422  0.9180 -0.6839 -0.2804
  361MOL0     C47554   3.457   7.780   2.404 -0.9937 -0.2935  0.2756
  361MOL0     O47555   3.384   7.674   2.365 -0.0867  0.3482  0.2506
  361MOL0     C47556   3.245   7.675   2.391 -0.1847 -0.7232 -0.6203
  361MOL0     C47557   3.193   7.534   2.407  0.7768 -0.0565 -0.5009
  361MOL0     C47558   3.198   7.454   2.268  0.0167 -0.5912  0.1453
  361MOL0     C47559   3.084   7.354   2.278  0.7537  0.2550  0.3895
  361MOL0     C47560   3.042   7.310   2.139  0.1018 -0.2607 -0.0102
  361MOL0     C47561   2.981   7.171   2.121  1.1580  0.1565 -0.1855
  361MOL0     C47562   3.073   7.056   2.165 -0.6455 -0.7492 -0.1344
  361MOL0     C47563   3.225   7.062   2.103 -0.7674 -0.2197  0.0818
  361MOL0    Cl47564   3.230   7.034   1.927 -0.0963  0.0192 -0.2573
  361MOL0     C47565   3.402   7.901   2.424 -0.0228 -0.4061  0.5699
  361MOL0     C47566   3.481   8.012   2.461  1.1624 -0.4606 -0.0815
  361MOL0     O47567   3.865   8.056   2.377 -0.0834 -0.1816 -0.8743
  361MOL0     C47568   3.830   8.350   2.573  0.1052  0.0387  0.3484
  361MOL0     C47569   3.894   8.471   2.607  0.2950  0.1967 -0.0126
  361MOL0     N47570   4.738   8.634   2.719 -0.3929 -0.3511 -0.0312
  361MOL0     N47571   4.862   8.624   2.753  0.0648 -0.2794 -0.5165
  361MOL0     C47572   6.049   8.229   2.587 -0.2216  0.2509  0.1661
  361MOL0     C47573   6.176   8.202   2.550 -0.5559 -0.3679 -0.0631
  361MOL0     C47574   6.626   8.175   2.629 -0.0474  0.2989 -0.7005
  361MOL0     C47575   6.694   8.289   2.580  0.7174  0.0353  0.1615
  361MOL0     C47576   6.834   8.294   2.571 -0.0444  0.8932  0.5999
  361MOL0     C47577   6.915   8.184   2.610  0.3380 -0.1452 -0.9643
  361MOL0     O47578   7.051   8.193   2.609 -0.4064  0.5567 -0.1326
  361MOL0     C47579   7.119   8.073   2.557  0.2061  0.1108 -0.1075
  361MOL0     C47580   7.155   8.099   2.404  0.5925  0.9021 -0.1685
  361MOL0     C47581   7.211   7.979   2.330 -0.9012  0.0989 -0.0662
  361MOL0     C47582   7.356   7.945   2.354 -0.3779  0.5321  0.5070
  361MOL0     C47583   7.444   8.026   2.270  0.2382  0.1828  0.1059
  361MOL0     C47584   7.512   8.101   2.199 -0.4951 -0.6056  0.0523
  361MOL0     C47585   6.848   8.072   2.665  0.7305 -1.5232  0.4570
  361MOL0     C47586   6.707   8.071   2.677  0.4450 -0.2372 -0.4411
  361MOL0     H47587   6.340   8.489   2.645 -0.9771  1.5961 -0.1521
  361MOL0     H47588   6.093   8.535   2.719 -0.3279  0.9565 -2.0236
  361MOL0     H47589   5.801   8.312   2.563 -3.2049  0.6570 -0.3293
  361MOL0     H47590   5.766   8.473   2.625 -0.5205 -0.3038 -1.6129
  361MOL0     H47591   5.680   8.383   2.832  5.0718  0.9881 -0.8684
  361MOL0     H47592   5.707   8.213   2.782  2.0604  0.3199  1.8059
  361MOL0     H47593   5.564   8.271   2.567 -1.9704 -1.4863 -0.0397
  361MOL0     H47594   5.532   8.421   2.647  1.0210 -0.2667  0.2212
  361MOL0     H47595   5.449   8.144   2.737 -1.6849 -0.1872 -2.6528
  361MOL0     H47596   5.426   8.281   2.847  2.1911 -0.9543  0.2530
  361MOL0     H47597   5.225   8.225   2.709 -0.3452 -0.6120 -1.5093
  361MOL0     H47598   5.314   8.301   2.572 -0.7650  1.5896 -0.6271
  361MOL0     H47599   5.330   8.508   2.649 -0.1450 -1.2488 -1.4011
  361MOL0     H47600   5.284   8.461   2.821  0.3071  1.2573 -0.1049
  361MOL0     H47601   5.123   8.591   2.677  1.5353 -0.5182 -1.2175
  361MOL0     H47602   5.084   8.443   2.591 -1.5136 -1.0362  0.9292
  361MOL0     H47603   5.067   8.464   2.888 -2.1252 -3.4996  2.9250
  361MOL0     H47604   5.026   8.325   2.793 -0.1325  0.1808  0.8894
  361MOL0     H47605   4.761   8.316   2.755  0.6183 -0.6479 -2.4784
  361MOL0     H47606   4.484   8.387   2.700  0.5653 -0.3490  1.5429
  361MOL0     H47607   4.509   8.512   2.577 -1.3063  0.6313 -0.0989
  361MOL0     H47608   4.487   8.686   2.748  0.3499 -0.5206 -2.0147
  361MOL0     H47609   4.457   8.569   2.872 -1.4161 -0.2765  0.0737
  361MOL0     H47610   4.271   8.462   2.752  0.0331  0.8307 -1.8990
  361MOL0     H47611   4.244   8.610   2.837 -0.2958  1.2341 -0.4052
  361MOL0     H47612   4.285   8.576   2.542 -2.1977  2.4428 -1.7921
  361MOL0     H47613   4.254   8.730   2.629 -0.6453  0.2750  0.5461
  361MOL0     H47614   4.206   8.391   2.506 -0.0783 -0.9896 -1.3936
  361MOL0     H47615   4.082   8.180   2.439 -0.7415  0.2857  0.5228
  361MOL0     H47616   3.788   7.847   2.481 -0.3191 -0.2324 -1.4323
  361MOL0     H47617   3.644   7.670   2.407  0.1718 -1.3468  1.6774
  361MOL0     H47618   3.191   7.721   2.308 -1.1700  0.2328  0.5226
  361MOL0     H47619   3.225   7.727   2.485  0.3876  1.9378 -1.8711
  361MOL0     H47620   3.088   7.553   2.432  1.2974  0.3919  1.5235
  361MOL0     H47621   3.245   7.485   2.490  1.9130  1.3665 -0.3420
  361MOL0     H47622   3.297   7.409   2.260  0.1561 -0.3244  0.3543
  361MOL0     H47623   3.189   7.523   2.184  1.8771  0.7784  1.0065
  361MOL0     H47624   3.119   7.266   2.331 -0.6364 -0.0065  0.9131
  361MOL0     H47625   2.992   7.398   2.318 -0.6608  0.6520 -2.9879
  361MOL0     H47626   3.130   7.319   2.074  0.0228 -3.6903 -0.8123
  361MOL0     H47627   2.966   7.373   2.092  4.1650  2.1869 -4.1788
  361MOL0     H47628   2.957   7.158   2.015  0.0411 -1.6001  0.2330
  361MOL0     H47629   2.888   7.168   2.179  0.5360 -2.3915 -1.1531
  361MOL0     H47630   3.073   7.065   2.274 -1.7303 -0.1614 -0.1702
  361MOL0     H47631   3.026   6.963   2.132  0.1440 -0.3412 -2.6392
  361MOL0     H47632   3.297   6.985   2.133  0.7872  1.7802  1.7503
  361MOL0     H47633   3.274   7.154   2.138  0.8343 -1.8628  2.4614
  361MOL0     H47634   3.296   7.918   2.404  0.8449  1.0257 -3.7384
  361MOL0     H47635   3.425   8.104   2.475 -0.5203 -1.5371  0.5313
  361MOL0     H47636   3.724   8.330   2.581  0.6433 -4.3822 -1.1465
  361MOL0     H47637   3.833   8.556   2.636 -1.4856 -1.2486  0.6244
  361MOL0     H47638   5.974   8.151   2.578  1.2627 -0.9873 -2.4825
  361MOL0     H47639   6.202   8.103   2.513  2.1588 -0.5661  2.0235
  361MOL0     H47640   6.644   8.385   2.575  0.8707  0.2329  1.8447
  361MOL0     H47641   6.893   8.384   2.551 -0.9362  1.9407  2.4354
  361MOL0     H47642   7.063   7.980   2.568  2.6025 -1.0890  3.1585
  361MOL0     H47643   7.216   8.064   2.606 -0.0864  1.5252  0.8024
  361MOL0     H47644   7.059   8.123   2.356  0.6485 -1.8413 -1.8873
  361MOL0     H47645   7.219   8.187   2.393  0.0237  1.5312  1.2629
  361MOL0     H47646   7.194   7.994   2.223 -1.9822  1.0511  0.2238
  361MOL0     H47647   7.158   7.895   2.376  1.4516 -1.4915 -0.0816
  361MOL0     H47648   7.383   7.965   2.458  1.3890 -2.0099  0.6497
  361MOL0     H47649   7.381   7.840   2.336  1.0575  1.0100 -0.5244
  361MOL0     H47650   7.577   8.163   2.140 -0.8008 -0.8278 -0.5240
  361MOL0     H47651   6.912   7.987   2.686  3.0320 -0.1411 -0.5210
  361MOL0     H47652   6.657   7.983   2.717  3.0286 -0.8615  1.7039
  362MOL0     O47653   3.571   3.059   6.068 -0.2902  0.7194  0.0382
  362MOL0     C47654   3.583   3.134   5.972 -0.4451 -0.0878 -1.0127
  362MOL0     O47655   3.501   3.243   5.940 -0.1964  0.1182  0.1961
  362MOL0     C47656   3.371   3.267   5.994 -0.1586  0.3795 -0.2229
  362MOL0     C47657   3.307   3.193   6.096  0.5521 -0.0935  0.0087
  362MOL0     C47658   3.174   3.221   6.132 -0.4187 -0.0979  1.1463
  362MOL0     C47659   3.100   3.325   6.073  0.5995  0.2719  0.4515
  362MOL0     O47660   2.967   3.338   6.101  0.0491 -0.6158 -0.4277
  362MOL0     C47661   2.895   3.271   6.208  0.0634  0.5877 -0.0357
  362MOL0     C47662   2.744   3.297   6.196  0.1517 -0.3017 -0.2848
  362MOL0     C47663   2.723   3.456   6.197 -0.0755 -0.4575  0.5104
  362MOL0     C47664   2.576   3.483   6.195 -0.3228  0.0670  0.4917
  362MOL0     C47665   2.543   3.636   6.195 -0.7500  0.1495  0.1414
  362MOL0     C47666   2.395   3.656   6.228 -1.0744 -0.6879 -0.5723
  362MOL0     C47667   2.360   3.795   6.190  0.1761 -0.1238 -0.7273
  362MOL0     C47668   2.249   3.853   6.267 -0.0279 -0.0228 -0.4764
  362MOL0     N47669   2.125   3.774   6.247  0.0182 -0.3693 -0.4478
  362MOL0     C47670   2.045   3.786   6.136 -0.1647 -0.2572 -0.2312
  362MOL0     C47671   1.934   3.721   6.169 -0.0372  1.1026 -0.0066
  362MOL0     C47672   1.807   3.714   6.087 -0.3078 -0.3778 -0.0276
  362MOL0     C47673   1.701   3.801   6.155  0.0947  0.2522  0.1276
  362MOL0     C47674   1.637   3.747   6.287  0.5117 -0.2292  0.2533
  362MOL0     C47675   1.491   3.778   6.310  0.1371 -0.0726  0.3250
  362MOL0     O47676   1.476   3.919   6.329 -0.3685 -0.0545 -0.2982
  362MOL0     C47677   1.358   3.983   6.330  0.7505 -0.4851 -0.4851
  362MOL0     C47678   1.239   3.914   6.289  0.3843  0.5311 -0.2995
  362MOL0     C47679   1.111   3.972   6.300  0.2541  0.0350 -0.4483
  362MOL0     C47680   1.094   4.100   6.349  1.1161  0.2828 -0.4711
  362MOL0     C47681   0.958   4.160   6.365 -0.3962 -1.0809 -0.2323
  362MOL0     O47682   0.849   4.079   6.314 -0.0241 -0.3920  0.3406
  362MOL0     C47683   0.719   4.121   6.322  0.5525 -0.3960  0.2298
  362MOL0     C47684   0.616   4.036   6.368 -0.4406  0.2934  0.7759
  362MOL0     C47685   0.491   4.081   6.377  0.0528  0.0423  0.6836
  362MOL0     C47686   0.447   4.199   6.320  0.4211 -0.1849  0.7228
  362MOL0     O47687   0.314   4.239   6.312  0.3686 -0.3002  0.6297
  362MOL0     C47688   0.211   4.169   6.383 -0.8912 -0.4085 -1.2368
  362MOL0     C47689   0.154   4.062   6.300  0.4827  0.1607  0.3192
  362MOL0     C47690   0.059   4.124   6.196  0.0671  0.0102  0.7860
  362MOL0     C47691   0.123   4.220   6.094  0.0350  0.7027 -0.9131
  362MOL0     C47692   0.035   4.249   5.967 -0.1419 -0.1790 -0.8380
  362MOL0     C47693  -0.104   4.318   6.001 -0.2187 -0.9735  0.6833
  362MOL0     C47694  -0.083   4.436   6.091  0.2215 -0.9520 -0.3716
  362MOL0     C47695  -0.210   4.525   6.117 -0.4213 -0.2890  0.7632
  362MOL0    Cl47696  -0.283   4.456   6.266  0.4928  0.2683 -0.2156
  362MOL0     C47697   0.543   4.288   6.280 -0.0398  0.4153  0.4584
  362MOL0     C47698   0.675   4.250   6.284 -0.0830 -0.8323 -0.0409
  362MOL0     O47699   0.938   4.265   6.432 -0.3635  0.3480  0.3318
  362MOL0     C47700   1.219   4.169   6.379  0.4491  0.0891  0.7029
  362MOL0     C47701   1.342   4.115   6.367  0.7257  0.4946  0.3956
  362MOL0     N47702   1.953   3.657   6.290  0.2356 -0.3216 -0.1406
  362MOL0     N47703   2.073   3.687   6.336  0.2173  0.9585  0.3952
  362MOL0     C47704   3.171   3.403   5.979  0.0917  0.1537  0.0319
  362MOL0     C47705   3.305   3.377   5.938 -0.3559  1.2075 -0.3740
  362MOL0     C47706   3.691   3.105   5.881  0.1015 -0.8070  0.5024
  362MOL0     C47707   3.718   3.176   5.759 -0.2848 -0.0161 -0.4213
  362MOL0     C47708   3.830   3.152   5.686 -0.2757 -0.4195  0.5483
  362MOL0     C47709   3.922   3.050   5.714  0.9727 -0.0527 -0.4164
  362MOL0     O47710   4.035   3.037   5.633 -0.3799  0.2712  0.7898
  362MOL0     C47711   4.144   2.943   5.661  0.3400 -0.0535  0.5883
  362MOL0     C47712   4.227   2.912   5.534  0.3477 -0.2969 -0.6067
  362MOL0     C47713   4.362   2.980   5.524 -0.0868  0.2216  0.1903
  362MOL0     C47714   4.432   2.922   5.404 -0.5575  0.4992  0.0229
  362MOL0     C47715   4.578   2.968   5.383  0.3042  0.3334 -0.3677
  362MOL0     C47716   4.692   3.003   5.354  0.4690  0.1393  0.4790
  362MOL0     C47717   3.890   2.979   5.831 -0.4050 -0.9083 -0.3817
  362MOL0     C47718   3.782   3.015   5.914 -0.0501  1.2335 -0.6070
  362MOL0     H47719   3.343   3.098   6.135 -0.7073 -1.1976 -1.3873
  362MOL0     H47720   3.136   3.158   6.212  0.7548 -1.4490  0.6952
  362MOL0     H47721   2.938   3.295   6.306  3.9380  0.3547 -1.5097
  362MOL0     H47722   2.906   3.163   6.197 -0.4229  0.6507 -1.3702
  362MOL0     H47723   2.694   3.252   6.283 -0.3733  2.2586  0.8467
  362MOL0     H47724   2.691   3.258   6.109 -4.1737  0.2384  1.7890
  362MOL0     H47725   2.766   3.495   6.105 -1.2284 -1.8317 -0.6532
  362MOL0     H47726   2.773   3.499   6.285  2.0397  0.7562 -1.1760
  362MOL0     H47727   2.538   3.446   6.099 -2.0286  2.3205  0.2081
  362MOL0     H47728   2.525   3.433   6.278 -0.3706 -0.1296  0.3454
  362MOL0     H47729   2.566   3.679   6.097 -2.7699  0.1594 -0.3794
  362MOL0     H47730   2.605   3.693   6.265 -0.1533 -2.7426  2.1867
  362MOL0     H47731   2.378   3.643   6.336  0.7824  1.5588  0.0595
  362MOL0     H47732   2.346   3.577   6.171  0.0725 -2.5202  0.8455
  362MOL0     H47733   2.453   3.851   6.198  0.2921 -0.3349 -0.6072
  362MOL0     H47734   2.326   3.791   6.086 -1.0038 -1.8995 -0.3212
  362MOL0     H47735   2.239   3.960   6.245  0.1904  0.1621  0.3016
  362MOL0     H47736   2.276   3.854   6.373 -0.6285 -0.9102 -0.3085
  362MOL0     H47737   2.054   3.852   6.051 -1.6416  0.5233  0.1728
  362MOL0     H47738   1.775   3.611   6.069 -0.0167 -1.0841  2.9763
  362MOL0     H47739   1.837   3.758   5.991  1.4086  0.2390  0.7350
  362MOL0     H47740   1.632   3.825   6.073  0.0811  1.2992  0.4311
  362MOL0     H47741   1.740   3.902   6.172  0.9866 -0.0129 -0.2589
  362MOL0     H47742   1.634   3.639   6.273 -0.5131 -0.0645 -1.1015
  362MOL0     H47743   1.702   3.773   6.370 -0.7025  0.7159  0.9462
  362MOL0     H47744   1.455   3.717   6.393 -1.3821  0.8976  0.4111
  362MOL0     H47745   1.432   3.755   6.221  1.3534 -0.7069 -0.3544
  362MOL0     H47746   1.244   3.822   6.232 -1.3115  2.1514 -3.3582
  362MOL0     H47747   1.028   3.911   6.267 -0.1608  0.2212  0.2569
  362MOL0     H47748   0.638   3.937   6.405  2.3447  0.5386  0.0553
  362MOL0     H47749   0.418   4.008   6.414  1.4571 -1.7442  0.0834
  362MOL0     H47750   0.137   4.241   6.420 -0.5454 -0.2242 -0.8876
  362MOL0     H47751   0.248   4.123   6.475 -2.4385  1.8636  0.6569
  362MOL0     H47752   0.093   3.997   6.364 -0.6822  1.5354  0.6376
  362MOL0     H47753   0.231   3.993   6.264  1.0668 -0.0512  1.8779
  362MOL0     H47754  -0.024   4.170   6.251 -0.8466  0.5851 -0.9880
  362MOL0     H47755   0.012   4.044   6.138  1.2052 -0.2442  0.1997
  362MOL0     H47756   0.148   4.311   6.149 -1.6751  0.9062 -0.3960
  362MOL0     H47757   0.216   4.178   6.056  0.1459  2.4440 -2.7815
  362MOL0     H47758   0.026   4.160   5.906 -1.5005 -0.7209  0.1162
  362MOL0     H47759   0.082   4.329   5.909 -0.0286  3.9347  4.1421
  362MOL0     H47760  -0.158   4.245   6.062  1.4673 -1.6893  1.3885
  362MOL0     H47761  -0.164   4.342   5.914  2.5550  1.8881 -0.6433
  362MOL0     H47762  -0.045   4.404   6.189  3.1492 -1.4779 -1.5724
  362MOL0     H47763  -0.002   4.498   6.053 -0.7714  0.1700 -0.7191
  362MOL0     H47764  -0.279   4.524   6.032  0.6698 -1.0242 -0.1359
  362MOL0     H47765  -0.177   4.628   6.126  0.9115 -0.7291  1.1658
  362MOL0     H47766   0.521   4.390   6.251  2.1777  0.7341 -0.2886
  362MOL0     H47767   0.760   4.314   6.263  2.9256 -4.1565  1.0667
  362MOL0     H47768   1.208   4.270   6.418  1.4855  1.3803 -2.1305
  362MOL0     H47769   1.426   4.178   6.395  2.4385 -0.0631 -2.9521
  362MOL0     H47770   3.107   3.468   5.921 -0.2818 -0.5995 -0.4196
  362MOL0     H47771   3.348   3.430   5.854  0.1245  0.6924 -0.4597
  362MOL0     H47772   3.641   3.249   5.735 -1.7868 -1.4705 -0.2001
  362MOL0     H47773   3.843   3.213   5.597  1.5647  0.3245  1.2812
  362MOL0     H47774   4.094   2.854   5.701  0.8485 -0.9477 -0.7158
  362MOL0     H47775   4.210   2.987   5.736  2.3583 -1.0766 -0.5240
  362MOL0     H47776   4.237   2.803   5.536 -0.2635 -0.3491 -0.0514
  362MOL0     H47777   4.167   2.931   5.445  0.1178  0.0842 -0.3739
  362MOL0     H47778   4.417   2.962   5.617  1.3209 -1.0639 -0.8550
  362MOL0     H47779   4.354   3.087   5.507  0.6453  0.0088 -1.6822
  362MOL0     H47780   4.435   2.812   5.402  1.9887  0.4990 -1.0808
  362MOL0     H47781   4.371   2.961   5.322  4.2390 -0.7892 -4.7802
  362MOL0     H47782   4.788   3.047   5.335  0.7850 -0.8042 -0.1883
  362MOL0     H47783   3.954   2.903   5.876 -0.1952 -0.8743 -0.6232
  362MOL0     H47784   3.788   2.980   6.017  1.9213  1.3561 -0.6323
  363MOL0     O47785  10.779   6.730   1.022 -0.0914 -0.4755  0.0540
  363MOL0     C47786  10.827   6.773   1.127  0.3299 -0.5507  0.0512
  363MOL0     O47787  10.752   6.827   1.232 -0.5675  0.6632  0.6738
  363MOL0     C47788  10.615   6.804   1.237 -0.0457 -0.2307  0.6152
  363MOL0     C47789  10.556   6.685   1.195  0.2048 -0.6639  0.3625
  363MOL0     C47790  10.415   6.677   1.188  0.1717  0.1614 -0.1665
  363MOL0     C47791  10.331   6.777   1.234  0.2186 -0.7397  0.2677
  363MOL0     O47792  10.194   6.759   1.226  0.5999  0.1015 -0.4285
  363MOL0     C47793  10.105   6.873   1.210  0.8391 -0.1207  0.0874
  363MOL0     C47794   9.957   6.829   1.169  0.9832 -0.1066 -0.3439
  363MOL0     C47795   9.912   6.710   1.257 -0.5304  0.1201  0.3585
  363MOL0     C47796   9.759   6.679   1.249 -0.4579 -0.6885 -0.0808
  363MOL0     C47797   9.706   6.606   1.372  0.0127  0.1062  0.1982
  363MOL0     C47798   9.567   6.550   1.346 -0.1205  0.1881 -0.1902
  363MOL0     C47799   9.510   6.503   1.478 -0.9270  0.0979 -0.2459
  363MOL0     C47800   9.409   6.600   1.540  0.5707  0.5040  0.8760
  363MOL0     N47801   9.284   6.608   1.465  0.9701  0.4670  0.0600
  363MOL0     C47802   9.201   6.500   1.479  0.9252  0.4792  0.4302
  363MOL0     C47803   9.101   6.525   1.391  0.0129 -0.5160  0.3986
  363MOL0     C47804   8.982   6.429   1.376 -0.4957  0.4099  0.0858
  363MOL0     C47805   8.847   6.489   1.421 -0.4095  0.0324 -0.4438
  363MOL0     C47806   8.733   6.389   1.455 -0.8217 -0.5788 -0.4857
  363MOL0     C47807   8.748   6.354   1.607  0.7112  0.2943 -0.7067
  363MOL0     O47808   8.623   6.306   1.666 -0.0959 -0.2862  0.1146
  363MOL0     C47809   8.524   6.394   1.696  0.7683  1.2953 -0.0646
  363MOL0     C47810   8.417   6.345   1.777  0.2898 -0.2355  0.1808
  363MOL0     C47811   8.306   6.427   1.816 -0.5149 -0.2115 -0.9152
  363MOL0     C47812   8.305   6.561   1.779  0.3016  0.0570 -0.7673
  363MOL0     C47813   8.188   6.650   1.821  0.1604 -0.7475  0.4761
  363MOL0     O47814   8.203   6.785   1.786  0.4623  0.3972  0.3912
  363MOL0     C47815   8.100   6.875   1.800 -0.8091 -0.5726  0.4891
  363MOL0     C47816   8.089   6.974   1.695 -0.5888  0.5419 -0.3262
  363MOL0     C47817   7.984   7.070   1.690 -0.1222  0.2236  0.8438
  363MOL0     C47818   7.889   7.066   1.801  0.2566  0.6374 -0.0702
  363MOL0     O47819   7.771   7.129   1.822 -0.3254 -0.2056 -0.5517
  363MOL0     C47820   7.715   7.204   1.713 -0.2114  0.2135  0.0871
  363MOL0     C47821   7.603   7.299   1.743 -0.1238  0.7235  0.1567
  363MOL0     C47822   7.471   7.226   1.768 -1.1757  0.3360  0.1293
  363MOL0     C47823   7.357   7.329   1.784  0.3104  0.0614 -0.3403
  363MOL0     C47824   7.220   7.270   1.761  1.2089 -1.2080 -0.2041
  363MOL0     C47825   7.108   7.372   1.793 -0.2177 -0.0041  0.4475
  363MOL0     C47826   6.971   7.305   1.808 -0.3909  0.4354 -0.7356
  363MOL0     C47827   6.874   7.406   1.855 -0.4269  0.3698 -0.1225
  363MOL0    Cl47828   6.710   7.374   1.794  0.0760 -0.2481 -0.1307
  363MOL0     C47829   7.907   6.971   1.908  0.2779  0.1349 -0.2942
  363MOL0     C47830   8.001   6.875   1.906 -0.2376 -0.2411 -0.5662
  363MOL0     O47831   8.092   6.604   1.882  0.0035  0.0678 -0.3509
  363MOL0     C47832   8.414   6.614   1.706  0.2487  0.4026 -0.8237
  363MOL0     C47833   8.524   6.532   1.665 -0.5448  0.0060  0.3946
  363MOL0     N47834   9.120   6.652   1.323  0.1376  0.8219 -0.0948
  363MOL0     N47835   9.228   6.700   1.377  0.6034 -0.2304 -0.0153
  363MOL0     C47836  10.390   6.897   1.277 -0.4933  0.5614 -0.2475
  363MOL0     C47837  10.533   6.909   1.280  0.0835 -0.7242  0.0789
  363MOL0     C47838  10.969   6.757   1.153  0.0251  0.2339  0.7981
  363MOL0     C47839  11.066   6.696   1.063 -0.2022 -0.0713  0.2225
  363MOL0     C47840  11.204   6.677   1.095 -0.0202 -0.5658 -0.4872
  363MOL0     C47841  11.252   6.718   1.218 -0.2217 -0.4979  0.6787
  363MOL0     O47842  11.376   6.691   1.270 -0.6425 -0.0579 -0.6676
  363MOL0     C47843  11.452   6.592   1.224  0.3112  0.5650  0.8857
  363MOL0     C47844  11.587   6.582   1.296 -0.6726  0.5832  0.6802
  363MOL0     C47845  11.705   6.677   1.263 -0.0509  0.6566  0.8448
  363MOL0     C47846  11.664   6.822   1.280 -0.3846 -0.2328 -0.1732
  363MOL0     C47847  11.665   6.864   1.424 -0.2883  0.0004 -0.7315
  363MOL0     C47848  11.653   6.886   1.544  0.0671 -0.2765  0.2158
  363MOL0     C47849  11.153   6.789   1.299 -0.5768 -0.4151  0.2704
  363MOL0     C47850  11.020   6.810   1.270 -0.7186  0.3446  0.0051
  363MOL0     H47851  10.609   6.601   1.151 -2.3194 -1.2334 -1.8211
  363MOL0     H47852  10.362   6.586   1.163  2.1512 -0.7298 -1.3331
  363MOL0     H47853  10.139   6.957   1.149 -1.8202 -0.6231 -2.3526
  363MOL0     H47854  10.092   6.921   1.307 -0.8448  1.8736 -1.0224
  363MOL0     H47855   9.951   6.807   1.062 -2.3220 -1.2097 -0.0593
  363MOL0     H47856   9.882   6.906   1.189  0.2635 -0.3919 -1.7985
  363MOL0     H47857   9.927   6.725   1.364 -2.3994  1.0930  0.5412
  363MOL0     H47858   9.953   6.617   1.218  0.1091  0.6774 -0.3231
  363MOL0     H47859   9.708   6.776   1.243  1.9242  0.5878 -1.6668
  363MOL0     H47860   9.742   6.625   1.156  2.2678 -1.2765 -0.3397
  363MOL0     H47861   9.702   6.676   1.456 -2.1931 -1.1710  1.2415
  363MOL0     H47862   9.775   6.522   1.389 -1.8956 -1.8122 -1.0451
  363MOL0     H47863   9.575   6.460   1.284 -1.0756 -0.7285  0.9843
  363MOL0     H47864   9.503   6.619   1.289  0.5762  0.9292 -0.0996
  363MOL0     H47865   9.469   6.402   1.472 -0.8057 -0.0809  1.4385
  363MOL0     H47866   9.587   6.468   1.548 -0.0086 -1.4118 -1.9072
  363MOL0     H47867   9.453   6.700   1.531 -1.1960  1.2546  0.0349
  363MOL0     H47868   9.384   6.576   1.644 -0.6522  2.4071  1.0742
  363MOL0     H47869   9.211   6.420   1.552  2.1367 -0.5870 -0.8613
  363MOL0     H47870   9.008   6.334   1.422  0.9391  0.8808  0.3074
  363MOL0     H47871   8.976   6.393   1.273 -2.3597  3.9695 -1.2301
  363MOL0     H47872   8.807   6.551   1.341 -0.0912  0.4790 -0.2623
  363MOL0     H47873   8.878   6.550   1.506 -3.7652 -0.5784  1.4093
  363MOL0     H47874   8.637   6.435   1.433 -0.9934 -1.3454 -1.4121
  363MOL0     H47875   8.734   6.298   1.394  2.5637 -0.8343 -0.2472
  363MOL0     H47876   8.786   6.441   1.662 -0.5854  0.1963  0.4024
  363MOL0     H47877   8.818   6.272   1.627 -0.9580 -1.1603 -0.5427
  363MOL0     H47878   8.422   6.240   1.805  2.0709 -0.9705 -2.5291
  363MOL0     H47879   8.224   6.397   1.881 -0.8965  1.5301 -0.5281
  363MOL0     H47880   8.169   6.974   1.622  0.7579  1.3835  1.0880
  363MOL0     H47881   7.985   7.134   1.602  0.7835 -0.1320  0.5935
  363MOL0     H47882   7.685   7.139   1.631 -0.4822 -0.8675  1.0283
  363MOL0     H47883   7.785   7.273   1.665  0.1201  0.3681  0.7775
  363MOL0     H47884   7.592   7.359   1.652 -1.3118  2.9185  1.6567
  363MOL0     H47885   7.631   7.359   1.830 -1.3929  0.9248  0.4492
  363MOL0     H47886   7.474   7.164   1.858  0.0663  1.2061  0.7051
  363MOL0     H47887   7.446   7.170   1.677 -2.2989  3.1673 -1.4504
  363MOL0     H47888   7.367   7.379   1.881  4.1387  1.2973 -1.1991
  363MOL0     H47889   7.361   7.409   1.710  2.5518  0.6411  0.3311
  363MOL0     H47890   7.202   7.181   1.823 -3.2761 -0.1233  0.3558
  363MOL0     H47891   7.220   7.238   1.656 -0.2838  2.1117 -1.3489
  363MOL0     H47892   7.097   7.449   1.715 -0.5823  0.3460  0.8399
  363MOL0     H47893   7.134   7.423   1.886  3.1680 -1.8103  0.6684
  363MOL0     H47894   6.920   7.276   1.716 -4.0449  1.6372  0.7371
  363MOL0     H47895   6.977   7.220   1.877 -0.1808 -1.0305 -2.4895
  363MOL0     H47896   6.908   7.506   1.830  1.6823  0.1212  1.5046
  363MOL0     H47897   6.873   7.400   1.965  3.5206 -0.7554  0.0001
  363MOL0     H47898   7.836   6.975   1.990  0.4715 -2.5535  0.1211
  363MOL0     H47899   8.010   6.796   1.981 -0.0198  0.7117  0.4463
  363MOL0     H47900   8.416   6.721   1.689 -1.1355  1.0522  2.3469
  363MOL0     H47901   8.603   6.588   1.616 -2.2564 -0.3448 -3.0498
  363MOL0     H47902  10.325   6.974   1.316 -0.6339  1.1926 -1.6597
  363MOL0     H47903  10.577   7.001   1.318 -2.0742  0.0818  0.8260
  363MOL0     H47904  11.035   6.661   0.965 -0.6897  1.4945 -0.2030
  363MOL0     H47905  11.276   6.624   1.034  3.0025 -0.4585  2.6858
  363MOL0     H47906  11.474   6.618   1.120 -1.1476  1.9297  0.8773
  363MOL0     H47907  11.401   6.496   1.227 -1.7882  1.5214 -1.1613
  363MOL0     H47908  11.558   6.597   1.400  1.9690  1.5465  1.3460
  363MOL0     H47909  11.621   6.479   1.284 -0.0080  0.8873 -0.1437
  363MOL0     H47910  11.741   6.649   1.164  0.7508 -1.3020  1.6469
  363MOL0     H47911  11.792   6.660   1.328  0.3144 -0.7549  0.0316
  363MOL0     H47912  11.737   6.886   1.229  1.2625 -0.6791  1.5195
  363MOL0     H47913  11.572   6.858   1.234 -0.1418 -2.8108 -3.0047
  363MOL0     H47914  11.638   6.914   1.647 -0.4027  2.1548 -0.4592
  363MOL0     H47915  11.185   6.829   1.395  2.0515 -2.4532  0.3526
  363MOL0     H47916  10.948   6.857   1.336 -1.6327 -2.2074  0.9239
  364MOL0     O47917   5.971   2.018   9.107  0.3191 -0.1720 -0.4594
  364MOL0     C47918   6.053   1.953   9.170 -0.1308  1.0402 -1.3515
  364MOL0     O47919   6.027   1.836   9.234 -0.0649  0.1167  0.1984
  364MOL0     C47920   5.917   1.762   9.205 -0.8204 -0.2979  0.1334
  364MOL0     C47921   5.826   1.773   9.104  0.4684 -0.4819  0.1445
  364MOL0     C47922   5.729   1.675   9.076 -0.3138 -0.0306  0.3754
  364MOL0     C47923   5.717   1.566   9.159 -0.4942 -0.9950 -0.1948
  364MOL0     O47924   5.630   1.471   9.112 -0.4630 -0.5117  0.3204
  364MOL0     C47925   5.565   1.392   9.213  0.1788 -0.1198  0.1741
  364MOL0     C47926   5.475   1.284   9.151  1.0252 -0.4696  0.0393
  364MOL0     C47927   5.550   1.200   9.046 -0.1409 -0.4272 -0.0611
  364MOL0     C47928   5.692   1.151   9.087 -0.6039  0.5077  0.4981
  364MOL0     C47929   5.744   1.070   8.971  0.0796  0.0580 -0.0321
  364MOL0     C47930   5.880   1.003   9.002  0.0762  0.2279  0.8321
  364MOL0     C47931   5.933   0.948   8.864  0.3723 -1.2527  0.1778
  364MOL0     C47932   6.075   0.881   8.865  0.5433  0.4452  0.1225
  364MOL0     N47933   6.061   0.740   8.912  0.3921  0.6812 -0.2194
  364MOL0     C47934   6.128   0.636   8.855  0.6176  0.6644  0.2822
  364MOL0     C47935   6.132   0.540   8.951  0.7865 -0.3908 -0.7285
  364MOL0     C47936   6.210   0.416   8.939 -0.1326 -0.2836  0.1471
  364MOL0     C47937   6.256   0.372   9.077  0.9553 -0.4767  0.0984
  364MOL0     C47938   6.362   0.263   9.052  0.4758  0.0478 -0.2946
  364MOL0     C47939   6.411   0.189   9.182 -0.2167  0.1189  0.3531
  364MOL0     O47940   6.505   0.267   9.255  0.3975 -0.7662  0.3626
  364MOL0     C47941   6.642   0.276   9.231  0.2341  0.3923  0.0174
  364MOL0     C47942   6.705   0.392   9.264  0.2322 -0.2608  0.0264
  364MOL0     C47943   6.841   0.420   9.231 -0.0312  0.9161  0.4997
  364MOL0     C47944   6.917   0.315   9.178 -0.5920  0.5954  0.1531
  364MOL0     C47945   7.066   0.331   9.154  1.4148  0.0281 -1.1660
  364MOL0     O47946   7.113   0.453   9.171  0.0743 -0.3710  0.1701
  364MOL0     C47947   7.247   0.477   9.157 -0.7559 -1.0645 -0.0772
  364MOL0     C47948   7.341   0.405   9.076 -0.4144 -0.3708 -0.2647
  364MOL0     C47949   7.472   0.451   9.058 -0.1165 -0.7508 -0.7225
  364MOL0     C47950   7.511   0.575   9.104 -0.0257  0.7232 -0.9349
  364MOL0     O47951   7.641   0.616   9.123 -0.2119 -0.0308  0.1225
  364MOL0     C47952   7.754   0.539   9.079 -0.3832  0.7415 -0.0310
  364MOL0     C47953   7.884   0.606   9.113 -0.2022  0.5302 -0.8961
  364MOL0     C47954   8.013   0.524   9.086 -0.2189 -0.1596 -0.7498
  364MOL0     C47955   8.144   0.592   9.120  0.0154 -0.4646  0.6423
  364MOL0     C47956   8.166   0.609   9.262 -0.0457  0.2302 -0.0390
  364MOL0     C47957   8.211   0.490   9.341  0.0127 -0.5474 -0.1481
  364MOL0     C47958   8.231   0.518   9.489  0.1433  0.2137 -0.5018
  364MOL0     C47959   8.379   0.520   9.531 -0.2149  0.2340 -0.6309
  364MOL0    Cl47960   8.388   0.616   9.689  0.2813  0.0500  0.6501
  364MOL0     C47961   7.418   0.648   9.182  0.2451  0.4051  0.4788
  364MOL0     C47962   7.287   0.599   9.213 -0.1232  0.4894 -0.1812
  364MOL0     O47963   7.126   0.229   9.137  0.1252 -0.0878 -0.7475
  364MOL0     C47964   6.852   0.202   9.141  0.1193  0.1133 -0.3215
  364MOL0     C47965   6.717   0.176   9.162  0.6135 -0.7869  0.0156
  364MOL0     N47966   6.064   0.580   9.059 -0.0183  0.1441  0.0781
  364MOL0     N47967   6.020   0.701   9.038  0.3361  0.3993  0.2040
  364MOL0     C47968   5.794   1.560   9.271 -0.1104 -0.0383  0.0809
  364MOL0     C47969   5.894   1.655   9.298  0.7686 -0.5629  0.0039
  364MOL0     C47970   6.185   2.006   9.187  0.4628  0.2678  1.0423
  364MOL0     C47971   6.291   1.945   9.266  0.6112  0.0724  0.3916
  364MOL0     C47972   6.414   2.004   9.280 -0.8495 -0.2567  0.1362
  364MOL0     C47973   6.438   2.125   9.220 -0.2144  0.5666  0.2110
  364MOL0     O47974   6.564   2.177   9.233 -0.4451  0.5305 -0.1324
  364MOL0     C47975   6.639   2.208   9.116 -0.3790  0.5975  0.2960
  364MOL0     C47976   6.737   2.099   9.114  0.5325  0.5211 -0.0954
  364MOL0     C47977   6.845   2.110   9.219 -0.1405 -0.0878  0.1224
  364MOL0     C47978   6.931   1.984   9.222  0.4592 -0.7319  0.2296
  364MOL0     C47979   7.076   2.019   9.236 -0.4288 -0.6929  0.2351
  364MOL0     C47980   7.188   2.058   9.255 -0.0521  0.0873  0.9060
  364MOL0     C47981   6.340   2.192   9.154  0.5037 -0.2384  0.6675
  364MOL0     C47982   6.219   2.132   9.127  1.0265  0.9424  0.2136
  364MOL0     H47983   5.832   1.858   9.037 -0.3654  2.5146  3.5747
  364MOL0     H47984   5.660   1.689   8.994 -0.1477  0.6412  0.3440
  364MOL0     H47985   5.502   1.465   9.266  1.3608  1.4396 -0.4694
  364MOL0     H47986   5.631   1.353   9.290 -0.2407 -1.0002  0.0947
  364MOL0     H47987   5.389   1.322   9.096  1.6347  0.8186 -0.0406
  364MOL0     H47988   5.426   1.221   9.227  0.1596 -0.1130 -0.2123
  364MOL0     H47989   5.557   1.265   8.958 -1.7539 -0.0282  0.0818
  364MOL0     H47990   5.481   1.118   9.024 -1.0572  0.8830 -2.4702
  364MOL0     H47991   5.747   1.245   9.082  0.6870 -0.2904 -2.4767
  364MOL0     H47992   5.701   1.105   9.186 -0.2147 -0.0351  0.2174
  364MOL0     H47993   5.756   1.138   8.886  0.4536  1.1174  0.8384
  364MOL0     H47994   5.666   1.000   8.940 -2.4342  2.4468  0.4384
  364MOL0     H47995   5.857   0.920   9.070  2.8693 -2.1145 -0.8490
  364MOL0     H47996   5.940   1.082   9.046 -0.7242  1.5774 -0.4106
  364MOL0     H47997   5.870   0.871   8.818  0.9426 -2.9721  2.1010
  364MOL0     H47998   5.938   1.033   8.795  0.1691 -0.1813  1.4376
  364MOL0     H47999   6.143   0.945   8.923 -0.5583  0.9436  0.9007
  364MOL0     H48000   6.115   0.891   8.764 -3.2315  1.2582 -1.4717
  364MOL0     H48001   6.191   0.635   8.767  1.1735  0.2046  0.6786
  364MOL0     H48002   6.292   0.448   8.874 -2.9989  1.6338 -2.8506
  364MOL0     H48003   6.150   0.347   8.879 -0.1576  1.6225 -2.2107
  364MOL0     H48004   6.167   0.340   9.132  0.1159  1.0715 -0.3301
  364MOL0     H48005   6.297   0.447   9.145 -1.8030 -0.0838  1.4438
  364MOL0     H48006   6.322   0.186   8.985 -2.4535  0.5207  0.7679
  364MOL0     H48007   6.445   0.311   9.000  1.0234 -1.0713 -0.4800
  364MOL0     H48008   6.459   0.097   9.147  0.4930  0.2745  0.8919
  364MOL0     H48009   6.327   0.155   9.244 -0.6992  2.9079  1.3421
  364MOL0     H48010   6.650   0.475   9.307  0.1367 -0.0797 -0.4360
  364MOL0     H48011   6.888   0.510   9.269  0.9764 -0.0297  1.5837
  364MOL0     H48012   7.318   0.303   9.045  1.2552 -0.1073 -2.6231
  364MOL0     H48013   7.548   0.391   9.009  1.5234  0.8378 -0.2561
  364MOL0     H48014   7.736   0.490   8.983  0.3511 -1.5643  0.9498
  364MOL0     H48015   7.760   0.459   9.153 -2.3911  0.2230 -0.3540
  364MOL0     H48016   7.877   0.613   9.222  0.5890 -1.8201 -0.6282
  364MOL0     H48017   7.886   0.705   9.065  0.6921  0.0831 -1.8091
  364MOL0     H48018   8.013   0.504   8.979 -1.6704  0.1489 -0.8170
  364MOL0     H48019   8.012   0.428   9.139 -2.3698  0.5931  0.7214
  364MOL0     H48020   8.231   0.538   9.081 -1.6696 -1.9003 -1.3573
  364MOL0     H48021   8.149   0.686   9.063 -0.5670 -0.2002  1.0269
  364MOL0     H48022   8.076   0.645   9.312  0.1180 -1.3896  1.5390
  364MOL0     H48023   8.250   0.677   9.281  0.7756 -0.4563 -1.1231
  364MOL0     H48024   8.294   0.434   9.298 -1.3003 -3.3489  0.6980
  364MOL0     H48025   8.123   0.426   9.330  0.2522 -0.7284 -1.0190
  364MOL0     H48026   8.180   0.609   9.521 -2.4013 -1.6957  1.3000
  364MOL0     H48027   8.176   0.442   9.546  1.6062  1.5199  2.9635
  364MOL0     H48028   8.443   0.576   9.463 -0.5564  3.6154  1.5579
  364MOL0     H48029   8.425   0.421   9.531  3.9114  1.9487 -2.5796
  364MOL0     H48030   7.439   0.748   9.220  0.9512  0.7255 -0.7337
  364MOL0     H48031   7.219   0.657   9.274 -2.0134  1.4829 -3.0472
  364MOL0     H48032   6.893   0.112   9.097  2.2044 -1.5095  4.2170
  364MOL0     H48033   6.691   0.075   9.132  1.7211 -1.3683  0.9450
  364MOL0     H48034   5.781   1.484   9.347 -1.6076 -3.2367 -3.0598
  364MOL0     H48035   5.972   1.649   9.373  1.8014 -0.3755 -1.0297
  364MOL0     H48036   6.291   1.840   9.294  1.3508  0.0715  0.3883
  364MOL0     H48037   6.491   1.953   9.337 -0.1814  0.4301 -0.1454
  364MOL0     H48038   6.693   2.301   9.134  1.3490 -0.4056  0.4817
  364MOL0     H48039   6.582   2.211   9.022 -1.3302  0.8855  0.8618
  364MOL0     H48040   6.690   2.001   9.114  0.5176  0.4763  2.0688
  364MOL0     H48041   6.796   2.112   9.023 -0.5069  0.1174 -0.8444
  364MOL0     H48042   6.802   2.118   9.318 -0.3250 -1.9390  0.2312
  364MOL0     H48043   6.914   2.191   9.193 -1.3247  0.5985 -0.9989
  364MOL0     H48044   6.894   1.913   9.297  0.4374 -2.6045 -1.4404
  364MOL0     H48045   6.913   1.931   9.127 -1.1492 -1.1733  0.7499
  364MOL0     H48046   7.290   2.088   9.269 -0.3097  1.0081  0.8758
  364MOL0     H48047   6.362   2.283   9.098 -1.9941 -0.4683 -0.8497
  364MOL0     H48048   6.141   2.184   9.073 -2.2251 -1.0599  2.6016
  365MOL0     O48049   2.695   3.597   7.711  0.3616  0.1245 -0.2956
  365MOL0     C48050   2.741   3.498   7.773 -0.9772  0.3573 -0.4259
  365MOL0     O48051   2.875   3.471   7.788 -0.1408 -0.3016 -0.0672
  365MOL0     C48052   2.967   3.551   7.729  0.5452  0.4298 -0.0111
  365MOL0     C48053   2.965   3.690   7.703  0.0483 -0.1691 -1.3681
  365MOL0     C48054   3.072   3.747   7.624  0.3412  0.4730  0.4978
  365MOL0     C48055   3.180   3.668   7.569  0.5688 -0.7356 -0.0503
  365MOL0     O48056   3.279   3.742   7.509  0.2118 -0.4909 -0.7949
  365MOL0     C48057   3.397   3.678   7.466  0.1136 -0.1937  0.1518
  365MOL0     C48058   3.483   3.789   7.399  0.1184 -0.6646 -0.2049
  365MOL0     C48059   3.530   3.896   7.495  0.4200  0.1973 -0.4066
  365MOL0     C48060   3.616   3.999   7.426  0.0057  0.0725  0.0310
  365MOL0     C48061   3.710   4.073   7.525  0.5538 -0.4706 -0.1596
  365MOL0     C48062   3.815   4.153   7.448  0.7155 -0.5006 -0.3236
  365MOL0     C48063   3.892   4.249   7.544  0.3958  0.6159  0.4032
  365MOL0     C48064   4.021   4.291   7.468  0.5096 -0.8877  0.0858
  365MOL0     N48065   4.114   4.369   7.551 -0.0479  1.0497 -0.5056
  365MOL0     C48066   4.073   4.486   7.608  0.7530  0.0710 -0.3530
  365MOL0     C48067   4.166   4.530   7.697  1.2685  0.1200 -0.2189
  365MOL0     C48068   4.172   4.654   7.779  0.2230 -0.3447  0.1878
  365MOL0     C48069   4.068   4.664   7.893  0.6896  0.2208  0.2179
  365MOL0     C48070   4.063   4.544   7.985  0.0701 -0.1182 -0.6909
  365MOL0     C48071   3.946   4.444   7.954  0.0700 -0.2745  0.0115
  365MOL0     O48072   3.815   4.517   7.983  0.2562  0.6019 -0.3725
  365MOL0     C48073   3.697   4.449   7.936  0.0748  0.9623 -0.4008
  365MOL0     C48074   3.574   4.498   7.976  0.0659  0.5284  0.3561
  365MOL0     C48075   3.456   4.429   7.943 -0.0067 -0.7450 -0.3059
  365MOL0     C48076   3.457   4.312   7.860  0.0873 -0.2046  0.0463
  365MOL0     C48077   3.333   4.237   7.832 -0.1234  0.0737  0.0975
  365MOL0     O48078   3.232   4.261   7.920 -0.0388  0.5739  0.5145
  365MOL0     C48079   3.137   4.169   7.937  0.2772  0.3848 -0.7037
  365MOL0     C48080   3.166   4.032   7.975 -0.0894 -0.3084 -0.9987
  365MOL0     C48081   3.065   3.942   7.994  0.1191 -0.4446  0.2373
  365MOL0     C48082   2.933   3.976   7.952 -0.0597 -0.0424  0.1930
  365MOL0     O48083   2.821   3.894   7.940 -0.7766  0.4187  0.0226
  365MOL0     C48084   2.827   3.780   8.029 -0.0655  0.3691 -0.0850
  365MOL0     C48085   2.682   3.752   8.044  0.3266 -0.8919  0.5310
  365MOL0     C48086   2.649   3.627   8.121  0.3523 -0.6985 -0.2418
  365MOL0     C48087   2.501   3.605   8.133 -0.3051  0.3412  0.2248
  365MOL0     C48088   2.483   3.486   8.230  0.3126  0.6154 -0.1515
  365MOL0     C48089   2.328   3.463   8.251 -0.0246  0.9864  0.3167
  365MOL0     C48090   2.299   3.339   8.344 -0.2843  0.5297 -0.5685
  365MOL0     C48091   2.153   3.315   8.379 -0.3674 -0.8231  0.2614
  365MOL0    Cl48092   2.041   3.342   8.242  0.2431 -0.0921  0.4202
  365MOL0     C48093   2.904   4.107   7.919 -0.6416 -0.5547  0.6249
  365MOL0     C48094   3.006   4.201   7.902  0.4066  0.7012 -0.3176
  365MOL0     O48095   3.331   4.151   7.743 -0.0295 -0.0167  0.0021
  365MOL0     C48096   3.582   4.256   7.826 -0.2759 -0.4472  0.4297
  365MOL0     C48097   3.701   4.321   7.868  0.4164  0.5779 -0.2232
  365MOL0     N48098   4.264   4.429   7.697  0.2707  0.0212  0.4273
  365MOL0     N48099   4.228   4.335   7.613 -0.6350 -0.4006  0.8363
  365MOL0     C48100   3.178   3.536   7.597  0.3258 -0.5134  0.6188
  365MOL0     C48101   3.074   3.478   7.672  0.0812  0.2181 -0.1101
  365MOL0     C48102   2.647   3.400   7.827 -0.3269  0.8928  0.1594
  365MOL0     C48103   2.507   3.419   7.821 -0.4017  0.0945 -0.6959
  365MOL0     C48104   2.424   3.329   7.888 -0.1662  0.1471  0.5011
  365MOL0     C48105   2.474   3.212   7.939  0.3247  0.5518  0.4457
  365MOL0     O48106   2.404   3.115   7.993 -0.2594  0.3277  0.2981
  365MOL0     C48107   2.263   3.103   7.978 -0.4968  0.0667 -0.9901
  365MOL0     C48108   2.231   2.976   8.049 -0.0740  0.6149 -1.0090
  365MOL0     C48109   2.079   2.980   8.090 -0.2033  0.2252 -0.4504
  365MOL0     C48110   2.038   2.834   8.115 -0.4988 -1.1236  0.4711
  365MOL0     C48111   1.893   2.804   8.127 -0.3229 -0.1011  0.0895
  365MOL0     C48112   1.773   2.779   8.135 -0.6116 -0.4427 -0.0641
  365MOL0     C48113   2.609   3.195   7.938  0.8193  0.9180 -0.2287
  365MOL0     C48114   2.700   3.287   7.889 -0.6514 -1.0544  0.5895
  365MOL0     H48115   2.893   3.766   7.732  0.6901  0.3890 -1.1905
  365MOL0     H48116   3.057   3.852   7.598 -3.0814 -0.1033 -0.2923
  365MOL0     H48117   3.380   3.603   7.388 -1.1446 -0.4424  0.6504
  365MOL0     H48118   3.459   3.639   7.547  1.1999 -2.5043 -1.6350
  365MOL0     H48119   3.429   3.835   7.316 -0.4853  0.9701  1.0535
  365MOL0     H48120   3.564   3.734   7.350 -1.3903 -2.0844 -1.2055
  365MOL0     H48121   3.575   3.855   7.586 -1.9530  0.3489  0.9221
  365MOL0     H48122   3.439   3.936   7.540 -0.4762 -0.8559 -1.2244
  365MOL0     H48123   3.676   3.936   7.359 -2.0478 -1.2118 -0.6970
  365MOL0     H48124   3.553   4.067   7.368 -1.4085 -1.6779 -0.5724
  365MOL0     H48125   3.761   4.010   7.599  1.7243  1.6740  0.9790
  365MOL0     H48126   3.644   4.129   7.593  0.1969  0.5865 -1.3466
  365MOL0     H48127   3.773   4.213   7.366 -0.6519 -1.2898 -0.2428
  365MOL0     H48128   3.889   4.088   7.401  1.9391 -0.2068  1.1322
  365MOL0     H48129   3.831   4.338   7.563  1.7395  2.1409 -1.8385
  365MOL0     H48130   3.911   4.193   7.636 -0.6501  1.7481  1.3466
  365MOL0     H48131   3.992   4.338   7.373  0.1000  0.5356  0.8910
  365MOL0     H48132   4.059   4.189   7.454 -0.2005 -1.4866  2.2354
  365MOL0     H48133   3.979   4.530   7.578  0.8431  1.1788  0.9085
  365MOL0     H48134   4.155   4.733   7.704  0.4505  1.5922  2.0870
  365MOL0     H48135   4.272   4.669   7.820 -0.7056  0.3308  2.3202
  365MOL0     H48136   3.971   4.694   7.852  0.4275 -0.4277  0.3531
  365MOL0     H48137   4.098   4.750   7.954  1.8958 -1.5270  2.2324
  365MOL0     H48138   4.163   4.500   7.984  1.6336  3.0340  1.2280
  365MOL0     H48139   4.053   4.584   8.086 -0.2990 -1.2497 -0.2579
  365MOL0     H48140   3.956   4.347   8.004  0.1110 -0.0497  0.4445
  365MOL0     H48141   3.958   4.427   7.846 -0.5193 -0.5376 -0.0188
  365MOL0     H48142   3.555   4.588   8.034 -2.4189  0.0626  0.3907
  365MOL0     H48143   3.362   4.475   7.971  0.7077 -0.5102  1.8650
  365MOL0     H48144   3.268   3.999   7.993 -0.0038 -1.6541 -3.4680
  365MOL0     H48145   3.091   3.843   8.030  2.2286 -1.0518 -2.5742
  365MOL0     H48146   2.867   3.806   8.127  2.7493  2.6650 -1.6427
  365MOL0     H48147   2.877   3.692   7.987 -0.9548 -0.0360 -0.3014
  365MOL0     H48148   2.633   3.736   7.948  2.0029 -2.7939 -0.0893
  365MOL0     H48149   2.639   3.842   8.090 -0.6878  0.2228 -2.4022
  365MOL0     H48150   2.684   3.641   8.223 -0.5612  1.6640 -0.1924
  365MOL0     H48151   2.686   3.532   8.080  2.0060 -1.4510  2.7110
  365MOL0     H48152   2.446   3.691   8.172  0.1880  1.6100 -1.7426
  365MOL0     H48153   2.467   3.574   8.034 -2.4014 -1.3721  1.3690
  365MOL0     H48154   2.521   3.510   8.330  0.3146 -1.0518  0.2705
  365MOL0     H48155   2.522   3.390   8.196 -1.9512  0.0438 -1.3239
  365MOL0     H48156   2.279   3.456   8.153  2.6743  1.2358 -1.1557
  365MOL0     H48157   2.275   3.549   8.293 -1.4605 -0.9401  2.7162
  365MOL0     H48158   2.332   3.242   8.303  1.0274 -0.9391  3.4721
  365MOL0     H48159   2.353   3.346   8.439 -0.5573  0.8467 -0.4396
  365MOL0     H48160   2.114   3.372   8.464  0.1853 -1.0403  0.6675
  365MOL0     H48161   2.148   3.210   8.406  1.2370 -1.2806 -1.0710
  365MOL0     H48162   2.808   4.138   7.878 -0.9120 -0.0065  1.6312
  365MOL0     H48163   2.984   4.300   7.863 -0.7815 -0.2491 -2.2078
  365MOL0     H48164   3.588   4.154   7.788  2.1623 -0.1296 -0.2103
  365MOL0     H48165   3.798   4.274   7.852  1.0906  1.3986  1.2606
  365MOL0     H48166   3.263   3.477   7.565  0.1210 -1.7303  2.2342
  365MOL0     H48167   3.083   3.370   7.675  2.4545  0.3549 -0.1813
  365MOL0     H48168   2.460   3.506   7.775 -0.9802 -0.5047 -1.2740
  365MOL0     H48169   2.319   3.353   7.892  0.1766  1.7795  0.3954
  365MOL0     H48170   2.251   3.099   7.869  2.3648 -0.8477 -1.3583
  365MOL0     H48171   2.210   3.187   8.023  1.7588  0.4370  1.2296
  365MOL0     H48172   2.244   2.897   7.975 -2.5936 -0.6340 -0.2355
  365MOL0     H48173   2.290   2.946   8.136  1.3830  1.7709 -1.5571
  365MOL0     H48174   2.010   3.032   8.024 -2.1085 -2.0352 -0.3470
  365MOL0     H48175   2.070   3.030   8.187  0.4661 -2.9235  1.4030
  365MOL0     H48176   2.067   2.782   8.023  2.0893  2.1008 -0.7427
  365MOL0     H48177   2.092   2.782   8.195 -1.5902  0.5589  2.4216
  365MOL0     H48178   1.667   2.772   8.145 -0.5619 -0.6179  0.3638
  365MOL0     H48179   2.629   3.098   7.983 -1.2231 -0.8198 -2.7930
  365MOL0     H48180   2.806   3.271   7.907 -0.7422 -2.3183  0.0855
  366MOL0     O48181   9.937   5.896   6.792  0.2257  0.0064  0.2679
  366MOL0     C48182   9.924   5.832   6.901  0.4490  0.7397 -0.3748
  366MOL0     O48183   9.840   5.873   7.003  0.1618  0.4879  0.7929
  366MOL0     C48184   9.757   5.988   6.991  0.1965 -0.1195  0.7754
  366MOL0     C48185   9.666   5.993   6.877  0.1783  0.4749 -0.5264
  366MOL0     C48186   9.579   6.102   6.869  0.7374  0.3167  0.2737
  366MOL0     C48187   9.576   6.205   6.959 -0.7915 -0.3151 -0.2390
  366MOL0     O48188   9.505   6.324   6.949  0.0508 -0.3735 -0.5343
  366MOL0     C48189   9.400   6.349   6.848  0.4030 -0.1747  0.8695
  366MOL0     C48190   9.332   6.484   6.864  0.5940  0.8360  0.7162
  366MOL0     C48191   9.228   6.485   6.752  0.0004 -0.7375  0.6283
  366MOL0     C48192   9.135   6.613   6.761  0.5620  0.9387 -0.1727
  366MOL0     C48193   9.025   6.605   6.657  0.6751  0.1266  0.9688
  366MOL0     C48194   9.073   6.628   6.511 -0.0397  0.7417 -0.5586
  366MOL0     C48195   8.973   6.605   6.406  0.1855 -0.1901  0.2230
  366MOL0     C48196   9.026   6.623   6.262  0.6704  0.1783 -0.9144
  366MOL0     N48197   8.922   6.644   6.162  0.2452  0.1142  0.7238
  366MOL0     C48198   8.809   6.729   6.162  0.6717 -0.7284 -0.4456
  366MOL0     C48199   8.736   6.685   6.052  2.1460 -0.3341  0.0322
  366MOL0     C48200   8.594   6.724   5.990 -1.3768 -0.0016 -0.4256
  366MOL0     C48201   8.491   6.693   6.099  0.4455  0.3982 -0.3930
  366MOL0     C48202   8.353   6.761   6.066 -0.0557  0.2377 -0.2597
  366MOL0     C48203   8.250   6.673   6.142 -0.7053 -0.2247 -0.3885
  366MOL0     O48204   8.114   6.704   6.095 -0.9124  0.2418  0.0570
  366MOL0     C48205   8.018   6.609   6.130 -0.2343 -0.3242  0.0463
  366MOL0     C48206   8.035   6.492   6.207 -0.5602 -0.0567  0.6197
  366MOL0     C48207   7.938   6.395   6.228 -0.1156  0.6532  0.1754
  366MOL0     C48208   7.808   6.418   6.176 -0.3379  0.0747 -0.1442
  366MOL0     C48209   7.702   6.312   6.198 -1.1099  0.2661  0.5732
  366MOL0     O48210   7.750   6.200   6.255 -0.3534 -0.0437 -0.9257
  366MOL0     C48211   7.647   6.115   6.299  0.0948  0.5071  0.7301
  366MOL0     C48212   7.633   5.996   6.226 -0.4398 -0.0410  0.5001
  366MOL0     C48213   7.517   5.921   6.241  0.0762 -0.1029  0.3585
  366MOL0     C48214   7.414   5.966   6.329 -0.2568  0.2063 -0.1391
  366MOL0     O48215   7.289   5.906   6.331 -0.3939 -0.1833  0.8282
  366MOL0     C48216   7.249   5.800   6.239 -0.4892 -0.6869 -0.8016
  366MOL0     C48217   7.104   5.776   6.257 -1.0326 -0.4992  0.7065
  366MOL0     C48218   7.061   5.641   6.196  0.2553 -0.4109 -0.5269
  366MOL0     C48219   6.911   5.596   6.223  0.2822  0.2654 -0.2254
  366MOL0     C48220   6.891   5.444   6.180 -0.2920 -0.3445  0.3756
  366MOL0     C48221   6.739   5.426   6.169  0.6234 -0.4210  0.0438
  366MOL0     C48222   6.671   5.418   6.311 -0.2249  0.4716 -0.3309
  366MOL0     C48223   6.536   5.355   6.303 -0.6934  0.6295 -0.2259
  366MOL0    Cl48224   6.543   5.182   6.264  0.2392 -0.2866 -0.0153
  366MOL0     C48225   7.442   6.080   6.413  0.0953  0.3303  0.5288
  366MOL0     C48226   7.556   6.159   6.401 -0.1664  0.4823  0.4392
  366MOL0     O48227   7.588   6.333   6.148 -0.4960  0.7527 -0.3544
  366MOL0     C48228   7.782   6.533   6.100  0.5968 -0.6701 -0.4576
  366MOL0     C48229   7.889   6.627   6.081  1.0308  0.2139  0.7946
  366MOL0     N48230   8.791   6.574   6.003 -0.7974 -0.3860  0.7485
  366MOL0     N48231   8.908   6.558   6.055 -0.1524 -0.4857  0.2342
  366MOL0     C48232   9.675   6.199   7.063 -0.5964 -0.5817  0.0058
  366MOL0     C48233   9.757   6.089   7.089  0.2613 -0.3760  0.4173
  366MOL0     C48234   9.994   5.705   6.911  0.2910  0.0168  0.0110
  366MOL0     C48235  10.111   5.670   6.836 -0.5635  0.9492  0.3678
  366MOL0     C48236  10.179   5.551   6.856  0.3703 -0.0601 -0.6172
  366MOL0     C48237  10.130   5.457   6.946  0.5436 -0.5673 -0.0092
  366MOL0     O48238  10.199   5.345   6.976 -0.1341  0.4675  0.3277
  366MOL0     C48239  10.124   5.227   6.980  0.2441  0.2161  0.6868
  366MOL0     C48240  10.066   5.184   6.833  1.1113 -0.0224 -0.1808
  366MOL0     C48241  10.182   5.107   6.759 -0.9125 -0.6341 -0.3080
  366MOL0     C48242  10.158   5.078   6.606 -0.7017  0.5699 -0.0091
  366MOL0     C48243  10.276   5.013   6.549  0.3249 -0.3725 -0.1688
  366MOL0     C48244  10.379   4.948   6.518  0.8362 -0.1737  0.3238
  366MOL0     C48245  10.012   5.490   7.019  0.2538 -0.0548 -0.6773
  366MOL0     C48246   9.945   5.612   7.003 -0.6878 -0.2871 -0.8344
  366MOL0     H48247   9.654   5.915   6.802  1.7392  0.7462 -1.0984
  366MOL0     H48248   9.517   6.102   6.780  1.9983  3.1492 -0.7012
  366MOL0     H48249   9.325   6.270   6.845 -0.4981  0.6736  0.4404
  366MOL0     H48250   9.447   6.345   6.749 -0.0906  0.7263  0.5801
  366MOL0     H48251   9.408   6.560   6.842  1.5920  0.0539  1.3807
  366MOL0     H48252   9.281   6.503   6.959 -0.8385  1.0474 -0.0653
  366MOL0     H48253   9.164   6.396   6.760 -1.3407  0.3378  2.8033
  366MOL0     H48254   9.274   6.479   6.653 -0.1853  2.6724  0.2355
  366MOL0     H48255   9.085   6.621   6.858 -1.5948  1.5006 -1.2790
  366MOL0     H48256   9.190   6.708   6.756  0.3288  1.1753  1.3255
  366MOL0     H48257   8.955   6.687   6.676 -1.2752 -1.0046 -0.9142
  366MOL0     H48258   8.979   6.506   6.667  0.1658  0.2315 -0.2153
  366MOL0     H48259   9.158   6.561   6.494  1.4703  2.4615 -0.2547
  366MOL0     H48260   9.125   6.725   6.510  1.5105 -0.0652 -1.2066
  366MOL0     H48261   8.920   6.510   6.411  1.7804 -1.3754 -2.8354
  366MOL0     H48262   8.900   6.685   6.423  2.0552  1.5803  0.2466
  366MOL0     H48263   9.084   6.536   6.231 -0.5331 -1.3954  1.0242
  366MOL0     H48264   9.083   6.716   6.274 -1.2978  1.1380  2.2602
  366MOL0     H48265   8.781   6.804   6.236  0.9622  0.6318 -1.6601
  366MOL0     H48266   8.563   6.671   5.900 -1.0708 -1.7736  0.4787
  366MOL0     H48267   8.595   6.833   5.981  0.2979  0.1018  0.6344
  366MOL0     H48268   8.515   6.729   6.199 -1.2464  0.0525  0.1721
  366MOL0     H48269   8.482   6.585   6.112  0.1153  0.5180  0.3924
  366MOL0     H48270   8.358   6.867   6.096  4.8886  0.6770 -1.6599
  366MOL0     H48271   8.328   6.764   5.959 -0.6198  0.2208 -0.1286
  366MOL0     H48272   8.256   6.687   6.250 -3.7162 -0.1623 -0.1449
  366MOL0     H48273   8.272   6.568   6.121 -0.4948 -0.2992  0.2081
  366MOL0     H48274   8.129   6.460   6.250  0.4593  0.5501 -1.0471
  366MOL0     H48275   7.970   6.304   6.278  1.5841  0.6715 -0.7924
  366MOL0     H48276   7.698   5.962   6.147 -3.0848 -0.6439 -1.5392
  366MOL0     H48277   7.502   5.829   6.185  1.5933 -0.5614  0.6484
  366MOL0     H48278   7.301   5.707   6.266  1.3594  0.7951  1.1451
  366MOL0     H48279   7.267   5.825   6.135 -0.8404  0.4318 -0.6042
  366MOL0     H48280   7.046   5.842   6.192  2.0387 -0.2082 -2.0068
  366MOL0     H48281   7.063   5.778   6.358 -3.5037 -1.1976 -0.1895
  366MOL0     H48282   7.132   5.574   6.245 -0.9448 -2.6415 -1.6579
  366MOL0     H48283   7.080   5.645   6.089  2.1886 -0.8292 -0.2272
  366MOL0     H48284   6.881   5.615   6.326 -0.4367 -0.4941 -0.2809
  366MOL0     H48285   6.842   5.662   6.168 -1.6634  0.2905  2.0710
  366MOL0     H48286   6.940   5.382   6.255 -0.2587  1.3859  1.8323
  366MOL0     H48287   6.930   5.419   6.080  0.0860 -0.7604  0.6235
  366MOL0     H48288   6.719   5.329   6.122  2.4979 -1.5327  1.4032
  366MOL0     H48289   6.689   5.508   6.117 -1.8008 -1.2704  0.8973
  366MOL0     H48290   6.742   5.370   6.379 -1.8657  0.4831  1.4976
  366MOL0     H48291   6.648   5.516   6.354 -0.3750 -0.4035  1.7125
  366MOL0     H48292   6.476   5.408   6.229 -0.2136  1.1003 -0.2758
  366MOL0     H48293   6.474   5.361   6.393 -1.7556  0.1033 -0.8995
  366MOL0     H48294   7.359   6.122   6.470 -0.8999 -1.0703  0.1633
  366MOL0     H48295   7.573   6.247   6.462  0.1679  2.9158 -2.8890
  366MOL0     H48296   7.680   6.548   6.064  0.7542  2.1549  0.0071
  366MOL0     H48297   7.868   6.721   6.030  0.5248  0.9097  2.2464
  366MOL0     H48298   9.686   6.287   7.126 -0.4855 -0.2086 -0.5199
  366MOL0     H48299   9.831   6.094   7.168  1.0541  1.0931 -0.3638
  366MOL0     H48300  10.163   5.731   6.763  1.8390 -0.6640  0.6335
  366MOL0     H48301  10.268   5.534   6.796  1.0322  1.1308 -0.0174
  366MOL0     H48302  10.037   5.225   7.046 -0.8651 -2.8337 -0.6813
  366MOL0     H48303  10.184   5.145   7.019 -0.1630  0.7904  2.6001
  366MOL0     H48304   9.977   5.122   6.847  0.6267  0.6222 -0.3521
  366MOL0     H48305  10.028   5.270   6.776  0.5605 -0.8331 -1.0598
  366MOL0     H48306  10.198   5.013   6.811 -0.8583 -1.7288 -2.2217
  366MOL0     H48307  10.274   5.164   6.775 -1.2847 -0.5203  1.6674
  366MOL0     H48308  10.075   5.010   6.590  1.4452 -1.8255 -1.7314
  366MOL0     H48309  10.142   5.174   6.556  1.4460  1.0001  0.0053
  366MOL0     H48310  10.459   4.895   6.470  1.7035  1.4188 -0.0526
  366MOL0     H48311   9.997   5.428   7.107  2.9571 -0.4247 -0.3918
  366MOL0     H48312   9.852   5.629   7.055 -0.1018  0.2961  0.0619
  367MOL0     O48313   7.026   3.891   3.177  0.0752 -0.0529 -0.7567
  367MOL0     C48314   7.037   4.015   3.173  0.1497 -0.0954 -0.1998
  367MOL0     O48315   6.940   4.102   3.119 -0.6196  0.3579  0.7370
  367MOL0     C48316   6.822   4.041   3.085  0.4702  0.1428  0.0739
  367MOL0     C48317   6.717   4.017   3.181 -0.1653  0.1312  0.5023
  367MOL0     C48318   6.601   3.955   3.144  0.7035  0.3191  0.2047
  367MOL0     C48319   6.585   3.919   3.008  0.3844  0.5461 -0.2146
  367MOL0     O48320   6.485   3.844   2.955 -0.1032 -0.5039  0.5055
  367MOL0     C48321   6.373   3.818   3.032  0.6837  0.6043  0.3505
  367MOL0     C48322   6.270   3.759   2.938 -0.5616  0.1450 -0.3463
  367MOL0     C48323   6.133   3.756   3.006 -0.5245 -0.3335  1.1307
  367MOL0     C48324   6.023   3.767   2.897 -0.2451 -0.9933 -1.1462
  367MOL0     C48325   5.883   3.770   2.941 -0.2127 -0.4939  0.0231
  367MOL0     C48326   5.796   3.808   2.822 -0.9231  0.6057 -0.0594
  367MOL0     C48327   5.647   3.767   2.827 -1.4012 -0.4885 -1.0686
  367MOL0     C48328   5.579   3.872   2.910  0.5031 -0.5878  0.2738
  367MOL0     N48329   5.436   3.872   2.917  0.8510 -0.0192 -0.1587
  367MOL0     C48330   5.367   3.779   2.998 -0.4359 -0.6946  0.1737
  367MOL0     C48331   5.237   3.791   2.959 -0.2236  0.1488 -1.1531
  367MOL0     C48332   5.138   3.700   3.019  0.8567 -0.3141  0.4850
  367MOL0     C48333   5.019   3.695   2.920 -0.4967  0.1164  0.1332
  367MOL0     C48334   4.913   3.598   2.967 -0.0788 -0.1086  1.0163
  367MOL0     C48335   4.800   3.612   2.861 -1.1300 -0.3040 -0.2615
  367MOL0     O48336   4.697   3.516   2.888  0.1118 -0.3383 -0.3389
  367MOL0     C48337   4.564   3.548   2.870  0.0521 -0.5398 -0.2679
  367MOL0     C48338   4.508   3.675   2.892  0.3305 -0.1725  0.8089
  367MOL0     C48339   4.372   3.701   2.887  0.3431  0.9208  0.3192
  367MOL0     C48340   4.282   3.602   2.847  0.2729  0.7058  0.0155
  367MOL0     C48341   4.141   3.635   2.820 -0.5112 -0.6026  0.6426
  367MOL0     O48342   4.100   3.762   2.845 -0.1284  0.2306 -0.3099
  367MOL0     C48343   3.968   3.799   2.810 -1.3356 -0.1440 -0.9018
  367MOL0     C48344   3.919   3.797   2.678 -0.6422  0.4148 -0.0707
  367MOL0     C48345   3.783   3.828   2.666  0.3994 -0.0063 -0.1186
  367MOL0     C48346   3.701   3.857   2.782 -0.4773  0.5033  1.0750
  367MOL0     O48347   3.576   3.896   2.767  0.9025  0.5959 -0.6746
  367MOL0     C48348   3.493   3.793   2.707  0.9519 -0.4578  0.9969
  367MOL0     C48349   3.352   3.793   2.772  0.0436  1.0109 -0.4670
  367MOL0     C48350   3.353   3.776   2.925 -0.0549  0.2414 -0.2829
  367MOL0     C48351   3.221   3.747   2.992 -1.2363  0.0452 -0.2037
  367MOL0     C48352   3.244   3.722   3.143  0.3196  0.6734 -0.3140
  367MOL0     C48353   3.123   3.658   3.213  0.1183  0.8246 -0.5297
  367MOL0     C48354   3.138   3.641   3.360 -0.5252  0.3717 -0.7001
  367MOL0     C48355   3.232   3.524   3.403  0.6023 -0.3233  0.7580
  367MOL0    Cl48356   3.263   3.529   3.585 -0.0574 -0.1457  0.0608
  367MOL0     C48357   3.760   3.861   2.901  0.1010 -0.3846 -0.0809
  367MOL0     C48358   3.889   3.832   2.917 -0.7568  0.6851 -0.9667
  367MOL0     O48359   4.077   3.544   2.765  0.5669  0.8727 -0.1498
  367MOL0     C48360   4.335   3.476   2.828 -0.5597 -0.4101 -0.4760
  367MOL0     C48361   4.472   3.448   2.836  0.3614  0.2834  0.1175
  367MOL0     N48362   5.220   3.903   2.880 -0.1476  0.0932  0.3481
  367MOL0     N48363   5.340   3.938   2.839  1.1245  0.3740  0.1538
  367MOL0     C48364   6.682   3.958   2.912 -0.2178 -0.6162 -0.1367
  367MOL0     C48365   6.800   4.018   2.952  0.2244 -0.3576 -1.1333
  367MOL0     C48366   7.165   4.070   3.222  0.0623  0.6130 -0.2652
  367MOL0     C48367   7.267   3.987   3.276  0.7098 -0.9491  0.7617
  367MOL0     C48368   7.389   4.040   3.311  0.1843 -0.0586  0.2887
  367MOL0     C48369   7.414   4.170   3.302 -0.4499  0.0144  1.4168
  367MOL0     O48370   7.538   4.229   3.325  0.4485  0.2234 -0.4470
  367MOL0     C48371   7.616   4.186   3.438  0.5295 -0.1182  0.7661
  367MOL0     C48372   7.732   4.273   3.471 -0.4474  0.4193  0.2984
  367MOL0     C48373   7.682   4.406   3.527  0.6529  0.2158 -0.2118
  367MOL0     C48374   7.783   4.527   3.490  0.1044  1.2471  0.3766
  367MOL0     C48375   7.930   4.499   3.528 -0.4169 -0.4116  0.2310
  367MOL0     C48376   8.045   4.468   3.558 -0.5319 -0.6987  0.2350
  367MOL0     C48377   7.321   4.257   3.252  0.3700  0.8056  0.5528
  367MOL0     C48378   7.196   4.205   3.207 -0.6516 -0.6874 -0.0653
  367MOL0     H48379   6.735   4.045   3.284 -0.2729 -1.2218  0.9098
  367MOL0     H48380   6.536   3.930   3.228  0.2769 -0.9353 -0.4745
  367MOL0     H48381   6.326   3.910   3.069 -0.1199  2.1341 -3.9129
  367MOL0     H48382   6.412   3.753   3.111 -0.5548 -0.1552  0.3683
  367MOL0     H48383   6.316   3.661   2.922  1.9264  0.4096  3.7773
  367MOL0     H48384   6.259   3.809   2.841 -2.2381 -1.9966 -1.3376
  367MOL0     H48385   6.121   3.842   3.073 -2.4780  1.5530 -1.4431
  367MOL0     H48386   6.127   3.657   3.053  0.5897 -0.5177  0.9133
  367MOL0     H48387   6.043   3.859   2.841  0.4080  1.1039  2.2553
  367MOL0     H48388   6.030   3.689   2.820  0.9153 -0.6216 -1.4343
  367MOL0     H48389   5.862   3.837   3.025 -2.8676  1.5578 -2.0877
  367MOL0     H48390   5.861   3.667   2.969  1.3624 -0.6384  0.8380
  367MOL0     H48391   5.846   3.762   2.736  2.2752  1.2605  1.3246
  367MOL0     H48392   5.810   3.912   2.794 -0.8044  0.0879 -2.0685
  367MOL0     H48393   5.606   3.762   2.725 -0.6436 -3.0154 -1.3245
  367MOL0     H48394   5.628   3.672   2.877 -0.2477  0.7776  1.9704
  367MOL0     H48395   5.613   3.958   2.853  2.8036 -2.0295 -0.6608
  367MOL0     H48396   5.628   3.890   3.006  1.3797  1.7389 -0.5589
  367MOL0     H48397   5.404   3.709   3.072  0.3207 -0.8015 -0.2918
  367MOL0     H48398   5.107   3.737   3.117  0.0759  0.2951  0.0193
  367MOL0     H48399   5.181   3.599   3.022  3.5207  0.7513  0.3181
  367MOL0     H48400   5.048   3.651   2.824 -1.3624 -3.0895  1.1931
  367MOL0     H48401   4.974   3.793   2.905  0.1319  0.3201 -0.4667
  367MOL0     H48402   4.961   3.500   2.967  2.2160  0.7639 -3.1361
  367MOL0     H48403   4.877   3.625   3.067  0.1347  0.7704  0.8699
  367MOL0     H48404   4.843   3.565   2.772  1.3100 -2.7437  2.0172
  367MOL0     H48405   4.774   3.718   2.855 -0.0864  0.2927  3.4392
  367MOL0     H48406   4.571   3.763   2.902 -0.8165  1.0815 -2.0102
  367MOL0     H48407   4.337   3.801   2.910  2.2420  1.5541  0.6533
  367MOL0     H48408   3.986   3.760   2.601 -1.3020 -1.3143  0.1397
  367MOL0     H48409   3.737   3.818   2.569 -0.1058 -0.4638  0.1604
  367MOL0     H48410   3.536   3.694   2.722  0.9672 -0.6913 -0.3929
  367MOL0     H48411   3.489   3.809   2.599  0.3120 -0.7534  0.9666
  367MOL0     H48412   3.290   3.717   2.724 -0.3033  1.0672 -0.1077
  367MOL0     H48413   3.301   3.888   2.752 -0.3154  1.2564  1.4823
  367MOL0     H48414   3.414   3.858   2.965  0.4228 -1.7566  3.5473
  367MOL0     H48415   3.419   3.690   2.938  2.0045  1.6307 -1.0128
  367MOL0     H48416   3.151   3.828   2.972  1.1764  1.9089 -1.7147
  367MOL0     H48417   3.178   3.656   2.949 -0.4042 -1.4601  1.9460
  367MOL0     H48418   3.265   3.817   3.192  0.7555 -0.1485  1.1632
  367MOL0     H48419   3.328   3.658   3.170 -0.1974  0.2760  0.4150
  367MOL0     H48420   3.096   3.562   3.168  2.0238  0.3045 -0.6604
  367MOL0     H48421   3.036   3.723   3.201  1.8456  3.3967  0.0865
  367MOL0     H48422   3.188   3.733   3.392 -0.7160 -0.5635  2.7347
  367MOL0     H48423   3.041   3.630   3.409 -0.7523  0.9836 -1.0113
  367MOL0     H48424   3.326   3.513   3.348 -1.0125 -2.8108 -1.7627
  367MOL0     H48425   3.192   3.423   3.392 -0.7349  0.0134  2.1525
  367MOL0     H48426   3.703   3.896   2.986 -1.5697  0.9031 -1.6578
  367MOL0     H48427   3.933   3.836   3.016 -0.6375  1.6028 -1.0424
  367MOL0     H48428   4.266   3.400   2.792 -1.4854  0.2807 -0.1814
  367MOL0     H48429   4.513   3.350   2.813 -0.9810 -0.9458  2.4990
  367MOL0     H48430   6.671   3.931   2.808  0.8188  1.6789 -0.9085
  367MOL0     H48431   6.887   4.036   2.889  1.8670 -1.2715  0.7562
  367MOL0     H48432   7.254   3.880   3.282 -0.4214 -1.1583 -2.8222
  367MOL0     H48433   7.471   3.978   3.345  0.0549 -1.5990 -1.9581
  367MOL0     H48434   7.662   4.089   3.418  0.3356 -0.2875  1.1252
  367MOL0     H48435   7.548   4.178   3.524  0.4801  0.1188  0.7504
  367MOL0     H48436   7.802   4.227   3.542  3.2923  3.7194 -0.8645
  367MOL0     H48437   7.792   4.299   3.384  1.2993  1.6045  1.7893
  367MOL0     H48438   7.669   4.386   3.634  0.7359 -1.0962 -0.4256
  367MOL0     H48439   7.585   4.428   3.482 -0.5654 -2.0605  1.1156
  367MOL0     H48440   7.787   4.523   3.381  2.0994 -0.1459  0.4634
  367MOL0     H48441   7.759   4.625   3.532  0.8312  2.5743 -2.0813
  367MOL0     H48442   8.141   4.442   3.597  1.9592  1.1243 -4.0220
  367MOL0     H48443   7.348   4.361   3.237 -0.8981  1.1569  0.6289
  367MOL0     H48444   7.129   4.275   3.158  0.9600  2.3105  1.6813
  368MOL0     O48445   7.718   7.532   0.379 -0.1705 -0.7705  0.1214
  368MOL0     C48446   7.728   7.564   0.259 -0.6124  0.2438 -0.8778
  368MOL0     O48447   7.630   7.586   0.168  0.4270 -0.3438 -0.0641
  368MOL0     C48448   7.498   7.550   0.175  0.2187 -0.4345 -0.1759
  368MOL0     C48449   7.436   7.496   0.291 -0.0013  0.1096  1.3264
  368MOL0     C48450   7.299   7.470   0.285  0.7309 -0.3451  0.2892
  368MOL0     C48451   7.222   7.487   0.175 -0.2287 -0.7121  0.6435
  368MOL0     O48452   7.089   7.452   0.174  0.3697  0.8492 -1.0659
  368MOL0     C48453   7.017   7.455   0.056 -0.6294  0.2549 -0.0613
  368MOL0     C48454   6.876   7.414   0.083 -0.0983  0.6769  0.6244
  368MOL0     C48455   6.800   7.440  -0.050 -0.2234  0.2656  0.7811
  368MOL0     C48456   6.658   7.403  -0.029  0.3341 -0.4045 -0.2392
  368MOL0     C48457   6.588   7.374  -0.169 -0.6265 -0.2157  0.1020
  368MOL0     C48458   6.557   7.493  -0.255  0.1293  0.1881 -0.6203
  368MOL0     C48459   6.465   7.464  -0.374  0.2450 -0.5054 -0.0454
  368MOL0     C48460   6.318   7.482  -0.334 -0.0910  0.2821  0.3892
  368MOL0     N48461   6.237   7.435  -0.452  0.8441  0.3050  0.1473
  368MOL0     C48462   6.167   7.508  -0.544 -0.0318  0.1902  0.3276
  368MOL0     C48463   6.075   7.422  -0.594  0.1483 -0.4102 -0.6385
  368MOL0     C48464   5.978   7.452  -0.707  0.2584  1.3228 -0.2945
  368MOL0     C48465   5.836   7.425  -0.650  0.1335  0.3238  0.1654
  368MOL0     C48466   5.792   7.276  -0.632 -0.4760  0.8218  1.0238
  368MOL0     C48467   5.643   7.254  -0.634  0.1425 -0.2859 -0.1192
  368MOL0     O48468   5.617   7.123  -0.675 -0.3506  0.3301  0.3692
  368MOL0     C48469   5.484   7.085  -0.694  0.0484  0.5220 -0.1553
  368MOL0     C48470   5.369   7.168  -0.692  0.6333 -0.1553 -0.3823
  368MOL0     C48471   5.243   7.111  -0.719  0.0119  0.4038 -0.2764
  368MOL0     C48472   5.224   6.975  -0.730 -0.1350  0.2510  0.2717
  368MOL0     C48473   5.090   6.915  -0.753 -0.2357  0.2328  0.5910
  368MOL0     O48474   5.005   6.995  -0.819  0.5290 -0.1738  0.3638
  368MOL0     C48475   4.864   6.975  -0.824 -0.3393  0.6642  0.9801
  368MOL0     C48476   4.807   6.850  -0.850  0.2412 -0.3353 -0.5798
  368MOL0     C48477   4.667   6.839  -0.875 -0.5568  0.2657 -0.2550
  368MOL0     C48478   4.589   6.954  -0.887 -0.4880 -0.1820  0.0927
  368MOL0     O48479   4.460   6.941  -0.940 -0.1317  0.6638  0.6516
  368MOL0     C48480   4.377   7.050  -0.916 -1.1635 -0.1367  0.6192
  368MOL0     C48481   4.246   6.992  -0.882 -0.4665  0.3121  1.0107
  368MOL0     C48482   4.229   6.913  -0.752 -0.3095 -0.2255  0.1118
  368MOL0     C48483   4.085   6.859  -0.744 -0.0573 -0.1400  0.3616
  368MOL0     C48484   4.068   6.830  -0.595  0.9231  0.3695 -0.7366
  368MOL0     C48485   3.938   6.765  -0.559 -0.0145 -0.0990  0.3234
  368MOL0     C48486   3.827   6.868  -0.583 -0.2425  0.2729 -0.7465
  368MOL0     C48487   3.688   6.811  -0.545 -0.2143  0.6951 -0.1735
  368MOL0    Cl48488   3.625   6.695  -0.667  0.0737  0.1496 -0.2204
  368MOL0     C48489   4.656   7.085  -0.875 -0.1263 -0.6453 -0.8783
  368MOL0     C48490   4.790   7.097  -0.841  0.0221 -0.2047 -0.3461
  368MOL0     O48491   5.068   6.800  -0.717 -0.0840 -0.5936 -0.4738
  368MOL0     C48492   5.336   6.888  -0.725 -0.4085 -0.1260  0.8644
  368MOL0     C48493   5.461   6.948  -0.708  0.3247  0.4711 -0.2261
  368MOL0     N48494   6.096   7.297  -0.540 -0.0949 -0.1336  0.8205
  368MOL0     N48495   6.188   7.316  -0.451  0.2287  0.7061  0.8497
  368MOL0     C48496   7.288   7.535   0.058 -0.1009  0.6411 -0.1410
  368MOL0     C48497   7.419   7.571   0.060  1.2093  0.9129  0.4502
  368MOL0     C48498   7.864   7.591   0.203  0.1050  0.0847 -0.7557
  368MOL0     C48499   7.885   7.583   0.066  0.2164  0.1864 -0.5147
  368MOL0     C48500   7.998   7.635   0.013 -0.3917 -0.5713 -0.3400
  368MOL0     C48501   8.101   7.688   0.083 -0.7773 -0.7189 -0.4120
  368MOL0     O48502   8.208   7.727   0.008 -0.5960  0.2377  0.3159
  368MOL0     C48503   8.307   7.807   0.069 -0.4470 -0.3888  0.1514
  368MOL0     C48504   8.423   7.828  -0.027  0.7393  0.0768 -0.2370
  368MOL0     C48505   8.491   7.698  -0.071 -0.6500  1.0365  0.2729
  368MOL0     C48506   8.578   7.727  -0.193  0.2672  0.6596 -0.3402
  368MOL0     C48507   8.634   7.604  -0.244  0.0838  0.8315  0.7243
  368MOL0     C48508   8.673   7.502  -0.301  0.5548  0.9470  0.5683
  368MOL0     C48509   8.090   7.692   0.224  0.7428 -0.2543 -0.8066
  368MOL0     C48510   7.970   7.639   0.283  0.3189 -0.0783  0.0970
  368MOL0     H48511   7.482   7.495   0.389 -0.5253  4.4803  1.8163
  368MOL0     H48512   7.257   7.443   0.382 -0.9786 -1.3740 -0.6956
  368MOL0     H48513   7.066   7.393  -0.020 -0.4631  1.5344 -1.0209
  368MOL0     H48514   7.018   7.557   0.017  1.3952  1.2195  2.2416
  368MOL0     H48515   6.836   7.482   0.159  1.6913 -1.1830  3.4340
  368MOL0     H48516   6.865   7.308   0.111  0.7626  0.8003  1.4874
  368MOL0     H48517   6.839   7.386  -0.136 -2.3033 -0.9949  0.5508
  368MOL0     H48518   6.792   7.548  -0.067 -2.5536  0.2020  1.0235
  368MOL0     H48519   6.651   7.310   0.027  1.2043  1.3145  2.9472
  368MOL0     H48520   6.609   7.475   0.036  0.1762  0.7467 -1.5889
  368MOL0     H48521   6.498   7.324  -0.132  0.2888 -0.5305  2.0612
  368MOL0     H48522   6.640   7.295  -0.224 -0.9162 -0.7349  0.5625
  368MOL0     H48523   6.652   7.540  -0.283  0.3481  0.7656  0.9863
  368MOL0     H48524   6.505   7.567  -0.195  0.0086  0.9981 -1.7017
  368MOL0     H48525   6.494   7.539  -0.448  1.0424  0.3163  1.0632
  368MOL0     H48526   6.480   7.364  -0.417 -1.3256 -1.4049  1.3544
  368MOL0     H48527   6.295   7.584  -0.304  2.4944  0.8498  0.7216
  368MOL0     H48528   6.288   7.416  -0.253 -1.7146 -0.5714 -0.8646
  368MOL0     H48529   6.191   7.610  -0.571  1.2302 -0.0085  0.6600
  368MOL0     H48530   5.998   7.376  -0.782 -1.7714  1.8460 -1.4544
  368MOL0     H48531   5.978   7.546  -0.763  2.7238  1.1291 -0.7064
  368MOL0     H48532   5.770   7.476  -0.722  1.4980  1.4963 -0.3156
  368MOL0     H48533   5.839   7.475  -0.553  0.3124  2.1878 -0.7512
  368MOL0     H48534   5.831   7.219  -0.717  0.9892 -1.4072  3.0474
  368MOL0     H48535   5.831   7.230  -0.541  0.8240  2.0039  1.1010
  368MOL0     H48536   5.601   7.327  -0.703 -2.7685 -0.5224  1.2616
  368MOL0     H48537   5.594   7.284  -0.541  0.4927  1.8945 -0.5915
  368MOL0     H48538   5.368   7.276  -0.678 -1.8183  0.0542 -1.5895
  368MOL0     H48539   5.154   7.173  -0.717  0.0271  0.4641 -1.3377
  368MOL0     H48540   4.852   6.752  -0.843 -1.8478 -1.2615  1.3277
  368MOL0     H48541   4.618   6.743  -0.886  1.2789 -0.5343 -2.0527
  368MOL0     H48542   4.372   7.119  -1.001 -2.3402 -0.3567  0.4861
  368MOL0     H48543   4.397   7.112  -0.828  0.6245 -0.3721  0.4005
  368MOL0     H48544   4.225   6.910  -0.952 -0.0201 -0.1190  1.3735
  368MOL0     H48545   4.163   7.061  -0.898 -2.7922 -1.9360  2.5920
  368MOL0     H48546   4.246   6.987  -0.673  0.5284  0.0767 -0.3422
  368MOL0     H48547   4.293   6.827  -0.735 -0.2891 -0.3016 -0.3459
  368MOL0     H48548   4.011   6.929  -0.782  0.2694 -0.3284 -0.6694
  368MOL0     H48549   4.079   6.762  -0.795  2.2413  0.5246 -1.3262
  368MOL0     H48550   4.076   6.920  -0.533 -0.5918 -0.6612  1.0495
  368MOL0     H48551   4.150   6.764  -0.566 -0.1872 -0.8044 -0.1721
  368MOL0     H48552   3.942   6.736  -0.454  3.0816  1.4329  0.7473
  368MOL0     H48553   3.921   6.672  -0.614  1.1052  0.4352 -0.9912
  368MOL0     H48554   3.852   6.947  -0.512  1.3677 -1.9814  1.3422
  368MOL0     H48555   3.826   6.920  -0.679 -0.3035  3.8877  1.0521
  368MOL0     H48556   3.623   6.897  -0.525  1.3427  1.5519  1.5915
  368MOL0     H48557   3.686   6.759  -0.449 -0.0318 -0.6995 -0.9061
  368MOL0     H48558   4.608   7.175  -0.914  0.4982  0.2937  0.4521
  368MOL0     H48559   4.847   7.189  -0.850  0.8940 -0.8213 -1.4366
  368MOL0     H48560   5.329   6.780  -0.721  3.8424 -0.7542 -2.2174
  368MOL0     H48561   5.548   6.885  -0.721 -1.3511 -1.4873 -3.2906
  368MOL0     H48562   7.237   7.551  -0.036  0.1078 -0.1648 -0.3958
  368MOL0     H48563   7.458   7.619  -0.029  0.3561  1.1112  0.1723
  368MOL0     H48564   7.802   7.559   0.001 -1.5056  1.3761  1.1121
  368MOL0     H48565   8.007   7.625  -0.095  2.1794  1.5582 -0.4390
  368MOL0     H48566   8.341   7.753   0.157  1.8982  0.7223  0.0093
  368MOL0     H48567   8.267   7.905   0.099 -1.5197  0.0552 -2.3952
  368MOL0     H48568   8.381   7.882  -0.112 -1.4538  2.8665  2.4027
  368MOL0     H48569   8.493   7.891   0.029  0.0447  0.0936  0.6223
  368MOL0     H48570   8.424   7.614  -0.093  0.1079  0.4593  0.1157
  368MOL0     H48571   8.550   7.658   0.012  0.5769  2.0323 -0.0915
  368MOL0     H48572   8.513   7.760  -0.275 -0.5719 -2.3835 -1.0411
  368MOL0     H48573   8.659   7.799  -0.176  1.9178 -0.9394 -1.0000
  368MOL0     H48574   8.710   7.412  -0.346 -1.2511  1.2224 -1.6652
  368MOL0     H48575   8.153   7.745   0.295  1.0442  0.8817 -1.8924
  368MOL0     H48576   7.950   7.649   0.389  2.1512  0.3772  0.4368
  369MOL0     O48577   0.127   6.335   6.817  0.5240 -0.3632 -0.1755
  369MOL0     C48578   0.039   6.248   6.806  0.5275 -0.3825  0.2865
  369MOL0     O48579  -0.092   6.272   6.774 -0.4824  0.4920  0.1672
  369MOL0     C48580  -0.143   6.402   6.799 -0.8543  0.5269  0.4155
  369MOL0     C48581  -0.124   6.464   6.916  0.0391  0.2104 -0.2052
  369MOL0     C48582  -0.183   6.588   6.939  0.4434 -0.4065 -0.0723
  369MOL0     C48583  -0.274   6.649   6.850 -1.4868  0.2670  0.7882
  369MOL0     O48584  -0.341   6.764   6.880 -0.1188  0.5741  0.5775
  369MOL0     C48585  -0.326   6.832   7.001 -0.4405 -0.0988  0.6508
  369MOL0     C48586  -0.400   6.965   7.010 -0.2431 -0.4497  0.6454
  369MOL0     C48587  -0.355   7.048   6.893 -0.3359  0.1192  0.0109
  369MOL0     C48588  -0.446   7.169   6.873 -0.1751 -0.3624  0.5038
  369MOL0     C48589  -0.379   7.282   6.799  0.0911  0.7344 -0.3539
  369MOL0     C48590  -0.353   7.245   6.651 -0.6176  0.5305 -0.4414
  369MOL0     C48591  -0.361   7.369   6.573  0.8031 -1.4444  1.2995
  369MOL0     C48592  -0.356   7.337   6.419 -0.2011  0.1826 -0.3726
  369MOL0     N48593  -0.492   7.329   6.359  0.3526 -0.3549  0.1159
  369MOL0     C48594  -0.567   7.223   6.348 -0.3391 -0.0507  0.8428
  369MOL0     C48595  -0.677   7.276   6.286 -1.2675  0.5711 -0.3184
  369MOL0     C48596  -0.797   7.194   6.243  0.9680 -0.9702 -0.6519
  369MOL0     C48597  -0.933   7.262   6.213  0.3846 -1.1116 -0.0260
  369MOL0     C48598  -0.972   7.244   6.069  0.0726  0.2524  0.4161
  369MOL0     C48599  -1.109   7.296   6.021 -0.1803  0.7163 -0.0577
  369MOL0     O48600  -1.113   7.437   6.035  0.5345  0.2088 -0.1583
  369MOL0     C48601  -1.242   7.483   6.007  0.0255 -0.2452  0.5405
  369MOL0     C48602  -1.345   7.410   5.939  0.8580  0.4600 -0.4618
  369MOL0     C48603  -1.467   7.472   5.906 -0.8246 -0.2479  0.0458
  369MOL0     C48604  -1.485   7.610   5.925 -0.2974  0.3680 -0.0810
  369MOL0     C48605  -1.609   7.678   5.877  0.4434  0.1428  0.5203
  369MOL0     O48606  -1.699   7.609   5.807 -0.7186  0.2516 -0.3527
  369MOL0     C48607  -1.798   7.676   5.749  0.8148  0.4140  0.7565
  369MOL0     C48608  -1.920   7.695   5.816 -1.3861  0.3909 -0.3653
  369MOL0     C48609  -2.027   7.759   5.752  0.4695  0.6743  1.1399
  369MOL0     C48610  -2.026   7.785   5.612  0.7507  0.0334  0.0392
  369MOL0     O48611  -2.140   7.840   5.559 -0.0616  0.2697 -0.4669
  369MOL0     C48612  -2.128   7.909   5.437 -0.2022 -0.0205  0.6510
  369MOL0     C48613  -2.229   8.019   5.431 -0.7312  0.3566 -0.2401
  369MOL0     C48614  -2.356   7.946   5.409 -0.2024  1.3463  0.2372
  369MOL0     C48615  -2.477   8.039   5.423  0.5247 -0.6880  0.7229
  369MOL0     C48616  -2.598   7.941   5.394 -0.0433 -0.9795 -0.1054
  369MOL0     C48617  -2.729   8.023   5.376  0.9769  0.6807  0.7013
  369MOL0     C48618  -2.860   7.940   5.363 -1.1024 -0.9963 -0.8525
  369MOL0     C48619  -2.853   7.873   5.225  0.7936 -0.5652  0.0679
  369MOL0    Cl48620  -2.992   7.767   5.185  0.2972 -0.2737  0.0101
  369MOL0     C48621  -1.902   7.761   5.544  0.5297  1.3874  0.8533
  369MOL0     C48622  -1.788   7.713   5.616 -0.6848  0.4099 -1.1051
  369MOL0     O48623  -1.614   7.797   5.906 -0.2644 -0.1563 -0.1996
  369MOL0     C48624  -1.382   7.681   5.993 -0.0437  0.8489  0.4719
  369MOL0     C48625  -1.265   7.619   6.027  0.1724  1.0029 -0.7120
  369MOL0     N48626  -0.662   7.413   6.262 -1.1392  0.0345 -0.4272
  369MOL0     N48627  -0.546   7.444   6.306 -0.3505  0.2990  0.4978
  369MOL0     C48628  -0.287   6.586   6.726  0.3779  0.2924 -0.6426
  369MOL0     C48629  -0.233   6.457   6.709  0.5327 -1.0072  0.4400
  369MOL0     C48630   0.076   6.113   6.841 -1.2334  0.7413  0.2252
  369MOL0     C48631  -0.026   6.022   6.856  0.0082 -0.2478 -0.6529
  369MOL0     C48632   0.002   5.903   6.912  0.1854 -0.3313  0.0176
  369MOL0     C48633   0.128   5.871   6.958 -0.0492 -0.4816  0.1587
  369MOL0     O48634   0.157   5.750   7.016  0.4220 -0.8383  0.5735
  369MOL0     C48635   0.063   5.639   7.013  0.1444 -0.2011  0.7275
  369MOL0     C48636   0.136   5.498   7.032 -0.5380 -0.2833 -0.8716
  369MOL0     C48637   0.204   5.450   6.913 -0.0579  0.3012  0.7973
  369MOL0     C48638   0.341   5.515   6.885 -0.2888  0.0479 -0.6097
  369MOL0     C48639   0.395   5.453   6.763  0.2324  0.6013 -0.2112
  369MOL0     C48640   0.438   5.386   6.668  0.0421  0.7925 -0.2301
  369MOL0     C48641   0.236   5.953   6.914  0.8344 -0.1253 -0.3843
  369MOL0     C48642   0.216   6.078   6.864  0.0131  0.0854  0.0682
  369MOL0     H48643  -0.073   6.421   7.002  0.2071  0.4758 -0.1690
  369MOL0     H48644  -0.152   6.632   7.033 -2.0549  1.8440 -0.1739
  369MOL0     H48645  -0.219   6.849   7.017 -0.6122 -0.3464  2.2470
  369MOL0     H48646  -0.352   6.757   7.077 -1.3073 -2.3310 -1.6943
  369MOL0     H48647  -0.391   7.025   7.101  0.1221  1.4387 -0.5856
  369MOL0     H48648  -0.506   6.943   7.000 -0.7879  1.8123  0.9133
  369MOL0     H48649  -0.344   6.992   6.800 -0.2055  1.4384 -0.7966
  369MOL0     H48650  -0.257   7.090   6.915  0.7962 -1.5273 -1.6622
  369MOL0     H48651  -0.544   7.144   6.831 -0.8497 -0.8849  2.3095
  369MOL0     H48652  -0.464   7.211   6.972 -0.7658  1.2140 -0.2347
  369MOL0     H48653  -0.290   7.322   6.848  0.3293  1.0600 -1.0477
  369MOL0     H48654  -0.449   7.367   6.794 -1.3375 -0.3197  0.7874
  369MOL0     H48655  -0.434   7.174   6.634 -0.9976  0.1983  2.3024
  369MOL0     H48656  -0.256   7.196   6.637 -1.3609 -0.7609 -1.3216
  369MOL0     H48657  -0.455   7.422   6.594  0.5827 -0.7192 -1.1716
  369MOL0     H48658  -0.279   7.439   6.589  0.1998 -0.4683  0.3236
  369MOL0     H48659  -0.300   7.245   6.398 -2.1930 -1.7523  2.0716
  369MOL0     H48660  -0.295   7.415   6.374 -0.2345  0.0388 -0.6727
  369MOL0     H48661  -0.549   7.119   6.374 -0.0656  0.3995  2.5879
  369MOL0     H48662  -0.810   7.124   6.327 -0.1080  0.0579  0.0643
  369MOL0     H48663  -0.773   7.136   6.154  0.3330 -0.5295 -1.1209
  369MOL0     H48664  -0.923   7.367   6.242  0.6068 -0.6348 -1.7228
  369MOL0     H48665  -1.016   7.211   6.262  0.1434 -1.0392 -0.3615
  369MOL0     H48666  -0.906   7.307   6.008 -0.3375 -1.2274 -1.6699
  369MOL0     H48667  -0.966   7.139   6.038  0.1962  0.7008 -1.1678
  369MOL0     H48668  -1.175   7.239   6.088  0.7945 -1.5819 -0.9454
  369MOL0     H48669  -1.121   7.256   5.920  2.4874 -1.3521  0.3152
  369MOL0     H48670  -1.334   7.304   5.915 -1.2203 -0.5249  2.3330
  369MOL0     H48671  -1.546   7.411   5.861 -0.8493  0.3154 -0.6931
  369MOL0     H48672  -1.928   7.668   5.921  0.9745  0.2139 -0.1653
  369MOL0     H48673  -2.121   7.770   5.806 -0.1929  0.4807  0.0671
  369MOL0     H48674  -2.130   7.836   5.356  0.4041  0.1824  0.4434
  369MOL0     H48675  -2.032   7.963   5.440 -0.8658  1.3517 -1.1458
  369MOL0     H48676  -2.217   8.084   5.343 -0.5575 -0.4479 -0.8263
  369MOL0     H48677  -2.233   8.083   5.520 -0.6479  0.0497 -0.0180
  369MOL0     H48678  -2.364   7.863   5.480  2.2683 -1.1960 -2.1871
  369MOL0     H48679  -2.352   7.912   5.305 -2.1273 -0.6327  0.7448
  369MOL0     H48680  -2.493   8.059   5.529 -1.2444 -0.1410  0.3800
  369MOL0     H48681  -2.470   8.129   5.362 -0.4929  0.8565  2.7496
  369MOL0     H48682  -2.619   7.886   5.486  0.4280 -0.6559  0.2014
  369MOL0     H48683  -2.589   7.882   5.302  1.0925  0.4236 -0.9270
  369MOL0     H48684  -2.709   8.070   5.280 -2.0840  1.0109  0.1137
  369MOL0     H48685  -2.750   8.094   5.457 -0.6079  0.6789  0.3189
  369MOL0     H48686  -2.862   7.877   5.452  0.8448  1.6711  1.2646
  369MOL0     H48687  -2.947   8.006   5.363 -0.2366  0.2082  0.1096
  369MOL0     H48688  -2.766   7.810   5.207  0.2514 -1.7743  1.4636
  369MOL0     H48689  -2.851   7.956   5.154  2.5847 -0.5946  0.0506
  369MOL0     H48690  -1.910   7.784   5.438 -5.0463 -2.8061 -0.1064
  369MOL0     H48691  -1.691   7.702   5.568 -0.5214  2.5305 -1.3997
  369MOL0     H48692  -1.389   7.787   6.012  3.2351  1.6401 -1.7577
  369MOL0     H48693  -1.183   7.679   6.066  1.8912 -0.9248 -1.2171
  369MOL0     H48694  -0.356   6.634   6.656  0.2691  2.0369  0.5851
  369MOL0     H48695  -0.250   6.406   6.615  2.7198 -2.3076  0.6569
  369MOL0     H48696  -0.128   6.054   6.836  0.5637  2.1323 -0.0360
  369MOL0     H48697  -0.077   5.829   6.923 -0.4904  0.5078  0.9670
  369MOL0     H48698   0.013   5.637   6.916  4.2018  1.1521 -1.6339
  369MOL0     H48699  -0.003   5.658   7.098  3.7338  2.0079  3.2905
  369MOL0     H48700   0.212   5.510   7.110 -2.3156  1.8213  0.6443
  369MOL0     H48701   0.066   5.421   7.065 -3.0036  1.9542 -0.5203
  369MOL0     H48702   0.135   5.466   6.830 -1.1955 -1.0970  1.4302
  369MOL0     H48703   0.213   5.341   6.917  0.7142  0.2763 -0.7072
  369MOL0     H48704   0.324   5.622   6.875 -1.3565  0.0462  0.8214
  369MOL0     H48705   0.408   5.496   6.969 -1.3148 -0.9083  0.0232
  369MOL0     H48706   0.486   5.324   6.594 -1.9861  1.0897 -1.9001
  369MOL0     H48707   0.336   5.925   6.945  1.0564  0.3550 -0.6490
  369MOL0     H48708   0.301   6.143   6.845  0.5796  0.5552  3.6177
  370MOL0     O48709   0.037   1.507   3.309 -0.4001 -0.0159 -0.5831
  370MOL0     C48710   0.129   1.582   3.279 -0.7345 -0.6866  0.2899
  370MOL0     O48711   0.115   1.713   3.254 -0.2772  0.6663 -1.3877
  370MOL0     C48712  -0.010   1.773   3.258  0.5121  0.6681  0.5663
  370MOL0     C48713  -0.118   1.728   3.184 -0.8143  0.4625 -0.1801
  370MOL0     C48714  -0.234   1.795   3.191 -0.1047  0.1706 -0.8325
  370MOL0     C48715  -0.254   1.911   3.264  0.1488 -0.0988 -0.4332
  370MOL0     O48716  -0.381   1.970   3.278 -0.0509  0.4669  0.7813
  370MOL0     C48717  -0.393   2.099   3.219 -0.0052  0.1393  0.6788
  370MOL0     C48718  -0.487   2.073   3.097 -0.4017 -0.2512  0.6136
  370MOL0     C48719  -0.626   2.040   3.138 -0.3337 -0.0307 -0.3677
  370MOL0     C48720  -0.711   2.062   3.012  0.0030  0.2973  0.7414
  370MOL0     C48721  -0.855   2.068   3.054 -0.3922  0.3980  0.4356
  370MOL0     C48722  -0.940   2.099   2.930  0.1173 -0.6966 -0.3194
  370MOL0     C48723  -1.081   2.142   2.985  0.0415  0.8208 -0.3626
  370MOL0     C48724  -1.160   2.160   2.860 -0.6762  0.5141 -0.4755
  370MOL0     N48725  -1.295   2.217   2.895 -0.4673 -0.6334 -0.5288
  370MOL0     C48726  -1.398   2.154   2.965 -0.0043 -0.5854 -0.3619
  370MOL0     C48727  -1.486   2.254   2.979  0.7858 -0.3558 -0.4883
  370MOL0     C48728  -1.627   2.247   3.036  0.3628  0.6529  0.2299
  370MOL0     C48729  -1.648   2.328   3.169  0.4395  0.5444  0.6142
  370MOL0     C48730  -1.676   2.476   3.139 -0.1021  0.3524  0.7092
  370MOL0     C48731  -1.814   2.505   3.084  0.3725 -0.5305  0.0436
  370MOL0     O48732  -1.906   2.466   3.193  0.0262 -0.5588 -0.1705
  370MOL0     C48733  -2.047   2.474   3.179 -0.0104  1.0373  0.1226
  370MOL0     C48734  -2.120   2.436   3.289 -1.0079  0.2196  0.1755
  370MOL0     C48735  -2.254   2.458   3.291  0.4869  0.2109  0.5233
  370MOL0     C48736  -2.320   2.527   3.179  0.1546 -0.0273 -0.2207
  370MOL0     C48737  -2.465   2.553   3.181  0.3692 -0.2142  0.3394
  370MOL0     O48738  -2.515   2.620   3.080  0.1295  0.2046  0.5941
  370MOL0     C48739  -2.649   2.665   3.090  0.0878  0.1220 -0.1158
  370MOL0     C48740  -2.735   2.621   2.994 -0.3741 -0.0335  0.4902
  370MOL0     C48741  -2.871   2.670   2.988 -0.8093 -0.2833 -0.1979
  370MOL0     C48742  -2.914   2.770   3.081  0.2228  0.5051 -0.0654
  370MOL0     O48743  -3.038   2.822   3.066  0.3253  0.5565 -0.0142
  370MOL0     C48744  -3.087   2.925   3.156 -0.3057 -0.0894  0.4474
  370MOL0     C48745  -3.210   2.978   3.093  0.4471 -0.7276  0.0057
  370MOL0     C48746  -3.310   2.859   3.102 -0.0591  0.2312 -0.8969
  370MOL0     C48747  -3.454   2.902   3.054  0.6893 -0.3488 -0.0896
  370MOL0     C48748  -3.514   2.808   2.950 -0.5780  0.0721 -0.1059
  370MOL0     C48749  -3.659   2.873   2.928 -0.8900  1.2471 -0.1047
  370MOL0     C48750  -3.711   2.809   2.797 -0.4783 -0.8035 -0.5219
  370MOL0     C48751  -3.852   2.864   2.756 -0.0752 -0.3660  1.3208
  370MOL0    Cl48752  -3.930   2.776   2.610  0.0546  0.1230  0.3229
  370MOL0     C48753  -2.820   2.813   3.174 -0.1188  0.3671 -0.1115
  370MOL0     C48754  -2.689   2.762   3.183  0.0669  0.1221 -0.1168
  370MOL0     O48755  -2.536   2.503   3.271  0.4809 -0.0992  0.2109
  370MOL0     C48756  -2.242   2.571   3.068  0.5764 -0.3486  0.6274
  370MOL0     C48757  -2.110   2.543   3.074 -0.5678 -0.1060  0.0406
  370MOL0     N48758  -1.446   2.371   2.929 -0.6593 -0.3669  0.5047
  370MOL0     N48759  -1.330   2.347   2.873 -0.1110  0.1168 -0.5230
  370MOL0     C48760  -0.144   1.958   3.334 -0.5607  0.0834  0.4319
  370MOL0     C48761  -0.021   1.887   3.335 -0.0476  0.2311 -0.0164
  370MOL0     C48762   0.266   1.518   3.265 -0.0962  0.7793  1.2694
  370MOL0     C48763   0.280   1.380   3.286 -0.4117  0.9094 -0.3821
  370MOL0     C48764   0.402   1.311   3.269 -0.2120 -0.4121 -0.1358
  370MOL0     C48765   0.523   1.380   3.236  0.4495 -0.5443 -0.1764
  370MOL0     O48766   0.646   1.322   3.237  0.1499 -0.4083  0.4421
  370MOL0     C48767   0.672   1.193   3.299  0.7297  0.6010  0.3629
  370MOL0     C48768   0.739   1.202   3.435  0.0832 -0.2420  1.0752
  370MOL0     C48769   0.658   1.288   3.530  0.1995  0.3473  0.4627
  370MOL0     C48770   0.708   1.276   3.670 -0.6418 -0.8496 -0.5939
  370MOL0     C48771   0.634   1.363   3.767 -0.4447 -0.2430 -0.8812
  370MOL0     C48772   0.564   1.427   3.841 -0.2814  0.8289  0.6028
  370MOL0     C48773   0.501   1.512   3.196 -0.2222 -0.2953 -0.3208
  370MOL0     C48774   0.379   1.585   3.215  0.7504 -0.8038 -0.6998
  370MOL0     H48775  -0.104   1.641   3.121 -1.2562  2.0395 -2.5801
  370MOL0     H48776  -0.323   1.767   3.136 -1.4997  2.6350  0.0427
  370MOL0     H48777  -0.299   2.140   3.182  0.5410 -1.1026  0.6452
  370MOL0     H48778  -0.438   2.172   3.287 -3.3230 -1.5365  0.4908
  370MOL0     H48779  -0.448   1.989   3.038 -0.3832  0.3498 -0.2520
  370MOL0     H48780  -0.493   2.166   3.039 -2.5042 -0.7725 -0.1156
  370MOL0     H48781  -0.657   2.111   3.216 -0.4169  1.1641 -1.4527
  370MOL0     H48782  -0.633   1.934   3.162 -0.3557 -0.9319 -3.8002
  370MOL0     H48783  -0.687   2.149   2.950 -0.1388 -0.7944 -0.9282
  370MOL0     H48784  -0.704   1.973   2.949  0.5483 -0.9964  2.5391
  370MOL0     H48785  -0.866   2.150   3.126 -0.1487 -0.5986  1.6391
  370MOL0     H48786  -0.895   1.974   3.093 -2.1772  0.4331 -1.1643
  370MOL0     H48787  -0.948   2.009   2.868 -0.9045  0.0675 -1.3361
  370MOL0     H48788  -0.893   2.180   2.874  3.1544 -3.6736 -2.4809
  370MOL0     H48789  -1.136   2.065   3.041 -1.3661  1.5981 -0.6392
  370MOL0     H48790  -1.075   2.238   3.036  2.0191  2.7093 -3.7806
  370MOL0     H48791  -1.163   2.063   2.811  2.3685  0.6203 -1.0973
  370MOL0     H48792  -1.109   2.227   2.791  1.8339 -0.3455  0.4227
  370MOL0     H48793  -1.417   2.058   3.013 -0.7659  0.0976  0.7581
  370MOL0     H48794  -1.649   2.141   3.050 -2.1393  1.1035  0.3046
  370MOL0     H48795  -1.696   2.283   2.959  2.0553 -1.1809 -2.2738
  370MOL0     H48796  -1.554   2.309   3.221  0.1055 -0.9961  0.7086
  370MOL0     H48797  -1.723   2.284   3.236 -1.1637  1.9508 -0.1747
  370MOL0     H48798  -1.672   2.535   3.231 -1.9460  2.7759 -0.6703
  370MOL0     H48799  -1.601   2.516   3.071 -0.9425  0.3642 -0.2261
  370MOL0     H48800  -1.826   2.449   2.990 -1.3868 -1.2526  0.6635
  370MOL0     H48801  -1.824   2.614   3.071  0.0626  0.0438  3.8712
  370MOL0     H48802  -2.075   2.401   3.381 -0.2904  0.1668 -0.1920
  370MOL0     H48803  -2.320   2.417   3.367 -0.2867 -0.3142 -0.4084
  370MOL0     H48804  -2.688   2.562   2.915  0.6692  0.7716  0.4849
  370MOL0     H48805  -2.942   2.644   2.910 -3.4207 -0.3499  2.0311
  370MOL0     H48806  -3.018   3.009   3.170 -0.0167 -0.0877 -0.8216
  370MOL0     H48807  -3.102   2.872   3.250  0.5107 -0.9913  0.0889
  370MOL0     H48808  -3.200   3.016   2.992  0.2173 -0.4732  0.0776
  370MOL0     H48809  -3.252   3.055   3.158 -0.7488 -0.5212 -0.9758
  370MOL0     H48810  -3.316   2.827   3.206  0.2267  2.3006 -0.1831
  370MOL0     H48811  -3.268   2.777   3.043  0.2989 -0.1153 -0.1679
  370MOL0     H48812  -3.528   2.911   3.134  1.6959  2.1433  0.6339
  370MOL0     H48813  -3.450   2.999   3.004 -0.7468 -0.6116 -0.7738
  370MOL0     H48814  -3.516   2.704   2.984  0.8852  0.1131  0.1901
  370MOL0     H48815  -3.456   2.810   2.857  1.9241 -2.8774  1.2395
  370MOL0     H48816  -3.653   2.982   2.930 -0.1124  1.2085 -0.0710
  370MOL0     H48817  -3.720   2.825   3.005  0.7815 -0.9404 -0.0506
  370MOL0     H48818  -3.642   2.841   2.718  0.5833 -2.4804 -0.3121
  370MOL0     H48819  -3.704   2.700   2.796 -1.9683 -0.9194 -0.6515
  370MOL0     H48820  -3.834   2.969   2.732 -0.8637 -0.2200  1.3405
  370MOL0     H48821  -3.921   2.873   2.840 -2.7389  1.2363 -0.8792
  370MOL0     H48822  -2.856   2.886   3.246 -1.8124 -0.8730  0.3498
  370MOL0     H48823  -2.619   2.802   3.256 -0.3606 -0.3318  0.5515
  370MOL0     H48824  -2.282   2.615   2.977 -0.9272 -2.7785  0.0287
  370MOL0     H48825  -2.047   2.586   2.998  1.9198  0.9027  2.4830
  370MOL0     H48826  -0.151   2.055   3.382 -2.6021  1.0420 -1.6012
  370MOL0     H48827   0.066   1.924   3.389  1.6891 -0.1439 -2.3711
  370MOL0     H48828   0.196   1.313   3.302 -0.2704  0.5110 -1.2394
  370MOL0     H48829   0.395   1.203   3.282 -1.0498 -0.3370  0.0914
  370MOL0     H48830   0.734   1.138   3.227  0.0131 -1.1114  0.9975
  370MOL0     H48831   0.582   1.130   3.297  0.2248  1.3182 -1.4377
  370MOL0     H48832   0.756   1.104   3.480 -1.4169 -1.4423 -0.7943
  370MOL0     H48833   0.841   1.240   3.426 -0.5653  1.6463  1.2876
  370MOL0     H48834   0.553   1.258   3.522 -0.1306  1.2563  1.1836
  370MOL0     H48835   0.666   1.394   3.507  1.5727  0.7737  2.5378
  370MOL0     H48836   0.702   1.170   3.699  0.6632 -0.6733  0.3754
  370MOL0     H48837   0.814   1.302   3.674 -0.6394 -1.0206  1.0177
  370MOL0     H48838   0.520   1.504   3.900  2.3249  0.2794  3.5375
  370MOL0     H48839   0.589   1.566   3.161 -0.6342 -0.8675 -2.3124
  370MOL0     H48840   0.381   1.689   3.186  2.5493 -1.5647 -3.6685
  371MOL0     O48841   5.554   8.551  10.777 -0.7029 -0.3879  0.4960
  371MOL0     C48842   5.633   8.630  10.828 -0.9187  0.4379 -0.5092
  371MOL0     O48843   5.612   8.725  10.922  0.2813 -0.3606 -0.0320
  371MOL0     C48844   5.484   8.726  10.976  0.0472 -0.5767 -0.4553
  371MOL0     C48845   5.373   8.760  10.892 -0.4043  0.6566  0.2759
  371MOL0     C48846   5.241   8.758  10.935  1.1115  0.2337 -0.7178
  371MOL0     C48847   5.220   8.706  11.069  0.4211 -0.6487 -0.0939
  371MOL0     O48848   5.093   8.689  11.117  0.1945  0.0844  0.5568
  371MOL0     C48849   4.987   8.773  11.070  0.4626  0.0938 -0.5001
  371MOL0     C48850   4.891   8.710  10.966 -0.3145  0.4597  0.1069
  371MOL0     C48851   4.792   8.818  10.910 -0.8198  0.2891  0.0798
  371MOL0     C48852   4.714   8.757  10.790  0.8042 -0.4208  1.2201
  371MOL0     C48853   4.576   8.830  10.759 -0.6540  0.3857  0.4148
  371MOL0     C48854   4.471   8.843  10.878 -0.0130  0.3160  0.0800
  371MOL0     C48855   4.327   8.832  10.837  0.1360  0.1429 -0.6430
  371MOL0     C48856   4.233   8.814  10.958 -1.0562  0.9754 -0.0025
  371MOL0     N48857   4.100   8.747  10.914  0.0960 -1.0202 -0.6445
  371MOL0     C48858   4.081   8.619  10.880  0.1451  0.1669  0.3871
  371MOL0     C48859   3.946   8.607  10.884 -0.5950  0.4624 -0.4105
  371MOL0     C48860   3.862   8.483  10.871  0.4429 -0.4780 -0.7389
  371MOL0     C48861   3.879   8.407  10.738 -0.6112  0.1532 -0.2389
  371MOL0     C48862   3.785   8.436  10.623  0.3394 -0.1281 -0.5601
  371MOL0     C48863   3.635   8.423  10.666  0.1148 -1.4843 -0.2027
  371MOL0     O48864   3.595   8.290  10.702  0.0609 -0.1775 -0.1240
  371MOL0     C48865   3.455   8.279  10.738 -0.3722  0.3699  0.2350
  371MOL0     C48866   3.414   8.149  10.778 -0.6961  0.4478 -0.1605
  371MOL0     C48867   3.277   8.124  10.828  0.6214 -0.0636 -0.5382
  371MOL0     C48868   3.192   8.229  10.840  0.4148 -0.1134 -0.6410
  371MOL0     C48869   3.047   8.213  10.876  0.3690  0.4830 -0.1225
  371MOL0     O48870   2.974   8.324  10.908  0.3423 -0.6452  0.6015
  371MOL0     C48871   2.847   8.310  10.958 -0.1601 -0.2917 -0.0922
  371MOL0     C48872   2.802   8.214  11.046  0.5162  0.6189  0.5075
  371MOL0     C48873   2.662   8.205  11.077 -0.2549 -0.3792 -0.2618
  371MOL0     C48874   2.565   8.294  11.030 -0.3395 -0.6653 -0.3131
  371MOL0     O48875   2.427   8.286  11.064 -0.4310 -0.2694  0.0489
  371MOL0     C48876   2.346   8.229  10.963 -0.1127  0.6454  0.3113
  371MOL0     C48877   2.199   8.281  10.971  0.2138  0.5540  0.4742
  371MOL0     C48878   2.145   8.245  11.104  0.5221  0.2406 -0.5652
  371MOL0     C48879   1.995   8.288  11.101  0.8280 -0.1772  0.0250
  371MOL0     C48880   1.932   8.269  11.238 -0.2166 -0.2215  0.8771
  371MOL0     C48881   1.776   8.284  11.249  0.0386 -0.1658 -0.7144
  371MOL0     C48882   1.719   8.415  11.196  0.3809  0.7218 -0.0959
  371MOL0     C48883   1.566   8.422  11.201  0.1307 -0.2459  0.1410
  371MOL0    Cl48884   1.521   8.527  11.056 -0.1453  0.0914  0.4120
  371MOL0     C48885   2.611   8.402  10.959 -0.5465 -1.1994 -0.0260
  371MOL0     C48886   2.749   8.411  10.918 -0.2680  0.0757  0.3208
  371MOL0     O48887   2.996   8.103  10.870  0.0571 -0.6718 -0.5269
  371MOL0     C48888   3.239   8.361  10.813  0.4471  0.8597 -0.6936
  371MOL0     C48889   3.365   8.383  10.761  0.3453 -0.7165 -0.1938
  371MOL0     N48890   3.890   8.736  10.908 -0.7711 -0.2019  0.6520
  371MOL0     N48891   3.985   8.820  10.923  0.9915  0.6642 -0.0236
  371MOL0     C48892   5.319   8.677  11.152 -0.9841  0.2627 -0.0333
  371MOL0     C48893   5.452   8.680  11.105 -0.4381  0.0550  0.2186
  371MOL0     C48894   5.780   8.621  10.789 -0.0048  0.0131 -0.2177
  371MOL0     C48895   5.830   8.524  10.693  0.3834  0.3696 -0.4481
  371MOL0     C48896   5.970   8.499  10.681 -0.1864  0.4710  0.9241
  371MOL0     C48897   6.060   8.573  10.751 -0.5488  0.3163  0.1598
  371MOL0     O48898   6.191   8.547  10.720 -0.0389 -0.0736  0.0511
  371MOL0     C48899   6.267   8.514  10.839 -0.5773  0.1494  0.1002
  371MOL0     C48900   6.235   8.385  10.903  0.1878  0.0990 -0.0621
  371MOL0     C48901   6.350   8.321  10.984  0.1868 -0.2781 -0.2911
  371MOL0     C48902   6.303   8.234  11.102 -0.2792  0.1988 -0.1169
  371MOL0     C48903   6.251   8.103  11.041 -0.2886 -0.0138 -0.7976
  371MOL0     C48904   6.214   7.994  11.009  0.4483 -0.1214  0.0916
  371MOL0     C48905   6.007   8.676  10.833 -0.0485  0.7245  0.5369
  371MOL0     C48906   5.874   8.696  10.862  0.7502  0.0473 -0.4022
  371MOL0     H48907   5.394   8.807  10.797 -1.4242  0.8489  0.1363
  371MOL0     H48908   5.165   8.784  10.862 -0.7632  0.7602  1.3191
  371MOL0     H48909   5.025   8.868  11.031  1.9302  0.2932  1.3029
  371MOL0     H48910   4.924   8.798  11.156 -0.5470 -0.8128 -0.9438
  371MOL0     H48911   4.837   8.634  11.021  2.1155  1.0763  3.6949
  371MOL0     H48912   4.956   8.663  10.891  3.8161  4.7631  0.4953
  371MOL0     H48913   4.832   8.913  10.874 -0.9223  0.2749 -0.0720
  371MOL0     H48914   4.726   8.843  10.993 -0.0277 -2.3434  1.6338
  371MOL0     H48915   4.783   8.756  10.705  0.2587 -0.9020  0.7694
  371MOL0     H48916   4.690   8.653  10.817 -1.4129  1.0317  5.9332
  371MOL0     H48917   4.530   8.773  10.677 -2.9170  1.9828  0.5044
  371MOL0     H48918   4.598   8.934  10.732 -2.2093  0.8356  0.8018
  371MOL0     H48919   4.491   8.935  10.934  1.3532  0.4183 -0.5502
  371MOL0     H48920   4.506   8.764  10.946 -0.3247 -0.4128 -0.5932
  371MOL0     H48921   4.291   8.915  10.775 -3.1449  0.0226  0.8769
  371MOL0     H48922   4.323   8.740  10.778  1.6018 -0.4671  0.1616
  371MOL0     H48923   4.194   8.910  10.994 -4.0460 -0.6146  1.3559
  371MOL0     H48924   4.275   8.752  11.038  0.3958 -0.8945 -2.0966
  371MOL0     H48925   4.161   8.555  10.847  0.5570  2.0319 -2.5415
  371MOL0     H48926   3.760   8.506  10.902  1.6060  1.4600  2.1281
  371MOL0     H48927   3.891   8.420  10.956  0.2482  2.3760  1.6132
  371MOL0     H48928   3.883   8.298  10.739 -2.2819  0.0608 -0.1209
  371MOL0     H48929   3.979   8.432  10.703  0.6363 -2.0949  1.4281
  371MOL0     H48930   3.817   8.537  10.596 -0.4919 -0.4144 -2.8381
  371MOL0     H48931   3.810   8.375  10.536  3.1710 -1.7534  1.2308
  371MOL0     H48932   3.586   8.459  10.575  1.8037 -1.0362 -0.9705
  371MOL0     H48933   3.620   8.494  10.748 -4.2746 -1.4994 -0.7628
  371MOL0     H48934   3.485   8.069  10.761 -1.1270 -0.2858  1.2864
  371MOL0     H48935   3.250   8.026  10.866 -0.0468  1.5959  3.9412
  371MOL0     H48936   2.869   8.136  11.081  1.4705  0.4697 -1.4827
  371MOL0     H48937   2.626   8.127  11.143 -0.8916  0.1607  0.0416
  371MOL0     H48938   2.349   8.120  10.974 -0.3680  0.4676 -1.1349
  371MOL0     H48939   2.382   8.246  10.861 -0.5057  0.0727  0.0670
  371MOL0     H48940   2.142   8.233  10.891  0.5066 -0.5178  0.8905
  371MOL0     H48941   2.193   8.389  10.955  1.1263  0.2366 -2.6317
  371MOL0     H48942   2.194   8.312  11.175 -1.2100  3.3154 -2.0508
  371MOL0     H48943   2.162   8.139  11.126  0.5748 -0.0383 -1.8495
  371MOL0     H48944   1.994   8.391  11.065 -0.1475 -1.4609 -4.3209
  371MOL0     H48945   1.937   8.223  11.035  0.3183  0.2910  0.0118
  371MOL0     H48946   1.979   8.343  11.304 -4.1558  0.7402  2.9726
  371MOL0     H48947   1.958   8.166  11.263 -1.2748 -0.9139 -0.6919
  371MOL0     H48948   1.744   8.270  11.352 -1.9352 -0.2917 -1.3065
  371MOL0     H48949   1.735   8.202  11.189 -2.2947  0.1691  0.3344
  371MOL0     H48950   1.764   8.496  11.254  2.0336  1.4950 -2.3243
  371MOL0     H48951   1.739   8.431  11.090 -1.0399 -0.4357 -0.5616
  371MOL0     H48952   1.530   8.458  11.298  1.3587 -0.3165  0.6437
  371MOL0     H48953   1.529   8.321  11.181  0.1788 -0.4118  0.8558
  371MOL0     H48954   2.542   8.480  10.929  0.5848  0.7200  2.1093
  371MOL0     H48955   2.786   8.488  10.851 -1.1456  1.2451  1.1326
  371MOL0     H48956   3.172   8.446  10.826  2.3023  2.2918 -0.0105
  371MOL0     H48957   3.386   8.482  10.723  0.1739 -1.2175 -1.6471
  371MOL0     H48958   5.301   8.646  11.255 -1.8703  2.0450  0.3955
  371MOL0     H48959   5.533   8.649  11.171  2.6259 -1.5521 -3.8290
  371MOL0     H48960   5.757   8.471  10.633  2.5742 -1.4061 -1.7181
  371MOL0     H48961   6.008   8.427  10.609 -2.7983  0.9302 -1.0779
  371MOL0     H48962   6.259   8.597  10.909 -0.0848  0.3152 -0.0351
  371MOL0     H48963   6.369   8.513  10.800 -1.1999  4.0064 -2.1535
  371MOL0     H48964   6.157   8.407  10.976 -0.2183 -3.7198  0.8379
  371MOL0     H48965   6.188   8.309  10.840 -1.0082  1.5164 -0.9310
  371MOL0     H48966   6.391   8.405  11.040  0.9101  0.1852 -1.4756
  371MOL0     H48967   6.426   8.277  10.919  0.3547  1.9002 -1.6661
  371MOL0     H48968   6.380   8.215  11.178  1.3962  2.6032 -1.0850
  371MOL0     H48969   6.227   8.296  11.151 -1.7286 -1.0725 -0.6558
  371MOL0     H48970   6.183   7.898  10.972  0.3050 -0.0025 -0.0977
  371MOL0     H48971   6.079   8.740  10.884  1.7380 -1.6832  1.2121
  371MOL0     H48972   5.848   8.777  10.929  4.0428  1.5569 -0.7253
  372MOL0     O48973   0.373   5.780   7.988 -0.7804  0.0152  0.4481
  372MOL0     C48974   0.419   5.703   7.901  0.0526 -0.3066 -0.2954
  372MOL0     O48975   0.343   5.620   7.828  0.1750  0.1211 -0.4066
  372MOL0     C48976   0.215   5.591   7.869  0.2300 -0.5957 -1.3476
  372MOL0     C48977   0.121   5.546   7.784  0.6181  0.1730  0.2581
  372MOL0     C48978  -0.007   5.522   7.820  0.9118  0.3230  1.0933
  372MOL0     C48979  -0.045   5.523   7.949 -0.4304  0.6862  0.4705
  372MOL0     O48980  -0.158   5.479   7.997  0.0759 -0.8929  0.0101
  372MOL0     C48981  -0.257   5.403   7.928  0.0769 -0.2139 -0.6570
  372MOL0     C48982  -0.355   5.360   8.039  0.0810 -0.2580 -0.0167
  372MOL0     C48983  -0.501   5.363   7.991 -0.0492  0.4347 -1.2314
  372MOL0     C48984  -0.531   5.251   7.896  0.3227  0.8441 -0.1923
  372MOL0     C48985  -0.674   5.258   7.835  0.5654 -0.6133  0.2423
  372MOL0     C48986  -0.780   5.236   7.949  1.1504 -0.7083  0.7475
  372MOL0     C48987  -0.917   5.276   7.898  0.0852 -0.3217 -0.1560
  372MOL0     C48988  -0.994   5.150   7.852 -0.2497  0.6927 -0.3998
  372MOL0     N48989  -1.127   5.176   7.792  0.1243  0.1595  0.3540
  372MOL0     C48990  -1.222   5.267   7.833 -0.2955  0.9680  0.3527
  372MOL0     C48991  -1.331   5.232   7.766  0.0628  0.0916 -0.0446
  372MOL0     C48992  -1.455   5.310   7.770  0.6926 -0.2211 -0.4411
  372MOL0     C48993  -1.578   5.229   7.763  1.0041  0.8136  0.2450
  372MOL0     C48994  -1.709   5.298   7.813  0.0382 -0.1918 -0.3586
  372MOL0     C48995  -1.828   5.251   7.727  0.3569  0.6552 -0.5319
  372MOL0     O48996  -1.832   5.342   7.618  0.7591  0.2175 -0.2688
  372MOL0     C48997  -1.934   5.332   7.528 -0.6719  0.4837  1.3499
  372MOL0     C48998  -1.918   5.427   7.424  0.1200  0.3931 -0.7146
  372MOL0     C48999  -2.021   5.436   7.330  0.4639  0.3672  0.8787
  372MOL0     C49000  -2.146   5.372   7.345 -0.2346  1.0704 -0.2069
  372MOL0     C49001  -2.258   5.392   7.250  1.3588 -0.0301  0.5033
  372MOL0     O49002  -2.373   5.335   7.270 -0.0840 -0.2727  0.3645
  372MOL0     C49003  -2.476   5.368   7.182  0.9119 -0.4178  0.1743
  372MOL0     C49004  -2.598   5.420   7.234  0.7631  0.4907 -0.8974
  372MOL0     C49005  -2.697   5.444   7.136  0.4019 -0.2946  0.0184
  372MOL0     C49006  -2.674   5.434   6.999  0.5286  0.1674  0.2246
  372MOL0     O49007  -2.782   5.457   6.909 -0.0000 -0.2212 -0.1799
  372MOL0     C49008  -2.768   5.435   6.774 -0.5885 -0.2471  1.0691
  372MOL0     C49009  -2.895   5.459   6.709 -0.1021 -0.5095 -0.1412
  372MOL0     C49010  -2.996   5.351   6.743  0.2033 -0.2277 -0.1562
  372MOL0     C49011  -3.110   5.346   6.629 -0.1509  0.3512 -0.0287
  372MOL0     C49012  -3.217   5.256   6.691 -0.3072 -0.9502  0.1458
  372MOL0     C49013  -3.340   5.239   6.607 -0.3236 -0.0878  0.8468
  372MOL0     C49014  -3.444   5.156   6.688  0.1858 -0.4200 -0.1701
  372MOL0     C49015  -3.583   5.152   6.632  0.6871  1.0743 -0.5968
  372MOL0    Cl49016  -3.702   5.068   6.743 -0.0776 -0.2088  0.1997
  372MOL0     C49017  -2.554   5.384   6.959 -0.4152  0.3687  0.3330
  372MOL0     C49018  -2.450   5.349   7.049 -0.0427  0.5838 -0.1026
  372MOL0     O49019  -2.236   5.482   7.169  0.3817 -0.3365  0.7142
  372MOL0     C49020  -2.161   5.291   7.457  0.0200  0.0341  0.8818
  372MOL0     C49021  -2.056   5.270   7.545  0.6734  1.0168  0.2036
  372MOL0     N49022  -1.300   5.128   7.683  0.0677  0.2685  0.0806
  372MOL0     N49023  -1.173   5.098   7.697 -0.1952 -0.4165 -0.0014
  372MOL0     C49024   0.052   5.555   8.043  0.0110  0.2552 -0.6856
  372MOL0     C49025   0.181   5.586   8.006 -0.5516 -0.4082 -0.1720
  372MOL0     C49026   0.560   5.706   7.868  0.1243  0.1478 -0.1292
  372MOL0     C49027   0.652   5.806   7.918  0.3677  0.1187  0.2371
  372MOL0     C49028   0.792   5.809   7.897  0.1527  0.6085 -0.4416
  372MOL0     C49029   0.851   5.694   7.834 -0.8707  0.8283  0.0154
  372MOL0     O49030   0.987   5.686   7.805 -0.0005  0.4154 -0.1954
  372MOL0     C49031   1.074   5.777   7.864 -0.3676  0.2469 -0.8877
  372MOL0     C49032   1.219   5.739   7.838 -0.6106  0.0725 -0.6472
  372MOL0     C49033   1.246   5.605   7.903  0.5706  0.0837  0.1601
  372MOL0     C49034   1.380   5.542   7.885 -0.5217 -0.1852 -0.0054
  372MOL0     C49035   1.373   5.395   7.904 -0.1004  0.8478  0.4613
  372MOL0     C49036   1.365   5.281   7.953  0.8570 -0.3276  0.3240
  372MOL0     C49037   0.764   5.605   7.765 -0.6670 -0.3502 -0.7147
  372MOL0     C49038   0.622   5.611   7.779 -0.2020  0.4947 -0.5166
  372MOL0     H49039   0.146   5.539   7.678 -4.1703 -1.2433 -1.0170
  372MOL0     H49040  -0.078   5.478   7.751  1.1222 -0.6477  1.4724
  372MOL0     H49041  -0.209   5.316   7.882  0.7600  1.4841 -3.4270
  372MOL0     H49042  -0.297   5.467   7.848  3.2201 -0.0959 -2.3174
  372MOL0     H49043  -0.349   5.433   8.120  2.7811 -1.8974  1.4059
  372MOL0     H49044  -0.339   5.259   8.077 -2.7920 -0.8597 -0.1637
  372MOL0     H49045  -0.525   5.456   7.940 -2.0510  0.2567 -0.7204
  372MOL0     H49046  -0.562   5.340   8.079  1.1269 -3.4043 -1.2294
  372MOL0     H49047  -0.469   5.255   7.806  2.8911  0.0186  1.4164
  372MOL0     H49048  -0.510   5.154   7.943  0.9775  1.7997  1.5576
  372MOL0     H49049  -0.686   5.185   7.755  1.7837  1.2624 -1.7771
  372MOL0     H49050  -0.692   5.351   7.781  1.4170 -1.0444 -0.8294
  372MOL0     H49051  -0.757   5.292   8.040 -0.3128  1.1815  0.0113
  372MOL0     H49052  -0.780   5.130   7.977 -1.5062 -1.1585 -0.5896
  372MOL0     H49053  -0.970   5.323   7.982  1.4307  1.9878 -0.5214
  372MOL0     H49054  -0.910   5.347   7.815  0.5150 -2.2930 -1.8829
  372MOL0     H49055  -1.014   5.083   7.935 -1.4033  2.2552  0.6409
  372MOL0     H49056  -0.928   5.110   7.774 -2.1796  1.6981 -2.6650
  372MOL0     H49057  -1.202   5.346   7.905 -0.0488  1.3698 -0.1544
  372MOL0     H49058  -1.464   5.391   7.697 -2.2317  0.7948  0.8920
  372MOL0     H49059  -1.465   5.364   7.865 -0.0242 -1.0269 -0.0449
  372MOL0     H49060  -1.566   5.134   7.817  1.5872  0.1136 -1.0641
  372MOL0     H49061  -1.581   5.210   7.655  2.2920  0.6903  0.2099
  372MOL0     H49062  -1.723   5.280   7.920  0.2408  3.7779  0.4931
  372MOL0     H49063  -1.691   5.405   7.799  0.0422 -0.3949 -2.0173
  372MOL0     H49064  -1.921   5.254   7.786  1.3732 -0.8466  1.2617
  372MOL0     H49065  -1.810   5.146   7.704  1.6211  0.2711  1.9371
  372MOL0     H49066  -1.837   5.498   7.413 -1.0294  1.7653 -0.6300
  372MOL0     H49067  -2.002   5.508   7.251  0.6768 -0.0925  0.4998
  372MOL0     H49068  -2.617   5.445   7.338 -0.0945 -1.3419 -0.5779
  372MOL0     H49069  -2.799   5.473   7.159 -0.2708  0.3972 -3.3104
  372MOL0     H49070  -2.738   5.330   6.762 -0.9280 -0.0785 -2.2622
  372MOL0     H49071  -2.691   5.504   6.739 -0.4078 -1.1994 -0.5105
  372MOL0     H49072  -2.881   5.464   6.600 -3.8685 -3.5389 -0.9546
  372MOL0     H49073  -2.929   5.554   6.752  2.6805  0.9487 -0.8903
  372MOL0     H49074  -3.031   5.383   6.842 -0.1145 -0.7261 -0.1049
  372MOL0     H49075  -2.950   5.252   6.736 -1.1690 -0.7822 -4.9899
  372MOL0     H49076  -3.151   5.443   6.597  1.9404  0.4854 -2.5785
  372MOL0     H49077  -3.083   5.293   6.538  1.3851 -0.9718  1.1387
  372MOL0     H49078  -3.257   5.300   6.783  0.4060  0.2629 -0.1087
  372MOL0     H49079  -3.168   5.160   6.715 -1.9787 -2.2203 -1.2828
  372MOL0     H49080  -3.315   5.191   6.511  0.2808  0.2240  0.8429
  372MOL0     H49081  -3.386   5.337   6.591 -0.7175 -0.3546  0.2695
  372MOL0     H49082  -3.415   5.052   6.707 -1.0627 -0.5307  1.4067
  372MOL0     H49083  -3.452   5.193   6.791  1.9897 -2.6058  0.8443
  372MOL0     H49084  -3.582   5.095   6.539 -2.2977  2.0637 -1.3605
  372MOL0     H49085  -3.613   5.255   6.615 -0.2326  1.1524  1.2493
  372MOL0     H49086  -2.516   5.374   6.858  0.5464  1.9240  0.5045
  372MOL0     H49087  -2.367   5.305   6.994 -1.6260 -1.7821 -0.6986
  372MOL0     H49088  -2.259   5.248   7.477 -0.1855 -0.7584 -1.5012
  372MOL0     H49089  -2.068   5.195   7.622  0.0254  1.4922  0.5763
  372MOL0     H49090   0.018   5.530   8.143  4.1563 -1.9026  0.3836
  372MOL0     H49091   0.253   5.598   8.087  0.8821 -0.0225 -1.4751
  372MOL0     H49092   0.604   5.896   7.954  0.1827  0.3104 -0.4677
  372MOL0     H49093   0.842   5.899   7.932  0.6069 -0.5336  2.1405
  372MOL0     H49094   1.060   5.784   7.972  3.1318  0.3955 -0.3193
  372MOL0     H49095   1.053   5.882   7.840  0.8216  0.6279 -0.3537
  372MOL0     H49096   1.227   5.720   7.731  0.1609 -3.2769 -0.0993
  372MOL0     H49097   1.291   5.813   7.875  0.0076  0.6816 -2.9045
  372MOL0     H49098   1.175   5.542   7.848  0.4320  0.1079  0.3101
  372MOL0     H49099   1.208   5.605   8.005  1.9666 -0.1573  0.6924
  372MOL0     H49100   1.422   5.556   7.785  2.1933 -1.9337  0.7617
  372MOL0     H49101   1.450   5.576   7.962  0.5177  1.6383 -1.6603
  372MOL0     H49102   1.344   5.183   7.989  0.9205 -0.3836  0.2090
  372MOL0     H49103   0.814   5.543   7.692 -1.5481  1.7940 -3.3220
  372MOL0     H49104   0.573   5.527   7.731 -0.5807 -0.0358  0.7543
  373MOL0     O49105   7.593   8.155   8.196  0.0626  0.4249 -0.2382
  373MOL0     C49106   7.679   8.238   8.196  0.0731  0.1449 -0.3661
  373MOL0     O49107   7.668   8.371   8.144 -1.0054  0.3861  0.5438
  373MOL0     C49108   7.551   8.415   8.084 -0.2453 -0.7756 -0.3588
  373MOL0     C49109   7.423   8.400   8.143  0.2057 -0.6450 -0.3549
  373MOL0     C49110   7.306   8.434   8.083 -0.3951 -0.2322  0.5398
  373MOL0     C49111   7.312   8.498   7.955 -0.2636 -1.1928  0.6638
  373MOL0     O49112   7.202   8.552   7.891 -0.4955 -0.2350 -0.0878
  373MOL0     C49113   7.077   8.504   7.936  0.8465  0.3598 -0.3477
  373MOL0     C49114   6.966   8.531   7.834  0.1733  0.0769  0.8233
  373MOL0     C49115   6.828   8.503   7.894 -0.4454  0.1393  1.0508
  373MOL0     C49116   6.718   8.499   7.789  1.6280  0.0301  0.4623
  373MOL0     C49117   6.578   8.471   7.859 -0.4685 -0.4365  0.5668
  373MOL0     C49118   6.457   8.484   7.761  0.3651 -0.0202 -0.1912
  373MOL0     C49119   6.320   8.467   7.830  0.0216  0.7695  0.2217
  373MOL0     C49120   6.212   8.536   7.742  0.3246 -0.2449  0.9939
  373MOL0     N49121   6.081   8.511   7.797  0.2335  0.6345  0.6067
  373MOL0     C49122   6.009   8.405   7.743 -0.1343 -0.1884  0.4495
  373MOL0     C49123   5.882   8.435   7.799 -0.4278  0.7803 -0.3352
  373MOL0     C49124   5.767   8.343   7.773 -0.4409 -0.4791  0.3504
  373MOL0     C49125   5.742   8.249   7.903 -0.1602  0.2961  0.2434
  373MOL0     C49126   5.656   8.132   7.869 -0.6681  0.0549 -0.2842
  373MOL0     C49127   5.504   8.175   7.863 -0.3468  0.4262 -0.4126
  373MOL0     O49128   5.439   8.169   7.985  0.6823 -0.1404 -0.0123
  373MOL0     C49129   5.302   8.193   7.992 -0.4168  0.2736  0.0540
  373MOL0     C49130   5.235   8.144   8.102  0.4676  0.1262  0.1947
  373MOL0     C49131   5.103   8.176   8.124 -0.3244  0.6750  0.0143
  373MOL0     C49132   5.034   8.259   8.040  1.1500 -0.1228 -0.3490
  373MOL0     C49133   4.882   8.262   8.059 -0.8052  0.4311  0.1348
  373MOL0     O49134   4.818   8.350   7.981  0.4419 -0.3328  0.1898
  373MOL0     C49135   4.682   8.365   7.984  0.6256  0.5021 -0.4206
  373MOL0     C49136   4.585   8.279   8.031  0.1561  0.4639  0.7282
  373MOL0     C49137   4.452   8.309   8.037  0.3724  0.4743  0.1302
  373MOL0     C49138   4.412   8.432   7.977  0.1478  0.7420 -1.2913
  373MOL0     O49139   4.283   8.471   7.963  0.1399 -0.4800 -0.5607
  373MOL0     C49140   4.177   8.376   7.992  0.6951  0.3993  0.2672
  373MOL0     C49141   4.051   8.442   7.934  0.0342 -0.5580 -0.4091
  373MOL0     C49142   3.923   8.401   8.004 -0.2384 -0.5666 -0.0195
  373MOL0     C49143   3.804   8.457   7.928  0.6167 -0.8713 -0.3374
  373MOL0     C49144   3.676   8.423   8.001  0.4463  0.6226 -0.2396
  373MOL0     C49145   3.565   8.492   7.925  0.1977 -0.8339  0.0439
  373MOL0     C49146   3.430   8.423   7.946  0.2123 -0.0659  0.4065
  373MOL0     C49147   3.380   8.467   8.088 -0.4656  0.8343  0.3082
  373MOL0    Cl49148   3.201   8.456   8.099 -0.8945 -0.0310 -0.0111
  373MOL0     C49149   4.510   8.521   7.928  0.5361 -0.2429  0.2229
  373MOL0     C49150   4.639   8.483   7.929 -1.1139  0.2275 -0.2915
  373MOL0     O49151   4.839   8.198   8.150 -0.1625  0.5548 -1.1115
  373MOL0     C49152   5.097   8.305   7.930 -0.0112 -0.4945  0.1040
  373MOL0     C49153   5.233   8.282   7.913  0.3924  0.6775  0.1333
  373MOL0     N49154   5.889   8.538   7.887 -1.2354  0.7899  0.1703
  373MOL0     N49155   6.011   8.582   7.890 -0.0617 -0.3080  0.7960
  373MOL0     C49156   7.435   8.526   7.897  0.4728 -0.1807 -0.2502
  373MOL0     C49157   7.558   8.479   7.960 -0.0386  0.9032  0.8149
  373MOL0     C49158   7.813   8.206   8.255 -0.0261 -0.2599 -0.0999
  373MOL0     C49159   7.913   8.306   8.263  0.3528 -0.8688 -0.3231
  373MOL0     C49160   8.043   8.269   8.315 -0.1365  0.3073  0.1069
  373MOL0     C49161   8.059   8.144   8.379 -0.1147 -0.3559  0.4824
  373MOL0     O49162   8.180   8.111   8.442  0.3031  0.0192  0.1015
  373MOL0     C49163   8.275   8.213   8.478  0.6305  0.7357 -0.4466
  373MOL0     C49164   8.381   8.151   8.578 -0.7130  0.3601  0.1185
  373MOL0     C49165   8.478   8.046   8.509  1.6166  0.4736 -0.4580
  373MOL0     C49166   8.577   7.981   8.606  0.6699 -0.3307 -0.5058
  373MOL0     C49167   8.675   7.896   8.542 -0.1460 -0.5447  0.6472
  373MOL0     C49168   8.750   7.829   8.468  0.5972 -0.1093 -0.8596
  373MOL0     C49169   7.961   8.046   8.369  0.8988  0.3408 -0.0664
  373MOL0     C49170   7.838   8.078   8.302  0.1046 -0.0924  0.4240
  373MOL0     H49171   7.422   8.358   8.243 -1.4098  0.2795  0.0509
  373MOL0     H49172   7.213   8.421   8.136 -1.2937  2.1056 -0.3388
  373MOL0     H49173   7.063   8.548   8.035 -2.2731  0.0125 -0.5376
  373MOL0     H49174   7.075   8.397   7.960  0.1075  0.7301  1.4103
  373MOL0     H49175   6.985   8.460   7.754  1.9954 -1.3447  2.4423
  373MOL0     H49176   6.967   8.636   7.800 -0.4137  0.1914  1.1332
  373MOL0     H49177   6.794   8.569   7.975 -1.7638 -0.2572  0.8521
  373MOL0     H49178   6.835   8.398   7.926  2.2507  0.5218  1.9994
  373MOL0     H49179   6.713   8.595   7.736  3.6363  0.1546  0.3941
  373MOL0     H49180   6.738   8.419   7.718  1.9842 -0.5153  1.1593
  373MOL0     H49181   6.556   8.537   7.943 -1.5850 -0.2722  0.1644
  373MOL0     H49182   6.583   8.370   7.901 -0.4172 -0.1876  1.1642
  373MOL0     H49183   6.463   8.405   7.687 -3.9916 -1.7030  0.9804
  373MOL0     H49184   6.465   8.578   7.706  2.3558 -1.6848 -2.9794
  373MOL0     H49185   6.305   8.359   7.834 -0.9883  0.7258 -2.6286
  373MOL0     H49186   6.315   8.514   7.929 -3.6744  2.9335 -0.8065
  373MOL0     H49187   6.227   8.498   7.641  0.9867  2.9211 -0.2036
  373MOL0     H49188   6.219   8.644   7.726  0.2927 -0.3617  0.1502
  373MOL0     H49189   6.028   8.331   7.666 -0.6194  0.5399 -0.3979
  373MOL0     H49190   5.796   8.290   7.682  0.2711 -0.9369  0.8291
  373MOL0     H49191   5.676   8.400   7.757 -0.6767 -0.6432  1.0790
  373MOL0     H49192   5.695   8.304   7.985  0.3013  0.1898  0.5761
  373MOL0     H49193   5.840   8.208   7.926  1.1055  1.0425 -3.1471
  373MOL0     H49194   5.679   8.065   7.785 -1.6461 -3.3243  1.9119
  373MOL0     H49195   5.657   8.072   7.960 -3.0157  0.8784  0.3592
  373MOL0     H49196   5.446   8.123   7.786 -2.6138 -1.6544  2.4653
  373MOL0     H49197   5.499   8.276   7.821 -0.8173  0.2915 -0.6940
  373MOL0     H49198   5.276   8.064   8.162 -2.3039 -0.4444  1.4797
  373MOL0     H49199   5.063   8.118   8.207  1.3787  0.5538  0.7989
  373MOL0     H49200   4.612   8.180   8.068 -0.8033 -0.1077 -0.0750
  373MOL0     H49201   4.379   8.231   8.058  0.9382 -1.0242 -2.9641
  373MOL0     H49202   4.168   8.375   8.101  2.0552  0.1838  0.3977
  373MOL0     H49203   4.191   8.279   7.944 -0.4022  0.1018  0.5225
  373MOL0     H49204   4.037   8.421   7.827  0.1016 -0.7823 -0.3749
  373MOL0     H49205   4.038   8.549   7.949 -2.4051 -1.0063  1.5330
  373MOL0     H49206   3.930   8.434   8.109 -0.9703 -3.3870  0.9999
  373MOL0     H49207   3.919   8.292   8.005 -0.4219 -0.5682 -0.7614
  373MOL0     H49208   3.810   8.567   7.929  2.6544 -0.8285  4.2061
  373MOL0     H49209   3.788   8.421   7.826  2.0459 -1.9148 -0.2124
  373MOL0     H49210   3.685   8.460   8.104 -1.4059  0.1765  0.1130
  373MOL0     H49211   3.655   8.316   8.003 -1.5211  0.8075 -3.4321
  373MOL0     H49212   3.579   8.503   7.817 -2.4817 -0.1792 -0.2961
  373MOL0     H49213   3.575   8.591   7.970 -0.4437 -2.2955  3.7342
  373MOL0     H49214   3.353   8.454   7.876 -0.4300  0.5283  1.3489
  373MOL0     H49215   3.438   8.315   7.927  0.1736 -0.2240  1.2477
  373MOL0     H49216   3.402   8.573   8.105 -2.1235  1.5539 -1.5349
  373MOL0     H49217   3.423   8.409   8.170 -1.6575  1.8928  1.7346
  373MOL0     H49218   4.496   8.608   7.865  5.4909 -0.0084 -1.0055
  373MOL0     H49219   4.710   8.546   7.877  1.0561 -1.3406  0.6037
  373MOL0     H49220   5.047   8.370   7.858  0.7487  1.3258  1.1311
  373MOL0     H49221   5.272   8.334   7.826 -1.5702 -0.3582 -1.4473
  373MOL0     H49222   7.436   8.598   7.816 -1.8177  1.2302  0.8758
  373MOL0     H49223   7.653   8.505   7.915 -0.0422 -0.4518 -0.0119
  373MOL0     H49224   7.906   8.398   8.205 -1.8713  0.5082  1.8974
  373MOL0     H49225   8.134   8.324   8.291  1.4502 -0.9761  2.6468
  373MOL0     H49226   8.229   8.302   8.522 -0.5794 -0.2009  0.2447
  373MOL0     H49227   8.317   8.245   8.382  0.3920 -0.5909 -1.0098
  373MOL0     H49228   8.438   8.236   8.617  1.4376 -1.0550  0.1898
  373MOL0     H49229   8.328   8.095   8.656 -1.2146  1.8932  0.9367
  373MOL0     H49230   8.535   8.096   8.430 -0.4813  2.6866 -0.6982
  373MOL0     H49231   8.416   7.965   8.470 -0.6939  1.8015  0.2457
  373MOL0     H49232   8.638   8.056   8.656  0.3122 -0.0959 -0.4200
  373MOL0     H49233   8.521   7.925   8.682  2.7184  0.2596  1.5350
  373MOL0     H49234   8.823   7.795   8.398  0.6182 -0.7711 -0.5210
  373MOL0     H49235   7.962   7.945   8.407  0.1644  1.0466  1.9678
  373MOL0     H49236   7.755   8.009   8.300  0.5151 -0.6362  1.4642
  374MOL0     O49237   5.379   3.453   2.913  0.2218 -0.0189 -0.1092
  374MOL0     C49238   5.461   3.455   2.824 -0.1211  0.0197 -0.5797
  374MOL0     O49239   5.435   3.497   2.695  0.1040 -0.5980 -0.4919
  374MOL0     C49240   5.315   3.546   2.665  0.2993 -0.8627 -0.0542
  374MOL0     C49241   5.300   3.678   2.619 -0.3122  1.2549  0.8995
  374MOL0     C49242   5.177   3.719   2.585 -0.6120  0.5795  0.7237
  374MOL0     C49243   5.064   3.644   2.581  0.4533 -0.2095  0.5790
  374MOL0     O49244   4.942   3.693   2.554  0.0410 -0.8505  0.2165
  374MOL0     C49245   4.840   3.609   2.492  0.5689 -0.0605  0.7537
  374MOL0     C49246   4.726   3.692   2.437 -0.6183 -0.2669  0.7609
  374MOL0     C49247   4.622   3.731   2.538 -0.3908 -0.3973 -0.6519
  374MOL0     C49248   4.517   3.832   2.488 -0.3625  0.4449  0.4210
  374MOL0     C49249   4.424   3.895   2.593 -0.2736 -1.4408  0.5772
  374MOL0     C49250   4.330   3.990   2.522 -0.2864 -0.4539 -0.0567
  374MOL0     C49251   4.238   4.053   2.623  0.2566  0.1440  0.5519
  374MOL0     C49252   4.136   4.144   2.554  0.0667 -0.3981 -0.4387
  374MOL0     N49253   4.053   4.232   2.640  0.0244 -0.8486 -0.3533
  374MOL0     C49254   3.958   4.175   2.718 -0.1698  0.5278  0.4602
  374MOL0     C49255   3.907   4.281   2.778  0.3288  0.0534  0.1806
  374MOL0     C49256   3.796   4.261   2.885 -1.1074 -0.2077  1.0370
  374MOL0     C49257   3.659   4.249   2.833  0.1933  0.6128 -0.4438
  374MOL0     C49258   3.563   4.236   2.947  0.5197 -0.2925  0.4103
  374MOL0     C49259   3.420   4.278   2.916  0.7295 -0.5876 -0.1940
  374MOL0     O49260   3.328   4.283   3.026  0.1037  0.9462 -0.3976
  374MOL0     C49261   3.205   4.225   2.998 -0.1492  0.2524 -0.2315
  374MOL0     C49262   3.112   4.280   2.901 -0.7356 -0.2706 -0.2176
  374MOL0     C49263   2.977   4.238   2.914 -0.3160 -0.0504  0.1891
  374MOL0     C49264   2.944   4.130   2.998  0.2693 -0.5352 -0.2434
  374MOL0     C49265   2.808   4.070   3.003 -0.3460 -0.2099 -0.4489
  374MOL0     O49266   2.796   3.975   3.109 -0.1032 -0.5601 -0.5112
  374MOL0     C49267   2.674   3.923   3.132 -0.4612 -0.0402  0.7632
  374MOL0     C49268   2.570   4.003   3.183 -0.9838 -1.0284  0.1167
  374MOL0     C49269   2.451   3.939   3.230 -0.0142 -0.0846  0.0274
  374MOL0     C49270   2.442   3.799   3.227 -0.4819  0.3171  0.3524
  374MOL0     O49271   2.336   3.738   3.283  0.4980  0.7935  0.3508
  374MOL0     C49272   2.359   3.664   3.402 -0.6193 -0.3351  0.2368
  374MOL0     C49273   2.221   3.627   3.467  0.3803 -0.1418  0.7801
  374MOL0     C49274   2.234   3.578   3.619  0.5605  0.4654 -0.3529
  374MOL0     C49275   2.106   3.509   3.665 -0.5123  1.0157  0.6131
  374MOL0     C49276   2.086   3.508   3.815  0.9673 -0.2852  0.6499
  374MOL0     C49277   1.962   3.427   3.843 -0.0019 -0.3719 -0.5662
  374MOL0     C49278   1.920   3.442   3.991  1.0471 -0.2715 -0.6360
  374MOL0     C49279   1.787   3.372   4.009  0.0218  0.0958  0.9548
  374MOL0    Cl49280   1.716   3.411   4.166 -0.4472  0.2499  0.2833
  374MOL0     C49281   2.541   3.723   3.168  0.2989  0.1738  0.3077
  374MOL0     C49282   2.664   3.787   3.123  0.1369 -0.3082  0.1623
  374MOL0     O49283   2.720   4.103   2.921  0.4700 -0.3120  0.3635
  374MOL0     C49284   3.040   4.072   3.083 -0.4646 -0.5018  0.5742
  374MOL0     C49285   3.169   4.120   3.077  0.6592 -0.4297 -0.5956
  374MOL0     N49286   3.963   4.400   2.748  0.2911  0.7254  0.7947
  374MOL0     N49287   4.059   4.368   2.666 -0.6216  0.0630  0.2760
  374MOL0     C49288   5.071   3.513   2.617  0.3014  1.0505 -0.2860
  374MOL0     C49289   5.202   3.465   2.666  0.0590 -1.1420 -0.1379
  374MOL0     C49290   5.601   3.418   2.859  0.0014 -0.0031  0.3925
  374MOL0     C49291   5.655   3.409   2.988 -0.1347 -0.2065 -0.3057
  374MOL0     C49292   5.794   3.391   3.016 -0.3337 -0.1560  0.2800
  374MOL0     C49293   5.880   3.377   2.910  0.3904  0.5036 -0.0199
  374MOL0     O49294   6.012   3.345   2.943  0.6505 -0.8083  0.1967
  374MOL0     C49295   6.102   3.307   2.837 -0.2300 -0.4936 -0.0246
  374MOL0     C49296   6.243   3.309   2.890 -0.3796  0.1811 -0.2360
  374MOL0     C49297   6.265   3.199   3.000  0.1798  0.1331 -0.1373
  374MOL0     C49298   6.397   3.217   3.071 -0.3314 -0.5003  0.5949
  374MOL0     C49299   6.505   3.193   2.976 -0.4923 -0.2493 -0.3523
  374MOL0     C49300   6.586   3.177   2.886  0.4554 -0.0960 -0.1419
  374MOL0     C49301   5.826   3.381   2.783  0.1065  0.0415 -0.5921
  374MOL0     C49302   5.692   3.408   2.752 -0.2293  0.0489 -0.4587
  374MOL0     H49303   5.381   3.750   2.626  1.5569 -0.3211 -2.1075
  374MOL0     H49304   5.173   3.825   2.560 -1.6210  0.8816  2.0610
  374MOL0     H49305   4.792   3.533   2.554 -0.8142  1.5060  1.6633
  374MOL0     H49306   4.891   3.562   2.407 -1.3152 -2.4033  0.8226
  374MOL0     H49307   4.673   3.645   2.353 -0.1865  0.4357  0.0845
  374MOL0     H49308   4.773   3.785   2.403 -0.7248 -0.2816  0.5755
  374MOL0     H49309   4.674   3.776   2.623  0.4736 -1.2059 -0.7400
  374MOL0     H49310   4.582   3.640   2.583  0.5184 -0.5333 -0.1057
  374MOL0     H49311   4.572   3.912   2.438  1.8915 -1.0513  0.3688
  374MOL0     H49312   4.459   3.781   2.411  0.5236  1.0521 -0.6633
  374MOL0     H49313   4.481   3.943   2.673 -0.8318 -0.3310  0.3255
  374MOL0     H49314   4.365   3.815   2.638 -2.8200  0.9705  1.8459
  374MOL0     H49315   4.272   3.928   2.453 -1.1181  0.5075 -0.2447
  374MOL0     H49316   4.388   4.073   2.480  0.2490  0.7928  2.9046
  374MOL0     H49317   4.178   3.978   2.675 -1.7245  2.0380  1.1731
  374MOL0     H49318   4.297   4.118   2.688 -0.3031  0.0012  1.2079
  374MOL0     H49319   4.064   4.084   2.498 -1.4642  2.0266 -1.2487
  374MOL0     H49320   4.194   4.195   2.477 -2.0275  0.4049 -1.5755
  374MOL0     H49321   3.941   4.068   2.727  0.8741  0.4555  1.8473
  374MOL0     H49322   3.814   4.337   2.962  0.8879  0.8934 -0.4137
  374MOL0     H49323   3.820   4.171   2.942 -2.7224  0.7115  3.3097
  374MOL0     H49324   3.635   4.160   2.774 -0.4714 -1.2329  2.3921
  374MOL0     H49325   3.639   4.340   2.776  0.7780  1.8074  1.1623
  374MOL0     H49326   3.553   4.130   2.973 -1.4848 -0.8573 -2.2538
  374MOL0     H49327   3.594   4.286   3.039 -1.7283 -0.6784  1.4520
  374MOL0     H49328   3.387   4.223   2.827  4.3144  0.5477 -2.4451
  374MOL0     H49329   3.425   4.382   2.882 -1.3924 -1.0501 -2.2296
  374MOL0     H49330   3.135   4.373   2.850  3.6345 -1.0423  0.0202
  374MOL0     H49331   2.895   4.295   2.870 -0.7849  0.9843  2.2815
  374MOL0     H49332   2.572   4.111   3.189 -1.3014 -1.0776  1.4421
  374MOL0     H49333   2.369   3.983   3.286 -1.9549 -4.0602  0.6990
  374MOL0     H49334   2.412   3.721   3.478  0.1711 -0.8026  0.0523
  374MOL0     H49335   2.424   3.577   3.388 -3.3127 -2.8645  2.2077
  374MOL0     H49336   2.168   3.542   3.421 -1.7910  1.8177 -0.5944
  374MOL0     H49337   2.158   3.715   3.451 -1.2923 -1.3210  0.5666
  374MOL0     H49338   2.251   3.661   3.688 -1.4001 -0.9324  1.9639
  374MOL0     H49339   2.314   3.503   3.618 -0.8442 -1.1189  0.3447
  374MOL0     H49340   2.017   3.557   3.625 -0.0392  1.2926 -0.1202
  374MOL0     H49341   2.097   3.408   3.624  0.1897 -0.2259  3.2437
  374MOL0     H49342   2.055   3.609   3.843  1.3192  1.2125 -3.5873
  374MOL0     H49343   2.173   3.478   3.874  0.6105  1.1415  1.9555
  374MOL0     H49344   1.991   3.322   3.831  2.7449  0.2904 -0.3149
  374MOL0     H49345   1.882   3.455   3.774 -0.7114  1.5854  0.9437
  374MOL0     H49346   1.992   3.405   4.065 -1.9300  1.3225  3.4155
  374MOL0     H49347   1.910   3.548   4.016  1.7207 -0.6682  1.5712
  374MOL0     H49348   1.800   3.264   3.996 -2.4774 -0.0059 -1.7876
  374MOL0     H49349   1.721   3.413   3.932  1.8856  2.7527  0.6493
  374MOL0     H49350   2.538   3.615   3.163 -1.7552  0.2061 -0.0734
  374MOL0     H49351   2.741   3.723   3.082 -0.8793 -2.7820  1.8359
  374MOL0     H49352   3.023   3.977   3.133 -0.2029 -0.2309  1.1935
  374MOL0     H49353   3.237   4.071   3.146  1.2147  0.9059 -0.1558
  374MOL0     H49354   4.987   3.445   2.610  0.5655  0.8298 -1.7174
  374MOL0     H49355   5.216   3.360   2.691  0.8365 -1.4854 -1.8648
  374MOL0     H49356   5.584   3.419   3.069 -0.6528 -3.1328 -0.2904
  374MOL0     H49357   5.835   3.381   3.116  2.4427 -1.5191 -0.9125
  374MOL0     H49358   6.107   3.382   2.758  1.9215 -3.0836 -2.5352
  374MOL0     H49359   6.089   3.209   2.791 -0.9444  0.7002 -2.5339
  374MOL0     H49360   6.309   3.293   2.804  1.9401 -0.1071  1.5192
  374MOL0     H49361   6.265   3.406   2.933 -0.0606 -1.4873  3.7988
  374MOL0     H49362   6.239   3.100   2.960  0.0354 -0.4524  1.3102
  374MOL0     H49363   6.186   3.205   3.076 -0.1361 -0.3753 -0.4221
  374MOL0     H49364   6.405   3.310   3.128  2.1446 -0.0846 -0.2923
  374MOL0     H49365   6.416   3.128   3.131  0.8563 -0.9644 -0.4221
  374MOL0     H49366   6.650   3.177   2.801  1.7524 -0.4815  0.8116
  374MOL0     H49367   5.893   3.362   2.700 -1.8031 -2.2734 -1.7285
  374MOL0     H49368   5.648   3.414   2.653  1.6332  0.3909 -1.3101
  375MOL0     O49369   9.089   8.102   1.668 -1.0071 -0.4690 -0.0876
  375MOL0     C49370   9.136   8.103   1.559 -0.1200  0.5279  0.2487
  375MOL0     O49371   9.073   8.075   1.437  0.2390 -0.2022 -0.4690
  375MOL0     C49372   8.941   8.030   1.435 -0.4570  0.3372 -0.4200
  375MOL0     C49373   8.871   8.052   1.321  0.8080 -0.2285 -0.2046
  375MOL0     C49374   8.743   8.008   1.309  0.4433  1.0902 -0.1355
  375MOL0     C49375   8.674   7.948   1.412 -0.5137 -0.0289  0.1372
  375MOL0     O49376   8.545   7.909   1.387  0.3420  0.2287 -0.1315
  375MOL0     C49377   8.451   7.905   1.493  0.1896 -0.4710  0.0749
  375MOL0     C49378   8.331   7.811   1.452 -0.1786  0.1902  0.4000
  375MOL0     C49379   8.358   7.659   1.455 -0.1931  1.0053  0.3955
  375MOL0     C49380   8.227   7.582   1.440 -1.1829  0.0316 -0.4317
  375MOL0     C49381   8.253   7.435   1.458 -0.9556 -0.7320  0.3209
  375MOL0     C49382   8.336   7.384   1.341  0.6475 -0.4771 -0.6307
  375MOL0     C49383   8.346   7.227   1.362  0.0330  0.3002  0.6954
  375MOL0     C49384   8.411   7.170   1.235  0.8056 -0.5616  1.1702
  375MOL0     N49385   8.423   7.028   1.248 -0.6122 -0.5856  0.3795
  375MOL0     C49386   8.522   6.955   1.186  0.8882 -0.0349 -0.3829
  375MOL0     C49387   8.489   6.824   1.205  0.3195  0.8522 -1.1130
  375MOL0     C49388   8.576   6.707   1.159  0.3087  0.2444 -0.5605
  375MOL0     C49389   8.507   6.590   1.074 -0.5683 -0.0869  0.2887
  375MOL0     C49390   8.385   6.531   1.138  0.6430  0.1460 -0.8194
  375MOL0     C49391   8.419   6.438   1.259 -0.3395 -0.2178  0.5661
  375MOL0     O49392   8.307   6.352   1.275  0.4162  0.4245  0.7744
  375MOL0     C49393   8.195   6.395   1.341 -0.0279 -1.0320  0.3279
  375MOL0     C49394   8.184   6.526   1.409 -0.8799 -0.1991 -0.2008
  375MOL0     C49395   8.062   6.575   1.458  0.1924  0.9653  0.2040
  375MOL0     C49396   7.948   6.487   1.452  0.0462  0.1646  0.1375
  375MOL0     C49397   7.817   6.533   1.498  0.5471 -0.8819  0.0814
  375MOL0     O49398   7.800   6.661   1.536 -0.7175 -0.0316  0.4469
  375MOL0     C49399   7.673   6.709   1.556  0.3933  0.9268  0.0253
  375MOL0     C49400   7.648   6.782   1.675 -0.0988 -0.7532 -0.3554
  375MOL0     C49401   7.530   6.844   1.685  0.1358  0.1444  0.5520
  375MOL0     C49402   7.434   6.836   1.587  0.3371  0.4254 -0.5809
  375MOL0     O49403   7.311   6.890   1.615  0.4729  0.2424  0.5760
  375MOL0     C49404   7.199   6.878   1.524 -0.1621 -0.1122 -0.8794
  375MOL0     C49405   7.089   6.997   1.521 -0.7708  0.4520 -0.1267
  375MOL0     C49406   6.954   6.942   1.474 -0.0394  1.0961 -0.1775
  375MOL0     C49407   6.843   7.046   1.496 -0.6264  0.6093  0.0578
  375MOL0     C49408   6.703   6.983   1.453 -0.4524 -0.2122 -0.3639
  375MOL0     C49409   6.588   7.074   1.510 -0.5513  0.9065  0.2134
  375MOL0     C49410   6.461   6.998   1.486  0.0504  0.9409 -0.4490
  375MOL0     C49411   6.345   7.094   1.471  0.2040 -0.5674 -0.6823
  375MOL0    Cl49412   6.337   7.210   1.613  0.0879 -0.3231 -0.2862
  375MOL0     C49413   7.457   6.760   1.477  0.5262  0.4736 -0.4224
  375MOL0     C49414   7.576   6.698   1.451  1.1886  0.0287  0.3610
  375MOL0     O49415   7.733   6.453   1.505 -0.1901  0.3050  0.1278
  375MOL0     C49416   7.962   6.363   1.398 -0.0431  0.9153  0.1447
  375MOL0     C49417   8.078   6.317   1.345  0.4764 -0.3043  0.6385
  375MOL0     N49418   8.371   6.817   1.286 -0.3493 -0.3479 -0.0282
  375MOL0     N49419   8.336   6.936   1.309 -0.6858  0.0462  0.7883
  375MOL0     C49420   8.733   7.926   1.534 -1.1679 -1.3854  0.3079
  375MOL0     C49421   8.874   7.952   1.540 -0.4170 -0.9019 -0.2278
  375MOL0     C49422   9.283   8.111   1.557 -0.3180  1.6259  0.6187
  375MOL0     C49423   9.357   8.166   1.660 -0.2612  0.5960  0.3928
  375MOL0     C49424   9.495   8.152   1.671 -0.9485  0.0424  1.0171
  375MOL0     C49425   9.569   8.100   1.567  0.0969 -0.2851 -0.5059
  375MOL0     O49426   9.706   8.078   1.566 -0.3990  0.0101 -0.1722
  375MOL0     C49427   9.790   8.149   1.664  0.0147  0.8987  0.7551
  375MOL0     C49428   9.933   8.160   1.620  0.5085  0.0060  0.2987
  375MOL0     C49429  10.000   8.023   1.587  0.3689  0.5946  0.4148
  375MOL0     C49430  10.017   7.936   1.712 -0.5649 -1.1457 -0.3007
  375MOL0     C49431  10.110   7.991   1.804  0.4113  0.3923  0.0401
  375MOL0     C49432  10.188   8.051   1.880  1.3795  0.0990 -1.1200
  375MOL0     C49433   9.500   8.057   1.454  0.0919 -0.4098  0.5465
  375MOL0     C49434   9.360   8.061   1.448 -0.1980  0.5192  0.7556
  375MOL0     H49435   8.920   8.105   1.239  0.1020  1.4243  0.4058
  375MOL0     H49436   8.687   8.020   1.216 -1.4618 -2.5215  0.3482
  375MOL0     H49437   8.413   8.005   1.511 -2.0310 -1.3880  0.7908
  375MOL0     H49438   8.499   7.865   1.583  2.6614 -0.1640 -1.0303
  375MOL0     H49439   8.292   7.851   1.358  0.0977  0.5687  0.4416
  375MOL0     H49440   8.254   7.832   1.527 -2.0771 -2.1637 -0.7527
  375MOL0     H49441   8.409   7.630   1.548 -0.7713  1.9743  1.0251
  375MOL0     H49442   8.414   7.627   1.367 -0.1597 -1.4018  1.2037
  375MOL0     H49443   8.153   7.606   1.517 -0.5457 -1.0074  0.5433
  375MOL0     H49444   8.171   7.597   1.347 -2.9154  1.1898  0.7491
  375MOL0     H49445   8.157   7.383   1.469 -2.5168  1.9842  0.3964
  375MOL0     H49446   8.314   7.426   1.548 -0.0450  2.2688  0.0917
  375MOL0     H49447   8.434   7.432   1.342  1.0635 -1.2859 -1.3417
  375MOL0     H49448   8.289   7.418   1.248  0.3127  2.3193  0.4410
  375MOL0     H49449   8.398   7.201   1.455 -0.4413  2.5461  1.6791
  375MOL0     H49450   8.243   7.189   1.363  0.2863 -0.7359 -2.5629
  375MOL0     H49451   8.512   7.209   1.220  0.6557 -0.2677  0.9165
  375MOL0     H49452   8.350   7.186   1.146  0.5495 -1.3468  1.1995
  375MOL0     H49453   8.602   6.997   1.126  1.1355 -1.6137 -1.2356
  375MOL0     H49454   8.616   6.661   1.250 -4.7953  1.5053  2.7751
  375MOL0     H49455   8.661   6.742   1.099 -1.0823  0.6482 -2.3689
  375MOL0     H49456   8.574   6.505   1.056 -1.6323 -1.0912  0.9302
  375MOL0     H49457   8.488   6.633   0.976  1.5547 -0.1157 -0.1947
  375MOL0     H49458   8.317   6.610   1.171 -0.4146 -0.3733 -1.7222
  375MOL0     H49459   8.334   6.475   1.060  0.0041 -0.0551 -0.2682
  375MOL0     H49460   8.437   6.494   1.351 -1.7453 -0.6521  1.1367
  375MOL0     H49461   8.509   6.377   1.245 -1.1705 -0.8041 -3.5329
  375MOL0     H49462   8.259   6.603   1.424 -0.2696 -1.3908  3.7690
  375MOL0     H49463   8.059   6.675   1.500  0.0595  0.2520  1.9789
  375MOL0     H49464   7.727   6.795   1.749  1.1845 -1.9712 -1.4411
  375MOL0     H49465   7.505   6.909   1.769  0.3890  0.0619  0.6918
  375MOL0     H49466   7.156   6.779   1.542  1.4951 -1.5004 -3.7602
  375MOL0     H49467   7.235   6.865   1.421  2.9064  0.0903  0.0523
  375MOL0     H49468   7.110   7.084   1.458 -2.0102 -0.3685 -1.7783
  375MOL0     H49469   7.080   7.034   1.624  1.9107 -3.0106  1.5246
  375MOL0     H49470   6.940   6.841   1.514  3.2214  0.0552 -1.3652
  375MOL0     H49471   6.956   6.922   1.367 -3.2129 -0.3052 -0.0925
  375MOL0     H49472   6.833   7.073   1.602 -2.1524 -2.2602  0.7506
  375MOL0     H49473   6.867   7.134   1.436 -3.0578 -0.1370 -2.1800
  375MOL0     H49474   6.701   6.883   1.497 -0.6200  0.6619  1.7272
  375MOL0     H49475   6.704   6.972   1.344  1.2118  0.0486 -0.4001
  375MOL0     H49476   6.590   7.162   1.445 -1.7262 -0.9239 -2.4886
  375MOL0     H49477   6.593   7.108   1.614  1.5686  3.5179 -0.6190
  375MOL0     H49478   6.462   6.935   1.397 -3.7692 -1.2672  0.8403
  375MOL0     H49479   6.427   6.933   1.567  0.1039  1.3065 -0.1275
  375MOL0     H49480   6.249   7.041   1.465  1.2387 -2.3906 -2.0686
  375MOL0     H49481   6.356   7.140   1.373 -0.8556  0.7411 -0.2231
  375MOL0     H49482   7.385   6.757   1.396  0.9047  0.0040 -0.7458
  375MOL0     H49483   7.607   6.650   1.359  7.1401  3.2606  0.1585
  375MOL0     H49484   7.874   6.301   1.383  2.4646 -2.5044 -1.8818
  375MOL0     H49485   8.081   6.219   1.298 -4.4959 -0.8546  0.9841
  375MOL0     H49486   8.685   7.877   1.619  2.4734 -2.3503  1.9778
  375MOL0     H49487   8.918   7.926   1.636 -0.9315  1.3338  0.6781
  375MOL0     H49488   9.298   8.211   1.739 -0.8969  0.7336 -0.1516
  375MOL0     H49489   9.548   8.185   1.759  2.4279 -0.9081 -0.4980
  375MOL0     H49490   9.784   8.103   1.763 -2.6911  1.5483  0.9741
  375MOL0     H49491   9.749   8.250   1.674 -1.4812  0.1930  2.1981
  375MOL0     H49492   9.939   8.235   1.541 -2.0445  0.5145  0.4956
  375MOL0     H49493   9.979   8.212   1.705 -1.2675  0.0272  1.2916
  375MOL0     H49494  10.099   8.038   1.544  1.6845 -2.4860  2.0609
  375MOL0     H49495   9.932   7.970   1.519  0.4699  1.2332 -0.1946
  375MOL0     H49496   9.919   7.924   1.760 -0.6889  0.6222 -0.0394
  375MOL0     H49497  10.049   7.835   1.689  0.3329 -1.0873  0.6182
  375MOL0     H49498  10.242   8.117   1.944  0.2472  1.6490 -1.6892
  375MOL0     H49499   9.562   7.999   1.386  0.1393  0.6461 -0.3456
  375MOL0     H49500   9.309   8.012   1.366 -0.6301  0.2289  1.1922
  376MOL0     O49501   6.122   8.982   1.632  0.5434 -0.0061 -0.6491
  376MOL0     C49502   6.138   9.100   1.631  0.5193  0.1757 -0.5253
  376MOL0     O49503   6.042   9.196   1.627  0.5628  0.2034 -0.0754
  376MOL0     C49504   5.918   9.158   1.648  0.5053  0.8564 -0.7996
  376MOL0     C49505   5.820   9.151   1.544  0.2016 -0.5082  0.8306
  376MOL0     C49506   5.686   9.143   1.575 -0.5308 -0.0894  0.0560
  376MOL0     C49507   5.652   9.120   1.714 -0.7322  0.3587 -0.2612
  376MOL0     O49508   5.523   9.101   1.761 -0.0862 -0.3764 -0.5836
  376MOL0     C49509   5.423   9.144   1.679  0.2514  0.0996 -0.2131
  376MOL0     C49510   5.356   9.027   1.601  0.5763 -0.3232  0.6197
  376MOL0     C49511   5.256   9.070   1.494  0.3279  0.2713  0.7311
  376MOL0     C49512   5.127   9.125   1.560  0.3216  0.3886 -0.2574
  376MOL0     C49513   5.019   9.155   1.456  0.7353 -0.2657  0.2558
  376MOL0     C49514   4.894   9.200   1.529  0.3746  0.2029 -0.4218
  376MOL0     C49515   4.764   9.139   1.472 -0.8692  1.2006 -0.1466
  376MOL0     C49516   4.643   9.205   1.537 -0.0080 -0.4207  0.2263
  376MOL0     N49517   4.516   9.167   1.469  0.5611 -0.9993  0.3179
  376MOL0     C49518   4.486   9.035   1.427  0.3771 -0.0625  0.2357
  376MOL0     C49519   4.371   9.056   1.353  0.0525  0.2392  0.5037
  376MOL0     C49520   4.278   8.963   1.277  0.3893 -0.0475 -0.9461
  376MOL0     C49521   4.150   8.924   1.346 -0.0818 -0.4123 -0.5225
  376MOL0     C49522   4.057   9.046   1.357 -0.6801  0.1742 -0.5581
  376MOL0     C49523   3.911   9.023   1.360  0.1307 -0.5734  0.4673
  376MOL0     O49524   3.872   8.966   1.481 -0.0309  0.7125  0.3460
  376MOL0     C49525   3.740   8.936   1.493 -0.3491  0.2963 -0.1589
  376MOL0     C49526   3.647   8.962   1.385  0.3858  0.1427 -0.7434
  376MOL0     C49527   3.507   8.939   1.404 -0.0911 -0.6308 -1.3559
  376MOL0     C49528   3.463   8.872   1.517 -0.6811  0.1633  0.3836
  376MOL0     C49529   3.320   8.838   1.531  0.1972  0.3154  0.1651
  376MOL0     O49530   3.245   8.869   1.423 -0.2003 -0.2561  0.3164
  376MOL0     C49531   3.113   8.886   1.444  0.3213  0.3763 -0.3363
  376MOL0     C49532   3.072   9.005   1.495 -0.0355 -0.0205 -0.0869
  376MOL0     C49533   2.938   9.022   1.540  0.5888 -1.0872  0.4962
  376MOL0     C49534   2.846   8.918   1.523  0.0694 -0.1456  0.2369
  376MOL0     O49535   2.719   8.936   1.565 -0.3804 -0.3522  0.5868
  376MOL0     C49536   2.701   8.958   1.705  0.0833 -0.3267  0.2252
  376MOL0     C49537   2.600   9.075   1.713 -0.2491 -0.4365  0.7150
  376MOL0     C49538   2.454   9.031   1.689  0.2658  1.1387 -0.2493
  376MOL0     C49539   2.336   9.126   1.710  0.3638 -0.7130 -0.1667
  376MOL0     C49540   2.197   9.049   1.706  0.6894  0.5211  0.9204
  376MOL0     C49541   2.076   9.140   1.738  0.1638 -0.1026 -0.7572
  376MOL0     C49542   1.943   9.066   1.718 -0.0374 -0.3003 -0.3621
  376MOL0     C49543   1.835   9.153   1.777 -0.0005  0.5263  1.0217
  376MOL0    Cl49544   1.851   9.175   1.956  0.2549  0.5908 -0.2508
  376MOL0     C49545   2.887   8.802   1.468  0.1057  0.7568  0.2160
  376MOL0     C49546   3.023   8.780   1.435  0.7989 -0.7203 -0.4682
  376MOL0     O49547   3.279   8.793   1.641  0.0400  0.7253  0.1848
  376MOL0     C49548   3.557   8.842   1.623 -0.7096  0.9214  0.2775
  376MOL0     C49549   3.692   8.875   1.609  0.0079 -0.2269  0.1076
  376MOL0     N49550   4.346   9.195   1.341  0.3294 -0.3654 -0.3019
  376MOL0     N49551   4.435   9.262   1.412 -0.9219 -0.4482 -0.6086
  376MOL0     C49552   5.743   9.111   1.814  0.2012  0.0053  0.7633
  376MOL0     C49553   5.880   9.128   1.776  0.0808 -0.5169 -0.4947
  376MOL0     C49554   6.281   9.135   1.632  0.4354 -0.1455  0.1419
  376MOL0     C49555   6.376   9.036   1.610 -0.2772 -0.0108  0.6443
  376MOL0     C49556   6.511   9.079   1.605  0.2003  0.4949 -0.6441
  376MOL0     C49557   6.553   9.206   1.626 -0.3995  0.8764 -1.1886
  376MOL0     O49558   6.688   9.229   1.610  0.3424  0.7857  0.2464
  376MOL0     C49559   6.743   9.343   1.670 -0.3881 -0.5074 -0.4340
  376MOL0     C49560   6.902   9.340   1.645  0.3514 -0.4130  0.0887
  376MOL0     C49561   6.980   9.233   1.722  0.0345 -0.2652 -0.0222
  376MOL0     C49562   7.104   9.190   1.644 -1.2782  0.7076  0.3907
  376MOL0     C49563   7.210   9.289   1.630  0.2603  0.3715 -0.1609
  376MOL0     C49564   7.305   9.371   1.634 -0.0923 -0.3277 -0.9411
  376MOL0     C49565   6.456   9.305   1.646  1.1237 -0.1152 -0.2251
  376MOL0     C49566   6.320   9.261   1.647 -0.0628  0.0359 -0.6683
  376MOL0     H49567   5.842   9.165   1.438 -2.2525  0.5729  0.3883
  376MOL0     H49568   5.613   9.144   1.494  1.0177 -1.3671 -1.4212
  376MOL0     H49569   5.454   9.223   1.610  3.2660 -0.7938 -0.0294
  376MOL0     H49570   5.340   9.177   1.742  0.3046 -2.0137  1.0279
  376MOL0     H49571   5.316   8.953   1.671  1.0212  0.7836  2.0866
  376MOL0     H49572   5.437   8.969   1.555 -1.7120 -1.7585 -1.9092
  376MOL0     H49573   5.224   8.990   1.427 -4.1215  1.5079  1.0759
  376MOL0     H49574   5.294   9.153   1.434 -1.6585 -0.3276 -1.4781
  376MOL0     H49575   5.080   9.055   1.629 -0.5489 -1.5670 -2.7017
  376MOL0     H49576   5.153   9.220   1.609  1.0722  0.7585 -1.3312
  376MOL0     H49577   4.983   9.070   1.397 -2.1723  0.2119  1.2087
  376MOL0     H49578   5.058   9.234   1.390  0.7228 -0.0809  0.4703
  376MOL0     H49579   4.882   9.307   1.512 -3.2745 -0.2078 -1.1993
  376MOL0     H49580   4.894   9.168   1.634 -2.5400 -1.4755 -0.8163
  376MOL0     H49581   4.761   9.163   1.365 -0.7935  1.6548 -0.0509
  376MOL0     H49582   4.779   9.033   1.495  0.6397  1.6187  1.0069
  376MOL0     H49583   4.654   9.313   1.524 -1.4590 -0.2594  0.1255
  376MOL0     H49584   4.636   9.182   1.644  0.4153  0.4324  0.4452
  376MOL0     H49585   4.535   8.942   1.455 -2.0333 -1.7553 -0.7688
  376MOL0     H49586   4.328   8.868   1.252 -0.1732 -1.0012  1.3126
  376MOL0     H49587   4.248   9.000   1.179 -2.2068 -0.7143 -0.4765
  376MOL0     H49588   4.169   8.908   1.452 -0.5231 -1.9758 -0.6532
  376MOL0     H49589   4.100   8.837   1.302 -1.6702  0.7737 -1.1513
  376MOL0     H49590   4.086   9.103   1.445 -1.5514  0.2589 -0.3210
  376MOL0     H49591   4.082   9.109   1.271  1.7710 -0.6221 -0.5173
  376MOL0     H49592   3.873   8.960   1.280  0.1110 -2.4787  1.9026
  376MOL0     H49593   3.863   9.121   1.351 -0.1165 -0.5413  1.8994
  376MOL0     H49594   3.664   9.008   1.288 -4.0404  0.5553 -1.5494
  376MOL0     H49595   3.439   8.974   1.327 -0.9633 -1.3043 -0.9127
  376MOL0     H49596   3.147   9.084   1.498  1.9847 -1.5454 -3.7182
  376MOL0     H49597   2.906   9.117   1.582  3.2827 -0.5360  1.4533
  376MOL0     H49598   2.794   8.993   1.751  0.0049  1.5324 -0.9173
  376MOL0     H49599   2.650   8.873   1.752  2.5004 -3.1986 -1.9845
  376MOL0     H49600   2.627   9.153   1.642 -1.7116 -0.0129  0.5732
  376MOL0     H49601   2.603   9.114   1.815 -2.9268 -0.9882  1.0991
  376MOL0     H49602   2.431   8.942   1.748  1.6416  0.0655 -1.2615
  376MOL0     H49603   2.446   8.989   1.588  2.1463 -1.8376  0.7123
  376MOL0     H49604   2.339   9.179   1.806 -0.7881  0.8932 -0.9716
  376MOL0     H49605   2.354   9.204   1.635  1.8256 -1.1404 -0.3013
  376MOL0     H49606   2.203   8.958   1.766 -2.2030 -1.5575 -1.6801
  376MOL0     H49607   2.194   9.024   1.600 -1.4141  1.5748  0.6915
  376MOL0     H49608   2.085   9.239   1.692  1.4386  0.7871  1.2585
  376MOL0     H49609   2.089   9.161   1.844  2.7226  1.3977 -1.2867
  376MOL0     H49610   1.918   9.038   1.616 -1.8456 -0.4513  0.0850
  376MOL0     H49611   1.934   8.975   1.779  0.7101  0.9463  1.7233
  376MOL0     H49612   1.740   9.108   1.749  0.3465  0.7784 -0.6598
  376MOL0     H49613   1.822   9.243   1.716 -2.1172  0.5794  1.4672
  376MOL0     H49614   2.823   8.714   1.470  1.9573 -0.7369 -1.3200
  376MOL0     H49615   3.061   8.684   1.402 -0.7296 -1.2650 -0.7243
  376MOL0     H49616   3.521   8.802   1.717  0.8134 -2.8668 -0.6027
  376MOL0     H49617   3.762   8.852   1.689  2.7327  1.5424 -1.6238
  376MOL0     H49618   5.715   9.080   1.914  0.0491 -0.1669  0.6712
  376MOL0     H49619   5.954   9.110   1.853  0.8645  0.2508 -1.0508
  376MOL0     H49620   6.366   8.934   1.575  3.4721 -1.0171  1.9774
  376MOL0     H49621   6.589   9.015   1.566  1.2059  1.6610 -0.5982
  376MOL0     H49622   6.711   9.330   1.774 -0.2707 -2.6338 -0.6333
  376MOL0     H49623   6.693   9.431   1.629  0.9981  0.4378 -0.1689
  376MOL0     H49624   6.916   9.319   1.539 -1.5377  0.1588 -0.3225
  376MOL0     H49625   6.933   9.445   1.653 -2.3295  0.5871 -1.1095
  376MOL0     H49626   6.909   9.149   1.728 -1.4546  0.9858  0.4567
  376MOL0     H49627   6.996   9.266   1.825 -1.7021  1.4695 -0.2552
  376MOL0     H49628   7.163   9.114   1.695  0.7913  1.5181 -0.6365
  376MOL0     H49629   7.076   9.150   1.546 -2.4434 -0.8067  1.3103
  376MOL0     H49630   7.385   9.442   1.642  0.1267 -0.5397 -1.2235
  376MOL0     H49631   6.473   9.411   1.664 -3.7020  0.4378  2.7812
  376MOL0     H49632   6.248   9.342   1.651  0.6176  0.5920  2.1511
  377MOL0     O49633   0.233   3.901   4.811  0.4451  0.1240 -0.9685
  377MOL0     C49634   0.270   4.009   4.766 -0.1665 -0.5056  1.1641
  377MOL0     O49635   0.232   4.125   4.817  0.2442  0.0552 -0.3384
  377MOL0     C49636   0.109   4.126   4.887  0.3987 -0.6293 -0.9036
  377MOL0     C49637  -0.010   4.106   4.818  0.1833  0.3224  0.5752
  377MOL0     C49638  -0.133   4.117   4.885 -0.0005 -0.2098  0.0268
  377MOL0     C49639  -0.141   4.156   5.028 -0.5399  0.3055 -0.6042
  377MOL0     O49640  -0.267   4.168   5.087 -0.1139 -0.0542  0.1903
  377MOL0     C49641  -0.279   4.206   5.226 -0.6419  0.5064  0.6590
  377MOL0     C49642  -0.416   4.170   5.286  0.6470 -0.4233  0.3978
  377MOL0     C49643  -0.532   4.235   5.218  0.1844 -0.0075 -0.3856
  377MOL0     C49644  -0.666   4.198   5.280 -0.0568 -0.0678 -0.1902
  377MOL0     C49645  -0.775   4.211   5.163 -0.1602  0.7623  0.1055
  377MOL0     C49646  -0.912   4.188   5.213 -0.6786  0.4522 -0.1304
  377MOL0     C49647  -1.015   4.229   5.112 -0.4778 -1.2275 -0.0940
  377MOL0     C49648  -1.003   4.377   5.066 -0.1880 -0.2259 -0.7917
  377MOL0     N49649  -1.123   4.420   4.993  0.6503 -0.0316 -0.3382
  377MOL0     C49650  -1.199   4.340   4.906  0.7676  0.7770  0.9793
  377MOL0     C49651  -1.307   4.407   4.875  0.5198  0.2524 -1.0235
  377MOL0     C49652  -1.417   4.347   4.793 -0.5821  0.1170  0.3276
  377MOL0     C49653  -1.558   4.362   4.859  0.3800  0.2456 -0.1187
  377MOL0     C49654  -1.678   4.350   4.771  1.0070  0.0081  0.1110
  377MOL0     C49655  -1.804   4.380   4.860 -0.7667 -0.4383  0.1989
  377MOL0     O49656  -1.919   4.378   4.772 -0.2635 -0.1451  0.4355
  377MOL0     C49657  -2.043   4.424   4.817 -0.1734 -0.1096 -0.2192
  377MOL0     C49658  -2.059   4.497   4.936  0.1795 -0.0293 -0.8779
  377MOL0     C49659  -2.182   4.557   4.968 -0.9999 -0.1692 -0.7983
  377MOL0     C49660  -2.294   4.541   4.887 -0.1092 -0.2594 -0.0128
  377MOL0     C49661  -2.428   4.581   4.924 -0.1912 -0.5865  0.3474
  377MOL0     O49662  -2.524   4.526   4.840 -0.6017 -0.5243  0.0425
  377MOL0     C49663  -2.658   4.517   4.873  1.0897 -0.4590 -0.2168
  377MOL0     C49664  -2.697   4.492   5.005  1.0047 -0.8346 -0.6687
  377MOL0     C49665  -2.829   4.493   5.036 -0.2169  0.3529 -0.6866
  377MOL0     C49666  -2.924   4.509   4.936 -0.0136  0.5438  0.3232
  377MOL0     O49667  -3.061   4.497   4.959  0.0340 -0.5618  0.0897
  377MOL0     C49668  -3.109   4.491   5.098  0.3808 -0.5776  0.5426
  377MOL0     C49669  -3.264   4.510   5.095  0.4334 -0.0434 -0.3622
  377MOL0     C49670  -3.342   4.398   5.018 -0.5235 -0.3002  0.5349
  377MOL0     C49671  -3.492   4.422   5.034 -0.1752  0.6976  0.3624
  377MOL0     C49672  -3.578   4.303   4.993  0.4068 -0.1031 -0.0201
  377MOL0     C49673  -3.578   4.179   5.085  0.5909  0.2532 -0.0812
  377MOL0     C49674  -3.683   4.076   5.037  0.7309 -0.2772 -0.8648
  377MOL0     C49675  -3.667   3.958   5.128  0.6942 -0.9199 -0.7285
  377MOL0    Cl49676  -3.515   3.871   5.080 -0.2727 -0.5926 -0.0378
  377MOL0     C49677  -2.886   4.534   4.805 -0.0365  0.1576  0.3780
  377MOL0     C49678  -2.750   4.548   4.772  0.1293 -0.2771  0.0629
  377MOL0     O49679  -2.442   4.659   5.016 -0.1792 -0.0577 -0.2098
  377MOL0     C49680  -2.266   4.486   4.762  0.6059 -0.4476 -0.4278
  377MOL0     C49681  -2.144   4.423   4.725 -0.1585 -0.6728  0.3288
  377MOL0     N49682  -1.298   4.527   4.942 -0.2300  0.8586 -0.3833
  377MOL0     N49683  -1.188   4.541   4.998 -0.7413  0.5081 -0.5058
  377MOL0     C49684  -0.014   4.182   5.087 -0.2923 -0.4306  0.6505
  377MOL0     C49685   0.104   4.179   5.016  0.0302  0.1991 -0.3887
  377MOL0     C49686   0.385   4.006   4.678  1.6337  0.0755  0.2299
  377MOL0     C49687   0.443   3.883   4.629  0.2369 -0.6646 -0.1634
  377MOL0     C49688   0.553   3.882   4.547 -0.2780 -0.0455 -0.1619
  377MOL0     C49689   0.611   4.005   4.502  0.1744 -0.4748 -0.9556
  377MOL0     O49690   0.713   3.984   4.425  0.0648 -0.1398  0.2226
  377MOL0     C49691   0.790   4.092   4.380  0.5224 -0.6309 -0.2211
  377MOL0     C49692   0.915   4.092   4.464  0.0376 -0.8679  0.2882
  377MOL0     C49693   1.018   3.977   4.449 -0.5497  0.2207  0.2938
  377MOL0     C49694   1.154   4.017   4.506 -0.0527 -0.4576  0.6581
  377MOL0     C49695   1.240   3.897   4.511  0.7046 -0.0849  0.1231
  377MOL0     C49696   1.314   3.800   4.505 -0.3147 -0.5540  0.3288
  377MOL0     C49697   0.543   4.121   4.542  0.4751 -0.5718  0.4065
  377MOL0     C49698   0.430   4.124   4.628  0.0592  0.3111  0.1218
  377MOL0     H49699  -0.006   4.098   4.710  2.3487 -1.0399  0.6969
  377MOL0     H49700  -0.220   4.122   4.820 -0.3969 -0.6013  0.5257
  377MOL0     H49701  -0.265   4.314   5.239  3.7541  0.4068 -1.4895
  377MOL0     H49702  -0.192   4.165   5.279 -2.3311 -2.0775  1.6137
  377MOL0     H49703  -0.419   4.212   5.387  1.0733 -0.1766  0.3109
  377MOL0     H49704  -0.438   4.063   5.289 -1.6110  0.0102  3.2139
  377MOL0     H49705  -0.536   4.205   5.113  1.4349  1.4024 -0.8663
  377MOL0     H49706  -0.510   4.342   5.223  1.9211 -0.3774  1.0012
  377MOL0     H49707  -0.661   4.096   5.319 -2.5102 -0.6966 -1.3033
  377MOL0     H49708  -0.673   4.263   5.368 -0.0169 -0.5327  0.1602
  377MOL0     H49709  -0.760   4.138   5.083  1.0955  2.6944 -1.5262
  377MOL0     H49710  -0.774   4.315   5.129 -2.6855  1.0195  0.5789
  377MOL0     H49711  -0.929   4.238   5.308  0.8283  2.0036 -0.6111
  377MOL0     H49712  -0.925   4.080   5.227  5.6394 -0.4132  2.6660
  377MOL0     H49713  -1.019   4.166   5.023 -2.4740 -1.8962  0.4064
  377MOL0     H49714  -1.114   4.219   5.158  0.1298 -2.1673  1.0770
  377MOL0     H49715  -0.912   4.382   5.004 -1.2610  0.5055 -2.3696
  377MOL0     H49716  -1.011   4.438   5.156 -1.6387 -1.1440 -0.2674
  377MOL0     H49717  -1.187   4.234   4.890  2.5532  1.3467 -2.2415
  377MOL0     H49718  -1.399   4.242   4.766  1.5052  0.7418 -0.9213
  377MOL0     H49719  -1.414   4.398   4.697 -1.8694 -1.7261 -0.7472
  377MOL0     H49720  -1.553   4.464   4.898  2.1006  1.3559 -2.9670
  377MOL0     H49721  -1.572   4.282   4.933 -1.2888 -1.4843 -2.1787
  377MOL0     H49722  -1.662   4.416   4.685  0.9922 -0.8427 -0.5563
  377MOL0     H49723  -1.687   4.246   4.737  1.5459 -0.5305  1.5267
  377MOL0     H49724  -1.793   4.477   4.911 -2.1478 -2.0868  3.9668
  377MOL0     H49725  -1.813   4.310   4.943  0.4231 -0.0337  0.6966
  377MOL0     H49726  -1.984   4.511   5.013  0.3708 -0.0034 -1.0668
  377MOL0     H49727  -2.187   4.610   5.063  0.5764 -1.2528 -0.0632
  377MOL0     H49728  -2.628   4.469   5.085 -1.8502 -0.8950  2.0166
  377MOL0     H49729  -2.867   4.472   5.135 -0.0861 -0.0175 -0.7135
  377MOL0     H49730  -3.073   4.572   5.163 -2.1439  0.6264  0.5596
  377MOL0     H49731  -3.079   4.395   5.140  4.0795  0.1853 -0.0311
  377MOL0     H49732  -3.274   4.609   5.050 -0.3102  0.0137 -0.0908
  377MOL0     H49733  -3.303   4.518   5.197 -2.1864 -1.6415 -1.1407
  377MOL0     H49734  -3.316   4.298   5.055 -0.1231 -0.2836  0.3077
  377MOL0     H49735  -3.303   4.390   4.916  1.0182  3.7595  0.6204
  377MOL0     H49736  -3.514   4.444   5.138  0.3201 -0.5207  0.7443
  377MOL0     H49737  -3.510   4.513   4.975  1.2194  1.8341  1.6006
  377MOL0     H49738  -3.551   4.273   4.892  2.3314  0.4448  0.3001
  377MOL0     H49739  -3.683   4.332   5.003  0.5259  0.4112 -0.2497
  377MOL0     H49740  -3.589   4.215   5.187 -1.2841  0.2185 -0.2444
  377MOL0     H49741  -3.477   4.136   5.085 -0.5939 -3.0316  3.5229
  377MOL0     H49742  -3.779   4.124   5.060  1.6302  1.2429 -0.1772
  377MOL0     H49743  -3.665   4.042   4.934 -2.2687 -0.8422 -1.3057
  377MOL0     H49744  -3.750   3.887   5.117  0.8895 -1.1288 -0.8657
  377MOL0     H49745  -3.662   4.001   5.228 -0.2569  2.5091 -2.0206
  377MOL0     H49746  -2.961   4.551   4.729  0.8649  2.0202 -0.1498
  377MOL0     H49747  -2.725   4.588   4.674  2.2283  0.8253  0.9665
  377MOL0     H49748  -2.349   4.478   4.693  2.3194  0.3712 -2.7225
  377MOL0     H49749  -2.118   4.378   4.630  0.1665  3.6716 -1.8987
  377MOL0     H49750  -0.017   4.247   5.175 -0.7617 -0.0011  0.3268
  377MOL0     H49751   0.194   4.206   5.071  1.1972 -0.3816 -1.9527
  377MOL0     H49752   0.401   3.787   4.656  0.7733 -0.2654  2.2697
  377MOL0     H49753   0.595   3.788   4.515 -2.7113 -1.3889  0.3332
  377MOL0     H49754   0.734   4.186   4.381  0.9759 -0.3622  0.1338
  377MOL0     H49755   0.841   4.062   4.288  1.2971 -1.2165  0.3890
  377MOL0     H49756   0.976   4.179   4.437 -0.9440  0.2798  1.6139
  377MOL0     H49757   0.879   4.115   4.565  0.8646 -0.6540  0.5417
  377MOL0     H49758   1.031   3.944   4.346  2.7561  0.8037  0.3960
  377MOL0     H49759   0.976   3.895   4.507  1.9754  2.6123  6.4734
  377MOL0     H49760   1.193   4.100   4.446  1.8098 -1.2405  0.7458
  377MOL0     H49761   1.135   4.060   4.605 -2.4721 -0.4762  0.2830
  377MOL0     H49762   1.378   3.715   4.508  0.8674  0.3236  0.5057
  377MOL0     H49763   0.572   4.209   4.486 -1.2986  1.0912  1.9596
  377MOL0     H49764   0.386   4.220   4.654 -0.4106  0.6009 -1.6199
  378MOL0     O49765   7.407   2.700   3.888  0.1337 -0.1310  0.7340
  378MOL0     C49766   7.382   2.783   3.794  0.4639 -0.5252 -0.2126
  378MOL0     O49767   7.260   2.828   3.753  0.9634  0.1589 -0.1140
  378MOL0     C49768   7.153   2.779   3.821 -0.1061  0.0201 -0.0143
  378MOL0     C49769   7.128   2.643   3.845  0.4242 -0.3794 -1.0949
  378MOL0     C49770   7.012   2.610   3.930 -0.5360  0.4564 -0.5153
  378MOL0     C49771   6.918   2.707   3.966  0.2065  0.5216  0.7531
  378MOL0     O49772   6.800   2.665   4.012 -0.2265 -0.1704  0.0372
  378MOL0     C49773   6.738   2.755   4.105 -0.6574  0.2927 -0.8825
  378MOL0     C49774   6.660   2.666   4.201 -0.0313 -0.5600 -0.6193
  378MOL0     C49775   6.529   2.613   4.126  0.7310  0.3315  0.0955
  378MOL0     C49776   6.457   2.519   4.225  0.4100  0.9174  0.6777
  378MOL0     C49777   6.333   2.446   4.179  0.5721 -0.4742 -0.1345
  378MOL0     C49778   6.225   2.555   4.157  0.1755  0.8046  0.2665
  378MOL0     C49779   6.094   2.496   4.108 -0.8823 -1.1038  0.2665
  378MOL0     C49780   6.011   2.431   4.226  0.1536  0.2445  0.5025
  378MOL0     N49781   5.931   2.313   4.182 -0.3511  0.6917 -0.5734
  378MOL0     C49782   5.958   2.180   4.190  0.4189 -0.2315 -0.5502
  378MOL0     C49783   5.864   2.124   4.111  0.4796  0.1176  0.6383
  378MOL0     C49784   5.855   1.970   4.095  0.0954 -0.2559  0.2020
  378MOL0     C49785   5.749   1.930   4.000 -0.1415  0.3128 -0.0460
  378MOL0     C49786   5.749   1.777   3.991 -0.6347 -1.5355 -0.3007
  378MOL0     C49787   5.611   1.725   3.955 -0.0134 -0.4589 -0.2388
  378MOL0     O49788   5.591   1.739   3.810  0.0729 -0.2534 -0.2720
  378MOL0     C49789   5.465   1.721   3.770  0.1097 -0.7924  0.4418
  378MOL0     C49790   5.396   1.833   3.731 -0.2669 -0.1185 -0.0676
  378MOL0     C49791   5.263   1.828   3.700  0.4491 -0.1843  0.3521
  378MOL0     C49792   5.192   1.702   3.715  0.9946 -0.1155  0.6047
  378MOL0     C49793   5.047   1.689   3.680 -0.5654  0.0699 -0.1388
  378MOL0     O49794   4.985   1.811   3.676 -0.0193  0.1168 -0.1648
  378MOL0     C49795   4.850   1.809   3.668 -0.6193 -0.1260  0.5633
  378MOL0     C49796   4.805   1.826   3.534 -0.4159 -0.7522 -0.0088
  378MOL0     C49797   4.665   1.836   3.524  0.3015 -0.1461 -0.6605
  378MOL0     C49798   4.574   1.832   3.634 -0.3989 -0.8704  0.1963
  378MOL0     O49799   4.439   1.829   3.620  0.6759 -0.3565 -0.8402
  378MOL0     C49800   4.381   1.893   3.512 -0.1855 -0.8469  0.4223
  378MOL0     C49801   4.231   1.902   3.527  0.3780  0.0186 -0.2658
  378MOL0     C49802   4.150   1.771   3.522 -0.1799  0.2982 -0.0532
  378MOL0     C49803   4.003   1.812   3.545  0.2525  0.6841 -0.2852
  378MOL0     C49804   3.912   1.699   3.515  0.2920 -0.2375  0.0177
  378MOL0     C49805   3.765   1.733   3.554 -0.0991  0.1258  0.4594
  378MOL0     C49806   3.653   1.635   3.525 -0.0509  0.5064  0.2048
  378MOL0     C49807   3.511   1.700   3.530 -0.5552  0.1254 -0.5320
  378MOL0    Cl49808   3.453   1.781   3.690  0.3013  0.1490  0.1305
  378MOL0     C49809   4.629   1.817   3.755 -0.0932  0.1127 -1.1208
  378MOL0     C49810   4.767   1.797   3.779 -0.0793  0.1226  0.1582
  378MOL0     O49811   5.000   1.580   3.668  0.3247 -0.0835 -0.5047
  378MOL0     C49812   5.268   1.591   3.741  0.4648  0.5958 -0.4712
  378MOL0     C49813   5.405   1.596   3.762 -0.0625  0.1738  0.1759
  378MOL0     N49814   5.774   2.219   4.072  1.0325  0.0654  0.2788
  378MOL0     N49815   5.820   2.329   4.114 -0.0423 -0.2351 -0.1930
  378MOL0     C49816   6.940   2.836   3.927 -0.3537 -0.1377  0.4255
  378MOL0     C49817   7.063   2.873   3.862 -0.9034  0.0216 -0.7831
  378MOL0     C49818   7.497   2.839   3.723  0.5268 -0.4532  0.3114
  378MOL0     C49819   7.627   2.824   3.774  0.7570 -0.5142 -0.3392
  378MOL0     C49820   7.743   2.886   3.725  0.5601 -0.0078 -0.0646
  378MOL0     C49821   7.733   2.956   3.608 -0.5840 -0.6749 -0.7119
  378MOL0     O49822   7.851   3.005   3.564 -0.0917 -0.5647  0.2672
  378MOL0     C49823   7.855   3.103   3.457  0.8576  0.7857  0.2066
  378MOL0     C49824   8.000   3.133   3.438  0.5059 -0.3893 -0.3020
  378MOL0     C49825   8.061   3.241   3.540  0.4992  0.6059 -0.9161
  378MOL0     C49826   8.199   3.201   3.594 -0.0281  0.0095 -0.9447
  378MOL0     C49827   8.237   3.294   3.701  0.4058  0.2617  0.2666
  378MOL0     C49828   8.270   3.356   3.800  0.5660 -0.5476  0.0472
  378MOL0     C49829   7.606   2.959   3.544 -1.1242 -0.7268  0.3397
  378MOL0     C49830   7.490   2.907   3.603 -0.6210 -1.0117  0.6054
  378MOL0     H49831   7.201   2.568   3.815 -2.3681 -3.3096 -1.0528
  378MOL0     H49832   6.984   2.507   3.950  0.1312  0.9072  3.5820
  378MOL0     H49833   6.669   2.824   4.055 -1.6197 -0.1249 -0.1691
  378MOL0     H49834   6.813   2.803   4.168  0.5087 -2.9528  0.4499
  378MOL0     H49835   6.621   2.723   4.285  0.7080  0.9479 -1.2594
  378MOL0     H49836   6.731   2.593   4.241  0.7497  0.1576 -0.6755
  378MOL0     H49837   6.564   2.559   4.038  0.2386 -1.0188  0.7104
  378MOL0     H49838   6.461   2.696   4.101 -2.1199 -1.5572  1.0607
  378MOL0     H49839   6.525   2.440   4.257 -1.0288 -0.6748 -0.0555
  378MOL0     H49840   6.436   2.574   4.317 -0.8494  0.0276  0.9456
  378MOL0     H49841   6.309   2.361   4.244 -0.0804  0.2344  0.5662
  378MOL0     H49842   6.347   2.394   4.083 -2.7318  0.8806 -1.5064
  378MOL0     H49843   6.263   2.620   4.078  1.7762 -0.1497  0.2215
  378MOL0     H49844   6.203   2.617   4.244 -1.2612  0.8920 -0.1309
  378MOL0     H49845   6.044   2.582   4.062  1.6648  0.3793  0.0704
  378MOL0     H49846   6.113   2.429   4.024  3.2176  2.8608 -2.4524
  378MOL0     H49847   5.942   2.505   4.270 -1.4234 -0.1096 -1.2539
  378MOL0     H49848   6.087   2.401   4.298  2.6025  1.8523 -1.2295
  378MOL0     H49849   6.031   2.132   4.255  2.4008  0.8228 -1.9057
  378MOL0     H49850   5.833   1.928   4.194  1.4037  1.9282  1.5149
  378MOL0     H49851   5.958   1.934   4.084  0.4197 -0.5754  3.2596
  378MOL0     H49852   5.764   1.968   3.898  0.0441  0.2974 -0.0253
  378MOL0     H49853   5.656   1.973   4.039  0.4167  1.2713  0.2661
  378MOL0     H49854   5.830   1.752   3.922  1.0374  1.6790  0.2862
  378MOL0     H49855   5.767   1.738   4.092 -4.0308 -0.3865  0.8736
  378MOL0     H49856   5.536   1.781   4.012  1.7314 -0.0883  1.7896
  378MOL0     H49857   5.597   1.618   3.970  0.5026 -0.5355 -0.2880
  378MOL0     H49858   5.434   1.935   3.727  0.4488 -0.3917 -0.3265
  378MOL0     H49859   5.211   1.918   3.669  0.2444 -0.2326  0.5466
  378MOL0     H49860   4.875   1.836   3.451 -1.5654  4.1758 -0.6918
  378MOL0     H49861   4.615   1.858   3.430  0.2990 -0.7350 -0.8030
  378MOL0     H49862   4.405   1.847   3.416  2.2648 -1.4461  1.2468
  378MOL0     H49863   4.426   1.992   3.501 -2.5650  0.0840 -2.1608
  378MOL0     H49864   4.196   1.966   3.445 -0.3524  0.1144  0.1065
  378MOL0     H49865   4.212   1.965   3.615 -0.4218  0.3121 -0.6332
  378MOL0     H49866   4.183   1.698   3.597  0.7672 -1.5978 -2.2046
  378MOL0     H49867   4.173   1.730   3.423  2.2117  4.2271 -1.3765
  378MOL0     H49868   3.988   1.845   3.648 -0.0152  1.6080 -0.6092
  378MOL0     H49869   3.981   1.900   3.483  1.0069 -0.5261 -2.3717
  378MOL0     H49870   3.946   1.610   3.568  0.3135  0.4033  1.1033
  378MOL0     H49871   3.898   1.670   3.411  0.8377 -3.0303  0.6574
  378MOL0     H49872   3.736   1.831   3.516 -1.8417  0.0435  1.4717
  378MOL0     H49873   3.765   1.744   3.663  0.4220 -1.1990  0.6186
  378MOL0     H49874   3.655   1.597   3.422 -3.1442 -3.0378  1.2339
  378MOL0     H49875   3.657   1.548   3.590 -4.9113 -0.5674 -0.5342
  378MOL0     H49876   3.436   1.622   3.515  0.4142 -1.2842  1.4887
  378MOL0     H49877   3.501   1.777   3.452 -2.2802  2.6781  2.0156
  378MOL0     H49878   4.565   1.803   3.842  2.9695  2.0301  1.6573
  378MOL0     H49879   4.812   1.775   3.875  2.4767  1.0218 -0.7579
  378MOL0     H49880   5.223   1.493   3.753 -0.4193  1.0415 -0.0374
  378MOL0     H49881   5.457   1.501   3.776  0.1495 -0.0620 -1.9528
  378MOL0     H49882   6.868   2.915   3.947 -0.2676 -0.4118  1.9037
  378MOL0     H49883   7.080   2.976   3.832  0.9260  0.0627  0.2326
  378MOL0     H49884   7.630   2.762   3.863 -3.4157  1.6392  1.5657
  378MOL0     H49885   7.841   2.878   3.773  0.4276 -0.0796  0.1965
  378MOL0     H49886   7.793   3.188   3.487  1.7684  0.5582  2.9528
  378MOL0     H49887   7.814   3.066   3.362  0.3210  0.4601  0.5582
  378MOL0     H49888   8.062   3.044   3.448  0.5821 -0.2302  0.7709
  378MOL0     H49889   8.015   3.166   3.335 -0.6144  1.7207  0.1570
  378MOL0     H49890   7.990   3.263   3.620 -0.3864 -0.5594 -1.3455
  378MOL0     H49891   8.064   3.344   3.503 -3.3927  0.7482 -1.2396
  378MOL0     H49892   8.192   3.104   3.645  1.2127 -0.4862 -1.6960
  378MOL0     H49893   8.276   3.184   3.519  0.1023 -2.8401 -0.3081
  378MOL0     H49894   8.294   3.410   3.889 -0.3131 -0.1857  0.0687
  378MOL0     H49895   7.600   3.015   3.451 -1.2515 -0.7837  0.3141
  378MOL0     H49896   7.394   2.909   3.554 -0.3992  1.3647  0.1445
  379MOL0     O49897   3.595   9.298   3.638 -0.2047 -0.2178  0.3905
  379MOL0     C49898   3.674   9.311   3.731  0.3284  0.2455 -0.0545
  379MOL0     O49899   3.649   9.371   3.848 -0.0293 -0.2170 -0.1707
  379MOL0     C49900   3.556   9.465   3.851  0.3141  0.1843 -0.1212
  379MOL0     C49901   3.536   9.562   3.753  1.1208 -0.6688  1.5264
  379MOL0     C49902   3.454   9.671   3.768 -0.7633 -0.3915  0.1254
  379MOL0     C49903   3.378   9.682   3.887  0.4011 -0.7949  0.5685
  379MOL0     O49904   3.280   9.778   3.900 -0.8464 -0.4208  0.1542
  379MOL0     C49905   3.278   9.885   3.803 -0.7967  0.2720 -0.0720
  379MOL0     C49906   3.163   9.977   3.811 -0.4481  0.0336 -0.1586
  379MOL0     C49907   3.033   9.909   3.834  0.1855  0.1196 -0.2007
  379MOL0     C49908   2.919  10.006   3.799  0.2757  0.3377  0.2527
  379MOL0     C49909   2.795   9.981   3.880 -0.8985 -0.0718  0.7305
  379MOL0     C49910   2.791  10.081   4.003 -0.4220  0.3221  0.8001
  379MOL0     C49911   2.656  10.054   4.084 -0.4315  0.0641  0.0031
  379MOL0     C49912   2.527  10.118   4.021 -0.0171  0.6562  0.3181
  379MOL0     N49913   2.525  10.265   4.053  0.2984  0.6470  0.1100
  379MOL0     C49914   2.483  10.319   4.170  1.3902 -0.4591  0.8720
  379MOL0     C49915   2.482  10.452   4.146  0.4970 -0.5084 -0.8620
  379MOL0     C49916   2.460  10.556   4.258 -0.0040  0.2933 -0.1051
  379MOL0     C49917   2.317  10.587   4.282  0.6020  0.0618  0.5701
  379MOL0     C49918   2.233  10.623   4.159  0.2535  0.4540 -0.1722
  379MOL0     C49919   2.094  10.682   4.205 -0.4714  0.0711 -0.5865
  379MOL0     O49920   2.010  10.720   4.096 -0.4933 -0.3639 -0.1970
  379MOL0     C49921   1.930  10.832   4.098  0.3933  0.6088  0.7881
  379MOL0     C49922   1.874  10.872   3.976  0.0751 -0.7646 -0.3226
  379MOL0     C49923   1.773  10.974   3.972 -0.1991 -0.6520 -0.5095
  379MOL0     C49924   1.738  11.042   4.091  0.2116 -0.1546 -0.5711
  379MOL0     C49925   1.627  11.127   4.105 -0.7305 -1.4611  0.2606
  379MOL0     O49926   1.543  11.129   3.995 -0.1777  0.0618  0.5014
  379MOL0     C49927   1.438  11.217   3.991  0.4654 -0.0894 -0.2630
  379MOL0     C49928   1.331  11.215   4.083  0.2477  0.1715  0.2296
  379MOL0     C49929   1.210  11.288   4.052 -0.4140 -0.0762  0.2575
  379MOL0     C49930   1.203  11.359   3.935  0.0263 -0.6373  0.2438
  379MOL0     O49931   1.094  11.436   3.896 -0.9314 -0.0618  0.8063
  379MOL0     C49932   1.074  11.542   3.991 -0.5087  0.2133  0.7110
  379MOL0     C49933   1.180  11.646   3.961  0.5508  0.1716  1.1906
  379MOL0     C49934   1.161  11.705   3.825  0.2239  0.8670  0.0963
  379MOL0     C49935   1.266  11.809   3.788  0.2319  0.0945  0.0477
  379MOL0     C49936   1.209  11.889   3.670  0.4484 -0.0339  0.0773
  379MOL0     C49937   1.294  12.011   3.642  0.3682 -0.5690  0.3548
  379MOL0     C49938   1.230  12.094   3.519 -0.3262  0.6218 -1.3742
  379MOL0     C49939   1.292  12.227   3.493 -0.3732 -0.0489 -0.7076
  379MOL0    Cl49940   1.175  12.323   3.413 -0.1431 -0.5824 -0.0295
  379MOL0     C49941   1.308  11.354   3.844 -0.4399  0.1802 -0.4902
  379MOL0     C49942   1.422  11.292   3.877  0.5274 -0.5896 -0.7961
  379MOL0     O49943   1.595  11.178   4.216 -0.7794  0.1066  0.3038
  379MOL0     C49944   1.803  11.002   4.206  0.2195  0.5726 -0.3403
  379MOL0     C49945   1.896  10.900   4.216 -0.4759 -0.1827 -0.6033
  379MOL0     N49946   2.523  10.473   4.022 -0.7672 -0.1183  0.5652
  379MOL0     N49947   2.544  10.362   3.967 -0.0776  0.0638  0.3142
  379MOL0     C49948   3.399   9.586   3.986  0.0126 -0.4267  0.3459
  379MOL0     C49949   3.486   9.483   3.974  0.3488 -0.1819 -0.0055
  379MOL0     C49950   3.815   9.263   3.711 -0.5637 -0.6380 -0.8691
  379MOL0     C49951   3.847   9.176   3.605  0.0079  0.4520  0.3470
  379MOL0     C49952   3.979   9.120   3.597 -0.5877  0.3944  0.4144
  379MOL0     C49953   4.067   9.132   3.706 -1.4545  0.2471 -0.8725
  379MOL0     O49954   4.180   9.058   3.712 -0.7000 -0.0881 -0.1222
  379MOL0     C49955   4.263   9.018   3.601 -0.9384  0.1468  0.4932
  379MOL0     C49956   4.406   9.064   3.642  0.4086  0.7108 -0.3495
  379MOL0     C49957   4.409   9.220   3.631  0.0958 -0.6669 -0.6966
  379MOL0     C49958   4.552   9.270   3.662  0.9699  0.5449  0.1563
  379MOL0     C49959   4.549   9.417   3.662 -0.3991 -0.1153 -0.0269
  379MOL0     C49960   4.549   9.536   3.656  0.7926 -0.7290 -0.2395
  379MOL0     C49961   4.037   9.215   3.812 -0.4584 -0.1507  0.7367
  379MOL0     C49962   3.915   9.283   3.820  0.6112 -0.3518 -0.0512
  379MOL0     H49963   3.583   9.555   3.655 -2.3795 -3.2233 -0.2093
  379MOL0     H49964   3.456   9.741   3.685 -0.6283  0.0496  0.4976
  379MOL0     H49965   3.267   9.844   3.702  0.9477 -0.4695  0.0162
  379MOL0     H49966   3.368   9.947   3.811 -0.4650 -0.1574 -0.4664
  379MOL0     H49967   3.152  10.025   3.713 -1.5617  0.5493  0.2010
  379MOL0     H49968   3.178  10.052   3.889 -0.3207  1.0277 -1.1146
  379MOL0     H49969   3.030   9.887   3.941 -0.6750 -1.3877 -0.5067
  379MOL0     H49970   3.029   9.808   3.792  0.2074 -0.6517  1.5339
  379MOL0     H49971   2.953  10.109   3.804 -1.3822  0.8510  3.0702
  379MOL0     H49972   2.896  10.000   3.692  2.6609  3.2027 -0.5262
  379MOL0     H49973   2.787   9.876   3.910 -0.3300 -0.8046 -1.5129
  379MOL0     H49974   2.707  10.003   3.819  0.2443 -0.7764 -1.2743
  379MOL0     H49975   2.779  10.182   3.964  0.3733  0.1073 -0.0289
  379MOL0     H49976   2.879  10.072   4.068 -0.0381  0.7390  0.3525
  379MOL0     H49977   2.645   9.946   4.093  2.2616 -0.0679  3.4956
  379MOL0     H49978   2.671  10.084   4.188 -2.1630  1.6852 -0.1465
  379MOL0     H49979   2.443  10.059   4.056  1.3166 -2.8872 -1.9340
  379MOL0     H49980   2.529  10.101   3.913  1.7688  0.4864  0.3425
  379MOL0     H49981   2.454  10.255   4.253 -2.3954 -1.5505 -1.0481
  379MOL0     H49982   2.516  10.647   4.239 -1.3886  1.4160  0.9625
  379MOL0     H49983   2.495  10.504   4.348  0.6469 -2.6327 -1.9190
  379MOL0     H49984   2.310  10.670   4.353 -1.6218  1.3573 -1.0427
  379MOL0     H49985   2.271  10.501   4.330 -0.6679  0.2104 -0.3433
  379MOL0     H49986   2.283  10.701   4.101  1.3525  0.0499  0.1864
  379MOL0     H49987   2.217  10.532   4.099  1.4976  0.1202 -0.0273
  379MOL0     H49988   2.109  10.764   4.276 -2.3694  0.5540 -0.7022
  379MOL0     H49989   2.041  10.611   4.269  1.6694  0.3292  1.6496
  379MOL0     H49990   1.917  10.830   3.886  3.2719  0.6582  0.3870
  379MOL0     H49991   1.729  11.008   3.878 -1.1132  1.8965  0.7616
  379MOL0     H49992   1.345  11.155   4.172  1.5277  0.4071  0.2061
  379MOL0     H49993   1.124  11.291   4.118  1.5094  0.2034  2.9006
  379MOL0     H49994   1.082  11.515   4.097  1.0524  0.4582  0.6703
  379MOL0     H49995   0.968  11.569   3.991 -0.7347 -0.5384  2.0725
  379MOL0     H49996   1.284  11.612   3.969  1.5877  2.7679 -0.1761
  379MOL0     H49997   1.170  11.732   4.027  0.0298  0.7284  0.4022
  379MOL0     H49998   1.067  11.761   3.826  0.2204  0.8619  0.8254
  379MOL0     H49999   1.154  11.629   3.747 -1.9869  0.0755  0.9876
  379MOL0     H50000   1.288  11.872   3.875 -2.8720 -0.7191  1.5972
  379MOL0     H50001   1.362  11.759   3.773  0.1106  0.1900 -1.1095
  379MOL0     H50002   1.107  11.925   3.685  0.2093 -0.3643 -0.6887
  379MOL0     H50003   1.214  11.829   3.578 -0.0106 -1.9087  1.2200
  379MOL0     H50004   1.396  11.978   3.619  0.2592 -0.0145 -1.0132
  379MOL0     H50005   1.294  12.074   3.731 -1.2171  1.4484 -0.9891
  379MOL0     H50006   1.256  12.041   3.426  1.0931  0.3134 -0.8369
  379MOL0     H50007   1.124  12.108   3.543  0.3646  0.7138  2.1475
  379MOL0     H50008   1.383  12.213   3.434 -0.7924 -0.2018 -1.3319
  379MOL0     H50009   1.309  12.272   3.591 -0.0942 -3.6043  1.0279
  379MOL0     H50010   1.301  11.407   3.750 -3.3680  1.0959  0.1129
  379MOL0     H50011   1.505  11.286   3.808  2.0038 -1.6252  0.9629
  379MOL0     H50012   1.778  11.046   4.302 -1.9640 -1.7837  0.2561
  379MOL0     H50013   1.942  10.875   4.311  1.0289  2.4234 -0.5404
  379MOL0     H50014   3.350   9.602   4.082 -1.6070 -0.7724 -0.3872
  379MOL0     H50015   3.495   9.411   4.055 -0.3842 -0.6026 -0.2839
  379MOL0     H50016   3.770   9.150   3.533  0.1907 -1.9339  0.9110
  379MOL0     H50017   4.008   9.047   3.521 -0.6975 -0.6024  1.3012
  379MOL0     H50018   4.228   9.072   3.513 -0.3998 -0.4906 -0.1287
  379MOL0     H50019   4.256   8.909   3.588  0.7513  0.1191 -0.4908
  379MOL0     H50020   4.420   9.031   3.746  0.4129 -0.1099 -0.6052
  379MOL0     H50021   4.485   9.010   3.589 -1.4762 -2.8054  0.0690
  379MOL0     H50022   4.344   9.261   3.709  1.9865  1.7457 -0.2566
  379MOL0     H50023   4.386   9.242   3.526 -0.4559 -0.2523 -0.4893
  379MOL0     H50024   4.576   9.228   3.760  1.6223 -0.0922 -0.2613
  379MOL0     H50025   4.613   9.223   3.584 -1.7456 -1.0506 -1.1608
  379MOL0     H50026   4.540   9.643   3.648 -1.2056 -0.9577 -1.8778
  379MOL0     H50027   4.113   9.214   3.890 -1.6080 -0.7049  1.8974
  379MOL0     H50028   3.885   9.320   3.917  0.0470 -1.1243  0.0827
  380MOL0     O50029  10.128   6.893   7.777  0.4999 -0.0394 -0.2891
  380MOL0     C50030  10.109   6.777   7.822 -1.0147  0.2319 -0.5555
  380MOL0     O50031   9.987   6.715   7.842  0.0281  0.2992 -1.3010
  380MOL0     C50032   9.877   6.793   7.846  0.2565 -0.9587  0.4440
  380MOL0     C50033   9.759   6.753   7.782  0.3918 -0.1503 -0.1801
  380MOL0     C50034   9.641   6.831   7.774 -0.5093  0.2884  0.6962
  380MOL0     C50035   9.638   6.957   7.831 -0.0944  0.2193  0.1661
  380MOL0     O50036   9.520   7.030   7.813 -0.2483 -0.0234 -0.6298
  380MOL0     C50037   9.488   7.125   7.918 -0.5003 -0.4190  0.1225
  380MOL0     C50038   9.354   7.197   7.886  0.2347  0.4632  0.3246
  380MOL0     C50039   9.234   7.102   7.881 -0.0325  0.1884 -0.2077
  380MOL0     C50040   9.106   7.165   7.831  0.0902 -0.3317  0.5269
  380MOL0     C50041   8.976   7.090   7.879 -0.0342 -0.1336  0.3795
  380MOL0     C50042   8.846   7.146   7.817  0.2551  0.3529 -0.9715
  380MOL0     C50043   8.800   7.285   7.865 -0.5246 -0.0422  0.2671
  380MOL0     C50044   8.781   7.315   8.017  0.9255 -0.0086  0.1939
  380MOL0     N50045   8.714   7.198   8.087 -0.2141 -0.4864  0.0833
  380MOL0     C50046   8.584   7.150   8.061 -0.0330  0.3703  0.3132
  380MOL0     C50047   8.560   7.063   8.161 -0.6763 -0.2051 -0.6392
  380MOL0     C50048   8.434   6.988   8.184  0.0883  0.4813 -0.7227
  380MOL0     C50049   8.437   6.838   8.153 -0.0145 -0.4963  0.8556
  380MOL0     C50050   8.300   6.756   8.167  0.1508  0.0744 -0.0523
  380MOL0     C50051   8.175   6.838   8.130  0.4471 -0.0318 -0.9211
  380MOL0     O50052   8.146   6.932   8.232  0.3027  0.2575  0.1090
  380MOL0     C50053   8.021   6.977   8.248  0.2055  0.0044 -0.0956
  380MOL0     C50054   7.949   7.030   8.138 -0.3072 -1.2157 -0.8226
  380MOL0     C50055   7.827   7.097   8.156 -0.0593  0.6036 -0.5680
  380MOL0     C50056   7.774   7.113   8.282  0.2458  0.3779 -0.2874
  380MOL0     C50057   7.637   7.183   8.309 -0.2683 -0.4241 -0.2228
  380MOL0     O50058   7.580   7.159   8.435 -0.8564  0.0145  0.8776
  380MOL0     C50059   7.460   7.215   8.476  0.1123 -0.9557  0.3760
  380MOL0     C50060   7.442   7.268   8.605 -0.1813  0.5814 -0.1646
  380MOL0     C50061   7.319   7.298   8.661  0.7268  0.9050  0.0089
  380MOL0     C50062   7.200   7.280   8.590  0.2140 -0.6939  0.1685
  380MOL0     O50063   7.079   7.297   8.659  0.5574 -0.5424  0.5303
  380MOL0     C50064   6.959   7.266   8.581 -0.3224  0.4776 -0.4418
  380MOL0     C50065   6.842   7.276   8.683 -0.3198 -0.2040 -0.3409
  380MOL0     C50066   6.781   7.415   8.688 -0.4547  0.6093  1.5334
  380MOL0     C50067   6.693   7.433   8.817  0.4808 -1.3107  0.2807
  380MOL0     C50068   6.646   7.575   8.834  0.1734  0.2446 -0.5928
  380MOL0     C50069   6.547   7.597   8.946  0.0320  0.4341  0.2475
  380MOL0     C50070   6.611   7.598   9.083  0.4447  0.1668  0.0215
  380MOL0     C50071   6.502   7.613   9.191  0.2859  0.0108 -0.1716
  380MOL0    Cl50072   6.568   7.584   9.360  0.4930 -0.0391 -0.1969
  380MOL0     C50073   7.221   7.258   8.449  0.4120 -1.1431 -0.6564
  380MOL0     C50074   7.348   7.220   8.397 -0.4406  0.3389 -0.4647
  380MOL0     O50075   7.595   7.264   8.225 -0.0676 -0.0718 -0.2836
  380MOL0     C50076   7.848   7.063   8.395 -0.9389  0.5744  1.1198
  380MOL0     C50077   7.965   6.994   8.376 -0.5015 -0.8441 -0.6455
  380MOL0     N50078   8.676   7.052   8.237  0.8753  0.1116 -0.1280
  380MOL0     N50079   8.764   7.131   8.192 -0.3660 -0.3687 -0.2314
  380MOL0     C50080   9.757   6.999   7.898 -0.0153 -0.2095  0.3778
  380MOL0     C50081   9.874   6.924   7.902  0.6970  0.2860  0.2706
  380MOL0     C50082  10.231   6.691   7.830  0.5013  0.5086  0.8968
  380MOL0     C50083  10.221   6.561   7.880 -0.2358  0.1314 -0.2447
  380MOL0     C50084  10.339   6.485   7.892  0.9721  0.1439  0.3772
  380MOL0     C50085  10.452   6.523   7.836  0.2998  0.2713  0.1942
  380MOL0     O50086  10.562   6.446   7.832 -1.0336 -0.6312 -0.3926
  380MOL0     C50087  10.659   6.497   7.922  0.4719 -0.2364 -0.0784
  380MOL0     C50088  10.770   6.404   7.979 -0.6871  1.2744  0.5949
  380MOL0     C50089  10.862   6.356   7.864  0.2368  0.0179 -0.6724
  380MOL0     C50090  10.958   6.256   7.914  0.0212 -0.0328 -0.3949
  380MOL0     C50091  11.068   6.308   7.997 -0.0569 -0.4008 -0.3908
  380MOL0     C50092  11.164   6.345   8.056 -1.7108 -0.0640 -0.0299
  380MOL0     C50093  10.456   6.645   7.771 -0.9879  0.3483 -0.0622
  380MOL0     C50094  10.354   6.731   7.782 -0.6961 -0.3001 -0.5367
  380MOL0     H50095   9.760   6.653   7.742 -1.6796 -0.9646  1.5853
  380MOL0     H50096   9.545   6.794   7.738 -1.4965 -0.0308  3.4230
  380MOL0     H50097   9.567   7.200   7.920  0.4157 -1.3652  0.6289
  380MOL0     H50098   9.487   7.078   8.017 -1.1246  1.2096  0.9287
  380MOL0     H50099   9.362   7.249   7.791  1.9231  0.0439  0.1919
  380MOL0     H50100   9.341   7.268   7.968 -4.1665  1.8367 -1.3091
  380MOL0     H50101   9.216   7.068   7.984  1.9665  0.7647  0.3865
  380MOL0     H50102   9.261   7.020   7.814  0.2356  0.9285 -1.0251
  380MOL0     H50103   9.100   7.266   7.872 -3.5018  0.5083 -1.6489
  380MOL0     H50104   9.119   7.170   7.723  1.0951  1.2296  0.6942
  380MOL0     H50105   8.977   7.089   7.988 -0.2104 -0.1900  0.3800
  380MOL0     H50106   8.982   6.982   7.860 -2.9496 -0.0686 -1.4684
  380MOL0     H50107   8.764   7.079   7.846  0.4774  0.7663  0.7324
  380MOL0     H50108   8.853   7.136   7.709 -2.0581 -2.5200 -0.9699
  380MOL0     H50109   8.876   7.357   7.835  0.9379 -0.7123  2.1562
  380MOL0     H50110   8.711   7.301   7.804  0.4776  0.2316 -1.1809
  380MOL0     H50111   8.714   7.400   8.033 -1.6743 -1.8500 -0.2435
  380MOL0     H50112   8.872   7.339   8.072  0.7128 -0.6855  0.8600
  380MOL0     H50113   8.524   7.178   7.976 -3.1199 -2.6670  1.2452
  380MOL0     H50114   8.358   7.027   8.114 -0.6029 -1.2591 -0.9822
  380MOL0     H50115   8.402   6.997   8.288 -1.0168 -1.5300 -0.8376
  380MOL0     H50116   8.505   6.785   8.221 -0.7443 -0.3225  1.7439
  380MOL0     H50117   8.475   6.826   8.052  0.3339 -0.5460  0.9900
  380MOL0     H50118   8.305   6.673   8.096 -3.5336 -0.1246 -0.2780
  380MOL0     H50119   8.286   6.711   8.266 -1.2797 -0.8017 -0.6082
  380MOL0     H50120   8.092   6.769   8.112  1.3280 -1.3966 -0.0375
  380MOL0     H50121   8.186   6.897   8.039  2.8090  0.0724 -0.6243
  380MOL0     H50122   7.993   7.019   8.039 -0.2922 -1.0221 -0.8359
  380MOL0     H50123   7.767   7.134   8.075 -0.1260 -1.0187 -1.3082
  380MOL0     H50124   7.528   7.281   8.671 -1.3207  1.9314  1.1340
  380MOL0     H50125   7.313   7.323   8.766 -0.1316 -1.6554  0.6276
  380MOL0     H50126   6.974   7.162   8.548  0.4397  0.9345 -1.6201
  380MOL0     H50127   6.937   7.334   8.498 -0.2202  0.3834 -0.5468
  380MOL0     H50128   6.872   7.252   8.785  0.4446  0.8493 -0.3064
  380MOL0     H50129   6.772   7.195   8.659 -0.6565 -1.5391  4.2627
  380MOL0     H50130   6.725   7.442   8.598  1.5799 -3.2267 -1.1842
  380MOL0     H50131   6.862   7.489   8.683 -0.6773  0.7702 -0.8870
  380MOL0     H50132   6.608   7.364   8.813 -0.1199 -0.5325 -1.5360
  380MOL0     H50133   6.746   7.416   8.911  1.7855  4.1713  0.8334
  380MOL0     H50134   6.583   7.594   8.746 -0.5363 -2.1252 -0.6665
  380MOL0     H50135   6.727   7.648   8.832  0.1848  0.2212 -1.2915
  380MOL0     H50136   6.472   7.517   8.938  0.0100  0.5625 -1.0234
  380MOL0     H50137   6.491   7.690   8.929 -0.1789  0.2090 -0.3522
  380MOL0     H50138   6.668   7.507   9.102  0.7548  0.2567 -0.4526
  380MOL0     H50139   6.678   7.684   9.094  1.0365 -0.3864  0.8445
  380MOL0     H50140   6.427   7.538   9.166 -0.3282  0.6814 -0.3925
  380MOL0     H50141   6.453   7.711   9.185  1.2608  0.7636  2.5199
  380MOL0     H50142   7.135   7.262   8.383 -1.6864  2.0931  1.9279
  380MOL0     H50143   7.327   7.182   8.297  0.3223 -0.7709 -0.2116
  380MOL0     H50144   7.816   7.089   8.495 -3.9275  1.3310  0.0784
  380MOL0     H50145   8.007   6.956   8.469 -3.7301  0.2251  1.4289
  380MOL0     H50146   9.755   7.100   7.937 -1.1391  0.8315 -2.1838
  380MOL0     H50147   9.958   6.976   7.946 -0.7821  1.5730  1.6998
  380MOL0     H50148  10.138   6.523   7.938  0.9503  0.5631  1.8241
  380MOL0     H50149  10.333   6.388   7.942  0.1404 -0.0306 -0.0538
  380MOL0     H50150  10.604   6.536   8.009 -1.2560 -0.1840 -1.1395
  380MOL0     H50151  10.706   6.587   7.881  0.9251  1.4139  3.6465
  380MOL0     H50152  10.822   6.463   8.054 -0.7395  2.3556 -0.1856
  380MOL0     H50153  10.722   6.318   8.026  2.3851  0.6371  2.8775
  380MOL0     H50154  10.922   6.431   7.811  0.3047 -0.1699 -0.8674
  380MOL0     H50155  10.801   6.300   7.792 -1.1227 -0.3886  0.7439
  380MOL0     H50156  10.910   6.182   7.979 -0.7547  1.4861  0.8170
  380MOL0     H50157  10.994   6.203   7.825 -0.4049 -1.7797  0.4219
  380MOL0     H50158  11.249   6.359   8.120 -2.1875 -0.5091  0.7127
  380MOL0     H50159  10.547   6.679   7.721 -2.0392  2.9293 -0.4042
  380MOL0     H50160  10.371   6.830   7.741 -3.3846 -0.0879 -1.3510
  381MOL0     O50161   4.199  10.083   7.863 -0.1143  0.5621  0.3245
  381MOL0     C50162   4.273  10.108   7.956  0.2779  0.0026  0.2654
  381MOL0     O50163   4.239  10.090   8.089 -0.3439  0.4675  0.6260
  381MOL0     C50164   4.124  10.022   8.114  0.0606 -0.4946 -0.6020
  381MOL0     C50165   4.020  10.090   8.197 -1.0254 -0.1034  0.1470
  381MOL0     C50166   3.902  10.026   8.228 -0.0691 -0.2966 -0.5146
  381MOL0     C50167   3.880   9.891   8.194  0.4734 -0.6919 -0.0843
  381MOL0     O50168   3.763   9.820   8.228  0.3437  0.1599 -0.0163
  381MOL0     C50169   3.664   9.879   8.310  0.6838  0.2628 -0.2455
  381MOL0     C50170   3.535   9.806   8.301  0.3123 -0.1787  0.6023
  381MOL0     C50171   3.430   9.882   8.398 -0.1323 -0.0258 -0.3271
  381MOL0     C50172   3.310   9.786   8.427 -0.5086 -0.6350 -0.0369
  381MOL0     C50173   3.206   9.863   8.515 -0.2326  0.1911 -0.6938
  381MOL0     C50174   3.104   9.768   8.583 -0.6643  0.1875  0.7857
  381MOL0     C50175   2.965   9.824   8.580  0.4164  0.6110 -0.9279
  381MOL0     C50176   2.937   9.958   8.645  0.1555 -0.3962 -0.0789
  381MOL0     N50177   2.790   9.969   8.662 -0.7599  0.0457  0.1064
  381MOL0     C50178   2.723   9.937   8.775 -0.5751  0.9547 -0.3216
  381MOL0     C50179   2.593   9.950   8.742 -0.2201 -0.5103 -0.5503
  381MOL0     C50180   2.472   9.929   8.828 -0.2963  1.0973 -0.7565
  381MOL0     C50181   2.489   9.796   8.917  0.3356  0.7116 -0.0477
  381MOL0     C50182   2.410   9.786   9.046 -0.7837 -0.7412 -0.3441
  381MOL0     C50183   2.276   9.850   9.051 -0.3858  0.6116 -0.5974
  381MOL0     O50184   2.294   9.990   9.077  0.5552 -0.1902 -0.0573
  381MOL0     C50185   2.178  10.059   9.098 -0.1853  0.2632  0.0276
  381MOL0     C50186   2.189  10.198   9.115 -0.6288  0.4523  0.5089
  381MOL0     C50187   2.074  10.272   9.114 -0.0021 -0.3038 -1.1168
  381MOL0     C50188   1.945  10.211   9.117 -0.4272  0.7761  0.5849
  381MOL0     C50189   1.821  10.290   9.110 -0.9149  0.0638  0.5927
  381MOL0     O50190   1.695  10.223   9.116  0.0922 -0.4051 -0.2713
  381MOL0     C50191   1.579  10.272   9.062 -0.0753 -0.3210 -0.4046
  381MOL0     C50192   1.500  10.373   9.120  0.0642 -0.6331  0.4054
  381MOL0     C50193   1.368  10.393   9.064  0.1101  0.8709 -0.9301
  381MOL0     C50194   1.322  10.319   8.953 -0.5344 -0.7659 -0.3619
  381MOL0     O50195   1.197  10.341   8.904  0.0806 -0.3280 -0.4663
  381MOL0     C50196   1.151  10.472   8.905  0.4230 -0.1045 -0.5254
  381MOL0     C50197   1.050  10.512   9.024 -0.1521 -0.5507  0.1841
  381MOL0     C50198   0.946  10.404   9.054  0.9254 -0.0933 -0.0302
  381MOL0     C50199   0.835  10.452   9.147  0.2930 -0.1256  0.2520
  381MOL0     C50200   0.725  10.348   9.148  0.2560  0.7857 -0.3886
  381MOL0     C50201   0.605  10.415   9.218 -0.4657  0.4754 -0.9840
  381MOL0     C50202   0.487  10.323   9.242 -0.2341 -0.7042  0.2991
  381MOL0     C50203   0.361  10.385   9.294  0.1268 -0.1842 -0.1199
  381MOL0    Cl50204   0.242  10.262   9.328  0.1322  0.1634 -0.0770
  381MOL0     C50205   1.405  10.223   8.896 -0.2509  0.4895  0.4565
  381MOL0     C50206   1.537  10.205   8.945 -0.1436  0.2395 -0.2530
  381MOL0     O50207   1.834  10.413   9.082  0.1911  0.5742  0.1256
  381MOL0     C50208   1.938  10.075   9.110  1.0359 -1.1522  0.7805
  381MOL0     C50209   2.049   9.996   9.094 -0.3986  0.0094 -0.6045
  381MOL0     N50210   2.586   9.978   8.603 -0.1155 -0.1742  0.0808
  381MOL0     N50211   2.709   9.986   8.559  0.2272 -0.6307  0.5045
  381MOL0     C50212   3.982   9.829   8.123 -0.0201  0.3122  0.4860
  381MOL0     C50213   4.109   9.885   8.089 -0.8269 -0.5737 -0.1197
  381MOL0     C50214   4.404  10.175   7.939 -0.4984 -0.0754 -0.2178
  381MOL0     C50215   4.464  10.187   7.808 -0.0037 -0.4515 -0.7680
  381MOL0     C50216   4.585  10.251   7.793 -0.8733  0.1384 -0.0198
  381MOL0     C50217   4.652  10.323   7.900 -0.2032  0.1770  0.4266
  381MOL0     O50218   4.760  10.409   7.895  0.1816 -0.0028  0.2752
  381MOL0     C50219   4.836  10.405   7.775  0.7929 -0.5564  0.1621
  381MOL0     C50220   4.980  10.449   7.802  0.2778  0.6588 -0.0964
  381MOL0     C50221   5.073  10.332   7.847 -0.1854 -0.5754  0.0391
  381MOL0     C50222   5.020  10.266   7.977  0.5043 -0.1642 -0.2441
  381MOL0     C50223   5.099  10.146   8.003  0.3975  0.3325  0.1541
  381MOL0     C50224   5.157  10.034   8.011  0.2516  0.5740 -0.4922
  381MOL0     C50225   4.592  10.316   8.031  0.1805 -1.0990 -0.2941
  381MOL0     C50226   4.475  10.234   8.048 -0.2304 -0.4173  0.2686
  381MOL0     H50227   4.024  10.192   8.233 -2.2029  0.4263 -1.1384
  381MOL0     H50228   3.829  10.089   8.279  0.7445  0.7051 -0.5476
  381MOL0     H50229   3.647   9.981   8.275 -1.9255 -0.2006 -0.5472
  381MOL0     H50230   3.702   9.886   8.412  0.7256 -2.8528  0.0448
  381MOL0     H50231   3.539   9.699   8.323 -1.2612 -0.5547 -0.6965
  381MOL0     H50232   3.488   9.816   8.203  1.2258 -1.0801  0.0465
  381MOL0     H50233   3.374   9.955   8.338  2.9215  2.1936 -0.7185
  381MOL0     H50234   3.467   9.915   8.496 -3.4661 -0.4093  1.2034
  381MOL0     H50235   3.263   9.745   8.337  0.4482  3.4823 -2.6392
  381MOL0     H50236   3.345   9.703   8.490  0.0881  0.0028  0.4930
  381MOL0     H50237   3.156   9.928   8.443 -1.0074 -1.1727 -1.4185
  381MOL0     H50238   3.252   9.926   8.592  0.0005 -0.7270 -0.0628
  381MOL0     H50239   3.138   9.754   8.686 -1.2731  2.1671  1.3021
  381MOL0     H50240   3.103   9.667   8.540 -0.8274 -0.2589  1.8279
  381MOL0     H50241   2.928   9.839   8.478 -1.5798  0.6931 -0.2453
  381MOL0     H50242   2.898   9.750   8.624  1.2854  0.8535  0.8787
  381MOL0     H50243   2.979  10.038   8.583  2.0529  0.2074  1.8788
  381MOL0     H50244   2.986   9.960   8.742  2.4651  0.3257 -1.1764
  381MOL0     H50245   2.768   9.905   8.869 -2.4494 -0.3544  0.1949
  381MOL0     H50246   2.386   9.906   8.764 -0.4019 -1.7155  0.2832
  381MOL0     H50247   2.463  10.018   8.892 -1.3438  1.5842 -1.5496
  381MOL0     H50248   2.593   9.791   8.950  0.4250  1.1780 -0.2558
  381MOL0     H50249   2.462   9.716   8.848 -1.1420 -0.4249  1.7544
  381MOL0     H50250   2.396   9.678   9.056 -0.4050 -0.7723 -0.1680
  381MOL0     H50251   2.474   9.821   9.127 -2.7525 -0.0944  1.0010
  381MOL0     H50252   2.219   9.791   9.123  1.3183 -0.9862 -0.4900
  381MOL0     H50253   2.216   9.848   8.959  0.1366 -0.5325 -0.9222
  381MOL0     H50254   2.287  10.245   9.114  0.7328 -2.0340  2.3759
  381MOL0     H50255   2.087  10.379   9.125  1.3038 -0.5850  0.3443
  381MOL0     H50256   1.525  10.430   9.209  0.0522  3.1719 -1.7947
  381MOL0     H50257   1.299  10.464   9.108 -2.3900 -1.9626  0.0113
  381MOL0     H50258   1.098  10.489   8.811  1.7842  0.5348 -1.2091
  381MOL0     H50259   1.242  10.533   8.894  0.4283 -0.1626 -0.8262
  381MOL0     H50260   0.996  10.602   8.993 -0.5117 -1.1966 -1.1387
  381MOL0     H50261   1.100  10.542   9.116  1.8495 -1.1822 -0.6425
  381MOL0     H50262   0.988  10.313   9.099  0.3892  0.7489  2.3174
  381MOL0     H50263   0.909  10.380   8.954  1.8222 -1.1517 -0.1406
  381MOL0     H50264   0.856  10.460   9.254  1.6345 -0.3565  0.0147
  381MOL0     H50265   0.790  10.545   9.110  2.9299  0.6574 -1.2164
  381MOL0     H50266   0.769  10.256   9.186  1.8220  1.0845 -1.4189
  381MOL0     H50267   0.684  10.313   9.053 -0.6638  1.0751 -0.1128
  381MOL0     H50268   0.567  10.496   9.155 -1.8718 -0.0910 -0.9007
  381MOL0     H50269   0.633  10.461   9.314  1.4046 -0.9717 -0.7901
  381MOL0     H50270   0.463  10.273   9.147  0.4015  0.0060 -0.2527
  381MOL0     H50271   0.508  10.241   9.311  0.7442 -0.8090 -0.1158
  381MOL0     H50272   0.316  10.449   9.219  1.1142 -1.5954 -2.0031
  381MOL0     H50273   0.389  10.431   9.389  1.3068 -0.7660 -0.1601
  381MOL0     H50274   1.371  10.174   8.806 -1.5240  2.8869 -0.4657
  381MOL0     H50275   1.594  10.128   8.892  0.9239  2.0668 -1.9045
  381MOL0     H50276   1.838  10.034   9.101 -0.0139  0.2589  4.2543
  381MOL0     H50277   2.037   9.889   9.081  0.4661 -0.0259 -1.2218
  381MOL0     H50278   3.962   9.732   8.080  1.2835 -1.0096  2.7249
  381MOL0     H50279   4.189   9.830   8.041 -0.4659  0.3185 -0.5798
  381MOL0     H50280   4.422  10.132   7.725  3.6889  0.6307 -3.6144
  381MOL0     H50281   4.634  10.236   7.697 -1.2069  1.8757 -0.5084
  381MOL0     H50282   4.787  10.472   7.703 -0.9192 -1.7024  0.1874
  381MOL0     H50283   4.838  10.303   7.735  1.1551 -2.1135  3.8304
  381MOL0     H50284   5.028  10.495   7.715  0.8937  1.3202  0.5846
  381MOL0     H50285   4.981  10.526   7.879 -0.6574  0.7646 -0.1725
  381MOL0     H50286   5.176  10.369   7.850  0.4841 -2.3664  0.8251
  381MOL0     H50287   5.073  10.264   7.761 -2.3937  0.2241 -0.6621
  381MOL0     H50288   5.017  10.339   8.059 -0.7164 -0.7478  0.2653
  381MOL0     H50289   4.918  10.230   7.961 -0.4494  0.7126  3.0147
  381MOL0     H50290   5.214   9.943   8.003  0.1276  0.0399  3.1177
  381MOL0     H50291   4.649  10.357   8.114 -0.5954 -2.0989  0.7619
  381MOL0     H50292   4.436  10.213   8.147  0.2534 -3.5630 -0.1041
  382MOL0     O50293   0.107   8.691  10.878 -0.1475 -0.5862  0.8973
  382MOL0     C50294   0.145   8.724  10.994 -0.0058 -0.0405  0.2315
  382MOL0     O50295   0.067   8.725  11.111 -0.1700  0.4087 -0.2326
  382MOL0     C50296  -0.065   8.695  11.096  0.3653 -0.4178 -0.4077
  382MOL0     C50297  -0.166   8.775  11.038 -0.2456  0.0760  0.1873
  382MOL0     C50298  -0.302   8.733  11.028 -0.7487  0.4966 -0.0537
  382MOL0     C50299  -0.343   8.608  11.080  0.5231  0.0678 -0.3474
  382MOL0     O50300  -0.480   8.577  11.098  0.0989 -0.1557 -0.1498
  382MOL0     C50301  -0.572   8.637  11.011 -0.5566 -0.0952 -0.0468
  382MOL0     C50302  -0.716   8.573  11.023 -0.0879  0.0093 -0.3075
  382MOL0     C50303  -0.835   8.655  10.965  0.1483 -0.4844  0.0576
  382MOL0     C50304  -0.959   8.567  10.951  0.6805  0.4352  0.4350
  382MOL0     C50305  -1.082   8.634  10.907  0.6981 -0.5981  0.0492
  382MOL0     C50306  -1.075   8.718  10.781 -0.5568 -0.0323  0.0233
  382MOL0     C50307  -1.211   8.728  10.711 -0.5694 -0.1697 -0.3019
  382MOL0     C50308  -1.303   8.793  10.810 -0.7005 -0.4553 -0.2729
  382MOL0     N50309  -1.425   8.815  10.732  0.5056 -0.7055 -0.4463
  382MOL0     C50310  -1.445   8.895  10.623 -0.8367  0.1773  0.1186
  382MOL0     C50311  -1.579   8.896  10.599 -0.0838  0.2360  0.2372
  382MOL0     C50312  -1.622   8.968  10.477  0.9471 -0.0548  0.0282
  382MOL0     C50313  -1.764   8.931  10.418 -0.8285  0.2511 -0.5391
  382MOL0     C50314  -1.751   8.803  10.342 -0.1279 -0.2190  0.5103
  382MOL0     C50315  -1.891   8.731  10.354 -0.8776  0.1713  0.3809
  382MOL0     O50316  -1.982   8.803  10.263  0.2873  0.3162  0.7696
  382MOL0     C50317  -2.111   8.748  10.235 -0.7748 -0.6947 -0.2123
  382MOL0     C50318  -2.151   8.621  10.264 -0.1035  0.1473  0.6536
  382MOL0     C50319  -2.277   8.574  10.213 -0.1569  0.3286  0.1593
  382MOL0     C50320  -2.371   8.655  10.141  0.3455 -0.3499 -0.2652
  382MOL0     C50321  -2.506   8.604  10.092 -0.7599  0.0139 -0.2512
  382MOL0     O50322  -2.593   8.701  10.053 -0.3850  0.0547 -0.4717
  382MOL0     C50323  -2.722   8.669  10.023  0.8310 -0.3221  0.2331
  382MOL0     C50324  -2.760   8.561   9.941  0.0536  0.6918 -0.2076
  382MOL0     C50325  -2.897   8.538   9.916 -0.3381 -0.6426 -0.3661
  382MOL0     C50326  -2.994   8.627   9.956  0.2477  0.2204 -0.2020
  382MOL0     O50327  -3.128   8.590   9.932 -0.1072  0.3768  0.7273
  382MOL0     C50328  -3.229   8.645  10.015  0.8751  0.3606 -0.1468
  382MOL0     C50329  -3.358   8.571  10.008  1.0618  0.6763  0.1749
  382MOL0     C50330  -3.466   8.628  10.106  0.2087 -0.0844  0.3875
  382MOL0     C50331  -3.602   8.556  10.101 -0.1691  0.0068  0.4173
  382MOL0     C50332  -3.683   8.585   9.970  0.0011  0.8880 -0.4000
  382MOL0     C50333  -3.807   8.495   9.962  0.1104 -0.4604 -0.5180
  382MOL0     C50334  -3.859   8.513   9.818 -0.2530  0.4472 -0.2548
  382MOL0     C50335  -4.006   8.522   9.824 -0.0432  0.0844  0.5565
  382MOL0    Cl50336  -4.077   8.512   9.665  0.4277  0.4122  0.1212
  382MOL0     C50337  -2.959   8.731  10.040 -0.0246 -0.2101  0.0558
  382MOL0     C50338  -2.824   8.752  10.070  0.3525  0.4670  0.3826
  382MOL0     O50339  -2.533   8.484  10.094  0.9017  0.3014  0.0299
  382MOL0     C50340  -2.328   8.792  10.129  0.1526 -0.0258  0.1083
  382MOL0     C50341  -2.199   8.840  10.170 -0.9891  0.0443 -0.8875
  382MOL0     N50342  -1.637   8.824  10.690 -0.2087 -0.1772  1.0797
  382MOL0     N50343  -1.545   8.761  10.760  0.0187  0.6187 -0.2294
  382MOL0     C50344  -0.240   8.527  11.134 -0.1095  0.0406  0.6360
  382MOL0     C50345  -0.100   8.570  11.140  0.3228  0.4562 -0.0788
  382MOL0     C50346   0.287   8.770  11.012 -0.5659 -0.1127  0.5699
  382MOL0     C50347   0.337   8.795  11.145 -0.0729 -0.6667  0.7427
  382MOL0     C50348   0.464   8.851  11.159  0.2471  0.5129  0.5407
  382MOL0     C50349   0.549   8.876  11.053 -0.2043  0.5693 -0.7230
  382MOL0     O50350   0.661   8.949  11.089  0.5561  0.2235 -0.5376
  382MOL0     C50351   0.741   8.999  10.984  0.1680 -0.0639 -0.9363
  382MOL0     C50352   0.823   8.893  10.905  0.0376  0.2164 -0.1575
  382MOL0     C50353   0.877   8.767  10.980  0.4585 -0.6399 -0.2442
  382MOL0     C50354   1.025   8.771  11.017 -0.5613  0.1220  0.3753
  382MOL0     C50355   1.088   8.647  11.073  0.7340 -1.1200  1.0479
  382MOL0     C50356   1.126   8.543  11.118  0.1205 -0.3127  0.9900
  382MOL0     C50357   0.501   8.845  10.928 -0.3262 -0.2073 -0.1034
  382MOL0     C50358   0.373   8.793  10.904  0.1821 -0.4412  0.3007
  382MOL0     H50359  -0.142   8.874  11.001  0.9003 -0.6244 -1.0420
  382MOL0     H50360  -0.371   8.804  10.984  1.2964  3.0945  0.6626
  382MOL0     H50361  -0.530   8.640  10.910 -2.7221  2.6894 -1.0005
  382MOL0     H50362  -0.575   8.743  11.038 -0.7735 -0.4825  1.6097
  382MOL0     H50363  -0.748   8.576  11.128 -2.7848  2.5593 -1.0715
  382MOL0     H50364  -0.717   8.468  10.994  1.0531 -0.0109 -0.3392
  382MOL0     H50365  -0.814   8.690  10.863  2.6894 -1.6276  0.1189
  382MOL0     H50366  -0.847   8.740  11.033 -2.1014  0.0989 -0.9644
  382MOL0     H50367  -0.937   8.496  10.871  1.0281  0.7357  0.2627
  382MOL0     H50368  -0.980   8.518  11.047 -0.0751 -0.5234 -0.2006
  382MOL0     H50369  -1.131   8.689  10.988 -1.3611 -0.9358 -0.9078
  382MOL0     H50370  -1.159   8.559  10.891 -0.7509  0.8484  0.0059
  382MOL0     H50371  -1.002   8.679  10.709  0.5987 -0.9456  1.6254
  382MOL0     H50372  -1.037   8.814  10.817  1.8818 -0.4399 -1.2098
  382MOL0     H50373  -1.209   8.801  10.630  0.8540 -1.5015 -1.5186
  382MOL0     H50374  -1.249   8.635  10.667 -0.5637 -0.1567 -0.3341
  382MOL0     H50375  -1.262   8.885  10.853 -2.6079  0.8092 -1.0519
  382MOL0     H50376  -1.337   8.723  10.886  1.6072 -1.3916 -0.0198
  382MOL0     H50377  -1.373   8.945  10.558 -1.5558  2.5259  1.0076
  382MOL0     H50378  -1.546   8.974  10.398  1.5272  0.1244  0.5851
  382MOL0     H50379  -1.643   9.064  10.525 -2.0766 -3.0281  5.6843
  382MOL0     H50380  -1.807   9.003  10.347 -5.9073 -0.6625  1.1846
  382MOL0     H50381  -1.839   8.921  10.497 -2.4648  0.1710 -2.0163
  382MOL0     H50382  -1.721   8.828  10.240 -1.0154 -0.5230  0.1593
  382MOL0     H50383  -1.672   8.739  10.381  0.8484  0.9620  0.5254
  382MOL0     H50384  -1.918   8.718  10.459 -0.1142  2.0774  0.8539
  382MOL0     H50385  -1.876   8.631  10.311  2.1839 -0.0419  1.6533
  382MOL0     H50386  -2.079   8.553  10.309  1.2102  0.6344 -0.5981
  382MOL0     H50387  -2.293   8.469  10.233 -0.7449  0.6046  1.1676
  382MOL0     H50388  -2.689   8.484   9.912 -0.2580 -0.0380  0.8995
  382MOL0     H50389  -2.926   8.450   9.859  0.5992 -1.0210 -0.2749
  382MOL0     H50390  -3.246   8.747   9.980  0.2636  0.5222  0.5929
  382MOL0     H50391  -3.198   8.654  10.120  3.7552 -2.5139 -0.6036
  382MOL0     H50392  -3.340   8.465  10.031 -1.0611  0.2707  0.1902
  382MOL0     H50393  -3.400   8.579   9.907 -2.3436  1.4236  1.5284
  382MOL0     H50394  -3.484   8.735  10.087 -1.3515 -0.4674 -0.5318
  382MOL0     H50395  -3.438   8.621  10.212 -1.2712 -1.2214  0.7377
  382MOL0     H50396  -3.601   8.447  10.112 -1.1221  0.1335  2.2870
  382MOL0     H50397  -3.679   8.584  10.174 -1.2749  0.0955 -0.7494
  382MOL0     H50398  -3.615   8.560   9.888 -0.3715  0.4135 -0.5727
  382MOL0     H50399  -3.698   8.692   9.953 -2.4215  1.4115  3.6155
  382MOL0     H50400  -3.875   8.526  10.042  0.5679  0.6030 -0.5264
  382MOL0     H50401  -3.781   8.389   9.970 -1.0557 -0.6491  1.9956
  382MOL0     H50402  -3.813   8.591   9.758  0.9769 -1.1680 -1.4933
  382MOL0     H50403  -3.835   8.417   9.771 -0.2132 -0.2042  1.0438
  382MOL0     H50404  -4.038   8.611   9.877 -1.2211  0.9391 -1.4899
  382MOL0     H50405  -4.042   8.439   9.886  0.7078 -0.5575  0.1524
  382MOL0     H50406  -3.028   8.803  10.083  1.9930  0.5533  2.2506
  382MOL0     H50407  -2.797   8.840  10.128  1.1980  2.1146 -2.3158
  382MOL0     H50408  -2.396   8.859  10.078 -0.6495  0.2197  1.4428
  382MOL0     H50409  -2.168   8.940  10.144  2.7025 -1.2734 -2.2758
  382MOL0     H50410  -0.247   8.421  11.159  2.7000 -1.4112 -3.5839
  382MOL0     H50411  -0.026   8.508  11.189  2.0243  3.0219  0.8329
  382MOL0     H50412   0.265   8.793  11.226 -1.7079 -0.0152 -0.6434
  382MOL0     H50413   0.500   8.900  11.249  1.4221 -0.2178  0.4985
  382MOL0     H50414   0.817   9.066  11.026  0.4096 -1.4887  1.0130
  382MOL0     H50415   0.682   9.061  10.916  3.4093  1.8231 -2.2399
  382MOL0     H50416   0.758   8.854  10.826  1.0860 -0.1266 -0.8627
  382MOL0     H50417   0.897   8.955  10.854  0.9599  1.2805  2.2861
  382MOL0     H50418   0.881   8.678  10.917  0.4437  1.1408 -2.9095
  382MOL0     H50419   0.831   8.757  11.079  1.7635 -3.1086  0.2001
  382MOL0     H50420   1.083   8.807  10.931  1.1992  0.9652  1.8426
  382MOL0     H50421   1.048   8.856  11.082 -0.1111  1.9057 -1.9724
  382MOL0     H50422   1.158   8.442  11.140 -2.0969 -0.8231  2.1123
  382MOL0     H50423   0.565   8.880  10.847  1.0467  1.2017  1.5030
  382MOL0     H50424   0.349   8.776  10.799  0.0283 -2.6447  0.6458
  383MOL0     O50425   5.401   3.154   9.397 -0.3101  0.4264  0.0588
  383MOL0     C50426   5.458   3.106   9.499 -0.0666  0.3725  1.5120
  383MOL0     O50427   5.586   3.140   9.538  0.5873  0.3242  0.0936
  383MOL0     C50428   5.663   3.231   9.457  0.1479 -0.2905 -0.4505
  383MOL0     C50429   5.702   3.202   9.324  0.1810  0.7655  0.4423
  383MOL0     C50430   5.794   3.273   9.250  0.5236  0.7542 -0.7746
  383MOL0     C50431   5.843   3.390   9.309  0.2936 -0.0241  0.9566
  383MOL0     O50432   5.947   3.477   9.259  0.1683 -0.0395 -0.0158
  383MOL0     C50433   5.965   3.488   9.114 -0.3304  0.3542  0.1070
  383MOL0     C50434   6.103   3.557   9.080  0.1558  0.4984 -0.3766
  383MOL0     C50435   6.223   3.473   9.127 -0.1648  0.0395 -0.7396
  383MOL0     C50436   6.358   3.530   9.085 -0.4861 -0.1209 -0.2732
  383MOL0     C50437   6.476   3.448   9.153  0.3659  0.3600  0.9903
  383MOL0     C50438   6.494   3.307   9.081  0.2299  0.9105  0.0035
  383MOL0     C50439   6.608   3.216   9.141  0.0902  0.2021  1.0867
  383MOL0     C50440   6.591   3.159   9.285 -0.1508 -0.2596  0.6894
  383MOL0     N50441   6.495   3.051   9.294 -0.0521 -0.3088 -0.2548
  383MOL0     C50442   6.444   2.991   9.408 -0.5476 -0.2784  0.6077
  383MOL0     C50443   6.372   2.890   9.361  0.3783  0.0292  1.1249
  383MOL0     C50444   6.311   2.791   9.446  0.1133  0.4253 -0.3713
  383MOL0     C50445   6.187   2.852   9.508  0.2174  0.0181 -0.8160
  383MOL0     C50446   6.116   2.736   9.582  1.0023  0.2134 -0.4333
  383MOL0     C50447   6.003   2.792   9.662  0.3288  1.1074  0.6110
  383MOL0     O50448   6.027   2.903   9.735  1.1173 -0.7394  0.4508
  383MOL0     C50449   5.926   2.938   9.818 -0.1769 -0.3809  0.6386
  383MOL0     C50450   5.818   3.016   9.776  0.1383 -0.4024 -0.0144
  383MOL0     C50451   5.723   3.047   9.870  0.8993 -0.0483 -0.8975
  383MOL0     C50452   5.715   2.985  10.001 -0.0204 -0.0849  0.1292
  383MOL0     C50453   5.598   3.001  10.085 -0.2249  1.0228  1.1623
  383MOL0     O50454   5.606   2.963  10.214  0.1638  0.0784 -1.5467
  383MOL0     C50455   5.502   2.986  10.305 -0.9133  0.3635  0.7714
  383MOL0     C50456   5.450   3.118  10.299 -0.0731  0.4725 -0.1285
  383MOL0     C50457   5.366   3.150  10.402 -0.5997 -0.5133  0.2115
  383MOL0     C50458   5.333   3.066  10.509  0.3284 -0.6807  0.2811
  383MOL0     O50459   5.257   3.106  10.616 -0.1952  0.6722 -0.0140
  383MOL0     C50460   5.273   3.248  10.652  0.1287 -0.2668 -0.2413
  383MOL0     C50461   5.188   3.281  10.779 -0.3179 -0.5359  0.1700
  383MOL0     C50462   5.035   3.268  10.754  0.0103 -0.5067 -0.0259
  383MOL0     C50463   4.971   3.269  10.897  0.1326  0.6723 -0.3794
  383MOL0     C50464   4.817   3.272  10.891  0.7514  0.6237 -0.1548
  383MOL0     C50465   4.762   3.263  11.033  0.2266  0.0463  0.1183
  383MOL0     C50466   4.606   3.260  11.028  0.5662  0.2702  0.0941
  383MOL0     C50467   4.551   3.296  11.165 -0.3718 -0.1789 -0.6741
  383MOL0    Cl50468   4.375   3.294  11.174  0.2294 -0.1536  0.1555
  383MOL0     C50469   5.376   2.929  10.502 -0.3008  0.1528 -0.5575
  383MOL0     C50470   5.467   2.900  10.409  0.7638  0.4439  0.3565
  383MOL0     O50471   5.499   3.041  10.029 -0.0673  0.4335 -0.5982
  383MOL0     C50472   5.827   2.915  10.037 -0.6933  0.7468 -0.2621
  383MOL0     C50473   5.937   2.900   9.948  0.1154  0.2314  0.4967
  383MOL0     N50474   6.376   2.886   9.217  0.0073 -0.1426  0.1181
  383MOL0     N50475   6.451   2.985   9.185 -0.6719  0.2706  0.0049
  383MOL0     C50476   5.791   3.431   9.440 -0.6950 -0.4358 -0.0275
  383MOL0     C50477   5.700   3.357   9.514 -0.2939  0.0477 -0.1202
  383MOL0     C50478   5.367   3.017   9.571  0.1556 -0.4207 -0.0094
  383MOL0     C50479   5.271   2.939   9.507  0.0365  0.2345 -0.0357
  383MOL0     C50480   5.183   2.859   9.583 -0.2011  0.3874 -0.1521
  383MOL0     C50481   5.191   2.857   9.727 -0.3161 -1.3521  0.8786
  383MOL0     O50482   5.108   2.785   9.803  0.0285  0.3965 -0.4903
  383MOL0     C50483   5.086   2.644   9.772  0.2371 -0.9368 -1.2681
  383MOL0     C50484   4.995   2.571   9.868  0.2880 -0.5842 -0.6678
  383MOL0     C50485   4.846   2.626   9.854 -0.2973  0.7755  0.3113
  383MOL0     C50486   4.739   2.525   9.886  0.0632  0.0122 -0.0529
  383MOL0     C50487   4.691   2.543  10.025 -0.7811  1.5488 -0.1874
  383MOL0     C50488   4.645   2.551  10.139 -0.2199 -1.0077 -0.0013
  383MOL0     C50489   5.278   2.948   9.790  0.0639  0.3969 -0.0376
  383MOL0     C50490   5.359   3.033   9.714  0.1365 -0.5664  0.0181
  383MOL0     H50491   5.652   3.118   9.276  0.1538  0.7098  0.5673
  383MOL0     H50492   5.814   3.251   9.146 -1.9371  1.1881 -1.3925
  383MOL0     H50493   5.882   3.543   9.069 -0.5783 -1.8227 -2.3469
  383MOL0     H50494   5.961   3.390   9.067 -1.0425  0.8118 -0.8192
  383MOL0     H50495   6.100   3.654   9.129  1.9724  0.7048 -0.6197
  383MOL0     H50496   6.104   3.572   8.971  0.5202 -2.9093 -0.9525
  383MOL0     H50497   6.207   3.372   9.088  3.2819 -0.0216 -2.3290
  383MOL0     H50498   6.205   3.461   9.235 -1.9093 -0.4128 -1.0501
  383MOL0     H50499   6.388   3.521   8.980  1.4052 -2.1019  0.3798
  383MOL0     H50500   6.374   3.632   9.121  1.9289 -1.3209  2.4500
  383MOL0     H50501   6.448   3.432   9.257 -1.6753  1.3746  0.6385
  383MOL0     H50502   6.569   3.506   9.151  0.9942 -0.6001  1.8043
  383MOL0     H50503   6.520   3.317   8.975 -1.5835 -0.2525 -0.5904
  383MOL0     H50504   6.404   3.245   9.080  2.7853 -3.1966 -2.1944
  383MOL0     H50505   6.624   3.130   9.075  1.7536  0.5135  1.0569
  383MOL0     H50506   6.692   3.275   9.104 -0.4631 -0.8301 -2.2350
  383MOL0     H50507   6.536   3.235   9.340  0.8209  1.4448 -0.5873
  383MOL0     H50508   6.689   3.125   9.322 -0.6277 -3.2177 -0.4962
  383MOL0     H50509   6.472   3.009   9.511  5.2895 -1.9842 -0.3022
  383MOL0     H50510   6.376   2.751   9.524  0.5663 -0.9222 -1.3983
  383MOL0     H50511   6.284   2.704   9.385 -1.4748  0.5534  0.0920
  383MOL0     H50512   6.127   2.897   9.429  2.3887  2.3019 -1.2749
  383MOL0     H50513   6.205   2.935   9.577 -1.5688  1.1745 -1.6692
  383MOL0     H50514   6.082   2.667   9.504 -2.5563 -0.2551  1.3617
  383MOL0     H50515   6.184   2.685   9.651  0.5243 -0.3105 -0.3499
  383MOL0     H50516   5.972   2.709   9.727  3.6020  0.6340  1.7725
  383MOL0     H50517   5.928   2.814   9.586 -0.4255  0.3256  1.1152
  383MOL0     H50518   5.821   3.059   9.676  0.2378  0.2317  0.2601
  383MOL0     H50519   5.647   3.121   9.848  0.0849  0.5166  3.0298
  383MOL0     H50520   5.479   3.194  10.228  0.8247  0.8673  0.6399
  383MOL0     H50521   5.326   3.251  10.401 -1.9966 -1.0210  1.1147
  383MOL0     H50522   5.241   3.310  10.568 -1.8428 -0.4879  0.2980
  383MOL0     H50523   5.376   3.264  10.685  0.0577  1.3198 -0.6797
  383MOL0     H50524   5.216   3.377  10.823  1.6134 -1.3078  0.7478
  383MOL0     H50525   5.199   3.203  10.856 -2.0373 -0.2235  0.7946
  383MOL0     H50526   5.018   3.168  10.713  4.8300 -1.4307 -0.3757
  383MOL0     H50527   4.991   3.352  10.700  2.2788 -0.6854 -2.3800
  383MOL0     H50528   5.015   3.184  10.951  2.2622  0.6432 -2.0185
  383MOL0     H50529   4.990   3.361  10.952  0.0992  0.2368  0.3737
  383MOL0     H50530   4.773   3.192  10.831 -1.9587  1.0389  1.1553
  383MOL0     H50531   4.787   3.370  10.851  1.4704  2.1881  2.8155
  383MOL0     H50532   4.787   3.350  11.094 -0.4029 -0.2354  0.8034
  383MOL0     H50533   4.797   3.181  11.097 -3.9230  0.8166  3.9143
  383MOL0     H50534   4.565   3.327  10.951 -3.3406 -1.2612  0.5771
  383MOL0     H50535   4.565   3.163  10.999 -1.6869  0.4679  2.2975
  383MOL0     H50536   4.571   3.401  11.185  2.7898 -0.7164 -0.5653
  383MOL0     H50537   4.591   3.219  11.232  0.3680  0.4645 -0.3665
  383MOL0     H50538   5.338   2.855  10.572  1.2840  0.5687  0.8044
  383MOL0     H50539   5.510   2.800  10.408 -4.0587 -1.9432 -2.2545
  383MOL0     H50540   5.836   2.878  10.139 -2.7326  2.9817  0.8349
  383MOL0     H50541   6.025   2.845   9.979 -1.3161 -1.9062  0.9588
  383MOL0     H50542   5.833   3.522   9.482  0.5735 -0.8976 -0.2336
  383MOL0     H50543   5.671   3.375   9.617  0.5297 -1.3865  0.4024
  383MOL0     H50544   5.270   2.933   9.399  0.4809  0.5208 -0.0592
  383MOL0     H50545   5.126   2.789   9.523 -0.4156 -1.4897  2.0790
  383MOL0     H50546   5.187   2.601   9.773  0.0860 -1.6256  2.9872
  383MOL0     H50547   5.046   2.631   9.671  0.2880 -2.7761 -1.0796
  383MOL0     H50548   5.005   2.468   9.832 -1.2743  0.2572 -3.9906
  383MOL0     H50549   5.018   2.588   9.973  0.8617 -0.2693 -0.8414
  383MOL0     H50550   4.841   2.643   9.747  2.9848  2.1714  0.2491
  383MOL0     H50551   4.840   2.711   9.923  1.3473  0.8892  0.3646
  383MOL0     H50552   4.651   2.540   9.823 -0.2229 -1.5129 -0.0568
  383MOL0     H50553   4.777   2.425   9.865 -2.4622 -0.8077 -1.1160
  383MOL0     H50554   4.615   2.567  10.240 -0.2994 -1.0328 -0.0206
  383MOL0     H50555   5.274   2.944   9.899  1.0456 -0.5682 -0.0181
  383MOL0     H50556   5.422   3.105   9.765 -1.0692  0.1025  0.6063
  384MOL0     O50557   3.364   7.803  10.258  0.4137 -0.2376 -0.5299
  384MOL0     C50558   3.373   7.895  10.336 -0.5350  0.5833 -0.6758
  384MOL0     O50559   3.273   7.930  10.426 -0.6367 -0.3075 -0.6025
  384MOL0     C50560   3.154   7.866  10.430 -0.0253 -0.4854 -0.2132
  384MOL0     C50561   3.106   7.824  10.555  0.5196 -0.3290 -0.1400
  384MOL0     C50562   2.979   7.768  10.566  0.1546  0.2275  0.1565
  384MOL0     C50563   2.888   7.757  10.463 -0.7125  0.5891  0.2476
  384MOL0     O50564   2.771   7.689  10.467  0.6383  0.5320  0.2640
  384MOL0     C50565   2.718   7.607  10.572  0.8997  0.4069 -0.1438
  384MOL0     C50566   2.631   7.493  10.499 -0.0688 -0.7058 -0.1567
  384MOL0     C50567   2.704   7.364  10.473  0.3239 -0.3320  0.4548
  384MOL0     C50568   2.624   7.260  10.392  0.3479 -0.1946 -0.1710
  384MOL0     C50569   2.713   7.145  10.380  0.2582  0.1381  0.4349
  384MOL0     C50570   2.671   7.039  10.275  0.2168  0.0381  0.0036
  384MOL0     C50571   2.522   7.012  10.258 -0.3097 -0.6006  1.3749
  384MOL0     C50572   2.478   6.938  10.377  0.0141  0.5901 -0.1785
  384MOL0     N50573   2.349   6.871  10.345 -0.1341  0.1811  0.4430
  384MOL0     C50574   2.352   6.758  10.271  0.7761 -0.9231 -0.1266
  384MOL0     C50575   2.232   6.696  10.309 -0.4360 -0.0201 -0.6661
  384MOL0     C50576   2.197   6.550  10.285  0.0332 -0.1924 -0.5427
  384MOL0     C50577   2.291   6.453  10.354  0.1554 -0.5127  0.5257
  384MOL0     C50578   2.295   6.454  10.500  0.1746  0.3339 -0.2199
  384MOL0     C50579   2.161   6.456  10.584  0.1403  0.4844  0.1492
  384MOL0     O50580   2.088   6.336  10.559 -0.5908  0.0638  0.3142
  384MOL0     C50581   1.962   6.320  10.596  0.0363  0.2420 -0.7274
  384MOL0     C50582   1.911   6.392  10.706 -0.8022  0.3900 -0.3007
  384MOL0     C50583   1.777   6.386  10.741  0.4714 -0.1894  0.3246
  384MOL0     C50584   1.695   6.283  10.696  1.0345 -0.5084 -0.0719
  384MOL0     C50585   1.557   6.251  10.742 -1.2932 -0.7558 -0.1410
  384MOL0     O50586   1.496   6.140  10.691  0.2852  0.4659 -0.2899
  384MOL0     C50587   1.365   6.117  10.733 -0.2276 -0.1665 -0.4944
  384MOL0     C50588   1.256   6.169  10.665 -0.5506  0.7331  0.1744
  384MOL0     C50589   1.124   6.132  10.691  0.2494  0.3528  0.5030
  384MOL0     C50590   1.097   6.040  10.797 -0.5733  0.1213  0.8717
  384MOL0     O50591   0.977   5.994  10.850 -0.8360 -0.5089 -0.0911
  384MOL0     C50592   0.862   6.003  10.768 -0.3536 -0.4294  0.1825
  384MOL0     C50593   0.748   5.990  10.867 -0.0765 -0.3448 -0.3068
  384MOL0     C50594   0.631   5.979  10.779  0.3723 -0.3285 -0.1347
  384MOL0     C50595   0.502   5.936  10.854 -0.4951  0.0102 -0.1595
  384MOL0     C50596   0.389   5.976  10.764  0.7820  0.2111 -0.9411
  384MOL0     C50597   0.254   5.969  10.843 -0.3516 -0.2196 -0.0958
  384MOL0     C50598   0.129   6.019  10.766  0.6925  0.5094  0.7129
  384MOL0     C50599   0.139   6.161  10.710 -0.8757 -0.3605 -1.1780
  384MOL0    Cl50600   0.236   6.276  10.804 -0.1513 -0.2451 -0.1079
  384MOL0     C50601   1.199   5.998  10.870 -0.4980 -0.1232 -1.0981
  384MOL0     C50602   1.331   6.042  10.838 -0.1051  0.5706 -0.7362
  384MOL0     O50603   1.510   6.327  10.827 -0.5466 -0.5463 -0.4053
  384MOL0     C50604   1.749   6.200  10.597  0.4863 -0.0093 -0.0852
  384MOL0     C50605   1.877   6.222  10.548 -0.2620  0.6985  0.2842
  384MOL0     N50606   2.166   6.773  10.402 -0.3867 -0.0508 -0.1677
  384MOL0     N50607   2.237   6.883  10.418 -0.0122  0.8964 -1.1107
  384MOL0     C50608   2.929   7.818  10.338 -0.4468  0.3964  0.0729
  384MOL0     C50609   3.060   7.873  10.322 -0.2801 -0.0768 -0.4072
  384MOL0     C50610   3.502   7.958  10.355 -0.7328 -0.1288 -0.6010
  384MOL0     C50611   3.544   8.006  10.476  0.7573 -0.0347 -0.0586
  384MOL0     C50612   3.666   8.080  10.489  0.5002  0.1208  0.3347
  384MOL0     C50613   3.749   8.094  10.381  0.2434 -0.6830 -0.0039
  384MOL0     O50614   3.858   8.172  10.384 -0.9811 -0.3434 -0.1062
  384MOL0     C50615   3.959   8.174  10.280 -0.4832  0.0261 -0.4258
  384MOL0     C50616   4.083   8.251  10.334 -0.2268 -0.9253 -0.0177
  384MOL0     C50617   4.207   8.211  10.249 -0.6885  0.9897 -0.3588
  384MOL0     C50618   4.313   8.323  10.228  0.1234  1.4016  0.1645
  384MOL0     C50619   4.379   8.364  10.349 -0.1088 -0.3717  0.8400
  384MOL0     C50620   4.454   8.429  10.430  0.3051  0.2394  0.3930
  384MOL0     C50621   3.719   8.031  10.263 -0.4078 -0.4414 -0.0485
  384MOL0     C50622   3.594   7.962  10.251 -0.6334  0.0106  1.3422
  384MOL0     H50623   3.185   7.829  10.629  2.3338 -1.4498 -1.9005
  384MOL0     H50624   2.950   7.724  10.661  1.5929 -0.3269  0.3691
  384MOL0     H50625   2.653   7.656  10.645  1.2194 -0.8863  1.0474
  384MOL0     H50626   2.795   7.552  10.626 -1.5358 -2.0238  1.0691
  384MOL0     H50627   2.594   7.546  10.410  1.0277  0.0686 -0.1631
  384MOL0     H50628   2.541   7.472  10.558  0.8274 -0.0037  1.4947
  384MOL0     H50629   2.752   7.327  10.564  0.4111  1.1464  1.0425
  384MOL0     H50630   2.786   7.388  10.405  0.1293 -2.2958 -0.5444
  384MOL0     H50631   2.539   7.221  10.448  2.4708 -2.1461  1.9005
  384MOL0     H50632   2.593   7.295  10.293 -3.2807 -2.2245  0.0735
  384MOL0     H50633   2.719   7.102  10.481 -1.1089  0.6324  0.7536
  384MOL0     H50634   2.808   7.182  10.343  0.6350 -1.5062 -0.3159
  384MOL0     H50635   2.724   6.950  10.311  1.0442  1.0549  1.4274
  384MOL0     H50636   2.702   7.065  10.173  1.6345  1.0907  0.6698
  384MOL0     H50637   2.470   7.107  10.246 -1.3004 -1.3144 -0.4689
  384MOL0     H50638   2.521   6.954  10.165  3.8011  0.8730  0.1717
  384MOL0     H50639   2.464   7.017  10.451  2.0114 -0.2453  1.1742
  384MOL0     H50640   2.543   6.866  10.427 -1.3401  1.3758  2.9193
  384MOL0     H50641   2.424   6.719  10.200  0.1415 -0.0185 -1.3117
  384MOL0     H50642   2.195   6.541  10.176 -0.5907 -0.4240 -0.5164
  384MOL0     H50643   2.093   6.532  10.315 -0.3621  2.2331 -0.2691
  384MOL0     H50644   2.391   6.475  10.315  0.1606 -2.3150 -0.5864
  384MOL0     H50645   2.262   6.354  10.317 -1.1083 -0.3863  1.1192
  384MOL0     H50646   2.362   6.372  10.527  1.3402  1.0109 -0.9549
  384MOL0     H50647   2.331   6.552  10.534 -1.4566  1.1994 -0.8072
  384MOL0     H50648   2.094   6.533  10.543 -1.1639 -2.2472 -3.4407
  384MOL0     H50649   2.186   6.469  10.689  3.3109  0.9284 -0.5744
  384MOL0     H50650   1.980   6.459  10.757  2.2415 -1.4994 -1.6369
  384MOL0     H50651   1.738   6.455  10.815 -2.5303 -1.2549 -0.1457
  384MOL0     H50652   1.270   6.222  10.571 -1.4724  1.2777  0.3280
  384MOL0     H50653   1.045   6.148  10.618  0.8674  0.1289 -0.2293
  384MOL0     H50654   0.857   5.927  10.690  0.0113 -0.2552 -0.0187
  384MOL0     H50655   0.843   6.100  10.722 -1.3000 -0.0954  1.2315
  384MOL0     H50656   0.736   6.072  10.937  2.5220  0.4668 -0.7025
  384MOL0     H50657   0.758   5.897  10.924 -2.4582  0.7435  2.0886
  384MOL0     H50658   0.648   5.903  10.702  0.5927 -2.3467  1.8301
  384MOL0     H50659   0.611   6.078  10.736 -0.5442 -0.4477  0.0120
  384MOL0     H50660   0.503   5.827  10.862 -2.4104 -0.3053 -2.8538
  384MOL0     H50661   0.484   5.985  10.950  0.2504  0.6400 -0.3343
  384MOL0     H50662   0.384   5.909  10.678  1.1180 -2.1401  0.7841
  384MOL0     H50663   0.399   6.084  10.749 -2.4159  0.8831  0.8039
  384MOL0     H50664   0.254   6.013  10.943 -1.0440  0.6122 -0.4482
  384MOL0     H50665   0.251   5.860  10.856 -1.6814 -0.4434 -1.8582
  384MOL0     H50666   0.110   5.947  10.686  0.2070 -0.7409  1.9070
  384MOL0     H50667   0.042   6.023  10.832  0.1472  0.8498 -0.0135
  384MOL0     H50668   0.042   6.211  10.704 -0.8342 -0.4075 -2.4104
  384MOL0     H50669   0.181   6.150  10.609  0.3304  3.7503 -1.2936
  384MOL0     H50670   1.193   5.929  10.953  0.8793  0.9236 -0.0722
  384MOL0     H50671   1.414   6.003  10.896  0.8212  3.1494 -0.1704
  384MOL0     H50672   1.695   6.130  10.533 -1.9353  0.8996  0.8356
  384MOL0     H50673   1.911   6.159  10.467  0.1673  0.5585  0.5660
  384MOL0     H50674   2.856   7.835  10.259  2.2664  0.5279 -2.5826
  384MOL0     H50675   3.103   7.904  10.227  3.7498 -2.6122  0.3396
  384MOL0     H50676   3.481   7.981  10.561  2.1181 -1.8234  0.5102
  384MOL0     H50677   3.704   8.113  10.586 -0.8859  1.3599  0.5002
  384MOL0     H50678   3.925   8.228  10.191 -2.8586  1.3850  1.1760
  384MOL0     H50679   3.990   8.071  10.260 -0.4009 -0.8899  3.5277
  384MOL0     H50680   4.057   8.356  10.339  2.9683  0.0857 -1.5535
  384MOL0     H50681   4.115   8.225  10.436  1.1281  1.7747  0.3223
  384MOL0     H50682   4.169   8.187  10.149 -3.4465  0.0745  0.8052
  384MOL0     H50683   4.249   8.119  10.289 -2.1310 -0.3326 -1.7253
  384MOL0     H50684   4.391   8.296  10.156 -0.2169  0.8622 -0.0063
  384MOL0     H50685   4.264   8.413  10.190 -2.0487 -0.0410 -0.6716
  384MOL0     H50686   4.508   8.481  10.506  1.5819 -1.3699  0.6592
  384MOL0     H50687   3.789   8.035  10.180 -0.5984 -2.6981 -0.3959
  384MOL0     H50688   3.575   7.927  10.150  0.2015  0.4547  1.0147
  385MOL0     O50689   1.084   7.381   8.476 -0.0422 -0.4633  0.0277
  385MOL0     C50690   1.129   7.343   8.588  1.7448  0.5556  0.3474
  385MOL0     O50691   1.049   7.295   8.684  0.4249 -0.1429  0.4105
  385MOL0     C50692   0.915   7.321   8.691 -0.7438 -0.0952  0.7232
  385MOL0     C50693   0.821   7.232   8.644  0.5123 -0.2142  0.2767
  385MOL0     C50694   0.686   7.274   8.638  0.8474 -0.2986 -0.1521
  385MOL0     C50695   0.648   7.408   8.682 -0.4377  0.8482 -0.3260
  385MOL0     O50696   0.514   7.450   8.686 -0.0809  0.3450 -0.1910
  385MOL0     C50697   0.419   7.395   8.589 -0.7289 -0.0909 -0.4531
  385MOL0     C50698   0.303   7.482   8.606  0.3136  0.5507 -0.1136
  385MOL0     C50699   0.256   7.458   8.754 -0.1528  0.2286  0.4137
  385MOL0     C50700   0.118   7.521   8.783  0.5747 -0.5513 -0.3023
  385MOL0     C50701   0.053   7.498   8.929  0.0950 -0.8270  0.7691
  385MOL0     C50702  -0.020   7.364   8.930  0.4123  0.6312  0.2190
  385MOL0     C50703  -0.061   7.322   9.069  0.2072  0.6423  0.9611
  385MOL0     C50704  -0.132   7.184   9.063 -0.6853 -0.8423 -0.8888
  385MOL0     N50705  -0.258   7.185   8.987  0.7408  0.3368  0.0197
  385MOL0     C50706  -0.379   7.244   9.017  0.1575  0.2545 -0.4838
  385MOL0     C50707  -0.447   7.222   8.910  0.3321 -0.0854 -0.1142
  385MOL0     C50708  -0.592   7.261   8.901 -0.0369 -0.2002  0.1610
  385MOL0     C50709  -0.688   7.158   8.955  0.5590  0.2756  0.5028
  385MOL0     C50710  -0.826   7.201   8.967  0.2078  0.2313  0.6011
  385MOL0     C50711  -0.921   7.097   9.020  0.8180 -0.1499 -0.8546
  385MOL0     O50712  -1.045   7.169   9.042  0.2369 -0.0199 -0.2680
  385MOL0     C50713  -1.166   7.106   9.057  0.8879 -0.3789 -0.1442
  385MOL0     C50714  -1.188   6.972   9.084  0.8484  1.1873  0.5792
  385MOL0     C50715  -1.314   6.924   9.092 -0.5262  0.4567 -0.5735
  385MOL0     C50716  -1.423   7.012   9.079  0.4729 -0.7449 -0.6524
  385MOL0     C50717  -1.558   6.952   9.079  1.0600  0.3725  0.4999
  385MOL0     O50718  -1.573   6.815   9.084 -0.2020  0.2085 -0.6388
  385MOL0     C50719  -1.698   6.754   9.074  1.2743 -0.8239  0.2786
  385MOL0     C50720  -1.721   6.665   8.977  0.0465  0.2670  0.1722
  385MOL0     C50721  -1.836   6.587   8.968  0.1638  0.1437  0.6470
  385MOL0     C50722  -1.933   6.609   9.062 -0.1822  0.6414  0.2993
  385MOL0     O50723  -2.047   6.529   9.047 -0.0823 -0.3690  0.3862
  385MOL0     C50724  -2.164   6.593   9.009  0.6162 -0.1226 -0.3203
  385MOL0     C50725  -2.285   6.507   9.059 -0.6377  0.1564  0.4992
  385MOL0     C50726  -2.416   6.562   9.020  0.2356 -0.3568  0.5397
  385MOL0     C50727  -2.523   6.459   9.030  0.5744 -0.2011  0.0390
  385MOL0     C50728  -2.660   6.513   9.007  0.2181  0.8782 -0.7452
  385MOL0     C50729  -2.718   6.593   9.128 -0.2567 -1.4365  0.4429
  385MOL0     C50730  -2.867   6.640   9.127 -0.4918 -0.5498 -0.0553
  385MOL0     C50731  -2.962   6.521   9.124  0.0606  0.2155  0.1442
  385MOL0    Cl50732  -3.131   6.566   9.172 -0.0598 -0.5624  0.6053
  385MOL0     C50733  -1.919   6.710   9.154 -0.6818 -0.0555  0.5696
  385MOL0     C50734  -1.804   6.782   9.160 -0.0524 -0.1561  0.8711
  385MOL0     O50735  -1.648   7.033   9.058  0.2638 -0.2805  0.0410
  385MOL0     C50736  -1.392   7.145   9.049  0.0555 -0.0427 -0.7236
  385MOL0     C50737  -1.267   7.203   9.045  0.5305  0.1926 -0.7449
  385MOL0     N50738  -0.371   7.165   8.807  0.3423 -0.5813  0.0687
  385MOL0     N50739  -0.260   7.138   8.860  0.4135 -0.5567 -0.1367
  385MOL0     C50740   0.743   7.488   8.731  0.0320  0.8602 -0.7411
  385MOL0     C50741   0.880   7.450   8.734  0.0864 -0.0436 -0.1861
  385MOL0     C50742   1.280   7.339   8.606  0.0336  0.6994 -0.7261
  385MOL0     C50743   1.333   7.238   8.694 -0.6012 -0.0873 -0.1392
  385MOL0     C50744   1.471   7.235   8.720  0.9662 -0.4485  0.4262
  385MOL0     C50745   1.557   7.326   8.656  0.1887  0.6078  0.4249
  385MOL0     O50746   1.691   7.313   8.696 -0.1701 -0.4111  0.2853
  385MOL0     C50747   1.793   7.394   8.649  1.0862  0.2636 -0.4899
  385MOL0     C50748   1.920   7.331   8.704  0.2043 -0.2099 -0.2579
  385MOL0     C50749   2.038   7.423   8.683  0.0697  0.2333 -0.8038
  385MOL0     C50750   2.172   7.377   8.739  0.4691  0.6159  0.4834
  385MOL0     C50751   2.201   7.239   8.710  0.3060  0.2422 -0.8800
  385MOL0     C50752   2.226   7.129   8.667 -0.2677 -0.1623  0.0400
  385MOL0     C50753   1.505   7.430   8.579  0.3961  0.3939  0.1511
  385MOL0     C50754   1.364   7.439   8.550  0.4118 -0.0521 -0.8500
  385MOL0     H50755   0.862   7.140   8.604  2.4391 -0.8804  3.4566
  385MOL0     H50756   0.606   7.208   8.606 -1.0258  1.8810 -0.1953
  385MOL0     H50757   0.399   7.289   8.605 -0.9737 -0.0872 -0.7267
  385MOL0     H50758   0.455   7.410   8.487 -1.3218  1.2658 -0.4893
  385MOL0     H50759   0.224   7.450   8.538  2.9611 -2.6433 -1.9603
  385MOL0     H50760   0.322   7.589   8.590  0.5454  0.4185 -0.7558
  385MOL0     H50761   0.322   7.493   8.834 -1.1581  3.0789  0.1249
  385MOL0     H50762   0.254   7.350   8.768  1.9793  0.1722  0.5817
  385MOL0     H50763   0.126   7.629   8.767  2.7435 -0.7846 -1.0762
  385MOL0     H50764   0.057   7.469   8.708 -0.7619 -0.4868  0.7087
  385MOL0     H50765  -0.015   7.579   8.957  1.3408  0.8225 -0.8253
  385MOL0     H50766   0.143   7.503   8.992  0.0696 -0.2546  0.7622
  385MOL0     H50767   0.048   7.290   8.887  0.2446  2.1470 -3.0226
  385MOL0     H50768  -0.108   7.365   8.865 -0.9499  0.3057  1.9998
  385MOL0     H50769   0.026   7.306   9.134  0.3857 -0.6058  0.4427
  385MOL0     H50770  -0.127   7.398   9.113 -1.2050 -0.5874  1.0473
  385MOL0     H50771  -0.149   7.162   9.168  3.5200  3.5412  1.0892
  385MOL0     H50772  -0.062   7.114   9.017 -1.0961 -0.6137 -1.8971
  385MOL0     H50773  -0.395   7.298   9.110 -0.9847  0.9964 -1.0857
  385MOL0     H50774  -0.620   7.271   8.796  0.0743 -4.1709 -0.3845
  385MOL0     H50775  -0.612   7.353   8.958 -1.7142 -0.1577 -0.4204
  385MOL0     H50776  -0.647   7.126   9.051  4.7666  1.0220 -0.8328
  385MOL0     H50777  -0.685   7.070   8.889  0.4903 -0.1983  1.1215
  385MOL0     H50778  -0.835   7.297   9.019  4.2758  1.1364 -0.0670
  385MOL0     H50779  -0.856   7.227   8.865  0.2704  0.6346  0.6819
  385MOL0     H50780  -0.888   7.070   9.120 -0.6172  1.6468  0.1707
  385MOL0     H50781  -0.925   7.013   8.951  1.8619 -0.5728 -0.4104
  385MOL0     H50782  -1.098   6.913   9.074  2.0502  3.1901 -1.0553
  385MOL0     H50783  -1.335   6.820   9.112 -0.8476  0.4893 -0.7325
  385MOL0     H50784  -1.632   6.662   8.915 -2.4083  2.2249 -3.8581
  385MOL0     H50785  -1.850   6.511   8.891  1.8960 -0.3542  0.7826
  385MOL0     H50786  -2.164   6.626   8.904 -1.2463  0.1182 -0.2809
  385MOL0     H50787  -2.172   6.689   9.060  0.6136 -1.4469  2.3501
  385MOL0     H50788  -2.290   6.507   9.169 -0.7957  0.1678  0.4923
  385MOL0     H50789  -2.270   6.407   9.017  0.6919  1.5872 -2.7289
  385MOL0     H50790  -2.410   6.585   8.913  0.7663  0.8262  0.7975
  385MOL0     H50791  -2.443   6.649   9.082  1.3767  0.0529  0.4883
  385MOL0     H50792  -2.506   6.387   8.950  4.6908  0.8853 -0.2762
  385MOL0     H50793  -2.520   6.408   9.127 -2.6364  0.9814  0.9144
  385MOL0     H50794  -2.717   6.419   9.004  3.4258 -1.2145 -2.8603
  385MOL0     H50795  -2.673   6.560   8.910  0.5544  2.6293  0.0223
  385MOL0     H50796  -2.654   6.682   9.132  0.6044 -2.0140  0.0754
  385MOL0     H50797  -2.708   6.544   9.225 -1.3992  1.1045  1.9268
  385MOL0     H50798  -2.880   6.690   9.223 -0.4313 -0.8584  0.1178
  385MOL0     H50799  -2.880   6.709   9.043  0.6494 -1.7133 -1.2620
  385MOL0     H50800  -2.933   6.453   9.204 -0.3496  2.9549  2.7779
  385MOL0     H50801  -2.948   6.466   9.030  1.0034  0.9991 -0.1951
  385MOL0     H50802  -2.005   6.733   9.216 -2.6464 -0.1661 -1.9866
  385MOL0     H50803  -1.796   6.855   9.240 -1.0481  1.1034 -0.1390
  385MOL0     H50804  -1.474   7.211   9.023  0.2946  1.3801  1.8161
  385MOL0     H50805  -1.234   7.306   9.036  2.8671 -0.3623  0.7138
  385MOL0     H50806   0.721   7.592   8.751  0.5099  0.8107  0.1246
  385MOL0     H50807   0.946   7.531   8.765  0.3110  0.2751 -1.4515
  385MOL0     H50808   1.262   7.182   8.754 -0.2997 -0.2073  0.1074
  385MOL0     H50809   1.516   7.178   8.800  1.7606  1.4878  1.4281
  385MOL0     H50810   1.774   7.493   8.690  2.0664  1.1983 -2.1753
  385MOL0     H50811   1.793   7.414   8.541  0.0534 -0.3920 -0.6212
  385MOL0     H50812   1.899   7.322   8.811 -0.9143  1.2749 -0.3194
  385MOL0     H50813   1.931   7.238   8.647  2.7966  0.3807 -0.8752
  385MOL0     H50814   2.027   7.523   8.727 -2.4515 -0.7613  1.0515
  385MOL0     H50815   2.044   7.449   8.577  0.1296 -1.5084 -1.2596
  385MOL0     H50816   2.249   7.445   8.701  0.0837  1.0342  0.4511
  385MOL0     H50817   2.174   7.403   8.846 -0.2096  1.2491  0.3437
  385MOL0     H50818   2.250   7.031   8.633 -1.0228 -0.0779 -0.7464
  385MOL0     H50819   1.570   7.498   8.525  0.5609 -0.4841 -0.7851
  385MOL0     H50820   1.326   7.514   8.481 -1.1686  0.5737  0.6446
  386MOL0     O50821   7.015   5.704   5.394  0.0933 -0.2923  0.5300
  386MOL0     C50822   7.051   5.659   5.285 -0.3056 -0.0859  0.6162
  386MOL0     O50823   7.000   5.553   5.220 -0.1363 -0.3516 -0.7918
  386MOL0     C50824   6.895   5.499   5.280 -0.4410 -0.2829  0.3718
  386MOL0     C50825   6.777   5.564   5.300 -0.2233 -0.0731 -0.2463
  386MOL0     C50826   6.670   5.506   5.366 -0.8245  0.3146 -0.1496
  386MOL0     C50827   6.671   5.374   5.403  1.2777 -0.4468 -0.5671
  386MOL0     O50828   6.561   5.316   5.466 -0.7123  0.5975  0.3671
  386MOL0     C50829   6.555   5.177   5.498 -0.0913 -0.4033 -0.4271
  386MOL0     C50830   6.405   5.140   5.521  0.2574  0.6372 -0.1374
  386MOL0     C50831   6.390   4.987   5.529 -0.1795  0.6341 -0.0535
  386MOL0     C50832   6.247   4.937   5.535 -0.9188 -0.3150  0.5549
  386MOL0     C50833   6.228   4.798   5.588  0.1257  0.4617 -0.8178
  386MOL0     C50834   6.294   4.683   5.501  0.2596 -0.4265  0.6452
  386MOL0     C50835   6.219   4.659   5.365  0.0318 -0.5816  0.1279
  386MOL0     C50836   6.088   4.564   5.388 -0.6555  0.1112 -0.1413
  386MOL0     N50837   6.110   4.419   5.362  0.2265 -0.4814  0.4145
  386MOL0     C50838   6.222   4.348   5.383  0.5172 -0.0003 -0.4813
  386MOL0     C50839   6.197   4.221   5.345 -1.1169 -0.0352 -1.0586
  386MOL0     C50840   6.279   4.101   5.369  0.2616 -0.0903 -0.0048
  386MOL0     C50841   6.231   3.987   5.280 -0.1517 -0.0715 -0.0383
  386MOL0     C50842   6.094   3.928   5.336 -0.3656 -0.0505  0.3467
  386MOL0     C50843   6.010   3.872   5.222 -0.6123 -0.0944  0.2220
  386MOL0     O50844   5.912   3.782   5.270  0.8395 -0.4394  0.4054
  386MOL0     C50845   5.817   3.741   5.168 -0.4258 -0.0829  0.2923
  386MOL0     C50846   5.688   3.700   5.207 -0.6029 -0.3097 -0.4268
  386MOL0     C50847   5.593   3.640   5.122 -0.3513 -0.4110 -0.2747
  386MOL0     C50848   5.618   3.639   4.990 -0.1436  0.1990  0.7579
  386MOL0     C50849   5.511   3.602   4.889  0.2261  0.8446 -0.4296
  386MOL0     O50850   5.376   3.596   4.939 -0.0177 -0.4740 -0.7508
  386MOL0     C50851   5.264   3.590   4.857 -0.2489  0.8056 -1.1764
  386MOL0     C50852   5.253   3.630   4.729 -0.5226  0.0585  0.7619
  386MOL0     C50853   5.141   3.611   4.653  0.2869 -0.5806 -0.1316
  386MOL0     C50854   5.025   3.551   4.714 -0.3155 -0.1950  0.0937
  386MOL0     O50855   4.914   3.524   4.652  0.6223  0.1522 -0.1094
  386MOL0     C50856   4.905   3.547   4.514  0.3767  0.0495  0.2163
  386MOL0     C50857   4.764   3.492   4.472  0.1318 -0.0651  0.0777
  386MOL0     C50858   4.754   3.498   4.319  0.1936 -0.3638  0.2971
  386MOL0     C50859   4.625   3.420   4.286 -0.3522 -0.6086  0.1503
  386MOL0     C50860   4.601   3.413   4.126  0.5134  0.2608  0.5616
  386MOL0     C50861   4.480   3.335   4.093  0.1004  0.4761 -0.6993
  386MOL0     C50862   4.481   3.178   4.108  0.0725 -0.8806  1.2095
  386MOL0     C50863   4.372   3.124   4.205  0.2330  0.5905  0.1802
  386MOL0    Cl50864   4.218   3.173   4.135  0.1156 -0.3724  0.2641
  386MOL0     C50865   5.029   3.527   4.848 -1.0488 -0.0490  0.6317
  386MOL0     C50866   5.149   3.539   4.920  0.2651  0.0841  0.0772
  386MOL0     O50867   5.549   3.563   4.773  0.2245  0.3995 -0.0187
  386MOL0     C50868   5.743   3.681   4.943  0.5651  0.0104  0.7289
  386MOL0     C50869   5.844   3.727   5.035 -0.1937 -0.8038  0.7772
  386MOL0     N50870   6.073   4.217   5.292  0.2794 -0.3020  0.0626
  386MOL0     N50871   6.022   4.340   5.296  0.3138 -0.7758 -0.0782
  386MOL0     C50872   6.784   5.298   5.372  0.1607  0.9219 -0.4683
  386MOL0     C50873   6.893   5.364   5.319  0.3717 -0.7331 -0.5238
  386MOL0     C50874   7.179   5.725   5.230  0.8042  0.0099 -0.1004
  386MOL0     C50875   7.241   5.831   5.293  0.8049 -0.3273 -1.1176
  386MOL0     C50876   7.358   5.878   5.246  0.1187 -0.0240 -0.1667
  386MOL0     C50877   7.425   5.826   5.139  0.7048  0.3292  0.0347
  386MOL0     O50878   7.543   5.869   5.092  0.1197  0.0457 -0.0011
  386MOL0     C50879   7.623   5.971   5.165  0.1603 -0.3191 -1.0860
  386MOL0     C50880   7.762   6.001   5.104 -0.5167  0.1653  0.3294
  386MOL0     C50881   7.807   5.887   5.018 -0.6828 -0.0190 -0.4641
  386MOL0     C50882   7.916   5.926   4.914 -0.2630 -0.1669 -0.1586
  386MOL0     C50883   7.854   6.009   4.817 -0.3825 -0.3168  0.2512
  386MOL0     C50884   7.822   6.088   4.730 -0.3724 -0.7062  1.0473
  386MOL0     C50885   7.361   5.724   5.071 -0.1422 -0.6278  0.2003
  386MOL0     C50886   7.239   5.673   5.120 -0.3955 -0.3759  0.8006
  386MOL0     H50887   6.768   5.671   5.281  2.2654 -0.2520 -3.0078
  386MOL0     H50888   6.585   5.567   5.393 -0.2338  0.8058  0.6391
  386MOL0     H50889   6.613   5.154   5.588  0.1544  0.6635 -0.3071
  386MOL0     H50890   6.592   5.109   5.421  0.2837 -0.0938 -0.5227
  386MOL0     H50891   6.348   5.177   5.436 -2.0640 -0.6734  0.7641
  386MOL0     H50892   6.370   5.185   5.614  1.0406 -2.5445  1.8536
  386MOL0     H50893   6.438   4.957   5.623  1.9348  3.4334 -0.0951
  386MOL0     H50894   6.450   4.938   5.452  0.4335  0.9763  0.1911
  386MOL0     H50895   6.177   5.002   5.589 -0.3843 -0.8059  1.8786
  386MOL0     H50896   6.219   4.934   5.429  0.0207  0.4422  0.2686
  386MOL0     H50897   6.121   4.775   5.585  0.1531  0.3903 -3.9221
  386MOL0     H50898   6.265   4.790   5.691  1.9295 -0.8091 -1.5155
  386MOL0     H50899   6.285   4.588   5.553 -2.2575 -1.7031 -1.8611
  386MOL0     H50900   6.395   4.720   5.478 -0.7380  0.7775 -2.4287
  386MOL0     H50901   6.190   4.757   5.327  0.0053 -0.9722 -0.9022
  386MOL0     H50902   6.288   4.605   5.300  1.1675  1.5009 -0.4906
  386MOL0     H50903   6.020   4.595   5.308 -2.6620 -2.0091  0.6362
  386MOL0     H50904   6.037   4.586   5.482  1.2569  0.1131  0.9689
  386MOL0     H50905   6.304   4.376   5.448 -0.6848 -0.9107  1.5471
  386MOL0     H50906   6.278   4.081   5.477 -0.6113  1.0903  0.2280
  386MOL0     H50907   6.376   4.124   5.326  0.0174 -0.0096 -0.5179
  386MOL0     H50908   6.309   3.910   5.273  1.7441  1.6545  0.9113
  386MOL0     H50909   6.211   4.024   5.179 -0.4190 -0.6448 -0.1985
  386MOL0     H50910   6.122   3.857   5.414  2.0070  0.5232  0.1274
  386MOL0     H50911   6.034   4.006   5.384 -0.5314  0.9147 -1.3569
  386MOL0     H50912   6.077   3.809   5.163  1.9338  3.1085 -0.6304
  386MOL0     H50913   5.964   3.950   5.161  0.3253 -1.2247 -2.0680
  386MOL0     H50914   5.660   3.716   5.311  1.1362 -0.3385  0.0713
  386MOL0     H50915   5.493   3.620   5.161  0.1973 -0.0176  1.4419
  386MOL0     H50916   5.336   3.668   4.671 -2.7825  0.8305 -2.2295
  386MOL0     H50917   5.147   3.638   4.548 -0.5144 -2.8404 -0.8152
  386MOL0     H50918   4.974   3.490   4.452  0.9497  0.1808  0.7298
  386MOL0     H50919   4.913   3.652   4.487  0.1160 -0.2068 -0.9207
  386MOL0     H50920   4.690   3.544   4.533  0.2064 -1.9331  1.8849
  386MOL0     H50921   4.751   3.386   4.496  0.0393 -0.6343 -2.2518
  386MOL0     H50922   4.843   3.446   4.281 -0.2605 -2.7383  2.1832
  386MOL0     H50923   4.741   3.600   4.284 -0.6687 -0.7367 -0.4885
  386MOL0     H50924   4.636   3.315   4.315  0.1581 -0.9334 -1.1228
  386MOL0     H50925   4.532   3.454   4.332 -0.5484  0.4876 -0.9931
  386MOL0     H50926   4.686   3.360   4.081 -1.4951 -2.7900  0.1293
  386MOL0     H50927   4.587   3.515   4.088  1.5647  0.3362  0.3465
  386MOL0     H50928   4.441   3.358   3.993  2.7310  0.4285 -1.8042
  386MOL0     H50929   4.403   3.367   4.165  0.1028 -0.8179 -0.0825
  386MOL0     H50930   4.463   3.135   4.009  2.2185  0.8652 -0.0400
  386MOL0     H50931   4.585   3.146   4.126  0.9032 -0.6907 -2.5227
  386MOL0     H50932   4.386   3.166   4.305  1.0894 -0.3631  0.4725
  386MOL0     H50933   4.372   3.015   4.216 -0.3573  0.1336 -3.2384
  386MOL0     H50934   4.936   3.493   4.891 -0.0031 -2.8915  0.8598
  386MOL0     H50935   5.147   3.520   5.027 -0.7476  0.8324  0.2071
  386MOL0     H50936   5.767   3.682   4.837 -1.4796 -0.3254  0.2194
  386MOL0     H50937   5.944   3.740   4.996 -0.6945 -1.0868 -0.6600
  386MOL0     H50938   6.802   5.193   5.390  2.0813  1.4344  0.9705
  386MOL0     H50939   6.988   5.311   5.318  0.8392  0.0782  0.1499
  386MOL0     H50940   7.188   5.873   5.378  1.0525 -0.0235 -1.1116
  386MOL0     H50941   7.409   5.946   5.313 -0.5488  1.2016 -0.8722
  386MOL0     H50942   7.647   5.925   5.261 -0.3538  1.9917  0.2309
  386MOL0     H50943   7.574   6.069   5.172  0.9788 -0.0007  1.0750
  386MOL0     H50944   7.765   6.094   5.048  1.6038  0.0956  0.2735
  386MOL0     H50945   7.829   6.018   5.189  1.1135  1.5448 -1.1775
  386MOL0     H50946   7.720   5.854   4.961 -2.1948  0.0227  1.7080
  386MOL0     H50947   7.844   5.803   5.077 -2.4892 -2.2543 -2.3062
  386MOL0     H50948   7.993   5.981   4.969 -0.6367 -0.1339  0.3457
  386MOL0     H50949   7.964   5.838   4.870 -1.5991 -0.2330 -1.5745
  386MOL0     H50950   7.797   6.150   4.647  3.6160  0.4650  0.5362
  386MOL0     H50951   7.405   5.687   4.979 -1.0943  2.7324 -1.8051
  386MOL0     H50952   7.183   5.596   5.066 -1.6709 -1.6468  3.7061
  387MOL0     O50953   1.206   5.343  10.902  0.6053 -0.7601 -0.9441
  387MOL0     C50954   1.295   5.293  10.972  0.2825 -0.0746  0.4042
  387MOL0     O50955   1.280   5.183  11.048  0.4250  0.1628 -0.1229
  387MOL0     C50956   1.168   5.107  11.034  0.2759 -0.2259  0.6131
  387MOL0     C50957   1.128   5.055  10.907 -0.2316 -0.5473 -0.5609
  387MOL0     C50958   1.008   4.986  10.903 -0.3425 -0.6345  0.7546
  387MOL0     C50959   0.928   4.981  11.011 -0.2820  0.1020  0.2694
  387MOL0     O50960   0.807   4.905  10.991  0.5974 -0.1575  0.2126
  387MOL0     C50961   0.719   4.874  11.098  0.5155 -0.4026 -0.3986
  387MOL0     C50962   0.589   4.805  11.047 -0.3436 -0.1954 -0.2327
  387MOL0     C50963   0.486   4.787  11.153 -0.5668 -0.6597 -0.2865
  387MOL0     C50964   0.365   4.726  11.090 -0.1661  0.1013  0.2075
  387MOL0     C50965   0.253   4.729  11.198  0.1422  0.1633 -0.6907
  387MOL0     C50966   0.133   4.637  11.169  0.1546 -0.0732 -0.0312
  387MOL0     C50967  -0.003   4.678  11.241 -0.3057  1.1361  0.2289
  387MOL0     C50968  -0.110   4.734  11.139  0.3387 -0.5117 -0.0426
  387MOL0     N50969  -0.215   4.805  11.211  0.6763 -0.5340  0.2747
  387MOL0     C50970  -0.312   4.749  11.289 -0.2518 -0.0601  0.2126
  387MOL0     C50971  -0.393   4.853  11.318 -0.2652 -0.6849  0.2505
  387MOL0     C50972  -0.514   4.864  11.406  0.4776 -0.3786  0.1942
  387MOL0     C50973  -0.644   4.817  11.342 -0.1221  0.3375  0.3028
  387MOL0     C50974  -0.641   4.668  11.352  0.1271  0.2407  0.2022
  387MOL0     C50975  -0.753   4.601  11.266  0.1177 -0.1931 -0.9824
  387MOL0     O50976  -0.882   4.660  11.310 -0.2147 -0.0545  0.3535
  387MOL0     C50977  -1.000   4.642  11.239 -0.2081  0.1897 -0.4671
  387MOL0     C50978  -1.019   4.617  11.104  0.2519 -0.3096 -0.2797
  387MOL0     C50979  -1.146   4.606  11.045  0.2043  0.2121  0.3642
  387MOL0     C50980  -1.263   4.620  11.126  0.3785 -0.1347  0.0802
  387MOL0     C50981  -1.406   4.603  11.075  0.2118  0.0142 -0.4788
  387MOL0     O50982  -1.509   4.591  11.165 -0.2787 -0.1982  0.4437
  387MOL0     C50983  -1.633   4.579  11.117 -0.2004  0.1964  0.6269
  387MOL0     C50984  -1.673   4.484  11.026 -0.0631 -0.2933  0.0039
  387MOL0     C50985  -1.798   4.487  10.971  0.7735  0.3152  0.2993
  387MOL0     C50986  -1.895   4.570  11.030 -0.8491 -0.7472  0.1119
  387MOL0     O50987  -2.024   4.575  10.989  0.2737 -0.6522  0.6791
  387MOL0     C50988  -2.053   4.648  10.869 -0.2660  0.4309  0.5408
  387MOL0     C50989  -2.198   4.699  10.856 -0.3121  0.3719 -0.2536
  387MOL0     C50990  -2.220   4.769  10.724  0.1080 -0.2355  0.4134
  387MOL0     C50991  -2.361   4.827  10.706 -0.4591  0.0421 -0.7123
  387MOL0     C50992  -2.467   4.717  10.682 -0.2551  0.2702 -0.8163
  387MOL0     C50993  -2.605   4.763  10.678  0.2804  0.0139  0.0346
  387MOL0     C50994  -2.640   4.811  10.823 -0.0458  0.1802  0.4750
  387MOL0     C50995  -2.791   4.777  10.860 -0.3128 -0.5847  0.2748
  387MOL0    Cl50996  -2.826   4.872  11.019 -0.4467  0.0968 -0.1907
  387MOL0     C50997  -1.862   4.656  11.132  0.3635 -0.0333 -0.4388
  387MOL0     C50998  -1.727   4.671  11.166 -0.3483  0.5542  0.0759
  387MOL0     O50999  -1.419   4.604  10.954  0.5374 -0.6946 -0.3838
  387MOL0     C51000  -1.241   4.647  11.264  0.0697 -0.0398  0.2823
  387MOL0     C51001  -1.114   4.662  11.313 -0.7352  0.5524 -0.3533
  387MOL0     N51002  -0.338   4.969  11.258  0.6736  0.6786  0.1550
  387MOL0     N51003  -0.235   4.937  11.186  0.3025 -0.4234  0.3073
  387MOL0     C51004   0.962   5.032  11.133  0.4394  0.1349  0.1766
  387MOL0     C51005   1.090   5.086  11.143 -0.1528  0.5518 -0.2653
  387MOL0     C51006   1.431   5.333  10.931 -0.0628  0.1977 -0.0091
  387MOL0     C51007   1.539   5.283  10.999  0.1930  0.5635 -0.1620
  387MOL0     C51008   1.667   5.313  10.950 -0.2919  0.0948  0.2958
  387MOL0     C51009   1.699   5.402  10.848 -0.4166  0.2643  0.6036
  387MOL0     O51010   1.822   5.443  10.803 -0.9813  0.5023 -0.1551
  387MOL0     C51011   1.948   5.415  10.879 -0.1709 -0.8289 -0.2933
  387MOL0     C51012   2.069   5.468  10.797 -0.1615  0.0413 -0.3962
  387MOL0     C51013   2.049   5.622  10.763  0.0341  0.5260 -0.8822
  387MOL0     C51014   2.175   5.677  10.697 -0.0393 -0.5235  0.1682
  387MOL0     C51015   2.207   5.617  10.563  0.5604 -0.0388 -0.3478
  387MOL0     C51016   2.222   5.557  10.461 -0.2051 -1.3200  1.5409
  387MOL0     C51017   1.585   5.451  10.783  0.5139 -0.1978 -0.5868
  387MOL0     C51018   1.453   5.413  10.823  0.3466 -0.5215  0.1927
  387MOL0     H51019   1.199   5.067  10.826  2.6300 -4.6186  0.9822
  387MOL0     H51020   0.971   4.955  10.806  3.1810 -1.2807 -0.5198
  387MOL0     H51021   0.695   4.963  11.157 -0.4987  0.9196 -2.6837
  387MOL0     H51022   0.773   4.803  11.161  2.3635  0.8385 -0.4733
  387MOL0     H51023   0.617   4.707  11.006 -1.5140  0.1473 -1.9779
  387MOL0     H51024   0.556   4.867  10.963  0.6619  0.7724  0.0670
  387MOL0     H51025   0.465   4.886  11.195  1.1094 -0.1443 -0.6060
  387MOL0     H51026   0.519   4.716  11.229 -1.5515  1.2679  2.1029
  387MOL0     H51027   0.331   4.785  11.004 -2.2688  0.4572  1.2127
  387MOL0     H51028   0.382   4.622  11.061 -0.2047 -0.1169  0.9657
  387MOL0     H51029   0.213   4.830  11.201  0.0650  0.2358 -2.9239
  387MOL0     H51030   0.277   4.698  11.301 -2.2289 -0.5101 -0.2770
  387MOL0     H51031   0.157   4.538  11.208  0.0055  0.0779  0.4420
  387MOL0     H51032   0.114   4.627  11.061  1.5822 -0.7781 -0.2522
  387MOL0     H51033  -0.034   4.578  11.274  1.7687 -1.3256 -4.3763
  387MOL0     H51034   0.024   4.747  11.321 -0.8138  0.9212  0.5925
  387MOL0     H51035  -0.154   4.650  11.086  0.2804 -0.8423  0.5251
  387MOL0     H51036  -0.062   4.809  11.075  1.4868 -1.2790 -0.1121
  387MOL0     H51037  -0.326   4.645  11.318 -2.3206 -0.8730 -3.1175
  387MOL0     H51038  -0.526   4.970  11.430 -2.0016 -0.3699 -0.8741
  387MOL0     H51039  -0.501   4.806  11.498  0.3796  1.6523  1.5589
  387MOL0     H51040  -0.664   4.853  11.241 -1.3001 -0.4498  0.2357
  387MOL0     H51041  -0.728   4.853  11.402 -1.8504  0.3786 -1.9999
  387MOL0     H51042  -0.550   4.623  11.311 -0.9449 -1.6753 -0.1900
  387MOL0     H51043  -0.645   4.633  11.455  0.4082  0.5126  0.3078
  387MOL0     H51044  -0.770   4.496  11.289 -3.0618  0.6781  1.3276
  387MOL0     H51045  -0.734   4.618  11.159  1.7429 -2.1429 -1.0706
  387MOL0     H51046  -0.927   4.604  11.049  0.1049 -0.2464 -0.5466
  387MOL0     H51047  -1.159   4.577  10.941 -0.5512  1.0858  0.2041
  387MOL0     H51048  -1.590   4.417  11.005  0.5546  0.3490  0.3583
  387MOL0     H51049  -1.824   4.423  10.887 -0.3984  2.6971 -1.2709
  387MOL0     H51050  -2.039   4.578  10.786 -2.1585  0.6275  0.0096
  387MOL0     H51051  -1.989   4.735  10.853  1.7994 -0.7374  1.9981
  387MOL0     H51052  -2.221   4.776  10.930 -0.5662 -0.8332  0.9517
  387MOL0     H51053  -2.265   4.615  10.874  2.3840 -1.7980  0.2043
  387MOL0     H51054  -2.203   4.698  10.642  1.6335  2.0979 -1.4217
  387MOL0     H51055  -2.141   4.844  10.726  1.5030 -1.6607  1.2256
  387MOL0     H51056  -2.396   4.885  10.792 -1.7850  0.1660 -1.3167
  387MOL0     H51057  -2.359   4.891  10.618 -1.8849  0.4262 -0.4802
  387MOL0     H51058  -2.464   4.651  10.769 -4.4170  0.6316 -0.1577
  387MOL0     H51059  -2.449   4.653  10.596  1.9290  0.0868 -0.2802
  387MOL0     H51060  -2.669   4.675  10.663  2.2303 -1.7570  1.5475
  387MOL0     H51061  -2.624   4.844  10.606  1.0236  1.5538  1.5167
  387MOL0     H51062  -2.577   4.767  10.901 -0.3740 -3.9909 -1.3895
  387MOL0     H51063  -2.625   4.919  10.834  4.3692 -0.2979  0.9365
  387MOL0     H51064  -2.813   4.670  10.865 -0.5111 -0.6301 -1.1561
  387MOL0     H51065  -2.870   4.817  10.796 -0.4468  0.3766  1.0153
  387MOL0     H51066  -1.929   4.719  11.190  2.6929  2.3304 -0.1686
  387MOL0     H51067  -1.705   4.758  11.227 -0.6953  1.0369 -0.4779
  387MOL0     H51068  -1.327   4.650  11.331 -0.7552 -0.8288 -0.6932
  387MOL0     H51069  -1.122   4.680  11.420 -5.2028 -3.4251  0.3164
  387MOL0     H51070   0.910   5.031  11.228  1.2984  0.7546  0.6793
  387MOL0     H51071   1.129   5.127  11.236 -2.3003 -0.7416  1.3252
  387MOL0     H51072   1.539   5.213  11.082 -1.2147 -1.7027 -1.9362
  387MOL0     H51073   1.757   5.275  10.998 -0.2572 -0.8747 -0.4993
  387MOL0     H51074   1.965   5.307  10.889  1.2046 -0.7839 -1.6864
  387MOL0     H51075   1.932   5.456  10.979 -1.3596 -0.1024 -0.7630
  387MOL0     H51076   2.163   5.446  10.848  0.0260 -1.7919 -1.4706
  387MOL0     H51077   2.069   5.415  10.702  1.7767 -0.4885 -0.1287
  387MOL0     H51078   2.033   5.667  10.862 -2.8567 -2.9966  0.4815
  387MOL0     H51079   1.960   5.629  10.700 -0.5441  0.8499 -0.0459
  387MOL0     H51080   2.174   5.785  10.681  2.2102 -0.3476  0.8220
  387MOL0     H51081   2.260   5.654  10.762 -0.0751 -0.8894  0.0868
  387MOL0     H51082   2.240   5.515  10.363 -0.0710 -0.1073  1.0275
  387MOL0     H51083   1.601   5.521  10.702  0.6566  2.1872  1.4197
  387MOL0     H51084   1.367   5.440  10.763 -1.1762 -0.1444  2.4417
  388MOL0     O51085   6.888  10.469   4.587 -0.0166  0.3515 -0.6189
  388MOL0     C51086   6.936  10.572   4.630 -0.4340  0.4818 -0.2743
  388MOL0     O51087   7.063  10.585   4.665  0.1015  0.4024  0.7979
  388MOL0     C51088   7.172  10.551   4.591  0.2738 -0.3026 -0.0287
  388MOL0     C51089   7.178  10.485   4.461  0.2557 -0.1930 -0.0269
  388MOL0     C51090   7.301  10.473   4.395  0.3541 -0.1270 -0.3554
  388MOL0     C51091   7.424  10.515   4.453 -0.6989  0.2338 -0.5677
  388MOL0     O51092   7.544  10.513   4.396 -0.4404  0.1717 -0.4913
  388MOL0     C51093   7.635  10.412   4.440  0.3062  0.1231 -0.4774
  388MOL0     C51094   7.772  10.470   4.414 -0.4680 -0.3254  0.4785
  388MOL0     C51095   7.815  10.589   4.512  0.4664 -0.0559  0.6586
  388MOL0     C51096   7.955  10.640   4.472  0.2055 -0.5652 -0.1348
  388MOL0     C51097   8.023  10.751   4.555  1.0245  0.3179 -0.8876
  388MOL0     C51098   8.174  10.778   4.527  0.4079 -0.0280 -0.3544
  388MOL0     C51099   8.219  10.872   4.644  0.0604  1.1077 -0.0558
  388MOL0     C51100   8.365  10.919   4.624 -0.0902 -0.1744 -0.7239
  388MOL0     N51101   8.400  11.045   4.681 -0.4754  0.2906 -0.3290
  388MOL0     C51102   8.520  11.058   4.754 -0.6258 -0.4177 -0.1812
  388MOL0     C51103   8.536  11.197   4.740  0.6706 -0.1817 -0.3674
  388MOL0     C51104   8.664  11.265   4.775 -0.2341 -0.5688  0.5860
  388MOL0     C51105   8.784  11.180   4.728 -1.5366  0.1902  0.3443
  388MOL0     C51106   8.806  11.173   4.575 -0.8292  0.0493  0.5306
  388MOL0     C51107   8.936  11.112   4.527  0.5637 -0.0152 -0.1736
  388MOL0     O51108   8.930  10.965   4.551 -0.6638  0.2818  0.4688
  388MOL0     C51109   9.048  10.895   4.544  0.0015 -0.0452 -0.2954
  388MOL0     C51110   9.163  10.944   4.478  0.1164 -0.5001 -0.6372
  388MOL0     C51111   9.278  10.868   4.475  0.1679  0.3926  0.7301
  388MOL0     C51112   9.288  10.739   4.540 -0.2266 -0.6649  0.0002
  388MOL0     C51113   9.415  10.668   4.547  0.1100  0.7229 -0.0502
  388MOL0     O51114   9.404  10.538   4.590  0.0338  0.6339  0.2742
  388MOL0     C51115   9.512  10.453   4.596  0.8978 -0.3766  0.0755
  388MOL0     C51116   9.536  10.382   4.709  0.2981  0.7312  0.3199
  388MOL0     C51117   9.635  10.282   4.715 -0.5437 -0.0820 -0.5672
  388MOL0     C51118   9.706  10.251   4.604 -1.0311  0.1465 -0.2556
  388MOL0     O51119   9.793  10.147   4.618 -0.2137  0.5630  0.2408
  388MOL0     C51120   9.845  10.084   4.504  0.2172 -0.2769 -0.2790
  388MOL0     C51121   9.941   9.965   4.552 -0.1227  0.2738  0.2528
  388MOL0     C51122   9.852   9.857   4.614  0.3604  0.6327 -0.1052
  388MOL0     C51123   9.713   9.815   4.560 -0.0170 -0.4006  0.3478
  388MOL0     C51124   9.663   9.681   4.616  0.0168  0.2426 -0.0588
  388MOL0     C51125   9.536   9.630   4.542  0.1913 -0.4874 -0.5007
  388MOL0     C51126   9.503   9.484   4.571 -0.1671  0.4453 -0.6307
  388MOL0     C51127   9.367   9.444   4.519  0.6986  0.6065  1.2223
  388MOL0    Cl51128   9.350   9.270   4.571  0.4784  0.1142  0.1443
  388MOL0     C51129   9.680  10.315   4.485  0.5982  0.0106  0.5668
  388MOL0     C51130   9.582  10.420   4.482 -0.2108 -0.2447 -0.4976
  388MOL0     O51131   9.517  10.726   4.509 -0.3960 -0.3182  0.4871
  388MOL0     C51132   9.173  10.694   4.613 -0.0644 -0.5890  0.8857
  388MOL0     C51133   9.054  10.769   4.604 -0.1810 -0.1900  0.6647
  388MOL0     N51134   8.422  11.256   4.679 -0.1290 -0.5599  0.8217
  388MOL0     N51135   8.343  11.160   4.644  0.1890 -0.7191 -0.1241
  388MOL0     C51136   7.415  10.591   4.570 -0.1388 -0.2369 -0.1830
  388MOL0     C51137   7.291  10.602   4.636  0.1904 -0.4327 -0.0339
  388MOL0     C51138   6.849  10.692   4.658 -0.7036  0.1428  0.3059
  388MOL0     C51139   6.905  10.820   4.666 -0.4300 -0.3387 -0.0493
  388MOL0     C51140   6.818  10.927   4.692  0.4547  0.1415  0.5943
  388MOL0     C51141   6.683  10.910   4.707  0.1845  0.2430  0.2181
  388MOL0     O51142   6.613  11.019   4.739 -0.3843 -0.6228  0.3144
  388MOL0     C51143   6.498  11.000   4.812 -0.5627 -0.3178 -0.2277
  388MOL0     C51144   6.491  10.914   4.949  0.5172 -0.2313  0.4013
  388MOL0     C51145   6.611  10.941   5.033 -0.0974  0.7520 -0.6721
  388MOL0     C51146   6.613  11.079   5.092  0.1725 -0.0000 -0.2517
  388MOL0     C51147   6.736  11.116   5.173 -0.7966  0.2062  0.1502
  388MOL0     C51148   6.825  11.169   5.239 -0.9905 -0.6539  0.0102
  388MOL0     C51149   6.630  10.778   4.700 -0.2786  0.7968 -0.0581
  388MOL0     C51150   6.715  10.675   4.675  0.0871 -0.6717 -0.2506
  388MOL0     H51151   7.093  10.432   4.419 -0.7527  0.7964  0.6945
  388MOL0     H51152   7.300  10.421   4.300  0.5160  3.0652 -2.2328
  388MOL0     H51153   7.602  10.320   4.391 -1.1894  0.4408 -0.1039
  388MOL0     H51154   7.629  10.384   4.545  0.5542  0.7691 -0.2843
  388MOL0     H51155   7.780  10.504   4.310  2.4036  0.6822  0.9494
  388MOL0     H51156   7.845  10.390   4.429 -1.1255 -0.9764  0.2759
  388MOL0     H51157   7.824  10.557   4.616  0.3077  2.1363  1.3961
  388MOL0     H51158   7.738  10.665   4.502 -0.1099 -0.6943  0.1289
  388MOL0     H51159   8.013  10.548   4.471  0.9236 -0.1205  0.1375
  388MOL0     H51160   7.943  10.682   4.372 -1.7596 -1.7744 -0.4563
  388MOL0     H51161   8.027  10.726   4.661 -1.5923  0.0766 -0.7769
  388MOL0     H51162   7.963  10.842   4.554 -0.7302 -0.7775 -0.7818
  388MOL0     H51163   8.189  10.836   4.435 -1.0654 -0.3043 -0.8029
  388MOL0     H51164   8.245  10.695   4.520 -1.1889 -1.4752 -0.0489
  388MOL0     H51165   8.157  10.963   4.648  0.1620  1.1475  1.3357
  388MOL0     H51166   8.211  10.823   4.742 -2.7842 -1.1516 -1.2906
  388MOL0     H51167   8.367  10.950   4.519 -2.4638  2.0836 -0.2193
  388MOL0     H51168   8.434  10.837   4.647 -1.0963 -1.1450 -1.0220
  388MOL0     H51169   8.589  10.984   4.792 -1.6513 -0.2067  2.2176
  388MOL0     H51170   8.672  11.279   4.883  0.5659 -0.5184  0.5288
  388MOL0     H51171   8.680  11.359   4.721  1.6076 -1.2881 -0.2158
  388MOL0     H51172   8.773  11.075   4.756 -1.6016  0.3206  0.8214
  388MOL0     H51173   8.878  11.214   4.773 -1.1623 -0.8410  0.3580
  388MOL0     H51174   8.720  11.130   4.523 -1.6391  0.6391  1.3344
  388MOL0     H51175   8.812  11.274   4.534 -0.8522 -0.1287  0.0910
  388MOL0     H51176   9.018  11.160   4.581  0.8844 -0.7347 -0.0035
  388MOL0     H51177   8.943  11.135   4.421  1.7333  1.6214  0.2223
  388MOL0     H51178   9.158  11.043   4.433  0.8526  0.4073  1.2104
  388MOL0     H51179   9.363  10.904   4.418 -1.9572 -1.2229 -3.9854
  388MOL0     H51180   9.467  10.405   4.790  1.3240  2.3499  0.7771
  388MOL0     H51181   9.660  10.255   4.817 -1.6426  2.7644  0.5381
  388MOL0     H51182   9.903  10.151   4.441  2.0048 -2.5059 -1.1590
  388MOL0     H51183   9.767  10.044   4.439 -1.5707  0.4473  1.2997
  388MOL0     H51184  10.030   9.999   4.606  0.6922  1.2769 -1.6235
  388MOL0     H51185   9.969   9.924   4.454 -0.0236  2.4499 -0.7052
  388MOL0     H51186   9.824   9.905   4.708  0.6833 -2.8842  1.9652
  388MOL0     H51187   9.910   9.770   4.643  1.0916  0.4947 -1.8421
  388MOL0     H51188   9.635   9.890   4.579 -0.3349  0.0665 -2.4336
  388MOL0     H51189   9.728   9.798   4.453 -0.7303  0.0821  0.1606
  388MOL0     H51190   9.658   9.683   4.725  4.2991  0.9748  0.3025
  388MOL0     H51191   9.746   9.611   4.604  3.2093  3.2257  2.5054
  388MOL0     H51192   9.543   9.651   4.435  3.1092  0.1534 -0.2696
  388MOL0     H51193   9.454   9.692   4.580  1.9691  1.4283  0.4299
  388MOL0     H51194   9.578   9.416   4.530  2.3864  1.1129  2.5279
  388MOL0     H51195   9.512   9.477   4.680  4.1013  1.1288 -0.7397
  388MOL0     H51196   9.364   9.448   4.409 -1.4274  1.8545  1.2751
  388MOL0     H51197   9.280   9.498   4.557 -1.4272 -3.2200  2.2589
  388MOL0     H51198   9.739  10.289   4.398  1.1958  0.7974  0.7236
  388MOL0     H51199   9.571  10.491   4.400  0.5432  2.1070  1.3191
  388MOL0     H51200   9.173  10.608   4.679  0.8298  2.1098  4.7713
  388MOL0     H51201   8.968  10.729   4.656  0.2080  0.9710  2.2837
  388MOL0     H51202   7.497  10.651   4.608 -0.6139  0.0119  0.4686
  388MOL0     H51203   7.300  10.661   4.726  0.1887  0.9614 -0.9166
  388MOL0     H51204   7.009  10.851   4.656 -0.3349 -0.2870  1.0540
  388MOL0     H51205   6.846  11.031   4.706 -0.3967  0.3893  0.5343
  388MOL0     H51206   6.426  10.952   4.745 -0.8627 -1.3511  0.7932
  388MOL0     H51207   6.456  11.100   4.832 -0.6938 -0.5633  0.8025
  388MOL0     H51208   6.394  10.935   4.995  0.7130  0.9406  0.3196
  388MOL0     H51209   6.483  10.809   4.921  0.5312 -0.2844  0.5980
  388MOL0     H51210   6.702  10.936   4.974 -1.2325 -0.1990 -2.4381
  388MOL0     H51211   6.613  10.864   5.111  1.0328  0.9865 -0.4550
  388MOL0     H51212   6.620  11.150   5.009  2.1614  0.0333 -0.0869
  388MOL0     H51213   6.522  11.096   5.151  1.1611  1.5684  0.8991
  388MOL0     H51214   6.901  11.200   5.309  0.2772  0.8205 -1.8869
  388MOL0     H51215   6.525  10.755   4.711 -0.7172  1.6306 -2.0054
  388MOL0     H51216   6.668  10.578   4.665 -0.8684 -0.0483 -2.4422
  389MOL0     O51217   5.761   5.540   4.546 -0.4549  0.2609 -0.1025
  389MOL0     C51218   5.795   5.493   4.437  0.7830  0.1455  0.1685
  389MOL0     O51219   5.700   5.456   4.338 -0.0896 -0.5461  0.3083
  389MOL0     C51220   5.590   5.391   4.388 -1.3278 -0.9243 -0.1861
  389MOL0     C51221   5.469   5.424   4.324  1.0569  0.2333  0.1450
  389MOL0     C51222   5.345   5.376   4.377 -0.5183  0.4883  0.4555
  389MOL0     C51223   5.348   5.293   4.491  0.8545  0.1904  1.6861
  389MOL0     O51224   5.235   5.233   4.541 -0.5375 -0.2167  0.1226
  389MOL0     C51225   5.139   5.181   4.442  0.1429 -0.8832  0.2423
  389MOL0     C51226   5.021   5.144   4.537  0.2762 -0.0405  0.3053
  389MOL0     C51227   4.935   5.259   4.581  0.0531  0.1850 -0.7468
  389MOL0     C51228   4.839   5.311   4.475 -0.9141  0.1279  0.0292
  389MOL0     C51229   4.731   5.414   4.531  0.0290 -0.6465 -0.2999
  389MOL0     C51230   4.592   5.347   4.518 -0.3596 -0.4204 -0.0479
  389MOL0     C51231   4.489   5.435   4.593 -0.9103  0.3522 -0.0338
  389MOL0     C51232   4.341   5.375   4.583  0.1253 -0.3324 -0.1000
  389MOL0     N51233   4.243   5.473   4.621  0.8198  0.2323 -0.1257
  389MOL0     C51234   4.214   5.502   4.751  0.3966  0.5700 -0.0922
  389MOL0     C51235   4.116   5.590   4.749  0.8562 -0.0841  1.4141
  389MOL0     C51236   4.052   5.646   4.872  0.5161  0.8138  0.5658
  389MOL0     C51237   3.921   5.569   4.892 -0.4431 -0.8359 -0.4998
  389MOL0     C51238   3.871   5.552   5.035  0.5299  0.5319  0.1110
  389MOL0     C51239   3.865   5.682   5.108  0.3627 -0.0663  0.1888
  389MOL0     O51240   3.752   5.750   5.045  0.3833  0.4087 -0.1237
  389MOL0     C51241   3.685   5.844   5.123 -0.3128 -0.0625  0.3577
  389MOL0     C51242   3.746   5.920   5.230 -0.7315 -0.2848 -0.1519
  389MOL0     C51243   3.687   6.018   5.294  0.3811  0.1986  0.0115
  389MOL0     C51244   3.558   6.055   5.257  0.4211 -0.3653  0.3289
  389MOL0     C51245   3.486   6.149   5.338 -0.2232 -0.1174  0.2983
  389MOL0     O51246   3.346   6.142   5.342  0.4855  0.5445 -0.2146
  389MOL0     C51247   3.273   6.205   5.443  0.5270 -1.0574  0.3425
  389MOL0     C51248   3.310   6.226   5.574 -0.0131  0.2299  0.5027
  389MOL0     C51249   3.220   6.273   5.667  0.5218 -0.3213 -0.2395
  389MOL0     C51250   3.089   6.310   5.638  0.1933  0.7877  0.3409
  389MOL0     O51251   3.010   6.364   5.735  0.3426  0.0662  0.8939
  389MOL0     C51252   2.967   6.496   5.697  0.0221  1.0254  0.0204
  389MOL0     C51253   2.872   6.538   5.812 -0.8366  0.5184  0.2766
  389MOL0     C51254   2.763   6.428   5.829  0.0140 -0.0609 -0.2129
  389MOL0     C51255   2.647   6.478   5.926  0.5516  0.9502 -0.9880
  389MOL0     C51256   2.566   6.363   5.982 -0.4840 -0.0270 -0.3914
  389MOL0     C51257   2.465   6.409   6.089  0.9290 -0.2116 -0.2906
  389MOL0     C51258   2.418   6.297   6.164 -0.8778 -0.7982 -0.5040
  389MOL0     C51259   2.304   6.328   6.253  0.2326 -1.1134 -0.2013
  389MOL0    Cl51260   2.152   6.370   6.154 -0.4732  0.1586  0.0239
  389MOL0     C51261   3.053   6.285   5.503 -0.4666 -1.0910  0.7842
  389MOL0     C51262   3.140   6.235   5.405  0.4497 -0.7516  0.0871
  389MOL0     O51263   3.551   6.228   5.413  0.3900  0.1119  0.3785
  389MOL0     C51264   3.490   5.992   5.146 -0.2292  0.8909 -0.5002
  389MOL0     C51265   3.563   5.892   5.084  0.0241  0.4357  0.1392
  389MOL0     N51266   4.073   5.611   4.616  0.1676  0.0983  0.0599
  389MOL0     N51267   4.150   5.536   4.544 -0.1715  0.0367  0.0703
  389MOL0     C51268   5.465   5.257   4.550 -0.3503 -1.1792 -0.0844
  389MOL0     C51269   5.588   5.301   4.499 -0.6653 -0.2914 -0.3656
  389MOL0     C51270   5.941   5.477   4.405 -0.2526 -0.4722  0.2197
  389MOL0     C51271   5.981   5.407   4.288  0.2919 -0.8058 -0.1253
  389MOL0     C51272   6.118   5.370   4.280  0.5715 -0.2402  0.0127
  389MOL0     C51273   6.220   5.412   4.364  0.9063  0.5389 -0.7633
  389MOL0     O51274   6.348   5.369   4.329  0.4454  0.1394 -0.9546
  389MOL0     C51275   6.460   5.420   4.397 -0.2720  0.9273  0.5932
  389MOL0     C51276   6.491   5.557   4.331  0.2660 -0.1372 -0.4256
  389MOL0     C51277   6.601   5.618   4.416  0.2886  0.1620  0.2064
  389MOL0     C51278   6.619   5.767   4.390  0.4525  0.7003  0.4851
  389MOL0     C51279   6.735   5.836   4.442 -0.5405  0.3232 -0.5862
  389MOL0     C51280   6.830   5.894   4.499  0.8781  0.2867 -0.3703
  389MOL0     C51281   6.179   5.497   4.472 -1.0821  1.3166  0.0083
  389MOL0     C51282   6.049   5.522   4.495  0.2800 -0.3388  0.6264
  389MOL0     H51283   5.481   5.482   4.233  2.0467  1.1281  0.8263
  389MOL0     H51284   5.247   5.398   4.335 -1.1516 -2.1710  0.3434
  389MOL0     H51285   5.181   5.105   4.376  1.0592  1.8381 -2.5744
  389MOL0     H51286   5.089   5.257   4.382  1.2249 -0.8531 -0.6681
  389MOL0     H51287   5.068   5.094   4.622  2.4533  0.3452 -0.6108
  389MOL0     H51288   4.964   5.066   4.487  0.3454 -0.2641  0.5738
  389MOL0     H51289   5.005   5.337   4.612  0.0136 -0.4802  1.1412
  389MOL0     H51290   4.871   5.224   4.663 -1.3795  2.4072 -0.8179
  389MOL0     H51291   4.902   5.357   4.398 -0.4206 -1.3367 -0.4698
  389MOL0     H51292   4.793   5.231   4.416 -1.3410  1.2272 -1.1627
  389MOL0     H51293   4.737   5.510   4.479  1.5075  1.1843  2.9685
  389MOL0     H51294   4.742   5.448   4.634  0.9238  0.0865 -0.6275
  389MOL0     H51295   4.590   5.252   4.573  2.3912 -0.6975 -0.3242
  389MOL0     H51296   4.565   5.318   4.416 -0.5190 -2.5630  0.5403
  389MOL0     H51297   4.518   5.468   4.694 -0.7375 -1.6517  0.6156
  389MOL0     H51298   4.482   5.529   4.537 -2.0780  0.5211  0.3547
  389MOL0     H51299   4.319   5.284   4.640  1.4425 -0.6231 -0.0076
  389MOL0     H51300   4.326   5.350   4.478  0.2558 -1.9349  0.2347
  389MOL0     H51301   4.272   5.468   4.837 -0.1300 -0.8277 -0.2623
  389MOL0     H51302   4.037   5.754   4.871 -0.9347  0.6517  1.5964
  389MOL0     H51303   4.122   5.626   4.953  3.2032  1.4528 -1.4681
  389MOL0     H51304   3.936   5.469   4.851  1.3009 -0.5274 -0.6930
  389MOL0     H51305   3.854   5.633   4.833  0.4633 -0.7104 -1.4224
  389MOL0     H51306   3.773   5.505   5.036  1.2818 -1.0885  0.2112
  389MOL0     H51307   3.937   5.486   5.091 -0.4281 -0.5506 -0.0152
  389MOL0     H51308   3.956   5.742   5.102  1.5048 -1.4690  2.2475
  389MOL0     H51309   3.854   5.659   5.214  2.1743 -3.3022 -0.1913
  389MOL0     H51310   3.844   5.892   5.269 -0.0446  1.9614 -0.1663
  389MOL0     H51311   3.722   6.070   5.382 -1.4007  1.6107 -0.0633
  389MOL0     H51312   3.402   6.184   5.612 -0.7455 -0.9640  1.0312
  389MOL0     H51313   3.261   6.264   5.767  1.3059  0.7628 -0.4458
  389MOL0     H51314   2.916   6.492   5.600 -1.3212 -0.0750  0.7272
  389MOL0     H51315   3.044   6.573   5.687 -0.5280  1.5229 -0.4909
  389MOL0     H51316   2.824   6.636   5.800 -1.3417  0.2412  0.0024
  389MOL0     H51317   2.934   6.549   5.902 -1.0629  1.4443  0.3373
  389MOL0     H51318   2.818   6.343   5.870  0.7879  1.4024  1.9524
  389MOL0     H51319   2.724   6.400   5.731  0.1203  0.6229 -0.4493
  389MOL0     H51320   2.695   6.519   6.015  0.1559 -2.7555  1.1308
  389MOL0     H51321   2.580   6.548   5.874 -2.1548 -1.0654 -0.4659
  389MOL0     H51322   2.640   6.304   6.037 -1.6196 -1.2971 -0.1510
  389MOL0     H51323   2.528   6.303   5.898  0.2595  2.0886 -2.3336
  389MOL0     H51324   2.379   6.447   6.033 -2.8218 -2.7288  3.2506
  389MOL0     H51325   2.516   6.472   6.162  2.0593  0.1331 -1.3381
  389MOL0     H51326   2.387   6.216   6.098  1.2354 -0.5830 -1.8619
  389MOL0     H51327   2.508   6.261   6.216 -1.1683  2.6531  2.8419
  389MOL0     H51328   2.332   6.418   6.308 -1.9581  0.8031 -1.9953
  389MOL0     H51329   2.288   6.244   6.322 -0.3544  0.2273  1.3903
  389MOL0     H51330   2.952   6.307   5.470  0.4256  1.0782 -0.7029
  389MOL0     H51331   3.096   6.203   5.311 -2.4978 -0.4218  1.2384
  389MOL0     H51332   3.392   6.021   5.108  0.1091 -1.1469 -3.1859
  389MOL0     H51333   3.520   5.836   5.002 -0.0790  2.1891 -1.0296
  389MOL0     H51334   5.471   5.198   4.641 -2.1544 -2.1966 -0.5774
  389MOL0     H51335   5.683   5.275   4.544  0.1855  1.9939 -0.6843
  389MOL0     H51336   5.902   5.377   4.219  0.3829  1.8977 -1.5851
  389MOL0     H51337   6.131   5.294   4.204 -0.8977 -0.3643 -0.1477
  389MOL0     H51338   6.549   5.361   4.378 -1.8360 -1.1861 -0.6017
  389MOL0     H51339   6.438   5.442   4.502  0.7706  0.8524  0.8299
  389MOL0     H51340   6.533   5.536   4.232  0.3447 -2.1855 -0.0077
  389MOL0     H51341   6.412   5.632   4.326  1.9877  1.8245  0.1437
  389MOL0     H51342   6.695   5.562   4.421 -0.4332 -0.9679  2.1036
  389MOL0     H51343   6.563   5.602   4.518  2.8853 -3.3830  0.7898
  389MOL0     H51344   6.609   5.799   4.286 -0.0877  0.3128  0.4120
  389MOL0     H51345   6.538   5.830   4.429  0.9323  2.8036 -1.6579
  389MOL0     H51346   6.899   5.958   4.550  0.0851  0.9433 -0.1026
  389MOL0     H51347   6.253   5.540   4.539 -1.5450  2.3232 -0.1188
  389MOL0     H51348   6.019   5.580   4.582  0.5262  1.0049 -0.1688
  390MOL0     O51349   9.642  10.082   6.014 -0.1067  0.5101  0.3181
  390MOL0     C51350   9.655  10.050   6.141 -0.4728 -0.8866  0.9841
  390MOL0     O51351   9.577   9.966   6.208  0.0294 -0.0403  0.6860
  390MOL0     C51352   9.489   9.893   6.135  0.2078 -0.9127  0.2539
  390MOL0     C51353   9.360   9.905   6.177  0.3108  0.1674  0.9145
  390MOL0     C51354   9.259   9.844   6.103 -0.1585 -0.3382 -0.4521
  390MOL0     C51355   9.279   9.762   5.989 -0.4946 -0.8114  0.1394
  390MOL0     O51356   9.176   9.696   5.936 -0.3315 -0.4516 -0.6296
  390MOL0     C51357   9.202   9.613   5.820 -0.1543 -0.4461 -0.1197
  390MOL0     C51358   9.080   9.565   5.745 -0.2505  0.0057 -0.2129
  390MOL0     C51359   9.123   9.449   5.650 -0.6948 -0.1477 -0.3598
  390MOL0     C51360   9.007   9.412   5.551 -0.4153  0.2070  0.6563
  390MOL0     C51361   9.035   9.269   5.494  0.1823  0.2066  0.7665
  390MOL0     C51362   8.928   9.231   5.405  0.0563  0.9203 -0.1137
  390MOL0     C51363   8.919   9.081   5.371 -0.6798 -0.2599  0.4173
  390MOL0     C51364   8.827   9.066   5.245 -0.2780  0.6425  0.2608
  390MOL0     N51365   8.690   9.027   5.280 -1.1142 -0.2878  0.7655
  390MOL0     C51366   8.654   8.911   5.341 -0.1113 -0.0707 -1.2779
  390MOL0     C51367   8.523   8.931   5.365 -0.2395 -0.0971  0.8551
  390MOL0     C51368   8.444   8.829   5.429  0.1784 -0.1570  0.1822
  390MOL0     C51369   8.448   8.689   5.359  0.2926 -0.1288  0.3963
  390MOL0     C51370   8.404   8.683   5.212  1.0037 -0.1264  0.7132
  390MOL0     C51371   8.258   8.735   5.198 -0.7351 -0.0425 -0.4198
  390MOL0     O51372   8.218   8.691   5.070 -0.3288  0.4583  0.3128
  390MOL0     C51373   8.107   8.627   5.044  0.5826 -1.2053  0.4597
  390MOL0     C51374   8.108   8.535   4.931 -0.3931 -0.6022 -0.8732
  390MOL0     C51375   7.987   8.472   4.897 -0.1246 -0.0210 -0.3988
  390MOL0     C51376   7.875   8.478   4.981  0.3816 -0.1178  0.8096
  390MOL0     C51377   7.754   8.401   4.957  0.3790  0.0653 -0.7193
  390MOL0     O51378   7.666   8.381   5.061 -0.5037 -0.0798 -0.1098
  390MOL0     C51379   7.552   8.300   5.030  0.2662 -0.8534  0.4093
  390MOL0     C51380   7.437   8.364   4.985  0.1745 -0.0810 -0.0508
  390MOL0     C51381   7.327   8.287   4.936 -0.9662 -0.7907  0.6442
  390MOL0     C51382   7.335   8.146   4.929 -0.0639 -0.3254  0.4054
  390MOL0     O51383   7.233   8.066   4.885  0.0807 -0.3963 -0.4110
  390MOL0     C51384   7.134   8.106   4.793 -0.6528 -0.7107  0.1321
  390MOL0     C51385   7.051   7.987   4.739  0.1904 -0.5672  0.6389
  390MOL0     C51386   7.141   7.880   4.671  0.0630  0.1443  0.0786
  390MOL0     C51387   7.046   7.776   4.603 -0.6699 -0.1630  0.1426
  390MOL0     C51388   7.124   7.664   4.526 -0.2638  0.5164 -0.1157
  390MOL0     C51389   7.032   7.558   4.471 -0.2787  0.0363  0.5583
  390MOL0     C51390   7.124   7.467   4.382  0.2513  0.8940 -0.0922
  390MOL0     C51391   7.042   7.346   4.325 -0.4417  0.1098 -0.2851
  390MOL0    Cl51392   6.992   7.240   4.462 -0.0400  0.1415  0.4335
  390MOL0     C51393   7.456   8.086   4.967  0.2843 -0.1661  0.9835
  390MOL0     C51394   7.561   8.161   5.037  0.2016 -0.3376 -0.3170
  390MOL0     O51395   7.741   8.355   4.845 -0.2283  0.0872  0.4286
  390MOL0     C51396   7.882   8.552   5.091  0.6293 -0.5286  0.5420
  390MOL0     C51397   7.993   8.627   5.126 -0.3097  0.2684  0.1660
  390MOL0     N51398   8.484   9.061   5.333  1.2441  0.3990 -0.7672
  390MOL0     N51399   8.589   9.111   5.284  0.3221  0.1074  0.5989
  390MOL0     C51400   9.416   9.756   5.946  0.4543 -0.1590 -0.2991
  390MOL0     C51401   9.517   9.816   6.028 -0.0723 -0.6480  0.3171
  390MOL0     C51402   9.752  10.124   6.226 -0.2685  0.8956 -0.6597
  390MOL0     C51403   9.825  10.234   6.190  0.1112  0.0192 -0.3098
  390MOL0     C51404   9.916  10.305   6.275 -0.7375  0.5758 -0.3562
  390MOL0     C51405   9.958  10.249   6.399 -0.7157 -0.4442  0.9686
  390MOL0     O51406  10.045  10.314   6.483 -0.4210 -0.1634  0.5260
  390MOL0     C51407  10.163  10.367   6.427  0.0583 -0.2416 -0.4356
  390MOL0     C51408  10.273  10.269   6.412  0.1557  0.6693 -0.2560
  390MOL0     C51409  10.339  10.203   6.532  0.6270  0.0609  0.5969
  390MOL0     C51410  10.364  10.295   6.647 -0.2272 -0.3760 -0.9819
  390MOL0     C51411  10.464  10.228   6.729 -0.6975 -0.1556  0.4243
  390MOL0     C51412  10.543  10.174   6.800 -0.7482 -0.0325  0.1172
  390MOL0     C51413   9.877  10.152   6.445 -0.0733 -0.0506  0.7088
  390MOL0     C51414   9.766  10.091   6.368 -0.4545 -0.4501  0.4335
  390MOL0     H51415   9.329   9.967   6.260  0.5526 -0.7674  1.7248
  390MOL0     H51416   9.159   9.854   6.144  0.0643 -1.9501  0.5400
  390MOL0     H51417   9.263   9.526   5.845 -0.7647 -1.1377 -0.9856
  390MOL0     H51418   9.263   9.664   5.745 -0.0384 -1.7904 -0.9706
  390MOL0     H51419   9.050   9.654   5.689 -1.6481  1.4168  2.5952
  390MOL0     H51420   8.994   9.527   5.800 -0.9604 -0.4020 -1.5520
  390MOL0     H51421   9.140   9.359   5.710 -2.8096 -0.5688 -0.3009
  390MOL0     H51422   9.216   9.481   5.602  0.5784 -1.0384  1.3864
  390MOL0     H51423   8.912   9.423   5.604 -0.1201 -2.2887  1.8465
  390MOL0     H51424   9.013   9.482   5.466  2.8013 -1.0039 -0.2751
  390MOL0     H51425   9.050   9.198   5.575  0.0348 -0.7443 -0.0205
  390MOL0     H51426   9.132   9.274   5.443  0.7672 -0.4618  1.7899
  390MOL0     H51427   8.958   9.280   5.312  0.9042  0.4404 -0.1019
  390MOL0     H51428   8.837   9.280   5.439 -1.0680 -0.7367 -0.5817
  390MOL0     H51429   9.016   9.036   5.351  0.4358  1.2127  2.1191
  390MOL0     H51430   8.883   9.017   5.452  2.5167 -3.5722 -0.5534
  390MOL0     H51431   8.868   8.974   5.202 -0.6716  0.4979  0.1933
  390MOL0     H51432   8.837   9.147   5.172  1.5128 -1.1372 -1.5982
  390MOL0     H51433   8.713   8.823   5.366 -1.4593 -0.3258  1.3746
  390MOL0     H51434   8.340   8.861   5.443  0.0494 -0.8108  0.8178
  390MOL0     H51435   8.470   8.807   5.534 -1.7042  3.7278  1.6489
  390MOL0     H51436   8.386   8.624   5.421  0.7805  1.0493  2.2168
  390MOL0     H51437   8.552   8.654   5.363  0.7828  1.1045 -0.8690
  390MOL0     H51438   8.459   8.742   5.138  1.5425  0.5406  1.6139
  390MOL0     H51439   8.413   8.580   5.179 -0.5088  0.2787 -1.1225
  390MOL0     H51440   8.251   8.844   5.196  0.3928  0.0733  0.6495
  390MOL0     H51441   8.193   8.697   5.277 -0.5946 -1.2299 -0.8626
  390MOL0     H51442   8.188   8.537   4.858 -1.7908  1.6094 -2.4644
  390MOL0     H51443   7.988   8.424   4.799 -1.4772 -0.1170 -0.3855
  390MOL0     H51444   7.430   8.472   4.983  0.1050 -0.0952 -0.5683
  390MOL0     H51445   7.233   8.334   4.911 -1.2062 -0.5931  1.8701
  390MOL0     H51446   7.174   8.157   4.705 -1.0161 -0.8452 -0.1131
  390MOL0     H51447   7.080   8.184   4.848  3.1659  1.2235  1.5276
  390MOL0     H51448   6.988   8.021   4.656  0.6326 -0.3640  0.3863
  390MOL0     H51449   6.984   7.955   4.819 -2.2752  1.7155 -0.3249
  390MOL0     H51450   7.202   7.834   4.748  1.5389  0.2254 -1.0019
  390MOL0     H51451   7.205   7.926   4.595  0.4365  0.3402  0.5050
  390MOL0     H51452   6.970   7.740   4.673  0.3311 -0.0679  1.3137
  390MOL0     H51453   6.980   7.828   4.533 -0.8287 -0.5691 -0.0149
  390MOL0     H51454   7.192   7.612   4.594 -1.6201  1.7108  2.3098
  390MOL0     H51455   7.179   7.715   4.446 -0.2690  0.2365 -0.2992
  390MOL0     H51456   6.944   7.592   4.415  0.0277 -3.4467 -2.3721
  390MOL0     H51457   7.003   7.498   4.558  0.3320  0.1955  0.8752
  390MOL0     H51458   7.183   7.515   4.304  1.3900 -0.1259  0.1143
  390MOL0     H51459   7.201   7.419   4.443 -0.3960  1.5871  1.3030
  390MOL0     H51460   7.100   7.292   4.250 -0.3663  0.4374 -0.4678
  390MOL0     H51461   6.955   7.394   4.278 -0.1942  1.5090  0.6453
  390MOL0     H51462   7.449   7.979   4.978  0.5879  0.0187  3.3131
  390MOL0     H51463   7.639   8.101   5.084 -0.9970 -2.1631 -0.5677
  390MOL0     H51464   7.797   8.562   5.157 -1.6647 -1.5347 -2.0855
  390MOL0     H51465   7.983   8.688   5.215 -1.2104  0.0917  0.1897
  390MOL0     H51466   9.462   9.699   5.866  1.2730  1.9839 -1.4281
  390MOL0     H51467   9.620   9.805   5.997 -0.3063  1.9788 -1.7510
  390MOL0     H51468   9.794  10.277   6.095 -0.5311 -0.4941 -0.3331
  390MOL0     H51469   9.948  10.405   6.246 -2.1130  0.9639 -0.6190
  390MOL0     H51470  10.193  10.453   6.488 -3.7826  0.7518  0.2868
  390MOL0     H51471  10.158  10.402   6.324  3.4556  0.0618 -0.6156
  390MOL0     H51472  10.234  10.197   6.339 -1.7979  1.4194 -0.0115
  390MOL0     H51473  10.358  10.324   6.372  1.1288 -0.2204  0.5012
  390MOL0     H51474  10.432  10.155   6.500  1.0272  1.7022 -0.8479
  390MOL0     H51475  10.267  10.126   6.561  0.2964  0.5313  1.0400
  390MOL0     H51476  10.392  10.390   6.601 -0.7003  0.1377 -0.2123
  390MOL0     H51477  10.273  10.314   6.703  0.7749  1.5063  0.0983
  390MOL0     H51478  10.610  10.125   6.867 -0.2609  1.7629  1.0048
  390MOL0     H51479   9.908  10.107   6.540  1.5104 -2.4883 -0.8329
  390MOL0     H51480   9.696  10.017   6.406 -3.6682  1.5166 -1.2165
  391MOL0     O51481   1.548   3.925  11.218 -0.2771 -0.1183  0.1852
  391MOL0     C51482   1.567   3.942  11.097  0.1109 -0.1705 -0.0642
  391MOL0     O51483   1.471   3.938  11.002  0.0709 -0.1334 -0.1591
  391MOL0     C51484   1.348   3.888  11.042 -0.6976  0.0320 -0.1969
  391MOL0     C51485   1.243   3.983  11.054 -0.1848 -0.2209  0.4133
  391MOL0     C51486   1.117   3.941  11.090 -0.2257  0.1971  0.1711
  391MOL0     C51487   1.091   3.804  11.085 -0.5381 -0.5648 -0.4422
  391MOL0     O51488   0.973   3.748  11.100  0.1056 -0.7589  0.0774
  391MOL0     C51489   0.859   3.825  11.142 -0.7883 -0.5346 -0.1948
  391MOL0     C51490   0.726   3.739  11.140 -0.6776  1.0353 -0.4480
  391MOL0     C51491   0.740   3.628  11.249 -0.7739 -0.0314 -0.4174
  391MOL0     C51492   0.603   3.564  11.283  0.2247 -0.4296  0.0578
  391MOL0     C51493   0.551   3.466  11.171 -0.8700 -0.8773 -0.2597
  391MOL0     C51494   0.405   3.423  11.209 -0.0237 -0.5771  0.3593
  391MOL0     C51495   0.309   3.532  11.153  0.7163  0.2561  0.0587
  391MOL0     C51496   0.162   3.531  11.182  0.0598  0.2468 -0.3189
  391MOL0     N51497   0.104   3.399  11.166  0.0487  0.2168  0.1643
  391MOL0     C51498   0.099   3.322  11.049 -0.2623  0.8923  0.1134
  391MOL0     C51499   0.054   3.195  11.094  0.0349  0.4366  0.9614
  391MOL0     C51500   0.046   3.065  11.019  0.1477  0.5579  0.4623
  391MOL0     C51501  -0.107   3.050  10.968 -0.9716  0.7263  0.3954
  391MOL0     C51502  -0.219   3.050  11.068 -1.5266 -0.1265 -0.3008
  391MOL0     C51503  -0.355   3.028  11.015  0.2948  0.6595 -0.3074
  391MOL0     O51504  -0.441   2.999  11.124  1.1524  0.4054  1.0343
  391MOL0     C51505  -0.575   2.969  11.084 -0.2248  0.0021 -0.2258
  391MOL0     C51506  -0.632   2.975  10.959  0.1587  0.4436 -0.4478
  391MOL0     C51507  -0.771   2.957  10.961 -0.5512 -0.3850 -0.5558
  391MOL0     C51508  -0.845   2.922  11.078  0.5867  0.9200  0.7649
  391MOL0     C51509  -0.995   2.890  11.063  0.2995  0.1426 -0.4626
  391MOL0     O51510  -1.059   2.891  10.946 -0.6097 -0.0398 -0.0656
  391MOL0     C51511  -1.195   2.877  10.919  0.1313 -0.9709  0.2405
  391MOL0     C51512  -1.272   2.795  11.004 -0.2186  0.1649 -0.1941
  391MOL0     C51513  -1.407   2.772  10.976  0.0608 -0.2349 -0.4388
  391MOL0     C51514  -1.471   2.827  10.867 -0.1008  0.0816  0.0572
  391MOL0     O51515  -1.607   2.807  10.853  0.8894 -0.0429  0.9803
  391MOL0     C51516  -1.679   2.905  10.780 -0.1251  0.8171  0.6862
  391MOL0     C51517  -1.821   2.851  10.765  0.7665 -0.1817 -0.3854
  391MOL0     C51518  -1.913   2.951  10.700  0.3233 -0.2346 -0.0071
  391MOL0     C51519  -2.047   2.907  10.646 -1.0091  0.0483 -0.3628
  391MOL0     C51520  -2.116   3.012  10.561 -0.0945  0.3678 -1.1646
  391MOL0     C51521  -2.253   2.975  10.518 -0.3853  0.4533  0.3728
  391MOL0     C51522  -2.357   2.944  10.630  0.1046 -0.2862  0.0006
  391MOL0     C51523  -2.488   2.908  10.569 -0.2283  0.1753  0.4915
  391MOL0    Cl51524  -2.566   3.052  10.501  0.0387 -0.1475  0.0943
  391MOL0     C51525  -1.399   2.920  10.783 -0.5271 -0.3294 -0.4097
  391MOL0     C51526  -1.256   2.935  10.805  0.0169  0.0909  0.6207
  391MOL0     O51527  -1.052   2.865  11.172  0.2882 -0.2451 -0.2459
  391MOL0     C51528  -0.786   2.915  11.199  0.3825  0.1477 -0.9800
  391MOL0     C51529  -0.651   2.937  11.205 -0.5305 -0.8096 -0.0624
  391MOL0     N51530   0.033   3.210  11.228  0.1791  0.7489  0.1645
  391MOL0     N51531   0.050   3.324  11.262 -0.4636 -0.2956  0.3412
  391MOL0     C51532   1.194   3.714  11.067 -0.4018 -0.2825 -0.0172
  391MOL0     C51533   1.326   3.750  11.035  0.3365 -1.0842 -0.5091
  391MOL0     C51534   1.703   3.996  11.054 -0.0981  0.5394  0.3780
  391MOL0     C51535   1.717   4.063  10.929  0.2884  0.5277 -0.3799
  391MOL0     C51536   1.841   4.111  10.891  0.4326 -0.0933 -0.6528
  391MOL0     C51537   1.957   4.100  10.983 -0.0193 -0.6921  0.7516
  391MOL0     O51538   2.087   4.146  10.957  0.4286  0.0743  0.1967
  391MOL0     C51539   2.105   4.269  10.884 -0.2848 -0.5659  0.0028
  391MOL0     C51540   2.148   4.386  10.965 -0.1582  0.2852 -0.3297
  391MOL0     C51541   2.192   4.515  10.883  0.5371 -0.3824 -0.1721
  391MOL0     C51542   2.194   4.625  10.995  0.7555  0.5706 -0.3411
  391MOL0     C51543   2.252   4.750  10.936  0.1149 -0.2302  0.6032
  391MOL0     C51544   2.318   4.842  10.886 -0.0519  0.5655 -0.3746
  391MOL0     C51545   1.950   4.022  11.102 -0.0875 -0.3456 -0.1527
  391MOL0     C51546   1.821   3.971  11.128  0.4069 -0.4380 -0.4581
  391MOL0     H51547   1.269   4.088  11.051 -1.6989  0.1776  0.1650
  391MOL0     H51548   1.041   4.016  11.113 -0.7235 -0.7328  1.7484
  391MOL0     H51549   0.851   3.916  11.081  2.5624  0.6368  0.9115
  391MOL0     H51550   0.881   3.873  11.237  0.7802  3.0811 -2.1789
  391MOL0     H51551   0.696   3.698  11.043 -0.4188  1.3310 -0.6567
  391MOL0     H51552   0.638   3.792  11.176 -0.6756 -0.6791  2.3137
  391MOL0     H51553   0.778   3.678  11.339  2.4214 -4.3000  0.8817
  391MOL0     H51554   0.815   3.551  11.228  0.0495 -0.0806  2.3549
  391MOL0     H51555   0.611   3.506  11.375 -0.2281  0.3510  0.6032
  391MOL0     H51556   0.534   3.644  11.311  0.3433 -0.3062 -0.0024
  391MOL0     H51557   0.609   3.378  11.144 -0.0879 -0.1966 -0.8295
  391MOL0     H51558   0.551   3.522  11.077  0.1212 -0.4852 -0.0425
  391MOL0     H51559   0.394   3.422  11.318 -1.6799 -0.2352  0.2278
  391MOL0     H51560   0.372   3.329  11.163 -0.9884 -0.4652  0.7822
  391MOL0     H51561   0.351   3.632  11.168 -0.7593  0.6221  2.1879
  391MOL0     H51562   0.311   3.518  11.045  3.2951 -0.2826  0.1024
  391MOL0     H51563   0.110   3.605  11.119  3.6992  2.2563 -1.2810
  391MOL0     H51564   0.151   3.567  11.284 -0.5453 -2.2881  0.5814
  391MOL0     H51565   0.134   3.333  10.947  0.7312 -1.7028  0.0824
  391MOL0     H51566   0.065   2.982  11.087 -0.2289  0.2608  0.2136
  391MOL0     H51567   0.113   3.054  10.933  1.7136  0.4813  1.6555
  391MOL0     H51568  -0.116   2.960  10.907 -1.2957 -0.4077  2.0413
  391MOL0     H51569  -0.121   3.127  10.892  0.9378  0.9474  0.2043
  391MOL0     H51570  -0.198   2.972  11.143  4.0143  1.7520  0.5674
  391MOL0     H51571  -0.221   3.141  11.128  0.5519 -0.3504  0.2129
  391MOL0     H51572  -0.358   2.951  10.937 -2.5240 -0.5064  0.8368
  391MOL0     H51573  -0.380   3.122  10.966  0.5766  0.8616 -0.0658
  391MOL0     H51574  -0.579   3.010  10.871  2.1237 -2.7636 -0.7092
  391MOL0     H51575  -0.815   2.951  10.862  1.2988  0.9568 -1.5234
  391MOL0     H51576  -1.231   2.733  11.083  1.6883  2.3568  0.6796
  391MOL0     H51577  -1.474   2.701  11.024 -0.3351 -0.4509 -1.2747
  391MOL0     H51578  -1.627   2.912  10.684  1.6529 -0.1172  1.5346
  391MOL0     H51579  -1.684   2.998  10.836  1.0863  0.3845  1.5604
  391MOL0     H51580  -1.870   2.804  10.851 -1.3740 -2.9730 -2.9212
  391MOL0     H51581  -1.823   2.769  10.693 -3.5940 -2.1541  1.6153
  391MOL0     H51582  -1.864   2.987  10.609  0.0092 -2.0034 -0.9140
  391MOL0     H51583  -1.924   3.034  10.771 -2.7289 -0.0034 -0.6175
  391MOL0     H51584  -2.018   2.824  10.581 -3.8743 -2.7127  1.6025
  391MOL0     H51585  -2.118   2.862  10.716  0.2652  0.8318  1.5111
  391MOL0     H51586  -2.054   3.028  10.472 -0.2196  0.3992 -1.2458
  391MOL0     H51587  -2.120   3.107  10.616  0.2741 -0.4919  0.4074
  391MOL0     H51588  -2.244   2.876  10.472 -0.8009 -0.6910  2.6068
  391MOL0     H51589  -2.297   3.055  10.457  0.1437  1.6401  1.4981
  391MOL0     H51590  -2.328   2.863  10.696  3.1659  0.5559 -0.1768
  391MOL0     H51591  -2.373   3.033  10.692  1.4094  2.1651 -2.9417
  391MOL0     H51592  -2.561   2.872  10.642  1.3502 -1.3139  1.3992
  391MOL0     H51593  -2.482   2.835  10.488 -1.6090  0.9800 -0.3691
  391MOL0     H51594  -1.445   2.951  10.689 -4.6654 -1.1707  1.1029
  391MOL0     H51595  -1.206   2.985  10.724  1.8459 -3.0780 -0.3879
  391MOL0     H51596  -0.837   2.898  11.294 -0.7520  0.0222 -1.6021
  391MOL0     H51597  -0.590   2.929  11.294 -2.8035 -1.0848  1.5527
  391MOL0     H51598   1.181   3.607  11.069  0.1860 -0.3510  0.6348
  391MOL0     H51599   1.412   3.686  11.019  1.0922 -0.1899 -0.0857
  391MOL0     H51600   1.626   4.063  10.869  1.1528 -4.2252 -2.1276
  391MOL0     H51601   1.855   4.164  10.797  1.4103 -2.2178 -1.7704
  391MOL0     H51602   2.007   4.297  10.842  0.0814 -0.8052 -1.0466
  391MOL0     H51603   2.179   4.258  10.805  1.9645 -0.0879  1.9483
  391MOL0     H51604   2.072   4.404  11.041 -1.3556  1.2798 -1.7134
  391MOL0     H51605   2.235   4.349  11.021 -0.4883 -0.9080 -0.5890
  391MOL0     H51606   2.122   4.541  10.803  0.2766 -0.7966 -0.0804
  391MOL0     H51607   2.293   4.501  10.844  1.5404  0.2215  2.0865
  391MOL0     H51608   2.092   4.639  11.032  0.7584  0.6865 -0.3771
  391MOL0     H51609   2.259   4.602  11.080 -2.3466  1.0959  2.3847
  391MOL0     H51610   2.357   4.926  10.833 -2.5486  1.4252 -0.9852
  391MOL0     H51611   2.023   3.987  11.175 -1.4822  0.4312  1.6874
  391MOL0     H51612   1.809   3.906  11.214  2.7326 -1.0564 -0.5406
  392MOL0     O51613  10.255   6.664   9.266  0.1566  0.5996 -0.4443
  392MOL0     C51614  10.213   6.759   9.338  0.6601 -0.6700 -0.3221
  392MOL0     O51615  10.280   6.865   9.376  0.1526 -0.2327  0.4083
  392MOL0     C51616  10.411   6.888   9.334  0.4182 -0.0593 -0.7049
  392MOL0     C51617  10.495   6.931   9.438  0.4419 -0.5308 -0.8090
  392MOL0     C51618  10.624   6.950   9.409 -0.9001 -0.2220 -0.1061
  392MOL0     C51619  10.683   6.921   9.286  0.6451  0.7323 -0.4535
  392MOL0     O51620  10.813   6.934   9.283 -0.0342 -0.4100 -0.1575
  392MOL0     C51621  10.881   6.816   9.233 -0.1683  0.2159  0.1460
  392MOL0     C51622  11.024   6.866   9.214 -0.1779  0.0262 -0.2831
  392MOL0     C51623  11.122   6.745   9.189  0.0422  0.1608  0.1776
  392MOL0     C51624  11.157   6.675   9.323 -0.7793  0.0677 -0.0889
  392MOL0     C51625  11.254   6.550   9.311  0.2652  0.5111 -0.1393
  392MOL0     C51626  11.308   6.514   9.448 -0.0583  0.3103 -0.6853
  392MOL0     C51627  11.193   6.450   9.537 -0.5037 -0.0649 -0.3993
  392MOL0     C51628  11.246   6.391   9.667  0.4944  0.5690 -0.2926
  392MOL0     N51629  11.141   6.359   9.765  0.1359 -0.7667 -0.4063
  392MOL0     C51630  11.045   6.262   9.753  0.3362  0.6044 -0.3112
  392MOL0     C51631  10.977   6.260   9.863 -0.4255 -0.4735  0.7469
  392MOL0     C51632  10.863   6.159   9.872  0.1260  0.2055 -0.4220
  392MOL0     C51633  10.792   6.191  10.011  0.0239  0.3244 -1.2415
  392MOL0     C51634  10.676   6.100  10.048 -0.6264  0.7313 -0.2785
  392MOL0     C51635  10.599   6.139  10.179 -0.1324 -0.7462 -0.5981
  392MOL0     O51636  10.491   6.050  10.194  0.1525 -0.2979 -0.1508
  392MOL0     C51637  10.382   6.070  10.273 -0.4739 -0.1331 -0.0663
  392MOL0     C51638  10.323   6.194  10.307  0.2869 -0.2404  0.6448
  392MOL0     C51639  10.194   6.199  10.376 -0.1511 -0.1846  0.4312
  392MOL0     C51640  10.132   6.073  10.410  0.5502 -0.5453 -0.2068
  392MOL0     C51641  10.003   6.065  10.487 -0.8872 -0.2598  0.7198
  392MOL0     O51642   9.962   6.185  10.536 -1.0294  0.0229  0.1104
  392MOL0     C51643   9.840   6.191  10.591 -0.5755  0.0409 -0.8257
  392MOL0     C51644   9.836   6.206  10.732 -0.0606  1.0980  0.5660
  392MOL0     C51645   9.704   6.214  10.792  0.2077  0.4169  0.2500
  392MOL0     C51646   9.582   6.207  10.722  0.1877  0.0572  0.2177
  392MOL0     O51647   9.467   6.215  10.798  0.0464  0.3307  0.5645
  392MOL0     C51648   9.342   6.163  10.748  0.6697  0.3928  0.2329
  392MOL0     C51649   9.236   6.219  10.839  0.3193 -0.2069 -0.2819
  392MOL0     C51650   9.095   6.181  10.813  0.0825 -0.1910  0.0229
  392MOL0     C51651   9.044   6.243  10.685  0.2180  0.2493 -0.3062
  392MOL0     C51652   8.888   6.260  10.657  0.2180  0.6116  0.3684
  392MOL0     C51653   8.868   6.355  10.549  0.1841  0.1845 -1.5649
  392MOL0     C51654   8.735   6.336  10.479 -0.0318 -0.5376 -0.1309
  392MOL0     C51655   8.615   6.398  10.565  1.1690  1.0655  0.0871
  392MOL0    Cl51656   8.474   6.428  10.461  0.3040 -0.2182  0.2661
  392MOL0     C51657   9.598   6.188  10.583  0.3007 -0.2946  0.2803
  392MOL0     C51658   9.725   6.183  10.518 -0.0885 -0.4950  0.1278
  392MOL0     O51659   9.943   5.955  10.508 -0.0375 -0.0954  0.1673
  392MOL0     C51660  10.196   5.949  10.384  0.0866 -0.6131 -0.0202
  392MOL0     C51661  10.316   5.947  10.311 -0.4587 -0.0201  0.3352
  392MOL0     N51662  11.029   6.361   9.939  0.4982 -1.0276 -0.3306
  392MOL0     N51663  11.126   6.424   9.879 -0.1330 -0.3447 -0.6516
  392MOL0     C51664  10.609   6.870   9.182  1.4644 -0.4878  0.3006
  392MOL0     C51665  10.465   6.855   9.207 -0.9368  0.2036 -0.3212
  392MOL0     C51666  10.084   6.737   9.398 -0.0735  0.0732  0.2973
  392MOL0     C51667  10.032   6.609   9.416  0.8848  0.4613  0.4556
  392MOL0     C51668   9.900   6.597   9.457 -0.7510 -0.0575  1.1175
  392MOL0     C51669   9.815   6.708   9.494 -0.0188  0.2422 -0.1892
  392MOL0     O51670   9.694   6.699   9.549  0.6895 -0.6523  0.7472
  392MOL0     C51671   9.635   6.563   9.566  0.0071 -0.4467  0.7795
  392MOL0     C51672   9.688   6.488   9.684  0.0505  0.2519  0.2138
  392MOL0     C51673   9.595   6.369   9.699 -0.7040 -0.1114 -0.2405
  392MOL0     C51674   9.477   6.393   9.785 -0.4351 -0.4124 -0.6270
  392MOL0     C51675   9.410   6.264   9.810  0.5754  0.5231 -0.1954
  392MOL0     C51676   9.381   6.150   9.835  0.0863 -0.1904  0.4024
  392MOL0     C51677   9.873   6.834   9.473  1.1012  0.0294  1.1593
  392MOL0     C51678  10.001   6.848   9.427  0.0341 -0.6186  0.0069
  392MOL0     H51679  10.466   6.964   9.537  2.7701 -0.7574  0.0179
  392MOL0     H51680  10.687   6.990   9.488 -3.2472  1.0295  1.2442
  392MOL0     H51681  10.841   6.776   9.139 -1.9826  0.0490  0.9353
  392MOL0     H51682  10.879   6.744   9.315  1.5529  0.5846  0.5533
  392MOL0     H51683  11.056   6.915   9.306 -3.1289  0.8142  0.4383
  392MOL0     H51684  11.008   6.933   9.129 -0.5503  1.4631  0.8654
  392MOL0     H51685  11.211   6.772   9.131  0.4037 -1.5431 -0.1232
  392MOL0     H51686  11.069   6.665   9.137  0.1101  0.6971 -0.7324
  392MOL0     H51687  11.210   6.745   9.389 -0.0590  2.8351 -3.2822
  392MOL0     H51688  11.065   6.656   9.379  0.9388 -1.0873  2.5418
  392MOL0     H51689  11.336   6.557   9.239  0.2530 -2.0340 -0.4736
  392MOL0     H51690  11.197   6.463   9.278 -0.3249  1.3702 -1.4553
  392MOL0     H51691  11.347   6.604   9.496  2.6904 -0.7391 -0.7588
  392MOL0     H51692  11.393   6.445   9.452 -1.6121 -1.5902  1.3785
  392MOL0     H51693  11.120   6.529   9.558 -0.0751  0.9584 -2.5253
  392MOL0     H51694  11.143   6.372   9.479  3.0821 -0.5579 -3.1391
  392MOL0     H51695  11.324   6.455   9.709  0.0261  0.1138  1.3303
  392MOL0     H51696  11.294   6.298   9.636 -1.1152  0.0284 -1.2872
  392MOL0     H51697  11.044   6.190   9.672  1.3258  0.7576 -0.4766
  392MOL0     H51698  10.898   6.055   9.875  1.7361  0.7276  1.9254
  392MOL0     H51699  10.792   6.178   9.791 -0.0542  2.3968  0.1855
  392MOL0     H51700  10.756   6.294  10.014 -2.3198 -0.4580  0.1120
  392MOL0     H51701  10.856   6.176  10.098 -0.1450  0.0549 -1.1621
  392MOL0     H51702  10.613   6.095   9.959 -1.9644 -0.4031  0.6774
  392MOL0     H51703  10.704   5.996  10.068 -2.6555  0.2003  0.0462
  392MOL0     H51704  10.578   6.246  10.172  1.8071 -0.3781 -1.4302
  392MOL0     H51705  10.660   6.127  10.269 -0.4382 -1.5885 -0.4900
  392MOL0     H51706  10.372   6.289  10.290  0.3035  0.4314  3.8944
  392MOL0     H51707  10.148   6.294  10.398 -0.7097 -0.6290  1.2410
  392MOL0     H51708   9.931   6.209  10.784  1.0764  0.0094 -1.3583
  392MOL0     H51709   9.713   6.227  10.899  0.2704  1.6936  0.1151
  392MOL0     H51710   9.342   6.054  10.733 -0.3423  0.4977 -0.6483
  392MOL0     H51711   9.317   6.207  10.651 -3.1880  1.1440  1.4233
  392MOL0     H51712   9.241   6.328  10.845 -1.1968 -0.1550  0.6244
  392MOL0     H51713   9.269   6.179  10.936  1.7197  0.0988 -0.6139
  392MOL0     H51714   9.042   6.214  10.904  2.0732 -0.4708  1.3562
  392MOL0     H51715   9.075   6.074  10.816  1.5089 -0.4944 -0.4695
  392MOL0     H51716   9.093   6.341  10.693 -0.7368  0.8927 -1.9049
  392MOL0     H51717   9.089   6.194  10.598  0.4274 -0.5380  0.2374
  392MOL0     H51718   8.839   6.291  10.750  0.4615  3.2596 -0.2949
  392MOL0     H51719   8.839   6.166  10.631  0.7996  0.1599  0.8748
  392MOL0     H51720   8.949   6.334  10.478  1.7450 -2.1820  0.7550
  392MOL0     H51721   8.892   6.456  10.585  3.3718  0.3688 -3.8116
  392MOL0     H51722   8.747   6.380  10.379  0.5821 -3.1095 -1.2748
  392MOL0     H51723   8.708   6.231  10.463  1.2240 -1.2511  2.0486
  392MOL0     H51724   8.648   6.485  10.622  1.4448  1.0467 -0.0450
  392MOL0     H51725   8.582   6.317  10.631  2.3027 -0.1431 -0.7870
  392MOL0     H51726   9.517   6.170  10.513  0.3899 -2.6756  0.7033
  392MOL0     H51727   9.746   6.154  10.416  0.1888 -0.4939  0.1836
  392MOL0     H51728  10.140   5.858  10.405  0.3543 -0.5909  0.8080
  392MOL0     H51729  10.361   5.852  10.287  1.4238  1.1024 -0.8700
  392MOL0     H51730  10.661   6.852   9.088 -0.2005  2.0471 -1.2222
  392MOL0     H51731  10.393   6.833   9.130  0.5504 -0.6001 -1.5417
  392MOL0     H51732  10.084   6.515   9.404 -0.0657 -0.3514  2.2757
  392MOL0     H51733   9.862   6.497   9.475 -0.2544 -0.3101  0.7721
  392MOL0     H51734   9.643   6.512   9.470  1.7865 -2.2470  1.8106
  392MOL0     H51735   9.528   6.582   9.580 -0.0876 -0.0437 -0.4102
  392MOL0     H51736   9.791   6.456   9.671 -0.1072 -0.0597 -0.2913
  392MOL0     H51737   9.678   6.543   9.778 -1.7197 -1.6981  1.2524
  392MOL0     H51738   9.651   6.286   9.744  0.4893 -0.4616 -2.2227
  392MOL0     H51739   9.572   6.334   9.598  0.9380 -1.3482 -0.2366
  392MOL0     H51740   9.515   6.438   9.877  0.2470 -0.9554 -0.6365
  392MOL0     H51741   9.415   6.469   9.738  0.1124  0.7457  0.4683
  392MOL0     H51742   9.354   6.049   9.858 -1.3726  0.0775  0.0069
  392MOL0     H51743   9.824   6.928   9.497  0.3851 -0.0311  0.0319
  392MOL0     H51744  10.036   6.949   9.406  0.4186 -1.1897 -2.3457
  393MOL0     O51745   7.217   9.816   4.922  0.5060  0.1438  1.0645
  393MOL0     C51746   7.267   9.784   4.816 -0.2456  0.4505 -0.3182
  393MOL0     O51747   7.196   9.765   4.697  0.3866 -0.1656  0.1415
  393MOL0     C51748   7.065   9.776   4.677  0.2703  0.0721 -0.1153
  393MOL0     C51749   6.958   9.802   4.769  0.0152 -1.3557  0.4640
  393MOL0     C51750   6.825   9.798   4.730  0.3914  0.0260 -0.2781
  393MOL0     C51751   6.795   9.777   4.595 -1.5185  0.3990  0.1106
  393MOL0     O51752   6.668   9.774   4.547 -0.1253  0.0258  0.0716
  393MOL0     C51753   6.567   9.709   4.633 -0.2619  0.0032 -0.6611
  393MOL0     C51754   6.452   9.676   4.552  0.5574  0.6227 -0.1010
  393MOL0     C51755   6.325   9.632   4.632 -0.4670  0.3836 -0.4555
  393MOL0     C51756   6.198   9.626   4.546 -0.5228  0.4742 -0.9928
  393MOL0     C51757   6.074   9.603   4.643 -0.1198  0.1477  0.0123
  393MOL0     C51758   5.955   9.551   4.554 -0.9613 -0.3277 -0.8457
  393MOL0     C51759   5.820   9.573   4.620 -0.2977 -0.1408 -0.2893
  393MOL0     C51760   5.708   9.596   4.524  0.7815 -0.1219  0.0598
  393MOL0     N51761   5.581   9.624   4.588 -0.7579  0.5149  0.3899
  393MOL0     C51762   5.522   9.543   4.678  0.0278 -0.5110 -0.1287
  393MOL0     C51763   5.395   9.604   4.700 -0.2013 -0.1924 -0.2584
  393MOL0     C51764   5.286   9.577   4.796 -0.7842  0.4783  0.2045
  393MOL0     C51765   5.277   9.684   4.906 -0.3116 -0.2952 -0.1001
  393MOL0     C51766   5.163   9.778   4.869 -0.6530  0.0852 -0.4847
  393MOL0     C51767   5.166   9.902   4.957 -0.7373  0.5440 -0.5732
  393MOL0     O51768   5.192   9.865   5.102  0.5116 -0.4295  0.6246
  393MOL0     C51769   5.091   9.835   5.185 -0.1393 -0.1435  0.0093
  393MOL0     C51770   5.127   9.751   5.286 -0.3516  0.1289  0.5312
  393MOL0     C51771   5.037   9.741   5.389  0.0629  0.0951  0.2829
  393MOL0     C51772   4.905   9.794   5.389 -0.7097  0.7912 -0.5651
  393MOL0     C51773   4.819   9.779   5.511  0.5482 -0.4539  0.1379
  393MOL0     O51774   4.689   9.827   5.498  0.2010 -0.2543 -0.2987
  393MOL0     C51775   4.603   9.814   5.603  0.6420  0.0557  0.0962
  393MOL0     C51776   4.626   9.846   5.737 -0.4223 -0.1757  0.1807
  393MOL0     C51777   4.533   9.830   5.841 -0.5149 -0.0553  0.1990
  393MOL0     C51778   4.404   9.779   5.816 -0.6318  0.2572 -0.7328
  393MOL0     O51779   4.311   9.761   5.913  1.1477 -0.0687  0.2370
  393MOL0     C51780   4.339   9.754   6.052 -0.4894  0.6609 -0.3984
  393MOL0     C51781   4.224   9.822   6.123  0.3785 -0.7116  0.2691
  393MOL0     C51782   4.103   9.740   6.117 -0.2644 -0.5855  0.2915
  393MOL0     C51783   3.989   9.802   6.193 -0.3096 -0.5692 -0.0300
  393MOL0     C51784   3.858   9.726   6.198 -0.0317  0.1681  0.0556
  393MOL0     C51785   3.742   9.826   6.225  0.6931  0.4188  0.1316
  393MOL0     C51786   3.612   9.767   6.220  0.3123 -0.1494 -0.0617
  393MOL0     C51787   3.501   9.868   6.265 -0.6655  0.0689 -0.2513
  393MOL0    Cl51788   3.348   9.769   6.289  0.6079  0.8138 -0.2635
  393MOL0     C51789   4.371   9.750   5.682 -0.4826 -0.0948  0.4121
  393MOL0     C51790   4.473   9.771   5.583  0.1612 -0.3774 -0.1105
  393MOL0     O51791   4.869   9.737   5.615 -0.1773  0.0280  0.0718
  393MOL0     C51792   4.868   9.869   5.279  0.1290  0.0217  0.4825
  393MOL0     C51793   4.960   9.889   5.174 -0.5293 -0.1438 -0.1875
  393MOL0     N51794   5.386   9.713   4.611 -0.6476  0.3159 -0.5048
  393MOL0     N51795   5.501   9.719   4.536  0.5783  0.6433  0.7220
  393MOL0     C51796   6.904   9.743   4.500 -0.7989  0.4177  0.8661
  393MOL0     C51797   7.037   9.742   4.547  0.6087  0.3839 -1.2413
  393MOL0     C51798   7.417   9.781   4.817 -0.2646 -0.0189  0.4016
  393MOL0     C51799   7.487   9.699   4.717 -0.0137  0.1623  0.2578
  393MOL0     C51800   7.625   9.680   4.719 -0.1142  0.4444 -0.7984
  393MOL0     C51801   7.706   9.742   4.807 -0.9764 -0.0136  0.2245
  393MOL0     O51802   7.840   9.718   4.783 -0.4392 -0.1564  0.2505
  393MOL0     C51803   7.930   9.810   4.843  0.8709  0.2047 -0.1811
  393MOL0     C51804   8.069   9.783   4.815  0.8143  0.6381  0.4726
  393MOL0     C51805   8.167   9.882   4.869  1.2608 -0.0133  0.1242
  393MOL0     C51806   8.312   9.843   4.844  0.3766  0.1144 -0.3666
  393MOL0     C51807   8.411   9.928   4.929  0.1496  0.6494 -0.4399
  393MOL0     C51808   8.489   9.983   5.008  0.8029  0.0937  0.4355
  393MOL0     C51809   7.635   9.821   4.910  0.1053 -0.2314  0.7035
  393MOL0     C51810   7.495   9.837   4.909 -0.9515 -0.6527 -0.5442
  393MOL0     H51811   6.972   9.818   4.875 -2.7063 -2.2598  1.0433
  393MOL0     H51812   6.751   9.791   4.809 -1.0138  1.5840 -1.3814
  393MOL0     H51813   6.541   9.764   4.724 -0.6220 -0.4892 -0.4645
  393MOL0     H51814   6.606   9.611   4.662 -0.2737 -0.3896 -1.8949
  393MOL0     H51815   6.485   9.611   4.471  0.0647  2.2682 -1.6905
  393MOL0     H51816   6.410   9.762   4.499  0.5212  0.9485  0.4544
  393MOL0     H51817   6.312   9.699   4.718 -0.9589  0.1171 -0.3151
  393MOL0     H51818   6.333   9.532   4.676 -5.3198  0.0382  0.2144
  393MOL0     H51819   6.179   9.715   4.486  0.0965 -1.0508 -3.5857
  393MOL0     H51820   6.210   9.541   4.478 -0.2829 -0.3472  0.0500
  393MOL0     H51821   6.038   9.694   4.692 -2.0810 -0.2504 -0.6007
  393MOL0     H51822   6.098   9.531   4.721  1.0087 -1.3787 -1.6805
  393MOL0     H51823   5.968   9.445   4.531 -1.1931 -0.4822 -0.2869
  393MOL0     H51824   5.957   9.611   4.462 -1.2294  2.4607  0.8475
  393MOL0     H51825   5.798   9.483   4.678  0.9232  0.1444  0.6450
  393MOL0     H51826   5.822   9.656   4.691  1.3715 -1.6022  1.4997
  393MOL0     H51827   5.703   9.507   4.460  1.0533  0.5155 -0.8759
  393MOL0     H51828   5.725   9.677   4.453 -0.6605 -0.2082 -0.4169
  393MOL0     H51829   5.557   9.450   4.723  4.6502  0.9730 -0.1439
  393MOL0     H51830   5.304   9.487   4.854 -2.8705  0.3609  0.7501
  393MOL0     H51831   5.197   9.548   4.741  1.5148 -1.9644 -2.5721
  393MOL0     H51832   5.374   9.733   4.897  0.5309 -2.1655 -1.6551
  393MOL0     H51833   5.255   9.650   5.008 -0.5633 -1.5691 -0.5722
  393MOL0     H51834   5.174   9.800   4.762  0.1957 -0.9893 -0.6489
  393MOL0     H51835   5.066   9.727   4.872 -0.8254 -0.1671 -4.3414
  393MOL0     H51836   5.069   9.953   4.952 -2.6455 -2.6330  0.7286
  393MOL0     H51837   5.245   9.970   4.925 -0.9246  0.1731 -1.9002
  393MOL0     H51838   5.226   9.707   5.293  0.4501  2.0790  2.2426
  393MOL0     H51839   5.076   9.670   5.462  3.2179  0.0889 -1.2207
  393MOL0     H51840   4.725   9.885   5.759  0.2372 -1.9575  0.6111
  393MOL0     H51841   4.572   9.864   5.937 -1.8611  3.0084 -0.2145
  393MOL0     H51842   4.436   9.802   6.068  0.4623 -1.4076  0.4218
  393MOL0     H51843   4.338   9.648   6.078  1.7071  0.8254  0.5252
  393MOL0     H51844   4.207   9.918   6.074  1.0270 -1.5380 -1.6766
  393MOL0     H51845   4.256   9.842   6.226  1.9557 -0.7200 -0.1911
  393MOL0     H51846   4.114   9.640   6.162 -1.7159  0.2704  2.7410
  393MOL0     H51847   4.066   9.723   6.015  0.2106 -0.9049  0.1653
  393MOL0     H51848   4.023   9.839   6.291  0.2180  2.6857 -1.3047
  393MOL0     H51849   3.978   9.901   6.147  2.7366  1.7681  3.6286
  393MOL0     H51850   3.868   9.645   6.272 -1.4524 -0.2298 -0.1569
  393MOL0     H51851   3.852   9.685   6.097 -4.2363  2.1116 -0.7044
  393MOL0     H51852   3.741   9.912   6.158  0.5354 -0.7454 -1.4457
  393MOL0     H51853   3.759   9.863   6.326  0.7355  0.6405  0.0423
  393MOL0     H51854   3.589   9.731   6.119 -3.2957  0.7283  0.3020
  393MOL0     H51855   3.600   9.686   6.293  0.3849  0.8904  1.1325
  393MOL0     H51856   3.501   9.950   6.192 -1.7638  0.9952  0.7637
  393MOL0     H51857   3.522   9.907   6.365 -2.1123 -0.1705  0.1731
  393MOL0     H51858   4.273   9.710   5.656 -0.4723 -0.8648  1.5117
  393MOL0     H51859   4.446   9.730   5.486  2.3612 -1.0765 -0.4879
  393MOL0     H51860   4.779   9.932   5.282  0.8588  1.0471  0.9153
  393MOL0     H51861   4.933   9.955   5.092  0.8648  1.9038  0.9098
  393MOL0     H51862   6.870   9.717   4.400  1.2067 -2.2680  0.7830
  393MOL0     H51863   7.113   9.706   4.478  0.4283 -1.8792 -0.3362
  393MOL0     H51864   7.435   9.651   4.634  0.4564 -2.1502  1.2251
  393MOL0     H51865   7.672   9.624   4.638 -0.9110 -2.3286  0.5340
  393MOL0     H51866   7.909   9.807   4.950  2.5319 -1.4606  0.1443
  393MOL0     H51867   7.907   9.909   4.802  2.3754  1.7246  2.3648
  393MOL0     H51868   8.081   9.680   4.851 -2.5381  0.2968  0.8505
  393MOL0     H51869   8.077   9.763   4.707  0.0753 -0.4182  0.6032
  393MOL0     H51870   8.154   9.893   4.977  1.9664 -1.4902  0.3856
  393MOL0     H51871   8.153   9.982   4.827 -1.3235 -0.6344 -0.6433
  393MOL0     H51872   8.313   9.739   4.877 -0.0154  0.3516  0.4154
  393MOL0     H51873   8.333   9.857   4.737 -0.5304  0.7481 -0.4718
  393MOL0     H51874   8.558  10.023   5.080  0.0395  1.5818  0.3772
  393MOL0     H51875   7.688   9.863   4.996  2.3860  0.6283 -1.0265
  393MOL0     H51876   7.440   9.882   4.991 -1.0266 -2.2029  0.3025
  394MOL0     O51877   5.208   8.820   1.856  0.8048 -0.0241 -0.7905
  394MOL0     C51878   5.239   8.726   1.777  0.3055 -0.2337  0.0342
  394MOL0     O51879   5.154   8.647   1.713 -0.4006  0.5700  0.1351
  394MOL0     C51880   5.023   8.690   1.703 -0.6231  0.6574 -0.3964
  394MOL0     C51881   4.931   8.683   1.814 -0.6075 -0.0282  0.0569
  394MOL0     C51882   4.806   8.739   1.809  0.3689  1.0687  0.5623
  394MOL0     C51883   4.758   8.788   1.683 -0.8497  0.7321 -0.3443
  394MOL0     O51884   4.624   8.832   1.666  0.6835 -0.3165 -0.0999
  394MOL0     C51885   4.529   8.832   1.775 -0.1649  0.0578 -0.6709
  394MOL0     C51886   4.380   8.814   1.725  0.0596 -0.4018  0.1631
  394MOL0     C51887   4.328   8.667   1.754  0.0225  0.5358 -0.4624
  394MOL0     C51888   4.179   8.680   1.724 -0.5742  0.3461  0.0618
  394MOL0     C51889   4.088   8.559   1.738 -0.5403  0.3770 -0.4976
  394MOL0     C51890   3.951   8.578   1.678 -1.1241 -0.3995  0.3153
  394MOL0     C51891   3.870   8.446   1.668 -1.2181 -0.3560 -0.0052
  394MOL0     C51892   3.723   8.458   1.648  0.0998 -0.2081  0.4342
  394MOL0     N51893   3.644   8.519   1.759  0.1979  0.3518 -0.5555
  394MOL0     C51894   3.508   8.520   1.759 -0.0625  0.8641 -0.2528
  394MOL0     C51895   3.476   8.569   1.881 -0.1261 -0.0192 -0.6500
  394MOL0     C51896   3.336   8.593   1.924  0.0114  0.3038 -0.8579
  394MOL0     C51897   3.330   8.729   1.992  0.9958 -0.1121  0.6682
  394MOL0     C51898   3.189   8.753   2.043  0.3607 -0.0623  1.0543
  394MOL0     C51899   3.079   8.784   1.944 -0.0442  0.1274  0.2655
  394MOL0     O51900   2.959   8.822   1.992 -0.1652  0.8526 -0.1541
  394MOL0     C51901   2.859   8.722   2.018  0.3135 -0.3527  0.3783
  394MOL0     C51902   2.799   8.659   1.910  0.0550  0.3505  0.4736
  394MOL0     C51903   2.738   8.539   1.924 -0.2514 -0.9195  0.4754
  394MOL0     C51904   2.719   8.486   2.056  0.1686  0.5602  0.1425
  394MOL0     C51905   2.643   8.350   2.074 -0.7259  0.0439  0.0677
  394MOL0     O51906   2.623   8.290   2.194  0.0712  0.1023  0.1640
  394MOL0     C51907   2.550   8.169   2.204 -0.1142 -0.4316 -0.7754
  394MOL0     C51908   2.414   8.165   2.209 -0.6114  0.2451 -0.0070
  394MOL0     C51909   2.343   8.048   2.220 -0.0337  0.3663 -0.4087
  394MOL0     C51910   2.406   7.921   2.217 -0.1202  0.3285 -0.1137
  394MOL0     O51911   2.341   7.801   2.217  0.5191 -0.5938 -0.0318
  394MOL0     C51912   2.214   7.797   2.151  0.9885  0.9041  0.1009
  394MOL0     C51913   2.112   7.737   2.241 -0.0711  0.0630 -1.0978
  394MOL0     C51914   1.996   7.678   2.157 -0.2454  0.9632  0.0942
  394MOL0     C51915   1.881   7.629   2.244 -0.0645 -0.0285  0.9433
  394MOL0     C51916   1.755   7.605   2.149  0.9389  1.4841 -0.5632
  394MOL0     C51917   1.650   7.519   2.224  0.8674  0.3427 -0.5460
  394MOL0     C51918   1.531   7.518   2.131 -0.7307 -0.4772  0.6083
  394MOL0     C51919   1.423   7.421   2.177  0.1042  0.5075  0.0774
  394MOL0    Cl51920   1.451   7.252   2.124 -0.3027  0.4060  0.0597
  394MOL0     C51921   2.545   7.918   2.215 -0.1089 -0.9144  0.0737
  394MOL0     C51922   2.612   8.045   2.203 -0.3242 -0.0501  0.4652
  394MOL0     O51923   2.591   8.307   1.970 -0.0537  0.1687 -0.9892
  394MOL0     C51924   2.765   8.563   2.164 -0.2895  0.1662  0.3818
  394MOL0     C51925   2.837   8.679   2.146  0.0064  0.3708 -0.6798
  394MOL0     N51926   3.590   8.611   1.946 -0.4389  0.3779 -0.6195
  394MOL0     N51927   3.692   8.584   1.874 -0.2026  0.4783  0.1826
  394MOL0     C51928   4.843   8.781   1.568  0.0361 -0.4478  0.2847
  394MOL0     C51929   4.976   8.738   1.583  0.2795  0.5672 -0.0016
  394MOL0     C51930   5.387   8.703   1.757 -0.0836 -0.6171 -0.3954
  394MOL0     C51931   5.478   8.781   1.821  0.5537  0.1830 -0.5655
  394MOL0     C51932   5.616   8.758   1.815  0.2138  0.0152 -0.8180
  394MOL0     C51933   5.667   8.653   1.742 -0.3130  0.2757  0.8228
  394MOL0     O51934   5.805   8.629   1.739 -0.1881  0.6287  0.0748
  394MOL0     C51935   5.887   8.715   1.827  0.4711  0.4928 -0.3851
  394MOL0     C51936   6.029   8.647   1.818 -0.3442 -0.0817  0.4148
  394MOL0     C51937   6.078   8.651   1.670 -0.7500 -0.3232  0.4560
  394MOL0     C51938   6.231   8.662   1.664 -0.3195  0.2186 -0.2022
  394MOL0     C51939   6.289   8.547   1.736 -0.2604  0.0624  0.0439
  394MOL0     C51940   6.333   8.450   1.804  0.3841  0.3605  0.3051
  394MOL0     C51941   5.571   8.580   1.664  0.6114 -0.1806 -1.0872
  394MOL0     C51942   5.433   8.606   1.671 -0.9276  0.1632 -0.9320
  394MOL0     H51943   4.952   8.625   1.904  0.6254 -4.3576 -2.6658
  394MOL0     H51944   4.751   8.750   1.902  0.3419  3.1033  0.3640
  394MOL0     H51945   4.532   8.931   1.823 -1.5788 -1.0504  1.9037
  394MOL0     H51946   4.551   8.761   1.855  0.0716  2.4838  1.5872
  394MOL0     H51947   4.378   8.839   1.619  1.7306  0.6553  0.3662
  394MOL0     H51948   4.316   8.882   1.783 -2.4334 -3.8720  1.8806
  394MOL0     H51949   4.338   8.648   1.861 -0.2913  0.1222 -0.5067
  394MOL0     H51950   4.372   8.596   1.683  0.3046  2.5110 -2.3766
  394MOL0     H51951   4.128   8.758   1.781  1.1417  1.4539  0.1404
  394MOL0     H51952   4.176   8.714   1.620  3.2031  1.1537  0.0817
  394MOL0     H51953   4.078   8.511   1.836  1.4313 -0.5283 -0.6941
  394MOL0     H51954   4.144   8.481   1.686 -0.5811 -1.9618  2.6287
  394MOL0     H51955   3.954   8.632   1.583  0.7667  1.6799  1.4493
  394MOL0     H51956   3.897   8.655   1.735 -0.7221  2.4219 -2.8165
  394MOL0     H51957   3.917   8.384   1.591 -2.9326  0.8642 -2.1701
  394MOL0     H51958   3.884   8.397   1.764 -0.9329 -1.2546 -0.5016
  394MOL0     H51959   3.678   8.360   1.631 -1.3335  0.5040 -0.0330
  394MOL0     H51960   3.702   8.513   1.556  0.7927  0.7173  0.8093
  394MOL0     H51961   3.438   8.479   1.687  0.3809 -0.7653  0.2038
  394MOL0     H51962   3.320   8.520   2.004 -2.6419  0.9960 -0.6623
  394MOL0     H51963   3.257   8.583   1.850 -0.1611  1.6972 -0.8843
  394MOL0     H51964   3.336   8.806   1.914  1.2913 -1.8837 -1.1292
  394MOL0     H51965   3.401   8.736   2.074  0.9514 -0.7279  0.7646
  394MOL0     H51966   3.170   8.667   2.108  2.7795 -0.5324  1.2564
  394MOL0     H51967   3.195   8.849   2.094  1.3592  0.7685 -0.5458
  394MOL0     H51968   3.068   8.686   1.898  3.3236  0.1295 -0.7559
  394MOL0     H51969   3.116   8.849   1.865  1.9434  0.3966  1.3466
  394MOL0     H51970   2.837   8.697   1.815  1.1747  1.3308  1.2885
  394MOL0     H51971   2.715   8.480   1.835 -1.3750 -0.9562  0.7683
  394MOL0     H51972   2.375   8.265   2.194  0.6461  0.8792  0.8093
  394MOL0     H51973   2.235   8.057   2.219  0.0911  5.1532  1.8552
  394MOL0     H51974   2.231   7.720   2.076  0.4818  1.3956 -0.5281
  394MOL0     H51975   2.176   7.887   2.102  1.9149  0.6585 -1.0957
  394MOL0     H51976   2.074   7.809   2.315 -2.4439 -2.5306  0.4049
  394MOL0     H51977   2.155   7.655   2.299  1.3440  0.6547 -1.2670
  394MOL0     H51978   2.037   7.586   2.113 -0.0358 -0.9869  3.9835
  394MOL0     H51979   1.964   7.751   2.082  2.9098  3.2041  0.6964
  394MOL0     H51980   1.913   7.537   2.293  1.8035 -1.1716 -2.1367
  394MOL0     H51981   1.857   7.702   2.323 -3.2607  0.9331 -0.7245
  394MOL0     H51982   1.793   7.554   2.061  4.4224  0.2413  1.4348
  394MOL0     H51983   1.713   7.699   2.112 -0.1151  0.6892 -1.4267
  394MOL0     H51984   1.630   7.575   2.316  2.5948  0.2954 -0.0949
  394MOL0     H51985   1.676   7.415   2.248 -1.1111 -0.2632 -0.8667
  394MOL0     H51986   1.488   7.619   2.131 -1.1571 -0.6449  1.7473
  394MOL0     H51987   1.566   7.483   2.033  0.7019 -0.6637  1.1580
  394MOL0     H51988   1.326   7.452   2.137 -0.3602  0.4072  1.1009
  394MOL0     H51989   1.413   7.423   2.286 -3.1732 -1.8392 -0.0226
  394MOL0     H51990   2.605   7.830   2.195 -0.2733 -1.5388  2.1243
  394MOL0     H51991   2.721   8.049   2.208 -0.1857 -1.1527 -0.9900
  394MOL0     H51992   2.754   8.534   2.268 -1.3638  0.2704  0.3037
  394MOL0     H51993   2.888   8.727   2.230 -0.2089 -0.2821 -0.1690
  394MOL0     H51994   4.801   8.809   1.472  1.8221 -0.7496 -0.6182
  394MOL0     H51995   5.048   8.743   1.503  2.1495  2.1515  1.6681
  394MOL0     H51996   5.438   8.862   1.881 -0.1932 -0.5655 -0.0358
  394MOL0     H51997   5.668   8.818   1.889 -4.0238  1.5461  1.2368
  394MOL0     H51998   5.844   8.720   1.927 -1.9453  1.0168 -1.3925
  394MOL0     H51999   5.899   8.816   1.787  0.0761  0.0674 -1.5996
  394MOL0     H52000   6.099   8.708   1.875  0.8531 -1.0752  0.0358
  394MOL0     H52001   6.024   8.543   1.852 -1.1479  0.7763  3.1808
  394MOL0     H52002   6.035   8.734   1.612  2.1113  1.7059  0.9969
  394MOL0     H52003   6.055   8.556   1.622 -0.2368  0.1374 -0.7689
  394MOL0     H52004   6.273   8.669   1.563  1.2052 -0.6342  0.3355
  394MOL0     H52005   6.268   8.747   1.722  3.2510 -1.1598 -0.2184
  394MOL0     H52006   6.353   8.363   1.864  1.2592  0.3209 -0.0423
  394MOL0     H52007   5.618   8.510   1.595  1.6610  0.7434 -1.3266
  394MOL0     H52008   5.369   8.530   1.626  0.5793 -0.5683 -1.9302
  395MOL0     O52009   1.884   4.646   4.188 -0.8042  0.2712 -0.0081
  395MOL0     C52010   1.803   4.727   4.142 -0.5560 -0.1670  0.3047
  395MOL0     O52011   1.821   4.805   4.018 -0.4422  0.3705  0.8457
  395MOL0     C52012   1.947   4.823   3.972 -1.1209  1.3001 -0.1073
  395MOL0     C52013   1.957   4.828   3.835 -0.2477  0.3119  0.8743
  395MOL0     C52014   2.078   4.863   3.769 -0.1641 -0.7049  0.0585
  395MOL0     C52015   2.187   4.915   3.847 -0.0238 -0.3968 -0.4299
  395MOL0     O52016   2.292   4.955   3.773  0.4751 -0.6595  0.1883
  395MOL0     C52017   2.430   4.990   3.823 -0.4829  0.3383  0.1112
  395MOL0     C52018   2.510   5.016   3.699  0.5964  0.2394  0.6122
  395MOL0     C52019   2.555   4.879   3.642  0.7220  0.6198 -0.4304
  395MOL0     C52020   2.647   4.881   3.523  0.1842 -0.5621 -0.5600
  395MOL0     C52021   2.663   4.743   3.443 -0.3692  0.1585  0.5564
  395MOL0     C52022   2.746   4.763   3.319  0.0570 -0.2666 -0.2683
  395MOL0     C52023   2.876   4.833   3.339 -0.1061 -1.0062 -0.4453
  395MOL0     C52024   2.967   4.763   3.441  0.1039 -0.8140 -0.5732
  395MOL0     N52025   3.107   4.814   3.453 -0.4335  0.2895  0.7193
  395MOL0     C52026   3.195   4.847   3.347  0.0682  0.1795  0.0845
  395MOL0     C52027   3.318   4.847   3.401 -0.3017  0.9049  0.0971
  395MOL0     C52028   3.450   4.873   3.326 -0.0820  0.5635  0.5637
  395MOL0     C52029   3.462   4.985   3.225  0.2960 -0.1733 -0.0819
  395MOL0     C52030   3.404   5.110   3.286 -0.5162  0.4482 -0.3439
  395MOL0     C52031   3.447   5.148   3.430  0.3824 -0.5981 -0.5787
  395MOL0     O52032   3.394   5.280   3.458 -0.5405  0.2123  0.0889
  395MOL0     C52033   3.422   5.325   3.586 -1.0689 -0.7758 -0.3115
  395MOL0     C52034   3.438   5.249   3.699 -0.5069  0.0120 -0.3959
  395MOL0     C52035   3.454   5.311   3.823 -0.0393 -0.8977  0.6690
  395MOL0     C52036   3.451   5.456   3.830  0.2250  0.9394  0.1776
  395MOL0     C52037   3.466   5.515   3.953 -0.8254 -0.5258 -0.5163
  395MOL0     O52038   3.435   5.438   4.067  0.2881 -0.0181  1.1556
  395MOL0     C52039   3.455   5.494   4.185  0.0647  0.0008  0.2913
  395MOL0     C52040   3.353   5.570   4.248 -0.6685 -0.9053  0.0278
  395MOL0     C52041   3.373   5.640   4.372 -0.1629  0.8759  0.6318
  395MOL0     C52042   3.494   5.617   4.438 -0.0603  0.2080  0.2344
  395MOL0     O52043   3.525   5.659   4.568 -0.3799 -0.1606  0.5448
  395MOL0     C52044   3.466   5.773   4.620  0.4921  0.3525 -0.5718
  395MOL0     C52045   3.569   5.884   4.609 -0.4105 -0.0199 -0.5773
  395MOL0     C52046   3.699   5.853   4.688 -0.8796  0.2444 -0.2922
  395MOL0     C52047   3.774   5.986   4.708  1.0998  0.4952  0.1226
  395MOL0     C52048   3.925   5.954   4.742  0.0557  0.7720 -0.1750
  395MOL0     C52049   4.000   6.082   4.702 -1.6199 -0.2950  0.0384
  395MOL0     C52050   4.148   6.058   4.734  0.1300 -0.0455  0.3144
  395MOL0     C52051   4.216   6.191   4.721 -0.4151 -0.5344  0.4749
  395MOL0    Cl52052   4.385   6.177   4.785  0.4045  0.3590 -0.7579
  395MOL0     C52053   3.590   5.528   4.380 -0.4254 -0.5795 -0.7331
  395MOL0     C52054   3.573   5.479   4.249 -0.2118 -0.2157  0.1885
  395MOL0     O52055   3.510   5.627   3.951  0.0914 -0.3022  0.5808
  395MOL0     C52056   3.429   5.529   3.717  1.0949 -0.6157 -0.7671
  395MOL0     C52057   3.407   5.464   3.602  0.2549  0.6714  0.0719
  395MOL0     N52058   3.311   4.800   3.532 -0.7401  0.7830 -0.3696
  395MOL0     N52059   3.190   4.764   3.558  0.8541  0.5865  0.1235
  395MOL0     C52060   2.186   4.909   3.987 -1.2905  0.9071  0.1260
  395MOL0     C52061   2.066   4.863   4.047 -0.9741  0.4021  0.1984
  395MOL0     C52062   1.678   4.740   4.208  1.1037  0.3123  0.2380
  395MOL0     C52063   1.646   4.674   4.329  0.9732 -0.3507 -0.0253
  395MOL0     C52064   1.517   4.674   4.384  0.2627  0.0115  0.2655
  395MOL0     C52065   1.416   4.762   4.329  0.2560  1.2910 -0.8285
  395MOL0     O52066   1.287   4.784   4.380 -0.3156  0.1206 -0.2410
  395MOL0     C52067   1.259   4.746   4.510  0.6706  0.2049  0.0760
  395MOL0     C52068   1.217   4.599   4.497 -0.4711  0.1985 -0.6114
  395MOL0     C52069   1.184   4.544   4.629  0.7379  0.2426  0.1271
  395MOL0     C52070   1.155   4.396   4.631 -0.4312 -0.6884 -0.3134
  395MOL0     C52071   1.284   4.328   4.622 -0.8927 -0.4692 -0.8149
  395MOL0     C52072   1.401   4.291   4.589 -0.0005  0.0033  0.7751
  395MOL0     C52073   1.447   4.830   4.209  0.0315  0.3074 -0.4847
  395MOL0     C52074   1.574   4.827   4.153  0.4420 -0.3117 -0.5573
  395MOL0     H52075   1.884   4.785   3.767  2.1783 -0.2198 -1.5390
  395MOL0     H52076   2.090   4.860   3.661  1.5752 -3.2703  0.2185
  395MOL0     H52077   2.466   4.905   3.881 -2.9104  1.3199  3.3092
  395MOL0     H52078   2.421   5.080   3.884  1.5180  0.4017  0.3781
  395MOL0     H52079   2.601   5.073   3.721  1.6312 -0.7385 -0.9066
  395MOL0     H52080   2.450   5.079   3.633 -2.5408 -0.6161  2.4561
  395MOL0     H52081   2.476   4.814   3.603  1.0610 -0.9575  1.3653
  395MOL0     H52082   2.607   4.834   3.727 -0.4595  2.0975  1.1345
  395MOL0     H52083   2.603   4.960   3.462  3.9235  0.8228 -1.7488
  395MOL0     H52084   2.741   4.927   3.556 -0.3551  2.5598 -2.9173
  395MOL0     H52085   2.558   4.713   3.434 -1.0459  2.7178 -1.4516
  395MOL0     H52086   2.712   4.660   3.494  0.1535  0.3148  0.3184
  395MOL0     H52087   2.688   4.809   3.239 -1.7823 -0.3337  0.9579
  395MOL0     H52088   2.769   4.661   3.290 -0.9499 -0.3458 -0.8271
  395MOL0     H52089   2.926   4.837   3.241 -0.4247 -0.9897 -0.6089
  395MOL0     H52090   2.865   4.937   3.370 -0.8365 -0.8230 -1.2566
  395MOL0     H52091   2.973   4.655   3.425 -2.7454 -1.1504 -0.0312
  395MOL0     H52092   2.924   4.780   3.541 -0.8403 -2.3444 -0.6835
  395MOL0     H52093   3.165   4.875   3.247 -2.6694 -0.8398  0.5296
  395MOL0     H52094   3.471   4.776   3.280 -2.0963  1.4940 -2.6668
  395MOL0     H52095   3.520   4.882   3.409  3.0592  2.1282 -2.0598
  395MOL0     H52096   3.405   4.962   3.135  2.3349  0.4986 -1.6135
  395MOL0     H52097   3.567   5.004   3.203  0.5231 -1.3623 -0.0869
  395MOL0     H52098   3.418   5.196   3.219 -0.0936  0.8550  0.2554
  395MOL0     H52099   3.297   5.090   3.283 -0.3615 -0.4912  0.2217
  395MOL0     H52100   3.557   5.148   3.431  0.3975 -0.3504  0.7504
  395MOL0     H52101   3.410   5.069   3.497 -1.1641 -0.2264 -0.9629
  395MOL0     H52102   3.444   5.141   3.703  2.0481 -0.0350 -2.4576
  395MOL0     H52103   3.466   5.248   3.911 -1.6840 -1.0117  0.8377
  395MOL0     H52104   3.258   5.586   4.198 -1.1241  0.5051  1.2631
  395MOL0     H52105   3.301   5.698   4.427  0.2651  1.3988  0.6534
  395MOL0     H52106   3.446   5.753   4.726  0.2947  0.4342 -0.5930
  395MOL0     H52107   3.376   5.805   4.566 -1.0443 -0.9070  1.0797
  395MOL0     H52108   3.513   5.961   4.663 -0.4037 -0.8783  0.7104
  395MOL0     H52109   3.586   5.908   4.504 -1.7247 -2.3337 -1.3889
  395MOL0     H52110   3.760   5.778   4.636 -0.3401 -0.8000  1.7235
  395MOL0     H52111   3.663   5.806   4.780  0.4510  1.5733  0.9701
  395MOL0     H52112   3.760   6.047   4.619 -0.8243 -2.6726 -1.9482
  395MOL0     H52113   3.721   6.034   4.791 -1.9450  0.5046 -1.7139
  395MOL0     H52114   3.955   5.864   4.688 -1.7852 -1.2367  1.9574
  395MOL0     H52115   3.934   5.941   4.850 -1.1304 -1.8147 -0.3153
  395MOL0     H52116   3.953   6.165   4.756 -0.9616  0.5461 -0.6685
  395MOL0     H52117   4.004   6.107   4.596  2.7990 -1.8190 -0.3395
  395MOL0     H52118   4.150   6.028   4.840 -0.1344 -0.9635  0.0743
  395MOL0     H52119   4.191   5.982   4.668  0.8223  1.4262 -0.9912
  395MOL0     H52120   4.161   6.258   4.788  0.2132 -1.0451  1.5234
  395MOL0     H52121   4.230   6.210   4.614  1.5570 -3.5284  0.0823
  395MOL0     H52122   3.676   5.510   4.443  0.8826  3.7179 -0.9980
  395MOL0     H52123   3.659   5.426   4.209  0.8804  0.8305  1.0912
  395MOL0     H52124   3.433   5.637   3.715  2.7488 -0.5358  1.8520
  395MOL0     H52125   3.399   5.528   3.514  0.6423  1.7948  0.8394
  395MOL0     H52126   2.279   4.927   4.040 -1.0811 -3.0088  1.4231
  395MOL0     H52127   2.067   4.867   4.155  0.9662  0.3240  0.2198
  395MOL0     H52128   1.715   4.609   4.382 -1.0063 -2.6374 -0.0811
  395MOL0     H52129   1.505   4.609   4.470  2.4238  0.7711  1.2346
  395MOL0     H52130   1.170   4.803   4.540 -0.4096 -1.3343 -0.0783
  395MOL0     H52131   1.340   4.774   4.578  1.2223  0.6885 -0.7677
  395MOL0     H52132   1.134   4.592   4.427 -0.9676 -0.8283  0.0568
  395MOL0     H52133   1.293   4.536   4.450 -1.6671 -1.3454 -0.5598
  395MOL0     H52134   1.099   4.601   4.668  1.3992  0.2368  1.6472
  395MOL0     H52135   1.271   4.576   4.687  3.6223 -1.4936 -2.9258
  395MOL0     H52136   1.106   4.358   4.722  0.4737  0.2641  0.6042
  395MOL0     H52137   1.094   4.368   4.545  0.6318 -5.4467  0.2018
  395MOL0     H52138   1.499   4.273   4.549  0.3430  5.4074 -1.7013
  395MOL0     H52139   1.376   4.904   4.171  2.1036  1.6917 -1.8538
  395MOL0     H52140   1.597   4.886   4.065 -0.0586 -1.8488 -1.7751
  396MOL0     O52141   1.947   3.426   0.264  0.0648  0.7576 -0.0838
  396MOL0     C52142   1.984   3.523   0.202  0.1633 -0.3849  0.0513
  396MOL0     O52143   1.915   3.588   0.104  0.5142  0.2442  0.2993
  396MOL0     C52144   1.785   3.541   0.077 -0.6597  0.5450  0.5933
  396MOL0     C52145   1.771   3.415   0.022  0.2402 -0.5035 -0.5596
  396MOL0     C52146   1.645   3.363  -0.010  0.3572 -0.1278 -0.3124
  396MOL0     C52147   1.539   3.450  -0.009  0.0109 -0.2523  0.7990
  396MOL0     O52148   1.413   3.412  -0.053  0.2559  0.2795 -0.1074
  396MOL0     C52149   1.375   3.277  -0.058  0.5148  0.3569  0.1488
  396MOL0     C52150   1.222   3.263  -0.084 -0.6931  0.0923  0.8932
  396MOL0     C52151   1.135   3.332   0.020  0.1555 -0.5243 -0.0280
  396MOL0     C52152   1.144   3.262   0.155 -0.3404  0.4529 -0.3238
  396MOL0     C52153   1.069   3.344   0.271 -0.0598 -0.7501  0.1749
  396MOL0     C52154   0.915   3.362   0.240 -0.6049  0.0724  0.1097
  396MOL0     C52155   0.838   3.426   0.351  0.4160  0.4386 -0.3433
  396MOL0     C52156   0.806   3.326   0.471 -0.3140  0.3597 -0.5611
  396MOL0     N52157   0.688   3.253   0.455  0.6319 -0.1020 -0.7069
  396MOL0     C52158   0.612   3.246   0.350 -0.0420  0.2278  0.9445
  396MOL0     C52159   0.515   3.156   0.372  0.2142 -0.2995 -0.3443
  396MOL0     C52160   0.409   3.113   0.270  0.7477  0.8868 -0.1679
  396MOL0     C52161   0.465   3.007   0.179 -0.1241 -1.1031 -0.1119
  396MOL0     C52162   0.373   2.967   0.068  0.3665 -0.4616  0.2070
  396MOL0     C52163   0.240   2.929   0.134 -0.2220 -0.1481 -0.6006
  396MOL0     O52164   0.165   2.846   0.039  0.3147  1.3427 -0.3276
  396MOL0     C52165   0.036   2.814   0.063  0.2675 -0.5048  0.0341
  396MOL0     C52166  -0.020   2.723  -0.018 -0.0835  0.1027  0.0890
  396MOL0     C52167  -0.158   2.682  -0.014  0.6585 -0.1638 -0.1193
  396MOL0     C52168  -0.241   2.749   0.079  1.2366 -0.1768  0.0577
  396MOL0     C52169  -0.380   2.703   0.077  0.9927  0.3606  0.4545
  396MOL0     O52170  -0.434   2.641  -0.025 -0.5574 -0.3590 -0.3176
  396MOL0     C52171  -0.562   2.597  -0.016  1.2192  0.2782 -0.7258
  396MOL0     C52172  -0.608   2.503   0.084  0.1681  0.8408 -0.4972
  396MOL0     C52173  -0.752   2.455   0.088 -0.1393 -0.1396  0.6501
  396MOL0     C52174  -0.842   2.506  -0.002 -0.5679 -0.1254  0.2169
  396MOL0     O52175  -0.963   2.458   0.014 -0.3167  0.4369 -0.1061
  396MOL0     C52176  -1.062   2.553   0.056  0.2196  0.1023 -0.5559
  396MOL0     C52177  -1.180   2.477   0.087  0.3428 -0.2465 -0.9275
  396MOL0     C52178  -1.280   2.561   0.154  0.2443 -0.0253  0.2633
  396MOL0     C52179  -1.402   2.478   0.215 -0.7311 -0.2888  0.4861
  396MOL0     C52180  -1.526   2.562   0.232 -0.4760 -0.9588  1.0078
  396MOL0     C52181  -1.635   2.485   0.303  0.1347  0.2567 -0.2468
  396MOL0     C52182  -1.754   2.572   0.344  0.1399  0.6341  0.2429
  396MOL0     C52183  -1.862   2.489   0.391  0.3365 -0.6591 -0.4331
  396MOL0    Cl52184  -1.956   2.601   0.497 -0.4747 -0.0018  0.0222
  396MOL0     C52185  -0.798   2.594  -0.095  0.4629 -0.5516  0.2798
  396MOL0     C52186  -0.664   2.640  -0.105  0.3596 -0.0216  0.1350
  396MOL0     O52187  -0.436   2.732   0.180 -0.7607 -0.3252 -0.6079
  396MOL0     C52188  -0.185   2.846   0.160  0.7691  0.0748 -0.0868
  396MOL0     C52189  -0.050   2.883   0.158 -0.6998  0.5265  0.3654
  396MOL0     N52190   0.535   3.106   0.501 -0.1226 -0.5273  0.2559
  396MOL0     N52191   0.646   3.157   0.542  0.6218 -0.0399 -0.3519
  396MOL0     C52192   1.551   3.586   0.046  0.4219  0.1560  0.7123
  396MOL0     C52193   1.676   3.629   0.091 -0.0872  1.0600  0.7012
  396MOL0     C52194   2.107   3.594   0.241  0.8531 -0.4807  0.0483
  396MOL0     C52195   2.199   3.530   0.332  0.0318  0.3743  0.3739
  396MOL0     C52196   2.327   3.580   0.345 -0.1592 -0.5287 -0.0249
  396MOL0     C52197   2.369   3.704   0.279 -0.3525 -0.2698  0.0864
  396MOL0     O52198   2.497   3.760   0.281  0.6491  0.5863 -0.3174
  396MOL0     C52199   2.615   3.671   0.309  0.1729 -0.4846 -0.3015
  396MOL0     C52200   2.751   3.750   0.292  0.0491  0.0109  0.7865
  396MOL0     C52201   2.757   3.798   0.150  0.1433  0.0112 -0.3523
  396MOL0     C52202   2.882   3.889   0.131 -0.3390 -0.1979 -0.0179
  396MOL0     C52203   3.008   3.817   0.141 -0.0577  0.7885  1.1956
  396MOL0     C52204   3.116   3.757   0.134 -0.4484  0.4236 -0.0757
  396MOL0     C52205   2.271   3.768   0.207 -0.1490 -0.8366  0.4325
  396MOL0     C52206   2.142   3.721   0.188 -0.3467  0.3651  0.8655
  396MOL0     H52207   1.863   3.358   0.016 -0.3378 -1.4197 -0.9337
  396MOL0     H52208   1.639   3.271  -0.068 -2.1590 -2.0935  2.7837
  396MOL0     H52209   1.395   3.217   0.032 -2.1113 -0.5937  0.1817
  396MOL0     H52210   1.428   3.228  -0.140  0.0443  1.4317 -0.8197
  396MOL0     H52211   1.193   3.159  -0.102 -0.4556  0.5489 -2.9552
  396MOL0     H52212   1.199   3.325  -0.171 -4.3803  0.6746  2.1145
  396MOL0     H52213   1.035   3.322  -0.023 -0.3205 -0.4285  1.0135
  396MOL0     H52214   1.159   3.436   0.044  0.5961 -1.1601  2.7148
  396MOL0     H52215   1.105   3.160   0.163  1.0378  0.0694  3.0833
  396MOL0     H52216   1.247   3.248   0.188 -1.4747 -0.7645  3.0832
  396MOL0     H52217   1.113   3.444   0.270 -0.3326 -0.6127  0.9100
  396MOL0     H52218   1.093   3.288   0.362 -0.0010 -2.4904 -0.8796
  396MOL0     H52219   0.870   3.269   0.207  1.5519  0.1279 -3.5543
  396MOL0     H52220   0.899   3.423   0.151  1.2265  2.0544  1.0218
  396MOL0     H52221   0.887   3.519   0.381 -2.2521  2.3531 -1.5234
  396MOL0     H52222   0.746   3.469   0.310 -0.4007 -1.1988 -0.3121
  396MOL0     H52223   0.809   3.388   0.561 -1.0254  0.4150 -0.5681
  396MOL0     H52224   0.882   3.249   0.487 -1.9887 -1.1708  0.3337
  396MOL0     H52225   0.623   3.299   0.256  1.5866  0.5355  1.2716
  396MOL0     H52226   0.365   3.195   0.212 -0.1081 -0.9398 -2.2645
  396MOL0     H52227   0.331   3.058   0.324  0.6661 -1.2635 -2.3107
  396MOL0     H52228   0.498   2.913   0.224 -0.4582 -0.4677  1.5128
  396MOL0     H52229   0.551   3.052   0.128 -0.7459  0.8205  0.4813
  396MOL0     H52230   0.350   3.044  -0.006 -1.2340 -2.0722 -1.0471
  396MOL0     H52231   0.411   2.882   0.011  0.0851  0.5757 -1.6019
  396MOL0     H52232   0.179   3.016   0.159  2.7689  1.5704  1.3808
  396MOL0     H52233   0.257   2.867   0.222 -0.1287 -1.7864 -1.7236
  396MOL0     H52234   0.050   2.657  -0.069  0.5513  0.6957  0.1834
  396MOL0     H52235  -0.185   2.601  -0.081  1.5524  0.3927 -1.1899
  396MOL0     H52236  -0.537   2.465   0.156 -1.4884 -1.9957 -0.2041
  396MOL0     H52237  -0.780   2.387   0.167 -1.2785  0.3656  0.7126
  396MOL0     H52238  -1.081   2.620  -0.028  0.3776  3.6228  1.9529
  396MOL0     H52239  -1.022   2.614   0.138 -0.8730  2.2204 -1.5115
  396MOL0     H52240  -1.148   2.407   0.165 -1.4393 -0.7741 -0.6429
  396MOL0     H52241  -1.227   2.415   0.011 -2.3310 -0.4892  0.8072
  396MOL0     H52242  -1.313   2.624   0.071 -2.7633 -3.4792 -1.4764
  396MOL0     H52243  -1.240   2.618   0.239  0.8614  0.9244 -0.6331
  396MOL0     H52244  -1.431   2.411   0.133 -0.2220  1.6201 -1.3372
  396MOL0     H52245  -1.364   2.434   0.308  0.3378 -4.2046 -1.5720
  396MOL0     H52246  -1.560   2.601   0.135  2.2512 -0.2035  0.2407
  396MOL0     H52247  -1.501   2.650   0.292 -2.3253 -1.0707  2.0084
  396MOL0     H52248  -1.584   2.448   0.392 -1.2309 -3.6731 -0.8625
  396MOL0     H52249  -1.674   2.398   0.249  0.8306 -1.1224  1.3793
  396MOL0     H52250  -1.722   2.649   0.416 -0.1644  0.1939  0.8540
  396MOL0     H52251  -1.788   2.630   0.258  0.1517  2.8629  1.6495
  396MOL0     H52252  -1.818   2.401   0.441 -0.3765 -1.8669 -1.8386
  396MOL0     H52253  -1.924   2.452   0.308 -0.9541  2.4816 -0.9855
  396MOL0     H52254  -0.872   2.634  -0.164 -2.5165  3.0266  4.9403
  396MOL0     H52255  -0.640   2.701  -0.191 -2.5320  0.6463 -0.3027
  396MOL0     H52256  -0.248   2.890   0.237 -2.0354 -2.0771 -0.9921
  396MOL0     H52257  -0.002   2.950   0.229  2.1680 -1.7356  0.7525
  396MOL0     H52258   1.464   3.651   0.038 -0.4153 -1.1508 -2.5869
  396MOL0     H52259   1.700   3.729   0.124  3.7108  0.9878 -1.2521
  396MOL0     H52260   2.184   3.436   0.385  1.9292  0.0652  0.4533
  396MOL0     H52261   2.407   3.537   0.404  0.6457 -1.1054 -1.4637
  396MOL0     H52262   2.614   3.588   0.237  2.4432 -2.5824  1.8832
  396MOL0     H52263   2.610   3.626   0.408  1.9985  0.5735  0.3194
  396MOL0     H52264   2.768   3.827   0.367  0.4175 -1.7794  2.6373
  396MOL0     H52265   2.836   3.681   0.292 -0.8604 -1.1583  0.5755
  396MOL0     H52266   2.662   3.845   0.123 -1.7560 -3.5103 -0.5076
  396MOL0     H52267   2.763   3.710   0.084 -1.4896  0.3039 -0.9446
  396MOL0     H52268   2.887   3.928   0.029  4.1399 -2.2964 -0.8630
  396MOL0     H52269   2.884   3.970   0.204 -1.7255  0.8283 -1.0534
  396MOL0     H52270   3.207   3.702   0.123  0.9717  2.3766  1.2100
  396MOL0     H52271   2.303   3.858   0.157  2.3940 -0.7765  2.0041
  396MOL0     H52272   2.066   3.768   0.126  1.2968 -0.6566 -2.1663
  397MOL0     O52273   7.802   8.702   0.491 -0.0137 -0.0554  0.4813
  397MOL0     C52274   7.739   8.622   0.553 -0.0662 -0.6614 -0.4832
  397MOL0     O52275   7.794   8.510   0.605  0.0351 -0.0104 -0.0362
  397MOL0     C52276   7.932   8.496   0.577  0.7112  0.3929  0.6394
  397MOL0     C52277   8.030   8.579   0.630 -0.3676 -0.6739 -0.8658
  397MOL0     C52278   8.160   8.541   0.608  0.3720 -0.9047 -0.6410
  397MOL0     C52279   8.202   8.424   0.553  0.2212 -0.2019 -0.2333
  397MOL0     O52280   8.331   8.402   0.533 -0.9386  0.2724  0.1652
  397MOL0     C52281   8.397   8.292   0.600 -0.3610  0.4628 -0.9341
  397MOL0     C52282   8.545   8.317   0.578  0.5928 -0.2534  0.2506
  397MOL0     C52283   8.634   8.209   0.636  0.3752  0.4354 -0.3025
  397MOL0     C52284   8.779   8.206   0.598 -0.2147  0.3379 -0.3633
  397MOL0     C52285   8.853   8.092   0.668  0.3103 -0.8266 -0.1754
  397MOL0     C52286   9.005   8.119   0.653  0.1244  0.1231 -0.0721
  397MOL0     C52287   9.068   8.084   0.516 -0.2488 -0.5297  0.3200
  397MOL0     C52288   9.207   8.140   0.499  0.7979 -0.4245  0.1370
  397MOL0     N52289   9.314   8.068   0.559 -0.4231  0.4060  0.3234
  397MOL0     C52290   9.400   8.113   0.652  0.6824 -0.3397 -0.8635
  397MOL0     C52291   9.492   8.016   0.668 -0.5299 -0.6393 -0.4601
  397MOL0     C52292   9.625   8.042   0.753  0.6139  0.4132 -0.1927
  397MOL0     C52293   9.593   8.080   0.895  0.1742  0.7888  0.2813
  397MOL0     C52294   9.702   8.149   0.983  0.2427 -0.4826 -0.6310
  397MOL0     C52295   9.666   8.132   1.130  0.3047  0.3467 -0.4969
  397MOL0     O52296   9.608   8.251   1.189  0.9657 -0.5008 -0.0988
  397MOL0     C52297   9.480   8.292   1.164 -0.3454 -0.0505  0.0590
  397MOL0     C52298   9.456   8.431   1.173  0.1376 -0.4272  0.1820
  397MOL0     C52299   9.326   8.483   1.151  0.3909  0.3769  0.3321
  397MOL0     C52300   9.217   8.396   1.117  0.1877 -0.4790  0.7398
  397MOL0     C52301   9.081   8.453   1.076  0.4381 -0.1304  0.0939
  397MOL0     O52302   8.999   8.357   1.024 -0.3668 -0.4772 -0.1300
  397MOL0     C52303   8.874   8.399   0.991 -0.3246  0.5235  0.1645
  397MOL0     C52304   8.763   8.364   1.074  0.8763  1.2586 -0.1631
  397MOL0     C52305   8.633   8.405   1.043  0.1568  1.5002  0.2130
  397MOL0     C52306   8.600   8.469   0.923 -0.5691 -0.1506 -0.1410
  397MOL0     O52307   8.477   8.520   0.871 -0.0879 -0.1724  0.0810
  397MOL0     C52308   8.366   8.509   0.954 -0.3667 -0.5668 -0.5609
  397MOL0     C52309   8.307   8.647   0.970 -0.0269  0.7933  1.2910
  397MOL0     C52310   8.154   8.631   0.995  0.0506  0.6504 -0.1205
  397MOL0     C52311   8.077   8.759   0.976  0.0122 -0.1877 -0.1928
  397MOL0     C52312   7.926   8.725   0.987 -0.3591 -0.4990  0.5190
  397MOL0     C52313   7.847   8.856   0.973 -0.0570  0.8910 -1.0529
  397MOL0     C52314   7.704   8.844   1.009 -1.1810  0.4162  0.5424
  397MOL0     C52315   7.616   8.946   0.943 -1.4285  0.1129  0.9878
  397MOL0    Cl52316   7.442   8.939   1.012 -0.4439  0.0529 -0.4991
  397MOL0     C52317   8.715   8.499   0.834 -0.5783  0.2484  0.1967
  397MOL0     C52318   8.845   8.468   0.874  0.4513 -0.1474 -0.1166
  397MOL0     O52319   9.051   8.572   1.102  0.2322 -0.6841  0.3011
  397MOL0     C52320   9.252   8.255   1.096  0.4821 -0.8343 -0.3070
  397MOL0     C52321   9.382   8.206   1.126  0.1623  0.2132  0.5318
  397MOL0     N52322   9.455   7.907   0.593 -0.0699 -0.2208  0.1729
  397MOL0     N52323   9.349   7.938   0.524  1.1127  0.4040 -0.2169
  397MOL0     C52324   8.109   8.341   0.493  0.0625 -0.3907 -0.7490
  397MOL0     C52325   7.973   8.379   0.513 -0.4928 -0.6197  0.8787
  397MOL0     C52326   7.597   8.650   0.592  0.1405 -0.2669  0.0791
  397MOL0     C52327   7.507   8.705   0.501  0.4242  0.4177 -0.5990
  397MOL0     C52328   7.378   8.730   0.548 -0.9403 -0.0674  0.0280
  397MOL0     C52329   7.334   8.717   0.677  0.2010 -0.3501  0.3171
  397MOL0     O52330   7.199   8.752   0.701 -0.1138 -0.2446  0.7549
  397MOL0     C52331   7.132   8.680   0.807 -0.2753  0.2946 -0.3400
  397MOL0     C52332   6.980   8.673   0.792 -0.3792  0.5752 -0.6219
  397MOL0     C52333   6.952   8.574   0.681 -0.1027  0.4408  0.1326
  397MOL0     C52334   6.843   8.624   0.585 -0.2144 -0.3724  0.5052
  397MOL0     C52335   6.809   8.514   0.489 -0.3383  0.2830  0.1171
  397MOL0     C52336   6.792   8.405   0.422  0.0274 -0.4584  0.4114
  397MOL0     C52337   7.430   8.669   0.772  0.2025 -0.5903  0.1162
  397MOL0     C52338   7.559   8.635   0.730  0.6516 -0.1034 -0.3518
  397MOL0     H52339   7.997   8.662   0.692 -0.2975 -1.1164 -0.2265
  397MOL0     H52340   8.229   8.598   0.669  0.0960  0.1020 -1.2439
  397MOL0     H52341   8.359   8.202   0.551 -1.8634 -0.6520  1.9663
  397MOL0     H52342   8.365   8.279   0.704 -2.6193 -2.2973 -1.8367
  397MOL0     H52343   8.570   8.419   0.610 -2.1140  0.8197 -0.8249
  397MOL0     H52344   8.565   8.317   0.470 -0.7433 -1.2843 -0.0173
  397MOL0     H52345   8.591   8.113   0.607 -0.2452 -0.7536  3.8971
  397MOL0     H52346   8.630   8.221   0.745  0.4219  1.7846 -0.4288
  397MOL0     H52347   8.791   8.200   0.489 -2.2725  0.6097 -0.6304
  397MOL0     H52348   8.821   8.300   0.636  0.7231 -0.3653  0.3801
  397MOL0     H52349   8.830   7.995   0.624  0.1416 -1.1442  0.6081
  397MOL0     H52350   8.824   8.093   0.773 -2.0958 -1.5746 -0.7639
  397MOL0     H52351   9.069   8.060   0.719  1.1878 -1.0903 -2.0799
  397MOL0     H52352   9.023   8.224   0.680 -1.4206  0.4695 -0.2916
  397MOL0     H52353   9.067   7.976   0.495  3.0644 -0.1338 -2.6806
  397MOL0     H52354   8.998   8.134   0.448 -0.6750 -2.4460 -0.7586
  397MOL0     H52355   9.204   8.247   0.518 -0.7845 -0.2342 -0.9662
  397MOL0     H52356   9.229   8.131   0.392 -1.3586 -1.1987 -0.2955
  397MOL0     H52357   9.384   8.214   0.691 -3.8750 -1.1659 -0.1151
  397MOL0     H52358   9.680   8.125   0.708  0.4754  0.9069  0.5341
  397MOL0     H52359   9.683   7.950   0.741  0.5152  0.6647 -3.6251
  397MOL0     H52360   9.564   7.989   0.949  0.0619  2.1227  2.5843
  397MOL0     H52361   9.512   8.153   0.906  1.6517  2.8608 -1.6740
  397MOL0     H52362   9.800   8.108   0.957  0.0666 -0.5191 -1.2515
  397MOL0     H52363   9.716   8.256   0.964  1.2017  0.6283  4.7013
  397MOL0     H52364   9.761   8.113   1.182  0.1550  0.3836 -0.2038
  397MOL0     H52365   9.596   8.049   1.144 -0.1962  1.1652  2.7886
  397MOL0     H52366   9.542   8.489   1.205  1.3145 -2.3199  0.6056
  397MOL0     H52367   9.303   8.588   1.169 -2.8921  0.1148 -1.4667
  397MOL0     H52368   8.767   8.279   1.142 -2.5250  0.1547 -1.1620
  397MOL0     H52369   8.559   8.367   1.112  1.7725 -2.3695  0.0839
  397MOL0     H52370   8.381   8.464   1.053 -0.6801 -0.7030 -0.5730
  397MOL0     H52371   8.286   8.447   0.913 -1.5952  0.3809  0.3513
  397MOL0     H52372   8.330   8.696   0.875  4.1567  0.6112  2.0363
  397MOL0     H52373   8.358   8.701   1.050  3.6016  1.2985 -1.1396
  397MOL0     H52374   8.132   8.600   1.097  0.8827 -0.0026 -0.1382
  397MOL0     H52375   8.117   8.557   0.924  1.2891 -1.3589  1.2407
  397MOL0     H52376   8.102   8.839   1.046 -0.7404 -0.7671  0.7620
  397MOL0     H52377   8.098   8.795   0.875 -0.4830 -1.8934 -0.9395
  397MOL0     H52378   7.918   8.672   1.082  1.2673  1.8382  2.0508
  397MOL0     H52379   7.900   8.651   0.910 -3.4497  0.4346  0.5469
  397MOL0     H52380   7.860   8.898   0.873  0.7057  2.9539 -0.1438
  397MOL0     H52381   7.893   8.928   1.042  0.3023  0.7773 -1.1711
  397MOL0     H52382   7.660   8.747   0.987  1.1449 -0.5586 -0.1851
  397MOL0     H52383   7.699   8.852   1.118 -0.4909  2.1438  0.4756
  397MOL0     H52384   7.603   8.912   0.839 -1.0888  1.1240  0.6094
  397MOL0     H52385   7.652   9.049   0.942 -1.6545  0.2481 -1.6191
  397MOL0     H52386   8.701   8.543   0.735  0.9267  0.4853  0.0625
  397MOL0     H52387   8.928   8.508   0.816  1.5406  0.4231  1.7458
  397MOL0     H52388   9.174   8.189   1.061 -0.3578 -0.7280  1.2619
  397MOL0     H52389   9.396   8.098   1.122  3.4562  0.5302  1.0580
  397MOL0     H52390   8.150   8.249   0.452  0.8959 -1.0591  1.4484
  397MOL0     H52391   7.898   8.321   0.459 -1.5452  3.2876 -2.3122
  397MOL0     H52392   7.533   8.725   0.398  0.4230 -0.4589 -0.7753
  397MOL0     H52393   7.315   8.766   0.467  1.1282 -0.2008 -1.7634
  397MOL0     H52394   7.154   8.723   0.906 -0.9707 -1.3247  0.5513
  397MOL0     H52395   7.160   8.575   0.819 -2.5674 -0.4393 -0.8627
  397MOL0     H52396   6.929   8.634   0.881  2.6322  0.6132  1.2753
  397MOL0     H52397   6.942   8.773   0.767 -3.0777  0.3036  1.9226
  397MOL0     H52398   6.910   8.487   0.733 -1.7076  2.0514  1.7094
  397MOL0     H52399   7.039   8.556   0.617 -0.2605  0.4946 -0.0963
  397MOL0     H52400   6.756   8.657   0.642 -0.7074  0.1886 -0.5523
  397MOL0     H52401   6.882   8.702   0.520 -2.4741 -0.7081 -1.3671
  397MOL0     H52402   6.780   8.327   0.349  1.2270  1.4416 -1.9782
  397MOL0     H52403   7.422   8.648   0.878  1.8315 -0.6068  0.2516
  397MOL0     H52404   7.629   8.596   0.803 -1.2961  0.0559  1.6889
  398MOL0     O52405   3.334   3.613   4.579 -0.6438  0.7021 -0.4060
  398MOL0     C52406   3.320   3.519   4.499  0.1026 -0.4294 -0.0327
  398MOL0     O52407   3.199   3.490   4.442  0.2443  0.2488  0.3222
  398MOL0     C52408   3.085   3.565   4.465 -1.5162  0.3922 -0.2505
  398MOL0     C52409   3.090   3.701   4.436 -0.6073  0.0712  0.2658
  398MOL0     C52410   2.982   3.780   4.465 -0.1885 -0.0212 -0.3582
  398MOL0     C52411   2.865   3.719   4.523  0.8267  0.6918 -0.0258
  398MOL0     O52412   2.758   3.791   4.569 -0.4030  0.5930  0.3235
  398MOL0     C52413   2.696   3.884   4.479  0.2282  0.9262  0.1654
  398MOL0     C52414   2.633   4.001   4.556 -0.2077  0.2271  0.1731
  398MOL0     C52415   2.565   3.958   4.688  0.2702  1.0179  0.3963
  398MOL0     C52416   2.507   4.075   4.762  0.1872  0.1183 -0.7045
  398MOL0     C52417   2.445   4.049   4.902 -0.0841 -0.0657  0.1603
  398MOL0     C52418   2.341   3.936   4.897  0.4491  0.2818  0.0019
  398MOL0     C52419   2.301   3.886   5.038 -0.5887 -0.4658  0.6054
  398MOL0     C52420   2.206   3.768   5.026  0.5478  0.8013  0.1458
  398MOL0     N52421   2.074   3.795   4.968 -0.4821 -0.4635  0.0886
  398MOL0     C52422   1.991   3.895   5.009 -0.5485  0.0933  0.8302
  398MOL0     C52423   1.872   3.876   4.946 -0.3303  0.2837  0.8287
  398MOL0     C52424   1.749   3.961   4.942  0.1139  0.4882  0.7537
  398MOL0     C52425   1.619   3.880   4.901  0.4179  0.0315 -0.3223
  398MOL0     C52426   1.490   3.962   4.885  0.2350  0.5335 -0.3888
  398MOL0     C52427   1.377   3.882   4.925  0.0390  0.0943 -1.0691
  398MOL0     O52428   1.352   3.781   4.827  0.6351 -1.1886  0.1165
  398MOL0     C52429   1.253   3.685   4.861 -0.0424  0.5444  0.6867
  398MOL0     C52430   1.215   3.579   4.780 -0.3150 -0.4638  1.2683
  398MOL0     C52431   1.131   3.478   4.815 -0.3407 -0.0850 -0.7441
  398MOL0     C52432   1.076   3.474   4.940 -0.8877 -0.8690  0.0863
  398MOL0     C52433   0.996   3.357   4.989 -0.2750 -0.3242 -0.7456
  398MOL0     O52434   0.966   3.255   4.899 -0.7152  0.0620 -0.2700
  398MOL0     C52435   0.882   3.148   4.934  0.6104 -0.7598  0.2984
  398MOL0     C52436   0.762   3.170   4.987 -0.1072 -0.0106  0.6230
  398MOL0     C52437   0.674   3.069   5.028 -0.6576 -0.0448  0.1318
  398MOL0     C52438   0.705   2.935   5.005 -0.4511 -0.1107 -0.0709
  398MOL0     O52439   0.622   2.831   5.045 -0.3038  0.3321  0.7608
  398MOL0     C52440   0.480   2.862   5.040 -1.4969 -0.1383  0.2155
  398MOL0     C52441   0.398   2.733   5.020  0.7299 -0.6635  0.0816
  398MOL0     C52442   0.245   2.763   5.047  0.7261  0.2379 -0.1714
  398MOL0     C52443   0.157   2.653   4.984  0.0135  0.6203 -0.2682
  398MOL0     C52444   0.154   2.519   5.061  0.1413  1.1407  1.0819
  398MOL0     C52445   0.052   2.425   4.996  0.0127  0.4811 -0.4220
  398MOL0     C52446   0.025   2.301   5.085 -0.6078  0.2634 -0.4864
  398MOL0     C52447  -0.057   2.191   5.021 -0.1178 -0.2282 -1.0973
  398MOL0    Cl52448  -0.211   2.256   4.972  0.0678  0.4614 -0.0521
  398MOL0     C52449   0.834   2.904   4.945 -0.6009  0.4223 -0.3726
  398MOL0     C52450   0.918   3.015   4.905  0.0014  0.0493  0.2067
  398MOL0     O52451   0.952   3.367   5.108 -0.1089  1.0459  0.1585
  398MOL0     C52452   1.106   3.584   5.027  1.1498  0.5122  0.6176
  398MOL0     C52453   1.194   3.684   4.990  0.9952  0.3465 -0.2563
  398MOL0     N52454   1.893   3.763   4.862 -0.2830  0.2422  0.1144
  398MOL0     N52455   2.008   3.706   4.890 -0.1656 -0.7727  0.3130
  398MOL0     C52456   2.859   3.577   4.543 -0.6858 -0.1582  0.0969
  398MOL0     C52457   2.974   3.505   4.524  0.1075  0.1856  0.4893
  398MOL0     C52458   3.428   3.444   4.458  0.1051  0.3384  0.0826
  398MOL0     C52459   3.542   3.439   4.538  0.1498  0.3317 -0.5939
  398MOL0     C52460   3.656   3.380   4.493 -0.8980 -0.4699 -0.5742
  398MOL0     C52461   3.657   3.311   4.369  0.1028 -0.6557  0.1098
  398MOL0     O52462   3.772   3.257   4.316 -0.2096 -0.4489  0.5176
  398MOL0     C52463   3.750   3.142   4.230 -0.7256 -1.0215 -0.0940
  398MOL0     C52464   3.880   3.059   4.249 -0.4145 -0.5385 -0.7621
  398MOL0     C52465   3.883   2.974   4.373  0.0146 -0.6384 -0.7322
  398MOL0     C52466   4.019   2.911   4.381  0.2829  0.3036  1.3186
  398MOL0     C52467   4.029   2.811   4.489  0.5160 -0.9136  0.8713
  398MOL0     C52468   4.038   2.716   4.566  1.0023  0.7638  0.2741
  398MOL0     C52469   3.534   3.321   4.287 -0.3350  0.7960 -0.3086
  398MOL0     C52470   3.423   3.398   4.327 -0.7706 -0.4940  0.3483
  398MOL0     H52471   3.177   3.744   4.387 -0.1991 -0.4516  0.5228
  398MOL0     H52472   3.000   3.887   4.454  2.0935 -0.3419 -0.1355
  398MOL0     H52473   2.620   3.841   4.414 -0.2677  0.5507  0.9702
  398MOL0     H52474   2.771   3.930   4.414 -0.6683 -1.1182 -2.5004
  398MOL0     H52475   2.556   4.048   4.495  0.1385 -0.4363 -0.8002
  398MOL0     H52476   2.705   4.075   4.592 -0.7434 -0.4363  2.8238
  398MOL0     H52477   2.625   3.897   4.756  0.3220  1.9370  1.2019
  398MOL0     H52478   2.479   3.894   4.668  0.9007  0.2043  0.2447
  398MOL0     H52479   2.584   4.152   4.774  0.1243  0.4225 -2.0996
  398MOL0     H52480   2.433   4.111   4.691 -0.1862 -0.1797 -0.4714
  398MOL0     H52481   2.390   4.140   4.930  1.6894  0.6850  1.3438
  398MOL0     H52482   2.530   4.034   4.969 -1.1007  1.4365  1.8638
  398MOL0     H52483   2.377   3.851   4.837 -0.8022  2.1387 -3.7132
  398MOL0     H52484   2.259   3.981   4.839  0.8723  0.2427 -0.6386
  398MOL0     H52485   2.390   3.861   5.097  0.1448  2.2422  0.8185
  398MOL0     H52486   2.267   3.971   5.098  1.6508  1.4198 -0.6237
  398MOL0     H52487   2.182   3.725   5.124  2.4694  0.4851  0.5191
  398MOL0     H52488   2.240   3.681   4.969 -0.9933 -1.5196  2.5682
  398MOL0     H52489   2.021   3.976   5.074 -1.5075  1.2495 -0.1231
  398MOL0     H52490   1.756   4.040   4.867 -1.2840 -0.6396 -0.6595
  398MOL0     H52491   1.739   4.010   5.039  1.9115  0.2695  1.0793
  398MOL0     H52492   1.605   3.798   4.971  2.4471 -1.0677 -1.1309
  398MOL0     H52493   1.645   3.823   4.812  0.8300  1.5899 -1.2423
  398MOL0     H52494   1.504   4.038   4.962  2.0944 -0.4973  0.3551
  398MOL0     H52495   1.484   4.001   4.783 -1.9132  0.0633 -0.4902
  398MOL0     H52496   1.287   3.944   4.933  0.1847  0.0225  2.0784
  398MOL0     H52497   1.393   3.833   5.021 -0.6612 -1.2455 -1.6061
  398MOL0     H52498   1.242   3.579   4.674 -1.1090  2.8573  0.9617
  398MOL0     H52499   1.114   3.396   4.746  0.7547 -1.2367  0.3038
  398MOL0     H52500   0.731   3.273   4.999 -0.7570 -0.1642  0.3192
  398MOL0     H52501   0.586   3.102   5.082 -1.4089  0.1149 -1.1587
  398MOL0     H52502   0.471   2.925   4.952  1.9876 -1.8390 -1.5758
  398MOL0     H52503   0.447   2.922   5.125 -2.7062 -0.8709  0.2813
  398MOL0     H52504   0.426   2.657   5.093  0.7837 -1.2283 -0.5151
  398MOL0     H52505   0.409   2.692   4.919  4.5182 -1.7010  0.7643
  398MOL0     H52506   0.210   2.856   5.001 -0.9768  0.3352  1.2271
  398MOL0     H52507   0.215   2.766   5.152 -0.1917  1.4058 -0.4471
  398MOL0     H52508   0.053   2.685   4.973  0.0015  2.3808  3.3402
  398MOL0     H52509   0.186   2.632   4.881 -0.5696  2.3068 -0.7984
  398MOL0     H52510   0.121   2.532   5.164 -3.4831 -1.0486  0.3773
  398MOL0     H52511   0.255   2.478   5.051 -0.0561  0.0470  3.1199
  398MOL0     H52512   0.085   2.394   4.897 -0.8650  3.1805 -1.6549
  398MOL0     H52513  -0.047   2.470   4.981 -0.2651  0.6900  1.6615
  398MOL0     H52514   0.123   2.271   5.124 -1.2289  0.4882  1.3025
  398MOL0     H52515  -0.022   2.338   5.176 -1.0086 -3.1001  0.8242
  398MOL0     H52516  -0.072   2.107   5.089  0.1100  1.2661  0.8643
  398MOL0     H52517  -0.007   2.156   4.930 -0.7951 -1.7297 -0.9112
  398MOL0     H52518   0.865   2.801   4.938 -1.6966  0.0460  0.0574
  398MOL0     H52519   1.018   3.011   4.863 -0.5033 -0.9943 -0.9802
  398MOL0     H52520   1.066   3.590   5.128  3.2466  4.7057  1.4379
  398MOL0     H52521   1.215   3.755   5.069  0.2976  1.5432 -1.1120
  398MOL0     H52522   2.782   3.534   4.605  0.5793 -2.9383 -0.1185
  398MOL0     H52523   2.980   3.400   4.550 -0.7166  0.3506  1.4025
  398MOL0     H52524   3.539   3.469   4.642  1.0440 -0.2565 -0.3833
  398MOL0     H52525   3.740   3.368   4.562 -1.6005  1.0040  0.5843
  398MOL0     H52526   3.737   3.179   4.128  1.8853  2.4890  0.6603
  398MOL0     H52527   3.658   3.086   4.251 -1.0493 -0.1990  0.7954
  398MOL0     H52528   3.889   2.998   4.159 -1.5847 -0.1427 -1.1669
  398MOL0     H52529   3.959   3.133   4.264 -0.8394  0.1435 -1.8126
  398MOL0     H52530   3.796   2.909   4.359  0.2294 -0.9281 -0.7183
  398MOL0     H52531   3.878   3.041   4.459  1.3361 -0.0004 -1.1253
  398MOL0     H52532   4.043   2.848   4.295  0.1451 -0.1107  1.5824
  398MOL0     H52533   4.086   2.996   4.395 -0.0779  0.6850  0.7505
  398MOL0     H52534   4.039   2.628   4.626 -3.9701  1.2502  1.5167
  398MOL0     H52535   3.539   3.291   4.183  0.1826 -1.9046  0.4143
  398MOL0     H52536   3.337   3.411   4.263 -1.6923 -2.0967  1.2146
  399MOL0     O52537   6.185   1.578   6.812  0.4367 -0.1212 -0.2362
  399MOL0     C52538   6.225   1.695   6.834 -0.5067  0.0295  0.2851
  399MOL0     O52539   6.158   1.808   6.804  0.0450 -0.0176 -0.0196
  399MOL0     C52540   6.035   1.823   6.741 -0.6528  0.2442  0.5084
  399MOL0     C52541   5.989   1.721   6.649  0.1285  0.3855  0.0036
  399MOL0     C52542   5.860   1.732   6.585 -0.5044  0.2217 -0.8633
  399MOL0     C52543   5.775   1.830   6.632 -0.9252  0.2434  0.1840
  399MOL0     O52544   5.644   1.839   6.582 -0.8037  0.3235  0.4086
  399MOL0     C52545   5.559   1.744   6.639 -0.5172  0.3350 -0.0995
  399MOL0     C52546   5.431   1.721   6.552 -0.5521 -0.1512 -1.1630
  399MOL0     C52547   5.362   1.860   6.541 -0.4008  1.3171  0.3143
  399MOL0     C52548   5.240   1.843   6.458  0.3939 -0.6180  0.4784
  399MOL0     C52549   5.136   1.757   6.527  0.5496  0.3077  0.9264
  399MOL0     C52550   5.014   1.740   6.435  0.3518  0.4313  0.6295
  399MOL0     C52551   4.890   1.691   6.516  0.0497  0.0129  0.2750
  399MOL0     C52552   4.810   1.793   6.589 -0.3091  0.4517 -0.0960
  399MOL0     N52553   4.706   1.879   6.504 -0.2407  0.5358 -0.1629
  399MOL0     C52554   4.575   1.900   6.546  0.5825  0.3548 -0.1849
  399MOL0     C52555   4.501   1.951   6.447 -0.1639 -0.7327  0.2344
  399MOL0     C52556   4.367   2.021   6.465 -0.4776 -1.2863 -0.0163
  399MOL0     C52557   4.252   1.930   6.417 -0.7142 -0.2860 -0.1394
  399MOL0     C52558   4.120   1.999   6.411 -0.4904 -0.8055 -0.2400
  399MOL0     C52559   4.010   1.904   6.377  0.5042 -0.2760  1.4745
  399MOL0     O52560   3.974   1.836   6.493  0.6591 -0.1449  0.2500
  399MOL0     C52561   3.840   1.823   6.526 -0.4125  0.0325 -0.6455
  399MOL0     C52562   3.803   1.699   6.578  0.5618 -0.2304 -0.1850
  399MOL0     C52563   3.676   1.676   6.633  0.1549 -0.0153 -0.3539
  399MOL0     C52564   3.590   1.784   6.628  0.5326 -0.4657 -0.0361
  399MOL0     C52565   3.453   1.768   6.698 -0.1950  0.7946  0.8234
  399MOL0     O52566   3.348   1.851   6.658  0.3526  0.2530  0.4656
  399MOL0     C52567   3.222   1.828   6.717  0.2410 -0.3061  0.1317
  399MOL0     C52568   3.157   1.928   6.770 -0.3984 -0.3728  0.2439
  399MOL0     C52569   3.031   1.909   6.820 -0.0348 -1.0273  0.6123
  399MOL0     C52570   2.956   1.796   6.811 -0.4783 -0.0258 -0.1755
  399MOL0     O52571   2.831   1.800   6.874  0.4554  0.0246  0.4328
  399MOL0     C52572   2.749   1.677   6.878 -1.0796 -0.8850  0.5991
  399MOL0     C52573   2.686   1.649   6.744  0.0489  0.3598 -1.1867
  399MOL0     C52574   2.550   1.579   6.767  0.3273 -0.2520  0.1706
  399MOL0     C52575   2.457   1.589   6.645 -0.5392 -0.8856  0.8999
  399MOL0     C52576   2.321   1.530   6.675  0.3451 -0.4368  0.0395
  399MOL0     C52577   2.234   1.590   6.791 -0.6305  0.3610  0.8293
  399MOL0     C52578   2.201   1.736   6.752 -0.6245  0.0280 -0.2850
  399MOL0     C52579   2.084   1.784   6.843 -0.0478  0.5720  0.0603
  399MOL0    Cl52580   1.932   1.722   6.753 -0.1824  0.0530  0.1206
  399MOL0     C52581   3.015   1.690   6.738  0.3754 -0.1135  0.3658
  399MOL0     C52582   3.154   1.704   6.703  0.2243 -0.0969  0.0457
  399MOL0     O52583   3.444   1.682   6.783  0.3455  0.2228  0.0072
  399MOL0     C52584   3.621   1.907   6.572  0.1122 -0.0964 -0.0777
  399MOL0     C52585   3.753   1.921   6.523  0.5010 -0.0071 -0.0655
  399MOL0     N52586   4.588   1.955   6.339 -0.1245 -0.6833  0.6977
  399MOL0     N52587   4.710   1.923   6.381 -0.4653 -0.1606 -0.0457
  399MOL0     C52588   5.818   1.927   6.726  0.5312  0.5113  0.1648
  399MOL0     C52589   5.953   1.926   6.777  0.2884 -0.0215 -0.4732
  399MOL0     C52590   6.351   1.713   6.902  0.2176 -0.8921 -0.2348
  399MOL0     C52591   6.455   1.621   6.903  0.2323 -0.1510  0.6522
  399MOL0     C52592   6.586   1.654   6.948  0.3503  0.5279  0.3813
  399MOL0     C52593   6.608   1.775   7.010  0.2324  0.0765 -0.3292
  399MOL0     O52594   6.725   1.834   7.052  0.2229  0.5481  0.0493
  399MOL0     C52595   6.830   1.738   7.058  0.4092 -0.0474 -0.7249
  399MOL0     C52596   6.953   1.793   7.119  1.0168 -0.0855  0.0314
  399MOL0     C52597   7.073   1.700   7.118 -0.0613  0.0070 -0.4071
  399MOL0     C52598   7.144   1.732   6.985 -0.2306  0.1159 -0.3180
  399MOL0     C52599   7.244   1.848   7.005  0.8603 -0.2335 -0.6634
  399MOL0     C52600   7.305   1.951   7.037  0.4204  0.5443  0.0820
  399MOL0     C52601   6.501   1.867   7.020  1.3969  0.0582 -0.7063
  399MOL0     C52602   6.378   1.836   6.966  0.2350  0.3093  0.1323
  399MOL0     H52603   6.048   1.637   6.615 -0.5429  0.1635 -0.6209
  399MOL0     H52604   5.822   1.668   6.506 -1.9322 -2.0298  1.4807
  399MOL0     H52605   5.535   1.787   6.737  3.1767  0.2219  1.0195
  399MOL0     H52606   5.617   1.651   6.646  0.2207  0.8291  0.5752
  399MOL0     H52607   5.368   1.642   6.596 -1.4509 -0.5334 -3.0391
  399MOL0     H52608   5.471   1.683   6.458 -2.6516 -0.8404 -1.8378
  399MOL0     H52609   5.424   1.930   6.484  0.9457  0.4983  0.7294
  399MOL0     H52610   5.331   1.897   6.639 -2.9667 -1.5614  0.7441
  399MOL0     H52611   5.197   1.943   6.446  1.5189 -0.2977 -1.2884
  399MOL0     H52612   5.267   1.804   6.359  1.6717 -1.2004  1.0286
  399MOL0     H52613   5.106   1.808   6.620 -2.4084 -0.5175  0.5446
  399MOL0     H52614   5.170   1.656   6.550  0.2967  0.1906  0.8012
  399MOL0     H52615   5.035   1.674   6.351  2.0964  0.8812  0.6806
  399MOL0     H52616   4.996   1.839   6.390  2.0323  1.0388  1.2197
  399MOL0     H52617   4.825   1.630   6.453  3.7716 -2.3300 -1.7060
  399MOL0     H52618   4.930   1.614   6.584  2.3510  1.8819  1.1680
  399MOL0     H52619   4.877   1.868   6.633  0.7784 -0.4662 -0.1446
  399MOL0     H52620   4.763   1.740   6.672 -0.6096 -0.1634 -0.6477
  399MOL0     H52621   4.540   1.908   6.648 -1.4703 -0.3633 -0.7936
  399MOL0     H52622   4.367   2.122   6.425 -1.1524 -1.8020 -1.3748
  399MOL0     H52623   4.350   2.033   6.573  0.9605  1.2785  0.0033
  399MOL0     H52624   4.249   1.847   6.489  3.3101 -0.0886  0.4926
  399MOL0     H52625   4.279   1.881   6.323  1.5945  0.6470 -0.0374
  399MOL0     H52626   4.097   2.049   6.505  3.7647  1.6681 -0.2283
  399MOL0     H52627   4.128   2.077   6.334 -1.0967 -0.1695  0.3323
  399MOL0     H52628   4.044   1.837   6.298  2.5695  0.4013  1.7234
  399MOL0     H52629   3.932   1.967   6.332  0.9086 -0.5651  0.3358
  399MOL0     H52630   3.876   1.620   6.563  0.3248 -0.2983 -1.0973
  399MOL0     H52631   3.631   1.587   6.677  0.3297 -0.0360 -0.2171
  399MOL0     H52632   3.208   2.024   6.773 -0.5079 -0.3020 -0.1009
  399MOL0     H52633   2.980   1.989   6.873 -0.7460 -2.4859  2.2436
  399MOL0     H52634   2.673   1.706   6.952 -0.4589  1.1775  0.5158
  399MOL0     H52635   2.810   1.597   6.921 -0.2729 -0.3999  0.3800
  399MOL0     H52636   2.758   1.587   6.690  3.0568  0.5652  2.2195
  399MOL0     H52637   2.679   1.747   6.696  0.9559  1.3267  0.5600
  399MOL0     H52638   2.493   1.624   6.849 -0.7904  1.4689 -1.4784
  399MOL0     H52639   2.570   1.475   6.797 -0.2986 -0.3060  0.4220
  399MOL0     H52640   2.446   1.696   6.624  1.5393 -0.4239  1.8809
  399MOL0     H52641   2.501   1.538   6.559 -2.7321 -1.2363 -0.0738
  399MOL0     H52642   2.330   1.423   6.696 -2.4504 -1.0837 -1.5752
  399MOL0     H52643   2.263   1.533   6.582 -2.0082  2.0566  1.4753
  399MOL0     H52644   2.291   1.579   6.884 -1.0148 -0.0768  1.0217
  399MOL0     H52645   2.141   1.532   6.801 -0.6810  0.7311  3.0207
  399MOL0     H52646   2.295   1.788   6.769 -0.8414  0.1717  0.5294
  399MOL0     H52647   2.182   1.743   6.644 -1.7571  0.2297 -0.0904
  399MOL0     H52648   2.062   1.890   6.853 -0.2536  0.4325  1.3270
  399MOL0     H52649   2.081   1.744   6.945  2.7946 -1.7943 -0.6423
  399MOL0     H52650   2.975   1.590   6.727  1.2659 -0.3571 -0.8534
  399MOL0     H52651   3.207   1.618   6.662  1.6954  0.9946 -0.4252
  399MOL0     H52652   3.554   1.990   6.553  2.0007  1.6356  0.4412
  399MOL0     H52653   3.789   2.020   6.498 -0.3133  0.7376  1.5649
  399MOL0     H52654   5.750   2.006   6.754 -2.3169 -1.4040 -0.9247
  399MOL0     H52655   5.995   2.000   6.845 -1.5835  2.0297 -1.4360
  399MOL0     H52656   6.432   1.527   6.854 -1.3292  1.1631 -1.2811
  399MOL0     H52657   6.663   1.578   6.949 -0.3589 -0.2141  0.0089
  399MOL0     H52658   6.845   1.710   6.954 -0.1577  0.5828 -0.9788
  399MOL0     H52659   6.798   1.649   7.113 -0.8082  1.4523  1.1405
  399MOL0     H52660   6.977   1.892   7.078  0.8377 -0.8188 -1.9372
  399MOL0     H52661   6.932   1.815   7.224  3.9404 -2.0266  1.1358
  399MOL0     H52662   7.045   1.594   7.111 -0.4322  0.1255 -0.7463
  399MOL0     H52663   7.141   1.705   7.203 -0.3249  0.7604 -0.2345
  399MOL0     H52664   7.200   1.645   6.948  2.3317  0.9623  1.3232
  399MOL0     H52665   7.073   1.766   6.909  1.3610  3.0514 -0.6260
  399MOL0     H52666   7.345   2.043   7.076  0.2228  0.3903  0.6519
  399MOL0     H52667   6.504   1.963   7.071  0.9044  0.7857 -1.9986
  399MOL0     H52668   6.302   1.914   6.969  0.7069  0.8290 -0.9877
  400MOL0     O52669   3.353   7.368   3.303 -0.5588  0.4385 -0.8010
  400MOL0     C52670   3.389   7.468   3.238 -0.1865 -0.5407 -0.2790
  400MOL0     O52671   3.325   7.586   3.230 -0.4630 -0.1528 -0.7044
  400MOL0     C52672   3.207   7.592   3.298 -0.1074 -0.1244 -0.3622
  400MOL0     C52673   3.202   7.663   3.421  0.1114 -0.0487  0.2376
  400MOL0     C52674   3.086   7.673   3.508 -0.4634  0.2194 -0.5443
  400MOL0     C52675   2.969   7.609   3.460 -0.0618  0.3398 -0.3836
  400MOL0     O52676   2.860   7.616   3.548 -0.2662 -0.4500 -0.1671
  400MOL0     C52677   2.743   7.547   3.510 -0.1691 -0.2292 -0.6043
  400MOL0     C52678   2.641   7.567   3.626  0.2650  0.6029  0.1241
  400MOL0     C52679   2.510   7.491   3.589  0.1591 -0.0502  0.2037
  400MOL0     C52680   2.383   7.543   3.656  0.5254  0.7605  0.9774
  400MOL0     C52681   2.263   7.457   3.606 -0.3593  0.3332  0.2644
  400MOL0     C52682   2.133   7.501   3.667 -0.2874 -0.1944 -0.0023
  400MOL0     C52683   2.027   7.395   3.647  0.5598  0.8328  0.3414
  400MOL0     C52684   1.896   7.450   3.696  0.5165 -0.9037  1.2306
  400MOL0     N52685   1.785   7.391   3.622  0.2859 -0.2891  0.1240
  400MOL0     C52686   1.766   7.415   3.491 -0.2558  0.1862 -0.2624
  400MOL0     C52687   1.633   7.383   3.463  0.2130 -0.4673  0.1246
  400MOL0     C52688   1.572   7.386   3.329 -0.5694  0.4625  0.6110
  400MOL0     C52689   1.443   7.310   3.322  0.4444  0.2709  0.5916
  400MOL0     C52690   1.456   7.163   3.324 -0.6022 -0.0299 -0.0987
  400MOL0     C52691   1.321   7.088   3.323  0.0796  0.3543  0.5217
  400MOL0     O52692   1.247   7.086   3.197 -0.1006  0.0349 -0.3468
  400MOL0     C52693   1.146   7.000   3.187  0.4389  0.5424  0.2525
  400MOL0     C52694   1.078   6.942   3.301 -0.3565  0.5798  1.1749
  400MOL0     C52695   0.985   6.843   3.288 -1.2522 -0.6424  0.9318
  400MOL0     C52696   0.935   6.808   3.161 -0.6505 -0.0369 -0.3601
  400MOL0     C52697   0.824   6.706   3.154 -0.2964 -1.1137  0.1212
  400MOL0     O52698   0.755   6.706   3.025 -0.0403  0.6435 -0.4824
  400MOL0     C52699   0.650   6.620   3.008  0.2548  0.0702 -0.2271
  400MOL0     C52700   0.662   6.499   2.948  0.3027  0.2191  0.1662
  400MOL0     C52701   0.557   6.418   2.920 -0.1956 -0.0449  0.4616
  400MOL0     C52702   0.423   6.459   2.942  0.0937  0.6913  0.3418
  400MOL0     O52703   0.312   6.389   2.906 -0.3873 -0.4013 -0.4842
  400MOL0     C52704   0.323   6.246   2.914 -0.4260  0.6634 -0.6490
  400MOL0     C52705   0.180   6.179   2.925  0.4699  1.2539  0.0672
  400MOL0     C52706   0.161   6.120   2.779  0.2413 -0.9348  1.2438
  400MOL0     C52707   0.021   6.067   2.755 -0.4507 -1.0544 -0.3880
  400MOL0     C52708   0.016   6.007   2.614 -0.1117 -0.4289 -0.0970
  400MOL0     C52709  -0.123   5.948   2.573  0.0713  1.0325  0.9497
  400MOL0     C52710  -0.120   5.848   2.450 -0.6192  0.2286 -0.2288
  400MOL0     C52711  -0.246   5.770   2.408  0.5055  0.0779 -0.2471
  400MOL0    Cl52712  -0.351   5.888   2.338 -0.3219 -0.1104  0.0157
  400MOL0     C52713   0.403   6.587   3.011 -0.1623  1.1348 -0.0320
  400MOL0     C52714   0.518   6.662   3.043 -0.0710 -0.1060 -1.1313
  400MOL0     O52715   0.810   6.630   3.248  0.3017  0.3148 -0.6021
  400MOL0     C52716   0.979   6.875   3.050 -0.2296  0.1030 -0.2955
  400MOL0     C52717   1.088   6.968   3.062 -0.1357 -0.3764  0.6112
  400MOL0     N52718   1.587   7.323   3.576 -0.2921 -0.2067 -0.1027
  400MOL0     N52719   1.670   7.334   3.677 -0.6182  0.5157 -0.2951
  400MOL0     C52720   2.962   7.555   3.332  0.1231 -0.4823 -0.1252
  400MOL0     C52721   3.080   7.538   3.251  0.4683 -0.4808 -0.3179
  400MOL0     C52722   3.510   7.460   3.163 -0.7877  0.2418  0.6471
  400MOL0     C52723   3.572   7.336   3.138 -0.7120  0.9683 -0.6160
  400MOL0     C52724   3.693   7.330   3.069 -0.9510 -0.0999  0.2399
  400MOL0     C52725   3.763   7.443   3.031 -0.1948 -0.6011  1.0543
  400MOL0     O52726   3.876   7.443   2.959 -0.2101 -1.0804 -0.0311
  400MOL0     C52727   3.971   7.334   2.968 -0.0173 -0.2978  0.9809
  400MOL0     C52728   4.070   7.350   2.857  0.2067  0.1514  0.0235
  400MOL0     C52729   4.179   7.436   2.895  0.8680 -0.1424 -0.6722
  400MOL0     C52730   4.245   7.513   2.781 -0.0219  0.4702  0.0942
  400MOL0     C52731   4.278   7.438   2.658 -0.0098 -0.5593 -0.0229
  400MOL0     C52732   4.297   7.392   2.546 -0.0959 -0.1505  0.3653
  400MOL0     C52733   3.703   7.572   3.054 -0.4571 -0.2373  0.6506
  400MOL0     C52734   3.578   7.577   3.119  0.3890  0.8703 -0.6058
  400MOL0     H52735   3.304   7.696   3.440 -0.1029  0.2245  0.9718
  400MOL0     H52736   3.093   7.723   3.604 -0.6531 -0.4888 -0.1504
  400MOL0     H52737   2.764   7.440   3.496  0.0838 -0.5171  1.6033
  400MOL0     H52738   2.710   7.594   3.417 -0.0257 -1.3282 -1.2274
  400MOL0     H52739   2.619   7.672   3.647  1.7546  0.4273  3.2899
  400MOL0     H52740   2.676   7.532   3.724  3.4202  1.9275 -0.4159
  400MOL0     H52741   2.517   7.383   3.603  0.0478 -0.1697 -0.5758
  400MOL0     H52742   2.502   7.509   3.481  2.4362  0.2002  0.0307
  400MOL0     H52743   2.389   7.522   3.763  4.0137  1.5884  1.0772
  400MOL0     H52744   2.366   7.651   3.652  1.6916  0.9262 -0.0018
  400MOL0     H52745   2.280   7.352   3.634 -2.1368  1.0796  5.2380
  400MOL0     H52746   2.258   7.464   3.497 -0.7584 -2.3429  0.0376
  400MOL0     H52747   2.105   7.590   3.611 -1.4055 -0.8104 -0.4434
  400MOL0     H52748   2.140   7.531   3.772 -0.1851  1.0026 -0.3306
  400MOL0     H52749   2.011   7.372   3.541 -0.5578 -1.0369  0.8703
  400MOL0     H52750   2.055   7.304   3.700 -2.3641 -1.6866 -2.0609
  400MOL0     H52751   1.905   7.557   3.677  1.2709 -1.3773 -1.6660
  400MOL0     H52752   1.881   7.434   3.803  0.7260  1.5010  1.6834
  400MOL0     H52753   1.827   7.467   3.418  2.8069 -1.9711  0.5131
  400MOL0     H52754   1.637   7.336   3.257 -0.6005 -0.5184  1.2462
  400MOL0     H52755   1.543   7.485   3.292  1.6450  1.0446  0.2583
  400MOL0     H52756   1.388   7.338   3.231 -0.7154 -0.4060  1.0595
  400MOL0     H52757   1.378   7.338   3.406 -0.3599 -0.9241  0.4091
  400MOL0     H52758   1.523   7.122   3.249  0.8640 -0.1755  1.2200
  400MOL0     H52759   1.507   7.137   3.417 -0.9907 -1.3190 -0.2332
  400MOL0     H52760   1.269   7.132   3.409  1.5799 -0.2154  1.7742
  400MOL0     H52761   1.338   6.980   3.333  0.9241  0.5029  0.7663
  400MOL0     H52762   1.118   6.949   3.402  5.0931 -0.5440 -0.5408
  400MOL0     H52763   0.950   6.803   3.382  1.4851  1.0302  2.8120
  400MOL0     H52764   0.764   6.461   2.948 -0.0514 -0.7470  0.5113
  400MOL0     H52765   0.578   6.325   2.869 -1.9104  0.6675 -1.7297
  400MOL0     H52766   0.379   6.214   3.002 -3.3752  0.8452  1.4435
  400MOL0     H52767   0.380   6.208   2.829  1.6305  2.6318 -0.2414
  400MOL0     H52768   0.101   6.250   2.953 -1.6883 -0.8713 -0.3414
  400MOL0     H52769   0.187   6.097   2.996 -1.3899  1.1270  0.1449
  400MOL0     H52770   0.228   6.037   2.756 -0.1619 -1.0050  0.2831
  400MOL0     H52771   0.179   6.201   2.707  1.9598 -1.0668  1.4962
  400MOL0     H52772  -0.003   6.000   2.839 -1.0298 -2.7210 -1.8241
  400MOL0     H52773  -0.051   6.149   2.751 -0.0471 -0.6537  0.2926
  400MOL0     H52774   0.086   5.923   2.613 -2.3018 -2.3859 -1.3248
  400MOL0     H52775   0.048   6.078   2.537  0.9688 -1.3950 -0.5752
  400MOL0     H52776  -0.182   6.036   2.546 -0.4635 -0.1831 -2.2995
  400MOL0     H52777  -0.170   5.896   2.657  1.0057 -1.6851 -0.0933
  400MOL0     H52778  -0.082   5.907   2.366  1.7336 -1.0761 -0.1604
  400MOL0     H52779  -0.039   5.776   2.458  1.1204  1.7588 -2.7033
  400MOL0     H52780  -0.293   5.713   2.489  0.0789 -0.9842 -1.2162
  400MOL0     H52781  -0.230   5.699   2.327 -2.7999 -2.5364  1.1428
  400MOL0     H52782   0.305   6.624   3.039 -0.7525  1.5132 -2.3885
  400MOL0     H52783   0.496   6.757   3.090  4.0076  0.1988  0.5045
  400MOL0     H52784   0.933   6.867   2.952 -0.6408  0.8532 -0.1685
  400MOL0     H52785   1.120   7.014   2.970  0.7903  0.9852  1.5713
  400MOL0     H52786   2.874   7.517   3.281 -0.6652 -0.2891  1.0505
  400MOL0     H52787   3.076   7.499   3.150  0.7417 -2.3739  0.3682
  400MOL0     H52788   3.527   7.240   3.163  1.6974 -0.0185  0.2221
  400MOL0     H52789   3.731   7.232   3.042  3.9559  1.8567 -0.9996
  400MOL0     H52790   3.917   7.240   2.956  1.4059 -0.9418 -0.9459
  400MOL0     H52791   3.999   7.332   3.074 -2.6808  0.2170  1.7626
  400MOL0     H52792   4.119   7.254   2.838  3.0216  1.2983  0.9236
  400MOL0     H52793   4.029   7.388   2.763  0.8676 -1.3741 -0.9277
  400MOL0     H52794   4.257   7.371   2.936 -1.0118 -2.1426 -0.0123
  400MOL0     H52795   4.157   7.501   2.980  2.3570  2.5011 -2.1921
  400MOL0     H52796   4.186   7.599   2.748  0.8812 -0.0555 -3.3026
  400MOL0     H52797   4.333   7.557   2.829 -0.4993  0.4200  1.0411
  400MOL0     H52798   4.305   7.340   2.453 -3.3579 -0.1575 -0.0344
  400MOL0     H52799   3.755   7.663   3.025 -1.0003 -1.0108 -3.3227
  400MOL0     H52800   3.526   7.671   3.138 -1.5393 -0.1000 -0.8370
  401MOL0     O52801   8.952   0.860   7.745  0.2452  0.3732  0.5181
  401MOL0     C52802   9.043   0.774   7.754  0.1567  0.6636 -1.1586
  401MOL0     O52803   9.039   0.647   7.715  0.3029  0.9349 -0.9291
  401MOL0     C52804   8.921   0.582   7.709 -0.1949 -0.1105  0.4357
  401MOL0     C52805   8.907   0.483   7.609  0.2567 -0.4111  0.3836
  401MOL0     C52806   8.794   0.399   7.603  0.0963 -1.2332  0.5183
  401MOL0     C52807   8.693   0.399   7.702 -0.7979  0.6257  0.6323
  401MOL0     O52808   8.582   0.319   7.696  0.8739  0.1084  0.2769
  401MOL0     C52809   8.585   0.221   7.596 -0.9629  1.3396 -0.0234
  401MOL0     C52810   8.476   0.119   7.616 -0.7732  0.1381 -0.7826
  401MOL0     C52811   8.345   0.172   7.563  0.0182  0.2586  0.1462
  401MOL0     C52812   8.238   0.070   7.589 -0.0857  1.0148 -0.2020
  401MOL0     C52813   8.108   0.106   7.531 -0.1402 -0.2173  0.3981
  401MOL0     C52814   8.009  -0.006   7.538  0.0162 -0.5331 -0.5854
  401MOL0     C52815   7.887   0.013   7.446  0.0363 -0.0487  0.6208
  401MOL0     C52816   7.765  -0.070   7.507 -1.0160 -0.2259 -1.4503
  401MOL0     N52817   7.647  -0.054   7.424 -0.4469 -0.0846  0.0596
  401MOL0     C52818   7.625  -0.130   7.311 -0.4770  0.5578  0.1904
  401MOL0     C52819   7.527  -0.064   7.244 -0.3580 -0.1516 -0.0723
  401MOL0     C52820   7.503  -0.117   7.104 -0.2690 -0.7113 -0.0107
  401MOL0     C52821   7.358  -0.101   7.059  0.2129  0.8340 -0.5913
  401MOL0     C52822   7.254  -0.174   7.143 -1.2054 -0.8386 -0.2531
  401MOL0     C52823   7.121  -0.117   7.108 -0.1077 -1.1047 -0.2736
  401MOL0     O52824   7.029  -0.205   7.176  0.6050  0.7869  0.7269
  401MOL0     C52825   6.898  -0.177   7.170  0.5734 -0.6420  0.1859
  401MOL0     C52826   6.807  -0.243   7.254  0.6748  0.9018 -0.2348
  401MOL0     C52827   6.668  -0.225   7.250 -0.1638 -0.5287 -0.2264
  401MOL0     C52828   6.613  -0.130   7.169 -0.0208  0.0200 -0.1750
  401MOL0     C52829   6.466  -0.108   7.160 -0.6853 -0.4084  0.5944
  401MOL0     O52830   6.391  -0.173   7.261  0.6536 -0.2102 -0.3732
  401MOL0     C52831   6.257  -0.158   7.275  0.0740 -0.4766 -0.5123
  401MOL0     C52832   6.165  -0.242   7.225 -0.5304  0.7888  1.3853
  401MOL0     C52833   6.030  -0.212   7.224 -0.5912  0.3703  0.2798
  401MOL0     C52834   5.986  -0.102   7.296 -0.8224  0.1687  1.1608
  401MOL0     O52835   5.865  -0.053   7.285  0.1128 -0.4683  0.5545
  401MOL0     C52836   5.841   0.026   7.171 -0.2786 -0.2108 -0.4323
  401MOL0     C52837   5.730  -0.031   7.075 -0.5738  0.0876 -0.8880
  401MOL0     C52838   5.606  -0.070   7.154 -0.3190  0.8848  0.2190
  401MOL0     C52839   5.495  -0.063   7.048  0.0040 -0.4502  0.3317
  401MOL0     C52840   5.354  -0.068   7.116  0.2514 -0.2262  0.5260
  401MOL0     C52841   5.230  -0.043   7.027 -0.6148 -0.0495  0.5430
  401MOL0     C52842   5.108  -0.073   7.117  0.1491  0.2018 -0.1278
  401MOL0     C52843   4.977  -0.053   7.038  1.0261 -0.5177  0.0853
  401MOL0    Cl52844   4.955  -0.174   6.915 -0.1898 -0.7029 -0.2775
  401MOL0     C52845   6.081  -0.013   7.364 -0.1276 -0.5409  0.5936
  401MOL0     C52846   6.212  -0.041   7.348  0.3778  0.2152  0.6289
  401MOL0     O52847   6.426  -0.013   7.093 -0.4152  0.0782  1.6063
  401MOL0     C52848   6.703  -0.046   7.094 -0.2951 -1.2240 -0.6534
  401MOL0     C52849   6.839  -0.077   7.092 -0.7503 -0.2404 -0.5737
  401MOL0     N52850   7.504   0.054   7.310  0.1359 -0.5883 -0.2381
  401MOL0     N52851   7.572   0.055   7.413  0.0758  0.0648  0.1380
  401MOL0     C52852   8.705   0.499   7.796 -0.2440 -0.8949  0.9881
  401MOL0     C52853   8.812   0.592   7.799  0.5993  0.5212 -0.3309
  401MOL0     C52854   9.179   0.839   7.774 -0.3090 -0.7700 -0.2134
  401MOL0     C52855   9.204   0.975   7.758  0.1999  0.4747 -0.7550
  401MOL0     C52856   9.328   1.030   7.789 -0.1139 -0.3747 -0.3911
  401MOL0     C52857   9.433   0.952   7.832 -0.0924  0.4938 -1.0529
  401MOL0     O52858   9.558   0.993   7.862 -0.0728  0.1729  0.2699
  401MOL0     C52859   9.595   1.127   7.836 -0.0899 -0.1341 -0.2027
  401MOL0     C52860   9.754   1.125   7.847  0.4461 -0.3442 -0.7689
  401MOL0     C52861   9.814   0.990   7.792  0.3271 -0.3376 -0.8450
  401MOL0     C52862   9.968   0.991   7.782  1.0041  0.0807  0.3559
  401MOL0     C52863  10.012   1.102   7.705  0.2262 -0.3176  0.2976
  401MOL0     C52864  10.041   1.185   7.627  0.2412 -0.2159 -0.0757
  401MOL0     C52865   9.408   0.812   7.851 -0.2845  0.1916 -0.0478
  401MOL0     C52866   9.283   0.758   7.827  0.5885 -1.0356  0.5397
  401MOL0     H52867   8.994   0.463   7.548  0.0506  2.8087 -1.1878
  401MOL0     H52868   8.804   0.336   7.515  0.9825  0.7046 -0.8412
  401MOL0     H52869   8.682   0.171   7.601 -0.7718  1.2922 -2.8313
  401MOL0     H52870   8.569   0.265   7.497 -4.0154  1.0146  0.2302
  401MOL0     H52871   8.468   0.085   7.720  0.1632 -1.8706 -1.3239
  401MOL0     H52872   8.492   0.034   7.550 -1.5739 -1.2010  0.6627
  401MOL0     H52873   8.364   0.190   7.457  2.0816  2.4718  0.7869
  401MOL0     H52874   8.329   0.265   7.619 -1.4379 -0.3165  0.7244
  401MOL0     H52875   8.269  -0.024   7.543  0.3332 -1.2289  4.2301
  401MOL0     H52876   8.227   0.062   7.697 -0.7439  1.9198 -0.1860
  401MOL0     H52877   8.122   0.115   7.423  1.7540 -0.9068  0.5419
  401MOL0     H52878   8.070   0.205   7.561  1.5419  1.7545 -3.2582
  401MOL0     H52879   7.983   0.001   7.644  0.1932  1.3639 -0.6244
  401MOL0     H52880   8.049  -0.100   7.498  1.3910 -0.0263 -0.4694
  401MOL0     H52881   7.866   0.120   7.437  2.5513  0.6812  2.3887
  401MOL0     H52882   7.908  -0.032   7.348 -3.2561 -2.5723  0.8802
  401MOL0     H52883   7.749  -0.041   7.611  3.9556  1.4931 -0.8874
  401MOL0     H52884   7.777  -0.178   7.509 -2.7705 -0.4335 -0.5875
  401MOL0     H52885   7.682  -0.216   7.279 -2.1635 -1.6397  2.5778
  401MOL0     H52886   7.520  -0.225   7.115 -0.1260 -0.8380 -1.2937
  401MOL0     H52887   7.572  -0.084   7.025 -0.1021 -2.1352 -0.5063
  401MOL0     H52888   7.346  -0.144   6.960  0.0416 -0.9134  0.1550
  401MOL0     H52889   7.333   0.005   7.074 -1.5878  0.2386  1.0808
  401MOL0     H52890   7.265  -0.280   7.116  0.8828 -0.9015  0.6385
  401MOL0     H52891   7.276  -0.170   7.250 -0.2096  0.7315 -0.4831
  401MOL0     H52892   7.107  -0.112   7.000 -2.1497 -1.5164 -0.0795
  401MOL0     H52893   7.110  -0.016   7.150 -1.4815 -2.0839  1.8859
  401MOL0     H52894   6.850  -0.313   7.325 -3.2130 -0.4321  1.0397
  401MOL0     H52895   6.600  -0.280   7.315 -0.5615 -0.7046 -0.7867
  401MOL0     H52896   6.199  -0.332   7.176 -3.1342  0.1924  0.4974
  401MOL0     H52897   5.962  -0.271   7.164  0.2742 -1.1365  0.7140
  401MOL0     H52898   5.935   0.039   7.117  0.4948 -0.0161  0.9137
  401MOL0     H52899   5.806   0.124   7.206  0.7527  0.5121 -1.3745
  401MOL0     H52900   5.766  -0.119   7.021 -0.1947  0.1665 -0.7700
  401MOL0     H52901   5.712   0.036   6.991 -2.7665  2.0765  1.0361
  401MOL0     H52902   5.592  -0.004   7.240  0.0796 -2.0880  2.7488
  401MOL0     H52903   5.605  -0.174   7.187 -0.1727  0.3257 -1.4672
  401MOL0     H52904   5.492   0.028   6.988 -0.9100  1.0198  2.4879
  401MOL0     H52905   5.502  -0.151   6.984 -0.2300  1.6201 -2.7090
  401MOL0     H52906   5.349   0.014   7.187 -3.5692  0.8740 -0.7701
  401MOL0     H52907   5.333  -0.168   7.157 -2.0748 -1.0471 -2.2691
  401MOL0     H52908   5.228  -0.108   6.938  2.7906  0.8121 -0.2999
  401MOL0     H52909   5.221   0.063   7.003  2.9968  0.7253  2.0415
  401MOL0     H52910   5.117  -0.174   7.158 -0.3556  0.0942 -0.2786
  401MOL0     H52911   5.112  -0.009   7.206  1.0210  0.2220 -0.1705
  401MOL0     H52912   4.970   0.049   6.999  1.2948 -0.5674 -0.0974
  401MOL0     H52913   4.894  -0.076   7.105 -1.2553  0.5836 -2.2010
  401MOL0     H52914   6.054   0.079   7.415  2.2861  1.2881 -1.1744
  401MOL0     H52915   6.284   0.028   7.393 -0.4488  0.6055  1.3841
  401MOL0     H52916   6.657   0.023   7.025  0.4057 -2.4562 -2.4222
  401MOL0     H52917   6.893  -0.010   7.026  0.1646 -2.3071 -2.0186
  401MOL0     H52918   8.627   0.525   7.866 -2.9257  2.5213 -2.8083
  401MOL0     H52919   8.810   0.657   7.886 -2.0406  3.7550 -2.5741
  401MOL0     H52920   9.116   1.036   7.738 -0.2728  1.2852  3.0263
  401MOL0     H52921   9.346   1.136   7.778 -1.4285  0.1872  2.0178
  401MOL0     H52922   9.553   1.198   7.908  1.9325 -0.4585  1.4022
  401MOL0     H52923   9.552   1.162   7.742 -2.4389  2.2447  1.5758
  401MOL0     H52924   9.793   1.215   7.798 -1.1064  1.1889  0.7128
  401MOL0     H52925   9.782   1.130   7.953  3.0627  1.5031 -1.4569
  401MOL0     H52926   9.778   0.951   7.697  0.1168 -0.9664 -0.5149
  401MOL0     H52927   9.795   0.905   7.859 -0.4949 -0.6227 -1.4259
  401MOL0     H52928  10.010   1.008   7.881 -2.5130  2.7634  1.6113
  401MOL0     H52929  10.000   0.894   7.742 -0.0423 -0.6936  1.3373
  401MOL0     H52930  10.068   1.255   7.551 -1.4370 -1.1876 -1.6523
  401MOL0     H52931   9.493   0.759   7.892  0.8469  2.2142  0.3944
  401MOL0     H52932   9.264   0.652   7.840  2.0710 -1.6098 -1.4617
  402MOL0     O52933   4.042   9.486   4.353 -1.0602 -0.3439 -0.0636
  402MOL0     C52934   4.072   9.516   4.240 -0.1178  0.6480 -0.2366
  402MOL0     O52935   4.013   9.603   4.161 -0.0860 -0.5286  0.2062
  402MOL0     C52936   3.896   9.671   4.182 -0.3330  0.2151 -0.0488
  402MOL0     C52937   3.872   9.773   4.093  0.8167 -0.4107 -0.0978
  402MOL0     C52938   3.756   9.847   4.102 -1.0647 -0.4688  0.2932
  402MOL0     C52939   3.659   9.829   4.201  0.2002  0.7396 -0.9674
  402MOL0     O52940   3.559   9.910   4.223  0.3997 -0.2907  0.1228
  402MOL0     C52941   3.476   9.943   4.111 -0.0832  1.2729 -0.1435
  402MOL0     C52942   3.336   9.999   4.161  0.1606  0.3068 -0.3624
  402MOL0     C52943   3.241   9.901   4.235 -0.6422  0.1543  0.0707
  402MOL0     C52944   3.105   9.958   4.282  0.1401 -0.3580 -1.7079
  402MOL0     C52945   3.034   9.856   4.363  0.4571 -0.3252 -0.7597
  402MOL0     C52946   2.907   9.919   4.423 -0.7774 -0.6354 -0.3967
  402MOL0     C52947   2.827   9.801   4.498 -0.2239 -1.3257 -0.3279
  402MOL0     C52948   2.707   9.850   4.581  0.1369  0.1988  0.1780
  402MOL0     N52949   2.609   9.910   4.485 -0.6686 -0.3961 -0.3718
  402MOL0     C52950   2.513   9.839   4.415 -0.5159  0.0945  0.2817
  402MOL0     C52951   2.432   9.927   4.347 -0.1516  1.0309 -0.6734
  402MOL0     C52952   2.315   9.897   4.259  0.2012  0.8497 -0.0072
  402MOL0     C52953   2.331   9.767   4.170  0.9069 -0.3207  0.2340
  402MOL0     C52954   2.203   9.739   4.081 -0.5768 -0.4041  0.3140
  402MOL0     C52955   2.121   9.861   4.049 -0.3900 -0.8911  0.2479
  402MOL0     O52956   2.019   9.801   3.968 -0.7731 -0.0148  0.7391
  402MOL0     C52957   1.903   9.757   4.037 -0.3907  0.6379 -0.7048
  402MOL0     C52958   1.878   9.752   4.178  0.1541  0.4548 -0.2142
  402MOL0     C52959   1.758   9.697   4.219 -0.0649 -0.2013  1.1307
  402MOL0     C52960   1.662   9.646   4.129 -0.2545  0.0184 -0.4999
  402MOL0     C52961   1.541   9.589   4.183  0.6986  0.1764  0.0401
  402MOL0     O52962   1.459   9.530   4.095  0.4344 -0.1888 -0.6057
  402MOL0     C52963   1.339   9.487   4.140 -0.9168  0.2278  0.9946
  402MOL0     C52964   1.254   9.568   4.221  0.0562 -0.2901 -0.0380
  402MOL0     C52965   1.139   9.506   4.271  0.2529  0.3530  0.0322
  402MOL0     C52966   1.105   9.371   4.244  0.0147 -0.6114 -0.9017
  402MOL0     O52967   0.983   9.311   4.275 -0.7301 -0.2920 -0.4405
  402MOL0     C52968   0.888   9.373   4.360  0.4580  0.2330 -0.0479
  402MOL0     C52969   0.804   9.474   4.276  0.6891  0.3522 -0.0585
  402MOL0     C52970   0.698   9.540   4.369  0.5645 -0.1442 -0.1174
  402MOL0     C52971   0.626   9.661   4.299  0.8868 -0.0227  0.3722
  402MOL0     C52972   0.512   9.725   4.379 -0.0492 -0.9136  0.4263
  402MOL0     C52973   0.576   9.833   4.474 -1.3533  0.1317 -0.5685
  402MOL0     C52974   0.507   9.837   4.610  0.0917 -0.4334 -0.0131
  402MOL0     C52975   0.588   9.921   4.713  0.0129 -0.7027  0.2857
  402MOL0    Cl52976   0.569  10.096   4.690  0.1710  0.4710 -0.1314
  402MOL0     C52977   1.185   9.299   4.159 -0.3220 -0.4555 -0.3043
  402MOL0     C52978   1.303   9.355   4.114  0.2773  0.0440  0.2512
  402MOL0     O52979   1.534   9.584   4.305  0.0961  0.0053  0.2519
  402MOL0     C52980   1.691   9.652   3.990 -0.7677  0.8816 -0.1991
  402MOL0     C52981   1.815   9.712   3.945  0.7536  0.2539  0.1595
  402MOL0     N52982   2.501  10.048   4.369 -0.3066  0.3423  0.3823
  402MOL0     N52983   2.600  10.043   4.449 -0.4224  0.1064  0.2372
  402MOL0     C52984   3.680   9.718   4.290 -0.3604 -0.2199  0.0893
  402MOL0     C52985   3.801   9.640   4.282  0.4498 -1.1386 -0.2379
  402MOL0     C52986   4.181   9.425   4.183 -0.3268 -0.0306  1.4905
  402MOL0     C52987   4.240   9.455   4.061  0.1692  0.4944  0.8439
  402MOL0     C52988   4.345   9.383   3.998 -0.4232  0.3799  0.0241
  402MOL0     C52989   4.405   9.282   4.071 -0.7880 -0.1561  0.4478
  402MOL0     O52990   4.510   9.210   4.016 -0.1068 -0.4533  0.0275
  402MOL0     C52991   4.630   9.198   4.082 -0.5778 -0.2483 -0.8953
  402MOL0     C52992   4.720   9.091   4.014  0.3187  0.5401 -0.2034
  402MOL0     C52993   4.657   8.950   4.018  0.2089 -0.1635 -0.4993
  402MOL0     C52994   4.694   8.876   4.152  0.6191 -0.3231 -0.1015
  402MOL0     C52995   4.591   8.904   4.263 -0.0411 -0.3894 -0.2143
  402MOL0     C52996   4.519   8.933   4.352 -0.3517 -0.4205 -0.6468
  402MOL0     C52997   4.350   9.252   4.197 -0.9938 -0.8505 -0.1746
  402MOL0     C52998   4.243   9.319   4.254  0.3964 -0.4028 -0.4658
  402MOL0     H52999   3.939   9.785   4.009  1.4095  0.7567  0.5113
  402MOL0     H53000   3.740   9.924   4.027  1.0248  0.1460  0.4130
  402MOL0     H53001   3.446   9.851   4.060 -4.4867 -0.1077  4.1585
  402MOL0     H53002   3.523  10.017   4.045  1.0629  0.3409 -0.4108
  402MOL0     H53003   3.289  10.043   4.073 -0.3401 -0.4519 -0.4856
  402MOL0     H53004   3.355  10.086   4.226  0.0290  0.2951 -0.3077
  402MOL0     H53005   3.292   9.852   4.319  0.5472  1.1769 -0.0142
  402MOL0     H53006   3.212   9.828   4.160 -0.3363 -0.4578  0.5392
  402MOL0     H53007   3.120  10.043   4.349 -3.3802 -0.8882 -0.0098
  402MOL0     H53008   3.033   9.986   4.205 -3.4857  2.9858  2.3434
  402MOL0     H53009   3.102   9.825   4.443 -1.3627 -1.6134  0.3693
  402MOL0     H53010   3.005   9.771   4.300 -1.3355 -1.7392  1.7659
  402MOL0     H53011   2.838   9.963   4.351 -0.2549 -2.1877 -1.9134
  402MOL0     H53012   2.926  10.000   4.495 -2.1481 -0.5577 -0.0869
  402MOL0     H53013   2.791   9.734   4.419  3.0625 -3.9198  0.1451
  402MOL0     H53014   2.896   9.741   4.558 -1.5516 -0.2939  2.4067
  402MOL0     H53015   2.752   9.924   4.648  3.5162 -1.9749  0.5745
  402MOL0     H53016   2.662   9.765   4.634  0.1731  0.7967  1.1807
  402MOL0     H53017   2.498   9.732   4.423 -4.5374  0.4047 -1.1170
  402MOL0     H53018   2.318   9.983   4.191  5.3076  1.6298  0.7551
  402MOL0     H53019   2.214   9.897   4.300 -0.2189  0.2622 -0.9932
  402MOL0     H53020   2.346   9.673   4.224  5.4115 -1.5522 -2.5715
  402MOL0     H53021   2.416   9.787   4.103  0.4519  0.3089 -0.1730
  402MOL0     H53022   2.238   9.698   3.986 -3.7315 -0.7760 -0.8298
  402MOL0     H53023   2.144   9.661   4.128  1.6510 -1.9103  0.7383
  402MOL0     H53024   2.173   9.925   3.977 -0.3671 -0.7005  0.4311
  402MOL0     H53025   2.079   9.923   4.128 -2.5077 -0.8978 -0.8110
  402MOL0     H53026   1.955   9.778   4.250  1.2544 -1.9362 -0.4383
  402MOL0     H53027   1.746   9.698   4.327 -1.3750 -2.5829  1.0725
  402MOL0     H53028   1.277   9.674   4.232 -2.6096  0.4632 -0.9113
  402MOL0     H53029   1.071   9.566   4.332 -2.2390 -2.5931  0.3743
  402MOL0     H53030   0.937   9.429   4.440  2.5345 -3.0123  1.1491
  402MOL0     H53031   0.834   9.291   4.408  0.8503 -0.8471 -1.3701
  402MOL0     H53032   0.759   9.418   4.194  0.6837  1.7299 -1.0394
  402MOL0     H53033   0.853   9.558   4.226 -2.7400  2.1431 -0.7648
  402MOL0     H53034   0.750   9.582   4.456 -0.4504 -1.6465  1.2590
  402MOL0     H53035   0.620   9.472   4.403 -0.7224  2.1644  1.8465
  402MOL0     H53036   0.700   9.739   4.278 -1.1312  2.1260  0.7338
  402MOL0     H53037   0.581   9.622   4.207  2.9807 -0.7506 -0.3962
  402MOL0     H53038   0.439   9.652   4.416 -2.0010  0.3705 -0.7078
  402MOL0     H53039   0.448   9.784   4.313  1.1658 -0.2712 -0.1976
  402MOL0     H53040   0.562   9.924   4.415 -1.0173  0.0962 -0.7032
  402MOL0     H53041   0.685   9.836   4.482 -1.1703 -1.1321 -1.9870
  402MOL0     H53042   0.408   9.881   4.599 -0.6912 -2.2936 -0.8257
  402MOL0     H53043   0.488   9.737   4.650  0.8314 -0.4192  0.3813
  402MOL0     H53044   0.690   9.880   4.702 -0.5240 -1.9850 -0.1745
  402MOL0     H53045   0.559   9.901   4.816  1.7904 -1.9434  0.5993
  402MOL0     H53046   1.171   9.192   4.146  2.4279 -1.0265  0.8173
  402MOL0     H53047   1.377   9.292   4.066  1.2414  0.9881  0.4619
  402MOL0     H53048   1.627   9.612   3.912  0.6245  0.0292 -0.9459
  402MOL0     H53049   1.835   9.713   3.838  3.8166 -3.3255  0.4818
  402MOL0     H53050   3.591   9.704   4.349 -0.2753  1.6783  0.7584
  402MOL0     H53051   3.816   9.563   4.357 -4.2076 -1.6682  0.4402
  402MOL0     H53052   4.186   9.519   3.992 -0.3245  0.6331  1.3527
  402MOL0     H53053   4.378   9.399   3.896  0.5790 -0.1180  0.2649
  402MOL0     H53054   4.616   9.168   4.186 -1.3046 -1.6913 -1.3781
  402MOL0     H53055   4.687   9.291   4.079  0.3450 -0.4841  3.3148
  402MOL0     H53056   4.743   9.130   3.914  1.0347 -0.0894 -0.2906
  402MOL0     H53057   4.815   9.083   4.066  0.9130  1.6891 -1.0533
  402MOL0     H53058   4.689   8.900   3.926  0.6952  1.3410 -1.1813
  402MOL0     H53059   4.549   8.954   4.007  0.2636 -1.0192 -1.4948
  402MOL0     H53060   4.698   8.769   4.129  1.0466  0.1353 -2.3715
  402MOL0     H53061   4.794   8.901   4.189  0.0318  2.3618 -0.1226
  402MOL0     H53062   4.447   8.944   4.431  2.2007  1.4187  1.6117
  402MOL0     H53063   4.388   9.173   4.261  1.1227  1.1233  1.1573
  402MOL0     H53064   4.199   9.301   4.352  1.9699  0.6968  0.4845
  403MOL0     O53065   4.906   1.314   1.907 -0.6021  0.2798 -0.3464
  403MOL0     C53066   4.899   1.228   1.994 -0.2975  0.1296  1.0598
  403MOL0     O53067   4.784   1.177   2.045  0.1128 -0.1932  0.1106
  403MOL0     C53068   4.673   1.186   1.959 -0.5037 -0.0385  0.1632
  403MOL0     C53069   4.651   1.088   1.859  0.5393  0.0266  0.9994
  403MOL0     C53070   4.536   1.096   1.785  0.3232  0.2969 -0.0123
  403MOL0     C53071   4.440   1.201   1.809  0.8610  0.0926 -0.2109
  403MOL0     O53072   4.324   1.197   1.742  0.2678  0.1626  0.3055
  403MOL0     C53073   4.256   1.319   1.710 -0.1005  0.3035 -0.0659
  403MOL0     C53074   4.173   1.306   1.584 -0.3486  0.0239 -0.1745
  403MOL0     C53075   4.047   1.227   1.595 -0.1210 -0.6493  0.4066
  403MOL0     C53076   3.953   1.300   1.506 -0.2358  0.0464  0.6457
  403MOL0     C53077   3.811   1.222   1.504 -1.1101 -0.3107 -0.3789
  403MOL0     C53078   3.821   1.096   1.427 -0.4609 -0.2074 -0.0079
  403MOL0     C53079   3.682   1.023   1.418 -0.4158 -0.1530  0.6384
  403MOL0     C53080   3.600   1.083   1.300 -0.5262  0.3461  0.2858
  403MOL0     N53081   3.474   1.020   1.300  0.8221  0.4884 -0.1897
  403MOL0     C53082   3.460   0.884   1.267 -0.5268  0.5646 -1.9566
  403MOL0     C53083   3.327   0.857   1.283 -0.3419  0.2994  0.5194
  403MOL0     C53084   3.264   0.729   1.266  0.5306 -0.4777 -0.7517
  403MOL0     C53085   3.158   0.744   1.162 -0.2652 -0.3520  0.2667
  403MOL0     C53086   3.069   0.619   1.144 -0.5179  0.2364  0.1837
  403MOL0     C53087   2.999   0.636   1.009 -0.3644 -0.2863 -0.2695
  403MOL0     O53088   2.936   0.763   1.000 -0.4576 -0.2568  0.4804
  403MOL0     C53089   2.816   0.792   1.051 -0.5537  0.7400  0.0479
  403MOL0     C53090   2.775   0.931   1.061 -0.3431  0.9783  0.1359
  403MOL0     C53091   2.644   0.962   1.112 -0.5982 -0.3515  0.7450
  403MOL0     C53092   2.544   0.864   1.143 -0.7822  0.3525 -0.6639
  403MOL0     C53093   2.422   0.889   1.203  0.6260 -0.4353  0.1248
  403MOL0     O53094   2.342   0.784   1.222 -0.2403  0.1968 -0.0368
  403MOL0     C53095   2.220   0.791   1.276  0.0707  0.1726  0.3321
  403MOL0     C53096   2.180   0.675   1.339 -0.7932 -0.0221 -0.0055
  403MOL0     C53097   2.049   0.666   1.386  0.6510  0.0077  0.0888
  403MOL0     C53098   1.952   0.766   1.362  0.6182 -0.1786 -0.5633
  403MOL0     O53099   1.822   0.736   1.402 -0.7411  0.6267 -0.1753
  403MOL0     C53100   1.720   0.829   1.404 -0.1743  0.4142 -0.2979
  403MOL0     C53101   1.602   0.739   1.446 -0.1205  0.0188  0.4356
  403MOL0     C53102   1.461   0.810   1.431  0.0104  0.1190  0.4483
  403MOL0     C53103   1.437   0.933   1.531 -0.5641  0.8439  0.8043
  403MOL0     C53104   1.334   1.033   1.474 -0.3446  0.4416  0.1807
  403MOL0     C53105   1.198   0.966   1.473 -0.6727 -0.1015  0.1732
  403MOL0     C53106   1.081   1.061   1.448 -0.3442  0.2496  0.9314
  403MOL0     C53107   0.962   0.974   1.442  0.5013 -0.1946  0.5313
  403MOL0    Cl53108   0.902   0.952   1.604 -0.0123 -0.4424  0.1288
  403MOL0     C53109   1.997   0.882   1.303 -0.4453 -0.0224 -0.6823
  403MOL0     C53110   2.128   0.899   1.259  1.4212 -0.4209  0.5500
  403MOL0     O53111   2.393   1.009   1.226  0.1767  0.5908  0.4521
  403MOL0     C53112   2.589   0.731   1.125  0.1463  0.3160  0.4011
  403MOL0     C53113   2.722   0.697   1.090  0.3430  0.3374  0.0201
  403MOL0     N53114   3.257   0.973   1.317 -0.0953 -0.7178 -0.1035
  403MOL0     N53115   3.352   1.072   1.331 -0.0663  0.2718 -0.5509
  403MOL0     C53116   4.469   1.305   1.903  1.0348 -0.2695 -0.0323
  403MOL0     C53117   4.580   1.285   1.981  0.0031  0.5269  0.7243
  403MOL0     C53118   5.026   1.178   2.048 -0.0452  0.6018 -0.1651
  403MOL0     C53119   5.146   1.248   2.039 -1.3928  1.4043  0.3236
  403MOL0     C53120   5.268   1.197   2.089  1.4764  0.2054 -0.0880
  403MOL0     C53121   5.265   1.082   2.157  0.1614  1.0493 -0.2806
  403MOL0     O53122   5.378   1.027   2.207  0.2795 -0.4212 -0.2040
  403MOL0     C53123   5.508   1.074   2.168 -0.4699 -0.4644 -0.0207
  403MOL0     C53124   5.545   1.191   2.272 -0.2594  0.8610  0.2562
  403MOL0     C53125   5.648   1.295   2.216 -0.5233  0.1016  0.2225
  403MOL0     C53126   5.724   1.398   2.311  0.8711  0.4762 -0.1828
  403MOL0     C53127   5.623   1.473   2.393 -0.4467 -0.5858  0.1393
  403MOL0     C53128   5.556   1.552   2.451 -0.2054  0.3440 -0.4197
  403MOL0     C53129   5.148   1.010   2.164 -0.7768  0.2632  0.2502
  403MOL0     C53130   5.022   1.058   2.122 -0.1088 -0.4132 -0.4793
  403MOL0     H53131   4.714   1.003   1.840  0.7087  0.3779 -0.0572
  403MOL0     H53132   4.510   1.013   1.719 -0.4580 -0.0802  0.7527
  403MOL0     H53133   4.339   1.389   1.694  1.2121 -1.2001  0.0402
  403MOL0     H53134   4.191   1.362   1.786  0.4925 -0.8042  1.0981
  403MOL0     H53135   4.234   1.278   1.497 -0.7589 -1.3864 -0.0294
  403MOL0     H53136   4.153   1.413   1.572 -1.7459 -0.4443 -3.1537
  403MOL0     H53137   3.999   1.226   1.694 -0.3163 -1.1676  0.3078
  403MOL0     H53138   4.066   1.125   1.562 -0.7835 -0.8702  0.6976
  403MOL0     H53139   3.944   1.399   1.551 -0.8880  0.6178 -0.6876
  403MOL0     H53140   3.989   1.319   1.404 -0.7381 -2.3008 -0.0313
  403MOL0     H53141   3.740   1.288   1.454 -0.2292  1.2114  0.3046
  403MOL0     H53142   3.770   1.196   1.602  0.8869  0.1672  0.6436
  403MOL0     H53143   3.887   1.025   1.478 -2.3697 -1.8983  0.2708
  403MOL0     H53144   3.861   1.126   1.330  1.1545 -0.2545  0.6136
  403MOL0     H53145   3.689   0.916   1.398 -1.7281  0.0134 -0.9333
  403MOL0     H53146   3.630   1.033   1.514 -0.7202  2.0202  0.3158
  403MOL0     H53147   3.639   1.059   1.201 -0.8782  0.7021  0.0546
  403MOL0     H53148   3.580   1.189   1.315 -0.8002  0.5885 -1.5760
  403MOL0     H53149   3.535   0.813   1.233  0.6306  0.0491  1.3087
  403MOL0     H53150   3.220   0.708   1.363  2.4552 -1.2907  0.0022
  403MOL0     H53151   3.328   0.645   1.239 -2.2019 -2.0077 -3.0470
  403MOL0     H53152   3.214   0.767   1.071  0.8922 -2.5930  0.3358
  403MOL0     H53153   3.094   0.831   1.176 -0.1909 -0.3616  0.6745
  403MOL0     H53154   3.129   0.528   1.145  2.8278  2.2805 -0.5034
  403MOL0     H53155   3.005   0.615   1.233  1.8552  0.7631  2.0296
  403MOL0     H53156   2.922   0.558   0.999  1.3584 -2.3366  1.3672
  403MOL0     H53157   3.066   0.629   0.923 -1.3211  0.6597 -1.1214
  403MOL0     H53158   2.846   1.010   1.041  1.0451 -0.7954 -2.3960
  403MOL0     H53159   2.599   1.060   1.118  0.1006 -0.0206  0.6488
  403MOL0     H53160   2.262   0.612   1.373 -0.4813  1.3151  1.9488
  403MOL0     H53161   2.016   0.573   1.431 -0.4129  0.4632  0.2704
  403MOL0     H53162   1.702   0.879   1.309  0.2619 -1.1472 -1.2286
  403MOL0     H53163   1.743   0.914   1.469  0.0562 -0.0253  0.2045
  403MOL0     H53164   1.615   0.725   1.553  0.4368  2.0704  0.6750
  403MOL0     H53165   1.601   0.644   1.391  1.4629  0.0401  0.3323
  403MOL0     H53166   1.388   0.734   1.459 -1.5127  2.0380  2.0453
  403MOL0     H53167   1.452   0.844   1.327  2.0750  2.7056  0.9976
  403MOL0     H53168   1.409   0.888   1.626 -2.4614  0.3822  0.0603
  403MOL0     H53169   1.526   0.998   1.538 -0.6071  0.7213  5.4044
  403MOL0     H53170   1.359   1.074   1.376  1.2654  2.5921  1.4177
  403MOL0     H53171   1.321   1.120   1.538 -0.4739  0.4575  0.1329
  403MOL0     H53172   1.182   0.906   1.563  2.4626  0.4019  1.1739
  403MOL0     H53173   1.207   0.890   1.395  1.5974 -1.7116  1.8766
  403MOL0     H53174   1.066   1.141   1.520 -0.8448  3.0849 -2.0904
  403MOL0     H53175   1.094   1.116   1.355 -0.0935  0.2296  0.9553
  403MOL0     H53176   0.977   0.888   1.377  1.2302  1.1432 -1.1556
  403MOL0     H53177   0.881   1.028   1.390  1.6323 -1.4246 -2.7640
  403MOL0     H53178   1.926   0.961   1.282  1.7171  2.4986  0.8175
  403MOL0     H53179   2.143   0.993   1.206 -1.3172 -0.3701 -0.2875
  403MOL0     H53180   2.519   0.650   1.147 -0.2407 -0.2033 -2.3787
  403MOL0     H53181   2.736   0.590   1.080 -0.5978 -0.2512  3.6630
  403MOL0     H53182   4.407   1.393   1.923 -1.0978 -2.0073  1.5467
  403MOL0     H53183   4.600   1.340   2.073 -0.3422 -0.3962  1.3641
  403MOL0     H53184   5.147   1.349   1.999 -0.7680  2.3574  2.5936
  403MOL0     H53185   5.357   1.259   2.078  1.3206  1.0348  2.6588
  403MOL0     H53186   5.523   1.124   2.072 -1.0697  0.6073  0.4264
  403MOL0     H53187   5.584   0.996   2.185  1.0913  1.5271  3.1321
  403MOL0     H53188   5.448   1.239   2.289 -2.1074 -1.1514 -3.4054
  403MOL0     H53189   5.590   1.144   2.360 -1.7808  0.4715  0.8562
  403MOL0     H53190   5.590   1.358   2.147  0.5284 -0.0225 -0.8134
  403MOL0     H53191   5.713   1.231   2.156 -2.3938 -1.3609 -0.3707
  403MOL0     H53192   5.803   1.343   2.362  1.0552 -0.0330 -0.9951
  403MOL0     H53193   5.777   1.475   2.254  2.5916 -0.2339  0.4225
  403MOL0     H53194   5.500   1.632   2.496  2.0577  0.8636  1.6752
  403MOL0     H53195   5.166   0.914   2.212  2.3127  0.3429 -0.4852
  403MOL0     H53196   4.928   1.004   2.131  1.5616 -3.3068  1.4421
  404MOL0     O53197   9.295  10.408   2.970  0.4954 -0.6264  0.2925
  404MOL0     C53198   9.296  10.419   2.847  0.2859 -0.0348 -0.8618
  404MOL0     O53199   9.190  10.453   2.768  0.2849  0.1815 -0.8184
  404MOL0     C53200   9.068  10.496   2.818 -0.3523 -0.0150  0.4834
  404MOL0     C53201   9.047  10.572   2.939 -1.1227 -0.2901  0.4339
  404MOL0     C53202   8.927  10.626   2.981  0.1172  0.6792  0.3061
  404MOL0     C53203   8.813  10.609   2.904 -0.1182 -0.4805 -1.5051
  404MOL0     O53204   8.692  10.664   2.951  0.2822 -0.6099  1.2271
  404MOL0     C53205   8.580  10.662   2.857 -0.6530 -0.7787  0.2609
  404MOL0     C53206   8.446  10.715   2.908  0.1662 -0.5309  0.3052
  404MOL0     C53207   8.341  10.710   2.801 -0.5173  0.2049 -0.5183
  404MOL0     C53208   8.208  10.728   2.872 -0.0233  0.0840 -0.1200
  404MOL0     C53209   8.087  10.684   2.804  0.0266  0.6809  0.8468
  404MOL0     C53210   7.954  10.688   2.884 -0.6135  0.3989 -0.1440
  404MOL0     C53211   7.839  10.596   2.823 -0.8772 -1.1509 -0.3448
  404MOL0     C53212   7.702  10.621   2.892 -1.6158  0.1274  0.2246
  404MOL0     N53213   7.588  10.553   2.835 -0.0099 -0.5064  0.1150
  404MOL0     C53214   7.594  10.424   2.785 -0.3361  0.4576 -0.0741
  404MOL0     C53215   7.461  10.406   2.745  0.4866 -0.4400  0.0376
  404MOL0     C53216   7.398  10.281   2.692  0.3327  0.6965  0.1144
  404MOL0     C53217   7.440  10.243   2.546 -0.6587  0.7616  0.3647
  404MOL0     C53218   7.366  10.325   2.443 -0.4810  0.5726  0.0917
  404MOL0     C53219   7.213  10.316   2.434  0.8670  0.5941 -0.4461
  404MOL0     O53220   7.162  10.179   2.433 -0.0010 -0.3065 -0.1020
  404MOL0     C53221   7.038  10.157   2.381  0.0032  0.2451 -0.6301
  404MOL0     C53222   7.013  10.045   2.308 -0.0986  0.0474  0.8173
  404MOL0     C53223   6.895  10.021   2.238 -1.2349  0.0872  0.9522
  404MOL0     C53224   6.793  10.119   2.254  0.5942  0.8338 -0.2124
  404MOL0     C53225   6.670  10.108   2.170  0.2206  0.9410 -0.1097
  404MOL0     O53226   6.661  10.010   2.073  0.8083  0.4616 -0.2218
  404MOL0     C53227   6.537  10.000   2.007 -0.7470  0.2001 -0.1241
  404MOL0     C53228   6.508  10.097   1.911  0.0724  0.7198  0.0766
  404MOL0     C53229   6.383  10.104   1.847 -0.6568  0.0430  0.2163
  404MOL0     C53230   6.284  10.015   1.869 -0.4536  0.1587  0.2970
  404MOL0     O53231   6.159  10.014   1.809 -0.0197  0.1559  0.0500
  404MOL0     C53232   6.138  10.060   1.678  0.0204 -0.0606  0.2871
  404MOL0     C53233   6.002  10.006   1.625 -0.6802 -0.7626 -0.5030
  404MOL0     C53234   5.888  10.060   1.723 -0.0375 -0.0676  0.6471
  404MOL0     C53235   5.761  10.014   1.672 -0.0149 -0.2029  0.1255
  404MOL0     C53236   5.651  10.074   1.759 -0.5286  0.1344 -0.1138
  404MOL0     C53237   5.511  10.041   1.722 -0.2853 -0.3964 -0.2611
  404MOL0     C53238   5.402  10.107   1.814 -0.9269  0.3507 -0.7280
  404MOL0     C53239   5.272  10.064   1.770  0.2110 -0.2006 -0.1659
  404MOL0    Cl53240   5.133  10.152   1.837  0.1154  0.2578  0.2448
  404MOL0     C53241   6.314   9.911   1.965 -0.2515 -0.3085  0.6888
  404MOL0     C53242   6.446   9.897   2.025  0.6104  1.0032 -0.0623
  404MOL0     O53243   6.581  10.187   2.192 -0.9222  0.3201 -0.6094
  404MOL0     C53244   6.811  10.237   2.330 -0.4532 -0.4802  0.1886
  404MOL0     C53245   6.936  10.250   2.395 -0.9809 -0.2488  0.4546
  404MOL0     N53246   7.381  10.516   2.768 -0.3384 -0.0632 -0.0779
  404MOL0     N53247   7.459  10.606   2.817  0.5060  0.2103  0.4133
  404MOL0     C53248   8.830  10.537   2.784  0.4854 -0.9070  0.1167
  404MOL0     C53249   8.947  10.476   2.747  0.6913  0.4179 -0.8198
  404MOL0     C53250   9.418  10.393   2.771  0.0662  0.8706 -0.2902
  404MOL0     C53251   9.441  10.438   2.644 -0.1828  0.3253  0.3479
  404MOL0     C53252   9.566  10.430   2.586 -0.0474 -0.5320  0.1894
  404MOL0     C53253   9.675  10.373   2.650 -0.5044  0.6547 -0.6863
  404MOL0     O53254   9.796  10.346   2.596 -0.0280 -0.4743 -0.4643
  404MOL0     C53255   9.835  10.440   2.494  0.8923  0.7221 -0.3451
  404MOL0     C53256   9.986  10.417   2.478 -0.6741 -0.3903  0.5362
  404MOL0     C53257  10.052  10.523   2.384  0.2858  0.0436  1.1138
  404MOL0     C53258  10.201  10.506   2.365  0.3126  0.3234  0.2459
  404MOL0     C53259  10.224  10.380   2.292 -0.1458  0.3233 -0.8378
  404MOL0     C53260  10.244  10.285   2.232 -1.1592 -0.1924 -0.3564
  404MOL0     C53261   9.649  10.318   2.778 -0.6405 -0.5023  0.1894
  404MOL0     C53262   9.526  10.332   2.845 -0.0400 -0.2800  0.1385
  404MOL0     H53263   9.130  10.601   3.003 -1.2318  0.0187  0.4364
  404MOL0     H53264   8.915  10.680   3.075 -0.2194  0.3957  0.4279
  404MOL0     H53265   8.568  10.555   2.836 -0.0503 -0.3208 -3.0749
  404MOL0     H53266   8.614  10.701   2.761 -1.0939 -0.4286  0.2435
  404MOL0     H53267   8.455  10.822   2.928  0.8607 -0.2734 -1.2844
  404MOL0     H53268   8.424  10.661   3.001  1.0759 -1.3043  0.0928
  404MOL0     H53269   8.341  10.617   2.744 -0.6948  0.5695 -1.1193
  404MOL0     H53270   8.349  10.787   2.724 -1.1264 -0.7070 -1.5205
  404MOL0     H53271   8.220  10.666   2.961  2.4488  1.3883  0.5639
  404MOL0     H53272   8.201  10.836   2.893  2.6339  0.0251  1.5083
  404MOL0     H53273   8.104  10.587   2.757 -2.0227  0.4364  0.5532
  404MOL0     H53274   8.074  10.761   2.727  2.5405 -0.4988 -0.9068
  404MOL0     H53275   7.927  10.793   2.898  0.3739  0.6164  0.2136
  404MOL0     H53276   7.979  10.648   2.983  2.0066  4.7794  1.2463
  404MOL0     H53277   7.833  10.630   2.719  2.7401 -0.2032 -0.3575
  404MOL0     H53278   7.866  10.491   2.837  0.4062 -0.9038 -0.8440
  404MOL0     H53279   7.696  10.727   2.870  2.0621  0.0732 -1.6474
  404MOL0     H53280   7.708  10.605   3.000 -2.1968  1.7927  0.5305
  404MOL0     H53281   7.679  10.360   2.766 -0.6082  1.0446 -4.1591
  404MOL0     H53282   7.290  10.285   2.704  0.4681 -0.1506  1.8849
  404MOL0     H53283   7.424  10.207   2.768  0.5238  3.2216  2.6630
  404MOL0     H53284   7.419  10.136   2.535  0.6909  0.4938  0.2898
  404MOL0     H53285   7.548  10.258   2.537 -0.8696  3.2667  1.3672
  404MOL0     H53286   7.388  10.431   2.461  2.4634  0.2021 -0.7969
  404MOL0     H53287   7.415  10.298   2.349 -0.1581 -0.3982  0.5286
  404MOL0     H53288   7.178  10.370   2.345 -0.4542 -1.4728 -1.2635
  404MOL0     H53289   7.173  10.366   2.523 -1.7754 -1.4170 -0.3558
  404MOL0     H53290   7.091   9.969   2.312 -0.8448 -1.0481 -2.5231
  404MOL0     H53291   6.881   9.929   2.183 -0.0621 -0.2829  1.2384
  404MOL0     H53292   6.593  10.161   1.889  2.3366 -1.8810  0.6752
  404MOL0     H53293   6.365  10.181   1.773  0.2275  1.4439  1.4055
  404MOL0     H53294   6.219  10.028   1.614  0.5165  2.7367 -0.6482
  404MOL0     H53295   6.137  10.170   1.686  0.5272 -0.0352  0.0089
  404MOL0     H53296   6.014   9.898   1.618  0.7223 -0.5931 -0.9304
  404MOL0     H53297   5.976  10.049   1.527 -2.0275  1.4441  0.7271
  404MOL0     H53298   5.892  10.168   1.734  1.1986  0.1043 -1.0141
  404MOL0     H53299   5.903  10.027   1.826  0.6308  1.0273  0.9105
  404MOL0     H53300   5.753  10.042   1.566 -1.1881 -0.2267  0.1941
  404MOL0     H53301   5.761   9.905   1.675  1.7573 -0.2043  1.0820
  404MOL0     H53302   5.663  10.183   1.763  1.7963  0.3476 -5.3548
  404MOL0     H53303   5.676  10.025   1.854  0.6289  2.1058  0.6692
  404MOL0     H53304   5.494   9.933   1.715  0.4399 -0.5338 -0.0405
  404MOL0     H53305   5.501  10.083   1.622 -0.3375 -0.9999 -0.5103
  404MOL0     H53306   5.413  10.074   1.918 -2.2526  3.9678  0.7126
  404MOL0     H53307   5.416  10.216   1.818  1.9289  0.0842 -1.0256
  404MOL0     H53308   5.260   9.959   1.799  3.0619 -0.9018 -1.1675
  404MOL0     H53309   5.271  10.077   1.661 -0.7108  2.0786  0.0661
  404MOL0     H53310   6.235   9.839   1.984 -0.1313 -0.0637  2.2860
  404MOL0     H53311   6.459   9.814   2.094 -2.4864  1.2228  0.9176
  404MOL0     H53312   6.733  10.313   2.326 -1.2190 -1.1109  2.0475
  404MOL0     H53313   6.942  10.349   2.440 -2.3279  0.0927 -0.0732
  404MOL0     H53314   8.741  10.529   2.722 -0.3122  0.9931  0.9440
  404MOL0     H53315   8.948  10.411   2.660 -1.7579 -2.5924  1.1660
  404MOL0     H53316   9.372  10.503   2.591 -0.2769  0.8309  1.0712
  404MOL0     H53317   9.570  10.473   2.487  0.4647  0.8286  0.7700
  404MOL0     H53318   9.824  10.547   2.518 -0.9972  0.4020  0.3732
  404MOL0     H53319   9.782  10.430   2.400  0.4587 -0.1733 -0.0108
  404MOL0     H53320  10.032  10.426   2.577  3.6656 -1.0436 -1.1886
  404MOL0     H53321  10.006  10.313   2.448 -1.5759 -0.9265  1.7193
  404MOL0     H53322  10.044  10.627   2.418  3.8932  0.8482  0.0093
  404MOL0     H53323  10.007  10.506   2.286  1.6948 -1.2213  0.6393
  404MOL0     H53324  10.231  10.589   2.300 -2.7238  2.6268  1.5406
  404MOL0     H53325  10.262  10.498   2.456  1.9026  1.5652 -0.6535
  404MOL0     H53326  10.257  10.197   2.172 -3.1977 -1.1077  0.4574
  404MOL0     H53327   9.726  10.255   2.821 -1.4342 -0.3482  1.9193
  404MOL0     H53328   9.519  10.294   2.947 -3.3151  0.6385  0.4043
  405MOL0     O53329   7.071   1.626  10.536 -0.9666  0.0755  1.3141
  405MOL0     C53330   7.030   1.516  10.565 -0.5804 -1.0701 -0.3868
  405MOL0     O53331   7.105   1.406  10.576  0.1557 -0.3644 -0.3124
  405MOL0     C53332   7.240   1.394  10.545 -0.5487  0.7314 -0.0659
  405MOL0     C53333   7.283   1.265  10.500 -0.6487  0.1450 -0.9921
  405MOL0     C53334   7.414   1.246  10.468 -0.7012 -0.1321 -0.2263
  405MOL0     C53335   7.509   1.350  10.477 -0.3552  0.1383  0.0480
  405MOL0     O53336   7.645   1.326  10.457  0.0058 -0.4882 -0.0219
  405MOL0     C53337   7.734   1.360  10.570  0.3014  0.0627  0.1546
  405MOL0     C53338   7.873   1.371  10.515 -0.7067  0.0619  0.4987
  405MOL0     C53339   7.974   1.437  10.603 -0.2868 -0.4819  0.8072
  405MOL0     C53340   8.112   1.462  10.535 -0.2272 -0.7817 -0.5959
  405MOL0     C53341   8.220   1.513  10.629  1.0807  0.2957  0.1802
  405MOL0     C53342   8.281   1.406  10.720 -0.1125 -0.3785  0.3693
  405MOL0     C53343   8.363   1.307  10.634  0.0550 -0.5330  0.0185
  405MOL0     C53344   8.397   1.186  10.721  0.7350  0.2966 -0.1521
  405MOL0     N53345   8.286   1.084  10.726  0.7684 -0.2548 -0.3206
  405MOL0     C53346   8.210   1.046  10.618 -0.5793  0.4163 -0.2446
  405MOL0     C53347   8.124   0.952  10.676 -0.1083 -0.6371  0.1921
  405MOL0     C53348   8.020   0.885  10.602  0.6836 -1.1044  0.3640
  405MOL0     C53349   7.886   0.966  10.593  0.5075 -1.0911 -0.0033
  405MOL0     C53350   7.780   0.909  10.683 -0.0816  0.2941  0.0339
  405MOL0     C53351   7.655   0.996  10.686 -0.9653 -0.4087 -0.0815
  405MOL0     O53352   7.581   0.929  10.786  0.4386  0.9548  0.0361
  405MOL0     C53353   7.462   0.992  10.819  0.2223  0.7897  0.9493
  405MOL0     C53354   7.401   0.927  10.930  0.8757 -0.6803  0.7494
  405MOL0     C53355   7.275   0.967  10.971  0.1022 -0.3415 -0.4805
  405MOL0     C53356   7.210   1.078  10.914  0.0415  0.4747 -0.3160
  405MOL0     C53357   7.081   1.125  10.968 -0.4160  0.2099  0.2120
  405MOL0     O53358   7.023   1.232  10.907 -0.6105  0.4383  0.6863
  405MOL0     C53359   6.928   1.300  10.982  0.2841  0.4422 -0.9926
  405MOL0     C53360   6.956   1.414  11.062 -0.7291  0.0720 -0.2335
  405MOL0     C53361   6.852   1.483  11.129 -0.1133 -0.5717  0.2622
  405MOL0     C53362   6.721   1.442  11.122  0.2100  0.8927 -1.3642
  405MOL0     O53363   6.622   1.504  11.197 -0.3711  0.1678 -0.3201
  405MOL0     C53364   6.534   1.418  11.280 -0.7734  0.0087  0.2951
  405MOL0     C53365   6.392   1.431  11.229 -0.2764 -0.3584 -0.2154
  405MOL0     C53366   6.285   1.356  11.319  0.7753 -0.2256 -0.6913
  405MOL0     C53367   6.270   1.451  11.449  0.2746 -0.1276  0.4849
  405MOL0     C53368   6.142   1.416  11.532 -0.2644 -0.6965 -0.1698
  405MOL0     C53369   6.023   1.501  11.486 -0.3502  0.5597  0.1282
  405MOL0     C53370   5.902   1.456  11.565  0.1061 -0.0105 -0.9558
  405MOL0     C53371   5.780   1.554  11.545  0.4801  0.1607 -0.0581
  405MOL0    Cl53372   5.760   1.585  11.370  0.0390  0.2110  0.2264
  405MOL0     C53373   6.696   1.323  11.049 -0.4033  0.5558 -0.2199
  405MOL0     C53374   6.797   1.251  10.983  0.0049  0.5586 -0.2432
  405MOL0     O53375   7.030   1.064  11.067 -0.0502  0.0729  0.3670
  405MOL0     C53376   7.275   1.144  10.807  0.5604  0.6194 -0.6530
  405MOL0     C53377   7.399   1.093  10.754  0.7009 -0.2642 -0.2250
  405MOL0     N53378   8.154   0.926  10.804 -0.1564  0.3483 -0.3345
  405MOL0     N53379   8.253   1.009  10.838  0.1559  0.0148  0.1012
  405MOL0     C53380   7.468   1.473  10.523  0.8333 -1.2694 -1.1178
  405MOL0     C53381   7.332   1.500  10.554 -0.5716 -0.9293 -1.2291
  405MOL0     C53382   6.885   1.516  10.616 -0.3221  0.4455  0.2573
  405MOL0     C53383   6.834   1.392  10.657  0.3909  0.4577  0.4340
  405MOL0     C53384   6.698   1.394  10.694  0.3163  0.0786  0.1969
  405MOL0     C53385   6.617   1.507  10.684 -0.3615  0.3892 -0.0447
  405MOL0     O53386   6.489   1.483  10.719  0.3171  0.3509  0.2655
  405MOL0     C53387   6.453   1.567  10.827  1.1430  0.1908 -0.1758
  405MOL0     C53388   6.314   1.522  10.877  0.6994 -0.6929 -0.8896
  405MOL0     C53389   6.224   1.480  10.767 -0.7292 -1.2169  0.4618
  405MOL0     C53390   6.209   1.604  10.676  0.2630  0.0342  0.8588
  405MOL0     C53391   6.077   1.593  10.602 -0.0039  0.5663 -0.2959
  405MOL0     C53392   5.960   1.569  10.568 -0.1957 -0.2936  0.1832
  405MOL0     C53393   6.665   1.629  10.636 -0.5658  0.2731 -0.2945
  405MOL0     C53394   6.802   1.630  10.611 -0.2218  0.3174  0.2664
  405MOL0     H53395   7.204   1.190  10.499 -0.5568  0.0528 -1.4539
  405MOL0     H53396   7.454   1.151  10.434  1.5047  0.6432  0.0523
  405MOL0     H53397   7.721   1.281  10.645  0.3766 -2.4110 -2.2822
  405MOL0     H53398   7.719   1.458  10.615 -1.3235  0.3416 -0.9234
  405MOL0     H53399   7.853   1.428  10.424  1.7152  0.1699 -0.0310
  405MOL0     H53400   7.911   1.274  10.481  0.7260  0.7908 -0.0518
  405MOL0     H53401   7.988   1.362  10.682  2.3748  0.1700  1.0380
  405MOL0     H53402   7.937   1.527  10.654 -0.7373 -0.0686 -0.2249
  405MOL0     H53403   8.138   1.370  10.481 -0.1333 -0.7899 -0.5375
  405MOL0     H53404   8.096   1.544  10.465  4.2571 -0.4342 -1.4652
  405MOL0     H53405   8.188   1.596  10.693  2.1723  0.0943  1.0406
  405MOL0     H53406   8.299   1.539  10.558  1.0751  0.6140  0.2877
  405MOL0     H53407   8.200   1.354  10.772 -0.4958 -0.0581  0.1055
  405MOL0     H53408   8.343   1.467  10.786  0.3695  2.9114 -2.7857
  405MOL0     H53409   8.310   1.277  10.544  0.7255 -1.2606 -0.1459
  405MOL0     H53410   8.453   1.366  10.613 -0.8902  0.3957 -1.6404
  405MOL0     H53411   8.432   1.214  10.821 -1.1198  0.1331  0.5837
  405MOL0     H53412   8.473   1.137  10.660 -0.5817 -1.7483 -0.2698
  405MOL0     H53413   8.222   1.083  10.517  1.8126 -0.6883 -0.4290
  405MOL0     H53414   8.009   0.784  10.643  0.7740 -0.7099  1.4070
  405MOL0     H53415   8.048   0.891  10.497 -1.2170  2.8359 -0.1024
  405MOL0     H53416   7.843   0.962  10.492 -1.5225 -0.9048  0.8115
  405MOL0     H53417   7.898   1.069  10.628 -0.9437 -0.7178 -0.5262
  405MOL0     H53418   7.756   0.809  10.646 -3.1420  0.8943  0.1217
  405MOL0     H53419   7.804   0.906  10.789  1.6412 -0.7960 -0.3472
  405MOL0     H53420   7.600   0.992  10.591  0.5753 -0.0833 -1.0366
  405MOL0     H53421   7.684   1.096  10.717 -0.4534 -0.6286  0.1629
  405MOL0     H53422   7.446   0.840  10.977  1.6729 -1.2927 -1.0506
  405MOL0     H53423   7.228   0.899  11.042 -1.8875  2.9243  1.6079
  405MOL0     H53424   7.056   1.452  11.076 -1.5982  2.2505  0.4595
  405MOL0     H53425   6.883   1.566  11.192 -1.6204 -0.7545  1.2722
  405MOL0     H53426   6.557   1.440  11.385  3.0406 -0.4748 -0.2695
  405MOL0     H53427   6.552   1.310  11.279 -3.9704 -0.6052 -0.5958
  405MOL0     H53428   6.382   1.387  11.129 -0.5068  0.4414 -0.5571
  405MOL0     H53429   6.362   1.536  11.232 -2.5776 -0.9202 -1.3634
  405MOL0     H53430   6.310   1.254  11.351  0.5474 -0.3370 -0.8687
  405MOL0     H53431   6.195   1.345  11.259  1.2676 -0.2277 -1.4417
  405MOL0     H53432   6.356   1.440  11.516  1.6422 -0.6965 -1.2721
  405MOL0     H53433   6.261   1.559  11.432  2.2447  0.4187  2.4879
  405MOL0     H53434   6.168   1.429  11.637  0.4930  0.6520 -0.4970
  405MOL0     H53435   6.104   1.314  11.524  0.2811 -1.0406  1.3207
  405MOL0     H53436   6.009   1.488  11.379 -1.0402  0.7817  0.1831
  405MOL0     H53437   6.040   1.609  11.489  4.0190  0.0674 -0.6152
  405MOL0     H53438   5.882   1.352  11.540  3.2573 -2.0866  3.6475
  405MOL0     H53439   5.930   1.461  11.671  0.0899 -0.3956 -0.9343
  405MOL0     H53440   5.810   1.648  11.592  0.2321 -0.5035  1.4775
  405MOL0     H53441   5.697   1.504  11.597  1.1452 -0.4816  0.4085
  405MOL0     H53442   6.595   1.285  11.059 -0.2466 -0.3460 -1.7564
  405MOL0     H53443   6.789   1.157  10.929 -1.3482  1.5344 -1.8145
  405MOL0     H53444   7.214   1.226  10.769  0.8537  1.1343 -0.0189
  405MOL0     H53445   7.453   1.149  10.679 -1.2019  0.1026 -1.3660
  405MOL0     H53446   7.541   1.553  10.527 -0.2732 -0.2470  1.9370
  405MOL0     H53447   7.305   1.591  10.607 -1.3897 -1.4655 -0.6817
  405MOL0     H53448   6.896   1.304  10.664 -1.1165 -0.9698 -2.3162
  405MOL0     H53449   6.662   1.306  10.746  0.8629 -0.4505 -0.3007
  405MOL0     H53450   6.433   1.665  10.784 -1.5011 -0.8777 -1.6604
  405MOL0     H53451   6.527   1.577  10.907 -1.2475  0.1403  2.1751
  405MOL0     H53452   6.323   1.427  10.931 -1.6329 -1.1499 -1.2244
  405MOL0     H53453   6.277   1.605  10.937  2.3621 -0.3303 -0.2907
  405MOL0     H53454   6.127   1.455  10.810 -0.4345 -0.6990  1.4638
  405MOL0     H53455   6.269   1.397  10.712  1.4895 -0.4014  0.9019
  405MOL0     H53456   6.207   1.699  10.732 -1.4371 -0.1135  1.1220
  405MOL0     H53457   6.293   1.610  10.607 -1.1545 -0.1556 -0.9638
  405MOL0     H53458   5.860   1.542  10.542 -0.1104 -1.2342  0.7683
  405MOL0     H53459   6.602   1.715  10.616  0.9912  1.5301  0.0109
  405MOL0     H53460   6.849   1.718  10.567  0.3557 -0.2457 -0.2697
  406MOL0     O53461   7.343   7.716   2.623  0.0824  0.0449 -1.1650
  406MOL0     C53462   7.340   7.596   2.613 -0.1805  0.6564  0.0833
  406MOL0     O53463   7.228   7.516   2.626 -0.7245  0.2375  0.8363
  406MOL0     C53464   7.104   7.574   2.652 -0.5399  0.3461 -0.3864
  406MOL0     C53465   7.097   7.644   2.774  0.2100  0.2932 -0.1898
  406MOL0     C53466   6.982   7.693   2.821 -0.4978 -0.5971  0.6212
  406MOL0     C53467   6.863   7.681   2.748  0.2577  0.2038 -0.5456
  406MOL0     O53468   6.737   7.719   2.790  0.3153 -0.1832  0.7756
  406MOL0     C53469   6.721   7.804   2.906  0.6543 -0.4365  0.1575
  406MOL0     C53470   6.568   7.828   2.933  0.2671  0.5571  0.6668
  406MOL0     C53471   6.536   7.964   3.003  0.5518 -0.1682  0.8131
  406MOL0     C53472   6.391   7.970   3.026  0.4664 -0.4504  0.2540
  406MOL0     C53473   6.366   8.090   3.102 -0.5962 -1.6320 -0.5148
  406MOL0     C53474   6.389   8.105   3.256 -0.0951 -0.1827  0.5867
  406MOL0     C53475   6.313   8.231   3.304  0.4496  0.0776 -1.1032
  406MOL0     C53476   6.368   8.285   3.447  0.0431  0.1884  1.1559
  406MOL0     N53477   6.255   8.359   3.511 -0.2691  0.1027  0.0410
  406MOL0     C53478   6.195   8.463   3.445  0.6386 -0.4734 -0.1537
  406MOL0     C53479   6.072   8.470   3.505 -0.2144  0.4495  0.2918
  406MOL0     C53480   5.955   8.557   3.472  0.1406  0.5424  0.0122
  406MOL0     C53481   5.888   8.606   3.599 -0.6472  0.4559 -0.1260
  406MOL0     C53482   5.764   8.682   3.568  0.5122 -0.7236  0.6601
  406MOL0     C53483   5.720   8.765   3.690  0.4722 -0.6845 -0.0892
  406MOL0     O53484   5.591   8.819   3.643  0.3844  0.1829 -0.2959
  406MOL0     C53485   5.502   8.868   3.735  0.3711  0.1363 -0.9305
  406MOL0     C53486   5.374   8.896   3.698 -0.3250 -0.1964 -0.2409
  406MOL0     C53487   5.284   8.948   3.780  0.9561  0.2521 -1.2965
  406MOL0     C53488   5.300   8.972   3.916 -0.9550  0.2798 -0.2462
  406MOL0     C53489   5.196   9.027   3.998  0.6618  1.0688  0.2727
  406MOL0     O53490   5.225   9.051   4.127 -0.3920 -0.5279 -0.1899
  406MOL0     C53491   5.123   9.104   4.199  0.3538 -0.2698 -0.3366
  406MOL0     C53492   5.084   9.242   4.190  0.1959  0.0053  0.2433
  406MOL0     C53493   4.971   9.295   4.254 -0.3070 -0.9726  0.4685
  406MOL0     C53494   4.897   9.209   4.337  0.0543  0.5130  0.3720
  406MOL0     O53495   4.775   9.245   4.393  0.3978  0.4575  0.2687
  406MOL0     C53496   4.735   9.380   4.402 -0.1041 -0.6206 -0.2295
  406MOL0     C53497   4.607   9.399   4.474 -0.1273  0.0852 -0.1082
  406MOL0     C53498   4.549   9.542   4.459 -0.2569  0.0007 -0.4027
  406MOL0     C53499   4.418   9.561   4.520 -0.0828 -0.3806 -0.0068
  406MOL0     C53500   4.388   9.708   4.530  0.3923  0.5984 -0.6066
  406MOL0     C53501   4.253   9.731   4.603  0.6190 -0.1113 -0.5311
  406MOL0     C53502   4.253   9.882   4.647 -0.6172 -0.0613 -0.0384
  406MOL0     C53503   4.133   9.893   4.749  0.3567 -0.8060 -0.3204
  406MOL0    Cl53504   3.987   9.826   4.666 -0.3500 -0.6512  0.0855
  406MOL0     C53505   4.947   9.080   4.367  0.0202  0.6295 -0.7095
  406MOL0     C53506   5.050   9.021   4.288  0.9603 -0.0936 -0.0756
  406MOL0     O53507   5.082   9.035   3.948 -0.6439  0.6510 -0.1479
  406MOL0     C53508   5.431   8.953   3.955 -0.6127  0.1868 -0.1654
  406MOL0     C53509   5.526   8.895   3.871 -0.1995  0.4592 -0.8178
  406MOL0     N53510   6.072   8.373   3.605 -0.2683 -0.0480  0.6616
  406MOL0     N53511   6.187   8.317   3.619 -0.0520  0.7072 -0.1035
  406MOL0     C53512   6.864   7.595   2.636 -0.2416  0.3348  0.0480
  406MOL0     C53513   6.987   7.541   2.581  0.2686  0.3436  1.0870
  406MOL0     C53514   7.458   7.532   2.542 -0.2079  0.7421  0.5827
  406MOL0     C53515   7.450   7.392   2.508  0.8710  0.3062 -0.6160
  406MOL0     C53516   7.550   7.326   2.444 -0.2545  0.4496  0.2808
  406MOL0     C53517   7.678   7.384   2.437 -0.2115  0.5418 -1.1223
  406MOL0     O53518   7.788   7.311   2.387  0.0487 -0.2255  0.0091
  406MOL0     C53519   7.909   7.384   2.376 -0.5590 -0.2577  0.2119
  406MOL0     C53520   8.014   7.306   2.288 -0.2396  0.0091 -1.0212
  406MOL0     C53521   8.107   7.212   2.363  0.2174 -0.0237  0.2238
  406MOL0     C53522   8.212   7.149   2.260  0.6858 -0.2756 -0.7046
  406MOL0     C53523   8.332   7.219   2.239 -0.3129  0.1830 -1.2279
  406MOL0     C53524   8.429   7.289   2.215  0.3469 -0.3010 -0.9983
  406MOL0     C53525   7.685   7.527   2.459  0.3005 -0.4259 -0.8509
  406MOL0     C53526   7.578   7.598   2.514 -0.6169 -0.3711  0.1398
  406MOL0     H53527   7.172   7.639   2.852 -0.2054 -2.7209  0.1482
  406MOL0     H53528   6.991   7.722   2.925  2.3282 -0.3353  0.3791
  406MOL0     H53529   6.773   7.900   2.908 -2.5595  1.4268  1.7683
  406MOL0     H53530   6.750   7.736   2.986 -1.5059 -1.1950  0.3506
  406MOL0     H53531   6.533   7.749   3.000 -0.4830  1.0967  0.9272
  406MOL0     H53532   6.513   7.831   2.838  0.5343 -1.6757  0.3878
  406MOL0     H53533   6.571   8.039   2.932 -0.7514 -0.7998 -0.5531
  406MOL0     H53534   6.597   7.980   3.093  1.6302  3.4187 -0.3990
  406MOL0     H53535   6.334   7.978   2.933 -0.9829 -0.8047  1.0682
  406MOL0     H53536   6.346   7.880   3.071 -3.5841  1.1907 -0.0551
  406MOL0     H53537   6.267   8.121   3.068 -0.7031 -0.1403  1.0572
  406MOL0     H53538   6.432   8.165   3.058 -0.5891  0.4888  2.7724
  406MOL0     H53539   6.497   8.100   3.272  0.1763 -2.9396 -1.3615
  406MOL0     H53540   6.336   8.026   3.310  2.0917 -1.2527  1.2899
  406MOL0     H53541   6.335   8.311   3.233  1.4044  1.2580  0.4641
  406MOL0     H53542   6.206   8.209   3.300  0.1641  1.4016 -1.1374
  406MOL0     H53543   6.454   8.352   3.436  1.4976 -1.8663 -0.9223
  406MOL0     H53544   6.405   8.194   3.497  1.3916 -1.3293 -2.2869
  406MOL0     H53545   6.225   8.500   3.348  1.0042 -0.4357 -0.0261
  406MOL0     H53546   5.890   8.497   3.407  0.7067 -0.9448  0.8009
  406MOL0     H53547   5.991   8.642   3.412 -0.5088  0.8830  0.0938
  406MOL0     H53548   5.959   8.676   3.644 -0.8209  0.5077  0.0697
  406MOL0     H53549   5.862   8.531   3.675  1.2292  1.2862  1.4394
  406MOL0     H53550   5.782   8.747   3.482  0.3917 -2.4162 -0.7048
  406MOL0     H53551   5.680   8.616   3.546 -0.1610  0.2155  0.3946
  406MOL0     H53552   5.792   8.844   3.711  0.6375 -0.9311  0.2699
  406MOL0     H53553   5.716   8.696   3.775  5.7570 -0.1173  0.9362
  406MOL0     H53554   5.327   8.872   3.603 -3.0625  2.4224  0.3080
  406MOL0     H53555   5.193   8.983   3.732 -1.1277 -0.4903  1.8470
  406MOL0     H53556   5.139   9.300   4.117  0.3595  0.3065  0.6021
  406MOL0     H53557   4.952   9.399   4.230  2.1676 -0.6821 -0.5567
  406MOL0     H53558   4.718   9.424   4.303  3.4124 -2.5263 -1.8623
  406MOL0     H53559   4.815   9.437   4.452  1.1871 -2.0252 -0.6135
  406MOL0     H53560   4.637   9.401   4.579  2.3846  1.1588 -0.7464
  406MOL0     H53561   4.538   9.317   4.455  0.8213 -1.6604  3.2702
  406MOL0     H53562   4.541   9.551   4.350 -0.6329 -1.5913 -0.5380
  406MOL0     H53563   4.613   9.626   4.486 -1.3437 -0.5199  4.9732
  406MOL0     H53564   4.345   9.505   4.460  0.4902 -0.0623 -1.0378
  406MOL0     H53565   4.415   9.532   4.625  0.8387  1.0553  0.4327
  406MOL0     H53566   4.373   9.746   4.429 -0.3753  1.0294 -0.3394
  406MOL0     H53567   4.467   9.766   4.580 -0.6169  0.9053  0.6868
  406MOL0     H53568   4.255   9.667   4.692 -1.8944  1.5328  0.8218
  406MOL0     H53569   4.169   9.722   4.533 -0.5065 -0.0704  0.7691
  406MOL0     H53570   4.342   9.910   4.704 -0.4491  0.6144 -0.6225
  406MOL0     H53571   4.234   9.949   4.563 -3.2088  1.3039  1.5093
  406MOL0     H53572   4.131   9.998   4.781  2.0649 -0.8982  0.1386
  406MOL0     H53573   4.143   9.836   4.841  0.1195  0.3621  0.4422
  406MOL0     H53574   4.899   9.011   4.434 -1.1139  0.2634 -1.8603
  406MOL0     H53575   5.074   8.915   4.284 -2.3403 -0.9821  0.7877
  406MOL0     H53576   5.462   8.971   4.058  1.6735 -0.2751 -0.7201
  406MOL0     H53577   5.629   8.885   3.905 -0.1282  0.3288 -1.0693
  406MOL0     H53578   6.774   7.569   2.581 -1.4005  0.7951  1.6483
  406MOL0     H53579   6.990   7.475   2.495  1.0966  1.5710  0.1535
  406MOL0     H53580   7.362   7.330   2.523  1.8154 -1.7097 -2.6710
  406MOL0     H53581   7.541   7.219   2.431  0.3686  0.3530  0.5968
  406MOL0     H53582   7.946   7.407   2.477  0.0940 -3.8948  0.9672
  406MOL0     H53583   7.886   7.475   2.321 -3.8122 -1.6974 -1.0329
  406MOL0     H53584   7.960   7.248   2.213  0.2423 -0.0174 -1.3541
  406MOL0     H53585   8.070   7.385   2.238 -0.7287 -0.2929 -2.0799
  406MOL0     H53586   8.048   7.133   2.411  0.0895  0.0694  0.2212
  406MOL0     H53587   8.157   7.275   2.438  1.3831 -1.1894  0.4630
  406MOL0     H53588   8.231   7.045   2.288  2.6499  0.1366 -0.4052
  406MOL0     H53589   8.161   7.140   2.163  2.3692 -1.4056 -1.5300
  406MOL0     H53590   8.517   7.349   2.203  1.4501 -2.2039 -3.1771
  406MOL0     H53591   7.778   7.581   2.448  0.4496 -0.7681 -1.2929
  406MOL0     H53592   7.594   7.696   2.556  2.2336 -1.7469  2.7312
  407MOL0     O53593   1.531   8.592   0.586  0.0489 -0.7476  0.2143
  407MOL0     C53594   1.579   8.547   0.482  0.0897 -0.2275  0.6203
  407MOL0     O53595   1.515   8.505   0.361 -0.0064  0.2837  0.4658
  407MOL0     C53596   1.382   8.517   0.342  0.2438  0.0917 -0.4645
  407MOL0     C53597   1.310   8.623   0.399 -0.4484 -0.8306 -0.2500
  407MOL0     C53598   1.177   8.641   0.369  0.0327  0.5807 -0.0866
  407MOL0     C53599   1.109   8.546   0.290  0.5509 -0.1092 -0.5951
  407MOL0     O53600   0.976   8.549   0.266 -0.2228 -0.1805  0.2725
  407MOL0     C53601   0.903   8.675   0.255  0.7831 -0.5510 -0.1642
  407MOL0     C53602   0.777   8.654   0.181  0.7256 -0.2850  0.2237
  407MOL0     C53603   0.697   8.543   0.251  0.5394  0.2134 -0.3094
  407MOL0     C53604   0.553   8.542   0.197 -0.0854  0.2381 -0.2981
  407MOL0     C53605   0.478   8.432   0.267 -0.3236  0.2712 -0.3385
  407MOL0     C53606   0.333   8.471   0.233  0.1509 -0.4089  0.4229
  407MOL0     C53607   0.233   8.358   0.254 -0.0271 -0.0728  0.7764
  407MOL0     C53608   0.231   8.331   0.402  0.0235 -0.0107 -0.4804
  407MOL0     N53609   0.111   8.262   0.448  0.1902  0.5444 -1.2855
  407MOL0     C53610   0.110   8.129   0.473  0.4518  0.6676 -0.2585
  407MOL0     C53611  -0.013   8.099   0.530  0.7339 -0.5950  0.6172
  407MOL0     C53612  -0.049   7.957   0.574  0.0717 -0.0915 -0.3496
  407MOL0     C53613  -0.206   7.938   0.568 -0.9727  0.2628 -0.4495
  407MOL0     C53614  -0.282   8.001   0.686  1.0004  0.4469 -0.5841
  407MOL0     C53615  -0.425   8.044   0.641  0.1745 -0.7679  0.7701
  407MOL0     O53616  -0.492   7.926   0.596  0.1277 -0.0466 -0.5096
  407MOL0     C53617  -0.623   7.920   0.554  0.0515 -0.2331  1.0336
  407MOL0     C53618  -0.665   7.805   0.487  0.4003 -0.2795 -0.4233
  407MOL0     C53619  -0.794   7.778   0.445  0.3848 -0.4808 -0.9083
  407MOL0     C53620  -0.894   7.872   0.478 -0.0817  0.5541  0.3915
  407MOL0     C53621  -1.033   7.837   0.437  0.1772  0.2483  0.4058
  407MOL0     O53622  -1.119   7.942   0.444 -0.1932 -0.2979  0.2433
  407MOL0     C53623  -1.232   7.918   0.382 -0.2136 -0.4085 -0.4188
  407MOL0     C53624  -1.239   7.941   0.246  0.1754  0.0004  0.2041
  407MOL0     C53625  -1.357   7.942   0.179  0.5947 -0.5787  0.5130
  407MOL0     C53626  -1.476   7.928   0.257  0.5765 -0.3811  0.0074
  407MOL0     O53627  -1.594   7.925   0.180  0.3362  0.5033 -0.0809
  407MOL0     C53628  -1.726   7.906   0.246  0.1311 -0.3699 -0.4128
  407MOL0     C53629  -1.830   7.924   0.144  0.6331  0.7797 -0.1044
  407MOL0     C53630  -1.853   7.807   0.042 -0.1656  0.6107 -0.5187
  407MOL0     C53631  -1.996   7.780  -0.005  0.0713 -0.7608 -0.3808
  407MOL0     C53632  -2.004   7.699  -0.141  0.0520  0.4683 -0.5025
  407MOL0     C53633  -2.148   7.675  -0.175 -0.0672  0.3177  0.4821
  407MOL0     C53634  -2.171   7.561  -0.281 -1.0097  0.5338 -0.7637
  407MOL0     C53635  -2.072   7.547  -0.399  0.3685 -0.0025 -0.3513
  407MOL0    Cl53636  -2.059   7.697  -0.499  0.0312  0.2699  0.0158
  407MOL0     C53637  -1.479   7.897   0.392 -0.3456 -0.4453  0.0477
  407MOL0     C53638  -1.351   7.902   0.455  0.2902 -0.4355 -0.4445
  407MOL0     O53639  -1.052   7.730   0.373 -0.8727  0.3020 -0.2581
  407MOL0     C53640  -0.858   7.992   0.537  0.2228 -0.2980  0.2456
  407MOL0     C53641  -0.727   8.016   0.578 -0.2604 -0.1527  0.1863
  407MOL0     N53642  -0.091   8.212   0.514 -0.0201  0.0461 -0.9138
  407MOL0     N53643  -0.017   8.305   0.464  0.1567  0.3921  0.5833
  407MOL0     C53644   1.173   8.440   0.231  0.3891 -0.5938  0.7892
  407MOL0     C53645   1.315   8.425   0.259  0.0591 -0.7865  0.4416
  407MOL0     C53646   1.729   8.536   0.479  1.2960  0.7077 -0.9919
  407MOL0     C53647   1.807   8.580   0.587  1.8838 -0.7512 -0.5908
  407MOL0     C53648   1.942   8.575   0.585 -0.2709 -0.0538 -0.3508
  407MOL0     C53649   2.010   8.509   0.482 -0.2206 -0.0154  0.1966
  407MOL0     O53650   2.141   8.489   0.499 -0.6360  0.7516  0.5585
  407MOL0     C53651   2.213   8.532   0.384  0.8411  0.1436 -0.1576
  407MOL0     C53652   2.358   8.534   0.420 -0.4500  0.9831  0.5599
  407MOL0     C53653   2.399   8.671   0.484 -0.0059  0.7057 -0.3045
  407MOL0     C53654   2.537   8.671   0.539  0.3162  0.4194 -0.1412
  407MOL0     C53655   2.549   8.607   0.671 -0.1413  0.1401  0.3118
  407MOL0     C53656   2.557   8.553   0.781 -0.6366 -1.0474 -0.0943
  407MOL0     C53657   1.935   8.448   0.383  1.3906 -0.7035  0.8957
  407MOL0     C53658   1.795   8.469   0.373  0.0618 -0.2634 -0.7384
  407MOL0     H53659   1.358   8.701   0.458 -1.3971 -0.3474 -0.0992
  407MOL0     H53660   1.120   8.726   0.407 -2.9580  0.6616 -4.0402
  407MOL0     H53661   0.952   8.744   0.185  1.5345 -2.8373 -2.0348
  407MOL0     H53662   0.884   8.724   0.351 -1.9780  3.0901 -2.3186
  407MOL0     H53663   0.807   8.609   0.087  2.5350  0.7823  0.2523
  407MOL0     H53664   0.730   8.752   0.172  0.5606 -0.4813 -1.3568
  407MOL0     H53665   0.703   8.569   0.357  2.5616  1.0062 -0.5629
  407MOL0     H53666   0.747   8.446   0.237  1.6140  0.5780  0.8284
  407MOL0     H53667   0.510   8.639   0.223 -0.6926  0.8162 -3.1385
  407MOL0     H53668   0.544   8.528   0.089  0.3346  1.8975 -0.5722
  407MOL0     H53669   0.489   8.437   0.376 -1.9398 -2.3605  0.0270
  407MOL0     H53670   0.508   8.334   0.228 -2.6784 -1.1119  1.1058
  407MOL0     H53671   0.330   8.509   0.130  1.2602  1.8780  1.1634
  407MOL0     H53672   0.288   8.560   0.279  0.3105  0.1241 -0.4232
  407MOL0     H53673   0.130   8.379   0.224 -0.2850 -2.0884  0.1094
  407MOL0     H53674   0.278   8.276   0.197 -1.3949 -0.8667  0.7974
  407MOL0     H53675   0.220   8.426   0.454 -0.2421  1.2148 -2.6485
  407MOL0     H53676   0.317   8.277   0.442 -1.7015 -4.0566 -1.6689
  407MOL0     H53677   0.194   8.062   0.466  1.3988  1.6554  1.0351
  407MOL0     H53678  -0.009   7.949   0.675 -4.2760  0.0171  1.6361
  407MOL0     H53679   0.008   7.886   0.514  0.7996  1.7317 -1.9095
  407MOL0     H53680  -0.238   7.833   0.567  0.0308 -0.0619  0.1020
  407MOL0     H53681  -0.228   7.988   0.474  1.9965 -1.3067 -2.1367
  407MOL0     H53682  -0.291   7.933   0.771 -2.7352  0.6074 -0.6802
  407MOL0     H53683  -0.231   8.087   0.732  0.2560 -0.2461  1.6738
  407MOL0     H53684  -0.420   8.111   0.555 -0.4653  0.2823  1.5244
  407MOL0     H53685  -0.465   8.099   0.726  2.4251  0.9934  0.7894
  407MOL0     H53686  -0.593   7.727   0.467  1.1316  0.2204  0.1751
  407MOL0     H53687  -0.816   7.686   0.392 -2.9146  0.0026 -0.6217
  407MOL0     H53688  -1.141   7.966   0.206  0.5199 -0.7970  0.5197
  407MOL0     H53689  -1.362   7.962   0.073 -1.8097 -0.9353  0.5023
  407MOL0     H53690  -1.733   7.978   0.328  0.0027  1.8130 -2.2492
  407MOL0     H53691  -1.737   7.804   0.285  1.0800 -0.4696 -0.3939
  407MOL0     H53692  -1.801   8.015   0.089  1.6908 -0.1862 -1.1972
  407MOL0     H53693  -1.918   7.935   0.208 -1.1372  0.0169 -2.2372
  407MOL0     H53694  -1.819   7.721   0.099 -0.4054  0.6264 -0.3484
  407MOL0     H53695  -1.786   7.815  -0.044  0.7792 -2.0551 -0.1025
  407MOL0     H53696  -2.055   7.733   0.074 -0.1797 -0.2845 -0.2818
  407MOL0     H53697  -2.048   7.874  -0.021 -0.4811 -0.7071  1.4857
  407MOL0     H53698  -1.950   7.606  -0.123 -0.6373  0.0962 -0.3223
  407MOL0     H53699  -1.953   7.762  -0.215 -1.2964  2.4535  0.1737
  407MOL0     H53700  -2.193   7.766  -0.217 -1.3178 -1.3857 -2.1743
  407MOL0     H53701  -2.208   7.647  -0.088  1.5472 -0.4330  1.3873
  407MOL0     H53702  -2.164   7.468  -0.224 -0.3232  0.3103 -1.2048
  407MOL0     H53703  -2.274   7.566  -0.318 -1.4549 -0.0379  0.3577
  407MOL0     H53704  -2.106   7.468  -0.466 -0.9127 -0.3044  0.6055
  407MOL0     H53705  -1.972   7.519  -0.364 -0.0432 -0.5512  0.4100
  407MOL0     H53706  -1.566   7.880   0.454  0.2777  0.1058  1.0970
  407MOL0     H53707  -1.347   7.898   0.563 -2.1766  1.3956 -0.1886
  407MOL0     H53708  -0.927   8.075   0.553 -1.1221 -0.9417 -1.7519
  407MOL0     H53709  -0.691   8.103   0.632 -0.0961  0.9500 -1.6308
  407MOL0     H53710   1.111   8.368   0.178 -1.0039  0.6460  0.6805
  407MOL0     H53711   1.367   8.339   0.218  2.4342 -0.0570  1.7123
  407MOL0     H53712   1.751   8.630   0.665  1.5882 -1.2852 -0.4526
  407MOL0     H53713   2.004   8.617   0.663  0.8612 -2.5643  0.2134
  407MOL0     H53714   2.177   8.631   0.353 -1.6323 -1.2772 -2.1705
  407MOL0     H53715   2.192   8.465   0.300 -2.6220  1.2282 -0.3491
  407MOL0     H53716   2.377   8.453   0.491 -1.7047  0.2636  0.1058
  407MOL0     H53717   2.411   8.522   0.325  1.2780 -1.1450  1.7106
  407MOL0     H53718   2.324   8.696   0.560 -0.2277 -1.2877  0.2080
  407MOL0     H53719   2.389   8.742   0.402 -0.0108 -0.2438 -1.1562
  407MOL0     H53720   2.597   8.612   0.468 -0.8296 -1.0481  0.0560
  407MOL0     H53721   2.567   8.776   0.540 -1.7614  1.0887 -1.7011
  407MOL0     H53722   2.552   8.486   0.864 -3.0264  0.6695  1.2666
  407MOL0     H53723   1.998   8.398   0.310  1.0634 -1.4526  1.1157
  407MOL0     H53724   1.745   8.411   0.296  1.1552  0.2159 -1.8296
  408MOL0     O53725   5.404   0.372   8.185 -0.2802  0.1960  0.3680
  408MOL0     C53726   5.456   0.334   8.076 -0.1283 -0.3600 -0.4875
  408MOL0     O53727   5.399   0.345   7.956 -1.0050  0.1409  0.5295
  408MOL0     C53728   5.272   0.395   7.942  0.8755 -0.2813 -0.3456
  408MOL0     C53729   5.192   0.344   7.840  0.1362 -1.0822  0.5325
  408MOL0     C53730   5.059   0.374   7.803 -0.9250 -0.0300  0.4106
  408MOL0     C53731   5.003   0.478   7.871 -0.6144  0.5081 -0.3486
  408MOL0     O53732   4.875   0.508   7.857  0.4762  1.1474 -0.0704
  408MOL0     C53733   4.804   0.464   7.741  0.1319 -0.1689 -0.0852
  408MOL0     C53734   4.668   0.528   7.736 -0.3294 -0.2458 -0.0406
  408MOL0     C53735   4.589   0.501   7.608  0.0451  0.2543 -0.2071
  408MOL0     C53736   4.603   0.359   7.560  0.2956  0.5597  0.2381
  408MOL0     C53737   4.515   0.310   7.451  0.0906 -0.1303  0.4151
  408MOL0     C53738   4.376   0.298   7.501 -0.1337 -0.8328 -0.5767
  408MOL0     C53739   4.286   0.228   7.399  0.0175 -0.2246  0.5632
  408MOL0     C53740   4.139   0.249   7.415  0.3995 -0.2328  0.7686
  408MOL0     N53741   4.062   0.172   7.311  1.0410 -0.0370 -0.7488
  408MOL0     C53742   4.046   0.202   7.181  0.3449  0.0177  1.0522
  408MOL0     C53743   3.973   0.103   7.119 -1.1988 -0.6570  0.0888
  408MOL0     C53744   3.933   0.105   6.975 -1.0632 -0.5588  0.0159
  408MOL0     C53745   3.794   0.169   6.965 -0.5182 -0.1129  0.0892
  408MOL0     C53746   3.747   0.192   6.820  0.2342 -0.0290  0.0383
  408MOL0     C53747   3.593   0.213   6.805  0.2783 -0.0960  0.3497
  408MOL0     O53748   3.515   0.089   6.845 -0.0905 -1.0118  0.8298
  408MOL0     C53749   3.385   0.080   6.819  0.5751 -0.4532  0.4518
  408MOL0     C53750   3.320  -0.029   6.879 -0.2617 -0.5346  0.2841
  408MOL0     C53751   3.185  -0.040   6.859  0.4291 -0.0338 -0.1933
  408MOL0     C53752   3.109   0.047   6.780 -0.2352 -0.9995 -0.0668
  408MOL0     C53753   2.965   0.027   6.769  0.1490 -0.0272 -1.0899
  408MOL0     O53754   2.892   0.138   6.721 -0.0323 -0.0539 -0.2564
  408MOL0     C53755   2.753   0.134   6.693 -0.4924  0.1176 -0.0483
  408MOL0     C53756   2.709   0.244   6.631  1.1372  0.5190  0.3248
  408MOL0     C53757   2.564   0.247   6.607 -0.7091 -0.6678  0.0170
  408MOL0     C53758   2.479   0.142   6.639  0.5766  0.0372 -0.4784
  408MOL0     O53759   2.341   0.138   6.600 -0.4434  0.1336 -0.3231
  408MOL0     C53760   2.297   0.007   6.549 -0.2955  0.1549 -0.0475
  408MOL0     C53761   2.168   0.014   6.457 -0.1765  0.3945 -0.1890
  408MOL0     C53762   2.114  -0.129   6.448  0.3207 -0.7077  0.3244
  408MOL0     C53763   1.992  -0.141   6.359 -0.8031 -0.4496  0.6436
  408MOL0     C53764   1.903  -0.270   6.380  0.5331 -0.4138  0.1433
  408MOL0     C53765   1.858  -0.329   6.242 -0.1748 -0.1479  0.2189
  408MOL0     C53766   1.775  -0.232   6.161  0.9781  0.7478  0.4051
  408MOL0     C53767   1.787  -0.247   6.017 -0.1760  0.2937 -0.6895
  408MOL0    Cl53768   1.952  -0.250   5.964 -0.0191 -0.0075  0.4812
  408MOL0     C53769   2.528   0.036   6.708 -0.1625 -0.2094 -0.2620
  408MOL0     C53770   2.661   0.030   6.735 -1.2472 -0.5888 -0.6189
  408MOL0     O53771   2.926  -0.082   6.816  0.7800 -0.7831 -0.3956
  408MOL0     C53772   3.174   0.157   6.730 -0.1840 -0.0908  1.0504
  408MOL0     C53773   3.308   0.177   6.756  0.0018  0.4643  0.0619
  408MOL0     N53774   3.952   0.008   7.215  0.2946  0.2699 -0.3176
  408MOL0     N53775   4.010   0.042   7.331  0.3105  0.1372 -0.3240
  408MOL0     C53776   5.082   0.544   7.965  0.2523  0.0333  0.5135
  408MOL0     C53777   5.207   0.497   8.007 -0.4230 -0.4168  0.2080
  408MOL0     C53778   5.596   0.286   8.078  0.2051 -0.0577 -0.6385
  408MOL0     C53779   5.660   0.280   8.200 -0.6913 -0.5061  0.1987
  408MOL0     C53780   5.798   0.248   8.207 -0.2556  0.0596 -0.0689
  408MOL0     C53781   5.873   0.218   8.087  0.5276 -0.2520  0.3692
  408MOL0     O53782   6.007   0.192   8.077  0.7191 -0.0175  0.5339
  408MOL0     C53783   6.073   0.161   8.201 -0.2230  0.6466  0.1867
  408MOL0     C53784   6.207   0.081   8.179  0.3950  0.8493  0.1118
  408MOL0     C53785   6.285   0.072   8.308  0.4818  0.7956 -0.1109
  408MOL0     C53786   6.407  -0.022   8.303  0.3305  0.3793 -0.4353
  408MOL0     C53787   6.451  -0.079   8.437  0.6840  0.3153 -0.0972
  408MOL0     C53788   6.479  -0.114   8.546  0.6583  0.0548 -0.4766
  408MOL0     C53789   5.804   0.225   7.966  0.2854  0.2440 -0.3869
  408MOL0     C53790   5.674   0.264   7.969 -0.1744  0.4204  0.7688
  408MOL0     H53791   5.248   0.277   7.777  0.7002  1.6712 -2.1345
  408MOL0     H53792   5.019   0.315   7.721 -2.5322  2.7414 -0.9442
  408MOL0     H53793   4.784   0.356   7.745  0.8249 -0.3405 -0.9093
  408MOL0     H53794   4.858   0.483   7.648  0.5879  1.7490  0.5315
  408MOL0     H53795   4.669   0.634   7.760 -1.5763 -0.7589  2.7393
  408MOL0     H53796   4.615   0.487   7.822  0.1938 -1.5380 -0.2981
  408MOL0     H53797   4.627   0.559   7.523 -1.8354 -0.3654 -1.5569
  408MOL0     H53798   4.486   0.536   7.622 -0.1803  0.5262 -2.1720
  408MOL0     H53799   4.705   0.346   7.525 -0.0131  0.1914 -0.5601
  408MOL0     H53800   4.584   0.295   7.646  0.1071 -2.3691 -1.8582
  408MOL0     H53801   4.533   0.211   7.408  1.4720  0.7193 -1.0705
  408MOL0     H53802   4.521   0.391   7.378  1.7439  0.9378  1.6686
  408MOL0     H53803   4.332   0.392   7.536 -0.7207 -2.5470  3.9097
  408MOL0     H53804   4.374   0.253   7.601 -0.4982  2.4480  1.0446
  408MOL0     H53805   4.321   0.253   7.298  0.8877 -1.5038  0.5243
  408MOL0     H53806   4.305   0.121   7.406  2.0485  0.0666  0.1574
  408MOL0     H53807   4.116   0.355   7.418 -0.5168 -0.1543 -3.5025
  408MOL0     H53808   4.123   0.201   7.512 -0.1215 -0.4589  0.5726
  408MOL0     H53809   4.062   0.302   7.141 -3.0558  0.1612 -0.3095
  408MOL0     H53810   3.922   0.002   6.942  1.9894 -1.0254  0.1500
  408MOL0     H53811   4.001   0.163   6.912 -1.4225  0.0721  0.1997
  408MOL0     H53812   3.789   0.266   7.017 -0.3910  0.6043 -1.2000
  408MOL0     H53813   3.733   0.088   7.007  0.9652 -2.3029 -1.7583
  408MOL0     H53814   3.791   0.281   6.774 -0.7054 -0.1084 -1.0588
  408MOL0     H53815   3.757   0.095   6.770 -1.8058 -0.9447  1.3074
  408MOL0     H53816   3.569   0.234   6.700 -3.0504 -0.6324  0.8949
  408MOL0     H53817   3.559   0.305   6.853  2.7346  1.8717 -1.4045
  408MOL0     H53818   3.381  -0.107   6.923  0.1704 -1.0059 -1.1035
  408MOL0     H53819   3.141  -0.115   6.923  0.8604 -0.8976 -0.8842
  408MOL0     H53820   2.770   0.327   6.598 -0.9701  1.7019 -0.8899
  408MOL0     H53821   2.524   0.332   6.553 -3.4722 -2.2769 -0.6611
  408MOL0     H53822   2.273  -0.045   6.642  3.8755 -0.0900  1.0910
  408MOL0     H53823   2.380  -0.046   6.501 -0.8060 -0.8425  0.1348
  408MOL0     H53824   2.184   0.052   6.356  1.0458 -1.4048 -0.7314
  408MOL0     H53825   2.094   0.084   6.497 -0.6288 -0.0101 -0.3040
  408MOL0     H53826   2.090  -0.155   6.551 -1.3549  2.3874  0.8310
  408MOL0     H53827   2.186  -0.203   6.411  0.1364  1.0681 -4.2976
  408MOL0     H53828   1.933  -0.050   6.371  0.2840  0.1808  1.2898
  408MOL0     H53829   2.023  -0.137   6.254 -0.6238 -1.6058  0.6353
  408MOL0     H53830   1.815  -0.238   6.437  0.0428 -1.4439 -0.0041
  408MOL0     H53831   1.953  -0.347   6.439  3.0618 -0.3106 -1.6962
  408MOL0     H53832   1.818  -0.431   6.239  1.5112 -0.8445 -0.0509
  408MOL0     H53833   1.952  -0.350   6.190  1.1679  0.0635  2.4262
  408MOL0     H53834   1.672  -0.245   6.195  0.9422  1.2554  0.5088
  408MOL0     H53835   1.797  -0.128   6.187  1.0410  0.4293  1.6823
  408MOL0     H53836   1.737  -0.161   5.974 -2.1085  0.0879  0.9803
  408MOL0     H53837   1.742  -0.341   5.986  2.3369 -0.5686 -2.0604
  408MOL0     H53838   2.468  -0.050   6.740 -3.7198 -0.0213 -5.2048
  408MOL0     H53839   2.685  -0.050   6.804 -2.1251 -0.1923  0.1534
  408MOL0     H53840   3.114   0.219   6.665 -0.6759 -1.3634  0.2528
  408MOL0     H53841   3.363   0.262   6.718  0.6418  0.0081 -0.0658
  408MOL0     H53842   5.025   0.621   8.016 -1.1338 -2.8323  3.7011
  408MOL0     H53843   5.260   0.547   8.088 -0.8231 -1.2662  1.0109
  408MOL0     H53844   5.608   0.304   8.292 -1.5804 -1.1812 -0.1183
  408MOL0     H53845   5.847   0.260   8.304 -0.9847 -1.6619  0.5430
  408MOL0     H53846   6.009   0.092   8.256 -3.2622  1.4681 -2.0278
  408MOL0     H53847   6.087   0.252   8.259  0.8477  0.3339  0.4381
  408MOL0     H53848   6.197  -0.022   8.143  1.0036  0.5887  0.6859
  408MOL0     H53849   6.278   0.140   8.120 -0.4811  0.6042 -1.2359
  408MOL0     H53850   6.215   0.038   8.386  1.2300 -0.4517  0.0368
  408MOL0     H53851   6.314   0.173   8.339 -1.2960  0.3977  3.3453
  408MOL0     H53852   6.392  -0.115   8.247 -1.1431  1.5188 -2.0059
  408MOL0     H53853   6.495   0.021   8.255  0.2944  1.4400  0.4123
  408MOL0     H53854   6.500  -0.148   8.646  3.6248  3.0895  0.0960
  408MOL0     H53855   5.854   0.195   7.874  0.8558 -1.4067  0.4093
  408MOL0     H53856   5.617   0.276   7.878 -0.5363  3.1164  1.2701
  409MOL0     O53857   2.709   8.086  10.157 -0.2520  0.3450  0.1915
  409MOL0     C53858   2.737   8.164  10.064  0.5775 -0.3241  0.3746
  409MOL0     O53859   2.647   8.243   9.997 -0.2663 -1.2910 -0.5987
  409MOL0     C53860   2.520   8.266  10.040 -1.0680 -0.0417 -0.6435
  409MOL0     C53861   2.420   8.276   9.946 -0.2943  0.0199  0.1001
  409MOL0     C53862   2.295   8.316   9.979  0.0098 -0.1366 -0.6740
  409MOL0     C53863   2.272   8.348  10.114  0.4028  0.8162 -1.0782
  409MOL0     O53864   2.154   8.384  10.175  0.7676 -0.5228  0.3155
  409MOL0     C53865   2.066   8.471  10.095 -0.5200  0.6393  0.5877
  409MOL0     C53866   1.927   8.473  10.161  0.0955  0.9721 -0.0607
  409MOL0     C53867   1.853   8.595  10.119  1.4314  0.0534 -0.1426
  409MOL0     C53868   1.710   8.625  10.187  0.2535  0.5735 -0.9849
  409MOL0     C53869   1.612   8.522  10.146  0.5413 -0.6422  0.5860
  409MOL0     C53870   1.467   8.573  10.157 -0.9408  0.0207  0.0324
  409MOL0     C53871   1.360   8.462  10.158 -0.0025 -0.2819 -0.9902
  409MOL0     C53872   1.311   8.416  10.301 -0.2824 -0.0683 -0.3012
  409MOL0     N53873   1.191   8.333  10.298  0.4095 -0.2458 -0.0392
  409MOL0     C53874   1.181   8.202  10.334 -0.1145 -0.6294  0.0226
  409MOL0     C53875   1.048   8.185  10.315 -0.4559  0.7272  0.7575
  409MOL0     C53876   0.982   8.044  10.326 -0.2510  0.9053  0.0104
  409MOL0     C53877   0.830   8.051  10.355  0.2247  0.1200  0.8200
  409MOL0     C53878   0.777   7.916  10.333  0.0069 -0.3017 -0.3196
  409MOL0     C53879   0.642   7.901  10.427 -0.5334 -0.7428 -0.4217
  409MOL0     O53880   0.553   8.014  10.416  0.4999  0.3777  0.5027
  409MOL0     C53881   0.437   7.998  10.482 -0.4925  0.2668  0.8415
  409MOL0     C53882   0.318   8.043  10.419  0.7697 -0.4707  0.7122
  409MOL0     C53883   0.199   8.046  10.490  0.1279 -0.3497 -0.2043
  409MOL0     C53884   0.187   7.993  10.614 -0.0856 -0.3232 -0.2384
  409MOL0     C53885   0.058   7.992  10.688  0.9418  0.0113 -1.5236
  409MOL0     O53886   0.049   7.904  10.795 -0.7521  0.2816  0.0793
  409MOL0     C53887  -0.071   7.873  10.856  0.4091 -0.3830 -0.2000
  409MOL0     C53888  -0.064   7.817  10.984 -0.2752 -0.2060  0.2423
  409MOL0     C53889  -0.172   7.757  11.044  0.7681 -0.4414 -0.3081
  409MOL0     C53890  -0.297   7.751  10.980 -1.2636  0.4982 -0.4614
  409MOL0     O53891  -0.394   7.694  11.059  0.0969 -0.7767 -0.2293
  409MOL0     C53892  -0.515   7.654  10.995  0.8662  0.0961  0.2242
  409MOL0     C53893  -0.516   7.509  10.940  0.5687  0.3789  0.6513
  409MOL0     C53894  -0.429   7.477  10.817 -0.1517 -0.0167 -0.0993
  409MOL0     C53895  -0.435   7.325  10.773  0.0852 -1.1359 -0.2831
  409MOL0     C53896  -0.404   7.311  10.624  0.1017  0.3419  0.3707
  409MOL0     C53897  -0.395   7.161  10.585  0.0857 -0.3178 -0.0360
  409MOL0     C53898  -0.290   7.076  10.663  0.1302  0.0646  1.0379
  409MOL0     C53899  -0.149   7.104  10.624  0.2072  0.6476 -0.1000
  409MOL0    Cl53900  -0.138   7.070  10.444  0.2992  0.0723 -0.2367
  409MOL0     C53901  -0.300   7.806  10.848 -0.3336 -0.5441 -0.1522
  409MOL0     C53902  -0.198   7.872  10.790 -0.2015  0.4456 -0.0284
  409MOL0     O53903  -0.026   8.081  10.653 -0.3224 -0.9283 -0.1760
  409MOL0     C53904   0.300   7.943  10.674  0.8015  0.0788 -0.2109
  409MOL0     C53905   0.420   7.953  10.613 -0.5030 -0.0157  0.4764
  409MOL0     N53906   0.986   8.293  10.255  0.2323  0.3998  0.1426
  409MOL0     N53907   1.076   8.380  10.249 -0.1468 -0.3956  0.0088
  409MOL0     C53908   2.378   8.344  10.207 -0.1220 -0.6396  0.5780
  409MOL0     C53909   2.496   8.298  10.169  0.1106 -0.1292 -0.1292
  409MOL0     C53910   2.873   8.175  10.017  1.2643 -0.0233 -0.3621
  409MOL0     C53911   2.909   8.243   9.893  0.8770  0.5445 -0.6038
  409MOL0     C53912   3.036   8.262   9.855  0.6830  1.3382  0.3800
  409MOL0     C53913   3.145   8.224   9.937  0.0782 -0.1840  0.4883
  409MOL0     O53914   3.274   8.251   9.905 -1.1978  0.4213 -0.2701
  409MOL0     C53915   3.311   8.228   9.763 -0.5341 -0.3760  0.1256
  409MOL0     C53916   3.278   8.099   9.703  0.3760  0.1157 -0.7659
  409MOL0     C53917   3.394   8.003   9.711 -0.3975  0.1659  0.5760
  409MOL0     C53918   3.427   7.963   9.856  0.7485 -1.3526  0.1187
  409MOL0     C53919   3.539   7.873   9.846 -0.1972 -0.0175  0.6618
  409MOL0     C53920   3.626   7.805   9.802 -0.0944 -0.2452 -0.1220
  409MOL0     C53921   3.115   8.157  10.055  0.0117  0.1195 -0.8775
  409MOL0     C53922   2.980   8.139  10.099 -1.0224 -0.2241  0.4687
  409MOL0     H53923   2.432   8.253   9.840  1.4298 -1.1199  0.5026
  409MOL0     H53924   2.227   8.324   9.895  0.0722  1.0762 -0.6297
  409MOL0     H53925   2.069   8.446   9.989  2.1675  1.3173  0.4346
  409MOL0     H53926   2.098   8.575  10.095 -1.7297  1.0356 -0.4428
  409MOL0     H53927   1.940   8.463  10.269 -0.0538 -1.7220 -0.2321
  409MOL0     H53928   1.871   8.382  10.138  1.7992  0.2373 -1.5630
  409MOL0     H53929   1.848   8.588  10.010  1.7469 -2.8913 -0.0560
  409MOL0     H53930   1.914   8.678  10.156  1.2586 -0.5267  1.5077
  409MOL0     H53931   1.725   8.637  10.295 -3.1289  2.2238 -0.5688
  409MOL0     H53932   1.688   8.729  10.162  2.9885  2.1860  2.5023
  409MOL0     H53933   1.630   8.425  10.194  1.1310 -0.3011  1.0724
  409MOL0     H53934   1.637   8.500  10.042  1.3857 -0.8189  0.8200
  409MOL0     H53935   1.449   8.634  10.068 -0.2245 -1.3607 -1.0882
  409MOL0     H53936   1.454   8.630  10.250  1.4006  0.5047  0.1284
  409MOL0     H53937   1.275   8.487  10.095 -0.4468  0.3032 -0.1624
  409MOL0     H53938   1.410   8.375  10.113  1.1535  0.4677 -1.1910
  409MOL0     H53939   1.286   8.502  10.364  3.6415  0.0307  1.3985
  409MOL0     H53940   1.392   8.367  10.355  0.3208  1.3753  0.1582
  409MOL0     H53941   1.257   8.138  10.377  0.3912 -0.1180 -0.0944
  409MOL0     H53942   1.034   7.992  10.408  3.5606  3.5430 -0.4145
  409MOL0     H53943   0.994   7.993  10.231 -0.5634  0.0007  0.4495
  409MOL0     H53944   0.786   8.119  10.282  0.6472  0.0741  0.5196
  409MOL0     H53945   0.819   8.077  10.461  0.6151 -1.8458  1.3942
  409MOL0     H53946   0.746   7.896  10.230 -0.6962  0.1851 -0.2125
  409MOL0     H53947   0.849   7.836  10.354 -2.7543 -2.9493 -0.1054
  409MOL0     H53948   0.676   7.897  10.531 -1.0814 -2.2437 -0.2655
  409MOL0     H53949   0.604   7.803  10.398 -0.7856 -0.8128  0.1296
  409MOL0     H53950   0.326   8.075  10.316 -0.2982 -2.4277 -0.0181
  409MOL0     H53951   0.112   8.098  10.450  0.8887 -0.0733 -1.5794
  409MOL0     H53952   0.035   7.824  11.030  0.2389 -1.2761 -0.6692
  409MOL0     H53953  -0.169   7.711  11.143 -0.9968 -1.6289 -0.7571
  409MOL0     H53954  -0.552   7.730  10.925  0.6488  1.2396  1.5373
  409MOL0     H53955  -0.597   7.650  11.067 -0.3506  0.1608 -1.1081
  409MOL0     H53956  -0.622   7.488  10.923  0.9492 -1.3409  0.2079
  409MOL0     H53957  -0.486   7.438  11.018 -0.2753  0.0237  0.6608
  409MOL0     H53958  -0.332   7.516  10.849 -1.2008  0.7974  2.3863
  409MOL0     H53959  -0.455   7.551  10.741  2.0456  1.6802  0.6826
  409MOL0     H53960  -0.369   7.265  10.836  1.5223  2.0710  1.5768
  409MOL0     H53961  -0.539   7.297  10.790 -0.4862  1.3806  0.9591
  409MOL0     H53962  -0.305   7.355  10.609  1.8021 -2.8142  1.4022
  409MOL0     H53963  -0.462   7.376  10.558  0.4387 -0.1682 -0.4517
  409MOL0     H53964  -0.371   7.151  10.479  0.5174 -0.5344  0.0819
  409MOL0     H53965  -0.495   7.119  10.599 -0.7521  2.1554  2.1040
  409MOL0     H53966  -0.311   7.086  10.770  2.5379  0.1087  1.5513
  409MOL0     H53967  -0.316   6.971  10.643  0.8625  0.0814 -0.0453
  409MOL0     H53968  -0.085   7.034  10.680 -0.7592  0.8841  1.3719
  409MOL0     H53969  -0.115   7.206  10.645 -0.1390  0.5017  1.2853
  409MOL0     H53970  -0.391   7.804  10.788 -1.6259  0.7675  1.6814
  409MOL0     H53971  -0.217   7.905  10.688 -0.8986  0.0345 -0.0337
  409MOL0     H53972   0.284   7.914  10.777  1.1486  0.8951  0.0806
  409MOL0     H53973   0.506   7.919  10.671  2.6423  1.4787 -2.8900
  409MOL0     H53974   2.375   8.372  10.312 -2.0747 -0.1723  0.4399
  409MOL0     H53975   2.582   8.297  10.235  1.1283  0.0439 -1.4180
  409MOL0     H53976   2.826   8.278   9.834 -2.2744 -1.0051  2.5342
  409MOL0     H53977   3.039   8.298   9.753 -2.1429  0.8040  0.0222
  409MOL0     H53978   3.412   8.260   9.735 -1.4976  1.2703 -1.7355
  409MOL0     H53979   3.249   8.299   9.708 -0.4135 -0.2896  0.1011
  409MOL0     H53980   3.189   8.056   9.751  1.6489  0.1636  1.8647
  409MOL0     H53981   3.263   8.100   9.595 -0.6556  0.8139 -0.6262
  409MOL0     H53982   3.478   8.056   9.664 -1.0749 -0.8552 -1.9524
  409MOL0     H53983   3.378   7.909   9.658  1.3050  1.2203 -2.0224
  409MOL0     H53984   3.463   8.044   9.920 -0.5954 -1.2600  0.7836
  409MOL0     H53985   3.338   7.926   9.907  0.7271  3.8188  4.7368
  409MOL0     H53986   3.711   7.749   9.768 -0.2150  1.2246 -3.1794
  409MOL0     H53987   3.188   8.140  10.132 -2.8593 -1.0260  1.8010
  409MOL0     H53988   2.972   8.089  10.195  2.5887  0.6044  1.3370
  410MOL0     O53989   4.664   8.177   3.814 -0.3292  0.4217 -0.0811
  410MOL0     C53990   4.744   8.233   3.739 -0.5811 -0.1123  0.0041
  410MOL0     O53991   4.740   8.364   3.693  0.6656 -0.3720 -0.1770
  410MOL0     C53992   4.642   8.452   3.736  0.0071 -0.3156 -0.6599
  410MOL0     C53993   4.598   8.468   3.864 -0.3850 -0.0371  0.1815
  410MOL0     C53994   4.506   8.567   3.903  0.0198  0.2227  0.5441
  410MOL0     C53995   4.447   8.649   3.816 -0.1921  0.0156  0.6944
  410MOL0     O53996   4.350   8.742   3.853 -0.4714  0.2557  0.2835
  410MOL0     C53997   4.326   8.776   3.989 -0.2705 -0.1408  0.0425
  410MOL0     C53998   4.240   8.901   4.000  0.1612  0.6727  0.0212
  410MOL0     C53999   4.186   8.909   4.143 -0.4461  0.1209  0.1754
  410MOL0     C54000   4.059   8.997   4.150  0.1053 -0.0511  0.6029
  410MOL0     C54001   4.006   9.005   4.297  0.0692  0.0484  0.1896
  410MOL0     C54002   3.875   9.063   4.312  0.3690  1.0763  0.3920
  410MOL0     C54003   3.871   9.207   4.277 -0.1237 -0.9263  0.6162
  410MOL0     C54004   3.756   9.252   4.188 -0.9752 -0.0870 -0.0809
  410MOL0     N54005   3.630   9.224   4.251  0.6939 -0.9436  0.2223
  410MOL0     C54006   3.551   9.309   4.329 -0.4826  0.8265 -0.2491
  410MOL0     C54007   3.434   9.241   4.345 -0.2214 -0.3728 -0.1471
  410MOL0     C54008   3.309   9.309   4.390 -0.9626  0.1835  0.4009
  410MOL0     C54009   3.227   9.368   4.275 -0.2765 -0.2711  0.6384
  410MOL0     C54010   3.156   9.262   4.191  0.2145 -0.0199  1.0908
  410MOL0     C54011   3.072   9.159   4.267 -0.0226  0.1694 -0.1999
  410MOL0     O54012   2.992   9.228   4.362 -0.1688 -0.2017  0.1927
  410MOL0     C54013   2.922   9.145   4.445 -0.5323  0.7343  0.9309
  410MOL0     C54014   2.804   9.089   4.403  0.3930 -0.2468 -0.2480
  410MOL0     C54015   2.714   9.017   4.493  0.0643 -0.6015  0.4447
  410MOL0     C54016   2.756   8.994   4.622  0.1500  0.2024  0.6663
  410MOL0     C54017   2.659   8.928   4.715  0.6529 -0.3078 -0.1563
  410MOL0     O54018   2.557   8.855   4.666 -0.5819 -0.0358 -0.5630
  410MOL0     C54019   2.486   8.766   4.749  0.5848  0.1289 -0.0170
  410MOL0     C54020   2.345   8.776   4.732 -0.4269  0.2301  0.2000
  410MOL0     C54021   2.264   8.689   4.806  0.0737 -0.7520  1.0356
  410MOL0     C54022   2.310   8.597   4.900 -0.1894 -0.0916  0.3248
  410MOL0     O54023   2.234   8.518   4.971  0.6913  0.2055 -0.0335
  410MOL0     C54024   2.108   8.475   4.894 -0.6037 -0.7969  0.0753
  410MOL0     C54025   2.060   8.356   4.963  0.3842  0.8130 -0.4385
  410MOL0     C54026   1.972   8.380   5.091  1.3530 -0.4140  0.1659
  410MOL0     C54027   1.851   8.473   5.055  0.3994  0.8068 -0.1861
  410MOL0     C54028   1.731   8.454   5.149 -1.0184 -0.3538  0.1487
  410MOL0     C54029   1.649   8.334   5.105 -0.4964 -0.3158 -1.2602
  410MOL0     C54030   1.518   8.321   5.186 -0.2803  0.8764 -0.4661
  410MOL0     C54031   1.403   8.402   5.124 -0.1209  0.2115 -0.4591
  410MOL0    Cl54032   1.333   8.317   4.980 -0.1440 -0.4722  0.4668
  410MOL0     C54033   2.451   8.582   4.912 -0.8303  0.6391  0.4563
  410MOL0     C54034   2.530   8.663   4.830 -0.1378 -0.2888  0.0060
  410MOL0     O54035   2.700   8.914   4.834  0.5000 -0.0759  0.0666
  410MOL0     C54036   2.878   9.045   4.657  0.5723  0.1451  0.7029
  410MOL0     C54037   2.949   9.125   4.578 -0.9706 -0.6025 -0.9814
  410MOL0     N54038   3.439   9.116   4.287  0.2238 -0.6602  0.1280
  410MOL0     N54039   3.558   9.111   4.230  1.0362  0.0495 -0.1411
  410MOL0     C54040   4.487   8.643   3.683 -0.1758 -0.3655  0.5524
  410MOL0     C54041   4.585   8.546   3.640 -0.4325 -0.3434 -0.3080
  410MOL0     C54042   4.872   8.160   3.724  0.4413 -0.5160 -0.8863
  410MOL0     C54043   4.998   8.232   3.703  0.3181 -0.4452 -0.4852
  410MOL0     C54044   5.107   8.164   3.665 -0.2032 -0.3291  0.1927
  410MOL0     C54045   5.100   8.032   3.630  0.0958 -0.2091 -0.2502
  410MOL0     O54046   5.219   7.980   3.581  0.6313 -0.2464  0.3565
  410MOL0     C54047   5.230   7.838   3.551 -0.4574 -0.2257 -0.5773
  410MOL0     C54048   5.371   7.811   3.488 -0.1090  0.7759 -0.6617
  410MOL0     C54049   5.487   7.866   3.572 -0.0192  0.2143  0.1779
  410MOL0     C54050   5.627   7.822   3.520  0.4367  0.5844 -0.6218
  410MOL0     C54051   5.722   7.895   3.599 -0.9879 -0.3759 -0.1916
  410MOL0     C54052   5.799   7.941   3.679 -0.3593 -0.9838  0.1326
  410MOL0     C54053   4.988   7.958   3.654  0.1880  0.7705  0.0633
  410MOL0     C54054   4.866   8.021   3.698 -0.0618 -0.3111 -0.0433
  410MOL0     H54055   4.644   8.419   3.949  2.7395 -0.0952 -1.4111
  410MOL0     H54056   4.493   8.574   4.011 -1.9259 -1.3448  0.4562
  410MOL0     H54057   4.415   8.797   4.049 -0.4842  2.4796 -0.4328
  410MOL0     H54058   4.272   8.696   4.040 -0.6665 -0.6924 -1.1914
  410MOL0     H54059   4.158   8.891   3.928 -1.4813  1.0031  1.7527
  410MOL0     H54060   4.285   8.996   3.971 -2.0742  1.9012  0.3379
  410MOL0     H54061   4.261   8.945   4.214  0.3284  0.9381 -1.0280
  410MOL0     H54062   4.163   8.805   4.169  2.0756 -0.6596 -0.3243
  410MOL0     H54063   4.075   9.100   4.115 -1.5675 -0.2784 -0.9340
  410MOL0     H54064   3.982   8.958   4.083 -0.4094  1.2174  0.4232
  410MOL0     H54065   4.069   9.065   4.363 -0.2320  1.4155 -0.7206
  410MOL0     H54066   4.005   8.898   4.321 -2.7061 -1.0731 -3.8583
  410MOL0     H54067   3.840   9.036   4.412 -1.3413 -0.3938 -0.5680
  410MOL0     H54068   3.804   9.010   4.249  0.8951 -0.1337  0.7708
  410MOL0     H54069   3.873   9.269   4.368 -0.5798 -1.3214  0.9041
  410MOL0     H54070   3.966   9.230   4.228 -0.3285  1.0719  1.0415
  410MOL0     H54071   3.777   9.187   4.102  1.2335 -1.0094  1.0588
  410MOL0     H54072   3.763   9.354   4.149 -3.0647 -0.2674 -1.0763
  410MOL0     H54073   3.577   9.411   4.353  1.0087  0.9431 -2.1538
  410MOL0     H54074   3.347   9.388   4.456 -0.1275 -0.3653  0.6031
  410MOL0     H54075   3.255   9.236   4.452 -0.5494 -1.4160 -1.0259
  410MOL0     H54076   3.300   9.419   4.211 -0.6077 -0.4064  0.1506
  410MOL0     H54077   3.146   9.436   4.301 -0.8919  0.0399 -1.8140
  410MOL0     H54078   3.095   9.310   4.114  1.6622  0.6959  0.3497
  410MOL0     H54079   3.237   9.213   4.136 -0.7880 -0.2582 -0.2438
  410MOL0     H54080   3.135   9.103   4.336 -0.1366  0.8162  0.4421
  410MOL0     H54081   3.019   9.092   4.198  2.2631  0.4874 -2.3904
  410MOL0     H54082   2.772   9.111   4.302 -1.3939  3.4800  0.9519
  410MOL0     H54083   2.612   9.001   4.458 -0.0198  2.5426 -1.0632
  410MOL0     H54084   2.298   8.854   4.674 -1.2124 -0.4006 -0.0325
  410MOL0     H54085   2.158   8.712   4.796 -0.0925 -1.6099  0.6965
  410MOL0     H54086   2.137   8.449   4.792  0.2111  1.0940 -0.2232
  410MOL0     H54087   2.029   8.550   4.888 -0.5508 -0.8608 -2.1455
  410MOL0     H54088   2.144   8.289   4.984 -0.7173 -1.0277 -1.5500
  410MOL0     H54089   2.001   8.299   4.890  0.7642 -0.9416  0.5626
  410MOL0     H54090   2.035   8.441   5.156  0.9683  1.8586 -1.4594
  410MOL0     H54091   1.938   8.283   5.127 -0.7255  1.5923  4.4163
  410MOL0     H54092   1.883   8.577   5.057  1.0737  0.6013  0.2696
  410MOL0     H54093   1.808   8.458   4.956  1.1050 -0.2034 -0.3521
  410MOL0     H54094   1.661   8.535   5.128  1.0379  1.0046 -2.0904
  410MOL0     H54095   1.764   8.464   5.253 -3.0057  1.0936  0.7040
  410MOL0     H54096   1.715   8.246   5.110 -0.0726  0.0349 -0.4052
  410MOL0     H54097   1.621   8.350   5.001  0.1303 -0.6358 -1.4847
  410MOL0     H54098   1.485   8.217   5.197  0.1702  0.7038 -0.7227
  410MOL0     H54099   1.534   8.351   5.290  0.7827  1.0299 -0.6684
  410MOL0     H54100   1.439   8.502   5.097 -0.0512  0.6506  1.1433
  410MOL0     H54101   1.328   8.406   5.203 -3.7099 -1.2491 -3.4947
  410MOL0     H54102   2.497   8.504   4.972 -0.4836  0.4924  0.0052
  410MOL0     H54103   2.638   8.662   4.840 -0.1695  1.4693  0.9382
  410MOL0     H54104   2.923   9.041   4.755 -3.0764  3.0905  2.7587
  410MOL0     H54105   3.035   9.161   4.634 -2.1500 -0.5991  0.9156
  410MOL0     H54106   4.426   8.700   3.614 -2.9463 -2.3038  1.2541
  410MOL0     H54107   4.622   8.549   3.538 -1.0635  0.4011 -0.5277
  410MOL0     H54108   5.001   8.340   3.711 -1.5805 -0.3319 -0.7582
  410MOL0     H54109   5.200   8.217   3.648  1.6972 -3.0542  1.3210
  410MOL0     H54110   5.149   7.822   3.478  0.0876 -3.8396 -0.6092
  410MOL0     H54111   5.211   7.771   3.635 -1.0206 -1.4513 -1.6259
  410MOL0     H54112   5.388   7.703   3.493 -3.0233  0.2322 -0.4741
  410MOL0     H54113   5.385   7.857   3.390 -1.6562  1.3101 -0.6537
  410MOL0     H54114   5.466   7.832   3.674 -0.0579 -1.1324 -0.2536
  410MOL0     H54115   5.489   7.975   3.572  1.7073  0.3203 -3.1457
  410MOL0     H54116   5.656   7.717   3.527  1.9232  0.9323 -1.0173
  410MOL0     H54117   5.633   7.851   3.414  3.1917  2.0509 -0.1598
  410MOL0     H54118   5.870   7.965   3.756  0.3950  0.6907 -1.0159
  410MOL0     H54119   4.983   7.855   3.620  1.7020  1.0195 -1.0500
  410MOL0     H54120   4.770   7.970   3.699 -1.6723  2.4717  2.3354
  411MOL0     O54121   0.262   3.252   8.202 -0.4477  1.0971 -0.7263
  411MOL0     C54122   0.200   3.203   8.108 -0.0659 -0.2281  0.6660
  411MOL0     O54123   0.250   3.182   7.984  0.0473  0.7568 -0.3255
  411MOL0     C54124   0.373   3.222   7.946  0.0178  0.3555 -0.5723
  411MOL0     C54125   0.434   3.152   7.842  0.5298 -0.7022  0.8117
  411MOL0     C54126   0.554   3.206   7.780  0.1695  0.1099 -0.7924
  411MOL0     C54127   0.613   3.321   7.829 -0.6018 -0.2572 -1.0252
  411MOL0     O54128   0.719   3.381   7.775 -0.3658  0.5451 -0.5381
  411MOL0     C54129   0.787   3.316   7.659  0.0289 -0.0331 -0.5520
  411MOL0     C54130   0.894   3.414   7.615  0.4902 -0.0593 -0.5780
  411MOL0     C54131   0.961   3.353   7.491 -0.2087  0.3705  0.0743
  411MOL0     C54132   1.060   3.240   7.516 -0.4032  0.0670  0.1620
  411MOL0     C54133   1.156   3.210   7.405 -0.1725 -0.6951 -0.4848
  411MOL0     C54134   1.210   3.332   7.332  0.1241 -0.3273  0.2655
  411MOL0     C54135   1.310   3.296   7.227 -0.7226 -0.0068  0.9502
  411MOL0     C54136   1.242   3.235   7.101 -0.0340  0.1571  0.1336
  411MOL0     N54137   1.332   3.260   6.985  0.0239 -0.3726 -0.0373
  411MOL0     C54138   1.331   3.363   6.899  0.5595 -0.1402 -0.3194
  411MOL0     C54139   1.422   3.335   6.800  0.2860  0.1111 -0.5010
  411MOL0     C54140   1.453   3.414   6.686 -0.4158 -0.0498  0.1282
  411MOL0     C54141   1.353   3.526   6.655 -0.1448 -0.6763 -0.7951
  411MOL0     C54142   1.240   3.485   6.563  0.2909 -0.6605 -0.7434
  411MOL0     C54143   1.160   3.604   6.521 -1.0684  0.6387 -0.0630
  411MOL0     O54144   1.112   3.673   6.641 -0.3127  0.2114 -0.5281
  411MOL0     C54145   0.985   3.670   6.665  0.6950  0.2765  0.8409
  411MOL0     C54146   0.915   3.559   6.719  0.2495 -0.4431  0.3489
  411MOL0     C54147   0.782   3.565   6.753  0.7140  0.1272 -0.4471
  411MOL0     C54148   0.700   3.677   6.714  0.4390  0.6252 -0.4400
  411MOL0     C54149   0.556   3.685   6.730 -0.8071  0.7971 -0.4577
  411MOL0     O54150   0.487   3.759   6.635 -0.3872  0.4247 -0.0055
  411MOL0     C54151   0.359   3.774   6.663  0.0829 -0.4384 -0.6985
  411MOL0     C54152   0.264   3.715   6.577 -0.7806 -0.2942 -0.4131
  411MOL0     C54153   0.129   3.716   6.622  0.6277 -0.4078 -0.2887
  411MOL0     C54154   0.096   3.800   6.728 -0.0610  0.2176  0.6289
  411MOL0     O54155  -0.037   3.828   6.765  0.3432  0.1726 -0.3383
  411MOL0     C54156  -0.152   3.767   6.699  0.3939 -0.0597 -0.4957
  411MOL0     C54157  -0.283   3.839   6.718  0.1164 -0.6467  0.1892
  411MOL0     C54158  -0.415   3.761   6.671 -0.7732 -0.8030  0.2521
  411MOL0     C54159  -0.413   3.698   6.534 -0.7336 -0.2198  0.8045
  411MOL0     C54160  -0.538   3.612   6.511 -0.0836  0.4940 -0.0766
  411MOL0     C54161  -0.681   3.658   6.549 -0.6042  0.3245 -0.1680
  411MOL0     C54162  -0.794   3.566   6.483 -0.2982 -0.4065 -0.7023
  411MOL0     C54163  -0.779   3.415   6.503 -0.4833 -0.1018  0.4582
  411MOL0    Cl54164  -0.919   3.335   6.431  0.0512 -0.4160 -0.5076
  411MOL0     C54165   0.190   3.868   6.804 -0.2129  0.1760 -0.4075
  411MOL0     C54166   0.323   3.854   6.773 -0.2394 -0.2504  0.7070
  411MOL0     O54167   0.506   3.629   6.823 -0.2796  0.7998 -0.5668
  411MOL0     C54168   0.764   3.781   6.654 -1.0886  0.1304  0.3889
  411MOL0     C54169   0.900   3.784   6.633 -0.4243 -0.7170 -0.2344
  411MOL0     N54170   1.488   3.221   6.834 -0.5229  0.5340 -0.3754
  411MOL0     N54171   1.435   3.177   6.947  0.6162 -0.0651 -0.1224
  411MOL0     C54172   0.565   3.378   7.942  0.0367  1.2310  1.1374
  411MOL0     C54173   0.442   3.337   7.999 -0.4303  0.1157 -0.0798
  411MOL0     C54174   0.054   3.172   8.116  0.3423 -0.6898 -0.9376
  411MOL0     C54175   0.002   3.149   8.243 -0.0457  0.0979 -0.2700
  411MOL0     C54176  -0.131   3.116   8.262  0.4249  0.0816  0.1186
  411MOL0     C54177  -0.225   3.114   8.155 -1.0483 -0.3937 -0.5577
  411MOL0     O54178  -0.356   3.084   8.171  0.1282  0.1027 -0.0153
  411MOL0     C54179  -0.440   3.114   8.063 -0.4612 -1.1351  0.6093
  411MOL0     C54180  -0.587   3.071   8.104 -0.2986 -0.1311 -1.3095
  411MOL0     C54181  -0.633   3.172   8.215 -0.1461 -0.1671 -0.4528
  411MOL0     C54182  -0.765   3.148   8.277 -0.4789 -0.1234  0.3681
  411MOL0     C54183  -0.878   3.114   8.180  0.5255 -0.6890  0.2876
  411MOL0     C54184  -0.960   3.082   8.098 -0.0850 -0.2167 -0.1022
  411MOL0     C54185  -0.168   3.146   8.024 -0.1686 -0.4858 -0.3976
  411MOL0     C54186  -0.033   3.178   8.005 -0.4292 -0.2006  0.0438
  411MOL0     H54187   0.370   3.074   7.803  0.3227  0.2197 -0.7957
  411MOL0     H54188   0.598   3.153   7.697  0.7567  0.0846 -0.4704
  411MOL0     H54189   0.719   3.293   7.576 -0.4592 -0.7869  0.0484
  411MOL0     H54190   0.838   3.226   7.692 -0.9511  0.5117  2.8579
  411MOL0     H54191   0.964   3.427   7.697  0.4186 -1.9725 -0.1776
  411MOL0     H54192   0.857   3.516   7.600  1.1564  0.0010 -1.9854
  411MOL0     H54193   1.029   3.437   7.472 -0.5260  1.2469  2.4727
  411MOL0     H54194   0.887   3.331   7.414  1.5817 -0.3365 -1.5448
  411MOL0     H54195   1.116   3.267   7.606 -0.0109 -3.0545  0.9875
  411MOL0     H54196   1.002   3.150   7.538 -2.3427  1.6068  1.6390
  411MOL0     H54197   1.102   3.140   7.341  0.2269 -2.6181  1.1716
  411MOL0     H54198   1.239   3.147   7.437  0.3889  0.6101  0.7950
  411MOL0     H54199   1.266   3.398   7.399  1.9125  0.8518 -2.2082
  411MOL0     H54200   1.132   3.387   7.279  2.3220  0.1575 -2.7142
  411MOL0     H54201   1.360   3.388   7.195  1.4672 -1.2339  0.6282
  411MOL0     H54202   1.392   3.235   7.267 -0.9316  0.9391  2.9285
  411MOL0     H54203   1.149   3.286   7.077  1.2485  1.7884 -1.6386
  411MOL0     H54204   1.229   3.127   7.116  0.1707  0.3556  1.9883
  411MOL0     H54205   1.273   3.453   6.915  0.3139 -0.0795 -1.4576
  411MOL0     H54206   1.467   3.347   6.601  0.0170  0.1000  0.0804
  411MOL0     H54207   1.549   3.465   6.702 -0.6452  0.9739 -1.5751
  411MOL0     H54208   1.420   3.594   6.601  2.4141 -1.7417  0.8383
  411MOL0     H54209   1.326   3.583   6.744  1.2676  0.4415 -1.0513
  411MOL0     H54210   1.276   3.424   6.480 -1.0569 -0.2929 -1.6230
  411MOL0     H54211   1.170   3.418   6.614 -0.0125  0.6528  0.6794
  411MOL0     H54212   1.072   3.570   6.467  0.9334 -2.7247 -1.5159
  411MOL0     H54213   1.222   3.664   6.453 -0.9600  0.6262  0.0244
  411MOL0     H54214   0.979   3.471   6.724  2.8589  1.3083 -0.0711
  411MOL0     H54215   0.750   3.481   6.813  1.8855 -1.8393 -2.4499
  411MOL0     H54216   0.297   3.656   6.492  0.7412 -1.9378  1.2098
  411MOL0     H54217   0.059   3.658   6.562  0.3366  1.0714 -1.4576
  411MOL0     H54218  -0.167   3.668   6.744 -3.1273  1.0778  1.2031
  411MOL0     H54219  -0.125   3.747   6.595  2.2867 -2.5919  0.3723
  411MOL0     H54220  -0.277   3.933   6.662  0.5450 -1.8937 -1.9712
  411MOL0     H54221  -0.308   3.857   6.823  1.9351  2.9118  0.1473
  411MOL0     H54222  -0.499   3.827   6.697 -0.5866 -0.7488  0.7386
  411MOL0     H54223  -0.433   3.674   6.736 -0.2841 -3.5402 -2.9947
  411MOL0     H54224  -0.393   3.773   6.457  1.4426 -1.8966 -0.3725
  411MOL0     H54225  -0.322   3.638   6.519 -1.0078 -0.5167  0.2611
  411MOL0     H54226  -0.514   3.511   6.547 -0.0602 -0.2931 -2.2110
  411MOL0     H54227  -0.541   3.599   6.403  2.3187  2.9549 -0.5622
  411MOL0     H54228  -0.692   3.757   6.503  1.9296  0.3010 -1.0075
  411MOL0     H54229  -0.691   3.681   6.656  1.2899 -0.9912  0.3367
  411MOL0     H54230  -0.888   3.593   6.532  0.0335 -0.6990  0.1064
  411MOL0     H54231  -0.801   3.591   6.376 -0.9986 -0.4551 -0.6727
  411MOL0     H54232  -0.780   3.389   6.609  0.4119  0.1634  0.5377
  411MOL0     H54233  -0.685   3.383   6.456 -0.7913  1.0315 -1.0129
  411MOL0     H54234   0.148   3.924   6.887 -1.1602  1.3781 -1.6515
  411MOL0     H54235   0.404   3.904   6.825 -1.2063  1.0435  1.0403
  411MOL0     H54236   0.705   3.867   6.624 -1.5855 -0.3253  0.0494
  411MOL0     H54237   0.955   3.863   6.583  3.5874 -3.6720 -0.9447
  411MOL0     H54238   0.609   3.469   7.983  0.6842  0.0633  3.1904
  411MOL0     H54239   0.402   3.394   8.082  2.9572  0.7093  1.3076
  411MOL0     H54240   0.054   3.147   8.338  0.4182  0.0416 -0.5225
  411MOL0     H54241  -0.167   3.088   8.360 -0.9114 -0.3890 -0.4826
  411MOL0     H54242  -0.415   3.051   7.977 -1.9216 -1.5612  0.4580
  411MOL0     H54243  -0.439   3.221   8.043  2.6124 -0.7678  2.2096
  411MOL0     H54244  -0.648   3.080   8.014 -1.6699 -1.7351 -0.6017
  411MOL0     H54245  -0.585   2.966   8.134  0.2841  0.6201  1.5969
  411MOL0     H54246  -0.644   3.263   8.156  2.2720  0.6336  0.2338
  411MOL0     H54247  -0.557   3.191   8.291 -1.7800  1.4546  0.8936
  411MOL0     H54248  -0.759   3.065   8.348 -1.1969  1.1913  2.0380
  411MOL0     H54249  -0.790   3.233   8.342  1.6705  0.3752  0.6082
  411MOL0     H54250  -1.038   3.047   8.033 -1.2764 -0.3573  1.3476
  411MOL0     H54251  -0.230   3.141   7.935  0.2413 -0.5598 -0.6825
  411MOL0     H54252   0.001   3.207   7.906 -0.4820 -0.0489  0.0695
  412MOL0     O54253   6.523   2.428   5.732 -0.0416 -0.3011  0.1799
  412MOL0     C54254   6.516   2.331   5.665 -0.4208  1.2405  0.0112
  412MOL0     O54255   6.609   2.238   5.639  0.3615  0.5357 -0.8618
  412MOL0     C54256   6.743   2.259   5.673  0.3746  0.3368  0.3743
  412MOL0     C54257   6.804   2.384   5.665  0.4534 -0.3803  0.5187
  412MOL0     C54258   6.933   2.416   5.702  0.6777 -0.3671 -0.0408
  412MOL0     C54259   7.014   2.310   5.754 -0.0143  0.1094 -0.3721
  412MOL0     O54260   7.137   2.347   5.804  0.3356  0.2181 -0.0644
  412MOL0     C54261   7.234   2.243   5.811  0.2155 -0.0274  0.1713
  412MOL0     C54262   7.383   2.295   5.808 -1.2875  0.1122 -0.5862
  412MOL0     C54263   7.475   2.190   5.861 -0.2924  0.5123  0.5765
  412MOL0     C54264   7.620   2.246   5.873 -0.7650  0.4947  0.3026
  412MOL0     C54265   7.697   2.163   5.977 -0.1356 -0.4604 -0.1748
  412MOL0     C54266   7.705   2.010   5.944 -0.3345 -0.9795  0.1912
  412MOL0     C54267   7.784   1.994   5.803  0.6068  0.1627 -0.4265
  412MOL0     C54268   7.786   1.843   5.777  0.4904 -0.7481  0.8678
  412MOL0     N54269   7.874   1.807   5.664  0.4929 -0.2848 -0.4319
  412MOL0     C54270   7.934   1.894   5.577  0.3356  0.5527  0.1344
  412MOL0     C54271   8.010   1.804   5.508 -0.1058 -0.6206  0.2947
  412MOL0     C54272   8.104   1.832   5.402 -0.2360  0.1140 -0.1682
  412MOL0     C54273   8.047   1.885   5.276  0.1456 -0.4175  0.0494
  412MOL0     C54274   7.950   1.792   5.196  0.8215 -0.0033 -0.5527
  412MOL0     C54275   7.992   1.647   5.198  0.0696 -0.2870 -0.1022
  412MOL0     O54276   7.928   1.575   5.090  0.0701  0.1459  0.6110
  412MOL0     C54277   7.792   1.553   5.097  0.0665  0.5850  0.2069
  412MOL0     C54278   7.725   1.528   4.977 -0.9033  0.3026 -1.1170
  412MOL0     C54279   7.593   1.487   4.978 -0.1693 -0.1130  1.0182
  412MOL0     C54280   7.524   1.461   5.093  0.6268 -0.1438 -0.0524
  412MOL0     C54281   7.393   1.402   5.094 -0.2966  0.0486 -0.7800
  412MOL0     O54282   7.328   1.399   4.973 -0.3828 -0.0666  0.1748
  412MOL0     C54283   7.203   1.349   4.966  0.0387  0.0205 -0.2992
  412MOL0     C54284   7.097   1.422   4.905 -1.1316  0.4378  0.4775
  412MOL0     C54285   6.967   1.369   4.908  0.0613 -0.8799 -0.4207
  412MOL0     C54286   6.939   1.239   4.945 -0.0879 -0.7706  0.3458
  412MOL0     O54287   6.808   1.194   4.953 -0.4859 -0.1898  0.6425
  412MOL0     C54288   6.780   1.052   4.969  0.1430 -1.2150 -0.2351
  412MOL0     C54289   6.636   1.043   4.945 -0.0202 -0.0689  0.4342
  412MOL0     C54290   6.581   0.898   4.961 -0.1521 -0.4410  0.3780
  412MOL0     C54291   6.431   0.886   4.949 -0.1616  0.9489  0.2418
  412MOL0     C54292   6.385   0.740   4.941 -0.0470 -0.3352 -0.2276
  412MOL0     C54293   6.233   0.744   4.929  0.0203 -0.2434 -0.6064
  412MOL0     C54294   6.171   0.605   4.914 -0.5143  0.6621 -0.8372
  412MOL0     C54295   6.020   0.616   4.949 -1.1172  0.6746 -0.1504
  412MOL0    Cl54296   5.956   0.459   4.933  0.2741  0.0191  0.6237
  412MOL0     C54297   7.042   1.163   4.994  0.1090 -0.1594  0.3044
  412MOL0     C54298   7.175   1.218   5.000  0.1478  0.0160 -0.0845
  412MOL0     O54299   7.349   1.364   5.202 -0.2223 -0.8538 -0.1810
  412MOL0     C54300   7.582   1.503   5.215 -0.2821  0.2295 -1.0070
  412MOL0     C54301   7.714   1.553   5.221 -0.2236 -0.5557  1.5065
  412MOL0     N54302   7.976   1.670   5.543  0.1143 -0.8948  0.1506
  412MOL0     N54303   7.905   1.684   5.639  0.6973  0.5670 -0.4186
  412MOL0     C54304   6.956   2.182   5.746 -0.0547 -0.0885  0.8915
  412MOL0     C54305   6.826   2.157   5.697  0.9988  0.2105 -0.1837
  412MOL0     C54306   6.376   2.297   5.618  1.0131  0.4184 -0.5675
  412MOL0     C54307   6.335   2.163   5.590 -0.0271 -0.5977  0.5481
  412MOL0     C54308   6.198   2.140   5.561  0.2045 -0.2301  0.1569
  412MOL0     C54309   6.093   2.229   5.549 -0.4238 -0.0882 -0.2458
  412MOL0     O54310   5.968   2.194   5.517  0.5384 -0.0934 -0.8772
  412MOL0     C54311   5.879   2.300   5.487  0.2709  0.3403  0.7922
  412MOL0     C54312   5.740   2.236   5.477 -0.0231  0.0139 -0.3579
  412MOL0     C54313   5.732   2.105   5.393  0.6266 -0.5668  0.4751
  412MOL0     C54314   5.598   2.031   5.395  0.1608 -0.4965 -0.1816
  412MOL0     C54315   5.472   2.113   5.366 -0.2522  0.5626  0.2797
  412MOL0     C54316   5.373   2.176   5.340  0.0469  0.9955 -0.5076
  412MOL0     C54317   6.146   2.359   5.565 -0.0170 -0.0095  0.1954
  412MOL0     C54318   6.278   2.392   5.609 -0.2871  0.3382  0.1616
  412MOL0     H54319   6.752   2.472   5.628  0.5644  0.1321  1.5216
  412MOL0     H54320   6.969   2.518   5.708  0.3192 -0.3312  2.6440
  412MOL0     H54321   7.231   2.176   5.725 -1.1390 -1.6033  1.3819
  412MOL0     H54322   7.220   2.183   5.901 -0.1229 -1.2243 -0.6591
  412MOL0     H54323   7.390   2.384   5.871  0.5501  1.0988 -2.1021
  412MOL0     H54324   7.413   2.330   5.708  2.6034 -0.9647  0.0415
  412MOL0     H54325   7.472   2.099   5.799 -0.3636 -0.0175  1.3449
  412MOL0     H54326   7.431   2.167   5.958 -3.2422  2.1231 -0.2527
  412MOL0     H54327   7.669   2.246   5.775 -0.5236  0.7511  0.4216
  412MOL0     H54328   7.628   2.351   5.902  1.6575  0.7484 -0.9960
  412MOL0     H54329   7.640   2.167   6.070  1.3725 -0.0327  0.7628
  412MOL0     H54330   7.796   2.202   6.001 -0.9809  1.5729  0.2237
  412MOL0     H54331   7.609   1.959   5.939 -0.5663 -0.5111 -0.2275
  412MOL0     H54332   7.765   1.962   6.022  2.0588  1.8370  0.2749
  412MOL0     H54333   7.742   2.039   5.713 -0.4915 -0.1245 -0.0757
  412MOL0     H54334   7.886   2.034   5.815 -0.1015  1.2563  3.2274
  412MOL0     H54335   7.689   1.804   5.746  0.8421 -0.3509 -0.8662
  412MOL0     H54336   7.812   1.796   5.872  1.6041 -0.0944  0.9121
  412MOL0     H54337   7.953   2.001   5.580 -1.9817  1.0112  2.4791
  412MOL0     H54338   8.163   1.743   5.380  0.0116  1.0443 -3.9262
  412MOL0     H54339   8.175   1.908   5.437 -0.5713  0.4405 -0.1815
  412MOL0     H54340   8.121   1.918   5.202 -1.0995  0.6471 -0.7743
  412MOL0     H54341   8.007   1.979   5.315  3.8767  0.4303  2.3730
  412MOL0     H54342   7.854   1.799   5.248  1.9305 -3.5314  2.4231
  412MOL0     H54343   7.938   1.825   5.092  1.5041  1.8738 -0.0720
  412MOL0     H54344   7.964   1.600   5.293 -2.2324  1.6069  0.2359
  412MOL0     H54345   8.101   1.647   5.182 -0.0556  0.3248 -1.0080
  412MOL0     H54346   7.777   1.522   4.882 -1.8561  1.1740 -1.7152
  412MOL0     H54347   7.540   1.483   4.884  2.1981  0.1050 -0.4096
  412MOL0     H54348   7.130   1.518   4.867  2.8675 -0.4602  1.2133
  412MOL0     H54349   6.881   1.421   4.867  0.5009  0.9729  0.8448
  412MOL0     H54350   6.807   1.014   5.068  1.4650 -4.0630 -1.5788
  412MOL0     H54351   6.833   1.001   4.888 -0.4534  0.1439 -1.5324
  412MOL0     H54352   6.621   1.066   4.839 -0.9407 -2.0582  0.0779
  412MOL0     H54353   6.573   1.100   5.014 -0.8408  1.3937 -1.4174
  412MOL0     H54354   6.603   0.865   5.063  1.1372 -0.3725  0.1336
  412MOL0     H54355   6.636   0.830   4.896 -0.2309 -1.5282  1.4048
  412MOL0     H54356   6.381   0.930   5.037  0.9287 -1.6749  2.3018
  412MOL0     H54357   6.393   0.927   4.855 -0.1947 -1.6073 -0.9170
  412MOL0     H54358   6.417   0.685   5.030 -1.2529 -2.0053 -0.7789
  412MOL0     H54359   6.435   0.687   4.860 -0.1024 -0.6036 -0.0895
  412MOL0     H54360   6.209   0.798   4.837 -0.2520 -0.4121 -0.6382
  412MOL0     H54361   6.195   0.811   5.008  1.0479 -0.0220 -0.2911
  412MOL0     H54362   6.189   0.570   4.812  0.7223 -0.2508 -0.3221
  412MOL0     H54363   6.219   0.550   4.996 -1.0704  2.4326  0.7599
  412MOL0     H54364   5.979   0.691   4.880 -0.0227 -0.2204 -1.8654
  412MOL0     H54365   6.009   0.646   5.053 -3.7605 -0.8624  0.0877
  412MOL0     H54366   7.029   1.063   5.036  1.9371 -0.7577 -0.4632
  412MOL0     H54367   7.248   1.157   5.053 -1.6500  1.4366  4.6101
  412MOL0     H54368   7.538   1.496   5.314  1.5666 -0.4767 -0.1837
  412MOL0     H54369   7.757   1.581   5.317 -0.3170 -0.4851  1.5280
  412MOL0     H54370   7.005   2.089   5.772  0.2785 -0.1226  0.1561
  412MOL0     H54371   6.783   2.059   5.675  0.2282  0.7670 -1.2888
  412MOL0     H54372   6.399   2.077   5.606  0.4426 -0.1657  1.0434
  412MOL0     H54373   6.164   2.038   5.547 -0.1420  0.0602 -1.3128
  412MOL0     H54374   5.906   2.333   5.386 -0.1779 -2.9548 -0.5477
  412MOL0     H54375   5.877   2.379   5.563  1.0073 -1.0586  2.3369
  412MOL0     H54376   5.708   2.205   5.577 -1.0192  1.7271 -0.1103
  412MOL0     H54377   5.662   2.307   5.449 -0.7137 -0.3178  0.6701
  412MOL0     H54378   5.817   2.041   5.418 -0.8355 -1.9096  2.3134
  412MOL0     H54379   5.743   2.143   5.291 -1.4129  1.0020  0.7589
  412MOL0     H54380   5.619   1.955   5.320  2.9677 -0.6202  0.6095
  412MOL0     H54381   5.567   1.978   5.485 -0.2038 -1.1764 -0.7051
  412MOL0     H54382   5.282   2.229   5.320 -0.0744  1.9659  2.2281
  412MOL0     H54383   6.081   2.445   5.554 -1.1211 -0.8112  0.3165
  412MOL0     H54384   6.293   2.499   5.614  2.1508  0.1405 -1.3580
  413MOL0     O54385  11.012   2.872   4.200  0.6751  0.5564  0.1484
  413MOL0     C54386  11.077   2.974   4.221  0.0643 -0.1724 -0.2648
  413MOL0     O54387  11.024   3.084   4.292 -0.5653 -0.5474 -0.3596
  413MOL0     C54388  10.891   3.098   4.320  0.9172  0.0226  0.2383
  413MOL0     C54389  10.839   3.231   4.322  0.2672  0.2237 -0.9683
  413MOL0     C54390  10.695   3.248   4.347  0.5631 -1.3259  0.6075
  413MOL0     C54391  10.609   3.141   4.350  0.2553 -0.2420 -0.6901
  413MOL0     O54392  10.479   3.182   4.364  0.6592  0.3524 -0.3955
  413MOL0     C54393  10.373   3.085   4.323  0.8225  0.7678  0.6784
  413MOL0     C54394  10.235   3.159   4.324  0.2258  0.7732 -0.3177
  413MOL0     C54395  10.148   3.120   4.207 -0.8307 -0.3074 -0.2007
  413MOL0     C54396  10.013   3.192   4.191 -0.7135  0.1732 -0.8171
  413MOL0     C54397   9.941   3.158   4.059  0.6332  0.5504  0.0815
  413MOL0     C54398   9.927   3.006   4.030 -0.2288  0.7370 -0.1687
  413MOL0     C54399   9.819   2.968   3.926  0.1290  0.4987 -0.2266
  413MOL0     C54400   9.679   2.951   3.987  0.1541 -0.0825  0.6831
  413MOL0     N54401   9.565   2.971   3.890  0.5442 -0.1069  0.1670
  413MOL0     C54402   9.529   2.893   3.781 -0.0019 -0.1766 -0.0162
  413MOL0     C54403   9.413   2.956   3.737  0.6694 -1.0606  0.2173
  413MOL0     C54404   9.325   2.903   3.620 -0.7107  0.1311  0.2281
  413MOL0     C54405   9.170   2.928   3.619  0.1822 -0.2190 -0.3165
  413MOL0     C54406   9.111   2.889   3.753 -0.1658 -0.0423 -1.6825
  413MOL0     C54407   8.955   2.909   3.752 -0.5790  0.8035 -0.7886
  413MOL0     O54408   8.908   2.800   3.658  0.1764 -0.7443  0.4103
  413MOL0     C54409   8.773   2.794   3.643 -0.6506 -0.2881  0.8869
  413MOL0     C54410   8.676   2.839   3.733  0.1822  0.1040 -0.3071
  413MOL0     C54411   8.544   2.798   3.714 -0.6241  0.0113 -0.2546
  413MOL0     C54412   8.504   2.734   3.602  0.1188 -0.0214 -0.2131
  413MOL0     C54413   8.358   2.715   3.577 -0.3821  0.7736 -0.7047
  413MOL0     O54414   8.319   2.688   3.449  0.9941  0.0389  0.3191
  413MOL0     C54415   8.184   2.668   3.412 -0.0761  0.5905 -0.8274
  413MOL0     C54416   8.160   2.571   3.321  0.0092 -0.1970 -0.1879
  413MOL0     C54417   8.030   2.536   3.285 -0.0251  0.6037  0.0270
  413MOL0     C54418   7.926   2.602   3.334 -0.6009 -0.4632 -0.8499
  413MOL0     O54419   7.800   2.566   3.288 -0.1290 -0.8371 -0.4648
  413MOL0     C54420   7.679   2.617   3.350 -0.3823 -0.1619  0.1744
  413MOL0     C54421   7.552   2.564   3.285 -0.2582  0.0410  0.1234
  413MOL0     C54422   7.418   2.562   3.359  0.6677 -0.6909  0.6553
  413MOL0     C54423   7.428   2.474   3.488  0.7086 -0.3533  0.7278
  413MOL0     C54424   7.285   2.422   3.520 -0.4739 -0.0429  0.5360
  413MOL0     C54425   7.275   2.335   3.651  1.0204 -0.7099  0.5149
  413MOL0     C54426   7.124   2.302   3.674  0.3847 -0.5059 -0.5434
  413MOL0     C54427   7.096   2.250   3.819  0.4001 -0.1714 -0.4120
  413MOL0    Cl54428   6.927   2.220   3.844 -0.4647  0.0238  0.0538
  413MOL0     C54429   7.945   2.705   3.433 -0.6439  0.4422  0.1700
  413MOL0     C54430   8.076   2.732   3.473  0.1709  0.2104  0.6586
  413MOL0     O54431   8.288   2.718   3.675 -0.2622  0.2792  0.0373
  413MOL0     C54432   8.602   2.681   3.510  0.5296 -0.1178  0.2127
  413MOL0     C54433   8.731   2.727   3.525 -0.7606 -0.2584 -1.1685
  413MOL0     N54434   9.395   3.069   3.813  0.5480 -0.3063  0.0998
  413MOL0     N54435   9.489   3.081   3.899  0.0097 -0.1944 -0.5916
  413MOL0     C54436  10.659   3.014   4.359  0.0996 -0.5385  1.3642
  413MOL0     C54437  10.793   2.995   4.330 -0.0920 -0.5240 -0.0861
  413MOL0     C54438  11.225   2.983   4.196  0.2770 -0.9327 -0.4272
  413MOL0     C54439  11.294   2.890   4.113  0.7652 -0.1945  0.2226
  413MOL0     C54440  11.435   2.890   4.111 -0.5952 -0.3435 -0.5950
  413MOL0     C54441  11.509   2.981   4.181 -0.7447  0.1158  0.0552
  413MOL0     O54442  11.652   2.975   4.180  0.1136 -0.0615  0.0463
  413MOL0     C54443  11.728   2.853   4.161  0.1034  0.2340 -0.2065
  413MOL0     C54444  11.748   2.828   4.009  0.0957 -0.1024 -0.1136
  413MOL0     C54445  11.863   2.924   3.969  0.1444 -0.1403 -0.7324
  413MOL0     C54446  11.949   2.874   3.855 -0.3848  0.0194  0.5423
  413MOL0     C54447  12.069   2.959   3.836  0.0110 -0.5260  0.1470
  413MOL0     C54448  12.162   3.034   3.821  0.2764  0.0856  0.5278
  413MOL0     C54449  11.446   3.079   4.258  0.0345 -0.0511  0.4403
  413MOL0     C54450  11.302   3.081   4.261 -0.9913 -0.5137  0.0282
  413MOL0     H54451  10.902   3.318   4.315  1.4697 -0.6760 -1.6048
  413MOL0     H54452  10.656   3.349   4.358 -2.6197 -2.2026 -1.3456
  413MOL0     H54453  10.360   2.996   4.385 -0.2772  1.0029  0.7991
  413MOL0     H54454  10.394   3.055   4.220  0.4834  1.3196  0.4436
  413MOL0     H54455  10.239   3.268   4.316 -1.8294  0.7982 -2.2428
  413MOL0     H54456  10.175   3.121   4.407 -1.1849 -0.1574 -1.6806
  413MOL0     H54457  10.135   3.012   4.196  1.6786 -0.6912  0.0423
  413MOL0     H54458  10.213   3.147   4.123 -1.7683 -0.7534 -1.0917
  413MOL0     H54459   9.946   3.172   4.276 -0.6510  1.0094 -0.5616
  413MOL0     H54460  10.034   3.299   4.190  2.3266 -0.2947  1.0718
  413MOL0     H54461   9.988   3.208   3.973  1.0716  1.5538  0.8911
  413MOL0     H54462   9.845   3.209   4.058  0.1028 -0.4284 -0.6779
  413MOL0     H54463   9.896   2.966   4.128 -0.2324 -0.5114 -0.6611
  413MOL0     H54464  10.021   2.958   4.003 -1.2931 -0.5441 -1.7816
  413MOL0     H54465   9.810   3.052   3.857 -0.8194  1.6562  1.2602
  413MOL0     H54466   9.844   2.870   3.884 -0.0532 -0.2354  1.3372
  413MOL0     H54467   9.662   3.020   4.070  1.8183  1.3718 -0.1182
  413MOL0     H54468   9.669   2.858   4.043 -2.7284 -0.5514 -0.4145
  413MOL0     H54469   9.578   2.805   3.739 -1.8744 -0.9108 -0.8026
  413MOL0     H54470   9.330   2.794   3.619 -1.4428  0.0384 -2.3889
  413MOL0     H54471   9.366   2.936   3.524 -0.8250  0.9180  0.4410
  413MOL0     H54472   9.132   2.871   3.534  0.8419  0.4023 -1.0538
  413MOL0     H54473   9.150   3.034   3.604  1.2858  0.3261  1.6070
  413MOL0     H54474   9.140   2.786   3.774  1.4392  0.9781  1.8372
  413MOL0     H54475   9.151   2.963   3.823  0.0726  0.4049 -2.2901
  413MOL0     H54476   8.920   3.009   3.724  0.4292  1.4154  0.0555
  413MOL0     H54477   8.913   2.889   3.852 -0.8657  0.2546 -1.0126
  413MOL0     H54478   8.701   2.893   3.824 -0.0555 -0.3357  0.0251
  413MOL0     H54479   8.461   2.830   3.776 -0.8404 -0.4805 -0.2854
  413MOL0     H54480   8.252   2.524   3.287 -0.8525  0.4396 -3.7957
  413MOL0     H54481   8.011   2.459   3.211  2.7969  1.3526 -1.6044
  413MOL0     H54482   7.671   2.726   3.354  2.1818  0.0872  0.3498
  413MOL0     H54483   7.679   2.566   3.446 -1.8789  1.4594  1.0976
  413MOL0     H54484   7.565   2.456   3.271  1.2160 -0.3906  3.7043
  413MOL0     H54485   7.541   2.622   3.193  0.4921 -3.3081 -2.2867
  413MOL0     H54486   7.353   2.526   3.279  0.7915  0.3678  0.0542
  413MOL0     H54487   7.409   2.666   3.393  0.3370  0.2621 -2.1006
  413MOL0     H54488   7.492   2.390   3.461  1.3870  0.5435 -0.5548
  413MOL0     H54489   7.469   2.530   3.572 -1.0713  0.8321  0.8606
  413MOL0     H54490   7.255   2.361   3.435  2.2993 -0.5773 -0.1359
  413MOL0     H54491   7.219   2.510   3.525  1.3356  1.6235 -2.1056
  413MOL0     H54492   7.298   2.403   3.733 -0.1480  1.3116 -0.7548
  413MOL0     H54493   7.339   2.246   3.655 -0.6159 -1.8732  2.9987
  413MOL0     H54494   7.063   2.390   3.653  1.2069  0.3860  0.6637
  413MOL0     H54495   7.077   2.230   3.607  0.0703 -0.6381 -0.1865
  413MOL0     H54496   7.135   2.324   3.889  1.1434  1.2351 -2.2479
  413MOL0     H54497   7.144   2.155   3.843 -1.3221 -1.0183 -0.1234
  413MOL0     H54498   7.860   2.751   3.482 -0.0542  2.8601 -0.9384
  413MOL0     H54499   8.081   2.795   3.561  2.4995  3.0981 -1.3565
  413MOL0     H54500   8.556   2.628   3.427 -0.0554  1.3782 -0.4649
  413MOL0     H54501   8.811   2.697   3.459 -0.8011  1.5386 -2.0868
  413MOL0     H54502  10.594   2.929   4.372 -3.8382  2.2946  2.2142
  413MOL0     H54503  10.816   2.889   4.333 -0.3554 -0.5848  2.2586
  413MOL0     H54504  11.230   2.817   4.066 -0.7626  1.2114 -0.0003
  413MOL0     H54505  11.483   2.812   4.054 -4.3476 -1.6887 -2.2841
  413MOL0     H54506  11.669   2.769   4.200 -0.3808  0.9432  0.6434
  413MOL0     H54507  11.815   2.853   4.228 -0.8612 -1.5165  1.1535
  413MOL0     H54508  11.783   2.725   3.997  2.3306  0.7664 -1.6633
  413MOL0     H54509  11.670   2.863   3.940  0.7853  1.3966 -0.1804
  413MOL0     H54510  11.929   2.940   4.055 -2.8108  1.4584  1.4005
  413MOL0     H54511  11.818   3.021   3.946 -1.8871 -0.9798 -0.5122
  413MOL0     H54512  11.989   2.772   3.859  2.7446  1.0180 -1.2129
  413MOL0     H54513  11.891   2.886   3.764  0.8041  1.5899 -0.0560
  413MOL0     H54514  12.239   3.106   3.801 -1.5056  2.3000  1.1806
  413MOL0     H54515  11.505   3.147   4.320  0.0789  1.7965 -1.5210
  413MOL0     H54516  11.270   3.149   4.339 -0.1494  0.8566 -0.7792
  414MOL0     O54517  10.358   9.117   3.853 -0.6906 -0.6520 -0.3096
  414MOL0     C54518  10.346   9.100   3.977  0.7999  0.6730  0.9938
  414MOL0     O54519  10.230   9.091   4.040 -0.4115  0.4958 -0.2374
  414MOL0     C54520  10.114   9.122   3.984 -0.0066  0.1734 -0.2037
  414MOL0     C54521  10.058   9.036   3.888 -0.1485  0.3254 -0.5767
  414MOL0     C54522   9.923   9.036   3.864 -0.2525  0.5129  0.2702
  414MOL0     C54523   9.833   9.126   3.933  0.3917 -0.2620  0.2251
  414MOL0     O54524   9.692   9.131   3.914 -0.6164  0.1339 -0.1228
  414MOL0     C54525   9.626   9.081   3.791 -0.5989 -0.2029  0.0260
  414MOL0     C54526   9.495   9.141   3.784 -1.1401 -0.4211  0.3093
  414MOL0     C54527   9.431   9.118   3.638  0.3454 -0.2470  0.1027
  414MOL0     C54528   9.326   9.223   3.605 -0.2148  0.6539 -0.5039
  414MOL0     C54529   9.256   9.205   3.470 -0.3792  0.4315 -0.5489
  414MOL0     C54530   9.349   9.207   3.350 -0.1741  0.0021 -0.1230
  414MOL0     C54531   9.281   9.233   3.218  0.6266 -0.2245 -1.2114
  414MOL0     C54532   9.385   9.239   3.111 -0.1146  0.0786  1.0123
  414MOL0     N54533   9.327   9.220   2.972  0.0900 -0.1322  0.3873
  414MOL0     C54534   9.298   9.101   2.916  0.5132  0.5181 -0.9024
  414MOL0     C54535   9.214   9.128   2.805 -0.8580  0.5521 -0.0141
  414MOL0     C54536   9.145   9.021   2.717 -0.0033  0.4914 -0.0297
  414MOL0     C54537   9.002   9.057   2.675  0.3632 -0.2845 -0.0361
  414MOL0     C54538   8.954   8.954   2.569 -0.7865  0.1200  0.0923
  414MOL0     C54539   8.803   8.969   2.546  0.2195  1.2053 -0.1275
  414MOL0     O54540   8.750   8.870   2.452 -0.0232 -0.2580  0.1368
  414MOL0     C54541   8.629   8.900   2.388 -0.3826  0.1366 -0.3028
  414MOL0     C54542   8.561   8.795   2.340 -0.0895  0.2514 -1.0755
  414MOL0     C54543   8.444   8.815   2.267  0.2080 -0.3205 -0.6058
  414MOL0     C54544   8.395   8.941   2.237 -0.9049 -0.1873  0.4265
  414MOL0     C54545   8.268   8.946   2.163  0.4424  0.3925  0.4331
  414MOL0     O54546   8.230   8.835   2.101  0.1230  0.4337 -0.4334
  414MOL0     C54547   8.109   8.827   2.032  0.3383  0.3634 -0.1560
  414MOL0     C54548   8.101   8.745   1.913 -0.2813 -0.4866 -0.3277
  414MOL0     C54549   7.980   8.728   1.849 -0.0808 -0.6734 -0.5673
  414MOL0     C54550   7.860   8.774   1.904  1.0148  0.9475 -0.1326
  414MOL0     O54551   7.733   8.759   1.848 -0.3140  0.2349  0.2261
  414MOL0     C54552   7.709   8.697   1.721  0.2469  0.2721 -0.1474
  414MOL0     C54553   7.572   8.742   1.667  0.4823  0.4411  0.2474
  414MOL0     C54554   7.455   8.659   1.725 -0.9860  0.2635  0.0786
  414MOL0     C54555   7.316   8.721   1.663 -0.4835  0.3353  0.6285
  414MOL0     C54556   7.207   8.641   1.729 -0.4224 -0.5937  0.0163
  414MOL0     C54557   7.068   8.696   1.687 -0.1697 -0.7319  0.3628
  414MOL0     C54558   6.969   8.675   1.802  0.4073 -0.1102  0.1933
  414MOL0     C54559   6.831   8.749   1.787  0.3728  0.2229  0.4523
  414MOL0    Cl54560   6.722   8.660   1.691  0.3904  0.2402  0.3742
  414MOL0     C54561   7.863   8.843   2.028  0.4936  0.2943  0.4270
  414MOL0     C54562   7.990   8.872   2.086  0.3725  0.1380  0.3242
  414MOL0     O54563   8.209   9.053   2.162 -0.5195 -0.4921 -0.2985
  414MOL0     C54564   8.465   9.052   2.289  0.2040  0.0350 -0.5955
  414MOL0     C54565   8.582   9.034   2.362  0.1920 -0.1815 -0.4889
  414MOL0     N54566   9.209   9.264   2.793 -0.1572 -0.2234 -1.0541
  414MOL0     N54567   9.280   9.322   2.885 -0.7055 -0.5898 -0.5190
  414MOL0     C54568   9.889   9.203   4.039 -0.2753 -0.5798 -0.6360
  414MOL0     C54569  10.028   9.198   4.060 -0.4498 -0.6778 -0.1753
  414MOL0     C54570  10.481   9.075   4.046 -1.0053  0.5112  0.4055
  414MOL0     C54571  10.477   9.080   4.187 -0.1098 -0.4077 -0.6375
  414MOL0     C54572  10.593   9.060   4.265  0.1054  0.3289 -0.5060
  414MOL0     C54573  10.709   9.036   4.194  0.4306 -0.3414 -0.2275
  414MOL0     O54574  10.827   9.010   4.255 -0.8279 -0.9167 -0.0565
  414MOL0     C54575  10.827   8.917   4.362  0.9009 -0.3898 -0.0762
  414MOL0     C54576  10.977   8.882   4.400 -1.1011  0.7202 -0.0437
  414MOL0     C54577  11.067   8.993   4.453 -0.4194  0.2535  1.1094
  414MOL0     C54578  11.001   9.079   4.568  0.0049  0.0531  0.2919
  414MOL0     C54579  10.950   9.004   4.681 -0.4425  0.0735 -0.1278
  414MOL0     C54580  10.898   8.962   4.779  0.1943  0.7122  0.7689
  414MOL0     C54581  10.713   9.045   4.054  0.6774 -0.4494 -0.0859
  414MOL0     C54582  10.599   9.070   3.984 -0.1984  0.1533  0.9998
  414MOL0     H54583  10.126   8.977   3.829  0.3092 -0.9571  1.1482
  414MOL0     H54584   9.889   8.968   3.787  3.6232 -1.9821  0.4899
  414MOL0     H54585   9.604   8.974   3.789  0.4147 -0.4243 -0.0746
  414MOL0     H54586   9.683   9.099   3.699 -1.0983 -0.4929 -0.3441
  414MOL0     H54587   9.512   9.249   3.798 -0.7813 -0.3491 -0.6415
  414MOL0     H54588   9.432   9.096   3.862  1.0294 -0.4277  2.1669
  414MOL0     H54589   9.394   9.015   3.648 -0.0409  0.1030  3.1494
  414MOL0     H54590   9.509   9.132   3.562 -0.7748 -0.7505 -1.1708
  414MOL0     H54591   9.254   9.216   3.687  1.5242  1.3050  1.1503
  414MOL0     H54592   9.371   9.322   3.612  1.4924 -0.1159  0.0367
  414MOL0     H54593   9.181   9.285   3.463 -0.3548  0.3524 -1.9077
  414MOL0     H54594   9.209   9.106   3.473  1.5203 -0.5504 -1.3703
  414MOL0     H54595   9.410   9.116   3.353 -1.4930 -0.9221 -0.5915
  414MOL0     H54596   9.409   9.296   3.369 -0.7008  0.7159 -1.6451
  414MOL0     H54597   9.204   9.158   3.200 -0.2453  0.3036  0.1584
  414MOL0     H54598   9.238   9.332   3.232 -0.7859 -0.6560 -2.2836
  414MOL0     H54599   9.456   9.159   3.134 -0.8096 -0.2627  2.0497
  414MOL0     H54600   9.442   9.332   3.119 -2.8815  2.0906 -0.6766
  414MOL0     H54601   9.337   9.004   2.948  1.5106  1.7733  1.9815
  414MOL0     H54602   9.155   8.925   2.769  3.6949 -0.1395 -1.5787
  414MOL0     H54603   9.213   9.016   2.631 -0.4754 -0.7229 -0.3509
  414MOL0     H54604   9.007   9.160   2.640  0.4933 -0.0251  0.7144
  414MOL0     H54605   8.934   9.062   2.761 -0.1316  0.6826 -0.4704
  414MOL0     H54606   9.010   8.970   2.477  0.5015  1.6493  1.0926
  414MOL0     H54607   8.980   8.851   2.593  0.2273  0.4740  0.5539
  414MOL0     H54608   8.789   9.070   2.507  2.3101  1.5889  0.0252
  414MOL0     H54609   8.755   8.966   2.644  2.1155  0.2295  0.8268
  414MOL0     H54610   8.589   8.692   2.362 -0.4359 -0.1130 -2.2418
  414MOL0     H54611   8.387   8.728   2.236 -1.5173  0.3866  0.4128
  414MOL0     H54612   8.197   8.710   1.876  0.4037  1.4103 -0.4521
  414MOL0     H54613   7.976   8.688   1.747 -0.9619 -0.8107 -0.4823
  414MOL0     H54614   7.722   8.588   1.725  0.0369  0.2475 -0.1468
  414MOL0     H54615   7.786   8.736   1.655  0.1751 -0.5066 -0.7079
  414MOL0     H54616   7.582   8.729   1.559  0.0985 -2.2841  0.4847
  414MOL0     H54617   7.555   8.847   1.693 -0.2307 -0.9250  6.9726
  414MOL0     H54618   7.453   8.656   1.834  0.7016 -0.5317  0.1170
  414MOL0     H54619   7.475   8.560   1.681  0.0481  1.5586 -2.5590
  414MOL0     H54620   7.316   8.827   1.690  1.0288  1.5942 -3.5415
  414MOL0     H54621   7.312   8.726   1.554 -2.8109  0.3573  0.6560
  414MOL0     H54622   7.219   8.650   1.838 -3.9325 -2.0340  0.6653
  414MOL0     H54623   7.211   8.534   1.706 -0.6272 -0.6338  0.1630
  414MOL0     H54624   7.035   8.643   1.598 -2.4973  2.6412 -0.9717
  414MOL0     H54625   7.071   8.803   1.664  1.1928 -0.6285  0.8867
  414MOL0     H54626   6.962   8.568   1.822 -1.1596 -0.4709 -1.9416
  414MOL0     H54627   7.023   8.728   1.881  2.8557 -0.1856 -1.3314
  414MOL0     H54628   6.833   8.845   1.736 -1.6011  0.5130  0.8556
  414MOL0     H54629   6.786   8.782   1.882 -1.3534  5.3326 -1.7762
  414MOL0     H54630   7.773   8.881   2.074  1.2380  1.2439  1.1452
  414MOL0     H54631   7.979   8.928   2.178 -3.0333  2.9397 -1.5503
  414MOL0     H54632   8.416   9.146   2.266  0.4447  0.6372  1.2280
  414MOL0     H54633   8.635   9.119   2.403  2.8321 -1.1428 -1.6735
  414MOL0     H54634   9.831   9.257   4.114  2.2279  0.7928  0.4367
  414MOL0     H54635  10.080   9.239   4.146  0.1231 -1.8758  0.0681
  414MOL0     H54636  10.378   9.092   4.231 -0.0524  3.3017 -1.1549
  414MOL0     H54637  10.608   9.053   4.373  3.3330 -0.5040 -0.9042
  414MOL0     H54638  10.783   8.830   4.312  2.1020 -0.6209 -0.7844
  414MOL0     H54639  10.770   8.941   4.452 -1.6038 -1.5674 -1.2329
  414MOL0     H54640  10.976   8.805   4.478 -0.8511  0.0665 -0.6745
  414MOL0     H54641  11.025   8.844   4.309  3.5700  2.4379  1.4142
  414MOL0     H54642  11.092   9.043   4.359  2.0232  0.3081  1.7290
  414MOL0     H54643  11.162   8.953   4.488  1.4035  3.0708 -0.2513
  414MOL0     H54644  11.081   9.146   4.599  1.1783 -0.4263 -1.5346
  414MOL0     H54645  10.919   9.132   4.519  1.2942  0.9589 -0.9887
  414MOL0     H54646  10.872   8.914   4.871 -2.1226 -3.1803 -1.5975
  414MOL0     H54647  10.814   9.031   4.016  1.5974  0.1663  1.9919
  414MOL0     H54648  10.602   9.086   3.876  1.1549  0.8528  1.1203
  415MOL0     O54649   2.540   6.352   2.211  0.7270  0.2710 -0.3972
  415MOL0     C54650   2.638   6.293   2.164  0.0438 -0.7085 -0.1226
  415MOL0     O54651   2.639   6.157   2.112 -0.2978 -0.2557 -0.2943
  415MOL0     C54652   2.527   6.080   2.117 -0.8568  0.5876  0.3058
  415MOL0     C54653   2.409   6.135   2.066 -0.7575 -0.2152 -1.1938
  415MOL0     C54654   2.290   6.065   2.087  0.1594 -0.2098 -0.2656
  415MOL0     C54655   2.280   5.951   2.166  0.5280 -0.4000 -0.2568
  415MOL0     O54656   2.167   5.880   2.195 -0.2279 -0.8948 -0.3579
  415MOL0     C54657   2.046   5.920   2.126  0.0298  0.1285  0.1126
  415MOL0     C54658   1.935   5.815   2.152  0.3950  0.1795  0.3587
  415MOL0     C54659   1.797   5.868   2.108  0.2610 -0.6358 -0.4245
  415MOL0     C54660   1.689   5.779   2.150 -0.4774  0.3145 -0.6771
  415MOL0     C54661   1.541   5.821   2.117 -0.1144  0.1460 -0.0606
  415MOL0     C54662   1.432   5.728   2.171 -0.1874  0.0345  0.5143
  415MOL0     C54663   1.296   5.753   2.116  0.5150 -0.4641  0.5247
  415MOL0     C54664   1.258   5.896   2.145  0.3179 -0.0050  0.1796
  415MOL0     N54665   1.112   5.915   2.112  0.3200  0.1630 -0.3742
  415MOL0     C54666   1.054   5.881   1.997  0.1812 -0.5685  0.7320
  415MOL0     C54667   0.934   5.944   1.991 -0.3550 -0.1875 -0.3274
  415MOL0     C54668   0.837   5.945   1.881  0.0841 -0.3712 -0.1286
  415MOL0     C54669   0.763   5.810   1.857  0.3140 -0.1698  1.0155
  415MOL0     C54670   0.685   5.827   1.727  0.0442 -0.2472 -0.1316
  415MOL0     C54671   0.584   5.712   1.699 -0.1032 -0.4478 -0.4690
  415MOL0     O54672   0.521   5.732   1.570  0.7545 -0.4464 -0.6273
  415MOL0     C54673   0.405   5.665   1.535 -0.2933  0.3541  0.1805
  415MOL0     C54674   0.360   5.702   1.400  0.3764  0.6292 -0.2078
  415MOL0     C54675   0.253   5.631   1.343 -0.1981  0.1027 -0.2109
  415MOL0     C54676   0.193   5.516   1.405  0.1241  0.0264  0.4225
  415MOL0     C54677   0.088   5.434   1.340  0.6122  0.1722  1.0037
  415MOL0     O54678   0.045   5.482   1.221  0.2770 -0.5096  0.8880
  415MOL0     C54679  -0.019   5.375   1.146  0.8169 -0.8972 -0.1934
  415MOL0     C54680  -0.160   5.383   1.120  0.2696  0.2078 -0.0304
  415MOL0     C54681  -0.223   5.299   1.026  0.9991 -0.0403  0.8285
  415MOL0     C54682  -0.151   5.196   0.963 -0.0586  0.0037  0.3922
  415MOL0     O54683  -0.192   5.122   0.857 -0.1661  0.3370 -0.5480
  415MOL0     C54684  -0.335   5.145   0.815  0.2106  0.3376  0.3534
  415MOL0     C54685  -0.363   5.055   0.701 -0.2412  1.0723 -0.6265
  415MOL0     C54686  -0.513   5.050   0.663 -0.6605 -0.0916 -0.3763
  415MOL0     C54687  -0.539   4.951   0.554 -0.7069 -0.3343  0.1750
  415MOL0     C54688  -0.673   4.987   0.492  0.0854  0.4990  0.4019
  415MOL0     C54689  -0.790   4.953   0.583 -0.3318  0.2224 -0.4065
  415MOL0     C54690  -0.920   5.001   0.519  0.1439  0.5875  0.3523
  415MOL0     C54691  -1.049   4.937   0.577 -0.0188  0.2971 -0.8642
  415MOL0    Cl54692  -1.194   5.000   0.473  0.1699 -0.4205 -0.2392
  415MOL0     C54693  -0.016   5.170   1.014  0.2776 -0.3124  0.2826
  415MOL0     C54694   0.041   5.254   1.106 -0.1060  1.1180 -0.0860
  415MOL0     O54695   0.037   5.332   1.398 -0.1338  0.1534 -0.5884
  415MOL0     C54696   0.229   5.495   1.537  0.7281  0.0854 -0.0105
  415MOL0     C54697   0.338   5.558   1.594 -0.1912 -0.0641 -0.1937
  415MOL0     N54698   0.926   6.018   2.108 -0.3014 -0.1758  0.1025
  415MOL0     N54699   1.032   6.002   2.182  0.0138  0.1017  0.6233
  415MOL0     C54700   2.398   5.908   2.232  0.0871 -0.4146 -0.4864
  415MOL0     C54701   2.525   5.973   2.210  0.4271  0.3261  0.0251
  415MOL0     C54702   2.770   6.362   2.152  0.4377 -0.7129  0.5219
  415MOL0     C54703   2.777   6.489   2.210 -0.1436  0.2196  0.5911
  415MOL0     C54704   2.894   6.560   2.191 -0.2607 -0.6281 -0.1715
  415MOL0     C54705   3.013   6.505   2.144 -0.4486  0.2084  0.2950
  415MOL0     O54706   3.136   6.567   2.149 -0.4464  0.6040  0.1919
  415MOL0     C54707   3.166   6.640   2.267 -0.2580 -0.0690  0.8489
  415MOL0     C54708   3.305   6.621   2.314  0.1403 -0.4320 -0.5231
  415MOL0     C54709   3.337   6.480   2.364  0.4645  0.1563 -0.3779
  415MOL0     C54710   3.458   6.475   2.457  0.3399 -0.0327  0.0041
  415MOL0     C54711   3.443   6.544   2.589 -0.2255 -0.1836  0.2834
  415MOL0     C54712   3.445   6.611   2.689  0.2150  0.0489 -0.1129
  415MOL0     C54713   2.998   6.379   2.086  0.0696  0.7778  0.4645
  415MOL0     C54714   2.877   6.306   2.082 -0.3402 -0.9364 -0.0554
  415MOL0     H54715   2.412   6.232   2.018 -0.9641  0.1717 -0.4477
  415MOL0     H54716   2.204   6.117   2.044 -0.4772 -0.7894  0.2791
  415MOL0     H54717   2.073   5.938   2.021  0.3141  3.2286  0.6111
  415MOL0     H54718   2.006   6.013   2.167 -3.0239 -0.7039 -0.7533
  415MOL0     H54719   1.930   5.784   2.257  1.0242  3.2430  1.4082
  415MOL0     H54720   1.964   5.721   2.105 -0.1407  0.7275 -1.1122
  415MOL0     H54721   1.794   5.886   2.000  2.5185 -0.3854 -0.4847
  415MOL0     H54722   1.780   5.960   2.164 -1.5727 -2.0650  1.5526
  415MOL0     H54723   1.702   5.674   2.121 -4.3915 -0.3035 -0.7511
  415MOL0     H54724   1.698   5.791   2.258  1.9849  0.3128 -0.8322
  415MOL0     H54725   1.545   5.827   2.008  2.0793 -3.0196 -0.2755
  415MOL0     H54726   1.524   5.925   2.150  0.5948  0.1371  0.3551
  415MOL0     H54727   1.411   5.742   2.277 -1.2046  1.3828  0.1681
  415MOL0     H54728   1.455   5.624   2.148 -1.7785  0.1237 -1.9285
  415MOL0     H54729   1.284   5.725   2.011 -1.0469  0.1566  0.5062
  415MOL0     H54730   1.236   5.676   2.165  0.0736 -0.3684  0.1382
  415MOL0     H54731   1.307   5.965   2.076 -0.4759 -0.8911 -1.3259
  415MOL0     H54732   1.282   5.915   2.250 -0.3763 -1.6989  0.6853
  415MOL0     H54733   1.096   5.815   1.921  1.3459 -1.1614  1.8643
  415MOL0     H54734   0.893   5.966   1.791  0.8681 -1.9291 -0.0477
  415MOL0     H54735   0.767   6.026   1.902  0.7354 -0.2939  2.0303
  415MOL0     H54736   0.700   5.781   1.942  0.5885 -1.2739  0.8546
  415MOL0     H54737   0.834   5.731   1.833 -0.5897 -0.3063 -1.4136
  415MOL0     H54738   0.627   5.919   1.717  1.6031  0.7101 -0.8731
  415MOL0     H54739   0.746   5.836   1.637 -1.4165  1.7155 -0.9954
  415MOL0     H54740   0.511   5.718   1.781  0.5826 -2.6859  0.3756
  415MOL0     H54741   0.646   5.623   1.700  2.7864  1.3703  2.9027
  415MOL0     H54742   0.405   5.790   1.357  0.4113  2.4682  3.2732
  415MOL0     H54743   0.218   5.662   1.244 -2.0783  1.3439  0.7767
  415MOL0     H54744  -0.215   5.470   1.152 -0.6165 -0.6671  0.8758
  415MOL0     H54745  -0.326   5.325   1.006  1.2910  0.6545  0.1592
  415MOL0     H54746  -0.349   5.247   0.779 -1.3770 -0.2478 -0.7995
  415MOL0     H54747  -0.401   5.117   0.897  0.4741 -1.8478 -0.1222
  415MOL0     H54748  -0.347   4.950   0.728 -2.0364 -0.2060 -3.9313
  415MOL0     H54749  -0.304   5.083   0.614 -1.8963 -0.3375 -2.2850
  415MOL0     H54750  -0.530   5.152   0.626 -0.5524 -0.4111 -1.3442
  415MOL0     H54751  -0.573   5.014   0.746 -0.0091 -2.7198 -0.9568
  415MOL0     H54752  -0.461   4.949   0.477 -3.1886 -2.1680 -2.5194
  415MOL0     H54753  -0.529   4.851   0.596 -0.2612 -0.2466  0.2826
  415MOL0     H54754  -0.681   4.928   0.400  0.7732 -0.0554  0.6955
  415MOL0     H54755  -0.689   5.088   0.455 -2.0466  1.1799  2.8353
  415MOL0     H54756  -0.782   5.020   0.669 -0.9559  0.5281 -0.5800
  415MOL0     H54757  -0.790   4.847   0.610 -2.6669 -0.2798 -2.0557
  415MOL0     H54758  -0.927   5.106   0.550  0.3956  0.0663  2.2900
  415MOL0     H54759  -0.918   4.991   0.410 -0.2982  1.1084  0.2889
  415MOL0     H54760  -1.069   4.942   0.685  3.5474  0.8756 -0.0877
  415MOL0     H54761  -1.034   4.832   0.550  0.4541 -0.2921  1.3992
  415MOL0     H54762   0.048   5.093   0.972 -0.5250 -0.8522  0.0362
  415MOL0     H54763   0.141   5.231   1.141 -0.9235 -0.1438  1.5398
  415MOL0     H54764   0.175   5.423   1.598  1.4751 -0.9791 -0.5720
  415MOL0     H54765   0.378   5.522   1.689 -0.6903 -0.8273 -0.2659
  415MOL0     H54766   2.399   5.824   2.300 -3.3973  0.9999  1.5687
  415MOL0     H54767   2.610   5.931   2.261  1.4959  2.0812 -0.2630
  415MOL0     H54768   2.697   6.541   2.261 -1.7123  0.4710 -1.9643
  415MOL0     H54769   2.903   6.663   2.223 -1.5314 -0.2342 -1.0075
  415MOL0     H54770   3.087   6.628   2.342  0.1638 -0.8895  1.1744
  415MOL0     H54771   3.162   6.744   2.234 -0.3303 -1.2013 -3.1633
  415MOL0     H54772   3.371   6.660   2.236 -3.2542  2.6721 -2.1737
  415MOL0     H54773   3.313   6.691   2.397  1.6500 -2.2196  0.9138
  415MOL0     H54774   3.344   6.403   2.286 -2.5860 -2.5289  1.7004
  415MOL0     H54775   3.246   6.451   2.419 -0.3566 -1.1190 -2.3051
  415MOL0     H54776   3.478   6.369   2.478 -0.3482 -0.6076 -2.0570
  415MOL0     H54777   3.541   6.517   2.400 -0.4617  0.0017 -1.1659
  415MOL0     H54778   3.451   6.666   2.781  0.1809  0.9501 -0.6327
  415MOL0     H54779   3.080   6.330   2.035 -1.5628 -0.9796 -0.6375
  415MOL0     H54780   2.866   6.210   2.033 -0.4025  0.1967 -2.3696
  416MOL0     O54781   9.542   0.631   3.759 -0.5803  0.1866 -0.5472
  416MOL0     C54782   9.618   0.605   3.664  0.2424 -0.0083 -0.3873
  416MOL0     O54783   9.583   0.570   3.541  0.5060  0.3901 -0.3988
  416MOL0     C54784   9.453   0.579   3.508  0.2172 -0.0819 -0.3021
  416MOL0     C54785   9.380   0.466   3.464 -0.3957  0.3654  0.8037
  416MOL0     C54786   9.248   0.474   3.421 -0.3201 -0.8966  0.0939
  416MOL0     C54787   9.187   0.593   3.410  0.3700 -0.5143  0.6358
  416MOL0     O54788   9.055   0.591   3.374  0.0471  0.0164  0.2585
  416MOL0     C54789   8.967   0.680   3.453 -0.0393  0.2091 -0.0555
  416MOL0     C54790   8.835   0.610   3.434  1.3857  0.5771 -0.1988
  416MOL0     C54791   8.720   0.693   3.489  0.0991 -0.6481 -0.1461
  416MOL0     C54792   8.681   0.808   3.384  0.1512 -0.3068 -0.1459
  416MOL0     C54793   8.555   0.876   3.430  0.6999 -0.4234  0.1484
  416MOL0     C54794   8.431   0.787   3.457  1.1091  0.8822 -0.2687
  416MOL0     C54795   8.311   0.876   3.487  0.9359  0.5072 -0.5420
  416MOL0     C54796   8.186   0.788   3.498  0.1327 -0.4380  0.7875
  416MOL0     N54797   8.144   0.723   3.625  0.0448 -0.1399  0.2848
  416MOL0     C54798   8.074   0.783   3.731 -0.3972  0.4122  0.2030
  416MOL0     C54799   8.061   0.678   3.816 -0.4800  0.2250 -0.0457
  416MOL0     C54800   7.998   0.686   3.957 -0.6716  0.7372 -0.5262
  416MOL0     C54801   7.876   0.600   3.969 -0.0047 -0.1155  0.0830
  416MOL0     C54802   7.827   0.595   4.115 -0.3654  0.0134 -0.1457
  416MOL0     C54803   7.681   0.538   4.136  0.1586 -0.1080  0.4474
  416MOL0     O54804   7.679   0.398   4.092 -0.3845 -0.0442  0.3815
  416MOL0     C54805   7.558   0.337   4.078 -0.7025 -0.1464 -0.0830
  416MOL0     C54806   7.552   0.228   3.994  0.1250  0.5229  0.2442
  416MOL0     C54807   7.430   0.176   3.959 -0.1311  0.4277 -0.2499
  416MOL0     C54808   7.318   0.206   4.049 -0.1202 -0.4199  1.2442
  416MOL0     C54809   7.184   0.139   4.021 -0.3365  0.1621  0.4226
  416MOL0     O54810   7.185   0.033   3.934 -0.8572 -0.5247 -0.4297
  416MOL0     C54811   7.076  -0.032   3.898  0.1497  0.2022  0.3473
  416MOL0     C54812   7.075  -0.169   3.878  0.9003 -0.3082 -0.0451
  416MOL0     C54813   6.957  -0.231   3.835  0.2864  0.6672  0.1033
  416MOL0     C54814   6.836  -0.168   3.814 -0.4474  0.9811 -0.3364
  416MOL0     O54815   6.725  -0.242   3.784  1.1383  0.3747 -0.4460
  416MOL0     C54816   6.591  -0.180   3.790 -1.0864  0.0117  1.0815
  416MOL0     C54817   6.497  -0.271   3.707  0.0373  0.4188 -1.0871
  416MOL0     C54818   6.465  -0.406   3.763  0.1070 -0.0730  0.5529
  416MOL0     C54819   6.398  -0.398   3.901  0.4322  0.4979  0.5634
  416MOL0     C54820   6.344  -0.540   3.937 -0.2626 -0.7627 -0.3851
  416MOL0     C54821   6.448  -0.649   3.926 -0.1233  0.2694  0.7506
  416MOL0     C54822   6.421  -0.786   3.991 -0.5074  0.1053 -0.6877
  416MOL0     C54823   6.540  -0.878   3.988  0.1798  0.1683  0.7013
  416MOL0    Cl54824   6.567  -0.929   3.822  0.0218  0.3893  0.2821
  416MOL0     C54825   6.840  -0.030   3.839 -1.3158 -0.3385  0.4911
  416MOL0     C54826   6.958   0.039   3.868 -0.3643  0.8877  0.2211
  416MOL0     O54827   7.083   0.177   4.081 -0.2031 -0.2338  0.1170
  416MOL0     C54828   7.319   0.307   4.142  0.2835  0.1248  0.8344
  416MOL0     C54829   7.446   0.382   4.150 -0.3361  0.4468 -0.0733
  416MOL0     N54830   8.131   0.567   3.773  0.1935 -0.0008 -0.1758
  416MOL0     N54831   8.179   0.588   3.655  0.7297 -0.6603 -0.2802
  416MOL0     C54832   9.260   0.712   3.440 -0.3295 -0.1465  0.3342
  416MOL0     C54833   9.391   0.706   3.485 -0.6833  0.0759  0.3103
  416MOL0     C54834   9.761   0.585   3.702  0.2050  0.4789 -0.1010
  416MOL0     C54835   9.858   0.532   3.619 -0.0379 -0.0076  0.7440
  416MOL0     C54836   9.991   0.505   3.664  0.4424  0.2266 -0.1748
  416MOL0     C54837  10.039   0.558   3.786  0.3291  0.4773  0.4785
  416MOL0     O54838  10.164   0.540   3.845  0.7254  0.4027  0.1832
  416MOL0     C54839  10.265   0.490   3.755  0.2198 -0.4917  0.3133
  416MOL0     C54840  10.408   0.525   3.802 -0.9810 -0.0088  0.3162
  416MOL0     C54841  10.520   0.489   3.712 -0.5046 -0.3608  0.3813
  416MOL0     C54842  10.668   0.516   3.771  0.5131  0.2955 -0.5475
  416MOL0     C54843  10.714   0.651   3.817  0.3740  0.2470  0.7654
  416MOL0     C54844  10.769   0.754   3.848  0.4802 -0.4306 -0.1159
  416MOL0     C54845   9.942   0.626   3.865  0.1241 -0.1321  0.6862
  416MOL0     C54846   9.804   0.633   3.824  0.0797 -0.3468 -0.1778
  416MOL0     H54847   9.429   0.369   3.458 -0.9769  0.1238 -0.3120
  416MOL0     H54848   9.201   0.379   3.399  1.4235 -1.5521 -0.9653
  416MOL0     H54849   8.964   0.782   3.414 -0.2979 -0.6713 -2.5587
  416MOL0     H54850   8.997   0.685   3.558  2.0378 -2.1702 -0.4274
  416MOL0     H54851   8.836   0.513   3.483 -1.5894  0.2143 -0.7067
  416MOL0     H54852   8.806   0.595   3.329 -0.9584 -1.8853  0.6958
  416MOL0     H54853   8.759   0.735   3.582  1.8160 -3.5084  0.5616
  416MOL0     H54854   8.632   0.630   3.507  0.2323 -0.8342 -0.1507
  416MOL0     H54855   8.768   0.872   3.367  0.5820 -0.9086 -0.2277
  416MOL0     H54856   8.653   0.770   3.286 -1.5682  1.2095 -0.2851
  416MOL0     H54857   8.528   0.942   3.348 -2.2954 -0.4779  0.9520
  416MOL0     H54858   8.573   0.933   3.522  1.8380  1.5854 -1.2658
  416MOL0     H54859   8.445   0.720   3.542 -0.6027 -1.7046 -1.8933
  416MOL0     H54860   8.406   0.732   3.366  1.3642  1.7425 -0.8695
  416MOL0     H54861   8.324   0.939   3.576 -1.8059  5.1889 -3.0079
  416MOL0     H54862   8.298   0.951   3.408 -0.3274 -0.4258 -1.2654
  416MOL0     H54863   8.190   0.715   3.417  1.3748  0.4190  0.0530
  416MOL0     H54864   8.104   0.856   3.471 -0.6013 -0.7801  2.0448
  416MOL0     H54865   8.035   0.884   3.739  1.7145  1.2951  0.1605
  416MOL0     H54866   7.974   0.792   3.964  1.0570  1.3948 -3.1380
  416MOL0     H54867   8.068   0.657   4.036 -0.7699  0.0764 -0.6773
  416MOL0     H54868   7.893   0.498   3.934  1.0163  0.5470 -1.4300
  416MOL0     H54869   7.802   0.658   3.912  1.2500  1.4985  0.0248
  416MOL0     H54870   7.893   0.537   4.180  1.4341 -0.5257 -2.3272
  416MOL0     H54871   7.828   0.696   4.156 -3.3113 -0.0453  0.3408
  416MOL0     H54872   7.602   0.581   4.073 -0.1536 -1.4861 -0.1557
  416MOL0     H54873   7.654   0.552   4.241 -0.2602  1.4134  0.1617
  416MOL0     H54874   7.638   0.204   3.933  1.3299 -1.2843  2.5160
  416MOL0     H54875   7.419   0.104   3.879  0.8296  0.6711 -0.6072
  416MOL0     H54876   7.166  -0.227   3.894  0.0010 -1.6689  0.3686
  416MOL0     H54877   6.967  -0.335   3.807 -0.1225  0.4783  0.6566
  416MOL0     H54878   6.581  -0.081   3.745  3.5272 -0.2961 -1.2289
  416MOL0     H54879   6.559  -0.170   3.894  1.7688  0.5051  1.9964
  416MOL0     H54880   6.535  -0.289   3.606 -0.4128  0.6317 -1.2963
  416MOL0     H54881   6.403  -0.217   3.702 -0.5524 -0.3508  0.8293
  416MOL0     H54882   6.553  -0.470   3.767 -1.4201 -2.5334 -1.5302
  416MOL0     H54883   6.396  -0.460   3.697  1.2512 -3.3939  1.8686
  416MOL0     H54884   6.477  -0.369   3.972  0.6186  0.6415  0.2974
  416MOL0     H54885   6.321  -0.320   3.902 -0.8766 -0.6220 -2.4181
  416MOL0     H54886   6.261  -0.566   3.870 -0.8221 -4.4387  1.4679
  416MOL0     H54887   6.293  -0.540   4.034 -0.6009  2.1350 -0.4703
  416MOL0     H54888   6.539  -0.608   3.971  1.7479 -1.1674 -1.4598
  416MOL0     H54889   6.470  -0.673   3.821  0.6464 -1.1492  1.2135
  416MOL0     H54890   6.393  -0.777   4.097 -0.5942 -0.8211 -0.6214
  416MOL0     H54891   6.334  -0.821   3.934 -2.6812  3.9467 -0.0829
  416MOL0     H54892   6.507  -0.965   4.047  0.0009  1.0994  2.0313
  416MOL0     H54893   6.625  -0.826   4.034 -1.2855  2.4844  0.9587
  416MOL0     H54894   6.751   0.033   3.837 -0.0934  1.4703  1.1383
  416MOL0     H54895   6.957   0.147   3.878  0.2004  0.7984  1.3709
  416MOL0     H54896   7.240   0.334   4.211 -1.6826 -1.8790 -0.4788
  416MOL0     H54897   7.441   0.466   4.219 -0.5548 -0.5497  1.1622
  416MOL0     H54898   9.210   0.808   3.433 -0.3819 -0.2706 -2.6576
  416MOL0     H54899   9.442   0.792   3.526  2.8885 -1.0712 -1.2625
  416MOL0     H54900   9.820   0.493   3.525  1.0728 -0.2886  0.3988
  416MOL0     H54901  10.053   0.449   3.594  0.2645 -0.8742  0.5237
  416MOL0     H54902  10.255   0.546   3.662 -0.8104  0.3073  0.8691
  416MOL0     H54903  10.251   0.384   3.735  0.0576 -0.4766  0.3423
  416MOL0     H54904  10.411   0.634   3.817  0.9849  0.0430 -0.2001
  416MOL0     H54905  10.427   0.492   3.905  2.5706  0.1401 -0.1476
  416MOL0     H54906  10.508   0.540   3.616  1.4992  0.9284  0.7474
  416MOL0     H54907  10.519   0.382   3.690 -0.9199 -0.2105 -0.3408
  416MOL0     H54908  10.690   0.452   3.856  1.5889  0.9767 -0.2935
  416MOL0     H54909  10.733   0.486   3.687 -2.3330  0.6521 -3.0569
  416MOL0     H54910  10.812   0.842   3.891 -0.9724  0.8013 -1.0857
  416MOL0     H54911   9.974   0.665   3.962 -0.6352 -0.2362  0.9863
  416MOL0     H54912   9.731   0.674   3.894  0.2582 -0.1801 -0.0900
  417MOL0     O54913   8.916   3.801   3.862  0.4830  0.0321 -0.6932
  417MOL0     C54914   8.941   3.919   3.891 -0.9249  0.1137 -0.3560
  417MOL0     O54915   8.859   4.025   3.907 -0.5793  0.5410 -0.3522
  417MOL0     C54916   8.726   4.006   3.914  0.3141 -0.1574  0.4217
  417MOL0     C54917   8.642   3.985   3.806 -0.4360 -0.2330  0.2342
  417MOL0     C54918   8.502   3.971   3.818 -0.1969  0.3903  0.0244
  417MOL0     C54919   8.446   3.976   3.943  0.1054 -0.3726  0.2898
  417MOL0     O54920   8.307   3.980   3.933  0.8329  0.2503 -0.1815
  417MOL0     C54921   8.230   4.024   4.053 -0.6290  0.0872  1.1678
  417MOL0     C54922   8.096   4.063   4.005 -0.3003  0.8641  0.1240
  417MOL0     C54923   8.011   3.969   3.919  0.2912  0.4395 -0.1698
  417MOL0     C54924   7.889   4.045   3.876  0.1581  0.4590 -0.3158
  417MOL0     C54925   7.823   3.978   3.747  0.5027 -0.0272  0.7588
  417MOL0     C54926   7.773   3.840   3.778  0.0869 -0.0776  0.4911
  417MOL0     C54927   7.673   3.828   3.892 -0.1301 -0.5043  0.1371
  417MOL0     C54928   7.543   3.910   3.863 -0.2092 -0.0092 -0.1851
  417MOL0     N54929   7.476   3.859   3.747  0.4501  0.4743  0.6538
  417MOL0     C54930   7.433   3.728   3.709 -0.1914 -0.0638 -0.0765
  417MOL0     C54931   7.385   3.740   3.582  0.5529  0.2772 -0.5772
  417MOL0     C54932   7.331   3.619   3.510  0.1115 -0.1649 -0.0396
  417MOL0     C54933   7.197   3.569   3.569  0.6712 -0.6731 -0.1097
  417MOL0     C54934   7.082   3.660   3.528  0.5049 -0.2925 -0.0804
  417MOL0     C54935   6.938   3.640   3.595 -0.1338  1.1096 -0.6604
  417MOL0     O54936   6.843   3.730   3.528 -0.6222  0.2925 -0.3139
  417MOL0     C54937   6.726   3.667   3.494 -0.6381  0.3238 -0.0946
  417MOL0     C54938   6.636   3.649   3.596 -1.2511  0.9688  0.5724
  417MOL0     C54939   6.511   3.597   3.568 -0.7043 -0.1113  0.5749
  417MOL0     C54940   6.475   3.559   3.436 -0.4725  0.1192  0.3621
  417MOL0     C54941   6.334   3.522   3.392  0.0264 -0.4394  0.4509
  417MOL0     O54942   6.251   3.485   3.485 -0.3703  0.6180  0.2705
  417MOL0     C54943   6.136   3.428   3.445  0.1289  0.9767 -0.6088
  417MOL0     C54944   6.019   3.480   3.485  0.4741 -0.2596  0.1369
  417MOL0     C54945   5.899   3.416   3.449 -0.5624 -0.0778 -0.2909
  417MOL0     C54946   5.899   3.298   3.388  0.5626  0.4197  0.7334
  417MOL0     O54947   5.776   3.247   3.370  0.0854 -0.2872  0.0495
  417MOL0     C54948   5.757   3.108   3.344 -0.3107  0.4414 -0.0671
  417MOL0     C54949   5.610   3.062   3.333 -0.9317  0.3236 -0.5364
  417MOL0     C54950   5.561   3.106   3.203 -0.5079  0.7339  1.0247
  417MOL0     C54951   5.405   3.076   3.176 -0.4101 -0.5216  0.2330
  417MOL0     C54952   5.352   3.096   3.029 -0.2105 -0.3307 -0.8117
  417MOL0     C54953   5.206   3.040   3.027 -0.2069  0.2833  0.1173
  417MOL0     C54954   5.131   3.056   2.893  0.3219  0.6568  0.7687
  417MOL0     C54955   5.002   2.978   2.883  0.6161  0.5098 -0.0266
  417MOL0    Cl54956   5.031   2.817   2.826  0.3397 -0.2437 -0.0178
  417MOL0     C54957   6.021   3.243   3.345  0.1925  0.2784  0.0091
  417MOL0     C54958   6.142   3.305   3.375 -0.0891  0.1497  0.5945
  417MOL0     O54959   6.304   3.522   3.271  0.5618 -0.8706  0.1361
  417MOL0     C54960   6.579   3.583   3.340  0.8395  0.5404  0.6873
  417MOL0     C54961   6.696   3.643   3.362 -0.1929  0.1584  0.3125
  417MOL0     N54962   7.386   3.875   3.553  0.6104 -0.4227  0.1509
  417MOL0     N54963   7.436   3.941   3.651 -0.2779 -0.6989  0.3179
  417MOL0     C54964   8.525   3.999   4.053  0.0591  0.1603 -0.1441
  417MOL0     C54965   8.663   4.014   4.038 -0.1364  0.2794 -0.5036
  417MOL0     C54966   9.090   3.947   3.862  0.0513 -0.0923  0.0935
  417MOL0     C54967   9.184   3.850   3.807 -0.3155 -0.0007  0.2887
  417MOL0     C54968   9.312   3.886   3.765 -0.2843  0.0489  0.5581
  417MOL0     C54969   9.354   4.010   3.788  0.9546 -0.3116  0.1294
  417MOL0     O54970   9.485   4.037   3.754  0.6763 -0.6248 -0.4868
  417MOL0     C54971   9.557   4.116   3.849  0.8880 -0.0308  0.2311
  417MOL0     C54972   9.700   4.076   3.868  0.5524  0.1222 -0.1157
  417MOL0     C54973   9.727   3.935   3.916 -0.0066  0.3602 -0.9775
  417MOL0     C54974   9.874   3.884   3.919 -0.1092 -0.0752  0.4989
  417MOL0     C54975   9.925   3.899   3.780 -0.9168 -0.5396  0.8347
  417MOL0     C54976   9.981   3.896   3.672  0.2720 -0.8609 -0.3950
  417MOL0     C54977   9.259   4.107   3.840  0.3387 -0.3155 -0.2751
  417MOL0     C54978   9.125   4.080   3.864 -0.3279 -0.3793 -0.3360
  417MOL0     H54979   8.697   3.972   3.713  2.7802  2.0122  1.6121
  417MOL0     H54980   8.437   3.964   3.732 -1.0223  1.7244  0.5027
  417MOL0     H54981   8.285   4.101   4.108  0.7481 -0.5231  0.7066
  417MOL0     H54982   8.216   3.934   4.114 -0.5286 -0.0736  0.9574
  417MOL0     H54983   8.109   4.158   3.953 -0.8519 -0.3382 -2.4366
  417MOL0     H54984   8.034   4.087   4.091  0.8341  4.0119  0.1874
  417MOL0     H54985   7.976   3.885   3.981  3.1328  0.2487  1.3881
  417MOL0     H54986   8.076   3.932   3.839  0.6203  0.5956  0.0237
  417MOL0     H54987   7.812   4.059   3.953 -0.2015  0.1802 -0.6256
  417MOL0     H54988   7.921   4.147   3.851  0.8167  0.6806  1.2857
  417MOL0     H54989   7.893   3.975   3.663 -2.3500 -0.8494 -1.7773
  417MOL0     H54990   7.745   4.038   3.699  3.4611  3.4653 -0.1188
  417MOL0     H54991   7.860   3.777   3.801 -0.5477 -2.1899 -2.3325
  417MOL0     H54992   7.726   3.790   3.693  1.3869 -0.9783  0.2606
  417MOL0     H54993   7.638   3.725   3.902 -0.6454 -0.1481  2.9399
  417MOL0     H54994   7.711   3.862   3.988 -2.9497 -1.3116  1.6618
  417MOL0     H54995   7.560   4.017   3.851 -1.1000 -0.0032 -1.5228
  417MOL0     H54996   7.476   3.913   3.949  1.1243  2.4010  0.8894
  417MOL0     H54997   7.447   3.633   3.760  3.4667 -0.6714 -1.8593
  417MOL0     H54998   7.403   3.536   3.511 -0.3824 -0.6297  2.4487
  417MOL0     H54999   7.303   3.647   3.408 -3.3514 -1.4036  0.4505
  417MOL0     H55000   7.206   3.569   3.678  1.2251  3.1088 -0.0116
  417MOL0     H55001   7.179   3.471   3.525 -0.6954 -1.2509  1.6238
  417MOL0     H55002   7.101   3.767   3.542  0.0384 -0.2002 -0.1297
  417MOL0     H55003   7.057   3.642   3.423  2.1616  0.1513 -0.5804
  417MOL0     H55004   6.947   3.658   3.703  1.3756 -1.7328 -0.2189
  417MOL0     H55005   6.912   3.535   3.582 -2.9951  1.8008 -1.1521
  417MOL0     H55006   6.659   3.670   3.700  0.5891 -0.8179  0.5881
  417MOL0     H55007   6.438   3.594   3.648 -1.4125 -1.0570 -0.0857
  417MOL0     H55008   6.016   3.575   3.537 -0.0522  0.3564 -0.9990
  417MOL0     H55009   5.805   3.468   3.466 -0.1927 -0.2532  2.8319
  417MOL0     H55010   5.806   3.072   3.435  1.9747  1.7557 -0.6762
  417MOL0     H55011   5.817   3.084   3.256 -0.5360 -2.2094  0.4390
  417MOL0     H55012   5.558   3.110   3.417  1.2411  1.3919  0.2629
  417MOL0     H55013   5.606   2.953   3.346  0.2708  0.4332  1.1179
  417MOL0     H55014   5.612   3.039   3.133  0.3631  3.8054 -1.5603
  417MOL0     H55015   5.586   3.211   3.184 -0.9635  0.7024  0.2054
  417MOL0     H55016   5.388   2.970   3.194 -3.4106 -0.1619  0.0395
  417MOL0     H55017   5.340   3.136   3.241 -0.0077  1.6245 -1.2237
  417MOL0     H55018   5.431   3.055   2.965  1.6423  1.1338  0.3959
  417MOL0     H55019   5.352   3.204   3.008  1.3214 -0.0074  0.6065
  417MOL0     H55020   5.150   3.091   3.106 -0.9398  2.0377 -1.4582
  417MOL0     H55021   5.203   2.934   3.054  0.8478  0.1240 -0.3397
  417MOL0     H55022   5.098   3.159   2.881 -2.9905 -0.5076 -1.5192
  417MOL0     H55023   5.192   3.032   2.805  1.8587 -0.7656  2.1589
  417MOL0     H55024   4.934   3.026   2.812  0.0498 -0.6200 -0.2604
  417MOL0     H55025   4.954   2.961   2.979  1.2012 -0.7765  0.0637
  417MOL0     H55026   6.032   3.155   3.283  0.5832 -0.2869  0.8627
  417MOL0     H55027   6.236   3.264   3.338  0.8250  1.6188  1.2120
  417MOL0     H55028   6.558   3.565   3.235 -0.1692  1.4993  0.7078
  417MOL0     H55029   6.764   3.659   3.279 -1.3082 -1.1110 -0.9056
  417MOL0     H55030   8.490   4.004   4.156 -0.1597  0.3405 -0.2258
  417MOL0     H55031   8.722   4.044   4.124  0.0978  1.1316 -0.9409
  417MOL0     H55032   9.141   3.753   3.786 -1.6135  0.9848 -1.9477
  417MOL0     H55033   9.374   3.805   3.728  1.3141  1.3325  0.3446
  417MOL0     H55034   9.506   4.115   3.945 -2.2306  0.2669 -1.3044
  417MOL0     H55035   9.561   4.220   3.815  0.4532 -0.0067  0.2533
  417MOL0     H55036   9.751   4.095   3.773 -0.1664  0.1157 -0.5136
  417MOL0     H55037   9.745   4.147   3.937 -0.9598  0.5419  0.4859
  417MOL0     H55038   9.672   3.867   3.850  0.6341 -0.1118 -1.0342
  417MOL0     H55039   9.690   3.929   4.019  0.1708  1.5683 -0.8291
  417MOL0     H55040   9.942   3.934   3.989 -0.9264 -0.5811  1.6829
  417MOL0     H55041   9.874   3.778   3.945  0.8266 -1.1544 -3.2323
  417MOL0     H55042  10.028   3.889   3.576 -1.0115 -1.5947 -1.0018
  417MOL0     H55043   9.285   4.212   3.857  0.0161 -0.7416  4.1586
  417MOL0     H55044   9.064   4.169   3.879 -0.3352 -0.4238 -0.0992
  418MOL0     O55045   7.457   5.021   2.139 -0.0480  0.6215 -0.9691
  418MOL0     C55046   7.530   5.127   2.140  1.0216  0.6222  0.1436
  418MOL0     O55047   7.482   5.258   2.133  0.6084  1.7683  0.1181
  418MOL0     C55048   7.350   5.277   2.124  0.0251  0.1789  0.4387
  418MOL0     C55049   7.295   5.343   2.010  0.7752 -0.2588  0.1389
  418MOL0     C55050   7.158   5.380   2.019 -0.1767  0.2557 -0.5569
  418MOL0     C55051   7.084   5.351   2.130  0.9953 -0.0170 -0.6514
  418MOL0     O55052   6.951   5.389   2.127 -0.5730 -0.2010  0.0437
  418MOL0     C55053   6.923   5.509   2.196  0.1147  0.0245  0.1377
  418MOL0     C55054   6.787   5.565   2.142  0.2372 -0.3191 -0.1833
  418MOL0     C55055   6.797   5.587   1.992  0.6377  0.1124 -0.2201
  418MOL0     C55056   6.668   5.666   1.949 -0.8304 -0.4267 -0.5589
  418MOL0     C55057   6.532   5.597   1.984  0.8893  0.8820 -0.2443
  418MOL0     C55058   6.413   5.676   1.935  0.1906 -0.3548  0.3399
  418MOL0     C55059   6.274   5.617   1.981 -0.3054 -0.0387 -0.5308
  418MOL0     C55060   6.158   5.695   1.918 -0.1986  1.0961 -0.3601
  418MOL0     N55061   6.118   5.812   2.000  0.0843 -0.5634  0.1083
  418MOL0     C55062   6.121   5.943   1.957 -0.5358  0.4256  1.0499
  418MOL0     C55063   6.039   6.002   2.045 -0.6260 -0.3730  1.1364
  418MOL0     C55064   5.976   6.134   2.034 -0.3924 -0.4628  0.6006
  418MOL0     C55065   5.936   6.179   2.173  0.1271 -0.7180 -0.0765
  418MOL0     C55066   5.835   6.294   2.149  0.3343 -0.0258  0.2754
  418MOL0     C55067   5.785   6.362   2.281 -0.0270  0.3265  0.0812
  418MOL0     O55068   5.688   6.463   2.243 -0.4947 -0.5073  0.5871
  418MOL0     C55069   5.556   6.437   2.220 -0.2523  0.1894  1.2987
  418MOL0     C55070   5.494   6.313   2.201  0.3992  0.4112  0.4498
  418MOL0     C55071   5.354   6.308   2.181  0.2775  0.5945 -0.1125
  418MOL0     C55072   5.270   6.424   2.174 -0.6713 -0.3737 -0.3205
  418MOL0     C55073   5.123   6.422   2.138  0.6233  0.0802  0.4760
  418MOL0     O55074   5.072   6.539   2.101 -0.2482  0.2106  0.0238
  418MOL0     C55075   4.950   6.548   2.047  0.8568 -0.2710  0.8844
  418MOL0     C55076   4.831   6.536   2.121 -0.7924  0.9257  1.0690
  418MOL0     C55077   4.705   6.537   2.060  0.2852 -0.0966 -0.6316
  418MOL0     C55078   4.696   6.565   1.923 -0.3980  0.3240 -0.8430
  418MOL0     O55079   4.574   6.579   1.867 -0.3206 -0.5557  0.5775
  418MOL0     C55080   4.556   6.696   1.793 -0.1429  0.3801 -0.0152
  418MOL0     C55081   4.406   6.750   1.803  0.0770  0.0014  0.2060
  418MOL0     C55082   4.387   6.867   1.701 -0.1498 -0.4513 -0.3960
  418MOL0     C55083   4.235   6.895   1.671 -0.2939 -0.5531  0.2207
  418MOL0     C55084   4.194   7.004   1.772  0.0092  0.3504 -0.4135
  418MOL0     C55085   4.042   7.011   1.782  0.4837  0.2269  0.6884
  418MOL0     C55086   3.979   7.060   1.645 -0.0369 -0.8479  0.1870
  418MOL0     C55087   3.835   7.114   1.658 -0.0251 -0.1823 -0.3483
  418MOL0    Cl55088   3.768   7.155   1.497 -0.6387  0.2358 -0.0157
  418MOL0     C55089   4.812   6.576   1.853  0.5693 -0.2808 -0.1711
  418MOL0     C55090   4.936   6.560   1.911 -1.1027 -0.0510  0.2456
  418MOL0     O55091   5.062   6.313   2.136 -0.9851 -0.1855 -0.6851
  418MOL0     C55092   5.339   6.537   2.209  0.9450 -0.4184  0.0131
  418MOL0     C55093   5.479   6.547   2.234  0.0146  0.7535  0.1455
  418MOL0     N55094   5.993   5.904   2.137 -0.1029 -0.4985 -0.0777
  418MOL0     N55095   6.049   5.797   2.116 -0.1935  0.7269  0.0270
  418MOL0     C55096   7.145   5.285   2.240  0.6652  0.3926 -0.1203
  418MOL0     C55097   7.279   5.254   2.243 -0.0815  0.4799 -0.5716
  418MOL0     C55098   7.673   5.111   2.161 -0.3913 -0.0024  0.1409
  418MOL0     C55099   7.717   4.981   2.201 -0.5134  0.0433  0.0899
  418MOL0     C55100   7.852   4.953   2.225  0.5985  0.1007  0.6320
  418MOL0     C55101   7.945   5.052   2.206 -0.8499 -0.3174  0.6531
  418MOL0     O55102   8.083   5.036   2.229  0.3553 -0.3419  0.0245
  418MOL0     C55103   8.118   4.916   2.300  0.3926  0.6913  0.6892
  418MOL0     C55104   8.264   4.909   2.333 -0.0603  0.6573 -0.4196
  418MOL0     C55105   8.356   4.923   2.212  0.4093  0.3759 -0.4466
  418MOL0     C55106   8.488   4.997   2.232 -0.6021 -0.3166  0.2635
  418MOL0     C55107   8.605   4.914   2.265  0.0334 -0.0367  0.5287
  418MOL0     C55108   8.707   4.852   2.296  0.4993  0.0076 -0.5342
  418MOL0     C55109   7.903   5.183   2.164 -0.4103  0.4658  0.4185
  418MOL0     C55110   7.767   5.214   2.141  0.0300 -0.0939 -0.0122
  418MOL0     H55111   7.363   5.377   1.932  0.1107 -1.6308 -1.0911
  418MOL0     H55112   7.118   5.435   1.934  3.9467  0.7895 -2.3887
  418MOL0     H55113   7.001   5.579   2.167 -0.7300  0.5278 -1.0344
  418MOL0     H55114   6.904   5.491   2.303 -2.2638  0.8158 -0.0897
  418MOL0     H55115   6.761   5.659   2.192  0.6338 -0.0910 -0.4022
  418MOL0     H55116   6.714   5.486   2.165  0.1138 -0.5338 -1.2760
  418MOL0     H55117   6.817   5.489   1.946  2.4828  0.6796 -0.7394
  418MOL0     H55118   6.884   5.652   1.977 -0.1728  1.5176  0.8834
  418MOL0     H55119   6.661   5.770   1.981 -0.5906 -1.0246  1.5853
  418MOL0     H55120   6.659   5.677   1.840 -1.3664  0.4188 -0.4384
  418MOL0     H55121   6.511   5.581   2.090 -0.1036 -0.0313 -0.5585
  418MOL0     H55122   6.535   5.499   1.935 -2.5462  0.6416 -0.2277
  418MOL0     H55123   6.419   5.667   1.826  0.0155  1.4267  0.1565
  418MOL0     H55124   6.424   5.779   1.969 -1.8445  0.3297 -0.8838
  418MOL0     H55125   6.266   5.512   1.951 -1.0498 -0.4503  1.0300
  418MOL0     H55126   6.268   5.618   2.090 -2.1568  1.4785 -0.6000
  418MOL0     H55127   6.071   5.628   1.914 -0.3436  1.2642 -0.0257
  418MOL0     H55128   6.187   5.727   1.818  1.2010  0.8908 -0.0402
  418MOL0     H55129   6.158   5.988   1.866 -2.1281  1.3193  0.7996
  418MOL0     H55130   5.896   6.129   1.960 -0.4203 -2.8392  0.6992
  418MOL0     H55131   6.051   6.206   2.003  0.6218 -1.5831  0.3803
  418MOL0     H55132   6.019   6.203   2.240 -0.1008 -2.5197  0.9129
  418MOL0     H55133   5.886   6.100   2.229  0.9975 -1.9092 -0.9198
  418MOL0     H55134   5.879   6.377   2.094 -2.0482  0.8997 -0.3607
  418MOL0     H55135   5.751   6.240   2.104 -1.2710  1.2836  1.5552
  418MOL0     H55136   5.872   6.401   2.335  1.7852 -0.0045 -2.4050
  418MOL0     H55137   5.727   6.293   2.343 -0.3141  0.9622  0.5248
  418MOL0     H55138   5.562   6.229   2.201 -0.0855 -0.0747 -2.5681
  418MOL0     H55139   5.300   6.215   2.166  0.2368  0.3158  1.5263
  418MOL0     H55140   4.832   6.524   2.229 -3.7167 -0.9065  1.0157
  418MOL0     H55141   4.616   6.534   2.122 -0.2325  2.0133 -1.2103
  418MOL0     H55142   4.575   6.673   1.688 -1.5616  1.0152 -0.4342
  418MOL0     H55143   4.624   6.775   1.826  1.2445 -1.1849  1.0155
  418MOL0     H55144   4.371   6.779   1.903 -2.2925  2.3151 -1.1843
  418MOL0     H55145   4.346   6.669   1.760 -2.1226  1.2977  0.6787
  418MOL0     H55146   4.431   6.835   1.606 -0.4960  1.3386 -1.2228
  418MOL0     H55147   4.448   6.954   1.727  1.3711 -2.2085  2.2329
  418MOL0     H55148   4.232   6.942   1.573  0.7124 -0.0630  0.4174
  418MOL0     H55149   4.179   6.801   1.662  0.6919 -1.1455  0.2011
  418MOL0     H55150   4.226   7.099   1.727 -3.0552  1.5420 -0.3364
  418MOL0     H55151   4.250   6.998   1.865  1.0556  1.5989 -0.9268
  418MOL0     H55152   4.013   7.085   1.856 -1.5305 -0.5370  0.7113
  418MOL0     H55153   4.002   6.912   1.805  0.3781  0.5967  2.1581
  418MOL0     H55154   4.041   7.139   1.603 -2.1095 -1.1427 -3.9545
  418MOL0     H55155   3.981   6.974   1.576 -0.7460 -3.2723  2.9775
  418MOL0     H55156   3.841   7.205   1.718 -0.4938  0.0381 -0.6339
  418MOL0     H55157   3.767   7.045   1.708  0.1088 -1.3552 -1.6882
  418MOL0     H55158   4.795   6.575   1.746 -0.6118  1.2964 -0.0353
  418MOL0     H55159   5.015   6.565   1.837 -1.9063  2.7087 -0.5441
  418MOL0     H55160   5.281   6.628   2.211  0.3920 -0.7539 -0.4713
  418MOL0     H55161   5.512   6.648   2.258 -1.9675  1.4373  0.1919
  418MOL0     H55162   7.083   5.252   2.323 -0.6414 -1.1433 -1.6436
  418MOL0     H55163   7.326   5.217   2.333 -0.8836 -0.8558 -0.6631
  418MOL0     H55164   7.651   4.895   2.206  0.2833 -0.5740  0.1618
  418MOL0     H55165   7.888   4.854   2.248 -0.2737 -0.3479  0.1035
  418MOL0     H55166   8.114   4.832   2.231 -0.0417  1.8285 -0.7318
  418MOL0     H55167   8.055   4.891   2.386 -2.4462  1.1920 -1.0824
  418MOL0     H55168   8.292   4.984   2.407  1.8667 -2.4694  2.2951
  418MOL0     H55169   8.268   4.808   2.375  0.0847  2.0758  3.3893
  418MOL0     H55170   8.306   4.977   2.132 -1.0065 -0.9845 -0.5245
  418MOL0     H55171   8.368   4.820   2.177  0.4894  0.5836 -1.0400
  418MOL0     H55172   8.512   5.051   2.140  3.5745  1.8930  2.3719
  418MOL0     H55173   8.475   5.081   2.301  0.6223  0.6892 -0.6852
  418MOL0     H55174   8.793   4.792   2.315 -1.1754 -2.8914 -1.4822
  418MOL0     H55175   7.985   5.253   2.147 -0.1003 -0.4098 -2.0657
  418MOL0     H55176   7.740   5.317   2.122  0.0488 -0.2408 -0.8547
  419MOL0     O55177   3.306   5.608   1.249 -0.1508 -0.0675 -0.3816
  419MOL0     C55178   3.363   5.504   1.284 -0.9213  0.2851 -0.5326
  419MOL0     O55179   3.315   5.387   1.344 -0.1919 -0.9133  0.1784
  419MOL0     C55180   3.183   5.356   1.360 -0.0948  0.1183 -0.3168
  419MOL0     C55181   3.082   5.411   1.283 -0.0935 -0.6845 -0.8653
  419MOL0     C55182   2.945   5.381   1.310 -0.3703  0.0132 -0.2802
  419MOL0     C55183   2.901   5.310   1.423 -0.7859  1.0225  0.2521
  419MOL0     O55184   2.770   5.322   1.454  0.3941  0.2529 -0.1158
  419MOL0     C55185   2.731   5.311   1.591  0.2914 -0.2044  0.1167
  419MOL0     C55186   2.593   5.242   1.587 -0.1064 -0.3222  0.7212
  419MOL0     C55187   2.503   5.280   1.710  0.2745 -0.2716 -0.4830
  419MOL0     C55188   2.388   5.190   1.720  0.7077  0.4190  0.1147
  419MOL0     C55189   2.310   5.198   1.855 -0.0353 -1.4849 -0.1174
  419MOL0     C55190   2.181   5.118   1.853 -0.3904 -0.3065  0.4410
  419MOL0     C55191   2.126   5.112   1.991 -1.1991 -0.3684  0.8371
  419MOL0     C55192   1.992   5.044   1.994 -0.3006  0.1277 -0.6737
  419MOL0     N55193   1.924   5.074   2.120  0.1270  0.3661  0.0498
  419MOL0     C55194   1.867   4.984   2.204 -0.6049  0.1999  0.0903
  419MOL0     C55195   1.797   5.053   2.294 -0.6806  1.2211 -0.0606
  419MOL0     C55196   1.730   4.986   2.409 -0.3375  0.6877  0.1827
  419MOL0     C55197   1.588   4.935   2.360  0.2893  0.7477 -0.6227
  419MOL0     C55198   1.493   4.904   2.484  0.1371  0.3588 -0.5576
  419MOL0     C55199   1.361   4.880   2.428  0.0032  0.1986 -0.5121
  419MOL0     O55200   1.353   4.760   2.348  0.3418 -0.0825  0.8778
  419MOL0     C55201   1.238   4.733   2.282  0.7372 -0.1143  0.0327
  419MOL0     C55202   1.110   4.776   2.329 -0.5871  0.5993  1.3145
  419MOL0     C55203   1.002   4.764   2.253  0.7309  0.6084 -0.0313
  419MOL0     C55204   1.017   4.712   2.125  0.3233 -0.1393 -0.1134
  419MOL0     C55205   0.901   4.706   2.037 -0.2574  0.6443  0.2285
  419MOL0     O55206   0.798   4.796   2.055  0.4944 -0.0583 -0.0426
  419MOL0     C55207   0.674   4.781   1.996  0.5639 -0.9887 -0.2275
  419MOL0     C55208   0.618   4.886   1.918 -0.2908  0.1926 -0.1212
  419MOL0     C55209   0.514   4.857   1.837 -0.3229  0.0634  0.5590
  419MOL0     C55210   0.440   4.741   1.851  0.3607 -0.5501  0.4031
  419MOL0     O55211   0.327   4.701   1.780  0.0562  0.6078 -0.1037
  419MOL0     C55212   0.269   4.798   1.687 -0.2140  0.3662 -0.2896
  419MOL0     C55213   0.127   4.752   1.680  0.6168 -0.3923 -0.6629
  419MOL0     C55214   0.108   4.621   1.606  0.2166 -0.4153  0.5017
  419MOL0     C55215  -0.035   4.590   1.593  0.1304 -0.1504  0.1049
  419MOL0     C55216  -0.062   4.483   1.480 -0.7426 -0.4193  0.4799
  419MOL0     C55217  -0.215   4.443   1.464 -0.2654  0.3271 -0.0489
  419MOL0     C55218  -0.236   4.389   1.322  0.0574 -1.1320 -0.6276
  419MOL0     C55219  -0.374   4.328   1.309  1.3511 -0.0090 -1.1964
  419MOL0    Cl55220  -0.505   4.445   1.349  0.0972  0.3556 -0.1665
  419MOL0     C55221   0.489   4.637   1.934  0.3534 -0.0542  1.1919
  419MOL0     C55222   0.603   4.660   2.012 -0.9365  0.4036 -0.8444
  419MOL0     O55223   0.893   4.609   1.963 -0.2809 -0.3160 -0.0177
  419MOL0     C55224   1.140   4.661   2.074  0.2949  0.5251 -0.2497
  419MOL0     C55225   1.248   4.676   2.159  0.2786  0.3223  0.8020
  419MOL0     N55226   1.804   5.192   2.266 -0.5179 -0.1297 -0.6481
  419MOL0     N55227   1.886   5.195   2.165 -0.2568  0.3783 -0.3047
  419MOL0     C55228   3.016   5.246   1.496 -0.7392 -0.1628  0.2862
  419MOL0     C55229   3.153   5.268   1.465 -0.8191  1.0580 -0.0280
  419MOL0     C55230   3.512   5.509   1.274  0.1704  0.7214 -0.8845
  419MOL0     C55231   3.599   5.405   1.317  0.1798  0.2225 -0.7215
  419MOL0     C55232   3.734   5.432   1.318  0.4658 -0.3829 -1.0603
  419MOL0     C55233   3.792   5.549   1.291  0.3631  0.0992  0.4904
  419MOL0     O55234   3.932   5.546   1.300 -0.3604 -0.8207  0.1067
  419MOL0     C55235   3.997   5.676   1.293  0.1073 -0.1501  0.2047
  419MOL0     C55236   4.138   5.648   1.298 -0.0894 -0.5674  0.4971
  419MOL0     C55237   4.221   5.780   1.285 -0.6620 -0.0707 -0.1348
  419MOL0     C55238   4.366   5.759   1.230 -0.7002 -1.0488  0.1028
  419MOL0     C55239   4.449   5.878   1.245 -0.2447  0.1177  0.2714
  419MOL0     C55240   4.542   5.954   1.245  0.4352  0.0584 -0.6597
  419MOL0     C55241   3.708   5.656   1.261  0.5253  0.3859 -0.0339
  419MOL0     C55242   3.575   5.632   1.241 -0.6418  0.1694  0.6807
  419MOL0     H55243   3.086   5.476   1.196  0.1319 -1.1060 -1.1768
  419MOL0     H55244   2.863   5.425   1.254  0.4971  1.2579 -0.6014
  419MOL0     H55245   2.726   5.416   1.621  0.9368 -0.3630  0.8067
  419MOL0     H55246   2.797   5.256   1.659 -0.4146 -0.1186  0.8871
  419MOL0     H55247   2.613   5.134   1.583 -2.6183 -0.8691  0.9103
  419MOL0     H55248   2.538   5.264   1.495  0.1912  1.9896  1.0442
  419MOL0     H55249   2.471   5.384   1.699 -2.4122 -0.5019  3.4028
  419MOL0     H55250   2.543   5.271   1.811 -1.9717  0.4612  0.5392
  419MOL0     H55251   2.337   5.224   1.629  1.9773 -0.8225 -1.1305
  419MOL0     H55252   2.414   5.085   1.704 -2.7549 -0.4133 -0.8896
  419MOL0     H55253   2.279   5.302   1.868  2.9675 -0.5061 -0.0425
  419MOL0     H55254   2.377   5.180   1.939 -1.5593  1.7693  1.9951
  419MOL0     H55255   2.200   5.015   1.823  0.9027 -0.2344  0.9433
  419MOL0     H55256   2.113   5.169   1.784 -0.2795  0.5679  0.9590
  419MOL0     H55257   2.190   5.064   2.065 -3.8407 -0.5704  3.1603
  419MOL0     H55258   2.108   5.218   2.014  1.6004  1.2225 -3.1189
  419MOL0     H55259   2.002   4.937   1.975  1.7120  0.0961  0.3043
  419MOL0     H55260   1.929   5.080   1.912 -2.0017 -1.4417 -0.1133
  419MOL0     H55261   1.866   4.875   2.199 -1.7482  0.2394 -1.2506
  419MOL0     H55262   1.711   5.059   2.488 -1.5516  1.5214 -0.8588
  419MOL0     H55263   1.797   4.907   2.446 -2.5313 -1.3570  0.0069
  419MOL0     H55264   1.596   4.847   2.296  0.0236 -0.1589  0.5737
  419MOL0     H55265   1.530   5.013   2.309 -0.8522 -1.0238 -2.1899
  419MOL0     H55266   1.529   4.812   2.531 -1.7663  0.3654  1.0585
  419MOL0     H55267   1.500   4.992   2.549  0.6670  2.9657 -3.8367
  419MOL0     H55268   1.323   4.968   2.375 -1.7930 -0.1530  0.1598
  419MOL0     H55269   1.295   4.861   2.513  0.0177 -3.5329 -1.1492
  419MOL0     H55270   1.105   4.823   2.427  0.5866  0.2886  1.5338
  419MOL0     H55271   0.903   4.799   2.282 -0.6381 -0.0763 -3.3727
  419MOL0     H55272   0.656   4.988   1.916  1.5772 -0.4009  1.6655
  419MOL0     H55273   0.478   4.942   1.779 -2.6568 -0.3528  1.3047
  419MOL0     H55274   0.316   4.806   1.588 -1.1950 -0.3451 -0.8303
  419MOL0     H55275   0.281   4.898   1.730  2.0894 -0.5435  1.3360
  419MOL0     H55276   0.074   4.840   1.641  2.0910  0.4733 -0.7734
  419MOL0     H55277   0.091   4.735   1.782 -0.6924  0.0495 -1.0211
  419MOL0     H55278   0.160   4.535   1.649 -0.0775 -2.2953 -2.5899
  419MOL0     H55279   0.142   4.642   1.504 -0.0404 -2.0645  0.0356
  419MOL0     H55280  -0.086   4.548   1.681 -2.5372 -1.3108 -1.8638
  419MOL0     H55281  -0.089   4.681   1.568 -1.3618 -1.2422 -0.8415
  419MOL0     H55282   0.008   4.400   1.494 -1.0759 -1.1323 -1.7275
  419MOL0     H55283  -0.030   4.532   1.388 -0.1613  0.8796  1.3405
  419MOL0     H55284  -0.287   4.523   1.482 -0.4077  0.0204  0.7843
  419MOL0     H55285  -0.235   4.359   1.532  0.6809  0.1827  0.0574
  419MOL0     H55286  -0.218   4.469   1.249  1.6684  1.2065  2.0863
  419MOL0     H55287  -0.163   4.311   1.301  0.0134 -1.0833 -0.9784
  419MOL0     H55288  -0.370   4.257   1.392 -0.9607  1.9130  0.7208
  419MOL0     H55289  -0.378   4.285   1.209  1.8959 -2.6524 -0.1604
  419MOL0     H55290   0.434   4.545   1.949  0.8373 -0.5183  0.1886
  419MOL0     H55291   0.632   4.579   2.079  0.3926  0.8938 -0.8202
  419MOL0     H55292   1.144   4.618   1.974 -2.2121 -0.3222 -0.0547
  419MOL0     H55293   1.347   4.648   2.124  0.0985  0.8803 -0.2020
  419MOL0     H55294   2.994   5.176   1.576 -3.1286 -0.8750 -0.9010
  419MOL0     H55295   3.225   5.213   1.524  0.7886  1.2765 -1.7004
  419MOL0     H55296   3.566   5.304   1.339  1.8148 -0.0705  0.6366
  419MOL0     H55297   3.792   5.349   1.358 -1.2212 -0.4264  1.5301
  419MOL0     H55298   3.967   5.737   1.379 -1.6695  0.9657 -1.1303
  419MOL0     H55299   3.967   5.735   1.206 -0.9572  0.9804  1.2907
  419MOL0     H55300   4.158   5.603   1.395 -1.6421 -2.0657  0.1761
  419MOL0     H55301   4.177   5.576   1.225  2.5471  1.6414 -0.4907
  419MOL0     H55302   4.225   5.827   1.384 -2.8510 -1.0236  0.4778
  419MOL0     H55303   4.171   5.849   1.217  1.4961  0.5801 -1.1308
  419MOL0     H55304   4.414   5.675   1.282  2.3054  0.1400 -0.5742
  419MOL0     H55305   4.357   5.734   1.124 -3.2914 -0.5144  0.1197
  419MOL0     H55306   4.610   6.036   1.257 -1.0692  1.0305  2.5202
  419MOL0     H55307   3.748   5.755   1.242 -0.3212  1.3135  2.4933
  419MOL0     H55308   3.514   5.714   1.204 -1.0204 -0.7830 -0.8838
  420MOL0     O55309  11.088   3.301   8.629  0.3315 -0.3901  0.0657
  420MOL0     C55310  11.097   3.387   8.540  0.0289  0.3148  0.7087
  420MOL0     O55311  10.991   3.439   8.462 -0.3140  0.6291  0.3389
  420MOL0     C55312  10.863   3.409   8.496  0.0855  0.0403 -0.0278
  420MOL0     C55313  10.769   3.508   8.498  0.3584 -0.3989 -0.3747
  420MOL0     C55314  10.639   3.481   8.537  0.2621 -0.1819 -0.7428
  420MOL0     C55315  10.603   3.353   8.579 -0.0569  0.4003 -0.1960
  420MOL0     O55316  10.472   3.318   8.627 -0.7836 -0.8720  0.0509
  420MOL0     C55317  10.370   3.421   8.617 -0.4989  0.4270 -0.0180
  420MOL0     C55318  10.232   3.353   8.614  0.0654 -0.3230 -0.5548
  420MOL0     C55319  10.124   3.465   8.622 -0.4890  0.0389  0.3370
  420MOL0     C55320   9.975   3.421   8.650  0.0890 -0.7459 -0.6681
  420MOL0     C55321   9.865   3.510   8.598 -0.3177  0.2796 -0.0098
  420MOL0     C55322   9.887   3.662   8.597  0.6128  0.3134 -0.0338
  420MOL0     C55323   9.751   3.737   8.618 -0.2588 -0.0072 -0.1387
  420MOL0     C55324   9.647   3.712   8.512 -0.0169  0.5194  0.4782
  420MOL0     N55325   9.687   3.764   8.377 -0.2365 -0.2539 -0.3412
  420MOL0     C55326   9.663   3.890   8.335 -0.1896  0.0476  0.9977
  420MOL0     C55327   9.707   3.896   8.204 -0.3296 -0.6325 -0.6008
  420MOL0     C55328   9.713   4.007   8.111 -0.0379 -0.2559 -0.4202
  420MOL0     C55329   9.569   4.034   8.043  0.0288 -0.6962 -0.9974
  420MOL0     C55330   9.535   3.932   7.939  0.5065  0.0311 -0.7996
  420MOL0     C55331   9.397   3.952   7.883  0.5276  0.3520 -0.1631
  420MOL0     O55332   9.353   3.848   7.794 -0.1641 -0.0408 -0.7816
  420MOL0     C55333   9.259   3.900   7.709 -0.2176  0.0513 -0.8428
  420MOL0     C55334   9.136   3.935   7.754  0.3784 -0.1701  0.1219
  420MOL0     C55335   9.035   3.990   7.678 -0.3391 -0.5065 -0.8701
  420MOL0     C55336   9.070   4.020   7.538 -0.3172 -0.7162  0.3304
  420MOL0     C55337   8.961   4.083   7.455 -0.5276 -0.0507 -0.0151
  420MOL0     O55338   8.854   4.131   7.524 -0.2747 -0.4359 -0.2340
  420MOL0     C55339   8.734   4.173   7.460 -0.7685 -0.1962  0.2661
  420MOL0     C55340   8.689   4.125   7.335 -0.2714  0.4568 -0.1463
  420MOL0     C55341   8.563   4.162   7.303  0.2521 -0.2554 -0.1464
  420MOL0     C55342   8.475   4.225   7.395  0.3676  0.4104  0.0498
  420MOL0     O55343   8.348   4.265   7.367  0.7367 -0.2129  0.1410
  420MOL0     C55344   8.273   4.206   7.255 -0.4772 -0.1137 -0.0435
  420MOL0     C55345   8.125   4.254   7.269  0.1053 -0.4090  0.3843
  420MOL0     C55346   8.045   4.157   7.348  1.0477 -0.5515  0.3365
  420MOL0     C55347   7.896   4.173   7.329  0.1425 -0.2268 -0.1130
  420MOL0     C55348   7.823   4.106   7.444  0.0020  0.0563 -0.6409
  420MOL0     C55349   7.854   4.150   7.581 -0.8504  0.4679 -0.4205
  420MOL0     C55350   7.752   4.103   7.692  0.1648  0.1751 -0.2078
  420MOL0     C55351   7.817   3.998   7.778 -0.3253  0.8537 -0.6703
  420MOL0    Cl55352   7.698   3.911   7.870  0.2286 -0.3961  0.0641
  420MOL0     C55353   8.524   4.277   7.515 -0.5037 -0.1343  0.7537
  420MOL0     C55354   8.654   4.250   7.545  0.1991 -0.4993  0.9031
  420MOL0     O55355   8.971   4.071   7.333 -0.1991 -0.1191 -0.0167
  420MOL0     C55356   9.190   3.981   7.486 -0.3698 -0.6364 -0.2118
  420MOL0     C55357   9.284   3.907   7.573  0.6083 -0.7206 -0.0748
  420MOL0     N55358   9.768   3.773   8.173  0.1603  0.2126  0.3303
  420MOL0     N55359   9.750   3.694   8.272  0.1254  0.4463  0.0197
  420MOL0     C55360  10.696   3.248   8.561  0.4216 -1.3468  0.0185
  420MOL0     C55361  10.825   3.277   8.519 -0.4720  0.9436 -0.5696
  420MOL0     C55362  11.230   3.443   8.520 -1.2422 -0.1138  0.0147
  420MOL0     C55363  11.331   3.432   8.619 -0.9945 -0.9535  0.4965
  420MOL0     C55364  11.454   3.489   8.590  0.0392  0.1426  0.0234
  420MOL0     C55365  11.500   3.537   8.473 -0.3705  0.2942  0.9556
  420MOL0     O55366  11.624   3.589   8.461 -0.3536  0.1702 -0.4877
  420MOL0     C55367  11.699   3.564   8.342 -0.7442  0.9126  0.4289
  420MOL0     C55368  11.853   3.555   8.378 -0.8015 -0.0518 -0.6434
  420MOL0     C55369  11.936   3.495   8.268 -0.4501  0.0215  0.3823
  420MOL0     C55370  11.921   3.342   8.264 -0.1839  0.0438 -0.0355
  420MOL0     C55371  12.024   3.275   8.179 -0.7205  0.2168  0.1321
  420MOL0     C55372  12.117   3.241   8.106 -0.1709  0.6193  0.0228
  420MOL0     C55373  11.406   3.528   8.368  0.4606 -0.9682  0.5045
  420MOL0     C55374  11.265   3.500   8.391 -0.1088  0.3451 -0.6109
  420MOL0     H55375  10.802   3.609   8.480  0.1045 -0.5681 -1.9778
  420MOL0     H55376  10.567   3.562   8.533 -1.4550 -1.6606 -0.9442
  420MOL0     H55377  10.382   3.464   8.517 -1.9352  3.5546  1.0117
  420MOL0     H55378  10.387   3.500   8.691  0.5785  1.1765 -1.0329
  420MOL0     H55379  10.223   3.289   8.703 -2.3814  2.2111  1.2163
  420MOL0     H55380  10.220   3.286   8.528 -2.3871 -2.5876  1.3656
  420MOL0     H55381  10.135   3.513   8.524  1.1031 -1.1440 -0.1139
  420MOL0     H55382  10.152   3.538   8.699  1.2114  0.8398 -0.9643
  420MOL0     H55383   9.956   3.314   8.634  0.3175 -1.6144  3.6705
  420MOL0     H55384   9.972   3.423   8.759 -1.5248 -0.6177 -0.6850
  420MOL0     H55385   9.782   3.486   8.665  0.7001 -5.4756 -0.2755
  420MOL0     H55386   9.835   3.472   8.500  2.4669 -3.9524  0.5253
  420MOL0     H55387   9.922   3.685   8.496 -1.7068 -1.1310 -1.2360
  420MOL0     H55388   9.951   3.700   8.678 -3.7529  2.4801  2.8051
  420MOL0     H55389   9.712   3.697   8.712 -3.1818  1.0868 -0.7997
  420MOL0     H55390   9.752   3.846   8.627 -0.8437 -0.0443  0.4858
  420MOL0     H55391   9.554   3.759   8.542 -2.0386 -1.5336 -2.0947
  420MOL0     H55392   9.610   3.609   8.510 -0.0375  0.4735  2.0960
  420MOL0     H55393   9.618   3.969   8.394 -1.2778  1.2967 -1.3590
  420MOL0     H55394   9.795   3.981   8.042  0.1283  0.4707 -0.4998
  420MOL0     H55395   9.751   4.086   8.177  2.5353 -0.9642 -0.9152
  420MOL0     H55396   9.562   4.134   7.999  3.7640  0.7611  1.2200
  420MOL0     H55397   9.499   4.035   8.127  0.3216 -0.7463 -0.7469
  420MOL0     H55398   9.597   3.942   7.850 -0.8055 -0.9996 -1.8873
  420MOL0     H55399   9.556   3.831   7.977  0.9106 -0.0398 -1.2072
  420MOL0     H55400   9.399   4.042   7.820 -0.3710  2.2756  2.3962
  420MOL0     H55401   9.318   3.961   7.959 -1.4804 -0.5289 -2.0127
  420MOL0     H55402   9.120   3.919   7.861  0.6145  3.2857  0.7756
  420MOL0     H55403   8.941   4.016   7.724  0.5183  1.4968 -0.1186
  420MOL0     H55404   8.729   4.053   7.265 -4.1566 -3.0875  0.8390
  420MOL0     H55405   8.524   4.151   7.202  0.2205  0.7130 -0.2454
  420MOL0     H55406   8.293   4.099   7.261  4.3405  0.5118 -0.8839
  420MOL0     H55407   8.309   4.240   7.158 -2.0515  0.1427 -0.5681
  420MOL0     H55408   8.088   4.271   7.167 -1.0955  1.2816  1.0472
  420MOL0     H55409   8.110   4.347   7.326 -1.8773  0.0776 -0.8189
  420MOL0     H55410   8.067   4.183   7.452  1.0878  0.2809  0.1306
  420MOL0     H55411   8.077   4.057   7.319  2.2896  0.2425 -1.1933
  420MOL0     H55412   7.871   4.280   7.331  0.6732 -0.0482 -1.6104
  420MOL0     H55413   7.870   4.138   7.229  1.7368  2.3477 -1.5453
  420MOL0     H55414   7.822   3.998   7.428 -3.2150 -0.2830  1.1021
  420MOL0     H55415   7.722   4.145   7.430  0.3330  1.3655  0.3825
  420MOL0     H55416   7.858   4.260   7.581  0.3043  0.4379 -0.4517
  420MOL0     H55417   7.950   4.117   7.621 -2.4391 -1.8780  1.7546
  420MOL0     H55418   7.732   4.191   7.755 -1.0935 -0.9817  1.0861
  420MOL0     H55419   7.659   4.068   7.647  0.2946 -0.9084  0.3304
  420MOL0     H55420   7.900   4.038   7.837  1.2936  1.1074 -2.9797
  420MOL0     H55421   7.855   3.919   7.713  0.9465  1.0921 -0.2448
  420MOL0     H55422   8.454   4.327   7.582  0.7585  0.5664  1.6042
  420MOL0     H55423   8.700   4.277   7.640  2.7126 -3.0012  0.5467
  420MOL0     H55424   9.210   4.001   7.381 -1.7414 -0.2036 -0.4032
  420MOL0     H55425   9.380   3.883   7.530  0.8795  1.0109 -0.5202
  420MOL0     H55426  10.660   3.151   8.593 -0.8122 -0.2881  2.0248
  420MOL0     H55427  10.886   3.188   8.509 -2.1913 -0.4843  0.7440
  420MOL0     H55428  11.313   3.396   8.720  2.0762  1.4329  2.0632
  420MOL0     H55429  11.523   3.494   8.674 -1.1751  1.7308  0.9778
  420MOL0     H55430  11.685   3.650   8.277 -1.8734 -0.4894 -1.2777
  420MOL0     H55431  11.664   3.470   8.298 -0.7945  1.1791 -0.1085
  420MOL0     H55432  11.891   3.656   8.397 -3.4658  1.3037 -1.9206
  420MOL0     H55433  11.865   3.493   8.467 -3.2177  1.3780  0.7624
  420MOL0     H55434  12.038   3.523   8.297 -0.6674 -1.4915  2.8741
  420MOL0     H55435  11.916   3.540   8.171  2.3800 -2.5449 -1.5644
  420MOL0     H55436  11.926   3.304   8.366  0.3933 -0.3858 -0.2166
  420MOL0     H55437  11.831   3.311   8.211 -0.8359  2.2543 -0.3316
  420MOL0     H55438  12.197   3.219   8.039 -1.1161 -1.2824 -0.5438
  420MOL0     H55439  11.436   3.560   8.269  1.4314 -1.9827  0.4474
  420MOL0     H55440  11.199   3.497   8.305 -1.0019 -1.3669  0.0874
  421MOL0     O55441   6.093   8.457   7.092  0.3140 -0.5042 -0.6633
  421MOL0     C55442   6.070   8.551   7.020 -0.6663 -0.3027 -0.8743
  421MOL0     O55443   5.955   8.573   6.962  0.4208  0.2209  0.4288
  421MOL0     C55444   5.853   8.489   6.983 -0.0357 -0.6497 -0.4460
  421MOL0     C55445   5.758   8.521   7.081 -0.0530  0.3436 -0.2505
  421MOL0     C55446   5.661   8.425   7.124  0.6099 -0.6148  0.6303
  421MOL0     C55447   5.645   8.307   7.039  0.6760 -0.4955 -0.2446
  421MOL0     O55448   5.535   8.229   7.068 -0.5449  0.3007  0.8482
  421MOL0     C55449   5.504   8.126   6.978  0.2647  0.1407  0.0033
  421MOL0     C55450   5.367   8.061   7.018 -0.5678 -0.3988 -0.0402
  421MOL0     C55451   5.252   8.165   7.009 -0.1712 -0.2021  0.7597
  421MOL0     C55452   5.131   8.121   7.097  0.3677 -0.6412 -0.1362
  421MOL0     C55453   5.062   8.005   7.030  0.7030 -0.1503  0.1900
  421MOL0     C55454   4.915   7.993   7.073  0.6023 -1.4186 -0.2870
  421MOL0     C55455   4.843   7.888   6.996 -0.3783 -0.0107 -0.5705
  421MOL0     C55456   4.691   7.892   7.014 -0.1623  0.6777 -0.0986
  421MOL0     N55457   4.641   7.866   7.149 -0.2356  0.4434 -0.4054
  421MOL0     C55458   4.565   7.951   7.232 -0.2317 -0.0948 -0.5945
  421MOL0     C55459   4.557   7.889   7.358  0.9171  0.7423 -0.1290
  421MOL0     C55460   4.495   7.957   7.482  0.2410 -0.6186  0.0684
  421MOL0     C55461   4.342   7.966   7.486 -0.9721  0.2789  0.0957
  421MOL0     C55462   4.296   7.829   7.540  1.2290 -0.0864  0.1389
  421MOL0     C55463   4.145   7.819   7.523  0.1386 -0.4371 -0.8450
  421MOL0     O55464   4.078   7.931   7.589 -0.5671  1.0225 -0.1109
  421MOL0     C55465   3.943   7.928   7.609  0.5732  0.0195 -0.0534
  421MOL0     C55466   3.897   8.057   7.634 -0.2805 -0.7106  0.4733
  421MOL0     C55467   3.756   8.081   7.656 -0.3583 -0.9933 -0.2390
  421MOL0     C55468   3.664   7.973   7.647  0.0063  0.2914 -0.0041
  421MOL0     C55469   3.519   7.984   7.668 -0.4129 -1.2187  0.3872
  421MOL0     O55470   3.471   8.109   7.693 -0.1856  0.3054  0.9039
  421MOL0     C55471   3.330   8.128   7.707 -0.3651  0.0068  0.6093
  421MOL0     C55472   3.261   8.064   7.813 -0.5366  0.4430  0.4396
  421MOL0     C55473   3.121   8.084   7.832 -0.1396  0.2292  0.4094
  421MOL0     C55474   3.058   8.166   7.741  0.2260 -0.6973 -0.0860
  421MOL0     O55475   2.926   8.184   7.729 -0.0484  0.3368  0.4435
  421MOL0     C55476   2.860   8.058   7.701  0.4190  0.9088 -0.2966
  421MOL0     C55477   2.712   8.079   7.655 -0.7500 -0.3694  0.9142
  421MOL0     C55478   2.630   7.945   7.671  0.7494 -0.0559 -0.0006
  421MOL0     C55479   2.541   7.961   7.797  0.5570 -0.3160  0.3913
  421MOL0     C55480   2.448   7.836   7.799  0.3817 -0.6765  0.1001
  421MOL0     C55481   2.340   7.838   7.700 -1.0832 -0.0429 -0.1801
  421MOL0     C55482   2.246   7.724   7.708 -0.2389  0.3589  0.7511
  421MOL0     C55483   2.176   7.679   7.582  0.2158  0.1812 -0.1754
  421MOL0    Cl55484   2.046   7.806   7.528 -0.2784 -0.5103 -0.0252
  421MOL0     C55485   3.128   8.246   7.648 -0.9947  0.0598  0.6870
  421MOL0     C55486   3.264   8.220   7.625  0.4510 -0.1220  0.0172
  421MOL0     O55487   3.454   7.884   7.647  0.4917  0.3064 -0.0032
  421MOL0     C55488   3.719   7.847   7.628  0.3773  0.1193  0.2246
  421MOL0     C55489   3.855   7.823   7.601 -0.5203 -0.0333  0.3652
  421MOL0     N55490   4.626   7.770   7.346 -0.2024  0.0777 -0.3118
  421MOL0     N55491   4.672   7.760   7.231 -0.5289  0.1345  0.3778
  421MOL0     C55492   5.745   8.283   6.939 -0.6877  0.4337  0.8439
  421MOL0     C55493   5.848   8.365   6.921 -0.0612 -0.6637  0.0078
  421MOL0     C55494   6.186   8.647   7.022  0.0623  0.1431  0.7084
  421MOL0     C55495   6.267   8.657   7.137  0.6664 -0.3791  0.0092
  421MOL0     C55496   6.359   8.758   7.140 -0.6569 -0.3418 -0.4533
  421MOL0     C55497   6.377   8.846   7.033  0.3427  1.0556 -0.6307
  421MOL0     O55498   6.472   8.942   7.035 -0.4273  0.7656 -0.0129
  421MOL0     C55499   6.583   8.895   6.953  0.1156 -0.5860  0.0380
  421MOL0     C55500   6.713   8.944   7.008 -0.1566 -0.6719 -0.5814
  421MOL0     C55501   6.733   8.898   7.153 -0.7255  0.3096 -0.1394
  421MOL0     C55502   6.878   8.938   7.205 -0.1611  0.3811 -0.0785
  421MOL0     C55503   6.989   8.922   7.115  0.3794 -0.4196 -0.3560
  421MOL0     C55504   7.070   8.933   7.025  0.2472  0.0666 -0.2323
  421MOL0     C55505   6.298   8.837   6.920  0.4201  0.1131  0.1120
  421MOL0     C55506   6.208   8.730   6.914 -0.1165  0.4647  0.6114
  421MOL0     H55507   5.775   8.607   7.144  2.2145  1.0427 -1.6995
  421MOL0     H55508   5.600   8.444   7.212  1.1322  0.6914  0.7347
  421MOL0     H55509   5.570   8.039   6.986 -1.0820 -0.8677  0.5897
  421MOL0     H55510   5.495   8.163   6.876  1.5058  1.6848  0.4247
  421MOL0     H55511   5.379   8.021   7.119  0.3748  0.0015  0.0169
  421MOL0     H55512   5.361   7.973   6.954  2.2376 -1.7555  1.3387
  421MOL0     H55513   5.214   8.169   6.906 -1.8830 -1.7116  1.2685
  421MOL0     H55514   5.278   8.263   7.051  0.7539 -0.2861  0.4055
  421MOL0     H55515   5.171   8.091   7.195  1.9177 -3.8755 -1.6075
  421MOL0     H55516   5.069   8.211   7.103 -3.2037 -2.7812 -1.5359
  421MOL0     H55517   5.105   7.908   7.057 -0.1693 -0.3637  0.8394
  421MOL0     H55518   5.070   8.005   6.921  0.6990 -1.6462  0.1702
  421MOL0     H55519   4.862   8.088   7.059 -1.9711 -2.4378  1.6410
  421MOL0     H55520   4.910   7.969   7.180  0.1870 -1.4903 -0.3194
  421MOL0     H55521   4.854   7.915   6.891 -2.7445 -0.6867 -1.0455
  421MOL0     H55522   4.880   7.787   7.018 -1.5016 -0.5736 -1.1932
  421MOL0     H55523   4.645   7.810   6.959 -2.5520  2.6817 -1.2581
  421MOL0     H55524   4.642   7.979   6.970 -0.0342  1.8168  1.8559
  421MOL0     H55525   4.505   8.039   7.213 -1.9629 -0.9790  0.5206
  421MOL0     H55526   4.540   8.057   7.489 -1.5313  0.4299 -2.1841
  421MOL0     H55527   4.539   7.897   7.562  1.1934  0.9391  0.7649
  421MOL0     H55528   4.309   7.980   7.383  1.6761  1.2685 -0.6974
  421MOL0     H55529   4.309   8.047   7.552  1.6298  0.8242  0.8221
  421MOL0     H55530   4.336   7.745   7.481  1.0525 -0.3692  0.4168
  421MOL0     H55531   4.313   7.812   7.647 -1.6557 -1.2451  0.4938
  421MOL0     H55532   4.100   7.729   7.565 -0.7032  0.5724  0.5263
  421MOL0     H55533   4.111   7.822   7.420 -3.8921  0.0395  0.3309
  421MOL0     H55534   3.973   8.134   7.638 -1.1809  0.1893  0.6920
  421MOL0     H55535   3.718   8.177   7.687 -1.9147 -1.9338  0.9157
  421MOL0     H55536   3.323   8.000   7.874  2.7503 -1.7021 -4.5152
  421MOL0     H55537   3.066   8.024   7.904 -0.5572 -1.3828 -1.1928
  421MOL0     H55538   2.869   7.993   7.788 -0.2102 -1.5208 -1.9600
  421MOL0     H55539   2.918   8.004   7.626 -2.1888 -1.5222 -0.7083
  421MOL0     H55540   2.715   8.108   7.549  1.3314  0.7281  1.2310
  421MOL0     H55541   2.676   8.163   7.714  0.2874  1.1365 -0.5282
  421MOL0     H55542   2.686   7.851   7.679 -1.4087 -1.4595 -0.5217
  421MOL0     H55543   2.568   7.924   7.583  0.0854 -0.4532  0.5491
  421MOL0     H55544   2.598   7.970   7.890 -0.0702  1.4080  0.6415
  421MOL0     H55545   2.485   8.055   7.800 -0.1186 -0.7297  1.4164
  421MOL0     H55546   2.395   7.832   7.894 -0.0563  2.9830  0.1783
  421MOL0     H55547   2.509   7.746   7.792  2.0785  0.2399  2.1298
  421MOL0     H55548   2.379   7.840   7.597  1.5844  3.5101  0.7085
  421MOL0     H55549   2.287   7.934   7.711 -2.1946 -0.7186  0.4814
  421MOL0     H55550   2.308   7.639   7.737  0.0351  0.7585  1.3519
  421MOL0     H55551   2.180   7.738   7.794  1.1715  0.1823  1.9020
  421MOL0     H55552   2.121   7.585   7.597  3.2848 -1.4419  2.0533
  421MOL0     H55553   2.251   7.656   7.505  1.6188  3.9715 -0.1667
  421MOL0     H55554   3.075   8.312   7.581  0.9877 -0.5673 -1.6301
  421MOL0     H55555   3.313   8.284   7.553 -0.9515 -0.9281 -1.7490
  421MOL0     H55556   3.664   7.754   7.617 -0.0823  0.3876  0.2343
  421MOL0     H55557   3.891   7.722   7.583 -0.2199  0.3262 -1.2154
  421MOL0     H55558   5.741   8.199   6.870 -3.3311  0.8551  0.3599
  421MOL0     H55559   5.928   8.344   6.851  0.1015 -0.7264  0.2120
  421MOL0     H55560   6.257   8.598   7.228  0.1610  0.0993  0.2704
  421MOL0     H55561   6.442   8.770   7.209 -0.2617  1.0330 -1.1252
  421MOL0     H55562   6.559   8.929   6.852 -3.9511 -1.6817  0.4440
  421MOL0     H55563   6.599   8.787   6.951  1.5546 -0.3694 -1.0533
  421MOL0     H55564   6.802   8.913   6.952  1.2185  0.4295  0.8739
  421MOL0     H55565   6.706   9.053   7.001 -0.9530 -0.6111  0.8846
  421MOL0     H55566   6.728   8.789   7.160  1.5178  0.2278  2.2123
  421MOL0     H55567   6.660   8.929   7.229  0.2039  1.5165  0.3035
  421MOL0     H55568   6.883   9.044   7.231 -0.7075  0.1328  1.0905
  421MOL0     H55569   6.897   8.883   7.298  0.8800 -1.2886 -1.2130
  421MOL0     H55570   7.137   8.952   6.944  1.3321  0.9875  0.8377
  421MOL0     H55571   6.307   8.907   6.838  2.5941 -0.9399 -0.6340
  421MOL0     H55572   6.144   8.704   6.830 -2.3226  0.7659  2.1083
  422MOL0     O55573   7.219  11.099   8.384  0.3523 -0.7261 -0.6622
  422MOL0     C55574   7.267  11.198   8.320  0.8376  0.0160  0.0196
  422MOL0     O55575   7.187  11.278   8.242 -0.1143  0.3206  0.1275
  422MOL0     C55576   7.056  11.244   8.214  0.2853 -1.7084 -0.9657
  422MOL0     C55577   7.032  11.199   8.085  0.2479  0.6319 -0.4477
  422MOL0     C55578   6.903  11.162   8.046  0.0347  0.2029 -0.0624
  422MOL0     C55579   6.794  11.168   8.132  0.2781 -0.1854 -0.7362
  422MOL0     O55580   6.663  11.136   8.094 -0.5094 -0.2675  0.4320
  422MOL0     C55581   6.645  11.062   7.973 -0.2989  0.7223 -0.5884
  422MOL0     C55582   6.503  11.035   7.949 -0.0138 -0.0406 -0.0817
  422MOL0     C55583   6.420  11.153   7.903 -0.8179  0.1799  0.7297
  422MOL0     C55584   6.287  11.109   7.848  0.2475  0.2341 -0.4849
  422MOL0     C55585   6.205  11.228   7.803  0.8316  0.5597  0.0874
  422MOL0     C55586   6.054  11.207   7.809  0.0531 -0.0719 -0.2624
  422MOL0     C55587   5.989  11.114   7.711  0.4698  0.7217 -0.2408
  422MOL0     C55588   5.991  10.963   7.754 -0.5730  0.1812 -0.2812
  422MOL0     N55589   5.899  10.886   7.662 -0.2989  0.0780  0.0730
  422MOL0     C55590   5.840  10.928   7.551 -0.5133  0.0194  0.0166
  422MOL0     C55591   5.765  10.821   7.509  0.2141 -0.8453  0.3012
  422MOL0     C55592   5.680  10.833   7.390 -0.8488  0.4613  0.8608
  422MOL0     C55593   5.537  10.820   7.416  0.4268  0.2371  0.2960
  422MOL0     C55594   5.450  10.786   7.293 -0.3751  0.3896  0.7176
  422MOL0     C55595   5.317  10.722   7.337  0.0887  0.8690 -0.3556
  422MOL0     O55596   5.236  10.833   7.363 -0.3600 -0.8121 -0.4678
  422MOL0     C55597   5.110  10.810   7.416 -0.5347 -0.1382  0.0893
  422MOL0     C55598   5.029  10.921   7.448 -0.0146  0.8728  0.6984
  422MOL0     C55599   4.900  10.902   7.508 -0.6569  0.6337  0.3932
  422MOL0     C55600   4.846  10.772   7.519  0.2322  0.1359  0.4309
  422MOL0     C55601   4.699  10.745   7.545 -0.1754  0.6133 -0.6517
  422MOL0     O55602   4.669  10.610   7.542  0.4247 -0.8283 -0.6571
  422MOL0     C55603   4.538  10.590   7.567 -1.2485  0.3439  0.3755
  422MOL0     C55604   4.452  10.579   7.466 -0.3748  0.1015  0.3854
  422MOL0     C55605   4.317  10.533   7.487  0.6488 -0.3353 -0.1319
  422MOL0     C55606   4.275  10.505   7.617 -0.0162 -0.0960  0.5814
  422MOL0     O55607   4.140  10.464   7.630  0.0931 -0.9679 -0.4820
  422MOL0     C55608   4.098  10.417   7.753 -0.4628 -0.3100 -0.0217
  422MOL0     C55609   3.964  10.351   7.730 -0.1233  0.3481  0.3201
  422MOL0     C55610   3.906  10.281   7.852  0.9667  0.3318 -0.2669
  422MOL0     C55611   3.786  10.187   7.809  0.2155 -0.4605  0.5486
  422MOL0     C55612   3.702  10.132   7.917  0.4147 -0.1531  0.2597
  422MOL0     C55613   3.564  10.067   7.885  0.8008 -1.4018 -0.1506
  422MOL0     C55614   3.461  10.164   7.827  0.3331  0.0787  0.5102
  422MOL0     C55615   3.328  10.090   7.813 -0.5587  0.9600  1.0130
  422MOL0    Cl55616   3.267  10.035   7.967  0.2771  0.4875 -0.4335
  422MOL0     C55617   4.367  10.518   7.725 -0.0475  0.6677  0.0421
  422MOL0     C55618   4.497  10.566   7.703 -0.3267 -0.2425 -0.3345
  422MOL0     O55619   4.617  10.836   7.565  0.3945  0.7810 -0.8498
  422MOL0     C55620   4.937  10.665   7.515 -0.3513  0.2574 -0.2606
  422MOL0     C55621   5.064  10.686   7.462  0.2664  0.4844  0.2091
  422MOL0     N55622   5.793  10.717   7.595 -0.1289 -0.2765  0.4684
  422MOL0     N55623   5.866  10.753   7.693 -0.7117  0.3773  0.1317
  422MOL0     C55624   6.825  11.193   8.274  0.3147  0.4625  0.5991
  422MOL0     C55625   6.951  11.246   8.306  0.0295 -0.5749 -0.0361
  422MOL0     C55626   7.416  11.227   8.328  0.3187  0.2086 -0.2946
  422MOL0     C55627   7.502  11.136   8.393  1.2935 -0.7696 -0.2826
  422MOL0     C55628   7.632  11.173   8.416 -0.5386  0.3507  0.1922
  422MOL0     C55629   7.689  11.294   8.382  0.8571  0.4064 -0.8008
  422MOL0     O55630   7.821  11.318   8.408 -0.3978 -0.0287 -0.1177
  422MOL0     C55631   7.885  11.444   8.383 -0.3185  0.2758  0.0892
  422MOL0     C55632   7.986  11.467   8.494  0.1060  0.7800  0.2284
  422MOL0     C55633   8.113  11.371   8.469  0.7221  0.3449  0.3523
  422MOL0     C55634   8.199  11.416   8.357 -0.0329  0.1388  0.5190
  422MOL0     C55635   8.266  11.543   8.382  0.3082 -0.2426 -0.6055
  422MOL0     C55636   8.331  11.650   8.395  0.5294 -0.0192 -0.3950
  422MOL0     C55637   7.607  11.381   8.308  0.3947 -0.5518 -0.0254
  422MOL0     C55638   7.467  11.351   8.287 -0.1611  0.7110  0.2627
  422MOL0     H55639   7.123  11.205   8.027  0.8263  2.6659  0.5764
  422MOL0     H55640   6.894  11.137   7.940  4.4321  0.4039 -0.6607
  422MOL0     H55641   6.698  10.967   7.980  0.5789  1.3010  1.6166
  422MOL0     H55642   6.684  11.116   7.886  1.0636 -0.1289 -0.5357
  422MOL0     H55643   6.448  10.996   8.036 -0.3435 -0.0234 -0.2790
  422MOL0     H55644   6.506  10.959   7.871 -1.9165 -0.0420 -0.2170
  422MOL0     H55645   6.477  11.200   7.822  3.7565 -0.3500  3.2753
  422MOL0     H55646   6.406  11.229   7.980  0.5639  1.6334 -0.3904
  422MOL0     H55647   6.293  11.049   7.757 -1.3634  0.0242 -0.4790
  422MOL0     H55648   6.231  11.049   7.921 -1.5809  0.5342 -1.5792
  422MOL0     H55649   6.234  11.264   7.704 -1.1093  0.5651 -0.5119
  422MOL0     H55650   6.229  11.308   7.873 -0.1457  0.6274  0.3574
  422MOL0     H55651   6.005  11.301   7.782 -3.2188 -1.5238  0.0782
  422MOL0     H55652   6.021  11.177   7.909 -1.3540 -1.4647 -1.0947
  422MOL0     H55653   5.883  11.141   7.706 -0.1667 -1.5854 -0.3504
  422MOL0     H55654   6.040  11.111   7.615 -2.2167 -2.1196 -1.7600
  422MOL0     H55655   5.969  10.954   7.861 -0.0812  0.1537 -0.1804
  422MOL0     H55656   6.093  10.925   7.741 -0.2815 -0.0458  2.2556
  422MOL0     H55657   5.853  11.024   7.503  0.9450 -1.6917 -3.3171
  422MOL0     H55658   5.706  10.750   7.324 -1.9510  2.2759 -2.0679
  422MOL0     H55659   5.709  10.925   7.338 -4.2450  1.2020  0.0147
  422MOL0     H55660   5.501  10.914   7.459  1.2883  1.6837 -1.9365
  422MOL0     H55661   5.517  10.736   7.483  1.6329 -0.9439 -0.7774
  422MOL0     H55662   5.434  10.864   7.217 -0.8467 -1.8820 -1.6935
  422MOL0     H55663   5.504  10.710   7.236 -2.4326 -0.7632  0.1895
  422MOL0     H55664   5.331  10.659   7.425 -0.5457 -1.1561 -1.6338
  422MOL0     H55665   5.269  10.663   7.259 -0.4355  2.0826 -0.9791
  422MOL0     H55666   5.069  11.019   7.424  1.8317 -0.1679 -0.7235
  422MOL0     H55667   4.826  10.979   7.524 -3.6203 -1.8136 -0.5590
  422MOL0     H55668   4.487  10.620   7.372  0.8030 -2.4772 -0.3735
  422MOL0     H55669   4.254  10.532   7.399 -1.6103  2.3809  1.2944
  422MOL0     H55670   4.097  10.493   7.832 -1.7243  1.8621 -1.9884
  422MOL0     H55671   4.163  10.339   7.792 -0.1673  1.8260  4.2725
  422MOL0     H55672   3.965  10.272   7.655 -0.9811  0.3689  0.2740
  422MOL0     H55673   3.894  10.430   7.701  0.7067  1.4744  1.2719
  422MOL0     H55674   3.861  10.346   7.928  0.9367  0.2574 -0.2211
  422MOL0     H55675   3.980  10.221   7.907 -0.6179 -2.0735 -0.5807
  422MOL0     H55676   3.721  10.255   7.754 -1.5601 -1.4981  1.2797
  422MOL0     H55677   3.822  10.108   7.743 -0.8679  0.1955 -0.8686
  422MOL0     H55678   3.699  10.206   7.997  1.5929  0.5891 -0.3466
  422MOL0     H55679   3.752  10.045   7.961 -0.9590 -0.6010  0.9721
  422MOL0     H55680   3.533  10.024   7.981 -2.9004  1.6887  0.2792
  422MOL0     H55681   3.565   9.974   7.826  1.2973 -0.5801 -1.4757
  422MOL0     H55682   3.444  10.257   7.882 -0.3159  0.7652 -0.8030
  422MOL0     H55683   3.491  10.188   7.724 -0.5094  0.0061  0.2433
  422MOL0     H55684   3.346  10.008   7.743  2.3790  3.0583 -0.9127
  422MOL0     H55685   3.250  10.154   7.770  0.6976  2.0676  0.3244
  422MOL0     H55686   4.333  10.500   7.827 -1.5423  1.9188 -0.2073
  422MOL0     H55687   4.572  10.573   7.780 -2.3905  1.3406  1.6509
  422MOL0     H55688   4.903  10.562   7.524  2.1536 -0.5292  0.9692
  422MOL0     H55689   5.123  10.595   7.454 -1.6664 -0.8225  0.2150
  422MOL0     H55690   6.751  11.193   8.353  2.0024 -0.5925  2.2324
  422MOL0     H55691   6.973  11.267   8.410 -0.4620  2.1206 -0.3968
  422MOL0     H55692   7.484  11.038   8.436  0.5817  0.1792  1.7655
  422MOL0     H55693   7.706  11.103   8.452 -1.8906 -1.2789 -0.0738
  422MOL0     H55694   7.812  11.526   8.391 -0.4947  0.1068  0.2174
  422MOL0     H55695   7.923  11.449   8.280  1.3355  0.4357  0.6786
  422MOL0     H55696   8.020  11.571   8.497  0.4815  1.0535 -4.8429
  422MOL0     H55697   7.945  11.439   8.592 -1.4394 -2.6000 -1.2312
  422MOL0     H55698   8.076  11.270   8.452  0.1037  0.5609  0.3690
  422MOL0     H55699   8.176  11.379   8.558  0.8812 -0.0184  0.2721
  422MOL0     H55700   8.274  11.337   8.363  0.5314  0.7507  1.9024
  422MOL0     H55701   8.150  11.423   8.260 -2.4033  1.2303  1.7187
  422MOL0     H55702   8.387  11.740   8.413  1.3173 -0.0998 -2.2164
  422MOL0     H55703   7.637  11.476   8.265 -1.7051 -0.0507 -0.4734
  422MOL0     H55704   7.396  11.417   8.238  1.5424  0.7934 -2.2633
  423MOL0     O55705   6.541   1.080   9.326 -0.2382  0.5602  0.5563
  423MOL0     C55706   6.503   0.976   9.268 -0.2761  0.0985  0.7787
  423MOL0     O55707   6.365   0.934   9.263  0.1175  0.6584 -0.3682
  423MOL0     C55708   6.263   1.003   9.314  0.3153  0.3122  0.4685
  423MOL0     C55709   6.256   1.137   9.363 -0.4500  0.7699  0.1706
  423MOL0     C55710   6.142   1.193   9.406  0.3766  0.8163 -0.5261
  423MOL0     C55711   6.014   1.135   9.393  0.2575 -0.5065 -0.1461
  423MOL0     O55712   5.898   1.209   9.410  0.0163  0.4160 -0.1921
  423MOL0     C55713   5.876   1.255   9.542  0.0450 -0.1993  0.4688
  423MOL0     C55714   5.843   1.147   9.639  0.0058 -0.4047 -0.4860
  423MOL0     C55715   5.688   1.144   9.659 -0.0327  0.0467  0.3878
  423MOL0     C55716   5.610   1.263   9.713  0.4399 -0.2005  0.8745
  423MOL0     C55717   5.462   1.240   9.712 -0.5653  0.1690 -0.5881
  423MOL0     C55718   5.406   1.161   9.827 -0.0436 -0.5927  0.5274
  423MOL0     C55719   5.254   1.169   9.817 -0.3368  0.5868 -0.4619
  423MOL0     C55720   5.183   1.058   9.894 -1.3108 -0.3227 -0.6729
  423MOL0     N55721   5.045   1.081   9.910  0.2006  0.7147 -0.3772
  423MOL0     C55722   4.997   1.154  10.021  0.4802 -0.1760 -0.0803
  423MOL0     C55723   4.866   1.184   9.987 -0.3544 -1.4718 -1.4150
  423MOL0     C55724   4.782   1.240  10.087 -0.0983 -0.4940 -0.0067
  423MOL0     C55725   4.738   1.379  10.048 -0.3842  0.0015  0.2307
  423MOL0     C55726   4.619   1.378   9.948  0.1104 -0.4019 -0.2923
  423MOL0     C55727   4.513   1.280   9.981  1.0505 -0.1950  0.0809
  423MOL0     O55728   4.474   1.272  10.117  0.2554  0.6328 -0.6433
  423MOL0     C55729   4.340   1.249  10.152 -0.0862 -0.5085 -0.1656
  423MOL0     C55730   4.299   1.280  10.286  0.1301  0.2641 -0.6110
  423MOL0     C55731   4.170   1.239  10.331 -1.0064 -0.2889 -0.3491
  423MOL0     C55732   4.081   1.160  10.258  0.3240 -0.3402  0.0287
  423MOL0     C55733   3.951   1.100  10.314  0.3910 -0.5268 -0.5801
  423MOL0     O55734   3.865   1.056  10.215  0.0088 -0.1116  0.0658
  423MOL0     C55735   3.730   1.070  10.235 -0.0607  0.1679 -0.5663
  423MOL0     C55736   3.669   1.194  10.241  0.0440  1.2023 -0.3305
  423MOL0     C55737   3.527   1.197  10.244 -0.3069  0.0454  1.1412
  423MOL0     C55738   3.451   1.079  10.255  0.1681  0.3374 -0.4727
  423MOL0     O55739   3.316   1.091  10.263 -0.8686  0.0430  0.1317
  423MOL0     C55740   3.232   0.967  10.270 -0.2153  0.0335 -0.3799
  423MOL0     C55741   3.092   1.007  10.308  1.3837  1.8740 -0.2412
  423MOL0     C55742   3.074   1.117  10.416  0.0342  0.1882  0.1219
  423MOL0     C55743   3.114   1.066  10.560  0.1915  0.0023  0.9505
  423MOL0     C55744   3.025   0.963  10.623 -1.0051  0.1098  0.2447
  423MOL0     C55745   2.884   1.004  10.671  0.3118  0.4439  0.2954
  423MOL0     C55746   2.805   0.877  10.726 -0.1480  1.3645 -0.1416
  423MOL0     C55747   2.670   0.936  10.781  0.3601  0.0842  0.4319
  423MOL0    Cl55748   2.579   1.019  10.648 -0.3308  0.2877  0.1559
  423MOL0     C55749   3.512   0.953  10.240 -0.2620 -0.2453 -0.2963
  423MOL0     C55750   3.650   0.950  10.222 -0.1969 -0.1851  0.3904
  423MOL0     O55751   3.920   1.138  10.428  0.2874  0.3486 -0.0268
  423MOL0     C55752   4.124   1.145  10.124 -0.2532  1.0066  0.1877
  423MOL0     C55753   4.248   1.194  10.070  0.2143 -0.3209  0.9394
  423MOL0     N55754   4.830   1.108   9.882  0.1130 -0.3683  0.1971
  423MOL0     N55755   4.931   1.057   9.832  0.2981  0.0296 -0.2347
  423MOL0     C55756   6.017   1.004   9.342 -0.0948  0.7890  1.0920
  423MOL0     C55757   6.140   0.941   9.309  0.3907  0.2521  0.7337
  423MOL0     C55758   6.596   0.899   9.192  0.2047  0.1140  0.1319
  423MOL0     C55759   6.557   0.798   9.101 -0.1628 -0.1284  0.5387
  423MOL0     C55760   6.649   0.731   9.017  0.8980 -0.4922 -0.4911
  423MOL0     C55761   6.782   0.760   9.029 -0.9431 -0.2984 -0.2573
  423MOL0     O55762   6.875   0.712   8.940 -0.5132 -0.8361 -0.0796
  423MOL0     C55763   7.011   0.764   8.936 -0.2130  0.0011 -0.4612
  423MOL0     C55764   7.077   0.681   8.824 -0.5456 -0.0713 -0.1310
  423MOL0     C55765   7.214   0.735   8.812  0.4978 -0.3271  0.8156
  423MOL0     C55766   7.218   0.880   8.765  0.0338  0.0483 -0.3493
  423MOL0     C55767   7.351   0.928   8.733 -0.6675  0.6047 -1.3028
  423MOL0     C55768   7.460   0.977   8.718 -0.6622  0.1882  0.2304
  423MOL0     C55769   6.823   0.852   9.126  0.6977  0.5375  0.6135
  423MOL0     C55770   6.735   0.917   9.203 -0.2823 -1.0160  0.4513
  423MOL0     H55771   6.348   1.195   9.368  0.2397 -0.2737 -0.2606
  423MOL0     H55772   6.147   1.294   9.447 -1.0966 -0.1293  2.2094
  423MOL0     H55773   5.804   1.337   9.535  0.3183 -0.0907 -2.1558
  423MOL0     H55774   5.968   1.306   9.574  1.2944 -1.4812 -0.9158
  423MOL0     H55775   5.887   1.185   9.732 -1.2776  2.2669 -0.9035
  423MOL0     H55776   5.889   1.049   9.619  1.7067 -0.0822  1.4946
  423MOL0     H55777   5.669   1.061   9.727  1.2455 -0.8638 -0.3375
  423MOL0     H55778   5.654   1.119   9.558  1.7857  3.1293 -1.1719
  423MOL0     H55779   5.645   1.297   9.810  0.9346 -0.4409  0.7843
  423MOL0     H55780   5.635   1.342   9.641  2.3694 -0.1994  1.4851
  423MOL0     H55781   5.435   1.191   9.618  0.2658  0.8284 -1.1872
  423MOL0     H55782   5.410   1.335   9.703  1.5947  1.2245 -3.7176
  423MOL0     H55783   5.427   1.204   9.925  1.7505  2.0218 -0.8962
  423MOL0     H55784   5.443   1.058   9.824  0.3459 -0.4661  0.9368
  423MOL0     H55785   5.229   1.267   9.856  0.2804  0.5099  0.1394
  423MOL0     H55786   5.223   1.158   9.712 -0.0677  0.5012 -0.5358
  423MOL0     H55787   5.221   1.047   9.995  3.5289  1.2629 -2.0503
  423MOL0     H55788   5.192   0.963   9.841  0.2027  0.0137 -1.0734
  423MOL0     H55789   5.052   1.180  10.111  1.1540 -1.9501  0.0414
  423MOL0     H55790   4.842   1.254  10.178  0.5538 -0.6429 -0.4066
  423MOL0     H55791   4.695   1.185  10.124 -0.9230  0.6245 -0.2278
  423MOL0     H55792   4.826   1.437  10.018  0.4001 -0.3495  1.7417
  423MOL0     H55793   4.700   1.430  10.138  2.4953  3.1640 -0.1501
  423MOL0     H55794   4.578   1.478   9.929  0.7483 -0.0424  0.2049
  423MOL0     H55795   4.663   1.347   9.853 -0.6367 -1.7626 -0.2352
  423MOL0     H55796   4.531   1.181   9.938  0.2787 -0.3008 -0.0252
  423MOL0     H55797   4.430   1.315   9.919 -2.7054 -2.2914  3.4126
  423MOL0     H55798   4.371   1.326  10.353  0.2369 -3.2816  2.0405
  423MOL0     H55799   4.152   1.253  10.437 -3.1675 -0.5524 -0.6316
  423MOL0     H55800   3.720   1.288  10.225 -0.4213  1.4786 -0.1757
  423MOL0     H55801   3.483   1.296  10.244 -0.4096  0.0030  1.9496
  423MOL0     H55802   3.270   0.905  10.351 -0.5221  1.1040  0.6216
  423MOL0     H55803   3.223   0.912  10.176 -2.5442  0.9324 -0.7496
  423MOL0     H55804   3.024   0.928  10.339  1.2498  1.3227 -1.8266
  423MOL0     H55805   3.047   1.045  10.215  0.9496 -0.8886 -1.2586
  423MOL0     H55806   2.967   1.138  10.417  0.0463  0.2457  0.4630
  423MOL0     H55807   3.129   1.210  10.400  0.0635  0.1805  0.1753
  423MOL0     H55808   3.215   1.026  10.548 -0.1615 -0.8438  0.7121
  423MOL0     H55809   3.105   1.146  10.634 -2.0908 -3.7301  5.2428
  423MOL0     H55810   3.071   0.928  10.716 -0.8067 -1.5120 -0.4301
  423MOL0     H55811   3.018   0.867  10.572  0.6929 -0.3632  0.8261
  423MOL0     H55812   2.827   1.054  10.591  1.0666 -0.4484 -0.8393
  423MOL0     H55813   2.897   1.077  10.751  0.2824  1.1821 -0.3537
  423MOL0     H55814   2.788   0.806  10.644  2.9958  1.3556 -0.9285
  423MOL0     H55815   2.859   0.833  10.810  0.9035 -1.7424 -2.2466
  423MOL0     H55816   2.691   1.000  10.868  1.5685  1.0224 -0.5101
  423MOL0     H55817   2.617   0.847  10.817  3.7084 -3.1862 -1.9827
  423MOL0     H55818   3.451   0.864  10.257  0.3497 -1.0768 -2.1814
  423MOL0     H55819   3.705   0.856  10.224  0.5383  0.2510  0.7366
  423MOL0     H55820   4.060   1.103  10.048  0.2275  0.5069  0.0529
  423MOL0     H55821   4.258   1.170   9.965  1.6273 -2.6269  1.5296
  423MOL0     H55822   5.930   0.949   9.309  0.7045  1.0701 -1.7689
  423MOL0     H55823   6.144   0.842   9.265  1.5711 -0.1458  1.6901
  423MOL0     H55824   6.452   0.770   9.090  0.6704 -2.6523 -2.3170
  423MOL0     H55825   6.611   0.669   8.936  0.2561 -1.5167  0.5581
  423MOL0     H55826   7.061   0.755   9.033 -0.1966  0.7531 -0.3938
  423MOL0     H55827   7.015   0.871   8.917  1.6783 -0.2305 -1.5473
  423MOL0     H55828   7.084   0.572   8.835  2.0362  0.0017 -0.4210
  423MOL0     H55829   7.016   0.699   8.735 -1.6910  1.7051  0.9645
  423MOL0     H55830   7.258   0.680   8.728  0.6880  0.3556  0.4623
  423MOL0     H55831   7.266   0.717   8.906  0.6793  0.7856  0.9388
  423MOL0     H55832   7.157   0.890   8.674 -1.3027  1.6590  0.6519
  423MOL0     H55833   7.180   0.953   8.838 -0.3634  0.1055 -0.6084
  423MOL0     H55834   7.554   1.027   8.707 -0.1705 -0.6963  0.3232
  423MOL0     H55835   6.930   0.872   9.132  0.7240  1.3834 -1.5920
  423MOL0     H55836   6.788   0.988   9.267  0.1182 -1.6744  0.8626
  424MOL0     O55837  10.960   8.431   8.968 -0.5650  0.2089 -0.2358
  424MOL0     C55838  10.972   8.307   8.945  0.2981 -0.5717 -0.3175
  424MOL0     O55839  10.876   8.225   8.896 -0.2616 -0.4612  0.2039
  424MOL0     C55840  10.748   8.274   8.894  0.6821  0.3247  0.2763
  424MOL0     C55841  10.711   8.353   8.790  0.2539 -0.0972  0.4439
  424MOL0     C55842  10.582   8.411   8.783  0.3626 -0.1548  0.3005
  424MOL0     C55843  10.485   8.381   8.883  0.6934 -0.2467  0.2728
  424MOL0     O55844  10.355   8.428   8.894 -0.5934 -0.4753 -0.1303
  424MOL0     C55845  10.295   8.498   8.780  0.5338  0.2895  0.0361
  424MOL0     C55846  10.235   8.402   8.675 -0.5993  0.0807 -0.0842
  424MOL0     C55847  10.138   8.301   8.738 -0.9747 -0.0005 -1.0716
  424MOL0     C55848  10.064   8.218   8.632 -0.4103  0.0627  0.1112
  424MOL0     C55849   9.978   8.116   8.708  0.4238 -0.3245  0.0255
  424MOL0     C55850   9.860   8.187   8.781 -0.0506 -1.0625 -0.7602
  424MOL0     C55851   9.731   8.102   8.779  0.5743  0.1773  1.1045
  424MOL0     C55852   9.664   8.067   8.647  0.8424  0.8860  0.3620
  424MOL0     N55853   9.529   8.001   8.672 -0.2728  0.4139 -0.7021
  424MOL0     C55854   9.506   7.881   8.738  0.9123 -0.0502 -0.1119
  424MOL0     C55855   9.368   7.865   8.721 -0.5489  1.0720  0.3723
  424MOL0     C55856   9.287   7.745   8.773  0.9587 -0.5343 -0.3881
  424MOL0     C55857   9.245   7.645   8.666 -0.4303  0.0764 -0.8004
  424MOL0     C55858   9.168   7.532   8.703  0.3237  0.5457  0.0633
  424MOL0     C55859   9.026   7.576   8.737  0.3767  0.1800  0.0739
  424MOL0     O55860   8.953   7.476   8.800  0.3116 -0.0877 -0.7137
  424MOL0     C55861   8.814   7.496   8.824 -0.5729  0.6199 -0.1780
  424MOL0     C55862   8.744   7.384   8.873  0.6441 -0.0644  0.7705
  424MOL0     C55863   8.607   7.401   8.923 -0.1178  0.4189 -0.2020
  424MOL0     C55864   8.537   7.521   8.909  0.5877  0.1247  0.0621
  424MOL0     C55865   8.403   7.523   8.970 -0.7526  0.4594  0.1687
  424MOL0     O55866   8.364   7.413   9.044 -0.0280 -0.2743 -0.3234
  424MOL0     C55867   8.239   7.430   9.097 -0.5264  0.8003 -0.1441
  424MOL0     C55868   8.232   7.466   9.230  0.3114 -0.4021  0.0581
  424MOL0     C55869   8.104   7.474   9.287  0.4669 -0.7269 -0.0475
  424MOL0     C55870   7.982   7.446   9.214 -0.1680  0.5743  0.3080
  424MOL0     O55871   7.863   7.461   9.279 -0.4154  0.6657 -0.0749
  424MOL0     C55872   7.820   7.597   9.297  0.1308 -0.0621 -0.3990
  424MOL0     C55873   7.769   7.660   9.164 -0.8987  0.5136 -0.1929
  424MOL0     C55874   7.669   7.579   9.085 -0.1279  0.0652  0.5812
  424MOL0     C55875   7.644   7.654   8.949  0.3365  0.4832  0.5352
  424MOL0     C55876   7.532   7.589   8.871 -0.0667 -0.0406 -0.4629
  424MOL0     C55877   7.403   7.589   8.956 -0.3822  0.2848 -0.7440
  424MOL0     C55878   7.274   7.614   8.878 -0.1357 -0.1568  0.6218
  424MOL0     C55879   7.151   7.634   8.970  0.4937 -0.0355  0.1895
  424MOL0    Cl55880   7.006   7.678   8.864 -0.1465 -0.0504 -0.0651
  424MOL0     C55881   7.993   7.420   9.075  0.4675 -0.0846  0.5977
  424MOL0     C55882   8.123   7.413   9.017 -0.3920  0.7379 -0.0943
  424MOL0     O55883   8.342   7.623   8.951  0.1077  0.0878  0.2704
  424MOL0     C55884   8.599   7.627   8.845  0.1690 -0.0836  0.4790
  424MOL0     C55885   8.736   7.615   8.810  0.3016  0.0409  0.5648
  424MOL0     N55886   9.317   7.970   8.634 -0.0371  0.5790 -0.4941
  424MOL0     N55887   9.412   8.049   8.625 -0.7456  0.5430 -0.5583
  424MOL0     C55888  10.525   8.284   8.980  0.6977 -0.1950 -0.1408
  424MOL0     C55889  10.653   8.229   8.977 -0.2394 -0.4174  0.0240
  424MOL0     C55890  11.101   8.244   8.954  0.1797  0.2511  0.6496
  424MOL0     C55891  11.214   8.309   8.996  0.0340 -0.8222 -0.3037
  424MOL0     C55892  11.341   8.257   8.979  0.0251  0.5575  0.3171
  424MOL0     C55893  11.354   8.125   8.928  0.6937 -1.6259  0.6168
  424MOL0     O55894  11.465   8.060   8.884 -0.4182 -0.2742 -0.2464
  424MOL0     C55895  11.588   8.131   8.914  1.1288  0.1526 -0.0330
  424MOL0     C55896  11.714   8.069   8.857  0.0895 -0.2382 -0.2166
  424MOL0     C55897  11.843   8.141   8.906 -1.0507  1.3403 -0.1867
  424MOL0     C55898  11.964   8.065   8.856 -0.5363 -0.3727 -0.6534
  424MOL0     C55899  12.103   8.131   8.877  0.0641  0.3013 -0.2210
  424MOL0     C55900  12.211   8.172   8.900  0.3420  0.1495  0.0565
  424MOL0     C55901  11.244   8.054   8.893  0.5536  0.2348  0.6772
  424MOL0     C55902  11.120   8.118   8.900 -0.0829 -0.3447 -0.8225
  424MOL0     H55903  10.783   8.365   8.709  1.9998 -2.0904  1.5781
  424MOL0     H55904  10.584   8.484   8.703 -0.5902  0.4508  0.8060
  424MOL0     H55905  10.366   8.563   8.728  2.1487 -1.3058  0.1539
  424MOL0     H55906  10.213   8.564   8.812 -1.6258 -1.2460 -1.9998
  424MOL0     H55907  10.311   8.346   8.620  2.7948  4.2224 -0.1368
  424MOL0     H55908  10.182   8.447   8.590  0.5700 -2.4108 -2.2788
  424MOL0     H55909  10.071   8.357   8.804 -1.8086 -0.7830 -1.2439
  424MOL0     H55910  10.196   8.235   8.803  1.1055  1.5005 -1.2917
  424MOL0     H55911  10.006   8.281   8.564 -1.9214 -3.2476 -1.8652
  424MOL0     H55912  10.138   8.159   8.577  0.8550 -0.4427  2.2574
  424MOL0     H55913  10.039   8.053   8.773  0.3880 -0.8429 -0.4439
  424MOL0     H55914   9.940   8.039   8.640 -0.7834 -1.4557  1.8909
  424MOL0     H55915   9.838   8.282   8.731  1.5475 -0.7830 -0.9753
  424MOL0     H55916   9.867   8.198   8.890 -4.5045 -1.3318 -0.2454
  424MOL0     H55917   9.737   8.004   8.829 -0.7989  0.7467  2.4489
  424MOL0     H55918   9.660   8.168   8.829 -0.2181  0.5481 -0.4750
  424MOL0     H55919   9.724   8.000   8.585  1.7065  1.8295  0.1389
  424MOL0     H55920   9.650   8.161   8.594  0.7597  1.9101  2.0976
  424MOL0     H55921   9.578   7.816   8.787  1.6460  1.3531  0.7329
  424MOL0     H55922   9.196   7.792   8.812  0.6918  2.9429 -4.4820
  424MOL0     H55923   9.332   7.699   8.862 -2.0569 -2.7839  0.1585
  424MOL0     H55924   9.334   7.610   8.612 -0.3427 -3.3244  1.3103
  424MOL0     H55925   9.189   7.699   8.589 -0.3934  3.7343  1.5023
  424MOL0     H55926   9.155   7.466   8.616 -3.2243 -0.5935  1.2623
  424MOL0     H55927   9.206   7.472   8.785  1.0667 -1.2765 -1.5382
  424MOL0     H55928   8.963   7.600   8.651 -0.5270  0.2731  0.7560
  424MOL0     H55929   9.032   7.658   8.810  1.8683 -0.5437  0.8001
  424MOL0     H55930   8.795   7.288   8.882 -1.2772 -1.0783  1.3568
  424MOL0     H55931   8.579   7.309   8.972  1.3414 -1.0969 -2.0662
  424MOL0     H55932   8.323   7.489   9.283 -0.2710  0.8683  0.5518
  424MOL0     H55933   8.098   7.502   9.391  0.5244 -0.0178 -0.2322
  424MOL0     H55934   7.902   7.660   9.331  0.7595 -0.0869 -1.8252
  424MOL0     H55935   7.743   7.590   9.374  0.6691 -1.5288  0.0409
  424MOL0     H55936   7.861   7.677   9.108 -0.8649  2.3035  0.3416
  424MOL0     H55937   7.726   7.758   9.186  1.8016  1.3481  2.0774
  424MOL0     H55938   7.578   7.568   9.144 -0.3609 -0.2467  0.1624
  424MOL0     H55939   7.724   7.489   9.057  0.9984  1.7265 -3.1897
  424MOL0     H55940   7.605   7.754   8.971 -1.3224  0.1087 -0.4792
  424MOL0     H55941   7.732   7.659   8.885 -0.1372 -0.2888 -0.2105
  424MOL0     H55942   7.558   7.486   8.846  1.9491  0.3067  0.0587
  424MOL0     H55943   7.514   7.653   8.784  1.1282  0.3234 -0.4579
  424MOL0     H55944   7.410   7.672   9.028  1.4099 -0.3323 -0.1541
  424MOL0     H55945   7.400   7.495   9.011  0.0731  0.5896 -0.1732
  424MOL0     H55946   7.284   7.706   8.820 -0.4387 -0.9369 -0.7074
  424MOL0     H55947   7.253   7.532   8.810  3.3532 -0.5373 -0.1727
  424MOL0     H55948   7.168   7.715   9.041  0.9239 -1.3870  1.6987
  424MOL0     H55949   7.127   7.535   9.011 -0.7987 -0.6371 -1.8238
  424MOL0     H55950   7.907   7.405   9.011  0.4058  1.2566  0.3305
  424MOL0     H55951   8.131   7.407   8.908 -2.0700 -0.1177 -0.2105
  424MOL0     H55952   8.545   7.718   8.819  1.3356  0.9034  1.3613
  424MOL0     H55953   8.789   7.689   8.752  0.5662 -0.6835 -0.1352
  424MOL0     H55954  10.463   8.242   9.057  3.0532 -1.9721  0.9258
  424MOL0     H55955  10.683   8.154   9.050  3.6899 -1.0820 -1.9920
  424MOL0     H55956  11.214   8.408   9.039  1.8376 -0.3518 -1.2693
  424MOL0     H55957  11.423   8.326   9.000 -0.2724  0.8346  0.5847
  424MOL0     H55958  11.607   8.136   9.022  2.9318 -1.0440 -0.2449
  424MOL0     H55959  11.587   8.232   8.872  3.9075  0.3351  0.1555
  424MOL0     H55960  11.725   7.966   8.892  3.1621  0.7175  2.0938
  424MOL0     H55961  11.714   8.066   8.747 -0.0264 -1.3762 -0.2025
  424MOL0     H55962  11.836   8.140   9.016 -0.2771 -1.2383 -0.0953
  424MOL0     H55963  11.839   8.247   8.879 -0.6441  1.9276  1.8699
  424MOL0     H55964  11.969   7.978   8.921  0.6567  0.3514  0.2507
  424MOL0     H55965  11.943   8.047   8.750 -4.3647  0.8729 -0.2588
  424MOL0     H55966  12.312   8.204   8.918  0.2418  3.4430 -3.7426
  424MOL0     H55967  11.248   7.961   8.837 -3.0522  0.7264 -0.6839
  424MOL0     H55968  11.035   8.056   8.873  0.4170 -1.0049 -0.9043
  425MOL0     O55969   4.008   2.172   9.539  0.0831  0.1827 -0.6291
  425MOL0     C55970   3.940   2.221   9.452  0.4657 -0.1520  1.1176
  425MOL0     O55971   3.807   2.186   9.425 -0.1532 -0.3011  0.2389
  425MOL0     C55972   3.739   2.087   9.495 -0.1319 -0.8028  0.2724
  425MOL0     C55973   3.784   1.976   9.558 -0.5050  1.1780  0.2960
  425MOL0     C55974   3.700   1.878   9.615  1.1802 -0.0928 -0.2079
  425MOL0     C55975   3.562   1.890   9.594 -0.2867 -0.2499  0.0921
  425MOL0     O55976   3.469   1.803   9.638 -0.0756  0.2856  0.1381
  425MOL0     C55977   3.508   1.664   9.663  0.1461 -0.0042  0.4408
  425MOL0     C55978   3.374   1.605   9.696 -0.9972  0.5851  0.3410
  425MOL0     C55979   3.275   1.603   9.574  1.4883  0.2092  0.4564
  425MOL0     C55980   3.130   1.567   9.630  0.9708 -0.0381  0.9654
  425MOL0     C55981   3.029   1.523   9.521 -0.9207 -0.1410 -0.9970
  425MOL0     C55982   2.903   1.484   9.602 -0.1084  0.3357 -0.3344
  425MOL0     C55983   2.773   1.460   9.520  0.1985  0.3986  0.3737
  425MOL0     C55984   2.657   1.409   9.612  1.5084 -0.5535 -1.1343
  425MOL0     N55985   2.535   1.362   9.539  0.1012 -0.5591  0.3696
  425MOL0     C55986   2.445   1.449   9.475  0.7787 -0.6878  0.8343
  425MOL0     C55987   2.343   1.365   9.453 -0.6022  0.3093 -0.3665
  425MOL0     C55988   2.214   1.421   9.392 -0.9405 -0.9176  0.2411
  425MOL0     C55989   2.102   1.321   9.377  0.7542 -0.2854 -0.0797
  425MOL0     C55990   2.034   1.292   9.505  0.5002 -0.3993  0.3631
  425MOL0     C55991   1.941   1.168   9.494 -0.4092  0.5540 -0.3939
  425MOL0     O55992   1.870   1.155   9.616 -0.6191  0.3331 -0.4668
  425MOL0     C55993   1.772   1.063   9.628  0.5481 -0.2587  0.2119
  425MOL0     C55994   1.752   0.963   9.536 -0.2309  0.2224  0.8389
  425MOL0     C55995   1.646   0.880   9.544  0.1772  0.4745  0.9280
  425MOL0     C55996   1.542   0.891   9.639 -0.3949  0.2809  0.1165
  425MOL0     C55997   1.422   0.810   9.641 -0.2771  0.1313  0.1508
  425MOL0     O55998   1.326   0.833   9.730  0.0210 -0.6029 -0.5086
  425MOL0     C55999   1.199   0.771   9.729 -0.5309  0.2336  0.2249
  425MOL0     C56000   1.131   0.751   9.609 -0.6151  0.4099 -0.6043
  425MOL0     C56001   0.997   0.728   9.605 -0.1549 -1.3163  0.5458
  425MOL0     C56002   0.931   0.694   9.726 -0.3425 -0.2374 -0.4860
  425MOL0     O56003   0.801   0.660   9.719  0.1405 -0.0656 -0.3303
  425MOL0     C56004   0.724   0.742   9.799 -0.3785 -0.1123  0.2623
  425MOL0     C56005   0.597   0.754   9.719  1.0108 -0.8007  0.0020
  425MOL0     C56006   0.480   0.671   9.780  0.0648  0.3845 -0.2355
  425MOL0     C56007   0.349   0.707   9.715  0.0921 -0.1314  0.4426
  425MOL0     C56008   0.218   0.650   9.782  0.4659 -0.3052 -0.8568
  425MOL0     C56009   0.089   0.703   9.721  0.6243  0.2168 -0.2716
  425MOL0     C56010  -0.036   0.675   9.806  0.7865  0.9049 -0.2029
  425MOL0     C56011  -0.162   0.691   9.726  0.0061  0.1272  0.1317
  425MOL0    Cl56012  -0.175   0.859   9.670  0.4458 -0.3811 -0.0549
  425MOL0     C56013   0.995   0.706   9.849 -1.2444 -0.3406 -0.0741
  425MOL0     C56014   1.129   0.751   9.847 -0.2326 -0.6431 -0.2901
  425MOL0     O56015   1.416   0.711   9.565 -0.8682  0.1021  0.6329
  425MOL0     C56016   1.564   0.989   9.735  0.1414 -0.5390 -0.4232
  425MOL0     C56017   1.683   1.074   9.733  0.2473  0.5500  1.0215
  425MOL0     N56018   2.375   1.236   9.493  0.4364 -0.0591 -0.4342
  425MOL0     N56019   2.490   1.239   9.548 -0.5864  0.2398 -0.8093
  425MOL0     C56020   3.513   1.998   9.515 -0.8015 -0.0406  0.3322
  425MOL0     C56021   3.604   2.090   9.469  0.2708 -0.7594 -0.0953
  425MOL0     C56022   4.010   2.329   9.372 -0.2461  0.2663  0.5064
  425MOL0     C56023   3.963   2.371   9.251  0.0552  0.3844  0.3797
  425MOL0     C56024   4.035   2.462   9.173 -0.2451 -0.8747 -1.1297
  425MOL0     C56025   4.164   2.505   9.209  0.5151  0.7485  0.5037
  425MOL0     O56026   4.232   2.588   9.126 -0.2179 -0.3492 -0.3267
  425MOL0     C56027   4.374   2.602   9.146  0.2440 -0.3236  0.5192
  425MOL0     C56028   4.448   2.471   9.110  0.1851  0.1482  0.2499
  425MOL0     C56029   4.601   2.480   9.088  0.1508  0.3813 -0.2665
  425MOL0     C56030   4.661   2.553   8.964  0.3037  0.0097  0.3475
  425MOL0     C56031   4.666   2.457   8.851  0.4993 -0.1842 -0.5024
  425MOL0     C56032   4.650   2.388   8.752 -0.6669  0.5144 -0.0808
  425MOL0     C56033   4.206   2.470   9.335 -0.4893 -0.1238 -0.1635
  425MOL0     C56034   4.134   2.383   9.414 -0.8935  0.4704 -0.2546
  425MOL0     H56035   3.891   1.966   9.574 -0.7034 -3.4834  0.0597
  425MOL0     H56036   3.745   1.794   9.668  1.3560 -1.2625 -2.1327
  425MOL0     H56037   3.571   1.660   9.752  0.8109  0.1091 -0.0120
  425MOL0     H56038   3.561   1.619   9.579 -1.4145  2.3425 -1.9859
  425MOL0     H56039   3.333   1.652   9.786 -2.8466 -1.7285  0.8042
  425MOL0     H56040   3.394   1.500   9.719  0.0919  0.6505 -0.2299
  425MOL0     H56041   3.314   1.524   9.510  2.2715  0.3164  0.7928
  425MOL0     H56042   3.278   1.700   9.523 -1.1698  0.1737  0.1134
  425MOL0     H56043   3.138   1.480   9.695 -2.5147 -2.1205 -1.1113
  425MOL0     H56044   3.097   1.650   9.694 -0.8941  1.2753 -1.5430
  425MOL0     H56045   3.063   1.431   9.472 -0.2422 -1.7704  2.2439
  425MOL0     H56046   3.015   1.601   9.446 -3.6119 -1.0123 -1.5088
  425MOL0     H56047   2.873   1.558   9.677 -1.3710  1.2150 -1.6363
  425MOL0     H56048   2.929   1.401   9.668 -0.4365  0.6905  0.2539
  425MOL0     H56049   2.736   1.549   9.469  2.6092  0.2451 -1.8376
  425MOL0     H56050   2.776   1.393   9.433 -0.2716  2.2800 -1.1577
  425MOL0     H56051   2.620   1.496   9.667 -0.5320  0.3067 -3.6789
  425MOL0     H56052   2.692   1.332   9.681 -0.1285 -0.2009  0.1531
  425MOL0     H56053   2.460   1.556   9.461 -1.1803 -0.5673 -0.9315
  425MOL0     H56054   2.245   1.456   9.292  1.9562 -0.8048  1.0967
  425MOL0     H56055   2.186   1.500   9.462  0.0635 -1.2285  1.0132
  425MOL0     H56056   2.145   1.228   9.339  0.4052 -1.2997  1.8874
  425MOL0     H56057   2.028   1.365   9.309  0.9091  2.5409  1.4270
  425MOL0     H56058   2.108   1.278   9.585  0.4513  3.2858  1.2250
  425MOL0     H56059   1.977   1.381   9.534  0.6696  0.6613 -2.3226
  425MOL0     H56060   2.007   1.081   9.481 -3.3877 -1.8138 -0.7870
  425MOL0     H56061   1.877   1.185   9.407  0.8982  1.3860 -1.2290
  425MOL0     H56062   1.823   0.944   9.456 -0.8987  2.7435 -0.4856
  425MOL0     H56063   1.649   0.802   9.469  0.7032  0.2408  1.1813
  425MOL0     H56064   1.187   0.785   9.522  1.5829  3.2039  1.7054
  425MOL0     H56065   0.953   0.725   9.506 -0.6337  0.9930  0.6414
  425MOL0     H56066   0.766   0.842   9.812 -0.3224 -0.0108 -0.6611
  425MOL0     H56067   0.703   0.701   9.899  1.2936 -0.2722  0.5757
  425MOL0     H56068   0.613   0.741   9.612 -0.3943 -1.5731 -0.1476
  425MOL0     H56069   0.563   0.857   9.730  1.6926 -0.5340 -0.3363
  425MOL0     H56070   0.471   0.698   9.886 -1.2584 -2.6053  0.5384
  425MOL0     H56071   0.505   0.565   9.768  3.1349  1.1589 -1.7224
  425MOL0     H56072   0.338   0.815   9.701  2.0668  0.7221  4.2837
  425MOL0     H56073   0.349   0.664   9.614  1.4023  1.6290 -0.3436
  425MOL0     H56074   0.213   0.680   9.887 -3.1438 -1.6826 -0.5053
  425MOL0     H56075   0.222   0.541   9.774  0.1509 -0.5873  1.8624
  425MOL0     H56076   0.074   0.667   9.619  1.9270 -1.9808  0.2182
  425MOL0     H56077   0.095   0.811   9.712  0.5238  0.1790 -0.8262
  425MOL0     H56078  -0.035   0.571   9.840  1.4067  0.7907 -0.5714
  425MOL0     H56079  -0.049   0.733   9.899  0.8910 -0.8354  0.9493
  425MOL0     H56080  -0.246   0.655   9.785  0.0838 -2.2689 -1.0777
  425MOL0     H56081  -0.161   0.624   9.639 -0.2279 -0.9971  0.9693
  425MOL0     H56082   0.947   0.675   9.942  0.7030  0.6353  1.3274
  425MOL0     H56083   1.185   0.770   9.938 -2.3757  1.1325  0.7405
  425MOL0     H56084   1.494   0.986   9.817  0.1944 -2.5894 -0.3929
  425MOL0     H56085   1.713   1.157   9.797 -0.4232  1.2118  0.4918
  425MOL0     H56086   3.410   2.002   9.482 -1.1684  0.9335  1.5545
  425MOL0     H56087   3.566   2.173   9.410  3.0530 -0.1521 -1.2093
  425MOL0     H56088   3.868   2.336   9.213  0.9641 -2.7916  0.7393
  425MOL0     H56089   3.987   2.495   9.082  0.9232  3.2304 -0.4614
  425MOL0     H56090   4.413   2.639   9.241  1.7250 -0.4941  0.0144
  425MOL0     H56091   4.405   2.678   9.074  1.0961 -1.1708 -0.0414
  425MOL0     H56092   4.429   2.400   9.191  0.9559  0.2463  0.5260
  425MOL0     H56093   4.408   2.424   9.020  0.8483  2.0270 -1.0994
  425MOL0     H56094   4.640   2.378   9.094  0.3164  0.4505 -0.1550
  425MOL0     H56095   4.634   2.541   9.173  1.4275  0.7552 -0.9897
  425MOL0     H56096   4.599   2.641   8.942 -2.6217 -1.8646  0.6226
  425MOL0     H56097   4.759   2.589   8.996 -0.0902 -1.3260  3.2980
  425MOL0     H56098   4.633   2.327   8.665  0.7938  1.6263 -1.1777
  425MOL0     H56099   4.304   2.502   9.372 -0.6046 -0.8596  0.8042
  425MOL0     H56100   4.176   2.365   9.512 -2.1830  0.7218  0.3720
  426MOL0     O56101   9.400   6.122   6.070 -0.5060  0.0422  0.1721
  426MOL0     C56102   9.490   6.188   6.012  0.0092  0.2700  0.2016
  426MOL0     O56103   9.473   6.272   5.908 -0.1876  0.4028  0.9264
  426MOL0     C56104   9.344   6.290   5.860  0.2653 -0.1731  0.7372
  426MOL0     C56105   9.328   6.278   5.721 -0.8495 -0.0372 -1.1803
  426MOL0     C56106   9.207   6.308   5.664  0.3854  0.9022  0.3298
  426MOL0     C56107   9.088   6.336   5.735 -0.3041 -0.6724  0.6856
  426MOL0     O56108   8.964   6.367   5.675 -0.7889  0.0767 -0.3788
  426MOL0     C56109   8.871   6.438   5.749  0.5046 -0.4871 -0.4215
  426MOL0     C56110   8.788   6.512   5.643  0.0351 -0.7081  0.7036
  426MOL0     C56111   8.673   6.433   5.568  0.0487 -0.0532  0.0588
  426MOL0     C56112   8.633   6.528   5.456  0.2769  1.1510 -0.2677
  426MOL0     C56113   8.518   6.468   5.378 -0.1863  1.0858 -0.0151
  426MOL0     C56114   8.483   6.546   5.261 -0.2885 -0.6535 -0.3176
  426MOL0     C56115   8.414   6.676   5.290  0.0996  0.1906 -0.4059
  426MOL0     C56116   8.263   6.680   5.336  0.3998  0.6471  0.0451
  426MOL0     N56117   8.170   6.673   5.215 -0.7450  0.0588 -0.4552
  426MOL0     C56118   8.167   6.756   5.107  0.7863 -0.1846 -0.1544
  426MOL0     C56119   8.057   6.737   5.038  0.4422  0.1171  0.3524
  426MOL0     C56120   8.012   6.809   4.911 -0.3500 -0.1004 -0.3911
  426MOL0     C56121   7.912   6.916   4.945 -0.4660  0.1061  0.9590
  426MOL0     C56122   7.903   7.011   4.818 -0.3110 -0.3356 -0.3491
  426MOL0     C56123   7.772   7.103   4.818 -0.0914  0.5169 -0.9722
  426MOL0     O56124   7.718   7.117   4.682 -0.2122  0.8655 -0.1839
  426MOL0     C56125   7.599   7.048   4.659  0.1890  0.6580 -0.2415
  426MOL0     C56126   7.588   6.912   4.710 -0.0234 -1.1451  0.4745
  426MOL0     C56127   7.481   6.832   4.677 -0.8450 -0.2037 -0.7506
  426MOL0     C56128   7.379   6.883   4.598 -0.2807  0.1398  0.3848
  426MOL0     C56129   7.260   6.805   4.548  0.1156  0.5587  0.8050
  426MOL0     O56130   7.184   6.867   4.458  0.0995  0.4804  0.4652
  426MOL0     C56131   7.085   6.800   4.386 -0.9912 -0.1390  0.2030
  426MOL0     C56132   7.076   6.662   4.362  0.1950  0.0727  0.0822
  426MOL0     C56133   6.965   6.622   4.285 -0.1356  0.2927 -0.1884
  426MOL0     C56134   6.864   6.712   4.243  0.5084  0.1651  0.5213
  426MOL0     O56135   6.762   6.660   4.174  0.2345 -0.4684  0.1636
  426MOL0     C56136   6.632   6.702   4.219 -0.1728  0.9382 -0.7530
  426MOL0     C56137   6.533   6.599   4.182  0.4129  0.4599  0.9943
  426MOL0     C56138   6.407   6.590   4.269  0.1865  0.5060 -0.3796
  426MOL0     C56139   6.329   6.468   4.236  0.3978  0.1589  0.3311
  426MOL0     C56140   6.205   6.438   4.334 -0.5298 -0.1754 -0.7653
  426MOL0     C56141   6.111   6.334   4.278  0.9557  0.3382  0.3987
  426MOL0     C56142   5.994   6.303   4.372 -0.7022 -0.2558 -0.0375
  426MOL0     C56143   5.888   6.400   4.370 -0.0614  0.0835 -0.5666
  426MOL0    Cl56144   5.779   6.343   4.501 -0.2140 -0.1504 -0.0541
  426MOL0     C56145   6.879   6.848   4.273  0.3425 -0.1245  1.5050
  426MOL0     C56146   6.987   6.891   4.339 -0.4228 -0.8029  0.8401
  426MOL0     O56147   7.253   6.691   4.590  0.1082  0.5826 -0.1043
  426MOL0     C56148   7.389   7.010   4.545  0.2778  0.1877  0.0273
  426MOL0     C56149   7.500   7.088   4.573  0.5687 -0.1216 -0.6336
  426MOL0     N56150   7.996   6.635   5.098  0.3269 -1.1499  0.0365
  426MOL0     N56151   8.061   6.587   5.204  0.3157 -1.0721 -0.0941
  426MOL0     C56152   9.103   6.346   5.874 -0.0347 -0.2165 -0.1678
  426MOL0     C56153   9.231   6.330   5.932 -0.1437  0.5387 -0.5522
  426MOL0     C56154   9.630   6.160   6.049 -0.4930 -0.7256  0.0005
  426MOL0     C56155   9.734   6.238   5.994 -0.7082 -0.2236  0.3589
  426MOL0     C56156   9.877   6.202   6.017  0.0363  0.0681 -0.2025
  426MOL0     C56157   9.911   6.098   6.105 -0.0522 -0.4127 -0.2006
  426MOL0     O56158  10.040   6.070   6.146  0.2256  0.5698 -0.1971
  426MOL0     C56159  10.159   6.133   6.100 -0.8282 -0.1976 -0.1490
  426MOL0     C56160  10.263   6.093   6.197  0.4620  0.7760  0.5143
  426MOL0     C56161  10.403   6.140   6.166 -0.2947 -0.3951  0.2353
  426MOL0     C56162  10.445   6.125   6.013  0.0830 -0.4873 -0.1469
  426MOL0     C56163  10.589   6.145   6.002  0.9454  0.5615 -0.8943
  426MOL0     C56164  10.708   6.145   6.019 -0.0103 -0.3187 -0.0963
  426MOL0     C56165   9.804   6.022   6.154  0.2485 -0.3630  0.1944
  426MOL0     C56166   9.669   6.048   6.134 -0.0868  0.3306 -0.1178
  426MOL0     H56167   9.403   6.246   5.650  0.6978  3.2325 -1.2014
  426MOL0     H56168   9.206   6.292   5.556  0.6566 -2.3391  0.7035
  426MOL0     H56169   8.918   6.516   5.811 -0.6470  0.2736 -0.4841
  426MOL0     H56170   8.826   6.367   5.820  1.0285 -1.8871 -1.4389
  426MOL0     H56171   8.852   6.569   5.575 -1.1159 -0.2812 -0.0428
  426MOL0     H56172   8.734   6.596   5.689  0.2290  0.5498 -1.2664
  426MOL0     H56173   8.588   6.422   5.636  0.7995  0.0456  1.0256
  426MOL0     H56174   8.700   6.334   5.529  0.4375 -0.4837  1.3724
  426MOL0     H56175   8.596   6.621   5.500 -3.2388  0.3434 -1.1671
  426MOL0     H56176   8.710   6.545   5.380  0.4345 -0.4289 -0.5049
  426MOL0     H56177   8.435   6.447   5.445  0.0002 -0.8024 -0.3345
  426MOL0     H56178   8.554   6.367   5.356 -1.8470  0.6950 -1.0947
  426MOL0     H56179   8.430   6.477   5.195 -1.3866  0.7681 -0.9776
  426MOL0     H56180   8.564   6.579   5.197  0.4281  0.0425  0.9090
  426MOL0     H56181   8.467   6.719   5.375 -3.0768  0.4035  1.6402
  426MOL0     H56182   8.426   6.736   5.199 -2.4102 -0.5784 -1.3187
  426MOL0     H56183   8.239   6.770   5.392 -0.6076 -1.9864  4.3657
  426MOL0     H56184   8.240   6.599   5.406 -0.2071 -0.6358 -1.5832
  426MOL0     H56185   8.240   6.832   5.079  1.0527 -0.6016 -0.5901
  426MOL0     H56186   7.983   6.741   4.830 -1.3005 -1.2851  0.8982
  426MOL0     H56187   8.107   6.858   4.891  0.6982 -0.4968  2.9943
  426MOL0     H56188   7.954   6.976   5.026  1.8477  2.1519 -1.5754
  426MOL0     H56189   7.816   6.871   4.971 -0.7286 -1.2320 -1.9039
  426MOL0     H56190   7.993   7.073   4.822 -0.0041 -0.7611 -0.5386
  426MOL0     H56191   7.908   6.958   4.723 -1.4713  1.7756 -1.6589
  426MOL0     H56192   7.800   7.199   4.860  2.7472 -1.0608  1.0648
  426MOL0     H56193   7.693   7.069   4.885  2.2376 -0.3773  1.4885
  426MOL0     H56194   7.672   6.872   4.766  0.1651 -0.3470  0.7779
  426MOL0     H56195   7.478   6.737   4.729  1.1522  1.2717  2.4010
  426MOL0     H56196   7.156   6.599   4.397  1.0265  2.1158  2.0653
  426MOL0     H56197   6.965   6.517   4.257  0.0776  0.4478 -0.8028
  426MOL0     H56198   6.608   6.801   4.180 -1.4132 -0.3185 -3.4923
  426MOL0     H56199   6.628   6.709   4.328  2.9795 -0.5665 -0.4314
  426MOL0     H56200   6.581   6.501   4.194  0.2589  0.1276 -0.7946
  426MOL0     H56201   6.518   6.606   4.074  2.5404  0.9939  0.6710
  426MOL0     H56202   6.351   6.683   4.279  1.7240  1.2340  4.4798
  426MOL0     H56203   6.430   6.577   4.376  2.3552 -0.9263 -0.9423
  426MOL0     H56204   6.292   6.482   4.134 -0.8912 -2.0185  0.4441
  426MOL0     H56205   6.390   6.378   4.223  1.2958  0.8773 -0.5831
  426MOL0     H56206   6.148   6.531   4.342 -1.5367 -0.7789 -0.8390
  426MOL0     H56207   6.244   6.415   4.434 -0.2077 -1.8336 -1.2360
  426MOL0     H56208   6.161   6.238   4.269 -0.3769 -0.3752  0.3474
  426MOL0     H56209   6.065   6.365   4.184  1.7246  0.5715  0.0910
  426MOL0     H56210   5.947   6.212   4.334 -2.7470  0.3735  0.8492
  426MOL0     H56211   6.035   6.273   4.469 -0.2585  0.5360  0.0305
  426MOL0     H56212   5.830   6.405   4.277  0.8520  0.2100 -1.1357
  426MOL0     H56213   5.933   6.495   4.399  0.9092 -0.9543  1.5051
  426MOL0     H56214   6.808   6.919   4.230 -0.2750 -1.1227  0.8304
  426MOL0     H56215   7.003   6.992   4.375 -2.4426 -0.3349  0.5279
  426MOL0     H56216   7.311   7.058   4.486  1.1019  0.1698 -1.1140
  426MOL0     H56217   7.505   7.184   4.522  1.3468 -0.7020 -1.6977
  426MOL0     H56218   9.020   6.372   5.938  1.5258  0.3431  1.7309
  426MOL0     H56219   9.237   6.356   6.037 -0.4617  0.7684 -0.5924
  426MOL0     H56220   9.711   6.327   5.936 -0.2777 -0.1593  0.2833
  426MOL0     H56221   9.956   6.261   5.972  1.8743 -1.7600  0.4481
  426MOL0     H56222  10.161   6.242   6.091  1.0345 -0.1893  0.1119
  426MOL0     H56223  10.185   6.102   5.998  3.7743  3.3377 -0.4055
  426MOL0     H56224  10.222   6.132   6.291 -3.1102 -1.5367  0.1046
  426MOL0     H56225  10.265   5.985   6.213 -1.9157  0.7990  1.4253
  426MOL0     H56226  10.471   6.086   6.233  1.3494 -2.2276 -2.7097
  426MOL0     H56227  10.408   6.240   6.211  2.5177  0.3101 -1.4171
  426MOL0     H56228  10.417   6.027   5.974 -1.1613  0.1093 -0.8184
  426MOL0     H56229  10.384   6.197   5.957  1.9440  0.4169 -1.1288
  426MOL0     H56230  10.812   6.139   6.045 -0.5380 -0.3388  2.2963
  426MOL0     H56231   9.822   5.939   6.223 -3.0903 -1.4714 -0.0720
  426MOL0     H56232   9.596   5.974   6.163  2.1697 -1.1315  2.1762
  427MOL0     O56233   9.319   6.586   4.008 -0.3306  0.2510  0.5041
  427MOL0     C56234   9.268   6.480   4.026 -0.1933 -0.9750 -0.1759
  427MOL0     O56235   9.324   6.382   4.104  0.0987  0.2556  0.4106
  427MOL0     C56236   9.437   6.401   4.178  0.4319 -0.3814 -0.1281
  427MOL0     C56237   9.454   6.503   4.269 -0.0478 -0.3188  0.1132
  427MOL0     C56238   9.556   6.506   4.366  0.1717  0.3175  0.5287
  427MOL0     C56239   9.659   6.412   4.373  0.2642  0.3012 -0.3537
  427MOL0     O56240   9.749   6.430   4.478 -0.0701  0.1032 -0.4465
  427MOL0     C56241   9.843   6.329   4.482 -0.8577 -0.0669 -0.6053
  427MOL0     C56242   9.956   6.367   4.577 -0.4699 -0.6475  0.0763
  427MOL0     C56243  10.040   6.233   4.602 -0.1296  0.2050 -0.4271
  427MOL0     C56244  10.178   6.242   4.662  0.1949  0.2274 -0.0977
  427MOL0     C56245  10.239   6.100   4.668 -0.4480  0.1472 -0.3227
  427MOL0     C56246  10.147   5.984   4.708 -0.0121  0.8131 -0.7940
  427MOL0     C56247  10.116   5.995   4.854 -0.7462  0.6391 -0.2197
  427MOL0     C56248  10.051   5.865   4.910 -0.2104  0.6713 -0.9119
  427MOL0     N56249   9.926   5.820   4.832  0.5883 -0.2749 -0.4239
  427MOL0     C56250   9.920   5.749   4.717 -0.3594  0.0810  0.4791
  427MOL0     C56251   9.793   5.728   4.695 -0.4519 -0.2194 -0.1739
  427MOL0     C56252   9.734   5.641   4.587  0.3815 -0.0229  0.2331
  427MOL0     C56253   9.590   5.617   4.581 -0.3643 -0.1750  0.0350
  427MOL0     C56254   9.530   5.587   4.438 -0.7269 -0.3273  0.1712
  427MOL0     C56255   9.380   5.573   4.438  0.1660 -0.3758 -0.2348
  427MOL0     O56256   9.348   5.513   4.312  0.2929  0.1119 -0.3730
  427MOL0     C56257   9.213   5.503   4.272 -0.2837 -0.6943  0.1989
  427MOL0     C56258   9.188   5.461   4.141 -0.5724 -0.6629 -0.7010
  427MOL0     C56259   9.057   5.438   4.093 -0.0966 -0.4421  0.3379
  427MOL0     C56260   8.946   5.476   4.173 -0.0337 -0.4190  0.4510
  427MOL0     C56261   8.804   5.452   4.130  0.3055 -0.1951 -0.5221
  427MOL0     O56262   8.711   5.486   4.220 -0.1854 -0.9561 -0.0407
  427MOL0     C56263   8.578   5.484   4.194 -0.0971 -0.6701  0.7932
  427MOL0     C56264   8.510   5.420   4.085 -0.1394  0.0195 -0.6292
  427MOL0     C56265   8.373   5.425   4.076  0.8065 -0.0458  0.2781
  427MOL0     C56266   8.300   5.502   4.159  0.2261  0.4358  0.1712
  427MOL0     O56267   8.168   5.500   4.138  0.0635 -0.2735 -0.0203
  427MOL0     C56268   8.095   5.623   4.179  0.1841  0.5342  0.1093
  427MOL0     C56269   8.105   5.722   4.064 -1.0214 -0.2083  1.1606
  427MOL0     C56270   8.037   5.693   3.932  0.5407 -0.8641  0.4075
  427MOL0     C56271   7.880   5.694   3.940 -0.6594 -0.2023  0.2101
  427MOL0     C56272   7.819   5.550   3.945  0.0377 -0.0712  1.1112
  427MOL0     C56273   7.669   5.555   3.906 -0.5514 -0.2454 -0.2378
  427MOL0     C56274   7.598   5.417   3.895  0.1628 -1.2979 -0.0585
  427MOL0     C56275   7.681   5.326   3.805  0.3133  1.4372  0.1898
  427MOL0    Cl56276   7.702   5.380   3.637  0.0959  0.5460  0.1533
  427MOL0     C56277   8.360   5.565   4.274 -0.5618  0.0847 -0.0224
  427MOL0     C56278   8.499   5.554   4.286 -0.5457  0.9667 -0.2475
  427MOL0     O56279   8.779   5.410   4.015  0.0282 -0.2888 -0.0673
  427MOL0     C56280   8.971   5.525   4.302 -0.9197 -0.3292 -0.0436
  427MOL0     C56281   9.107   5.539   4.354  0.1861 -0.1359  0.9859
  427MOL0     N56282   9.716   5.790   4.800  0.5636  0.8399  0.3059
  427MOL0     N56283   9.801   5.839   4.880 -0.0108  0.2705 -0.8300
  427MOL0     C56284   9.643   6.302   4.278 -0.1747  0.2650 -0.5807
  427MOL0     C56285   9.532   6.294   4.194  0.1887 -0.2500  0.3495
  427MOL0     C56286   9.143   6.443   3.955 -0.2263  0.2256  0.1980
  427MOL0     C56287   9.073   6.523   3.860 -0.1600 -0.4911 -0.4757
  427MOL0     C56288   8.961   6.463   3.801  0.0252  0.2747  0.6932
  427MOL0     C56289   8.909   6.344   3.841  1.2025 -0.2632  0.4719
  427MOL0     O56290   8.799   6.318   3.777 -0.8240  0.6549 -0.2110
  427MOL0     C56291   8.724   6.206   3.830 -0.1239 -1.1511  0.3328
  427MOL0     C56292   8.601   6.184   3.737 -0.3991 -0.4862 -0.2943
  427MOL0     C56293   8.511   6.306   3.749  1.1231  0.7110  0.5123
  427MOL0     C56294   8.386   6.270   3.659 -0.5133 -0.9220  0.6867
  427MOL0     C56295   8.323   6.393   3.621  0.1161 -0.3030  0.0974
  427MOL0     C56296   8.295   6.509   3.582 -0.1414  0.0201  0.1283
  427MOL0     C56297   8.983   6.267   3.926  0.9854 -0.3459 -0.4345
  427MOL0     C56298   9.108   6.309   3.975  0.1927  0.0078  0.0522
  427MOL0     H56299   9.384   6.585   4.270 -2.1365 -1.8673 -2.9807
  427MOL0     H56300   9.565   6.592   4.432  1.6106 -0.9087  2.0139
  427MOL0     H56301   9.878   6.308   4.380 -3.3249  0.8780 -1.7112
  427MOL0     H56302   9.784   6.242   4.510 -0.6577 -0.4127 -1.2215
  427MOL0     H56303   9.918   6.407   4.672  2.2147 -1.1385  1.4572
  427MOL0     H56304  10.022   6.444   4.536 -2.0075  1.8034  1.8752
  427MOL0     H56305  10.041   6.178   4.507 -2.0549  0.2259 -0.4968
  427MOL0     H56306   9.978   6.173   4.669 -2.0129 -1.2944 -3.2779
  427MOL0     H56307  10.245   6.297   4.596 -1.5922 -0.8062 -2.9147
  427MOL0     H56308  10.176   6.275   4.767 -2.9504 -1.4986  0.4964
  427MOL0     H56309  10.322   6.106   4.738  0.6708  1.8848 -1.7391
  427MOL0     H56310  10.276   6.070   4.570 -0.5649 -0.4047 -0.2031
  427MOL0     H56311  10.205   5.893   4.690  0.4146  0.8153  0.4518
  427MOL0     H56312  10.062   5.978   4.640  0.9344 -1.5687 -1.8484
  427MOL0     H56313  10.219   5.990   4.891 -0.4532 -1.4507 -1.1609
  427MOL0     H56314  10.072   6.091   4.882 -1.0898  0.7952 -1.2752
  427MOL0     H56315  10.020   5.868   5.015  0.2553 -2.9365 -0.5259
  427MOL0     H56316  10.123   5.783   4.903 -0.7990  0.0565 -0.0692
  427MOL0     H56317  10.002   5.713   4.655 -0.0376  0.9735  0.3673
  427MOL0     H56318   9.780   5.542   4.597 -2.0902 -1.2268  0.4787
  427MOL0     H56319   9.762   5.688   4.492 -4.2655  0.1343 -1.2931
  427MOL0     H56320   9.527   5.699   4.615 -0.8798 -0.1060 -1.0403
  427MOL0     H56321   9.566   5.537   4.651 -0.9193 -0.5047 -0.5203
  427MOL0     H56322   9.546   5.671   4.370 -3.6231 -0.3745 -0.7038
  427MOL0     H56323   9.577   5.499   4.394  1.8520  1.9061 -1.9669
  427MOL0     H56324   9.337   5.674   4.440  0.5777 -0.1061 -2.4046
  427MOL0     H56325   9.356   5.506   4.521 -2.4492 -0.0868 -0.6751
  427MOL0     H56326   9.273   5.444   4.076  0.0060  2.8982 -1.0294
  427MOL0     H56327   9.048   5.390   3.996 -0.7942 -0.1253  0.2426
  427MOL0     H56328   8.565   5.359   4.014  2.3924 -1.2993  2.2673
  427MOL0     H56329   8.315   5.373   4.000 -0.1343 -1.1064  1.6669
  427MOL0     H56330   8.143   5.671   4.265  0.9294  0.7395 -0.4140
  427MOL0     H56331   7.994   5.588   4.202  0.8405 -2.1097 -0.6354
  427MOL0     H56332   8.213   5.737   4.049 -1.4067  2.1908  0.2956
  427MOL0     H56333   8.070   5.817   4.106  1.4806  1.2030  0.2500
  427MOL0     H56334   8.062   5.600   3.881 -1.1282 -1.8758  1.3371
  427MOL0     H56335   8.066   5.776   3.866  0.2891 -0.7767  0.4063
  427MOL0     H56336   7.848   5.757   4.023  1.2736  0.5518  0.4336
  427MOL0     H56337   7.852   5.755   3.854 -0.4223  0.2841  0.4732
  427MOL0     H56338   7.827   5.503   4.044 -2.8133  2.2021  2.5654
  427MOL0     H56339   7.872   5.493   3.868  0.8065 -0.1795  1.7092
  427MOL0     H56340   7.669   5.604   3.808  3.3313  1.9840  0.6578
  427MOL0     H56341   7.616   5.620   3.977 -1.3401 -0.2765 -0.7900
  427MOL0     H56342   7.597   5.380   3.998  0.6024  0.5983  0.6678
  427MOL0     H56343   7.495   5.428   3.861 -0.2487 -1.4717  1.0774
  427MOL0     H56344   7.636   5.226   3.798  1.9846  0.7641 -2.5564
  427MOL0     H56345   7.783   5.302   3.838 -0.5357  0.8262  2.6001
  427MOL0     H56346   8.304   5.616   4.352  0.5950  0.4024  0.6175
  427MOL0     H56347   8.562   5.598   4.362  2.0633  0.3410 -1.9126
  427MOL0     H56348   8.894   5.564   4.368 -0.9426  2.4281 -1.5320
  427MOL0     H56349   9.121   5.593   4.448 -1.9155  3.3745 -0.5026
  427MOL0     H56350   9.700   6.211   4.271 -1.5817 -0.7078  0.0788
  427MOL0     H56351   9.526   6.207   4.129  3.9955 -1.6887  1.5907
  427MOL0     H56352   9.094   6.625   3.831  1.4170  0.1406  2.5526
  427MOL0     H56353   8.912   6.513   3.718 -1.5605 -0.4430  1.1362
  427MOL0     H56354   8.685   6.216   3.931 -0.4871  0.8737  0.0224
  427MOL0     H56355   8.777   6.110   3.833  1.7865 -0.1416  0.2187
  427MOL0     H56356   8.646   6.156   3.642  1.7231 -5.4474  1.8479
  427MOL0     H56357   8.552   6.094   3.776  2.1686 -1.5589  0.6659
  427MOL0     H56358   8.566   6.395   3.717  1.2003  0.0178 -1.4192
  427MOL0     H56359   8.485   6.311   3.855  1.0897 -0.1565  0.5505
  427MOL0     H56360   8.411   6.218   3.566  2.2405 -1.8702  1.8534
  427MOL0     H56361   8.320   6.217   3.729 -0.8747 -0.8216  0.4261
  427MOL0     H56362   8.276   6.613   3.565  2.0535  0.6395  1.1160
  427MOL0     H56363   8.961   6.167   3.961  0.7504  0.0734  0.6391
  427MOL0     H56364   9.151   6.236   4.043 -1.3394 -0.7529  0.2680
  428MOL0     O56365   5.783   8.053   0.726 -0.3770 -0.0692 -1.2662
  428MOL0     C56366   5.788   8.061   0.847  1.0443 -0.9496 -1.0377
  428MOL0     O56367   5.683   8.077   0.941  0.1078  0.7138 -0.2567
  428MOL0     C56368   5.543   8.069   0.912 -0.0232 -0.2708 -1.6028
  428MOL0     C56369   5.463   8.111   1.021 -0.5295 -0.0987  0.0978
  428MOL0     C56370   5.324   8.104   1.014 -0.1427 -0.1919 -0.0335
  428MOL0     C56371   5.266   8.063   0.894  0.3403  0.1000 -0.1137
  428MOL0     O56372   5.134   8.060   0.881  0.6448 -0.1871  0.2362
  428MOL0     C56373   5.049   8.127   0.980 -0.1411  0.8158  0.2246
  428MOL0     C56374   4.901   8.104   0.944  1.4133  0.5247  0.5574
  428MOL0     C56375   4.808   8.168   1.044  0.5367 -0.0810  0.1183
  428MOL0     C56376   4.674   8.095   1.037 -0.6255 -0.3516 -0.1538
  428MOL0     C56377   4.586   8.148   1.143  0.1859 -0.6981 -0.9373
  428MOL0     C56378   4.458   8.072   1.150  0.3105  0.5856  0.4609
  428MOL0     C56379   4.371   8.097   1.021 -0.5162 -1.0170  0.1008
  428MOL0     C56380   4.231   8.051   1.046  1.4979 -0.3386  0.4071
  428MOL0     N56381   4.193   7.906   1.047 -0.1918 -0.4465 -0.3088
  428MOL0     C56382   4.238   7.820   0.951 -0.2248  0.8396 -0.5046
  428MOL0     C56383   4.231   7.697   1.008  0.4825 -0.3359 -0.6445
  428MOL0     C56384   4.270   7.559   0.951  0.2167 -0.0325 -0.2965
  428MOL0     C56385   4.429   7.537   0.969 -0.1945 -0.2948 -0.1771
  428MOL0     C56386   4.482   7.516   1.109 -0.1711 -0.1784  0.0228
  428MOL0     C56387   4.537   7.645   1.158 -0.6833 -0.5953 -0.4596
  428MOL0     O56388   4.654   7.700   1.092 -0.0919 -0.1164 -0.0951
  428MOL0     C56389   4.778   7.646   1.115  0.6313 -0.7139  0.8451
  428MOL0     C56390   4.817   7.565   1.222  0.6142 -0.0006 -0.6059
  428MOL0     C56391   4.952   7.532   1.252 -0.5918 -0.6114  0.4226
  428MOL0     C56392   5.049   7.581   1.154  0.4596 -0.1352 -1.1813
  428MOL0     C56393   5.198   7.561   1.176 -0.4311  0.5568 -0.1535
  428MOL0     O56394   5.280   7.601   1.074  0.4658  0.1891  0.5132
  428MOL0     C56395   5.416   7.598   1.084 -0.7338  0.3080  0.6194
  428MOL0     C56396   5.485   7.722   1.081  0.2094 -0.5003  0.2020
  428MOL0     C56397   5.625   7.715   1.082  0.8241 -0.3773 -0.0096
  428MOL0     C56398   5.700   7.596   1.093  0.4229  0.4173 -0.6221
  428MOL0     O56399   5.836   7.583   1.106 -0.0325 -0.3963  0.4119
  428MOL0     C56400   5.914   7.691   1.055  0.4045 -0.1685  1.1482
  428MOL0     C56401   6.048   7.625   1.031 -1.0615  0.0922 -0.4286
  428MOL0     C56402   6.118   7.583   1.168  0.3185 -0.4818 -0.6695
  428MOL0     C56403   6.258   7.512   1.133 -0.2422 -0.2990 -0.0178
  428MOL0     C56404   6.331   7.453   1.245  0.3666  0.2806 -0.0064
  428MOL0     C56405   6.358   7.555   1.357  0.6260  0.2527 -0.2147
  428MOL0     C56406   6.465   7.488   1.439 -0.9406  0.0874  0.0363
  428MOL0     C56407   6.519   7.577   1.560  0.0259 -0.5010  0.1753
  428MOL0    Cl56408   6.382   7.602   1.675 -0.4076 -0.0684  0.0995
  428MOL0     C56409   5.622   7.474   1.097 -0.4752 -0.1155 -0.5444
  428MOL0     C56410   5.483   7.478   1.100 -0.0665  0.3548  0.2388
  428MOL0     O56411   5.234   7.516   1.284 -0.7173  0.2401  0.2383
  428MOL0     C56412   5.012   7.659   1.046  0.0904  0.2987 -0.5158
  428MOL0     C56413   4.877   7.690   1.031  0.1704 -0.1981 -0.0146
  428MOL0     N56414   4.180   7.705   1.140 -0.0494 -0.2949  0.6515
  428MOL0     N56415   4.158   7.836   1.159 -0.9804 -0.3812 -1.0295
  428MOL0     C56416   5.345   8.029   0.781 -0.1566  0.1224 -0.2407
  428MOL0     C56417   5.483   8.030   0.796  1.1463  0.4220  0.0169
  428MOL0     C56418   5.926   8.055   0.901 -0.5016  0.4718  0.0052
  428MOL0     C56419   6.044   8.073   0.822 -0.1880 -0.8407  0.3899
  428MOL0     C56420   6.174   8.048   0.872  0.5477  0.0742  0.0844
  428MOL0     C56421   6.195   7.995   0.998  0.7508 -0.8652 -0.1147
  428MOL0     O56422   6.314   7.952   1.029 -1.1732  0.2629  0.0335
  428MOL0     C56423   6.348   7.908   1.161 -0.6659  0.5351  0.4851
  428MOL0     C56424   6.383   8.035   1.247  0.0647  0.1063  0.4264
  428MOL0     C56425   6.353   7.997   1.393  0.5513  0.0502  0.1930
  428MOL0     C56426   6.387   8.114   1.478  0.1496 -0.1452 -0.6177
  428MOL0     C56427   6.361   8.087   1.618  0.3253 -1.0207 -0.4376
  428MOL0     C56428   6.349   8.056   1.731 -0.1822 -0.0607 -0.2916
  428MOL0     C56429   6.078   7.986   1.082 -0.1971  0.0362  0.6740
  428MOL0     C56430   5.949   8.018   1.036 -0.5637 -0.7315 -0.5507
  428MOL0     H56431   5.518   8.150   1.106  2.0688  1.1237 -1.9885
  428MOL0     H56432   5.276   8.119   1.110  2.6018 -2.9259  1.9616
  428MOL0     H56433   5.074   8.234   0.980  1.0873  0.5423 -0.0596
  428MOL0     H56434   5.067   8.086   1.079 -0.5327  0.1807  0.0371
  428MOL0     H56435   4.877   7.998   0.930 -1.7673  0.8681  2.3396
  428MOL0     H56436   4.878   8.143   0.844  0.2021 -0.4697  0.4185
  428MOL0     H56437   4.794   8.275   1.028 -0.2913 -0.3469 -1.1126
  428MOL0     H56438   4.844   8.149   1.145 -2.6377 -1.7720  1.0729
  428MOL0     H56439   4.627   8.115   0.941 -1.4311 -2.1226 -0.1839
  428MOL0     H56440   4.683   7.986   1.046  0.8773 -0.1951  0.6614
  428MOL0     H56441   4.581   8.256   1.124  2.4836 -0.3602 -0.0718
  428MOL0     H56442   4.634   8.140   1.241  0.8104  3.0387 -0.7895
  428MOL0     H56443   4.404   8.101   1.241 -2.5259 -1.9608 -0.2316
  428MOL0     H56444   4.486   7.966   1.153  0.9447  0.7011 -1.0301
  428MOL0     H56445   4.373   8.203   0.996 -1.5220 -1.2340 -0.9578
  428MOL0     H56446   4.418   8.035   0.945  3.6964  0.0775  1.5179
  428MOL0     H56447   4.167   8.083   0.963  0.7946 -0.8199  0.7543
  428MOL0     H56448   4.189   8.096   1.136 -0.4695  0.2266 -0.7171
  428MOL0     H56449   4.276   7.843   0.852 -0.5291  0.3830 -0.7345
  428MOL0     H56450   4.253   7.567   0.843 -2.0714  2.9939  0.1413
  428MOL0     H56451   4.201   7.489   0.998 -1.8172  1.1491 -1.3335
  428MOL0     H56452   4.489   7.602   0.905 -1.5403  0.6894 -0.4946
  428MOL0     H56453   4.443   7.438   0.925  1.4815 -0.6285  1.0152
  428MOL0     H56454   4.398   7.486   1.171 -0.3549  2.0092  0.9383
  428MOL0     H56455   4.554   7.436   1.131  0.2067  0.5376  1.5397
  428MOL0     H56456   4.546   7.639   1.267 -1.5087 -0.3802 -0.3747
  428MOL0     H56457   4.457   7.720   1.151  1.1511  1.9631  2.7636
  428MOL0     H56458   4.741   7.536   1.293  1.3137  0.9053  0.5489
  428MOL0     H56459   4.970   7.463   1.334 -0.8245 -1.4143 -0.1872
  428MOL0     H56460   5.425   7.811   1.064  1.5609  0.8155  1.9578
  428MOL0     H56461   5.690   7.801   1.073 -0.2599  0.3323 -1.8513
  428MOL0     H56462   5.921   7.782   1.116  0.3454 -0.8427  2.1929
  428MOL0     H56463   5.879   7.716   0.955  0.5901  0.2658  1.1893
  428MOL0     H56464   6.117   7.704   0.998  0.0691 -0.2060  1.1297
  428MOL0     H56465   6.035   7.538   0.967 -1.8493 -2.9245  3.4948
  428MOL0     H56466   6.047   7.514   1.215 -1.9786  1.9264 -0.3297
  428MOL0     H56467   6.137   7.658   1.246 -0.7206 -2.2976  1.4469
  428MOL0     H56468   6.233   7.437   1.057 -0.6160  0.1849 -0.3746
  428MOL0     H56469   6.312   7.597   1.091 -0.9786 -0.0855 -0.5540
  428MOL0     H56470   6.424   7.419   1.198 -0.1913 -1.3152 -0.0275
  428MOL0     H56471   6.280   7.364   1.284  0.5857  0.3061  0.3496
  428MOL0     H56472   6.264   7.569   1.411 -0.9353 -0.9175 -2.4832
  428MOL0     H56473   6.375   7.655   1.317 -2.6604  0.2063 -2.1539
  428MOL0     H56474   6.424   7.400   1.489 -1.1496 -0.5498 -1.2012
  428MOL0     H56475   6.553   7.469   1.377 -0.6494  3.1546 -0.6408
  428MOL0     H56476   6.560   7.671   1.524  0.1315 -0.6071  0.0188
  428MOL0     H56477   6.601   7.516   1.600  1.5936 -0.1095 -2.2701
  428MOL0     H56478   5.669   7.377   1.112 -0.3498  0.1455  0.8758
  428MOL0     H56479   5.433   7.383   1.117 -0.2917  0.3319 -0.4927
  428MOL0     H56480   5.080   7.701   0.973  0.1553 -0.1319 -0.7046
  428MOL0     H56481   4.850   7.745   0.942  2.0621  2.6902  1.0616
  428MOL0     H56482   5.301   7.998   0.687 -3.0324 -1.7334  1.5677
  428MOL0     H56483   5.550   7.987   0.722  1.8599  0.4162  0.6590
  428MOL0     H56484   6.035   8.098   0.717  1.7572  3.9611  1.1273
  428MOL0     H56485   6.256   8.066   0.803  0.3501 -2.0266 -0.7487
  428MOL0     H56486   6.426   7.834   1.146 -1.1983 -0.1464  0.9872
  428MOL0     H56487   6.270   7.845   1.204  0.4919  0.4970  2.6407
  428MOL0     H56488   6.487   8.063   1.229 -0.2238  0.7710 -0.2635
  428MOL0     H56489   6.319   8.118   1.215  0.1646 -0.3637 -1.0441
  428MOL0     H56490   6.398   7.900   1.417  1.3468  0.3271 -0.1354
  428MOL0     H56491   6.247   7.976   1.407  0.7998 -0.9514  0.7078
  428MOL0     H56492   6.493   8.134   1.463 -0.1160  1.5025 -0.4369
  428MOL0     H56493   6.325   8.200   1.451 -0.3563  0.2766  1.7302
  428MOL0     H56494   6.336   8.043   1.836 -4.3166  0.6824 -0.5178
  428MOL0     H56495   6.093   7.962   1.187  0.6739  2.1458  1.0922
  428MOL0     H56496   5.863   8.013   1.102  0.5881  0.9342  1.2029
  429MOL0     O56497   9.144   1.109   6.321 -0.2478  0.6234  0.3025
  429MOL0     C56498   9.247   1.134   6.262  0.2455 -0.1623  0.0504
  429MOL0     O56499   9.257   1.182   6.133 -0.1622 -1.2610 -0.4335
  429MOL0     C56500   9.143   1.227   6.073  0.4831 -1.1832  0.9797
  429MOL0     C56501   9.042   1.149   6.026  0.6301 -0.3140  0.6328
  429MOL0     C56502   8.928   1.203   5.956 -0.1676  0.3620  1.1277
  429MOL0     C56503   8.928   1.335   5.927  0.1407 -0.2710  1.5703
  429MOL0     O56504   8.828   1.406   5.869 -0.6099 -0.3818 -0.1990
  429MOL0     C56505   8.717   1.330   5.814  0.1831  0.0095 -0.2711
  429MOL0     C56506   8.611   1.409   5.739  0.4001 -0.2636 -0.2758
  429MOL0     C56507   8.513   1.469   5.845 -0.0957  0.0479  0.1845
  429MOL0     C56508   8.414   1.568   5.777  0.4304 -0.0764 -0.2766
  429MOL0     C56509   8.323   1.623   5.885  0.0481 -0.5917  0.0922
  429MOL0     C56510   8.236   1.727   5.815  0.9334 -0.3681  0.0009
  429MOL0     C56511   8.102   1.759   5.889 -0.6558  0.6461  0.3617
  429MOL0     C56512   8.107   1.795   6.040  0.3166  0.3958 -0.4453
  429MOL0     N56513   8.177   1.920   6.071  0.7470 -0.5427  0.3089
  429MOL0     C56514   8.285   1.939   6.152  0.2872 -0.5799  0.6779
  429MOL0     C56515   8.299   2.065   6.172 -0.0263 -0.2942 -0.0910
  429MOL0     C56516   8.395   2.137   6.267 -0.5719 -1.1110 -0.0098
  429MOL0     C56517   8.535   2.116   6.201 -0.7206  0.4204 -0.3054
  429MOL0     C56518   8.588   2.230   6.116  0.1659  0.8885 -0.1512
  429MOL0     C56519   8.739   2.254   6.113 -0.6437  0.3410 -0.0017
  429MOL0     O56520   8.809   2.129   6.088 -0.0398 -0.4288 -0.1646
  429MOL0     C56521   8.946   2.143   6.071 -0.2332 -1.0454 -0.2624
  429MOL0     C56522   9.014   2.038   6.017  0.3209  0.3105  0.4681
  429MOL0     C56523   9.150   2.043   5.992  0.7361  0.1570  0.2855
  429MOL0     C56524   9.219   2.163   6.014  0.1283 -0.2277 -1.0424
  429MOL0     C56525   9.366   2.172   5.997 -0.1897  0.6711  0.7440
  429MOL0     O56526   9.411   2.304   5.981 -0.1857  0.5612 -0.5066
  429MOL0     C56527   9.509   2.336   5.886  0.2859 -0.3018 -0.3002
  429MOL0     C56528   9.625   2.418   5.915 -0.3145  0.4713 -0.3991
  429MOL0     C56529   9.712   2.467   5.821 -0.1533 -0.2025  0.0024
  429MOL0     C56530   9.699   2.431   5.691 -0.4360  0.4776  0.7338
  429MOL0     O56531   9.797   2.462   5.599 -0.3822  0.4785  0.1839
  429MOL0     C56532   9.812   2.391   5.473  0.2592 -0.6375  0.6595
  429MOL0     C56533   9.954   2.396   5.420  0.1993  0.0932  0.3417
  429MOL0     C56534  10.062   2.364   5.514 -0.0579  0.1367 -0.2120
  429MOL0     C56535  10.200   2.380   5.444  0.7012 -0.5249  0.0317
  429MOL0     C56536  10.311   2.319   5.524 -0.6059  0.0897  0.1084
  429MOL0     C56537  10.422   2.250   5.444 -0.8785  0.2439 -0.7397
  429MOL0     C56538  10.515   2.172   5.543 -0.7870 -0.4802  0.0441
  429MOL0     C56539  10.591   2.265   5.634  0.4760  0.6544 -0.5342
  429MOL0    Cl56540  10.684   2.166   5.738 -0.0773 -0.6917 -0.0939
  429MOL0     C56541   9.591   2.349   5.648 -0.4638 -0.1274 -0.5213
  429MOL0     C56542   9.498   2.298   5.745  0.1439  0.4704  0.1526
  429MOL0     O56543   9.437   2.068   5.980  0.4914  0.3075  0.0992
  429MOL0     C56544   9.147   2.275   6.071  0.5275 -0.0103  0.2165
  429MOL0     C56545   9.010   2.269   6.097 -0.4901  0.6837  0.2423
  429MOL0     N56546   8.218   2.132   6.077 -0.1574  0.3271 -0.5389
  429MOL0     N56547   8.139   2.047   6.024  0.5566  0.2415  0.0582
  429MOL0     C56548   9.032   1.410   5.960 -0.2009 -0.5883 -0.1309
  429MOL0     C56549   9.141   1.362   6.033  0.2085  0.3070 -0.2798
  429MOL0     C56550   9.368   1.096   6.323 -0.1459  0.3737  0.4694
  429MOL0     C56551   9.491   1.079   6.256 -0.0557  0.3524 -0.3521
  429MOL0     C56552   9.604   1.029   6.322  1.0015  0.3481  0.7763
  429MOL0     C56553   9.608   0.998   6.462 -0.0559  0.1596  0.3726
  429MOL0     O56554   9.731   0.971   6.509 -0.2684 -0.1258 -0.5677
  429MOL0     C56555   9.739   0.933   6.646  0.5005  0.2869 -0.0139
  429MOL0     C56556   9.886   0.880   6.648  0.3645 -0.5490 -0.1433
  429MOL0     C56557   9.984   0.989   6.610 -0.4453  0.2121 -0.3535
  429MOL0     C56558  10.121   0.915   6.607  0.7723 -0.8154  0.0793
  429MOL0     C56559  10.122   0.826   6.485 -0.6000 -0.2722 -0.2703
  429MOL0     C56560  10.136   0.737   6.406 -0.9590 -0.3544 -0.3357
  429MOL0     C56561   9.488   1.014   6.532 -0.4049  0.4607 -0.8337
  429MOL0     C56562   9.368   1.062   6.464 -0.7298 -1.3992 -0.3797
  429MOL0     H56563   9.044   1.044   6.054  3.0510  0.1815  2.6479
  429MOL0     H56564   8.850   1.138   5.919 -0.6980  1.5753  0.0138
  429MOL0     H56565   8.670   1.266   5.889  0.0958 -0.0412 -0.3680
  429MOL0     H56566   8.760   1.267   5.735  2.7551  0.2774  0.8139
  429MOL0     H56567   8.549   1.338   5.684  1.5000 -0.4368 -1.3230
  429MOL0     H56568   8.653   1.478   5.665  0.8687  1.6128  1.5967
  429MOL0     H56569   8.575   1.501   5.928 -1.5039 -1.4734  1.9022
  429MOL0     H56570   8.458   1.381   5.880 -0.9267  0.8350  0.8987
  429MOL0     H56571   8.462   1.653   5.728  0.3221  0.6186  0.7801
  429MOL0     H56572   8.343   1.523   5.708 -3.1207  2.9894  1.0532
  429MOL0     H56573   8.378   1.668   5.968  0.5647 -2.1581  0.6249
  429MOL0     H56574   8.267   1.545   5.937 -0.3479  1.0353  2.2324
  429MOL0     H56575   8.208   1.685   5.718  1.1793 -3.1864  1.0349
  429MOL0     H56576   8.284   1.821   5.789 -0.3667  1.1087  2.5261
  429MOL0     H56577   8.063   1.854   5.849  0.2704  0.7989 -0.1982
  429MOL0     H56578   8.033   1.675   5.882 -3.2380  2.5870  0.7605
  429MOL0     H56579   8.144   1.708   6.095 -2.6541 -0.3506  0.5461
  429MOL0     H56580   8.001   1.794   6.068  0.4584 -0.0311  0.1111
  429MOL0     H56581   8.355   1.865   6.190  0.3615 -0.3297  1.0398
  429MOL0     H56582   8.397   2.093   6.367 -1.9683 -0.3265  0.3799
  429MOL0     H56583   8.361   2.241   6.276 -1.1242 -1.1765 -1.2327
  429MOL0     H56584   8.539   2.027   6.137 -2.3751 -1.8310  2.4916
  429MOL0     H56585   8.603   2.082   6.280 -1.1611  1.9920  0.7901
  429MOL0     H56586   8.558   2.214   6.012  2.1980 -0.4985 -0.5690
  429MOL0     H56587   8.536   2.321   6.150 -0.0537  0.0916  1.7817
  429MOL0     H56588   8.760   2.281   6.217  1.1539  1.9728 -0.7415
  429MOL0     H56589   8.765   2.334   6.044 -2.0998  3.3907  2.7214
  429MOL0     H56590   8.949   1.956   5.986 -2.3485  1.5340  2.4147
  429MOL0     H56591   9.194   1.951   5.953  0.1529 -0.6007  1.3763
  429MOL0     H56592   9.644   2.449   6.018 -0.0853  3.1532 -1.1813
  429MOL0     H56593   9.796   2.530   5.845  0.9182 -2.3624  2.3350
  429MOL0     H56594   9.744   2.436   5.400  1.5455  1.5713  0.7372
  429MOL0     H56595   9.780   2.287   5.480 -0.4164 -0.4506  0.4304
  429MOL0     H56596   9.973   2.496   5.379 -1.8789 -0.8437 -3.3299
  429MOL0     H56597   9.956   2.336   5.329 -0.4150  2.0251 -1.0133
  429MOL0     H56598  10.053   2.258   5.541  0.6555 -0.2532 -1.4144
  429MOL0     H56599  10.059   2.426   5.604 -1.7720  2.4843 -1.7792
  429MOL0     H56600  10.198   2.326   5.349  2.1995  1.3873 -1.1681
  429MOL0     H56601  10.228   2.482   5.417  1.4557 -1.1606 -1.7096
  429MOL0     H56602  10.275   2.252   5.602 -1.5708 -1.5131 -1.6133
  429MOL0     H56603  10.357   2.404   5.575 -1.4809  0.6824 -0.0696
  429MOL0     H56604  10.480   2.321   5.384 -0.5989  0.2631 -0.4494
  429MOL0     H56605  10.373   2.176   5.379  0.2589  0.2353 -1.6182
  429MOL0     H56606  10.456   2.101   5.601 -0.1621  0.0458  1.3735
  429MOL0     H56607  10.591   2.114   5.491 -1.1813 -1.4022  0.4661
  429MOL0     H56608  10.517   2.319   5.695  1.7503  0.6069  1.1102
  429MOL0     H56609  10.661   2.326   5.576  1.9680  0.2816  0.7937
  429MOL0     H56610   9.580   2.313   5.546  2.6936 -0.9018 -0.6798
  429MOL0     H56611   9.413   2.237   5.717  0.2507 -1.2306  3.1336
  429MOL0     H56612   9.200   2.368   6.090  2.7678 -0.5873 -2.4059
  429MOL0     H56613   8.962   2.355   6.141 -0.7166  0.3398  0.6788
  429MOL0     H56614   9.031   1.518   5.944 -1.5286 -0.1944  2.1711
  429MOL0     H56615   9.226   1.424   6.057 -0.6336  0.7786  1.6704
  429MOL0     H56616   9.488   1.086   6.147 -0.2171  0.3221 -0.3499
  429MOL0     H56617   9.691   1.012   6.259 -0.0977 -2.3793 -0.1454
  429MOL0     H56618   9.667   0.856   6.673 -1.7947  2.3865  0.2394
  429MOL0     H56619   9.711   1.014   6.714 -1.5917 -0.9831  0.7366
  429MOL0     H56620   9.895   0.853   6.753  2.2769  4.6070  1.3263
  429MOL0     H56621   9.899   0.794   6.582  1.2373  0.6617 -1.6087
  429MOL0     H56622   9.993   1.070   6.683  0.9356  1.0126 -1.3583
  429MOL0     H56623   9.962   1.032   6.511  0.5361  2.5826  0.3929
  429MOL0     H56624  10.201   0.989   6.598  0.5314 -0.7103 -1.5828
  429MOL0     H56625  10.131   0.854   6.697 -1.6740  0.2177  1.1336
  429MOL0     H56626  10.145   0.669   6.324 -1.0910 -3.6752  2.2251
  429MOL0     H56627   9.480   0.986   6.636 -0.1472 -2.1497 -1.4559
  429MOL0     H56628   9.278   1.074   6.524 -0.5088 -1.0550 -0.1104
  430MOL0     O56629   4.191   2.909   7.664  0.3923  0.3729 -0.4337
  430MOL0     C56630   4.308   2.943   7.649  0.0038 -0.8742 -0.0484
  430MOL0     O56631   4.417   2.870   7.698  0.5979  0.0430 -1.0332
  430MOL0     C56632   4.417   2.737   7.747  0.5306 -0.1911 -0.2731
  430MOL0     C56633   4.342   2.647   7.681 -0.6493 -0.0100  0.2959
  430MOL0     C56634   4.322   2.516   7.726 -0.8262  0.1034 -0.1835
  430MOL0     C56635   4.394   2.473   7.848 -0.1871  0.9163  1.0184
  430MOL0     O56636   4.374   2.341   7.895  0.1457  0.7763 -1.0108
  430MOL0     C56637   4.437   2.297   8.016  0.7084 -0.1730 -0.0654
  430MOL0     C56638   4.382   2.155   8.038  0.2440 -0.2320  0.7969
  430MOL0     C56639   4.241   2.141   8.098  0.3415  0.3335 -0.1028
  430MOL0     C56640   4.198   1.990   8.087 -0.8348 -0.0770 -0.5542
  430MOL0     C56641   4.055   1.982   8.114 -0.5707 -0.0443 -0.5350
  430MOL0     C56642   3.961   2.033   8.004 -0.0991 -0.5559 -0.1984
  430MOL0     C56643   3.826   2.070   8.069  0.1262  0.2694 -0.1857
  430MOL0     C56644   3.740   1.947   8.119  0.2347 -0.0984 -0.0445
  430MOL0     N56645   3.681   1.869   8.015 -0.7128  0.2275  0.2311
  430MOL0     C56646   3.661   1.897   7.882  0.1305  0.5574  0.0298
  430MOL0     C56647   3.599   1.789   7.830 -0.9072  0.4455 -0.4326
  430MOL0     C56648   3.564   1.749   7.693  0.0458  0.8356 -0.5462
  430MOL0     C56649   3.414   1.754   7.681  0.1128 -0.3903 -0.4366
  430MOL0     C56650   3.348   1.632   7.747  0.4323 -0.5122  0.1341
  430MOL0     C56651   3.218   1.601   7.669 -0.1233  0.3080 -0.0465
  430MOL0     O56652   3.171   1.460   7.702 -0.4001 -0.3160  0.1868
  430MOL0     C56653   3.054   1.408   7.658  0.4896 -0.2555  0.5930
  430MOL0     C56654   2.997   1.449   7.533  0.8370  0.4679 -0.7409
  430MOL0     C56655   2.879   1.385   7.484  0.4361 -0.6027  0.0662
  430MOL0     C56656   2.812   1.286   7.564 -0.3645 -0.2936  0.4435
  430MOL0     C56657   2.677   1.229   7.528 -1.0016 -0.6273  0.1115
  430MOL0     O56658   2.590   1.295   7.448 -0.3168 -0.8717  0.6110
  430MOL0     C56659   2.459   1.259   7.452 -0.0291 -0.0464 -0.1375
  430MOL0     C56660   2.389   1.248   7.574 -0.1158 -0.0079 -0.9252
  430MOL0     C56661   2.257   1.217   7.574 -0.2261  1.2309  0.2095
  430MOL0     C56662   2.190   1.213   7.455  1.3843 -0.0202  0.1511
  430MOL0     O56663   2.053   1.197   7.469 -0.8173  0.3046  0.4083
  430MOL0     C56664   1.995   1.099   7.382  0.6606  0.1804  0.1525
  430MOL0     C56665   1.871   1.037   7.439  0.0287 -0.7511 -0.6697
  430MOL0     C56666   1.767   1.148   7.492 -0.2405 -0.0573  0.1860
  430MOL0     C56667   1.655   1.080   7.573  0.8656  0.1698  0.4240
  430MOL0     C56668   1.704   1.031   7.714 -0.3212  0.3574 -0.3830
  430MOL0     C56669   1.584   0.970   7.784 -0.5457  0.3704  0.1161
  430MOL0     C56670   1.640   0.888   7.902 -0.0648  0.4631 -0.3593
  430MOL0     C56671   1.521   0.825   7.976 -0.3180 -0.1480 -0.8122
  430MOL0    Cl56672   1.576   0.758   8.132  0.4625  0.3292 -0.2364
  430MOL0     C56673   2.258   1.214   7.335  0.3229  0.9149 -0.4695
  430MOL0     C56674   2.396   1.233   7.330 -0.0170 -0.2031  0.2376
  430MOL0     O56675   2.644   1.135   7.600 -0.1411  0.5011  0.6512
  430MOL0     C56676   2.878   1.247   7.686 -0.2606  0.2764  0.9718
  430MOL0     C56677   2.995   1.301   7.722  0.8246  0.1766 -0.1596
  430MOL0     N56678   3.596   1.698   7.925 -0.1188  0.1355 -0.9210
  430MOL0     N56679   3.638   1.746   8.038  1.4056  0.2711  0.5508
  430MOL0     C56680   4.485   2.560   7.897 -0.8582 -0.0892 -0.8437
  430MOL0     C56681   4.494   2.695   7.863  0.7855  0.4762  0.1875
  430MOL0     C56682   4.346   3.068   7.568 -0.0316  0.9374 -0.0808
  430MOL0     C56683   4.247   3.149   7.521 -0.2904 -0.7439  0.1316
  430MOL0     C56684   4.275   3.274   7.455  0.2365  0.6573  0.1608
  430MOL0     C56685   4.410   3.292   7.412  0.0055 -0.7016 -0.1178
  430MOL0     O56686   4.431   3.408   7.332 -0.2221 -0.1302  0.3082
  430MOL0     C56687   4.539   3.401   7.236 -0.2063 -0.2926 -0.9343
  430MOL0     C56688   4.489   3.422   7.100 -0.3295  0.1437  0.7997
  430MOL0     C56689   4.406   3.306   7.041 -0.3838  0.0143 -0.5722
  430MOL0     C56690   4.318   3.335   6.919  0.2154  0.7907 -1.1784
  430MOL0     C56691   4.384   3.426   6.826  0.1775 -0.2430  0.1481
  430MOL0     C56692   4.441   3.511   6.766 -0.6329 -0.6106  0.5020
  430MOL0     C56693   4.513   3.212   7.458  0.2887  0.3482  0.9883
  430MOL0     C56694   4.480   3.092   7.524  0.1177 -0.5911  0.3220
  430MOL0     H56695   4.295   2.678   7.588  0.6456 -0.8321 -0.6737
  430MOL0     H56696   4.244   2.455   7.682 -3.3239  1.9822  1.3509
  430MOL0     H56697   4.416   2.363   8.101 -0.5342  2.2196 -2.0871
  430MOL0     H56698   4.546   2.298   8.000  0.6313  1.6070 -0.7844
  430MOL0     H56699   4.449   2.096   8.102  1.1039  1.2502  1.3013
  430MOL0     H56700   4.377   2.109   7.939 -0.6530  2.0729 -0.2780
  430MOL0     H56701   4.162   2.208   8.064 -1.2241 -1.1018  0.5750
  430MOL0     H56702   4.247   2.168   8.204  0.0141  0.2218 -0.0534
  430MOL0     H56703   4.222   1.941   7.992 -2.4297 -1.2257 -0.4157
  430MOL0     H56704   4.264   1.942   8.160  1.5443  1.3007 -1.6617
  430MOL0     H56705   4.036   2.028   8.211  1.1653 -1.0904  0.3605
  430MOL0     H56706   4.036   1.875   8.133  0.8406  0.0063  1.4672
  430MOL0     H56707   3.945   1.955   7.929 -0.6008  0.9175 -1.6765
  430MOL0     H56708   4.004   2.120   7.953 -1.4933  0.1492 -0.2220
  430MOL0     H56709   3.848   2.146   8.145  1.2876  0.4404 -0.6732
  430MOL0     H56710   3.761   2.120   7.997 -2.6491 -0.6103  1.5443
  430MOL0     H56711   3.660   1.986   8.183 -0.3417 -1.8258  0.3195
  430MOL0     H56712   3.799   1.881   8.184  2.7740  1.0895 -1.0041
  430MOL0     H56713   3.691   1.984   7.825  2.9769  0.2807  0.9035
  430MOL0     H56714   3.610   1.650   7.690 -1.4776  0.0233  1.0019
  430MOL0     H56715   3.598   1.815   7.613 -0.4428  0.4157 -1.1002
  430MOL0     H56716   3.383   1.766   7.577  1.2486 -3.1384 -1.1719
  430MOL0     H56717   3.386   1.852   7.721 -0.6632  0.3445 -2.6497
  430MOL0     H56718   3.420   1.551   7.732  1.4168  0.5491 -1.0696
  430MOL0     H56719   3.325   1.643   7.853  0.6042 -0.4969  0.1690
  430MOL0     H56720   3.229   1.624   7.562 -2.6365  2.3791  0.0599
  430MOL0     H56721   3.146   1.665   7.719  1.8628  2.8324 -0.2174
  430MOL0     H56722   3.051   1.521   7.472  1.4945 -1.7856 -2.9747
  430MOL0     H56723   2.828   1.409   7.391  0.1422 -4.0887 -0.8213
  430MOL0     H56724   2.438   1.246   7.671 -1.5680 -0.3177 -0.1795
  430MOL0     H56725   2.222   1.209   7.676  0.9060 -1.1318  0.4693
  430MOL0     H56726   2.059   1.015   7.353  0.7167  0.4059 -0.4008
  430MOL0     H56727   1.965   1.144   7.287 -2.1664  0.4286  1.0735
  430MOL0     H56728   1.904   0.991   7.532  0.0756 -0.0376 -0.3341
  430MOL0     H56729   1.817   0.968   7.372 -0.7069 -0.5584 -0.2906
  430MOL0     H56730   1.721   1.195   7.405  0.4763 -2.3262 -1.5335
  430MOL0     H56731   1.829   1.218   7.549 -0.3621 -0.5044  0.8749
  430MOL0     H56732   1.574   1.154   7.579  0.5205  0.0281 -1.7268
  430MOL0     H56733   1.617   0.987   7.529  0.2840 -0.0076  1.2793
  430MOL0     H56734   1.745   1.116   7.770 -3.4198  0.1068  2.6485
  430MOL0     H56735   1.787   0.960   7.711  0.6005  1.4109 -0.6866
  430MOL0     H56736   1.535   0.903   7.712  0.0860  1.1070 -1.0198
  430MOL0     H56737   1.519   1.054   7.810  0.6925  1.0762  1.0048
  430MOL0     H56738   1.711   0.812   7.869  0.2683  1.2797 -1.6465
  430MOL0     H56739   1.690   0.955   7.973  0.6593 -1.0512  0.5854
  430MOL0     H56740   1.470   0.746   7.918  0.8178  0.8785 -3.3788
  430MOL0     H56741   1.447   0.905   7.990  0.1808 -0.1333  2.4825
  430MOL0     H56742   2.204   1.208   7.241 -2.7207  1.5328  1.1024
  430MOL0     H56743   2.455   1.242   7.240 -0.7467 -1.3778 -0.3849
  430MOL0     H56744   2.829   1.171   7.747 -0.0631 -0.8857 -0.2821
  430MOL0     H56745   3.035   1.251   7.809  1.2517 -5.3888 -3.0985
  430MOL0     H56746   4.541   2.525   7.984  0.7318  1.0709 -1.3437
  430MOL0     H56747   4.531   2.767   7.935 -1.3158  2.1201 -0.2976
  430MOL0     H56748   4.148   3.121   7.553 -0.1644  1.5541  2.9200
  430MOL0     H56749   4.203   3.345   7.417  0.7835  0.9064 -0.4167
  430MOL0     H56750   4.589   3.303   7.237  0.3139 -0.0501 -1.9842
  430MOL0     H56751   4.618   3.473   7.256 -0.6862 -0.0290  0.0696
  430MOL0     H56752   4.429   3.514   7.101 -1.1454 -0.3787  0.5249
  430MOL0     H56753   4.575   3.439   7.034 -0.0571  0.1876  1.1631
  430MOL0     H56754   4.336   3.276   7.119 -0.1164  0.8430  0.0030
  430MOL0     H56755   4.476   3.224   7.020 -0.2280  0.4372 -1.7616
  430MOL0     H56756   4.302   3.231   6.887  3.5013  0.1418 -1.0214
  430MOL0     H56757   4.227   3.386   6.953  1.3207  1.6896  0.5423
  430MOL0     H56758   4.504   3.572   6.704  0.4324  0.1610  2.2794
  430MOL0     H56759   4.619   3.224   7.440 -0.0891  3.1551  0.1358
  430MOL0     H56760   4.556   3.021   7.555 -0.0870 -1.1174 -0.3695
  431MOL0     O56761   6.998   6.626   5.327 -0.2922  0.4830 -0.3139
  431MOL0     C56762   7.093   6.648   5.408  0.1895 -0.3533  0.9820
  431MOL0     O56763   7.072   6.657   5.543  0.1264  0.3975  0.5534
  431MOL0     C56764   6.977   6.571   5.597 -0.0989 -0.2223  0.2195
  431MOL0     C56765   7.014   6.455   5.664 -0.0782  0.1114 -0.2028
  431MOL0     C56766   6.918   6.361   5.713 -1.2038  0.2708  0.1833
  431MOL0     C56767   6.783   6.382   5.686 -0.0542 -0.4309  0.0442
  431MOL0     O56768   6.684   6.300   5.716  0.6324  0.0214 -0.8745
  431MOL0     C56769   6.705   6.165   5.766  0.4042  0.0251  0.1990
  431MOL0     C56770   6.580   6.082   5.746 -0.0234  0.1818  0.4230
  431MOL0     C56771   6.479   6.128   5.845 -0.3818  1.0055  0.1141
  431MOL0     C56772   6.364   6.026   5.833  0.1069  0.7818  0.2180
  431MOL0     C56773   6.232   6.059   5.911  0.4813  0.4809 -0.2108
  431MOL0     C56774   6.126   5.954   5.914  0.4946  0.7323 -0.1596
  431MOL0     C56775   5.991   5.988   5.989  0.3864  1.1175 -0.0125
  431MOL0     C56776   5.909   5.858   5.995 -0.5957  0.1777  0.2011
  431MOL0     N56777   5.804   5.858   6.098 -0.1783  0.0859  0.0197
  431MOL0     C56778   5.825   5.852   6.231 -0.6592  0.7789 -0.0432
  431MOL0     C56779   5.709   5.867   6.298  0.1419 -0.1030 -0.8508
  431MOL0     C56780   5.688   5.843   6.444 -0.1360  0.2108 -0.4433
  431MOL0     C56781   5.619   5.965   6.506  1.4083 -0.4516 -1.1719
  431MOL0     C56782   5.479   5.989   6.474  0.1360  0.2959  0.2676
  431MOL0     C56783   5.386   5.889   6.541  0.5865 -0.4601  0.0156
  431MOL0     O56784   5.381   5.917   6.683  0.6357 -0.2631  0.1998
  431MOL0     C56785   5.257   5.958   6.735 -0.0125  0.0106  0.0815
  431MOL0     C56786   5.204   5.896   6.844 -1.0122  0.1258 -0.5940
  431MOL0     C56787   5.073   5.938   6.889 -0.2213  0.4269  0.4428
  431MOL0     C56788   4.991   6.027   6.815  0.1897  0.5207  0.1363
  431MOL0     C56789   4.850   6.054   6.865 -0.7095 -0.5434  0.5005
  431MOL0     O56790   4.795   5.963   6.955  0.1584 -0.2014 -0.3257
  431MOL0     C56791   4.675   5.996   7.029  0.6105  0.2779  0.5329
  431MOL0     C56792   4.562   6.048   6.961  0.3602 -0.3887 -0.0378
  431MOL0     C56793   4.445   6.073   7.033  0.6521 -0.3794 -0.2939
  431MOL0     C56794   4.441   6.055   7.173 -0.2625  0.0735  0.6238
  431MOL0     O56795   4.317   6.066   7.237 -0.6318  0.5818  0.7494
  431MOL0     C56796   4.261   5.932   7.246  0.3342 -0.5987  0.9204
  431MOL0     C56797   4.112   5.941   7.241  0.4615  0.2760 -0.0399
  431MOL0     C56798   4.053   5.958   7.100 -0.2890 -0.1241  0.5683
  431MOL0     C56799   3.898   5.964   7.112 -0.3620  1.4986 -0.2043
  431MOL0     C56800   3.833   5.975   6.967 -0.4923  0.2889  0.3760
  431MOL0     C56801   3.679   5.984   6.978  0.0735 -0.5169  0.1442
  431MOL0     C56802   3.604   5.983   6.847 -0.4333 -0.0592  0.0450
  431MOL0     C56803   3.540   6.111   6.805 -0.0395 -0.3006  1.1729
  431MOL0    Cl56804   3.662   6.251   6.792  0.2343 -0.3790  0.2680
  431MOL0     C56805   4.556   6.010   7.242 -0.1007  0.0187 -1.0049
  431MOL0     C56806   4.668   5.977   7.166  0.0567 -0.7468 -0.0093
  431MOL0     O56807   4.792   6.148   6.811 -0.9130 -0.4339 -0.6229
  431MOL0     C56808   5.050   6.091   6.708 -0.6368 -1.1912  0.2825
  431MOL0     C56809   5.180   6.057   6.678 -0.2367  0.5030  0.7098
  431MOL0     N56810   5.607   5.877   6.195 -0.6716 -0.0022  0.0925
  431MOL0     N56811   5.671   5.876   6.077  0.4409  0.0391 -0.5336
  431MOL0     C56812   6.743   6.507   5.632 -0.3309 -0.3121 -0.1337
  431MOL0     C56813   6.839   6.598   5.585  0.6176 -0.8121 -0.2975
  431MOL0     C56814   7.224   6.705   5.355 -0.4809 -0.7138  0.0071
  431MOL0     C56815   7.334   6.706   5.442 -0.8826  0.0507  0.0472
  431MOL0     C56816   7.456   6.762   5.417 -1.0740 -0.4155  0.4027
  431MOL0     C56817   7.475   6.828   5.290  0.1971  0.3614 -0.6911
  431MOL0     O56818   7.588   6.889   5.250 -0.2601 -0.3039  0.1858
  431MOL0     C56819   7.696   6.904   5.347  0.0433  0.8127 -0.0226
  431MOL0     C56820   7.788   6.788   5.347  0.3865  0.0738  0.5243
  431MOL0     C56821   7.918   6.812   5.437  0.2353 -0.8993  0.6391
  431MOL0     C56822   7.924   6.719   5.556  0.0136  0.0529 -0.0686
  431MOL0     C56823   8.051   6.735   5.629 -0.6615  0.1042 -0.6467
  431MOL0     C56824   8.156   6.748   5.693  0.6517 -0.3762 -0.6269
  431MOL0     C56825   7.365   6.835   5.203  0.3320 -0.4613  0.6737
  431MOL0     C56826   7.238   6.773   5.229  0.2843 -0.5840  0.2968
  431MOL0     H56827   7.119   6.442   5.687 -0.3084 -1.2619  0.1972
  431MOL0     H56828   6.950   6.266   5.755 -2.1575  0.0647  0.4711
  431MOL0     H56829   6.737   6.163   5.871 -1.1420 -0.4368  0.6772
  431MOL0     H56830   6.789   6.122   5.709  0.2294 -0.2904  0.1792
  431MOL0     H56831   6.612   5.978   5.759  1.2275  0.7487  2.4767
  431MOL0     H56832   6.540   6.095   5.646  1.1690  2.7528  0.2110
  431MOL0     H56833   6.442   6.231   5.836  1.1113  1.6720  1.1524
  431MOL0     H56834   6.519   6.145   5.945 -1.3733  0.7210  0.5691
  431MOL0     H56835   6.340   6.004   5.728  1.1183 -3.2629  0.6872
  431MOL0     H56836   6.412   5.933   5.865  1.9340  1.1843 -1.1515
  431MOL0     H56837   6.184   6.147   5.868  0.7156  0.7412  0.0545
  431MOL0     H56838   6.254   6.075   6.017 -0.2624 -0.5413  0.1122
  431MOL0     H56839   6.166   5.868   5.966 -1.5701  0.8577  1.8001
  431MOL0     H56840   6.094   5.918   5.816 -2.9560  1.6044  0.5103
  431MOL0     H56841   6.010   6.022   6.092  0.6214  1.0361 -0.0301
  431MOL0     H56842   5.930   6.061   5.936 -2.3321  0.2597  1.7014
  431MOL0     H56843   5.961   5.765   6.020 -0.2637  0.2900 -0.0590
  431MOL0     H56844   5.860   5.837   5.900  0.7011 -0.9928 -0.2440
  431MOL0     H56845   5.916   5.822   6.281 -1.5374 -0.9216  0.6185
  431MOL0     H56846   5.781   5.813   6.493 -1.6426 -0.4804  2.1829
  431MOL0     H56847   5.620   5.758   6.454  0.8927 -0.5406  0.4294
  431MOL0     H56848   5.678   6.054   6.481  2.6385 -0.7894  0.4105
  431MOL0     H56849   5.617   5.951   6.614  1.9724 -0.6989 -1.1937
  431MOL0     H56850   5.449   6.086   6.515  1.0916 -0.3826  2.7891
  431MOL0     H56851   5.475   5.979   6.365 -1.4642 -0.2655  0.3588
  431MOL0     H56852   5.419   5.786   6.526 -0.9344 -0.5475 -4.2352
  431MOL0     H56853   5.285   5.886   6.499  0.2637  2.0838  0.4336
  431MOL0     H56854   5.269   5.824   6.893 -1.5717 -0.1342 -0.2240
  431MOL0     H56855   5.034   5.889   6.978  3.3617 -0.6714  1.6128
  431MOL0     H56856   4.562   6.057   6.853  1.1114 -0.3150 -0.0309
  431MOL0     H56857   4.351   6.108   6.991  0.5684  1.9455  1.6469
  431MOL0     H56858   4.297   5.885   7.338  1.6775 -0.0459  0.6988
  431MOL0     H56859   4.292   5.873   7.159  1.5165 -0.4764  1.2293
  431MOL0     H56860   4.074   6.022   7.304  1.7105  1.7131 -1.0772
  431MOL0     H56861   4.067   5.851   7.286  1.8128 -1.4890 -2.0194
  431MOL0     H56862   4.090   5.873   7.044  1.9645  0.8321  0.5037
  431MOL0     H56863   4.088   6.055   7.064 -1.0924 -0.8299 -2.3733
  431MOL0     H56864   3.862   5.879   7.170 -3.2395  2.0867 -0.9540
  431MOL0     H56865   3.873   6.053   7.170 -1.1046 -0.8129  3.3204
  431MOL0     H56866   3.852   5.893   6.898 -2.1860  1.5792 -1.7887
  431MOL0     H56867   3.877   6.065   6.923 -0.2974 -0.4495 -0.9756
  431MOL0     H56868   3.650   6.078   7.025 -0.5158 -0.6555  0.0753
  431MOL0     H56869   3.636   5.897   7.029 -3.4553  0.3111 -1.0949
  431MOL0     H56870   3.661   5.952   6.759  0.7549 -1.5878  1.2924
  431MOL0     H56871   3.524   5.908   6.855 -0.6174 -0.1035 -1.7955
  431MOL0     H56872   3.459   6.144   6.870 -0.8030  0.5791 -0.1810
  431MOL0     H56873   3.505   6.093   6.703  1.0575  4.5662 -0.3577
  431MOL0     H56874   4.545   5.993   7.348  0.5207  1.2067 -0.7333
  431MOL0     H56875   4.762   5.945   7.210  1.6003  1.4088 -1.5296
  431MOL0     H56876   5.004   6.168   6.647  1.8059 -0.0928 -0.2960
  431MOL0     H56877   5.220   6.103   6.588 -1.9438  3.4056  1.2939
  431MOL0     H56878   6.636   6.521   5.636 -0.1372  1.0183  0.8736
  431MOL0     H56879   6.793   6.688   5.546  2.2873 -0.3051 -1.1908
  431MOL0     H56880   7.326   6.675   5.546 -0.6424 -2.0023 -0.4951
  431MOL0     H56881   7.530   6.745   5.494  0.6924 -1.0150 -1.3564
  431MOL0     H56882   7.653   6.930   5.444 -0.7775  1.9037 -0.6611
  431MOL0     H56883   7.752   6.989   5.306 -1.5842  1.5338 -0.8085
  431MOL0     H56884   7.731   6.701   5.380 -1.2700  0.1519 -1.8308
  431MOL0     H56885   7.808   6.780   5.240  3.9150 -0.2641  1.0828
  431MOL0     H56886   7.908   6.915   5.472  0.4523 -0.9653  0.9084
  431MOL0     H56887   8.008   6.802   5.375  0.9246  3.5956  0.5451
  431MOL0     H56888   7.836   6.733   5.620  1.4229  3.0101  1.3922
  431MOL0     H56889   7.928   6.616   5.517  0.6630 -0.0731  0.3211
  431MOL0     H56890   8.256   6.757   5.731  0.2895 -0.2829  0.3239
  431MOL0     H56891   7.380   6.896   5.114  1.6654 -0.8030  0.6459
  431MOL0     H56892   7.156   6.782   5.159  0.2459 -1.1461  0.2691
  432MOL0     O56893   1.239   7.413   9.816 -0.4526  0.3114 -0.0275
  432MOL0     C56894   1.268   7.420   9.937 -0.2812 -0.0743 -0.3164
  432MOL0     O56895   1.181   7.397  10.044  0.3634  0.3948 -0.2342
  432MOL0     C56896   1.052   7.407  10.030  0.6539  0.1041 -0.0707
  432MOL0     C56897   0.981   7.394  10.153  0.4515 -0.3445 -0.6745
  432MOL0     C56898   0.837   7.402  10.163  0.1534  0.1351  0.3908
  432MOL0     C56899   0.768   7.416  10.046  0.2056 -0.0964 -0.7637
  432MOL0     O56900   0.629   7.402  10.067 -0.5672 -0.4963  0.1381
  432MOL0     C56901   0.552   7.436   9.948 -0.8082  0.1576 -0.2442
  432MOL0     C56902   0.408   7.465   9.988 -0.6240 -0.0625 -0.2318
  432MOL0     C56903   0.343   7.547   9.881  0.3465  0.7098  0.2002
  432MOL0     C56904   0.201   7.611   9.918 -0.4161  0.4945 -0.6824
  432MOL0     C56905   0.125   7.651   9.788  0.2816 -1.0549  0.3501
  432MOL0     C56906  -0.018   7.705   9.804  0.8453 -0.3127 -0.2587
  432MOL0     C56907  -0.109   7.583   9.833 -0.3561 -0.4650  0.0530
  432MOL0     C56908  -0.245   7.602   9.780 -0.2812 -0.3772  0.0368
  432MOL0     N56909  -0.344   7.495   9.779  0.4971  0.1624 -0.0012
  432MOL0     C56910  -0.326   7.355   9.785 -0.3044 -0.1735 -0.2035
  432MOL0     C56911  -0.446   7.299   9.807  0.0681 -0.5044 -0.0153
  432MOL0     C56912  -0.483   7.151   9.810 -0.6966 -0.2664 -0.2312
  432MOL0     C56913  -0.630   7.112   9.752 -0.7899  0.3462  0.2865
  432MOL0     C56914  -0.734   7.128   9.864 -0.1945 -0.8285  0.8621
  432MOL0     C56915  -0.885   7.117   9.812  0.8178  0.8052 -0.5659
  432MOL0     O56916  -0.941   6.981   9.822  0.2711 -0.2452 -0.3216
  432MOL0     C56917  -1.075   6.961   9.819  0.2741  0.9922 -0.2310
  432MOL0     C56918  -1.158   7.060   9.778  0.8487  0.6407 -0.9439
  432MOL0     C56919  -1.294   7.045   9.795 -0.3551 -0.2378 -0.0118
  432MOL0     C56920  -1.352   6.928   9.852 -0.2808  0.3988  0.7910
  432MOL0     C56921  -1.494   6.913   9.885 -0.4501  0.8437 -0.7677
  432MOL0     O56922  -1.532   6.801   9.960 -0.2418 -0.3569 -0.5893
  432MOL0     C56923  -1.672   6.782   9.982  0.1885 -0.0698  0.1898
  432MOL0     C56924  -1.719   6.779  10.115  0.5164  0.1671  0.6126
  432MOL0     C56925  -1.852   6.776  10.137  0.3211  0.4115  0.4573
  432MOL0     C56926  -1.948   6.764  10.035  0.3261 -0.2495  0.0377
  432MOL0     O56927  -2.086   6.761  10.054  0.0248  0.4727  0.8872
  432MOL0     C56928  -2.139   6.765  10.184 -0.0961 -0.2506  0.2417
  432MOL0     C56929  -2.283   6.726  10.172  0.4565  0.2931  0.0833
  432MOL0     C56930  -2.366   6.766  10.304 -0.4786  0.3576  0.4541
  432MOL0     C56931  -2.512   6.732  10.271  0.4382 -0.9253  0.4521
  432MOL0     C56932  -2.612   6.782  10.377  0.4407 -0.1797  0.2400
  432MOL0     C56933  -2.753   6.799  10.327  0.6070 -0.0395  0.1133
  432MOL0     C56934  -2.839   6.871  10.435  0.6512 -0.7070 -0.6555
  432MOL0     C56935  -2.834   7.027  10.422 -0.0670  0.1564 -0.0940
  432MOL0    Cl56936  -2.951   7.103  10.532  0.2162 -0.5282  0.2750
  432MOL0     C56937  -1.903   6.770   9.901 -0.2145  0.0879  0.1182
  432MOL0     C56938  -1.764   6.778   9.872 -0.0525  1.3206  0.3367
  432MOL0     O56939  -1.564   7.004   9.851  0.3190 -0.8612 -0.2096
  432MOL0     C56940  -1.258   6.822   9.877 -0.3521 -0.3547  0.3035
  432MOL0     C56941  -1.122   6.837   9.867 -0.1598 -0.3321 -0.1286
  432MOL0     N56942  -0.532   7.406   9.834 -0.2801  0.2432  0.3270
  432MOL0     N56943  -0.475   7.517   9.801  0.0029  0.3661 -0.4281
  432MOL0     C56944   0.833   7.422   9.925 -0.9605  0.1756 -0.4688
  432MOL0     C56945   0.976   7.410   9.914 -0.1725 -0.7164  0.2472
  432MOL0     C56946   1.401   7.458   9.977 -0.5105 -1.1094 -0.2176
  432MOL0     C56947   1.437   7.475  10.117  0.1989 -1.3919  0.2379
  432MOL0     C56948   1.573   7.512  10.155 -0.4513 -0.3204  0.3633
  432MOL0     C56949   1.671   7.523  10.046 -0.0002  0.0656  0.2064
  432MOL0     O56950   1.793   7.562  10.079 -0.1461 -0.4747 -0.2785
  432MOL0     C56951   1.907   7.573   9.975 -0.3135  0.2769  0.1539
  432MOL0     C56952   2.048   7.583  10.039 -0.0571 -0.1190 -0.1925
  432MOL0     C56953   2.091   7.462  10.122  0.2077 -0.0580  0.4568
  432MOL0     C56954   2.226   7.475  10.197 -0.0026  0.1982  0.8734
  432MOL0     C56955   2.228   7.579  10.301 -0.4490  0.7495  0.3441
  432MOL0     C56956   2.245   7.660  10.392  0.7550  0.4581  0.2233
  432MOL0     C56957   1.627   7.518   9.913  0.0815 -0.3580  0.1907
  432MOL0     C56958   1.499   7.469   9.880 -0.7352  0.4985  0.1541
  432MOL0     H56959   1.041   7.380  10.243 -1.5802 -0.8357  0.6615
  432MOL0     H56960   0.786   7.388  10.258  0.5070 -0.6777  0.4674
  432MOL0     H56961   0.558   7.359   9.871 -1.3139  1.1527 -1.3087
  432MOL0     H56962   0.591   7.529   9.905 -2.9189  0.2112 -2.2226
  432MOL0     H56963   0.412   7.531  10.076 -0.2683  0.4025 -0.5902
  432MOL0     H56964   0.352   7.376  10.017 -0.5941 -0.4663 -1.3698
  432MOL0     H56965   0.333   7.483   9.793  2.4182  1.3670 -0.5759
  432MOL0     H56966   0.406   7.632   9.852 -2.5782  1.9084 -3.3347
  432MOL0     H56967   0.144   7.543   9.983  0.2766  0.8723  0.3455
  432MOL0     H56968   0.213   7.701   9.978 -0.2664  1.9028 -2.7114
  432MOL0     H56969   0.127   7.566   9.720 -1.0750 -2.3508  1.8578
  432MOL0     H56970   0.183   7.728   9.736 -0.2192 -0.0820  1.1978
  432MOL0     H56971  -0.046   7.765   9.717 -0.1454  0.0479  0.2928
  432MOL0     H56972  -0.030   7.782   9.881  1.1339  0.9805 -1.4715
  432MOL0     H56973  -0.062   7.495   9.786  2.4425  1.2367 -0.5754
  432MOL0     H56974  -0.101   7.563   9.940  2.5043  0.0233  0.0094
  432MOL0     H56975  -0.226   7.635   9.677  1.8531 -1.4322  0.0249
  432MOL0     H56976  -0.281   7.687   9.838 -0.5747 -1.5482  1.6276
  432MOL0     H56977  -0.232   7.302   9.771 -0.4741 -0.9642  1.3568
  432MOL0     H56978  -0.480   7.114   9.914 -0.0054  0.6615  0.0899
  432MOL0     H56979  -0.409   7.095   9.751 -0.5378  0.5965 -0.8543
  432MOL0     H56980  -0.626   7.007   9.722  1.9855  0.8633 -1.5341
  432MOL0     H56981  -0.645   7.172   9.662  0.4306  0.3739  0.0860
  432MOL0     H56982  -0.724   7.041   9.930  1.0505 -1.1084  0.3197
  432MOL0     H56983  -0.725   7.223   9.917  1.1016 -0.7792  0.5715
  432MOL0     H56984  -0.881   7.143   9.706  0.4031  0.1800 -0.7351
  432MOL0     H56985  -0.942   7.197   9.860  0.6554 -0.6887  1.8983
  432MOL0     H56986  -1.129   7.150   9.725 -1.6712  2.4980  0.5713
  432MOL0     H56987  -1.362   7.127   9.771 -2.1269 -0.9550  2.1707
  432MOL0     H56988  -1.643   6.762  10.189 -1.9021 -0.1432  3.1994
  432MOL0     H56989  -1.882   6.767  10.241 -0.6170  3.2125  0.5080
  432MOL0     H56990  -2.121   6.858  10.238 -0.2613  0.5101 -0.9808
  432MOL0     H56991  -2.091   6.695  10.253 -0.6216 -0.7343  0.1302
  432MOL0     H56992  -2.287   6.618  10.156 -0.3210 -0.0111  1.9797
  432MOL0     H56993  -2.328   6.784  10.092  0.8617  0.1866 -0.2259
  432MOL0     H56994  -2.351   6.873  10.324  1.2203 -0.3875  3.9831
  432MOL0     H56995  -2.326   6.716  10.392 -1.5394  0.3079  0.9151
  432MOL0     H56996  -2.543   6.789  10.183 -1.8720 -0.9071  1.1926
  432MOL0     H56997  -2.531   6.626  10.250 -1.7037 -0.2690 -1.3967
  432MOL0     H56998  -2.586   6.881  10.415 -2.2441  1.3117 -1.5262
  432MOL0     H56999  -2.616   6.706  10.456  0.6836  1.8938  2.3688
  432MOL0     H57000  -2.792   6.700  10.303 -0.0178  0.8276 -2.9687
  432MOL0     H57001  -2.757   6.853  10.231  1.7029  1.2388  0.7515
  432MOL0     H57002  -2.939   6.828  10.423 -0.0146  1.1582 -2.1881
  432MOL0     H57003  -2.798   6.837  10.531  2.3899 -3.0882 -2.1318
  432MOL0     H57004  -2.859   7.069  10.324 -1.9562  0.5081  0.5036
  432MOL0     H57005  -2.730   7.057  10.440 -0.4005  0.2770  1.9094
  432MOL0     H57006  -1.972   6.772   9.817  0.7856  0.1822 -0.7131
  432MOL0     H57007  -1.721   6.774   9.772 -0.7699 -0.7935  0.0630
  432MOL0     H57008  -1.299   6.729   9.917  0.8826 -0.8237  0.5354
  432MOL0     H57009  -1.047   6.763   9.891  3.6534  2.7921 -1.3302
  432MOL0     H57010   0.772   7.409   9.837 -2.2808  0.2891  0.4025
  432MOL0     H57011   1.018   7.404   9.814  1.7511 -2.3357  1.0759
  432MOL0     H57012   1.366   7.472  10.199 -1.5007  2.6195 -0.8727
  432MOL0     H57013   1.596   7.529  10.259  2.3285  2.2450 -0.5089
  432MOL0     H57014   1.887   7.664   9.918  1.6738 -2.0153 -4.7538
  432MOL0     H57015   1.907   7.487   9.907 -2.9698  0.5965 -0.3627
  432MOL0     H57016   2.121   7.627   9.970 -2.9348  2.8100 -1.6567
  432MOL0     H57017   2.032   7.667  10.108  0.3449 -1.1831  1.2460
  432MOL0     H57018   2.089   7.384  10.045  2.2450  2.3706 -2.2454
  432MOL0     H57019   2.016   7.431  10.196  1.6053 -3.4084  0.6864
  432MOL0     H57020   2.244   7.381  10.251 -2.7059  0.1507  1.8853
  432MOL0     H57021   2.296   7.482  10.114  0.5743 -3.4281  0.8755
  432MOL0     H57022   2.261   7.726  10.475  2.0419  1.3140 -0.6694
  432MOL0     H57023   1.695   7.554   9.837  0.6771 -1.7656  0.0181
  432MOL0     H57024   1.478   7.463   9.774 -4.1395 -0.9710  0.7953
  433MOL0     O57025  10.878   5.648   4.178 -0.0503 -0.6032 -1.0862
  433MOL0     C57026  10.910   5.735   4.098 -0.0735 -0.2875  0.5396
  433MOL0     O57027  10.823   5.799   4.014  0.3059  0.7078  0.7539
  433MOL0     C57028  10.684   5.782   4.025 -1.2055  0.3493  0.4561
  433MOL0     C57029  10.603   5.854   3.938  0.3898 -0.3533  0.0893
  433MOL0     C57030  10.462   5.843   3.933  0.3943 -0.0414 -0.3732
  433MOL0     C57031  10.392   5.761   4.020 -0.6949  0.1732  0.1326
  433MOL0     O57032  10.259   5.753   4.040  0.5581 -0.0983  0.6927
  433MOL0     C57033  10.175   5.852   3.961 -0.9342  0.6848  0.7243
  433MOL0     C57034  10.025   5.828   3.986 -0.5952  0.5434 -0.2067
  433MOL0     C57035  10.009   5.668   3.955  0.5834  0.5197  0.2517
  433MOL0     C57036   9.872   5.633   3.941  0.0229 -0.0094  0.0652
  433MOL0     C57037   9.804   5.691   3.808 -0.0982 -0.2272 -0.6029
  433MOL0     C57038   9.652   5.695   3.819  0.2925 -0.0540  0.2380
  433MOL0     C57039   9.584   5.563   3.835 -0.3043 -0.3981  0.5163
  433MOL0     C57040   9.435   5.591   3.810 -0.4753 -0.4036  0.5899
  433MOL0     N57041   9.349   5.468   3.799 -0.1027  0.6337 -0.5298
  433MOL0     C57042   9.273   5.432   3.693 -0.4099  0.2943  0.2633
  433MOL0     C57043   9.233   5.305   3.707 -0.6041 -0.0810  0.1062
  433MOL0     C57044   9.150   5.224   3.610 -0.5820  0.6678 -0.3371
  433MOL0     C57045   9.001   5.272   3.644 -0.5601 -0.3288  0.3149
  433MOL0     C57046   8.918   5.176   3.554 -0.3054 -0.0934 -0.2633
  433MOL0     C57047   8.771   5.181   3.593  0.1329  0.4868 -0.5629
  433MOL0     O57048   8.686   5.114   3.496 -0.3695 -0.5162 -0.1048
  433MOL0     C57049   8.558   5.077   3.529  0.2212  0.8230 -0.8648
  433MOL0     C57050   8.476   5.034   3.421  0.7576 -0.6409 -0.1429
  433MOL0     C57051   8.343   4.990   3.430  0.0480 -0.0320  0.1619
  433MOL0     C57052   8.288   4.980   3.561  0.0786 -0.1434 -0.3213
  433MOL0     C57053   8.147   4.940   3.576  0.3823 -0.7128 -0.2433
  433MOL0     O57054   8.123   4.901   3.699  0.2208 -0.4500 -0.4259
  433MOL0     C57055   7.999   4.851   3.717 -0.0972  0.0131 -0.2659
  433MOL0     C57056   7.972   4.715   3.751 -0.2445  0.0907 -0.4795
  433MOL0     C57057   7.844   4.668   3.783 -0.8238  0.3424 -1.3389
  433MOL0     C57058   7.741   4.758   3.770  0.5289  0.6064 -0.1208
  433MOL0     O57059   7.610   4.714   3.788  0.0506  0.7759 -0.2817
  433MOL0     C57060   7.510   4.778   3.709 -0.5367 -0.7060  0.3574
  433MOL0     C57061   7.372   4.716   3.722 -0.1493 -0.2686  0.9715
  433MOL0     C57062   7.381   4.585   3.651  0.3425 -0.1037  0.1329
  433MOL0     C57063   7.259   4.497   3.691  0.4678 -0.5858  0.3111
  433MOL0     C57064   7.239   4.373   3.596  1.0792 -0.5548 -0.6541
  433MOL0     C57065   7.126   4.287   3.648 -0.1990 -0.2589  0.2724
  433MOL0     C57066   7.119   4.143   3.593 -0.3924  0.7521 -0.0911
  433MOL0     C57067   7.060   4.052   3.708 -0.3591  0.2797  0.4438
  433MOL0    Cl57068   7.180   4.032   3.837  0.0110  0.1426 -0.4934
  433MOL0     C57069   7.765   4.894   3.749 -0.7239 -1.2402 -0.2588
  433MOL0     C57070   7.891   4.946   3.729 -0.8903  0.0326 -0.9368
  433MOL0     O57071   8.070   4.950   3.483 -0.0456  0.2590 -0.6567
  433MOL0     C57072   8.363   5.029   3.674  1.2483 -0.1982  0.3236
  433MOL0     C57073   8.499   5.067   3.656 -0.0502 -0.1355 -0.4058
  433MOL0     N57074   9.294   5.262   3.823 -0.4909  0.1058  0.0445
  433MOL0     N57075   9.360   5.361   3.873 -0.2212 -1.3439 -0.9029
  433MOL0     C57076  10.473   5.686   4.105 -0.9243  0.2725 -0.2233
  433MOL0     C57077  10.613   5.687   4.103 -0.3932 -0.0179  0.5960
  433MOL0     C57078  11.051   5.777   4.090  0.3476 -0.5213 -0.9281
  433MOL0     C57079  11.100   5.885   4.013  0.5610  0.0304 -0.0302
  433MOL0     C57080  11.227   5.918   3.993 -0.2955  0.1388  0.6663
  433MOL0     C57081  11.328   5.862   4.067  0.7955  1.1488  0.5914
  433MOL0     O57082  11.456   5.901   4.060 -0.1590 -0.2702  0.9651
  433MOL0     C57083  11.549   5.852   4.159 -0.0494 -0.0137  0.3273
  433MOL0     C57084  11.690   5.902   4.128 -0.2454 -0.0330  0.3025
  433MOL0     C57085  11.709   6.056   4.121  0.7308 -0.3652  0.5448
  433MOL0     C57086  11.852   6.097   4.164 -0.5745 -0.3067  0.5982
  433MOL0     C57087  11.898   6.223   4.113  0.3049 -0.9977 -0.1341
  433MOL0     C57088  11.916   6.333   4.084 -0.9124 -0.7174 -0.3206
  433MOL0     C57089  11.280   5.758   4.153 -1.1630  1.0735  0.2711
  433MOL0     C57090  11.153   5.709   4.158  0.2869 -0.9430  0.6611
  433MOL0     H57091  10.655   5.910   3.861 -1.5019 -0.2853 -1.2209
  433MOL0     H57092  10.411   5.896   3.853  1.1483 -1.2178 -1.6741
  433MOL0     H57093  10.181   5.823   3.855 -0.9426 -1.0672  1.1641
  433MOL0     H57094  10.203   5.957   3.974 -1.0701  0.5890  1.8524
  433MOL0     H57095   9.974   5.888   3.911 -0.4683  2.4926  1.2047
  433MOL0     H57096   9.995   5.842   4.090  5.2843 -0.8730  2.1142
  433MOL0     H57097  10.051   5.612   4.039 -2.0779  0.4532  1.6508
  433MOL0     H57098  10.070   5.636   3.869  0.5642  0.1993  0.3528
  433MOL0     H57099   9.849   5.526   3.937 -0.0157  0.0245 -0.6074
  433MOL0     H57100   9.828   5.683   4.029  0.5262 -1.2100  1.0265
  433MOL0     H57101   9.835   5.645   3.714  2.0112 -1.6640  0.6918
  433MOL0     H57102   9.838   5.793   3.792 -0.0190 -0.3843 -1.4709
  433MOL0     H57103   9.609   5.759   3.741  0.5084  0.8776  0.8672
  433MOL0     H57104   9.631   5.760   3.905  3.8083  1.4121  0.1524
  433MOL0     H57105   9.620   5.485   3.768  0.8532 -1.0610  1.8553
  433MOL0     H57106   9.595   5.526   3.937 -0.3809  3.0887  1.9239
  433MOL0     H57107   9.414   5.653   3.723  1.5274 -2.1142 -1.2338
  433MOL0     H57108   9.388   5.635   3.898  0.6840 -0.7333  1.3862
  433MOL0     H57109   9.258   5.497   3.607  0.0365 -0.4827 -0.4102
  433MOL0     H57110   9.167   5.116   3.622  0.7342  1.0042  1.0492
  433MOL0     H57111   9.181   5.245   3.508  2.9790 -1.0271  0.2495
  433MOL0     H57112   8.987   5.379   3.628  0.8785  0.3831  3.1776
  433MOL0     H57113   8.989   5.244   3.749  0.1310 -5.0235 -0.6461
  433MOL0     H57114   8.933   5.197   3.447  0.8225 -1.4301 -0.3939
  433MOL0     H57115   8.946   5.073   3.578 -1.0513  0.1610  1.8762
  433MOL0     H57116   8.731   5.283   3.593  1.0233  0.8975 -2.5678
  433MOL0     H57117   8.766   5.135   3.692 -0.3561 -1.0726 -1.2823
  433MOL0     H57118   8.526   5.033   3.325  0.9881 -0.9259 -0.0231
  433MOL0     H57119   8.294   4.963   3.337 -0.4732 -0.4363  0.5397
  433MOL0     H57120   8.060   4.652   3.753  0.5632  1.0448 -2.6394
  433MOL0     H57121   7.827   4.564   3.809  2.1989 -0.6222 -2.7744
  433MOL0     H57122   7.538   4.791   3.603 -0.2320 -1.0571  0.3917
  433MOL0     H57123   7.494   4.879   3.749  5.3387  1.3467 -1.4115
  433MOL0     H57124   7.298   4.781   3.674  0.4621  0.5648  1.1178
  433MOL0     H57125   7.333   4.711   3.824 -2.3997  1.0065  0.2402
  433MOL0     H57126   7.461   4.516   3.681 -0.6803 -1.1746  0.4766
  433MOL0     H57127   7.380   4.603   3.543  1.6809  0.0537  0.1222
  433MOL0     H57128   7.268   4.468   3.796  0.3461  1.2891  0.8771
  433MOL0     H57129   7.168   4.554   3.670 -0.2827 -2.4512 -1.8813
  433MOL0     H57130   7.333   4.317   3.603  3.2907  2.9055 -0.1953
  433MOL0     H57131   7.229   4.392   3.489 -2.7240  0.5968 -0.2289
  433MOL0     H57132   7.033   4.336   3.616  0.3915 -1.1106 -3.1957
  433MOL0     H57133   7.135   4.299   3.756  2.0711  0.7221  0.0397
  433MOL0     H57134   7.057   4.149   3.504 -0.9630  3.4339  0.3987
  433MOL0     H57135   7.222   4.113   3.569 -1.2943 -1.8454 -1.0228
  433MOL0     H57136   7.025   3.957   3.665  0.3438 -0.1292  0.7449
  433MOL0     H57137   6.975   4.110   3.743 -0.1650  0.9153 -0.1115
  433MOL0     H57138   7.687   4.969   3.757 -1.3078 -1.9994  1.5620
  433MOL0     H57139   7.910   5.052   3.721 -0.8537  0.2262  1.1602
  433MOL0     H57140   8.322   5.033   3.774  2.1666  2.4979  0.6636
  433MOL0     H57141   8.552   5.099   3.744 -0.5312  3.5960 -1.3132
  433MOL0     H57142  10.424   5.624   4.179  1.0298 -1.2667 -0.1190
  433MOL0     H57143  10.663   5.604   4.152  1.4059  0.7240  0.0954
  433MOL0     H57144  11.028   5.947   3.960  1.4618 -0.4057 -1.8396
  433MOL0     H57145  11.252   5.993   3.918 -3.0606  0.3092 -0.1801
  433MOL0     H57146  11.539   5.743   4.163 -0.2299 -0.0763 -1.4391
  433MOL0     H57147  11.513   5.885   4.257  0.1114 -0.6704  0.6214
  433MOL0     H57148  11.756   5.875   4.210 -2.0396 -1.2661  1.4127
  433MOL0     H57149  11.740   5.856   4.042  1.4365  0.9369  0.7209
  433MOL0     H57150  11.631   6.109   4.177  0.7807 -1.4277  1.6539
  433MOL0     H57151  11.704   6.072   4.013 -1.1163 -2.0487  0.3428
  433MOL0     H57152  11.856   6.105   4.273 -1.7641 -1.5186  0.7511
  433MOL0     H57153  11.912   6.017   4.118  0.1031  1.6483 -2.1907
  433MOL0     H57154  11.939   6.436   4.068 -1.9813 -0.5647 -1.0368
  433MOL0     H57155  11.349   5.704   4.217 -1.5587  1.0942  0.7245
  433MOL0     H57156  11.125   5.614   4.202 -1.8032 -0.3229  0.8214
  434MOL0     O57157   2.340   9.058   4.383  0.2614  0.3137 -0.2542
  434MOL0     C57158   2.271   9.097   4.295  0.1981  0.5308 -0.1040
  434MOL0     O57159   2.133   9.101   4.299 -0.3030 -0.1890 -0.1721
  434MOL0     C57160   2.080   9.039   4.408 -0.3926  0.0403  0.1999
  434MOL0     C57161   2.096   8.899   4.424 -0.2106  0.2054 -0.0275
  434MOL0     C57162   2.020   8.825   4.522 -0.5966 -1.7473  0.6141
  434MOL0     C57163   1.928   8.895   4.604  0.3666  0.1375 -0.8827
  434MOL0     O57164   1.848   8.825   4.700  0.5874  0.2545  0.0462
  434MOL0     C57165   1.699   8.845   4.691 -0.5007 -0.1448  0.7350
  434MOL0     C57166   1.638   8.735   4.786  0.4635 -0.1980 -0.0653
  434MOL0     C57167   1.482   8.726   4.786 -0.2643  0.4594  0.7419
  434MOL0     C57168   1.418   8.684   4.650  0.2070  0.1217 -0.5011
  434MOL0     C57169   1.260   8.710   4.649 -0.0194  1.0177 -0.0850
  434MOL0     C57170   1.189   8.630   4.762 -0.5836  0.4237  0.8380
  434MOL0     C57171   1.038   8.625   4.744  0.3215  0.4446  0.2039
  434MOL0     C57172   0.962   8.734   4.807  0.9247 -0.3889  1.3010
  434MOL0     N57173   0.819   8.699   4.798 -0.3120  0.5084 -0.1417
  434MOL0     C57174   0.758   8.635   4.901  0.6099 -0.7300 -0.4318
  434MOL0     C57175   0.628   8.636   4.858 -0.6355  0.0254  0.0195
  434MOL0     C57176   0.514   8.578   4.943 -0.6893 -0.8434  0.2795
  434MOL0     C57177   0.456   8.695   5.039 -0.3747 -0.0264  0.4829
  434MOL0     C57178   0.367   8.646   5.157 -0.3303  1.0203 -0.1686
  434MOL0     C57179   0.249   8.565   5.111  0.3443 -0.2696 -0.4931
  434MOL0     O57180   0.179   8.498   5.219 -0.3628 -0.2642  0.3081
  434MOL0     C57181   0.058   8.437   5.194 -0.0922 -0.2750  0.3863
  434MOL0     C57182  -0.010   8.410   5.317  0.7379 -0.6251 -0.2130
  434MOL0     C57183  -0.144   8.370   5.313 -1.1074  0.3031  0.6622
  434MOL0     C57184  -0.203   8.338   5.194  0.7557  0.3332 -0.0404
  434MOL0     C57185  -0.346   8.307   5.186  0.4811  0.5895 -0.6538
  434MOL0     O57186  -0.410   8.270   5.075  0.4234 -0.0943  0.2510
  434MOL0     C57187  -0.542   8.254   5.051 -0.1455  0.7454  0.0497
  434MOL0     C57188  -0.563   8.241   4.912 -0.4042 -0.2528 -0.6185
  434MOL0     C57189  -0.692   8.219   4.867 -0.2160  0.3549  0.1717
  434MOL0     C57190  -0.805   8.196   4.947  0.4741  0.2937 -0.0714
  434MOL0     O57191  -0.927   8.160   4.890 -0.1798 -0.5172  0.4005
  434MOL0     C57192  -1.044   8.243   4.923 -0.1845 -0.3140 -0.0652
  434MOL0     C57193  -1.165   8.190   4.841  0.6902 -0.2944 -0.1224
  434MOL0     C57194  -1.171   8.232   4.698  0.4437  0.2259 -0.9148
  434MOL0     C57195  -1.322   8.218   4.644 -0.3852 -0.1234 -0.5123
  434MOL0     C57196  -1.333   8.274   4.501  0.0976 -0.5447 -0.4925
  434MOL0     C57197  -1.229   8.232   4.396 -0.8907 -0.0232  0.2600
  434MOL0     C57198  -1.235   8.322   4.265  0.0919 -0.7976  0.2586
  434MOL0     C57199  -1.364   8.332   4.180  0.4612  0.0983  0.2788
  434MOL0    Cl57200  -1.418   8.171   4.126 -0.0208 -0.1227 -0.2134
  434MOL0     C57201  -0.782   8.207   5.084  0.5382 -0.2336 -0.2073
  434MOL0     C57202  -0.651   8.236   5.134 -0.3456 -1.2161  0.1647
  434MOL0     O57203  -0.408   8.330   5.294  0.2225  0.2404  0.4294
  434MOL0     C57204  -0.128   8.353   5.074  0.1491  0.1324 -0.2188
  434MOL0     C57205  -0.003   8.406   5.068 -0.3031  0.8174  0.1402
  434MOL0     N57206   0.616   8.708   4.739 -0.4815  0.0844 -0.4067
  434MOL0     N57207   0.733   8.750   4.705  0.1490  0.6915 -0.4463
  434MOL0     C57208   1.906   9.033   4.582  0.2451 -0.2999  0.5714
  434MOL0     C57209   1.985   9.107   4.492 -0.0737 -0.0864 -0.6506
  434MOL0     C57210   2.341   9.167   4.187 -0.1809 -0.5247  0.0950
  434MOL0     C57211   2.480   9.189   4.192 -0.6280  0.2762  0.1325
  434MOL0     C57212   2.544   9.285   4.102 -0.3897 -0.0972 -0.0996
  434MOL0     C57213   2.472   9.342   3.998  0.6047  0.0381  0.8622
  434MOL0     O57214   2.530   9.422   3.899  0.1692  0.1579 -0.1982
  434MOL0     C57215   2.671   9.465   3.908  0.5967 -0.3929  0.7726
  434MOL0     C57216   2.687   9.579   4.004  0.1392 -0.3398  0.0956
  434MOL0     C57217   2.830   9.616   4.040  0.2542 -0.4506 -0.4999
  434MOL0     C57218   2.896   9.519   4.138 -0.4377 -0.4587  0.4975
  434MOL0     C57219   2.816   9.508   4.267  0.1768  0.0952  0.2517
  434MOL0     C57220   2.734   9.507   4.359 -0.9794 -0.1265  0.2252
  434MOL0     C57221   2.331   9.319   3.990 -0.3053 -0.2234  0.7067
  434MOL0     C57222   2.271   9.239   4.086  0.8367 -0.1862 -0.3466
  434MOL0     H57223   2.157   8.841   4.354  2.0868  1.0313  1.1820
  434MOL0     H57224   2.011   8.717   4.523 -2.5076 -1.6383 -0.3777
  434MOL0     H57225   1.663   8.833   4.588 -0.7753  1.1741  0.6600
  434MOL0     H57226   1.661   8.940   4.731  2.3643  0.3325  2.5934
  434MOL0     H57227   1.677   8.739   4.888  1.0482 -1.2361 -0.2278
  434MOL0     H57228   1.669   8.637   4.749 -0.4232 -1.5397  2.4719
  434MOL0     H57229   1.441   8.820   4.825 -1.1887  0.5911 -0.5015
  434MOL0     H57230   1.457   8.649   4.859 -3.1198  1.0734  0.5036
  434MOL0     H57231   1.461   8.748   4.572 -1.8780 -0.0585 -1.8775
  434MOL0     H57232   1.440   8.579   4.629  3.4185  0.9747 -2.0840
  434MOL0     H57233   1.231   8.670   4.552  0.4287 -1.6712  0.8051
  434MOL0     H57234   1.238   8.816   4.666 -0.8908  0.8685 -0.2835
  434MOL0     H57235   1.214   8.662   4.863  1.1149  2.5282 -0.1436
  434MOL0     H57236   1.231   8.531   4.743 -2.3370  0.2858 -3.6643
  434MOL0     H57237   1.016   8.632   4.637  2.1547 -1.9923 -0.4458
  434MOL0     H57238   0.985   8.535   4.776 -3.0716  1.7487 -1.2749
  434MOL0     H57239   0.982   8.824   4.748 -2.9352 -0.5098 -0.4890
  434MOL0     H57240   0.989   8.764   4.909  1.3248  1.9188  0.5913
  434MOL0     H57241   0.804   8.580   4.982  0.6021 -1.3875 -0.8641
  434MOL0     H57242   0.551   8.504   5.014 -0.2680  1.7946  3.0367
  434MOL0     H57243   0.430   8.545   4.881 -2.2323 -1.9428  2.7909
  434MOL0     H57244   0.406   8.770   4.977  4.0627 -0.9430 -4.9874
  434MOL0     H57245   0.543   8.741   5.085  0.6610  0.1595 -1.5349
  434MOL0     H57246   0.434   8.578   5.211  1.5472  2.1021 -1.0375
  434MOL0     H57247   0.341   8.733   5.218  0.9716  3.2572 -2.6220
  434MOL0     H57248   0.281   8.493   5.036  2.9337  1.3162 -1.0503
  434MOL0     H57249   0.183   8.639   5.065 -0.0526 -0.1002  0.3359
  434MOL0     H57250   0.039   8.432   5.411  0.7644  1.7410 -0.7237
  434MOL0     H57251  -0.200   8.353   5.404 -2.5864 -1.5289 -0.5096
  434MOL0     H57252  -0.488   8.265   4.837 -0.0839  0.2922 -0.1326
  434MOL0     H57253  -0.708   8.203   4.760 -0.7485  0.2687  0.2612
  434MOL0     H57254  -1.025   8.350   4.911 -2.4317  0.2524  0.8858
  434MOL0     H57255  -1.063   8.232   5.030 -0.5953 -1.1406 -0.2185
  434MOL0     H57256  -1.257   8.218   4.894  1.6139  0.6735  1.0347
  434MOL0     H57257  -1.160   8.080   4.843  1.1525 -0.4061 -3.1641
  434MOL0     H57258  -1.108   8.155   4.652 -0.3329 -2.4488  2.1411
  434MOL0     H57259  -1.142   8.336   4.679 -2.5913  1.3619  0.0786
  434MOL0     H57260  -1.356   8.114   4.646 -0.9493  0.0678  1.2860
  434MOL0     H57261  -1.382   8.274   4.715  1.0618  1.2550 -0.3281
  434MOL0     H57262  -1.335   8.383   4.514  2.3147 -0.5949  0.8218
  434MOL0     H57263  -1.422   8.236   4.450  1.8967 -2.0969 -2.6627
  434MOL0     H57264  -1.242   8.131   4.355 -4.8103  0.4450  0.0152
  434MOL0     H57265  -1.127   8.226   4.435 -0.5381  3.2231  0.1002
  434MOL0     H57266  -1.210   8.425   4.293 -0.4434 -0.7288  0.5037
  434MOL0     H57267  -1.159   8.287   4.196  1.3657  0.1842  1.1244
  434MOL0     H57268  -1.341   8.395   4.094 -1.1392  0.4394  0.0676
  434MOL0     H57269  -1.446   8.379   4.234  1.5853  1.9434  0.4665
  434MOL0     H57270  -0.868   8.203   5.150  0.7365  0.9603  0.1619
  434MOL0     H57271  -0.629   8.243   5.240  2.1858 -1.1675 -0.3054
  434MOL0     H57272  -0.178   8.329   4.981 -1.4532 -0.7762  0.8245
  434MOL0     H57273   0.049   8.410   4.973  0.7127  4.1733  0.7369
  434MOL0     H57274   1.821   9.078   4.633 -2.1017 -3.9061  0.1566
  434MOL0     H57275   1.971   9.212   4.470  2.9869  1.0556  2.1281
  434MOL0     H57276   2.542   9.141   4.267  1.5057  2.0683 -0.3692
  434MOL0     H57277   2.649   9.310   4.116 -0.4519 -1.0568  2.8826
  434MOL0     H57278   2.714   9.484   3.809  0.6980 -1.8293  0.5224
  434MOL0     H57279   2.739   9.386   3.940 -0.1741 -1.2564  0.3059
  434MOL0     H57280   2.646   9.667   3.954 -1.3715 -1.3358 -0.4807
  434MOL0     H57281   2.620   9.563   4.089  1.8514 -1.1844  1.3440
  434MOL0     H57282   2.824   9.719   4.075 -0.8454 -1.4922  2.6195
  434MOL0     H57283   2.886   9.613   3.946  1.2944 -0.6183  0.1088
  434MOL0     H57284   2.914   9.418   4.098 -0.7917 -0.9757  1.6160
  434MOL0     H57285   2.993   9.565   4.161 -0.7445 -0.2151  1.3282
  434MOL0     H57286   2.647   9.506   4.421  0.3792 -0.6304  2.2477
  434MOL0     H57287   2.272   9.374   3.918 -0.1354 -0.3520  0.4698
  434MOL0     H57288   2.164   9.225   4.076  0.4395  0.0226  2.7314
  435MOL0     O57289   8.257   7.812   9.942  0.1881  0.5442 -0.4398
  435MOL0     C57290   8.310   7.706   9.914 -0.1495  0.3684  0.8846
  435MOL0     O57291   8.240   7.583   9.888  0.1613  0.1330 -0.3083
  435MOL0     C57292   8.097   7.592   9.875 -1.4582 -0.4282  0.4357
  435MOL0     C57293   8.050   7.574   9.744  0.5542 -0.4113 -0.6861
  435MOL0     C57294   7.917   7.601   9.721 -0.3601 -0.2483  0.0625
  435MOL0     C57295   7.827   7.644   9.812 -0.7834 -0.2927 -0.1105
  435MOL0     O57296   7.701   7.669   9.757  0.2831 -0.2067 -0.6389
  435MOL0     C57297   7.586   7.679   9.844  0.3891 -0.8194 -0.2999
  435MOL0     C57298   7.460   7.642   9.773  0.4699  0.2144  0.1695
  435MOL0     C57299   7.340   7.680   9.860  1.1351 -0.3998 -0.2210
  435MOL0     C57300   7.210   7.710   9.781 -0.3971 -0.1194 -0.4159
  435MOL0     C57301   7.115   7.794   9.866 -0.2135  0.0594 -0.1863
  435MOL0     C57302   6.982   7.814   9.781  0.5196 -0.1991 -0.4195
  435MOL0     C57303   6.868   7.852   9.872 -0.4846  0.3793 -0.7570
  435MOL0     C57304   6.736   7.863   9.816 -0.4076 -0.0585 -0.1402
  435MOL0     N57305   6.739   7.946   9.697  0.6388 -0.4612  0.9919
  435MOL0     C57306   6.732   7.893   9.571  0.2093 -0.2551  0.3727
  435MOL0     C57307   6.727   8.006   9.496 -0.0914  0.5182 -0.1038
  435MOL0     C57308   6.729   8.010   9.346  0.2464 -0.2930  0.0788
  435MOL0     C57309   6.588   7.994   9.280  0.4846 -0.2026  0.3697
  435MOL0     C57310   6.494   8.113   9.303  0.2597 -0.3081 -0.0025
  435MOL0     C57311   6.376   8.107   9.208  0.6877  0.2030  0.3250
  435MOL0     O57312   6.331   8.236   9.162  0.4052  0.0475  0.6805
  435MOL0     C57313   6.206   8.272   9.207  0.4971  0.0577  0.3834
  435MOL0     C57314   6.080   8.208   9.187  0.3811 -0.4848 -0.3901
  435MOL0     C57315   5.964   8.261   9.240  0.8583  0.6580  0.2549
  435MOL0     C57316   5.962   8.387   9.305 -0.0377 -0.6687  0.4762
  435MOL0     C57317   5.832   8.453   9.330  0.3840  0.1941 -0.2916
  435MOL0     O57318   5.727   8.374   9.355  0.6326  0.3229  0.2113
  435MOL0     C57319   5.600   8.438   9.360  0.0830 -0.1994 -0.3617
  435MOL0     C57320   5.558   8.537   9.272 -0.2358 -0.3273  0.1213
  435MOL0     C57321   5.430   8.591   9.289  0.6758 -0.5915  0.8570
  435MOL0     C57322   5.335   8.541   9.384 -0.3654 -0.2127  0.0141
  435MOL0     O57323   5.215   8.607   9.387  0.1542 -0.0707 -0.4260
  435MOL0     C57324   5.119   8.553   9.482  0.0146 -1.3556  0.5401
  435MOL0     C57325   4.975   8.610   9.454 -0.0773  0.2384 -0.4681
  435MOL0     C57326   4.883   8.570   9.573 -0.0046 -0.3570  0.3472
  435MOL0     C57327   4.748   8.614   9.544  0.2731 -1.1122 -0.8981
  435MOL0     C57328   4.647   8.517   9.609  0.2146 -0.5403  0.8580
  435MOL0     C57329   4.510   8.574   9.578 -0.9106  0.5225  0.6294
  435MOL0     C57330   4.408   8.479   9.648 -0.4830 -1.7437 -0.0590
  435MOL0     C57331   4.279   8.546   9.625 -0.0147  0.8586 -0.2202
  435MOL0    Cl57332   4.180   8.467   9.746  0.5983  0.0515 -0.5437
  435MOL0     C57333   5.386   8.450   9.472  0.9691  0.0222  0.5215
  435MOL0     C57334   5.512   8.390   9.460 -0.8737  0.2146 -0.2095
  435MOL0     O57335   5.842   8.576   9.347  0.1335  0.5923 -0.3966
  435MOL0     C57336   6.085   8.453   9.320 -0.3782  0.2641 -0.3018
  435MOL0     C57337   6.204   8.393   9.275  0.0296  0.0773 -0.3254
  435MOL0     N57338   6.725   8.122   9.569 -0.3080  0.7375 -0.2510
  435MOL0     N57339   6.742   8.084   9.695 -0.4072 -0.2847 -0.5111
  435MOL0     C57340   7.875   7.650   9.937  0.3309  0.1904 -0.4879
  435MOL0     C57341   8.010   7.623   9.974  0.6008 -0.1803 -1.3046
  435MOL0     C57342   8.449   7.703   9.906 -0.1249 -0.9505  0.0738
  435MOL0     C57343   8.520   7.600   9.841  1.0230 -0.3714  0.2770
  435MOL0     C57344   8.657   7.591   9.853 -0.0391 -0.1181  1.2174
  435MOL0     C57345   8.734   7.680   9.926 -0.3225 -0.1268  0.5254
  435MOL0     O57346   8.865   7.655   9.946  0.0524  0.4297 -0.1532
  435MOL0     C57347   8.953   7.739  10.029 -0.1052  0.0358 -0.9621
  435MOL0     C57348   9.098   7.672  10.040  0.5471 -0.1180 -0.3929
  435MOL0     C57349   9.152   7.631   9.902 -0.5504 -0.1437 -1.0689
  435MOL0     C57350   9.306   7.583   9.909  0.7459  0.0193 -0.2323
  435MOL0     C57351   9.388   7.701   9.943  0.2637  0.0230  1.0157
  435MOL0     C57352   9.469   7.796   9.938 -0.2279  0.5570  0.4414
  435MOL0     C57353   8.663   7.790   9.986 -0.1235 -0.1579 -0.7178
  435MOL0     C57354   8.524   7.801   9.981  0.3899 -0.5708  0.1059
  435MOL0     H57355   8.119   7.540   9.668  1.4110 -2.6619  0.9652
  435MOL0     H57356   7.882   7.599   9.618  0.9911  1.5134 -0.5023
  435MOL0     H57357   7.585   7.787   9.863 -3.6378 -0.5953 -0.9475
  435MOL0     H57358   7.592   7.623   9.937  0.4240 -1.0152 -0.4208
  435MOL0     H57359   7.462   7.535   9.754 -0.3039  0.3580 -0.8311
  435MOL0     H57360   7.452   7.693   9.676  1.1020  0.5491  0.2851
  435MOL0     H57361   7.365   7.776   9.906  0.0991  0.5612 -1.5864
  435MOL0     H57362   7.323   7.611   9.943  0.3043  0.3737  0.2720
  435MOL0     H57363   7.255   7.764   9.697 -0.9287 -2.4248 -2.2802
  435MOL0     H57364   7.164   7.624   9.731 -2.0444  2.0223 -2.8961
  435MOL0     H57365   7.171   7.884   9.893 -0.4702  0.6574 -1.5610
  435MOL0     H57366   7.102   7.740   9.960 -2.0430 -1.4126 -1.2308
  435MOL0     H57367   6.952   7.716   9.745  1.0100 -1.1969  1.7498
  435MOL0     H57368   6.995   7.886   9.699 -1.6125 -0.2856 -0.8897
  435MOL0     H57369   6.862   7.772   9.946 -0.4537 -1.0829 -2.2743
  435MOL0     H57370   6.899   7.946   9.919  0.6468 -0.3232 -0.0194
  435MOL0     H57371   6.671   7.907   9.892 -0.1385  2.7543 -1.3965
  435MOL0     H57372   6.700   7.762   9.796 -2.3601  0.3234  1.2042
  435MOL0     H57373   6.714   7.789   9.543 -3.4885  0.6922 -1.4936
  435MOL0     H57374   6.790   7.922   9.322  0.0234 -0.1294 -1.1832
  435MOL0     H57375   6.786   8.096   9.309  2.6650 -1.6948  0.3065
  435MOL0     H57376   6.536   7.903   9.312 -2.3084  0.3722 -2.0448
  435MOL0     H57377   6.605   7.975   9.173  2.9035 -1.6806  0.9390
  435MOL0     H57378   6.459   8.098   9.405 -0.0679  0.7588  0.0559
  435MOL0     H57379   6.546   8.210   9.298 -1.1666  0.4529 -0.5080
  435MOL0     H57380   6.294   8.050   9.252 -1.8490  3.7977  0.7452
  435MOL0     H57381   6.402   8.039   9.127  1.9312 -0.2555  1.0815
  435MOL0     H57382   6.076   8.114   9.134  0.2877 -0.8630  0.2765
  435MOL0     H57383   5.874   8.203   9.220 -0.0892  1.1387  2.7261
  435MOL0     H57384   5.631   8.579   9.205 -0.9769 -0.8144 -1.0263
  435MOL0     H57385   5.400   8.666   9.216 -1.8732 -2.8782 -0.6693
  435MOL0     H57386   5.148   8.575   9.585 -0.4135  2.7663 -0.0248
  435MOL0     H57387   5.115   8.447   9.456 -3.9089 -0.5925 -3.0453
  435MOL0     H57388   4.940   8.587   9.353 -3.2651  1.5820  0.1970
  435MOL0     H57389   4.995   8.718   9.453  2.0449 -0.0715  1.3165
  435MOL0     H57390   4.927   8.603   9.668  1.3852 -0.4274 -0.2385
  435MOL0     H57391   4.884   8.461   9.571  0.5148 -0.3434 -0.4801
  435MOL0     H57392   4.747   8.708   9.600  2.2013 -0.9135 -1.1231
  435MOL0     H57393   4.731   8.626   9.437  1.4268 -0.9259 -1.0696
  435MOL0     H57394   4.668   8.510   9.716  1.1994 -2.3739  0.5937
  435MOL0     H57395   4.656   8.415   9.573  1.1976 -0.1920  0.0489
  435MOL0     H57396   4.496   8.579   9.469  0.0011  0.0098  0.4774
  435MOL0     H57397   4.507   8.675   9.619 -1.7809  1.8912 -2.5030
  435MOL0     H57398   4.407   8.377   9.608 -0.3791 -0.5110 -3.5643
  435MOL0     H57399   4.422   8.477   9.756  0.5556  0.2327 -0.1069
  435MOL0     H57400   4.245   8.538   9.521  3.0050  2.9258 -1.5080
  435MOL0     H57401   4.271   8.654   9.640 -2.2295  0.4486  2.4165
  435MOL0     H57402   5.319   8.410   9.548 -0.3773  0.7306 -0.2618
  435MOL0     H57403   5.544   8.311   9.527 -2.8392  0.2652  0.8734
  435MOL0     H57404   6.086   8.551   9.368 -1.6680  1.2427 -2.1490
  435MOL0     H57405   6.300   8.435   9.304  1.3268 -1.3430 -2.2844
  435MOL0     H57406   7.807   7.673  10.019  1.1960  1.0956 -0.0015
  435MOL0     H57407   8.043   7.627  10.078 -2.4504 -1.4761 -0.1711
  435MOL0     H57408   8.466   7.522   9.788  1.5494 -0.8584  0.4483
  435MOL0     H57409   8.711   7.502   9.823 -1.1457 -0.7160  0.9752
  435MOL0     H57410   8.901   7.738  10.125 -1.2291 -0.7216 -1.5681
  435MOL0     H57411   8.951   7.842   9.992 -1.6614  0.4442  0.1390
  435MOL0     H57412   9.158   7.753  10.083  0.9765 -0.1384 -0.9402
  435MOL0     H57413   9.094   7.586  10.108 -0.7440  0.8301  0.7672
  435MOL0     H57414   9.125   7.706   9.828  0.2285  1.1462 -0.1051
  435MOL0     H57415   9.091   7.547   9.869  3.0288 -2.1349 -3.3836
  435MOL0     H57416   9.330   7.515   9.992  3.2585  0.9471 -0.1185
  435MOL0     H57417   9.333   7.533   9.816 -2.1856  0.1190 -1.2632
  435MOL0     H57418   9.549   7.867   9.935  0.5071 -0.2146  1.2799
  435MOL0     H57419   8.722   7.867  10.034  0.9722 -1.3099 -0.1446
  435MOL0     H57420   8.481   7.881  10.040 -1.4779 -1.8088  0.5100
  436MOL0     O57421  11.123   1.601   0.790 -0.0316 -0.2029  0.3226
  436MOL0     C57422  11.167   1.654   0.686  0.1858  0.3441 -0.2299
  436MOL0     O57423  11.101   1.659   0.565 -0.0669  0.3801  0.5960
  436MOL0     C57424  10.967   1.627   0.558 -0.8069 -0.0015 -0.3285
  436MOL0     C57425  10.930   1.499   0.590  0.1567 -0.2364  0.5096
  436MOL0     C57426  10.792   1.468   0.586  0.9083  0.1951 -0.0717
  436MOL0     C57427  10.700   1.576   0.568  0.3222  0.1631  0.0333
  436MOL0     O57428  10.567   1.541   0.572  0.6130 -0.1134 -0.2477
  436MOL0     C57429  10.473   1.645   0.620  0.6374  0.1564  0.9452
  436MOL0     C57430  10.341   1.569   0.651 -0.0135 -0.2009 -0.1086
  436MOL0     C57431  10.243   1.645   0.739 -0.4411 -0.5281 -0.5662
  436MOL0     C57432  10.106   1.571   0.741 -0.2810 -1.0157  0.2758
  436MOL0     C57433  10.001   1.638   0.830  0.0549 -0.3361 -0.3375
  436MOL0     C57434   9.874   1.557   0.832  0.6177  0.5170  0.3713
  436MOL0     C57435   9.768   1.626   0.930 -0.8278  0.5001 -0.3352
  436MOL0     C57436   9.625   1.559   0.933  0.0740 -0.7159 -0.1978
  436MOL0     N57437   9.569   1.545   0.793  0.2612  0.1201 -0.3156
  436MOL0     C57438   9.531   1.644   0.707 -0.2408  0.3315  0.1397
  436MOL0     C57439   9.448   1.582   0.622 -0.1739 -0.6589  0.6766
  436MOL0     C57440   9.354   1.655   0.525  0.6090  0.2547 -0.1728
  436MOL0     C57441   9.209   1.688   0.573 -0.7736  0.4632 -0.0388
  436MOL0     C57442   9.143   1.556   0.625  0.3276 -0.3224 -0.4897
  436MOL0     C57443   9.126   1.444   0.524  0.0846 -0.2080 -0.0767
  436MOL0     O57444   9.040   1.479   0.422  0.2098 -0.4954  0.2672
  436MOL0     C57445   9.033   1.405   0.307 -0.6591 -0.6428  0.1300
  436MOL0     C57446   9.102   1.286   0.274  0.6130 -0.2383  0.1786
  436MOL0     C57447   9.072   1.205   0.166  0.5933  0.3369 -0.7072
  436MOL0     C57448   8.969   1.244   0.072 -0.3473  0.9750 -0.5496
  436MOL0     C57449   8.928   1.160  -0.042  0.1497  0.8809  0.4938
  436MOL0     O57450   8.869   1.221  -0.147 -0.6650 -0.1481 -1.2019
  436MOL0     C57451   8.836   1.135  -0.245 -0.2488  0.6297  0.0936
  436MOL0     C57452   8.922   1.098  -0.349 -0.9186  0.7299 -0.0517
  436MOL0     C57453   8.871   1.018  -0.456  0.2992 -0.7024 -0.0435
  436MOL0     C57454   8.739   0.971  -0.453  0.2915 -0.3780 -0.7177
  436MOL0     O57455   8.681   0.890  -0.548 -0.4082  0.2733 -0.0276
  436MOL0     C57456   8.764   0.835  -0.659  0.5348 -0.2440 -0.0451
  436MOL0     C57457   8.695   0.722  -0.751 -0.7095  0.1694 -0.0202
  436MOL0     C57458   8.576   0.776  -0.833  0.3336  1.0583  0.5974
  436MOL0     C57459   8.508   0.654  -0.904 -0.1569 -0.4331  0.7666
  436MOL0     C57460   8.394   0.699  -1.002  0.0308  0.6321 -0.2418
  436MOL0     C57461   8.365   0.595  -1.116 -0.1404 -0.2278 -0.0493
  436MOL0     C57462   8.244   0.641  -1.198 -0.3836 -0.5024  0.2027
  436MOL0     C57463   8.180   0.530  -1.281 -0.0132 -0.0814 -0.4584
  436MOL0    Cl57464   8.021   0.478  -1.203 -0.3091 -0.0683 -0.0674
  436MOL0     C57465   8.658   1.007  -0.343  0.1439 -0.1022 -0.1870
  436MOL0     C57466   8.696   1.096  -0.243  0.8217  0.1251 -0.7659
  436MOL0     O57467   8.951   1.037  -0.031  1.2524  0.2454  0.7601
  436MOL0     C57468   8.903   1.364   0.097 -0.0567 -0.1720  0.2476
  436MOL0     C57469   8.940   1.444   0.216 -0.3533  0.6570  0.3014
  436MOL0     N57470   9.447   1.443   0.639 -0.2111 -0.0174 -0.4241
  436MOL0     N57471   9.540   1.429   0.738 -0.2187 -0.2529 -0.0831
  436MOL0     C57472  10.741   1.705   0.544  0.2110  0.0559  0.4100
  436MOL0     C57473  10.881   1.730   0.526 -0.4326  0.7571  0.1987
  436MOL0     C57474  11.299   1.716   0.697  0.3261 -0.7345  0.5240
  436MOL0     C57475  11.349   1.762   0.820 -0.6356 -0.6302  0.1298
  436MOL0     C57476  11.486   1.794   0.835  0.3080 -0.0935  0.0230
  436MOL0     C57477  11.570   1.805   0.730  0.2051 -0.1062 -0.1238
  436MOL0     O57478  11.701   1.820   0.753 -0.4119  0.2794 -0.6216
  436MOL0     C57479  11.785   1.864   0.642  0.0356  0.3050 -0.2102
  436MOL0     C57480  11.922   1.912   0.698 -0.0598 -1.0232 -0.4751
  436MOL0     C57481  12.002   1.970   0.577 -0.2315 -0.1380  0.2152
  436MOL0     C57482  12.131   2.041   0.604 -0.2115 -0.5321  0.1226
  436MOL0     C57483  12.228   1.968   0.687 -0.3643 -0.0196  0.4905
  436MOL0     C57484  12.307   1.921   0.767  0.6078  0.0867  0.0343
  436MOL0     C57485  11.515   1.767   0.608 -0.0420  1.2295  0.5170
  436MOL0     C57486  11.379   1.725   0.591 -0.5331 -0.6610  0.1405
  436MOL0     H57487  11.007   1.425   0.610  2.5180  2.3549  1.6959
  436MOL0     H57488  10.749   1.369   0.602 -1.1499  0.7474 -1.7344
  436MOL0     H57489  10.457   1.721   0.544 -1.1869  1.8230  2.8542
  436MOL0     H57490  10.510   1.690   0.712  1.2555 -0.9945  1.2843
  436MOL0     H57491  10.367   1.483   0.713 -2.4973  0.0151  1.3385
  436MOL0     H57492  10.298   1.534   0.557  0.7430 -2.8818  0.4720
  436MOL0     H57493  10.232   1.749   0.706  2.8809  0.0888 -0.0944
  436MOL0     H57494  10.275   1.664   0.842  2.1640 -0.4121 -1.3319
  436MOL0     H57495  10.073   1.571   0.637 -5.0708 -1.2324  1.5390
  436MOL0     H57496  10.121   1.471   0.782 -1.0447 -1.1433  0.2623
  436MOL0     H57497   9.980   1.732   0.778  0.3842 -0.6455 -1.0462
  436MOL0     H57498  10.042   1.654   0.930  3.4587  0.6362 -1.7356
  436MOL0     H57499   9.896   1.457   0.871  0.7016 -0.6558 -2.3903
  436MOL0     H57500   9.832   1.544   0.732 -1.8162 -0.3613  1.4424
  436MOL0     H57501   9.810   1.621   1.031 -0.7237 -2.0933 -0.4507
  436MOL0     H57502   9.761   1.732   0.905 -1.7494  1.4373  3.3309
  436MOL0     H57503   9.552   1.625   0.981 -0.2767 -1.6725  0.6138
  436MOL0     H57504   9.633   1.467   0.991 -2.2691 -0.2980  0.9175
  436MOL0     H57505   9.537   1.752   0.694 -0.5461  0.1257 -2.2974
  436MOL0     H57506   9.345   1.616   0.423  0.6023 -0.7291  0.1974
  436MOL0     H57507   9.401   1.752   0.505  1.0322 -0.4512 -3.0681
  436MOL0     H57508   9.152   1.735   0.492  2.6624  1.5157 -2.0986
  436MOL0     H57509   9.220   1.761   0.653  1.7869 -0.2753  0.3681
  436MOL0     H57510   9.196   1.510   0.709 -0.1101 -0.3361 -0.2174
  436MOL0     H57511   9.043   1.581   0.663  0.3215  0.5236 -1.0415
  436MOL0     H57512   9.078   1.360   0.575  1.1783 -0.7531  0.0933
  436MOL0     H57513   9.217   1.408   0.474 -0.9378 -1.0932 -1.3524
  436MOL0     H57514   9.187   1.256   0.333  0.8055  0.4290  0.2500
  436MOL0     H57515   9.129   1.112   0.165 -0.2998 -0.2222 -0.4108
  436MOL0     H57516   9.024   1.132  -0.361 -0.0293 -1.9149 -0.6155
  436MOL0     H57517   8.941   0.994  -0.535  1.6421  1.3483  0.4453
  436MOL0     H57518   8.857   0.794  -0.619  1.1000  0.3672 -0.7223
  436MOL0     H57519   8.783   0.915  -0.732  1.4240  1.5901  2.1003
  436MOL0     H57520   8.661   0.638  -0.690  1.3700 -0.7840 -0.1088
  436MOL0     H57521   8.772   0.677  -0.813 -1.9260  1.0908 -2.3323
  436MOL0     H57522   8.610   0.847  -0.909 -1.4568  2.1360  0.7616
  436MOL0     H57523   8.512   0.833  -0.766  0.9222  0.2642  1.8724
  436MOL0     H57524   8.585   0.609  -0.968 -0.3655  0.2169  0.0337
  436MOL0     H57525   8.468   0.581  -0.834 -0.3996 -3.3447 -2.1544
  436MOL0     H57526   8.426   0.796  -1.041  3.1019 -1.0088 -2.1483
  436MOL0     H57527   8.298   0.707  -0.950  0.2126  1.0216  0.0361
  436MOL0     H57528   8.344   0.501  -1.065 -0.4337  0.9724  2.1252
  436MOL0     H57529   8.451   0.580  -1.181  0.4381  0.2774  0.5891
  436MOL0     H57530   8.168   0.683  -1.131 -2.3361  0.0492 -2.1752
  436MOL0     H57531   8.275   0.726  -1.260  1.3851  0.1046  1.8203
  436MOL0     H57532   8.254   0.450  -1.283  1.5070  1.2441  0.4113
  436MOL0     H57533   8.146   0.563  -1.380  1.4805  0.9328 -0.6754
  436MOL0     H57534   8.561   0.960  -0.351 -0.5770  1.3818 -0.6195
  436MOL0     H57535   8.625   1.129  -0.167 -0.8298 -0.6044 -1.9362
  436MOL0     H57536   8.817   1.398   0.040 -1.0007  1.2609  2.4051
  436MOL0     H57537   8.886   1.537   0.227 -0.1926  0.9589 -1.2456
  436MOL0     H57538  10.669   1.778   0.506 -0.6481 -2.3192 -2.9561
  436MOL0     H57539  10.932   1.823   0.501  1.3258 -0.0687  0.4997
  436MOL0     H57540  11.287   1.752   0.909 -0.9023 -0.6668 -0.0611
  436MOL0     H57541  11.517   1.818   0.936  0.0039 -0.0458  0.1040
  436MOL0     H57542  11.737   1.952   0.598 -0.9723  0.0041  0.2540
  436MOL0     H57543  11.798   1.788   0.563 -1.2718  0.2116 -0.3573
  436MOL0     H57544  11.917   1.997   0.766  2.7194 -0.7262 -0.5287
  436MOL0     H57545  11.974   1.831   0.749 -1.2658  0.2120  3.0052
  436MOL0     H57546  11.935   2.034   0.519 -0.0621  2.1344  2.3394
  436MOL0     H57547  12.018   1.891   0.503 -0.3039  2.2818 -2.5857
  436MOL0     H57548  12.181   2.081   0.516  0.5642  0.4009  0.9577
  436MOL0     H57549  12.105   2.134   0.656 -0.6502  1.2274 -3.0198
  436MOL0     H57550  12.377   1.882   0.838  0.1152 -0.1838  0.3767
  436MOL0     H57551  11.574   1.774   0.517 -1.6767  4.7128 -0.4383
  436MOL0     H57552  11.348   1.708   0.488 -1.2552  0.2370  0.1982
  437MOL0     O57553   5.866   0.008   8.551  0.7446  0.5747 -0.2383
  437MOL0     C57554   5.828  -0.083   8.628  0.4727  0.4274  0.6053
  437MOL0     O57555   5.720  -0.088   8.702 -0.3446  0.1500  0.4912
  437MOL0     C57556   5.612   0.000   8.676 -0.2439 -0.0009 -0.1756
  437MOL0     C57557   5.529   0.031   8.779  0.5969 -0.6399 -0.0082
  437MOL0     C57558   5.419   0.119   8.750  0.8423  0.0719 -0.6659
  437MOL0     C57559   5.388   0.171   8.625  0.1623 -0.1132 -0.4973
  437MOL0     O57560   5.276   0.246   8.622 -0.1776 -0.3790  0.1038
  437MOL0     C57561   5.222   0.303   8.497 -0.1524 -0.0906 -0.4149
  437MOL0     C57562   5.234   0.461   8.519 -0.6797 -0.1490  0.1530
  437MOL0     C57563   5.156   0.536   8.418  0.2710 -0.1064  0.9848
  437MOL0     C57564   5.178   0.683   8.419  0.4556  0.2025  0.2383
  437MOL0     C57565   5.060   0.762   8.359 -0.9015 -1.2766 -0.2031
  437MOL0     C57566   5.075   0.907   8.416 -0.2282 -0.5395  0.0536
  437MOL0     C57567   4.952   0.991   8.382 -0.2831 -0.3448 -0.6040
  437MOL0     C57568   4.850   1.007   8.500 -0.2975 -0.3373  0.3260
  437MOL0     N57569   4.890   1.068   8.621 -1.1154 -0.5360  0.1084
  437MOL0     C57570   4.884   1.005   8.747  0.6474  0.3604  0.0923
  437MOL0     C57571   4.906   1.098   8.838 -0.0570 -0.1304 -0.3298
  437MOL0     C57572   4.932   1.068   8.985  0.7966 -0.5006  0.3077
  437MOL0     C57573   5.081   1.051   9.013  0.2383  0.0350 -0.9350
  437MOL0     C57574   5.102   0.974   9.151 -0.3067 -0.8687  0.8291
  437MOL0     C57575   5.048   1.062   9.265  0.3497  0.8678  0.2872
  437MOL0     O57576   5.098   1.192   9.262  0.3134 -0.2899 -0.2223
  437MOL0     C57577   5.100   1.258   9.383  0.2777  0.3256  0.5905
  437MOL0     C57578   5.178   1.372   9.388  1.1586  0.2931 -0.2574
  437MOL0     C57579   5.196   1.445   9.505  0.9626  0.4241  0.0202
  437MOL0     C57580   5.113   1.414   9.621 -0.2020  0.0782  0.1955
  437MOL0     C57581   5.123   1.496   9.741 -0.1471  0.2222  0.1378
  437MOL0     O57582   5.032   1.489   9.850 -0.3248  0.4196 -0.0830
  437MOL0     C57583   5.051   1.591   9.941 -0.6668  0.6569 -0.2389
  437MOL0     C57584   5.162   1.603  10.028 -0.3303 -0.0631 -0.1345
  437MOL0     C57585   5.163   1.711  10.118 -0.3685 -0.2162  0.1029
  437MOL0     C57586   5.051   1.799  10.132 -0.0627  0.5522 -0.6842
  437MOL0     O57587   5.058   1.902  10.215 -0.2808  0.2692  0.8038
  437MOL0     C57588   4.940   1.903  10.293  0.4102 -0.4105  0.0655
  437MOL0     C57589   4.968   1.977  10.422  0.2518 -0.1401  0.7648
  437MOL0     C57590   5.099   1.933  10.488  0.6586 -0.6992 -0.4354
  437MOL0     C57591   5.106   2.013  10.622  0.6245  1.0603 -0.0006
  437MOL0     C57592   5.214   1.957  10.725  0.9505  0.4774  0.0272
  437MOL0     C57593   5.175   1.818  10.780 -0.8271 -0.4242  0.0890
  437MOL0     C57594   5.254   1.785  10.912  0.4271  0.4275 -0.2943
  437MOL0     C57595   5.239   1.632  10.951 -0.2670 -0.2711  0.2745
  437MOL0    Cl57596   5.327   1.601  11.106 -0.6508  0.2374 -0.3939
  437MOL0     C57597   4.941   1.786  10.047  0.2762 -0.3769 -0.1615
  437MOL0     C57598   4.946   1.691   9.952  0.5816 -0.0040  0.8813
  437MOL0     O57599   5.215   1.575   9.729 -0.5675 -0.3616  0.4974
  437MOL0     C57600   5.020   1.307   9.606  0.6567 -0.0136 -0.3526
  437MOL0     C57601   5.015   1.227   9.490  1.0253 -0.4068 -0.9243
  437MOL0     N57602   4.939   1.213   8.764  0.4965  0.6496 -0.5834
  437MOL0     N57603   4.935   1.196   8.638  0.5968 -0.0522 -0.2012
  437MOL0     C57604   5.468   0.130   8.527 -0.2174  0.5703  0.2835
  437MOL0     C57605   5.572   0.041   8.550 -1.0194 -0.5334  0.2241
  437MOL0     C57606   5.927  -0.184   8.656 -0.2530  0.4236  0.6950
  437MOL0     C57607   5.913  -0.281   8.756  0.4541  0.6226 -0.0666
  437MOL0     C57608   6.015  -0.376   8.781  0.4101 -0.1463  0.4276
  437MOL0     C57609   6.134  -0.369   8.709 -0.6123  0.0413 -0.0934
  437MOL0     O57610   6.224  -0.473   8.731 -0.0240 -0.0207 -0.0714
  437MOL0     C57611   6.337  -0.481   8.644  0.6665 -0.1433 -0.7651
  437MOL0     C57612   6.428  -0.592   8.694  0.2327  0.4088 -0.0671
  437MOL0     C57613   6.561  -0.602   8.610 -0.1721  0.2238  0.0750
  437MOL0     C57614   6.650  -0.720   8.662 -0.1546 -0.4760  0.4438
  437MOL0     C57615   6.770  -0.732   8.569 -0.0397 -0.1072 -0.1550
  437MOL0     C57616   6.879  -0.738   8.524  0.1789 -0.3724  0.1325
  437MOL0     C57617   6.148  -0.267   8.612  0.4603  0.6356 -0.1039
  437MOL0     C57618   6.049  -0.178   8.583  0.0518 -0.0658 -0.6661
  437MOL0     H57619   5.562  -0.014   8.872 -0.3185  1.5971  1.4733
  437MOL0     H57620   5.353   0.134   8.835 -1.3294 -0.8940 -2.0943
  437MOL0     H57621   5.114   0.288   8.487 -0.5475  2.4324 -0.4240
  437MOL0     H57622   5.269   0.276   8.402 -1.0112 -0.4113 -0.7636
  437MOL0     H57623   5.337   0.499   8.513 -0.9565  0.7356  0.7031
  437MOL0     H57624   5.190   0.497   8.613  0.3134  2.8974 -0.4307
  437MOL0     H57625   5.052   0.513   8.439  0.4597 -0.4615  1.5596
  437MOL0     H57626   5.183   0.500   8.318 -0.6299  0.3419  0.5708
  437MOL0     H57627   5.199   0.720   8.520 -0.3295  0.6984  0.2314
  437MOL0     H57628   5.266   0.699   8.357  0.8871  0.0758  0.8052
  437MOL0     H57629   4.958   0.736   8.387 -0.9610  0.1866  1.0857
  437MOL0     H57630   5.070   0.771   8.250 -1.1057  2.6312 -0.0548
  437MOL0     H57631   5.162   0.958   8.374 -0.8289  0.8918  0.4667
  437MOL0     H57632   5.094   0.915   8.523  1.9651 -2.4510 -0.1239
  437MOL0     H57633   4.989   1.090   8.351  1.0146 -0.9492 -1.0696
  437MOL0     H57634   4.898   0.948   8.297 -2.3564 -1.0567  1.0160
  437MOL0     H57635   4.805   0.915   8.538  1.2603 -0.9196  0.8446
  437MOL0     H57636   4.766   1.063   8.458  0.1268  0.0837  0.0370
  437MOL0     H57637   4.868   0.900   8.768  0.0899 -0.1424 -2.4799
  437MOL0     H57638   4.872   0.983   9.021  0.1422  0.7239  2.2924
  437MOL0     H57639   4.906   1.152   9.051  3.0470 -0.2107  0.8969
  437MOL0     H57640   5.127   1.150   9.022 -2.0626  1.0771  0.2899
  437MOL0     H57641   5.126   0.996   8.930  0.1661 -1.4896 -0.0095
  437MOL0     H57642   5.054   0.876   9.153 -1.4530 -0.5170 -2.7677
  437MOL0     H57643   5.210   0.958   9.144 -0.8165 -4.5059 -0.4476
  437MOL0     H57644   5.071   1.002   9.353 -1.4730 -2.9922 -1.5963
  437MOL0     H57645   4.939   1.067   9.267  0.0899 -0.9145 -2.8091
  437MOL0     H57646   5.237   1.396   9.300  1.3489 -1.2702 -0.5832
  437MOL0     H57647   5.282   1.512   9.506 -0.3313  2.1648  1.4228
  437MOL0     H57648   5.256   1.548  10.019  0.6947  1.2047  1.8614
  437MOL0     H57649   5.257   1.726  10.169  0.4726  0.0942 -1.4577
  437MOL0     H57650   4.915   1.799  10.317 -2.6097 -0.0665 -1.2156
  437MOL0     H57651   4.857   1.949  10.239  1.5881  1.9984  0.1629
  437MOL0     H57652   4.877   1.952  10.477 -1.2859 -0.7477 -1.8914
  437MOL0     H57653   4.970   2.082  10.391  0.5096 -0.8006 -1.7066
  437MOL0     H57654   5.172   1.959  10.412  0.2624 -0.7592 -0.8382
  437MOL0     H57655   5.092   1.824  10.501 -0.2990 -0.5575  0.4568
  437MOL0     H57656   5.122   2.120  10.609  2.3724  1.0185  1.4511
  437MOL0     H57657   5.009   2.015  10.672 -0.5490 -0.9965 -1.9920
  437MOL0     H57658   5.226   2.028  10.807  0.3307  1.4827 -0.7357
  437MOL0     H57659   5.306   1.975  10.670  1.2058  3.3530  1.2020
  437MOL0     H57660   5.201   1.751  10.697  0.7424  2.8789 -2.3402
  437MOL0     H57661   5.070   1.822  10.810 -0.6000 -0.0269  0.8712
  437MOL0     H57662   5.360   1.798  10.888  0.2750  0.3607 -1.0341
  437MOL0     H57663   5.221   1.851  10.993  2.0613  0.9200 -0.0059
  437MOL0     H57664   5.281   1.577  10.867  1.3005  1.4952 -0.1730
  437MOL0     H57665   5.134   1.609  10.970 -0.2228 -0.4655  0.2791
  437MOL0     H57666   4.852   1.847  10.043  1.2863  1.1335 -3.2352
  437MOL0     H57667   4.859   1.689   9.887  2.0103  1.7571 -1.2437
  437MOL0     H57668   4.948   1.285   9.685 -1.5568  3.5838 -1.1210
  437MOL0     H57669   4.940   1.148   9.487 -1.1933  1.3320  2.1339
  437MOL0     H57670   5.446   0.150   8.423 -0.6102 -5.3665 -1.1305
  437MOL0     H57671   5.624   0.006   8.461  0.8526 -1.0824  1.4615
  437MOL0     H57672   5.827  -0.291   8.821 -0.1651  0.5450 -0.8715
  437MOL0     H57673   6.003  -0.462   8.847  0.5221 -1.1890 -0.8737
  437MOL0     H57674   6.394  -0.388   8.648 -0.2737  0.4063  0.6264
  437MOL0     H57675   6.294  -0.494   8.544  0.2883 -0.0311 -0.6188
  437MOL0     H57676   6.454  -0.573   8.798  2.2091 -0.9596 -0.2456
  437MOL0     H57677   6.370  -0.684   8.696 -0.4608  0.6688 -3.2409
  437MOL0     H57678   6.620  -0.510   8.619  2.4457 -1.0693 -2.1423
  437MOL0     H57679   6.538  -0.616   8.504  2.1286 -2.6804 -0.1778
  437MOL0     H57680   6.691  -0.702   8.762 -0.0361 -1.4764  0.5877
  437MOL0     H57681   6.594  -0.814   8.667 -2.3436  0.8390  3.0090
  437MOL0     H57682   6.976  -0.732   8.478 -0.0098  0.8397 -0.1366
  437MOL0     H57683   6.245  -0.270   8.563 -0.4915  0.6765 -2.1116
  437MOL0     H57684   6.070  -0.117   8.496 -0.3666 -0.3020 -0.9384
  438MOL0     O57685   6.951   0.185   3.324  0.1832  0.4346  0.1623
  438MOL0     C57686   6.954   0.214   3.445  0.5295  0.8933 -0.1372
  438MOL0     O57687   6.858   0.190   3.534  0.3781 -0.8442  0.7616
  438MOL0     C57688   6.735   0.146   3.488 -0.4983  0.0675 -0.1162
  438MOL0     C57689   6.655   0.238   3.427 -0.2052 -0.1061  0.8419
  438MOL0     C57690   6.541   0.191   3.356 -0.0610  0.5991 -0.8157
  438MOL0     C57691   6.500   0.054   3.370 -0.7357 -0.1375 -0.5142
  438MOL0     O57692   6.383   0.005   3.331 -0.3988  0.8678  0.0322
  438MOL0     C57693   6.292   0.087   3.257  0.2425 -0.5392 -0.3269
  438MOL0     C57694   6.181   0.006   3.208 -0.2331  0.9615  0.1818
  438MOL0     C57695   6.104  -0.075   3.314 -0.3485  0.4166  0.4584
  438MOL0     C57696   5.997  -0.167   3.253 -0.1232 -0.6579  0.1737
  438MOL0     C57697   5.921  -0.250   3.358 -0.3037  0.2739  0.1926
  438MOL0     C57698   6.012  -0.309   3.474 -0.0598  0.2095 -0.7176
  438MOL0     C57699   5.928  -0.416   3.554  0.3673  0.1210 -0.3129
  438MOL0     C57700   6.019  -0.518   3.633  0.0570 -0.8476 -0.4044
  438MOL0     N57701   5.930  -0.599   3.716  0.3738 -0.3645 -0.2356
  438MOL0     C57702   5.817  -0.672   3.666 -0.1523 -0.6839 -0.1382
  438MOL0     C57703   5.774  -0.744   3.773 -0.4372 -0.2388  0.0278
  438MOL0     C57704   5.656  -0.838   3.764  0.4174  0.2087  0.1739
  438MOL0     C57705   5.668  -0.949   3.654 -0.7642  0.1796  0.6378
  438MOL0     C57706   5.773  -1.060   3.686  0.6015  0.2333  0.3414
  438MOL0     C57707   5.918  -1.020   3.687 -0.6097 -0.6487  0.4878
  438MOL0     O57708   5.957  -0.969   3.561 -0.3644 -0.1685 -0.5893
  438MOL0     C57709   6.087  -0.930   3.545 -0.3530  0.1788  0.7233
  438MOL0     C57710   6.156  -0.849   3.629 -0.4052  0.0621  0.0602
  438MOL0     C57711   6.276  -0.793   3.588  0.8447  0.2364  0.3833
  438MOL0     C57712   6.334  -0.817   3.462 -0.0973 -0.6898 -0.5024
  438MOL0     C57713   6.470  -0.767   3.426  0.1885 -0.1488 -0.6434
  438MOL0     O57714   6.534  -0.685   3.525 -0.3413 -0.7991  0.0000
  438MOL0     C57715   6.657  -0.641   3.473 -0.4654 -0.2139 -0.6002
  438MOL0     C57716   6.786  -0.698   3.490  0.0595  0.9959 -0.7140
  438MOL0     C57717   6.898  -0.637   3.445 -0.5459  0.1229  0.1483
  438MOL0     C57718   6.895  -0.524   3.367  0.4370 -0.5981  0.4962
  438MOL0     O57719   6.999  -0.454   3.301  0.6535  0.1867 -0.5055
  438MOL0     C57720   7.122  -0.430   3.369 -1.1931 -0.4968  0.2150
  438MOL0     C57721   7.104  -0.305   3.455  0.1381 -0.2322 -0.4619
  438MOL0     C57722   7.242  -0.257   3.514 -0.2802  0.1746 -0.1920
  438MOL0     C57723   7.254  -0.110   3.526  0.0300  0.3151 -0.0091
  438MOL0     C57724   7.376  -0.069   3.599 -0.6819 -0.6548 -0.5030
  438MOL0     C57725   7.497  -0.088   3.500 -0.3551  0.2347 -0.0375
  438MOL0     C57726   7.622  -0.014   3.546  0.8753 -0.0524  0.1394
  438MOL0     C57727   7.666  -0.077   3.683  0.4110 -0.4629  0.1432
  438MOL0    Cl57728   7.735  -0.239   3.666 -0.1667 -0.0321  0.2448
  438MOL0     C57729   6.763  -0.464   3.348  0.0145  0.8736 -0.3326
  438MOL0     C57730   6.647  -0.525   3.404  0.5088 -0.4622 -0.5610
  438MOL0     O57731   6.503  -0.780   3.312 -0.3032 -0.4283 -0.0041
  438MOL0     C57732   6.248  -0.885   3.371  0.8203 -0.1147 -0.4104
  438MOL0     C57733   6.125  -0.932   3.413  0.5605 -0.1117 -0.1467
  438MOL0     N57734   5.855  -0.717   3.881 -0.0660 -0.3540 -0.1012
  438MOL0     N57735   5.939  -0.624   3.845  0.0901 -0.0591  0.0652
  438MOL0     C57736   6.587  -0.034   3.430 -0.4525  0.0807 -0.6883
  438MOL0     C57737   6.701   0.009   3.495  0.2314 -0.0549  0.7451
  438MOL0     C57738   7.091   0.248   3.497  0.5162  0.3056  0.1481
  438MOL0     C57739   7.205   0.248   3.417 -0.9606  0.0340  0.3205
  438MOL0     C57740   7.320   0.297   3.462 -0.3754 -0.0562 -1.0979
  438MOL0     C57741   7.333   0.348   3.590  0.4377  0.0444  0.7890
  438MOL0     O57742   7.456   0.402   3.627 -0.1943 -0.0474 -0.3493
  438MOL0     C57743   7.460   0.504   3.728 -0.3699 -0.2188 -0.8231
  438MOL0     C57744   7.600   0.563   3.738 -0.1071  0.3814 -0.2203
  438MOL0     C57745   7.623   0.665   3.622 -0.2756  0.3410 -0.3113
  438MOL0     C57746   7.774   0.710   3.624 -0.7640  0.1271  0.3881
  438MOL0     C57747   7.804   0.785   3.499 -0.3087  0.9417 -0.3415
  438MOL0     C57748   7.818   0.877   3.422 -0.8590 -0.0719  0.3150
  438MOL0     C57749   7.226   0.344   3.683  0.2560  0.8556 -0.0102
  438MOL0     C57750   7.109   0.282   3.632  0.2854 -0.1244  0.2296
  438MOL0     H57751   6.678   0.344   3.423 -0.5616 -0.0632 -1.4047
  438MOL0     H57752   6.493   0.264   3.292  1.3955  1.7480 -0.6437
  438MOL0     H57753   6.349   0.129   3.173  1.3913  0.7980  1.0770
  438MOL0     H57754   6.251   0.174   3.308 -0.1533 -0.1964 -1.2094
  438MOL0     H57755   6.217  -0.067   3.135  0.7071  2.1994 -0.6363
  438MOL0     H57756   6.112   0.071   3.155  0.3884  0.7708 -0.8887
  438MOL0     H57757   6.064  -0.008   3.391 -0.4052  1.0444 -0.1015
  438MOL0     H57758   6.167  -0.137   3.377 -0.9840 -2.4354 -1.4999
  438MOL0     H57759   5.936  -0.104   3.187  1.8017  2.1365  0.8448
  438MOL0     H57760   6.041  -0.240   3.185  0.3140  0.2020 -0.4906
  438MOL0     H57761   5.863  -0.331   3.314 -1.2304  0.7016  0.5918
  438MOL0     H57762   5.851  -0.181   3.406  0.3076  1.8481 -1.0913
  438MOL0     H57763   6.053  -0.225   3.530  0.0963  1.3273 -2.4225
  438MOL0     H57764   6.097  -0.357   3.424  1.5750  1.6326  0.5544
  438MOL0     H57765   5.855  -0.369   3.621 -0.4833 -2.9424  1.0862
  438MOL0     H57766   5.875  -0.467   3.473 -1.7267  2.5782 -0.6143
  438MOL0     H57767   6.088  -0.460   3.694 -0.2970  1.2671 -1.8964
  438MOL0     H57768   6.069  -0.582   3.560 -1.2692 -1.6284 -0.6742
  438MOL0     H57769   5.774  -0.683   3.567 -0.4750  1.0528 -0.2226
  438MOL0     H57770   5.565  -0.790   3.728  1.9567  1.8731 -1.6508
  438MOL0     H57771   5.632  -0.888   3.859  0.7331 -1.3496 -0.5411
  438MOL0     H57772   5.691  -0.897   3.560 -0.6941  1.1220  1.1615
  438MOL0     H57773   5.570  -0.997   3.644  1.0126 -3.7256  0.0121
  438MOL0     H57774   5.765  -1.085   3.793 -1.3778  0.9434  0.3894
  438MOL0     H57775   5.751  -1.145   3.622 -2.1408 -1.7567  3.5895
  438MOL0     H57776   5.984  -1.104   3.713  3.4563  2.2674  0.5322
  438MOL0     H57777   5.936  -0.952   3.770  3.9182 -0.4442 -0.4274
  438MOL0     H57778   6.126  -0.832   3.732 -0.7932 -1.3863  0.2131
  438MOL0     H57779   6.331  -0.740   3.665  0.7797  0.6785  0.1304
  438MOL0     H57780   6.788  -0.796   3.538 -0.8528  0.9477 -0.7562
  438MOL0     H57781   6.987  -0.696   3.467 -1.0641 -0.7968 -0.1729
  438MOL0     H57782   7.205  -0.413   3.299 -2.3380  0.2669 -1.0152
  438MOL0     H57783   7.153  -0.503   3.444  1.2786  1.1357  0.9404
  438MOL0     H57784   7.035  -0.319   3.538 -0.3458  0.6756 -0.6956
  438MOL0     H57785   7.057  -0.225   3.397  0.5483 -2.1486 -3.6714
  438MOL0     H57786   7.325  -0.299   3.455  0.7589  1.5167  0.2567
  438MOL0     H57787   7.261  -0.286   3.618 -1.7074  2.0200  0.6447
  438MOL0     H57788   7.246  -0.065   3.426 -3.3270 -0.4587 -0.2357
  438MOL0     H57789   7.163  -0.081   3.580  1.7211 -0.1670  3.3148
  438MOL0     H57790   7.382  -0.128   3.690 -3.1533 -0.6486 -0.2589
  438MOL0     H57791   7.363   0.036   3.626 -1.7238 -1.1292  0.9589
  438MOL0     H57792   7.469  -0.035   3.409 -2.5655 -2.8049 -1.2666
  438MOL0     H57793   7.521  -0.191   3.474 -1.1364 -0.0726  0.4136
  438MOL0     H57794   7.700  -0.031   3.471 -1.9803 -1.7641 -2.7049
  438MOL0     H57795   7.614   0.094   3.562  0.7329 -0.3917  2.8356
  438MOL0     H57796   7.585  -0.096   3.753 -1.1703 -1.1365 -1.7873
  438MOL0     H57797   7.745  -0.005   3.709 -0.0594  0.1263 -0.0384
  438MOL0     H57798   6.757  -0.370   3.294 -0.2016  0.8917 -0.2775
  438MOL0     H57799   6.552  -0.474   3.394  0.1090 -1.2688 -0.9860
  438MOL0     H57800   6.280  -0.888   3.267 -2.5004 -1.1904 -1.5084
  438MOL0     H57801   6.057  -0.960   3.334  1.4193  0.1794 -1.0103
  438MOL0     H57802   6.566  -0.138   3.406 -1.2744 -0.9157  3.4412
  438MOL0     H57803   6.775  -0.058   3.537 -0.9077 -0.5116  2.1081
  438MOL0     H57804   7.198   0.223   3.312  1.4183  2.5710 -0.5563
  438MOL0     H57805   7.412   0.306   3.405 -0.7136  1.9223 -1.3896
  438MOL0     H57806   7.444   0.451   3.822  1.2125  0.5541 -0.0841
  438MOL0     H57807   7.387   0.585   3.716 -1.5143 -1.0072  0.5575
  438MOL0     H57808   7.614   0.625   3.828 -2.9464 -1.6600  1.8058
  438MOL0     H57809   7.677   0.485   3.734  0.9542  1.4544 -1.3761
  438MOL0     H57810   7.554   0.750   3.622  1.6180  1.9921 -1.8703
  438MOL0     H57811   7.608   0.598   3.536 -1.7280 -1.0385  0.9537
  438MOL0     H57812   7.800   0.775   3.708  2.8581 -2.0996  1.1739
  438MOL0     H57813   7.845   0.627   3.620  1.9894  2.3369  0.5199
  438MOL0     H57814   7.837   0.955   3.351 -3.0201 -0.1375 -0.4157
  438MOL0     H57815   7.232   0.382   3.785 -2.8284  0.9148  0.2674
  438MOL0     H57816   7.019   0.290   3.693 -1.2828 -1.8789 -1.6618
  439MOL0     O57817   4.583   7.050   2.450 -0.0236  0.0011  0.4127
  439MOL0     C57818   4.626   6.940   2.433 -0.0888 -0.1245 -1.0505
  439MOL0     O57819   4.574   6.829   2.494  0.7381  0.2828  0.1312
  439MOL0     C57820   4.463   6.851   2.573  0.2122  0.0895 -1.1796
  439MOL0     C57821   4.360   6.767   2.548  0.1079 -0.2597 -0.2341
  439MOL0     C57822   4.242   6.755   2.633 -0.1253 -1.1224 -0.0618
  439MOL0     C57823   4.236   6.843   2.743 -0.5031 -0.0932  0.6733
  439MOL0     O57824   4.132   6.830   2.832  0.1290  0.1675  0.0646
  439MOL0     C57825   4.152   6.760   2.955  0.0256  0.1270 -0.0248
  439MOL0     C57826   4.008   6.712   2.990 -0.9232  0.2396  0.0051
  439MOL0     C57827   3.966   6.587   2.914  0.2548  0.3237  0.4923
  439MOL0     C57828   3.823   6.546   2.963  0.1867  0.6692 -0.0907
  439MOL0     C57829   3.760   6.443   2.875  0.5736  0.6029  0.2808
  439MOL0     C57830   3.621   6.396   2.932 -0.6980 -0.2154 -0.4382
  439MOL0     C57831   3.582   6.278   2.845  0.3482 -0.7676  0.1927
  439MOL0     C57832   3.450   6.213   2.880  0.1951 -0.1483 -1.1719
  439MOL0     N57833   3.331   6.306   2.877 -0.6407  0.3338 -0.7105
  439MOL0     C57834   3.271   6.337   2.757  0.3354 -0.6324 -0.1072
  439MOL0     C57835   3.170   6.428   2.785 -0.6781 -0.0802  0.3802
  439MOL0     C57836   3.085   6.494   2.682  0.6485  0.0551 -0.0769
  439MOL0     C57837   2.943   6.509   2.738  0.4748  0.5092  0.3595
  439MOL0     C57838   2.860   6.555   2.621  0.0695  0.3659  0.7206
  439MOL0     C57839   2.726   6.586   2.668  0.4726 -1.3676  0.3062
  439MOL0     O57840   2.659   6.612   2.544 -0.4556  0.4875 -0.1909
  439MOL0     C57841   2.521   6.644   2.544 -0.1213  0.1241  0.1721
  439MOL0     C57842   2.473   6.687   2.421 -0.0394 -0.4949  0.6583
  439MOL0     C57843   2.339   6.715   2.403  0.6076 -0.6015 -0.3014
  439MOL0     C57844   2.252   6.708   2.513  0.1723 -0.8785 -0.7721
  439MOL0     C57845   2.107   6.753   2.508  0.8031 -0.9224 -0.0967
  439MOL0     O57846   2.060   6.795   2.380 -0.0443  0.3338 -0.6286
  439MOL0     C57847   1.925   6.798   2.350  0.2854 -0.2400 -0.1674
  439MOL0     C57848   1.815   6.812   2.436 -0.3773 -0.9850  0.6780
  439MOL0     C57849   1.683   6.825   2.388  0.0640 -0.0777 -0.4350
  439MOL0     C57850   1.653   6.813   2.259 -0.4393 -0.2461  0.0602
  439MOL0     O57851   1.525   6.830   2.217 -0.8881 -0.5167  0.0020
  439MOL0     C57852   1.505   6.822   2.077  0.5172  0.2525  0.3684
  439MOL0     C57853   1.363   6.862   2.041  0.3202  0.3157  0.6365
  439MOL0     C57854   1.334   6.849   1.890 -0.1136  0.1870  0.2877
  439MOL0     C57855   1.186   6.870   1.856 -0.2098  0.0459  0.4704
  439MOL0     C57856   1.164   6.900   1.714  0.1944 -0.0281 -0.2780
  439MOL0     C57857   1.009   6.863   1.681 -0.2133 -0.7112  0.2067
  439MOL0     C57858   0.987   6.848   1.531 -0.0446  0.3933 -0.5161
  439MOL0     C57859   0.840   6.816   1.508  0.4152 -0.3496  0.0178
  439MOL0    Cl57860   0.797   6.838   1.342 -0.3610  0.2107 -0.0947
  439MOL0     C57861   1.758   6.773   2.164  0.7905  0.6509 -0.1453
  439MOL0     C57862   1.890   6.776   2.211 -0.8924  0.1889 -0.4141
  439MOL0     O57863   2.040   6.741   2.611  0.2444 -0.1549 -0.5764
  439MOL0     C57864   2.302   6.660   2.635 -0.0679  0.0851  0.4454
  439MOL0     C57865   2.435   6.634   2.654 -0.0810 -0.4290  0.3528
  439MOL0     N57866   3.192   6.462   2.914  0.0905  0.2722 -0.3952
  439MOL0     N57867   3.280   6.388   2.967 -0.7810 -0.4203 -0.0675
  439MOL0     C57868   4.354   6.912   2.771 -0.1923 -0.4302  0.0353
  439MOL0     C57869   4.466   6.922   2.693  0.0449  0.1765 -0.2369
  439MOL0     C57870   4.754   6.920   2.357  1.6849 -0.8914 -0.2760
  439MOL0     C57871   4.829   7.033   2.311  0.1865  0.8876  0.4892
  439MOL0     C57872   4.967   7.023   2.279  0.5571 -0.4850  0.0523
  439MOL0     C57873   5.030   6.893   2.288  0.3906  0.2373  0.3857
  439MOL0     O57874   5.169   6.873   2.267 -0.2076  0.3267 -0.3320
  439MOL0     C57875   5.242   6.991   2.216  0.0213 -0.4186  0.5786
  439MOL0     C57876   5.393   6.953   2.180 -0.0810  0.5764 -0.0915
  439MOL0     C57877   5.476   7.070   2.122 -0.6164  0.1504  0.4949
  439MOL0     C57878   5.576   7.013   2.022 -0.3531 -0.0942 -0.1645
  439MOL0     C57879   5.651   6.890   2.052  0.7062  0.9388 -0.1776
  439MOL0     C57880   5.699   6.785   2.090 -0.1693  1.5995  0.0772
  439MOL0     C57881   4.961   6.786   2.336 -0.0635  0.6629  0.5773
  439MOL0     C57882   4.823   6.792   2.361 -0.1841  0.1590  0.1589
  439MOL0     H57883   4.381   6.701   2.464  3.8567 -1.7398  1.6565
  439MOL0     H57884   4.169   6.676   2.613 -0.2398 -0.9519 -0.3092
  439MOL0     H57885   4.192   6.828   3.031 -0.2285  1.6493 -1.1987
  439MOL0     H57886   4.213   6.670   2.939 -1.6398 -1.0232 -0.0888
  439MOL0     H57887   3.937   6.794   2.977 -0.9859  0.2787  0.5815
  439MOL0     H57888   4.017   6.685   3.095 -1.9490 -1.7948 -0.3606
  439MOL0     H57889   4.043   6.511   2.925  0.3114  0.1972 -0.6297
  439MOL0     H57890   3.959   6.618   2.809  2.4946  2.6588  0.9355
  439MOL0     H57891   3.833   6.503   3.063 -0.9580 -1.2653 -0.7583
  439MOL0     H57892   3.755   6.632   2.971  0.8859  1.0914  2.3231
  439MOL0     H57893   3.834   6.364   2.860  0.0995  0.2107 -0.0447
  439MOL0     H57894   3.735   6.479   2.775 -1.2979 -1.1129  0.0518
  439MOL0     H57895   3.548   6.476   2.914  1.6472  1.5838 -2.8494
  439MOL0     H57896   3.632   6.358   3.034 -1.8156 -0.9125 -0.5618
  439MOL0     H57897   3.573   6.317   2.743  3.3812 -0.8389 -0.2183
  439MOL0     H57898   3.660   6.202   2.857  0.1943 -1.1366 -1.0432
  439MOL0     H57899   3.454   6.170   2.980 -2.1656  1.6707 -0.2040
  439MOL0     H57900   3.439   6.131   2.808  1.5175 -2.4648  1.1220
  439MOL0     H57901   3.290   6.301   2.656  2.0282  0.1193 -0.0845
  439MOL0     H57902   3.089   6.426   2.596  1.6395 -0.8315  0.6380
  439MOL0     H57903   3.143   6.586   2.663 -0.0211  0.8871  1.6937
  439MOL0     H57904   2.931   6.581   2.820 -1.0903  1.4262 -0.6175
  439MOL0     H57905   2.911   6.409   2.768  0.5857  0.6919  1.0978
  439MOL0     H57906   2.909   6.644   2.579  1.4109  0.8372  3.1195
  439MOL0     H57907   2.859   6.473   2.549  0.0544  1.0500 -0.0821
  439MOL0     H57908   2.724   6.668   2.741 -0.7016  0.9608 -2.1485
  439MOL0     H57909   2.695   6.492   2.713 -2.7179 -1.0425 -0.8705
  439MOL0     H57910   2.531   6.712   2.333  0.3051  1.3221  1.3441
  439MOL0     H57911   2.306   6.761   2.311 -1.7410  2.7257  1.9379
  439MOL0     H57912   1.845   6.824   2.539 -0.4801 -4.3778  1.1986
  439MOL0     H57913   1.617   6.855   2.468 -1.4392  0.6167 -1.8712
  439MOL0     H57914   1.530   6.725   2.033 -0.9968 -0.1726  0.3822
  439MOL0     H57915   1.567   6.903   2.038 -2.5896  2.7768  0.3131
  439MOL0     H57916   1.346   6.965   2.075  1.0484  1.8208 -3.0789
  439MOL0     H57917   1.298   6.791   2.093 -0.4789  0.7762  0.2870
  439MOL0     H57918   1.370   6.753   1.851 -1.7966  0.1006 -1.1730
  439MOL0     H57919   1.383   6.932   1.839 -1.1492  0.5551 -0.1344
  439MOL0     H57920   1.126   6.780   1.875 -1.7288  0.5734 -1.4709
  439MOL0     H57921   1.148   6.948   1.922  0.7421  0.2979  0.7489
  439MOL0     H57922   1.233   6.833   1.661 -0.0392 -1.3373  1.0037
  439MOL0     H57923   1.186   7.005   1.692  0.7219 -0.0088  0.3368
  439MOL0     H57924   0.936   6.930   1.726 -0.8279 -2.5545  2.1448
  439MOL0     H57925   0.987   6.764   1.723  0.3631 -0.3108  1.5056
  439MOL0     H57926   1.016   6.939   1.478  0.1590  0.1114 -0.8882
  439MOL0     H57927   1.053   6.771   1.491  1.1277  0.4909  1.1213
  439MOL0     H57928   0.781   6.887   1.566 -0.5119  1.7581 -3.2467
  439MOL0     H57929   0.832   6.709   1.530  6.0382 -1.4377 -1.5234
  439MOL0     H57930   1.748   6.752   2.058  0.9417 -1.0043  0.1519
  439MOL0     H57931   1.971   6.770   2.139 -0.5352  1.2295 -0.1112
  439MOL0     H57932   2.234   6.657   2.719 -0.5379  0.0387  0.0691
  439MOL0     H57933   2.469   6.606   2.753  0.7318 -0.6034  0.0330
  439MOL0     H57934   4.359   6.970   2.862 -1.0836  0.9388 -0.7499
  439MOL0     H57935   4.546   6.993   2.714 -1.3485  1.7960 -0.0968
  439MOL0     H57936   4.783   7.131   2.305  1.8900  1.6676 -1.1649
  439MOL0     H57937   5.018   7.113   2.246 -2.8912  1.8670  0.6242
  439MOL0     H57938   5.239   7.068   2.294  2.1320  0.2772  0.0225
  439MOL0     H57939   5.188   7.026   2.127 -2.2018  0.0365  2.0312
  439MOL0     H57940   5.440   6.926   2.275 -1.5703 -0.7316  0.3327
  439MOL0     H57941   5.398   6.875   2.104 -0.5094  0.6183 -0.1678
  439MOL0     H57942   5.529   7.116   2.206 -1.2304 -0.7682  1.3945
  439MOL0     H57943   5.419   7.149   2.071 -0.6085 -0.6545 -0.8129
  439MOL0     H57944   5.532   6.999   1.923 -0.3920 -2.5121  0.1439
  439MOL0     H57945   5.656   7.085   2.003 -1.5206  1.3467  0.2073
  439MOL0     H57946   5.743   6.717   2.160 -2.2714  1.0364  0.9113
  439MOL0     H57947   5.014   6.692   2.347  1.7280  1.7109  1.4465
  439MOL0     H57948   4.779   6.698   2.395  0.7263  0.0736  1.1652
  440MOL0     O57949   6.353   7.415   3.100 -0.3803  0.1339 -0.8596
  440MOL0     C57950   6.404   7.306   3.122  0.5098  0.5209  0.2177
  440MOL0     O57951   6.352   7.210   3.198  0.0059  0.8705 -0.5905
  440MOL0     C57952   6.231   7.241   3.246  0.3235  0.3456 -0.3954
  440MOL0     C57953   6.126   7.172   3.188  0.5235 -0.5468 -0.5791
  440MOL0     C57954   5.994   7.204   3.230 -0.5272 -0.8002  0.1486
  440MOL0     C57955   5.966   7.304   3.323  0.3527  0.2281  0.3268
  440MOL0     O57956   5.831   7.305   3.364  0.3001  0.5075  0.1334
  440MOL0     C57957   5.773   7.441   3.376 -0.5009 -0.0609 -0.0625
  440MOL0     C57958   5.620   7.418   3.398 -0.9362 -0.2142 -0.1016
  440MOL0     C57959   5.605   7.397   3.546 -0.2498  0.1378 -0.2300
  440MOL0     C57960   5.457   7.355   3.581 -0.1421 -0.0691 -0.0641
  440MOL0     C57961   5.442   7.320   3.730  0.1259  0.4119  0.1166
  440MOL0     C57962   5.299   7.292   3.775  0.3219  0.1784 -0.4685
  440MOL0     C57963   5.276   7.311   3.925 -0.7097 -0.1341 -0.0149
  440MOL0     C57964   5.254   7.454   3.984  0.3201 -1.2181  0.5604
  440MOL0     N57965   5.124   7.514   3.929 -0.0131 -0.1300  0.2495
  440MOL0     C57966   4.998   7.476   3.974 -0.1126 -1.1498  0.2995
  440MOL0     C57967   4.912   7.561   3.910 -0.9588  0.6398 -0.8553
  440MOL0     C57968   4.767   7.552   3.932 -0.2865  0.2589 -0.8036
  440MOL0     C57969   4.712   7.692   3.943  0.0799 -1.0136  0.3224
  440MOL0     C57970   4.563   7.694   3.993 -0.4374  0.2255  0.0295
  440MOL0     C57971   4.508   7.838   4.010  0.4373  0.2259 -0.0254
  440MOL0     O57972   4.377   7.829   4.071 -0.2337  0.2926  0.1578
  440MOL0     C57973   4.302   7.945   4.072 -0.6577  0.4094  0.6518
  440MOL0     C57974   4.341   8.074   4.031  0.3061  0.3080  0.1002
  440MOL0     C57975   4.252   8.180   4.018 -0.2996 -0.3516 -0.2790
  440MOL0     C57976   4.124   8.169   4.067 -0.5303  1.5798  0.5272
  440MOL0     C57977   4.017   8.273   4.053 -0.6605 -0.1445  0.1639
  440MOL0     O57978   4.069   8.392   4.021 -0.0330 -0.2832 -0.4280
  440MOL0     C57979   3.986   8.509   4.014 -0.6071  0.5699  0.6467
  440MOL0     C57980   4.042   8.605   3.923 -0.4822 -0.0789 -0.1758
  440MOL0     C57981   3.969   8.722   3.890  0.2519 -0.6160  0.0612
  440MOL0     C57982   3.851   8.752   3.958  0.4273 -0.0581  0.2081
  440MOL0     O57983   3.778   8.865   3.904 -0.6006  0.2993 -0.5639
  440MOL0     C57984   3.635   8.857   3.900 -0.2287 -0.5478  0.3101
  440MOL0     C57985   3.572   8.972   3.820 -0.0280  0.1603  0.0909
  440MOL0     C57986   3.428   8.943   3.773  0.0360  0.3772 -0.6202
  440MOL0     C57987   3.379   9.027   3.662 -0.3431 -0.1629 -0.3703
  440MOL0     C57988   3.317   9.165   3.712 -0.6263  0.1018 -0.4294
  440MOL0     C57989   3.183   9.149   3.772  0.5909  0.7599 -0.0475
  440MOL0     C57990   3.123   9.278   3.806 -0.0618  0.1487  0.6574
  440MOL0     C57991   2.967   9.262   3.819 -0.3530  0.5302  0.1368
  440MOL0    Cl57992   2.913   9.142   3.936  0.1512 -0.2956  0.0166
  440MOL0     C57993   3.800   8.661   4.048  0.4920 -1.2424  0.2691
  440MOL0     C57994   3.863   8.544   4.075 -0.3698 -0.6972 -0.7099
  440MOL0     O57995   3.897   8.247   4.067  0.1370 -0.2586 -0.3984
  440MOL0     C57996   4.083   8.041   4.116  0.5012  0.4855  0.5211
  440MOL0     C57997   4.169   7.926   4.112  0.2877 -0.5949  0.3503
  440MOL0     N57998   4.983   7.644   3.824 -0.5537  0.5486 -0.7422
  440MOL0     N57999   5.110   7.616   3.841 -0.4390 -0.1555 -0.0475
  440MOL0     C58000   6.071   7.373   3.382  0.6464  0.3643  0.5446
  440MOL0     C58001   6.207   7.347   3.338  1.0973 -0.5674  0.2281
  440MOL0     C58002   6.541   7.280   3.052  0.3870 -0.2421  0.8772
  440MOL0     C58003   6.584   7.148   3.047  0.0001  0.1325  0.0228
  440MOL0     C58004   6.710   7.125   2.990 -0.2941  0.3078  0.1236
  440MOL0     C58005   6.784   7.220   2.922  0.1938 -0.4226  0.8898
  440MOL0     O58006   6.907   7.178   2.873  0.0779 -0.0117  0.9002
  440MOL0     C58007   6.991   7.281   2.809  0.6782 -0.5057 -0.6350
  440MOL0     C58008   7.089   7.206   2.732 -0.5725 -0.0602  0.1103
  440MOL0     C58009   7.204   7.138   2.821  0.3172 -0.8843  0.0696
  440MOL0     C58010   7.342   7.185   2.786 -1.1402 -0.6226 -0.1060
  440MOL0     C58011   7.441   7.165   2.901  0.0261 -0.1120  0.6707
  440MOL0     C58012   7.519   7.151   2.998  0.8641 -0.0749  0.0893
  440MOL0     C58013   6.731   7.354   2.919  0.0395  0.3795  0.0512
  440MOL0     C58014   6.611   7.382   2.988 -0.7536  0.2117 -0.1424
  440MOL0     H58015   6.143   7.100   3.108  2.1405  0.5925 -1.3235
  440MOL0     H58016   5.907   7.151   3.193 -1.7240  1.4453 -0.4363
  440MOL0     H58017   5.794   7.504   3.289  0.2670  0.3204  0.3920
  440MOL0     H58018   5.824   7.486   3.462  1.0754 -0.8247 -0.5555
  440MOL0     H58019   5.582   7.331   3.345  1.5262 -1.1450 -0.4924
  440MOL0     H58020   5.569   7.509   3.364 -0.0228  1.6700  3.0912
  440MOL0     H58021   5.625   7.482   3.612 -1.1794 -0.4145  0.7881
  440MOL0     H58022   5.676   7.316   3.563 -0.4103  0.0719  0.1294
  440MOL0     H58023   5.388   7.435   3.552  0.9651  0.7791 -0.4529
  440MOL0     H58024   5.417   7.272   3.521 -0.3778  0.5666 -0.8063
  440MOL0     H58025   5.485   7.401   3.789  1.5754  2.4612 -3.5089
  440MOL0     H58026   5.507   7.234   3.753 -0.7848 -0.0994  0.8883
  440MOL0     H58027   5.284   7.187   3.751 -2.1035  0.0155  1.3811
  440MOL0     H58028   5.231   7.359   3.720  0.0431  1.4403  1.3357
  440MOL0     H58029   5.182   7.258   3.946 -0.8852 -0.7402 -2.0492
  440MOL0     H58030   5.353   7.254   3.977 -1.8220 -1.9982 -0.2980
  440MOL0     H58031   5.334   7.519   3.947 -2.9645  1.9973 -1.6047
  440MOL0     H58032   5.247   7.457   4.093  0.0521  3.0912  0.6043
  440MOL0     H58033   4.975   7.402   4.051  0.8601 -0.2873  1.4587
  440MOL0     H58034   4.748   7.495   4.023 -0.1820 -1.4854 -1.8164
  440MOL0     H58035   4.733   7.491   3.848 -1.4388 -0.2698  0.0245
  440MOL0     H58036   4.729   7.744   3.848 -1.2800 -0.8394  0.1520
  440MOL0     H58037   4.775   7.737   4.021  1.8655 -2.0166 -0.4661
  440MOL0     H58038   4.508   7.633   3.921 -1.5616  1.6840 -0.3779
  440MOL0     H58039   4.552   7.641   4.088 -1.4459 -1.7632 -1.1404
  440MOL0     H58040   4.511   7.896   3.917  0.8626 -1.3383 -1.0220
  440MOL0     H58041   4.576   7.893   4.076  0.7655  0.8880 -0.8913
  440MOL0     H58042   4.443   8.082   3.994  0.1127  0.6057 -0.3872
  440MOL0     H58043   4.284   8.265   3.959 -1.6409 -0.2553 -0.8934
  440MOL0     H58044   4.137   8.588   3.873  0.5796 -0.1733  1.7631
  440MOL0     H58045   3.990   8.778   3.799 -1.1906 -0.7262 -0.3578
  440MOL0     H58046   3.600   8.865   4.003  1.0860 -0.8662  0.7936
  440MOL0     H58047   3.592   8.759   3.875 -0.9086 -0.2178  0.1464
  440MOL0     H58048   3.628   8.995   3.728 -0.7834  1.4745 -0.0713
  440MOL0     H58049   3.571   9.063   3.881 -3.3191 -1.0232  2.0692
  440MOL0     H58050   3.360   8.949   3.859  0.6283 -0.0550 -0.1117
  440MOL0     H58051   3.415   8.841   3.737 -1.5278 -0.4664  2.0465
  440MOL0     H58052   3.457   9.059   3.592 -0.4588  1.7800  0.3178
  440MOL0     H58053   3.300   8.975   3.607  0.8734 -2.3697 -0.1161
  440MOL0     H58054   3.313   9.241   3.633  0.4861 -0.0227 -0.6272
  440MOL0     H58055   3.387   9.211   3.782 -0.8917  0.6683 -0.5275
  440MOL0     H58056   3.190   9.098   3.868 -0.7277  2.7563  1.1730
  440MOL0     H58057   3.113   9.107   3.699  0.8669 -0.9723  0.6374
  440MOL0     H58058   3.166   9.323   3.895 -2.5052  0.8635  1.5529
  440MOL0     H58059   3.131   9.341   3.716 -0.1964 -0.8117 -0.0417
  440MOL0     H58060   2.926   9.230   3.722  0.0648  0.1816  0.0716
  440MOL0     H58061   2.923   9.358   3.845 -1.3092 -0.4233  2.2631
  440MOL0     H58062   3.699   8.670   4.084  0.4074 -2.0850  0.2740
  440MOL0     H58063   3.820   8.471   4.143 -2.0470 -1.0793 -2.1029
  440MOL0     H58064   3.989   8.033   4.169  0.5964  0.0380  0.6289
  440MOL0     H58065   4.135   7.828   4.145 -0.1169 -0.6156 -0.1093
  440MOL0     H58066   6.050   7.454   3.451 -0.3157  1.7154 -1.2640
  440MOL0     H58067   6.296   7.397   3.373  0.2242  2.5307 -1.5858
  440MOL0     H58068   6.523   7.070   3.091  0.9752 -1.0892 -0.7381
  440MOL0     H58069   6.749   7.024   2.996 -1.3916 -0.1179  0.2949
  440MOL0     H58070   7.033   7.352   2.882 -3.2823 -0.5865  2.0502
  440MOL0     H58071   6.931   7.341   2.740  3.7578  1.9560 -1.4161
  440MOL0     H58072   7.041   7.126   2.674  0.1298 -0.5043  0.1265
  440MOL0     H58073   7.132   7.277   2.661  2.2920 -1.2456  0.5167
  440MOL0     H58074   7.213   7.030   2.806 -0.1630 -0.5276 -3.6583
  440MOL0     H58075   7.179   7.162   2.925  0.4205 -0.2702 -0.0443
  440MOL0     H58076   7.383   7.137   2.697 -1.0219 -1.8785  0.5992
  440MOL0     H58077   7.350   7.291   2.762 -3.1321 -0.6721 -1.2282
  440MOL0     H58078   7.576   7.168   3.087 -1.7051  2.4403  1.4081
  440MOL0     H58079   6.783   7.434   2.867  0.8064  0.3510  0.7673
  440MOL0     H58080   6.569   7.481   2.998 -0.3511  0.2256  1.6746
  441MOL0     O58081   4.372   4.789   4.026 -0.2542  0.4430  0.0712
  441MOL0     C58082   4.332   4.717   3.937 -0.2834  1.4043  0.8520
  441MOL0     O58083   4.210   4.658   3.930 -0.2907  0.3157 -0.2286
  441MOL0     C58084   4.106   4.670   4.014  0.5384 -0.8262  0.0002
  441MOL0     C58085   4.075   4.794   4.061 -0.2216 -0.5403 -0.0364
  441MOL0     C58086   3.962   4.809   4.148 -0.7983  0.0477 -0.8654
  441MOL0     C58087   3.886   4.694   4.192 -0.1829 -0.5925  0.3147
  441MOL0     O58088   3.777   4.694   4.272  1.6934  0.1200  0.4394
  441MOL0     C58089   3.735   4.820   4.325  0.1111 -0.8125  0.1348
  441MOL0     C58090   3.597   4.818   4.389  0.4329  0.3583  0.2060
  441MOL0     C58091   3.547   4.947   4.438 -0.4326 -1.0497  0.7831
  441MOL0     C58092   3.520   5.044   4.332 -0.1631  0.0367  0.2229
  441MOL0     C58093   3.437   5.164   4.382 -0.7060 -0.9887  0.0571
  441MOL0     C58094   3.305   5.145   4.445 -0.0887  0.4108 -0.0286
  441MOL0     C58095   3.221   5.281   4.465 -0.1844  0.4953  0.0504
  441MOL0     C58096   3.262   5.350   4.600  0.4494  0.2390  0.3768
  441MOL0     N58097   3.166   5.454   4.631  0.0977  0.1052 -0.0823
  441MOL0     C58098   3.030   5.424   4.655 -0.3872 -0.0167  0.5692
  441MOL0     C58099   2.982   5.551   4.676  0.1941 -0.5818  0.4458
  441MOL0     C58100   2.840   5.582   4.715 -0.5854 -0.2294 -0.1500
  441MOL0     C58101   2.831   5.611   4.862 -0.1297  0.3175  0.2464
  441MOL0     C58102   2.729   5.730   4.885  0.4050 -0.5097 -0.0630
  441MOL0     C58103   2.687   5.742   5.027 -0.0099  0.1248  0.3960
  441MOL0     O58104   2.594   5.636   5.044 -0.4488 -0.2608 -0.3186
  441MOL0     C58105   2.480   5.664   5.120  0.1061 -0.4427  0.8419
  441MOL0     C58106   2.457   5.595   5.241  0.0530  0.4254  0.2419
  441MOL0     C58107   2.329   5.623   5.300 -1.4804 -0.1256  0.7650
  441MOL0     C58108   2.239   5.717   5.256  0.4024  0.1304 -1.4283
  441MOL0     C58109   2.112   5.749   5.332 -0.0820  0.6269  0.7283
  441MOL0     O58110   2.067   5.650   5.423  0.5846 -1.0934  0.3322
  441MOL0     C58111   1.954   5.666   5.505  0.0264  0.2494  0.0077
  441MOL0     C58112   1.886   5.783   5.546  0.4032 -1.0825 -0.2790
  441MOL0     C58113   1.758   5.777   5.617  0.2650  0.1476 -0.2156
  441MOL0     C58114   1.704   5.653   5.656  0.3254  0.1956 -0.1656
  441MOL0     O58115   1.591   5.630   5.725  0.0993  0.1145  0.0760
  441MOL0     C58116   1.484   5.726   5.705  0.5111  0.3222  0.3567
  441MOL0     C58117   1.368   5.706   5.804 -0.5569 -0.3339 -0.5116
  441MOL0     C58118   1.223   5.720   5.752 -1.4031 -0.5569  0.6434
  441MOL0     C58119   1.113   5.705   5.857 -0.0586 -0.7485 -0.2830
  441MOL0     C58120   0.965   5.706   5.796  0.1276 -0.0971  0.4062
  441MOL0     C58121   0.868   5.685   5.915 -0.6911 -0.2877 -0.2499
  441MOL0     C58122   0.724   5.689   5.871  0.1018  0.1084  0.3961
  441MOL0     C58123   0.658   5.818   5.911  0.4140 -0.2108  0.1633
  441MOL0    Cl58124   0.648   5.836   6.093  0.0090 -0.0216 -0.7414
  441MOL0     C58125   1.784   5.539   5.633 -0.2029  0.4113 -0.0312
  441MOL0     C58126   1.903   5.545   5.558 -0.6617  0.2561  0.2778
  441MOL0     O58127   2.048   5.853   5.299  0.1732  0.0139 -0.4529
  441MOL0     C58128   2.267   5.788   5.147 -0.3891 -0.7635  0.4587
  441MOL0     C58129   2.375   5.752   5.073  0.2767 -0.0650  0.6239
  441MOL0     N58130   3.081   5.641   4.670 -0.4506 -0.1392  0.3790
  441MOL0     N58131   3.194   5.590   4.637 -0.0711  0.7817 -0.2483
  441MOL0     C58132   3.927   4.568   4.145  0.3471  0.4433  0.2579
  441MOL0     C58133   4.031   4.557   4.058  0.2944  0.5204  0.1722
  441MOL0     C58134   4.426   4.688   3.822 -0.4307  0.1966 -0.9694
  441MOL0     C58135   4.387   4.591   3.722  0.3612  0.2135 -0.8469
  441MOL0     C58136   4.460   4.558   3.614 -0.3888  0.1488  0.5868
  441MOL0     C58137   4.588   4.610   3.604 -0.3856 -0.2288 -0.3185
  441MOL0     O58138   4.667   4.559   3.505  0.0154  0.2767  0.0761
  441MOL0     C58139   4.776   4.632   3.455 -1.0024  0.1283  0.3732
  441MOL0     C58140   4.752   4.767   3.393 -0.0895 -0.0643  0.3634
  441MOL0     C58141   4.678   4.755   3.253 -0.1415 -0.1299 -0.0851
  441MOL0     C58142   4.758   4.687   3.133  0.0791 -0.4622  0.2122
  441MOL0     C58143   4.908   4.702   3.128  0.0757  0.0812 -0.2557
  441MOL0     C58144   5.030   4.710   3.122  0.5651  0.4470 -0.3453
  441MOL0     C58145   4.635   4.700   3.695 -0.9026  0.1487  0.7081
  441MOL0     C58146   4.551   4.750   3.799  0.2218  0.5114 -0.1516
  441MOL0     H58147   4.126   4.886   4.031 -2.0796  0.3646 -0.5509
  441MOL0     H58148   3.950   4.913   4.178  0.0745  0.8098 -3.0069
  441MOL0     H58149   3.727   4.897   4.248 -1.0589 -0.2260  0.8205
  441MOL0     H58150   3.812   4.846   4.398 -0.7402 -0.0679  0.7810
  441MOL0     H58151   3.612   4.743   4.468 -0.2045 -0.9601 -0.8930
  441MOL0     H58152   3.518   4.786   4.322  1.0140 -1.1178  0.1910
  441MOL0     H58153   3.623   4.984   4.507 -0.3079 -1.2380  0.7490
  441MOL0     H58154   3.458   4.921   4.496 -0.8070  1.5641  1.5010
  441MOL0     H58155   3.613   5.074   4.284  0.0857  0.2889  0.8569
  441MOL0     H58156   3.466   4.998   4.248  1.2890 -0.9697 -0.1997
  441MOL0     H58157   3.429   5.243   4.306  0.0828 -0.5517  0.4197
  441MOL0     H58158   3.504   5.204   4.458  2.0584 -3.0692 -1.1210
  441MOL0     H58159   3.319   5.097   4.542 -1.6498 -0.1400 -0.0389
  441MOL0     H58160   3.248   5.075   4.383  1.3474 -0.3094 -0.5842
  441MOL0     H58161   3.237   5.345   4.378 -1.8389 -0.4540 -1.0043
  441MOL0     H58162   3.115   5.255   4.465 -0.4547  1.4111 -1.6826
  441MOL0     H58163   3.364   5.385   4.588  0.9971 -1.6972 -1.2131
  441MOL0     H58164   3.258   5.274   4.679  0.5539  1.9121  2.0625
  441MOL0     H58165   2.976   5.330   4.661 -2.2201  0.9729  0.2051
  441MOL0     H58166   2.773   5.503   4.679 -0.8169  0.4725 -1.3211
  441MOL0     H58167   2.815   5.673   4.660 -0.2763  0.9421  1.5850
  441MOL0     H58168   2.932   5.635   4.895  0.2117  0.7496 -1.0295
  441MOL0     H58169   2.801   5.519   4.912  2.8496 -0.4897  0.7186
  441MOL0     H58170   2.786   5.820   4.860 -0.5397 -0.3635 -1.8147
  441MOL0     H58171   2.642   5.712   4.822 -0.0205  0.5821  0.1939
  441MOL0     H58172   2.652   5.844   5.050  0.5528 -0.1663  2.8375
  441MOL0     H58173   2.773   5.717   5.090 -2.2294 -2.2458  2.7490
  441MOL0     H58174   2.526   5.528   5.292  0.8828 -0.6235 -2.0956
  441MOL0     H58175   2.293   5.561   5.382  1.3052 -3.3239 -0.1700
  441MOL0     H58176   1.915   5.882   5.514 -1.9826 -0.2434 -0.0548
  441MOL0     H58177   1.705   5.871   5.626 -0.5905 -0.1983 -1.4033
  441MOL0     H58178   1.440   5.714   5.606 -2.0671 -0.6706  1.5213
  441MOL0     H58179   1.514   5.830   5.716 -0.0221  0.6172 -0.8565
  441MOL0     H58180   1.386   5.779   5.884  0.7890  0.6398 -1.6486
  441MOL0     H58181   1.381   5.611   5.856  0.8498  0.4014  0.5487
  441MOL0     H58182   1.201   5.643   5.677 -4.2359 -1.1703  1.9890
  441MOL0     H58183   1.209   5.815   5.700  0.7489  0.1573  1.2699
  441MOL0     H58184   1.121   5.614   5.918  1.9835  0.9750  2.2747
  441MOL0     H58185   1.123   5.783   5.933 -2.6363 -1.2266  0.6581
  441MOL0     H58186   0.952   5.628   5.720  1.7421 -0.4498  0.4512
  441MOL0     H58187   0.948   5.806   5.755 -0.0090  2.0999  5.1358
  441MOL0     H58188   0.888   5.762   5.990 -2.4505 -1.7252  1.8127
  441MOL0     H58189   0.881   5.592   5.970 -0.4666 -1.2220 -1.8233
  441MOL0     H58190   0.710   5.693   5.762 -0.6363  2.3624  0.5298
  441MOL0     H58191   0.670   5.597   5.897 -0.6645 -0.0304 -1.5006
  441MOL0     H58192   0.562   5.821   5.858  0.2695  1.1777  0.4719
  441MOL0     H58193   0.719   5.903   5.879 -2.0517  1.9497  0.8014
  441MOL0     H58194   1.753   5.448   5.682  3.7146  0.4461  3.0009
  441MOL0     H58195   1.945   5.446   5.552 -0.9431  0.0814  1.0357
  441MOL0     H58196   2.194   5.862   5.115  0.3962 -0.1407  0.0665
  441MOL0     H58197   2.397   5.804   4.980  0.8837 -4.4514 -1.9686
  441MOL0     H58198   3.868   4.480   4.167  0.6044  0.1753 -0.1273
  441MOL0     H58199   4.056   4.459   4.019 -0.1386  0.7292 -0.6532
  441MOL0     H58200   4.290   4.542   3.729 -1.3831  3.3969 -0.5780
  441MOL0     H58201   4.434   4.468   3.560  0.7353 -1.3904  2.4963
  441MOL0     H58202   4.824   4.565   3.383 -0.9182  1.4548 -0.8348
  441MOL0     H58203   4.857   4.642   3.528  1.1540  3.0767 -2.1773
  441MOL0     H58204   4.693   4.825   3.465 -0.1423  0.3184  0.0168
  441MOL0     H58205   4.840   4.825   3.364  0.2019  0.3180  1.8946
  441MOL0     H58206   4.652   4.850   3.205  1.0892  0.4170  0.3035
  441MOL0     H58207   4.584   4.700   3.268 -2.1487  3.0015 -0.1190
  441MOL0     H58208   4.742   4.579   3.136 -2.5967 -0.4221 -4.1607
  441MOL0     H58209   4.705   4.720   3.043 -3.2425  0.2275  2.2411
  441MOL0     H58210   5.137   4.710   3.115  0.5782 -1.3867 -0.5400
  441MOL0     H58211   4.737   4.737   3.691 -1.0662  0.6529  1.0984
  441MOL0     H58212   4.563   4.833   3.867 -2.6289  0.5181  0.4495
  442MOL0     O58213  10.900   1.454   7.437  0.3648 -0.3451 -0.0744
  442MOL0     C58214  10.968   1.559   7.420  0.8371 -0.1322 -0.7010
  442MOL0     O58215  10.928   1.681   7.436 -0.6929 -0.0066 -0.2188
  442MOL0     C58216  10.807   1.715   7.492 -1.3492  0.2505  0.1285
  442MOL0     C58217  10.750   1.841   7.460 -0.0719  0.1077  0.1960
  442MOL0     C58218  10.635   1.881   7.511 -0.3914  0.0490 -0.1207
  442MOL0     C58219  10.568   1.802   7.609  0.1340 -0.5517 -0.4386
  442MOL0     O58220  10.450   1.852   7.658 -0.0464  0.1980 -1.0041
  442MOL0     C58221  10.324   1.778   7.655  0.1736 -0.3922 -0.2520
  442MOL0     C58222  10.211   1.875   7.691 -0.1226  0.0750  0.6059
  442MOL0     C58223  10.065   1.817   7.693 -0.6750  0.1497 -0.5179
  442MOL0     C58224   9.954   1.926   7.716 -0.4515  1.0214 -0.1561
  442MOL0     C58225   9.821   1.862   7.768  0.3053  0.3959 -0.0107
  442MOL0     C58226   9.696   1.952   7.763 -0.3420  0.6777 -0.1458
  442MOL0     C58227   9.560   1.870   7.762  0.2955 -0.0367  0.8077
  442MOL0     C58228   9.453   1.982   7.791 -0.0910  0.2010 -0.1477
  442MOL0     N58229   9.325   1.926   7.836 -0.0594  0.0226 -0.5434
  442MOL0     C58230   9.280   1.801   7.802  0.3875  0.0195  0.1423
  442MOL0     C58231   9.143   1.814   7.810 -0.1100 -0.0085 -0.0288
  442MOL0     C58232   9.035   1.721   7.777  0.5074  0.7379  0.2737
  442MOL0     C58233   9.006   1.626   7.898 -0.1129 -1.0302  0.0834
  442MOL0     C58234   9.052   1.479   7.862 -0.1133  0.7008  0.0287
  442MOL0     C58235   9.050   1.388   7.985  0.0797 -1.1357  1.1682
  442MOL0     O58236   8.923   1.380   8.047  0.5401 -0.6063 -0.0046
  442MOL0     C58237   8.831   1.288   8.005  0.3840  0.2998 -0.6846
  442MOL0     C58238   8.698   1.319   8.033  0.4590  0.0095 -0.1591
  442MOL0     C58239   8.582   1.233   8.004  0.6539 -0.1921  0.3443
  442MOL0     C58240   8.603   1.112   7.939 -0.1868  0.3228 -0.3635
  442MOL0     C58241   8.490   1.027   7.895 -0.1418  0.0226 -0.0351
  442MOL0     O58242   8.494   0.937   7.794  0.2264 -0.8474 -0.5588
  442MOL0     C58243   8.377   0.876   7.752  0.3398 -0.3784 -0.0142
  442MOL0     C58244   8.257   0.931   7.717 -0.0056  0.0051  0.0026
  442MOL0     C58245   8.148   0.858   7.667 -0.0857  0.1344 -0.3175
  442MOL0     C58246   8.163   0.715   7.670 -0.7067  0.1697  0.1270
  442MOL0     O58247   8.057   0.635   7.651  0.4187  0.3603 -0.4402
  442MOL0     C58248   7.934   0.686   7.582 -0.3695  0.1964  0.1416
  442MOL0     C58249   7.838   0.563   7.578  0.1660  0.4984 -0.2618
  442MOL0     C58250   7.706   0.605   7.530  1.2669  0.0083 -0.3587
  442MOL0     C58251   7.607   0.485   7.546  1.2636  0.2562  0.0226
  442MOL0     C58252   7.469   0.512   7.485  0.6641  0.1452  0.2416
  442MOL0     C58253   7.405   0.648   7.530  0.9097  0.3543 -0.5907
  442MOL0     C58254   7.248   0.644   7.503 -0.4656 -0.3182  0.4307
  442MOL0     C58255   7.193   0.789   7.514  0.2043 -0.4180 -0.0279
  442MOL0    Cl58256   7.225   0.876   7.357 -0.1888  0.0805 -0.1757
  442MOL0     C58257   8.283   0.660   7.711 -0.4935 -0.4044 -0.7649
  442MOL0     C58258   8.389   0.744   7.755 -0.6129 -0.5537  0.4057
  442MOL0     O58259   8.394   1.041   7.968  0.1076 -0.8696 -0.5196
  442MOL0     C58260   8.738   1.076   7.909  0.2216  0.3876  0.1954
  442MOL0     C58261   8.849   1.160   7.949  0.7044 -0.5945  0.5787
  442MOL0     N58262   9.122   1.934   7.879  0.3149  0.1137  0.4003
  442MOL0     N58263   9.229   2.000   7.890  0.8638  0.1635 -0.0342
  442MOL0     C58264  10.625   1.678   7.647 -0.3400  0.1495  1.2567
  442MOL0     C58265  10.750   1.637   7.594  0.1645  0.5345 -0.6439
  442MOL0     C58266  11.111   1.549   7.386 -0.3577 -0.1826 -0.3324
  442MOL0     C58267  11.171   1.428   7.368 -0.2582 -1.4578  0.4578
  442MOL0     C58268  11.304   1.422   7.333 -0.1061 -1.0977 -0.0915
  442MOL0     C58269  11.384   1.540   7.329  0.3010 -0.1285  0.3566
  442MOL0     O58270  11.521   1.527   7.291  0.4480  0.2851  0.1276
  442MOL0     C58271  11.533   1.508   7.156  0.2141  1.0086 -0.4756
  442MOL0     C58272  11.682   1.512   7.124 -0.1407 -0.3629 -0.0830
  442MOL0     C58273  11.774   1.405   7.185 -0.3854 -0.4694  0.2443
  442MOL0     C58274  11.891   1.457   7.259 -0.2965 -0.5559 -0.1257
  442MOL0     C58275  11.841   1.546   7.367 -0.4735 -0.3404 -0.2555
  442MOL0     C58276  11.815   1.620   7.455 -0.5376  0.7167 -0.0555
  442MOL0     C58277  11.331   1.665   7.344 -0.6078 -0.3029  0.0172
  442MOL0     C58278  11.190   1.674   7.360 -0.0027  0.3498  0.8168
  442MOL0     H58279  10.796   1.900   7.381  0.1482 -2.8649 -2.0913
  442MOL0     H58280  10.585   1.974   7.484 -2.8810 -1.0427  0.4321
  442MOL0     H58281  10.323   1.697   7.729 -0.0918  0.3870  0.6205
  442MOL0     H58282  10.311   1.750   7.550  1.6814  1.9566 -1.1658
  442MOL0     H58283  10.215   1.957   7.619  0.2643 -2.2585 -2.2434
  442MOL0     H58284  10.226   1.922   7.788 -1.1907 -0.1553  0.8875
  442MOL0     H58285  10.060   1.754   7.783 -0.0218  0.3546 -0.3374
  442MOL0     H58286  10.054   1.744   7.613  0.8395  1.4440 -1.9652
  442MOL0     H58287   9.992   1.986   7.800 -3.7529 -0.2322  2.4474
  442MOL0     H58288   9.928   1.984   7.627  1.3394  0.3974 -1.1407
  442MOL0     H58289   9.846   1.828   7.869  0.3522  0.2598 -0.0678
  442MOL0     H58290   9.782   1.776   7.712  1.9961 -0.0110 -0.6210
  442MOL0     H58291   9.696   2.005   7.667 -1.2510 -0.7873 -0.9934
  442MOL0     H58292   9.705   2.027   7.842 -0.4020  0.6518 -0.1146
  442MOL0     H58293   9.537   1.841   7.659  3.5213  2.7497 -0.8795
  442MOL0     H58294   9.552   1.787   7.832 -2.6445 -0.9504 -0.4226
  442MOL0     H58295   9.431   2.031   7.695 -1.4403 -0.2756 -0.0990
  442MOL0     H58296   9.488   2.053   7.867 -0.8742 -1.8557  2.2802
  442MOL0     H58297   9.317   1.716   7.746 -2.9715 -0.5090 -1.5708
  442MOL0     H58298   9.072   1.666   7.690  3.1860  1.9898  0.5106
  442MOL0     H58299   8.954   1.789   7.748  1.0155  0.4803 -1.9579
  442MOL0     H58300   8.897   1.624   7.902 -0.3743 -0.1975 -3.4618
  442MOL0     H58301   9.052   1.667   7.987  0.8314 -1.5659 -0.1426
  442MOL0     H58302   8.980   1.445   7.787  0.3945 -0.6144  0.1001
  442MOL0     H58303   9.156   1.481   7.826  0.4854  1.6433  1.7101
  442MOL0     H58304   9.109   1.442   8.059  0.6896  2.0698 -1.4414
  442MOL0     H58305   9.098   1.292   7.964  0.8368 -0.5579  0.1827
  442MOL0     H58306   8.668   1.417   8.070 -2.7864 -1.4748  1.4339
  442MOL0     H58307   8.480   1.252   8.035  0.6430 -0.1563  0.2862
  442MOL0     H58308   8.247   1.039   7.722 -2.7988 -0.1470 -0.5598
  442MOL0     H58309   8.047   0.897   7.656 -1.3167 -1.6044  3.1060
  442MOL0     H58310   7.955   0.730   7.484 -2.4981  1.8224  0.3531
  442MOL0     H58311   7.887   0.763   7.644 -0.4284 -0.6252  1.1464
  442MOL0     H58312   7.837   0.535   7.684  1.4898  2.5868  0.3686
  442MOL0     H58313   7.890   0.492   7.514 -0.9962  0.3886 -1.1148
  442MOL0     H58314   7.729   0.642   7.430  0.2849  0.9462 -0.2550
  442MOL0     H58315   7.652   0.684   7.582  0.4001 -0.4205 -0.5807
  442MOL0     H58316   7.644   0.406   7.480 -1.0539 -0.2690 -0.7560
  442MOL0     H58317   7.587   0.450   7.648 -1.8251 -0.0692 -0.5943
  442MOL0     H58318   7.402   0.428   7.505  2.5209 -0.8437  2.8220
  442MOL0     H58319   7.483   0.512   7.376  0.2147  1.3073  0.1731
  442MOL0     H58320   7.460   0.734   7.491  0.0530  1.6464  0.9320
  442MOL0     H58321   7.415   0.651   7.639 -1.4699  0.8107 -0.3393
  442MOL0     H58322   7.241   0.599   7.404 -0.2358 -0.4248  0.4606
  442MOL0     H58323   7.193   0.586   7.577  1.2261 -1.1274  1.1133
  442MOL0     H58324   7.245   0.847   7.592  2.8678 -1.5283 -0.8472
  442MOL0     H58325   7.086   0.793   7.533  0.0412 -2.1853 -0.3894
  442MOL0     H58326   8.297   0.552   7.710 -1.7087 -0.6328  1.3821
  442MOL0     H58327   8.481   0.698   7.789 -0.0187  1.7233  2.1244
  442MOL0     H58328   8.752   0.980   7.860  1.2473  1.5454 -1.9511
  442MOL0     H58329   8.943   1.113   7.924  0.0328 -1.7383  0.1309
  442MOL0     H58330  10.561   1.614   7.708 -1.6649 -2.7535 -2.7455
  442MOL0     H58331  10.800   1.550   7.632  0.5477  0.9928 -0.0872
  442MOL0     H58332  11.118   1.336   7.392 -0.3129 -1.5164  0.1148
  442MOL0     H58333  11.357   1.327   7.329  2.2523  0.1694 -0.7681
  442MOL0     H58334  11.484   1.592   7.106  1.6489  1.8990 -0.4599
  442MOL0     H58335  11.490   1.413   7.122 -0.0436 -0.0448  2.4930
  442MOL0     H58336  11.680   1.504   7.015  0.9320  1.5236 -0.2925
  442MOL0     H58337  11.715   1.615   7.141 -0.6789  0.0779 -1.5544
  442MOL0     H58338  11.800   1.344   7.098 -0.9597 -0.4596  0.0598
  442MOL0     H58339  11.720   1.334   7.248  2.9823 -2.8611  0.7266
  442MOL0     H58340  11.955   1.379   7.303 -1.5407 -1.2113  0.5722
  442MOL0     H58341  11.954   1.509   7.186 -0.6070  0.2690  0.1885
  442MOL0     H58342  11.766   1.684   7.525 -1.1337 -0.2643  0.4453
  442MOL0     H58343  11.382   1.756   7.315 -0.2077 -1.1924 -2.3377
  442MOL0     H58344  11.133   1.766   7.371  2.1598  2.4552 -3.2954
  443MOL0     O58345   3.775   5.350   5.960  0.3159 -0.2722 -0.4890
  443MOL0     C58346   3.791   5.441   5.878  0.1074 -0.6108 -0.2110
  443MOL0     O58347   3.707   5.552   5.867  0.2945 -0.1749 -0.2023
  443MOL0     C58348   3.613   5.589   5.967 -0.5211  0.4810 -0.3953
  443MOL0     C58349   3.622   5.551   6.094  1.1763  0.3117 -0.0006
  443MOL0     C58350   3.526   5.575   6.188  0.6325  0.3180 -0.0300
  443MOL0     C58351   3.418   5.655   6.159  0.2476 -0.6170  0.1723
  443MOL0     O58352   3.336   5.686   6.267 -0.3367 -0.1941 -0.0205
  443MOL0     C58353   3.267   5.807   6.247 -0.2267  0.7330  1.0952
  443MOL0     C58354   3.204   5.840   6.387  0.4146 -0.4648  0.1584
  443MOL0     C58355   3.090   5.752   6.420 -0.1620 -0.4420  0.5160
  443MOL0     C58356   3.016   5.798   6.546 -0.5758 -0.4119 -0.9841
  443MOL0     C58357   2.897   5.708   6.585  0.2876  1.0024  0.8724
  443MOL0     C58358   2.799   5.772   6.682  0.1571  0.0005  0.4000
  443MOL0     C58359   2.693   5.678   6.744  0.2058 -0.9018  0.1318
  443MOL0     C58360   2.572   5.649   6.665  0.8996  0.4054 -0.7826
  443MOL0     N58361   2.460   5.597   6.748  0.1342 -0.6004  0.6802
  443MOL0     C58362   2.395   5.665   6.859 -1.1172  0.5791 -0.3284
  443MOL0     C58363   2.310   5.570   6.893  0.7763  0.7267 -0.5593
  443MOL0     C58364   2.224   5.577   7.023  0.3128 -0.0357 -0.1803
  443MOL0     C58365   2.142   5.452   7.053 -0.0270  0.4029 -0.5268
  443MOL0     C58366   2.021   5.431   6.953 -0.5743  0.7196 -0.6384
  443MOL0     C58367   1.914   5.336   7.009  0.0662  0.3000  0.0567
  443MOL0     O58368   1.842   5.390   7.125  0.0758 -0.2919  0.1845
  443MOL0     C58369   1.718   5.443   7.112  0.0118  0.1805 -0.6142
  443MOL0     C58370   1.643   5.449   7.233 -0.2597  0.6394  0.3265
  443MOL0     C58371   1.513   5.508   7.240 -0.8093 -0.0900 -0.1123
  443MOL0     C58372   1.465   5.576   7.134  0.0151 -0.0371  0.2448
  443MOL0     C58373   1.332   5.635   7.136  0.2587  0.7169 -0.1881
  443MOL0     O58374   1.272   5.640   7.262  0.1271  0.2287  0.0741
  443MOL0     C58375   1.160   5.707   7.288  0.5199 -0.9630 -0.2818
  443MOL0     C58376   1.086   5.664   7.397 -0.0853 -0.2326  0.2058
  443MOL0     C58377   0.970   5.734   7.443 -0.1330  0.1246 -0.0894
  443MOL0     C58378   0.935   5.856   7.369 -0.5089 -0.2043  0.1969
  443MOL0     O58379   0.834   5.944   7.414  0.0907  0.3895  0.3946
  443MOL0     C58380   0.738   5.888   7.505  0.0300  0.1603  0.7789
  443MOL0     C58381   0.624   5.987   7.502  0.2793  0.4184  0.0646
  443MOL0     C58382   0.503   5.933   7.584  1.3817  0.0959 -0.3289
  443MOL0     C58383   0.392   6.040   7.582  1.2454  0.0773  0.2012
  443MOL0     C58384   0.272   6.005   7.671  0.3113 -0.1504 -0.0358
  443MOL0     C58385   0.165   5.944   7.582 -0.6293 -0.8442  0.6080
  443MOL0     C58386   0.048   5.891   7.665 -1.2369 -0.1518  0.3557
  443MOL0     C58387  -0.061   5.828   7.577  0.6357 -0.4214 -0.1193
  443MOL0    Cl58388  -0.234   5.837   7.654 -0.3940  0.0380 -0.0615
  443MOL0     C58389   1.014   5.900   7.261  0.2089 -0.7640  0.3519
  443MOL0     C58390   1.124   5.826   7.220 -0.1727 -0.3601 -0.9210
  443MOL0     O58391   1.283   5.672   7.034  0.4059 -0.0948 -0.5877
  443MOL0     C58392   1.543   5.583   7.016 -0.9485  0.0264  0.7187
  443MOL0     C58393   1.666   5.514   6.998  0.8814  0.1300  0.5556
  443MOL0     N58394   2.308   5.458   6.807 -0.3089  0.2528  0.2377
  443MOL0     N58395   2.401   5.476   6.720 -0.0406  0.0536 -0.2683
  443MOL0     C58396   3.412   5.704   6.024 -1.3059 -0.0140 -0.2303
  443MOL0     C58397   3.510   5.660   5.924 -0.4150 -0.9921 -0.5537
  443MOL0     C58398   3.911   5.442   5.790  0.1248  0.5099 -0.2125
  443MOL0     C58399   3.957   5.559   5.735 -0.7173  1.0856 -0.7524
  443MOL0     C58400   4.077   5.564   5.667  0.4486 -0.3606 -0.0836
  443MOL0     C58401   4.149   5.449   5.635  0.7932  0.6800  1.5418
  443MOL0     O58402   4.264   5.481   5.563 -0.0403 -0.1647 -0.0329
  443MOL0     C58403   4.333   5.380   5.497  0.5885 -0.3820  0.6317
  443MOL0     C58404   4.412   5.447   5.382  0.8332 -0.0560 -0.5321
  443MOL0     C58405   4.547   5.487   5.438 -0.2487 -0.8101  0.2295
  443MOL0     C58406   4.609   5.595   5.340  0.7360 -0.9746 -0.3520
  443MOL0     C58407   4.749   5.623   5.378  0.0207  0.5515  0.1664
  443MOL0     C58408   4.865   5.656   5.409  0.3693  0.2096 -0.6742
  443MOL0     C58409   4.091   5.322   5.671  0.9401 -0.5598 -0.7233
  443MOL0     C58410   3.973   5.325   5.748  0.3938  0.4559 -0.8280
  443MOL0     H58411   3.711   5.493   6.118  1.5875 -1.5564 -4.9149
  443MOL0     H58412   3.538   5.537   6.289  0.2204 -0.4121 -0.2482
  443MOL0     H58413   3.196   5.800   6.164  2.1796 -0.1963 -0.9979
  443MOL0     H58414   3.334   5.888   6.215  1.6802 -1.9010 -2.3528
  443MOL0     H58415   3.171   5.944   6.397 -3.6471 -1.6039  0.1555
  443MOL0     H58416   3.277   5.840   6.468 -1.1907  0.3747  1.6611
  443MOL0     H58417   3.128   5.650   6.431  2.1021  0.5177  2.7651
  443MOL0     H58418   3.013   5.750   6.343  1.9299 -2.0947 -1.6978
  443MOL0     H58419   3.078   5.807   6.635  1.3074 -2.6461 -1.9598
  443MOL0     H58420   2.971   5.896   6.531 -0.4590  0.4224  3.0098
  443MOL0     H58421   2.933   5.610   6.617 -2.1527  0.4688  2.2766
  443MOL0     H58422   2.834   5.685   6.499 -0.3564 -0.4868  1.7029
  443MOL0     H58423   2.761   5.860   6.629 -0.1930 -1.3555 -1.7307
  443MOL0     H58424   2.862   5.804   6.766 -0.3901  1.4168  0.2939
  443MOL0     H58425   2.754   5.591   6.770  1.2112  0.5565  3.0600
  443MOL0     H58426   2.675   5.724   6.842  0.4253  4.1520 -1.9139
  443MOL0     H58427   2.596   5.576   6.587  0.9071 -0.2254 -0.2051
  443MOL0     H58428   2.538   5.745   6.626  1.3757 -0.2159 -2.8749
  443MOL0     H58429   2.419   5.758   6.910 -1.2361  1.2095 -1.3853
  443MOL0     H58430   2.167   5.669   7.037  1.0374  0.0924  2.5544
  443MOL0     H58431   2.303   5.574   7.099  1.4467 -0.4866 -1.3449
  443MOL0     H58432   2.104   5.459   7.155 -1.2869  0.1759 -0.9623
  443MOL0     H58433   2.210   5.366   7.044 -0.2413  0.0166  1.2673
  443MOL0     H58434   1.973   5.525   6.922  0.9260  0.5993 -3.7310
  443MOL0     H58435   2.056   5.400   6.854  0.2583  2.1870 -0.8291
  443MOL0     H58436   1.949   5.238   7.043  1.4276  1.8428  3.5306
  443MOL0     H58437   1.841   5.309   6.931  1.8000 -0.2964 -1.4345
  443MOL0     H58438   1.695   5.406   7.318 -1.2182 -0.1231  0.5444
  443MOL0     H58439   1.450   5.494   7.327 -1.1137 -0.6514 -0.4193
  443MOL0     H58440   1.125   5.578   7.448  2.6497 -0.0223 -1.3419
  443MOL0     H58441   0.909   5.697   7.524 -1.6764 -4.1455 -2.8379
  443MOL0     H58442   0.782   5.871   7.604  0.9716  0.2592  0.3882
  443MOL0     H58443   0.701   5.795   7.462 -0.1724  0.2379  0.7837
  443MOL0     H58444   0.598   6.013   7.399  2.8688 -0.5321 -0.9078
  443MOL0     H58445   0.655   6.079   7.552 -2.8202  2.1495 -0.9120
  443MOL0     H58446   0.541   5.924   7.686 -0.8291 -2.1308  0.3867
  443MOL0     H58447   0.469   5.834   7.553  2.4212 -0.9286  1.6118
  443MOL0     H58448   0.427   6.139   7.615  0.9712  0.9302 -1.9185
  443MOL0     H58449   0.360   6.044   7.478  0.2913  0.4942  0.4953
  443MOL0     H58450   0.229   6.094   7.716  0.0899  0.1269 -0.7848
  443MOL0     H58451   0.295   5.931   7.749 -1.0347 -0.4158  0.1304
  443MOL0     H58452   0.208   5.862   7.524 -2.0985 -2.8382  2.2152
  443MOL0     H58453   0.135   6.022   7.511  1.6452 -2.3498 -2.2501
  443MOL0     H58454   0.076   5.825   7.747  0.1213 -1.4107 -1.0374
  443MOL0     H58455   0.007   5.979   7.714  2.4047  2.7779 -1.4266
  443MOL0     H58456  -0.025   5.725   7.567  0.8775 -0.4816  1.2103
  443MOL0     H58457  -0.077   5.876   7.480  1.6653  1.4923  0.6102
  443MOL0     H58458   0.989   5.990   7.206  1.2098 -1.5110 -1.4467
  443MOL0     H58459   1.193   5.858   7.143  1.8732 -2.2528  0.0139
  443MOL0     H58460   1.505   5.634   6.928  1.0564  0.4327  0.0258
  443MOL0     H58461   1.728   5.507   6.909  1.0083  0.2153  0.6364
  443MOL0     H58462   3.338   5.770   5.981 -2.9012 -2.6661 -1.8456
  443MOL0     H58463   3.481   5.683   5.822  2.0428  1.2285 -0.8736
  443MOL0     H58464   3.913   5.654   5.761 -1.7715 -0.2348  2.8273
  443MOL0     H58465   4.116   5.661   5.636 -1.4102  1.1985  2.0881
  443MOL0     H58466   4.261   5.307   5.459 -1.4252  1.7658  0.0832
  443MOL0     H58467   4.396   5.334   5.574  0.5716 -1.8934 -0.2120
  443MOL0     H58468   4.432   5.371   5.306  2.1118 -2.5802  2.1018
  443MOL0     H58469   4.357   5.531   5.340  0.3026  0.6479  1.4300
  443MOL0     H58470   4.612   5.400   5.440  1.3417  0.3296  2.1191
  443MOL0     H58471   4.544   5.533   5.538  1.2652  0.7108 -0.3673
  443MOL0     H58472   4.607   5.561   5.236 -0.2762 -1.6691 -0.1109
  443MOL0     H58473   4.553   5.689   5.347  0.5072 -1.0533 -1.1244
  443MOL0     H58474   4.943   5.715   5.453  0.0933  0.4018 -0.4387
  443MOL0     H58475   4.141   5.229   5.645 -0.7515 -1.6525 -0.1927
  443MOL0     H58476   3.936   5.229   5.783 -2.1531  0.4657 -3.2210
  444MOL0     O58477   4.804   7.072   4.053  0.0389 -0.4614 -0.0252
  444MOL0     C58478   4.706   7.044   4.129  0.1252  0.0175  0.5040
  444MOL0     O58479   4.672   7.114   4.253 -0.1196  0.2554 -0.1501
  444MOL0     C58480   4.731   7.239   4.271 -0.4296  0.0453  0.1556
  444MOL0     C58481   4.653   7.349   4.246 -0.6249  0.2906  0.4390
  444MOL0     C58482   4.702   7.472   4.285 -0.4927  0.5878 -0.0301
  444MOL0     C58483   4.826   7.487   4.357  0.0708 -0.1544  0.5874
  444MOL0     O58484   4.873   7.606   4.401  0.2026 -0.2703  0.3015
  444MOL0     C58485   4.765   7.700   4.430 -0.2968  0.8318 -0.3330
  444MOL0     C58486   4.823   7.825   4.497 -0.3660  0.3895  0.2694
  444MOL0     C58487   4.718   7.907   4.579 -0.7650 -0.1768 -0.4069
  444MOL0     C58488   4.626   7.982   4.491 -0.1253  0.1702  0.4078
  444MOL0     C58489   4.508   8.058   4.551 -0.2587 -0.2360  0.8120
  444MOL0     C58490   4.551   8.184   4.633  0.2800 -0.9492 -0.4340
  444MOL0     C58491   4.433   8.265   4.670  0.1692 -0.3512 -0.4684
  444MOL0     C58492   4.480   8.366   4.780 -0.0781 -0.5646  0.8701
  444MOL0     N58493   4.398   8.483   4.795  0.0539 -0.2007  0.0130
  444MOL0     C58494   4.403   8.600   4.719 -0.4395  0.5570 -0.9867
  444MOL0     C58495   4.307   8.685   4.778 -0.1000  0.7802  0.2204
  444MOL0     C58496   4.277   8.829   4.733  1.1197 -0.6820 -0.4746
  444MOL0     C58497   4.146   8.847   4.645  0.6396  0.9156 -0.2298
  444MOL0     C58498   4.030   8.841   4.740  0.7440  0.3970 -0.6740
  444MOL0     C58499   3.898   8.865   4.664 -0.6518  0.0831  0.0415
  444MOL0     O58500   3.785   8.855   4.754  0.0787 -0.1930  0.5067
  444MOL0     C58501   3.666   8.837   4.691 -0.5300  0.6444 -0.8212
  444MOL0     C58502   3.600   8.721   4.720  0.3330 -0.6494  0.2072
  444MOL0     C58503   3.470   8.700   4.667  0.2662  0.8697 -0.1790
  444MOL0     C58504   3.406   8.790   4.583 -0.1495 -0.1064 -0.8842
  444MOL0     C58505   3.267   8.767   4.537  0.2173 -0.2777  0.9854
  444MOL0     O58506   3.205   8.651   4.565 -0.1869 -0.1564 -0.4186
  444MOL0     C58507   3.076   8.630   4.509 -1.2529  0.4302 -0.0549
  444MOL0     C58508   2.963   8.695   4.551  0.3899  0.4954  0.4295
  444MOL0     C58509   2.837   8.645   4.519 -0.5449 -0.1988 -0.2465
  444MOL0     C58510   2.824   8.543   4.419 -0.1748 -0.6920 -1.0407
  444MOL0     O58511   2.710   8.498   4.362  0.1955 -0.0675  0.6219
  444MOL0     C58512   2.587   8.515   4.443  0.6601 -0.4863 -0.4552
  444MOL0     C58513   2.473   8.430   4.392 -0.0732  0.6204  0.8909
  444MOL0     C58514   2.325   8.462   4.445 -1.0251  0.0963  0.1818
  444MOL0     C58515   2.211   8.400   4.378  0.1199 -0.0854  0.6521
  444MOL0     C58516   2.072   8.423   4.446  0.0535 -0.6179  0.1927
  444MOL0     C58517   1.983   8.310   4.411 -0.1224 -0.5314  0.6475
  444MOL0     C58518   1.854   8.305   4.487  0.0140 -0.8940 -0.2234
  444MOL0     C58519   1.787   8.431   4.524 -0.0261 -0.1623  0.5425
  444MOL0    Cl58520   1.742   8.528   4.386 -0.2850  0.1651 -0.0929
  444MOL0     C58521   2.943   8.484   4.375  0.2168 -0.0434  0.7398
  444MOL0     C58522   3.067   8.533   4.418 -0.0232  0.0667  0.2227
  444MOL0     O58523   3.210   8.859   4.478 -0.6793  0.1382 -0.0934
  444MOL0     C58524   3.484   8.907   4.555  0.2664  0.0072  0.5351
  444MOL0     C58525   3.610   8.923   4.608  0.7096 -0.1814 -0.9681
  444MOL0     N58526   4.251   8.619   4.884  0.1099  0.5088  0.0865
  444MOL0     N58527   4.305   8.500   4.893 -0.4763 -0.1287  0.8256
  444MOL0     C58528   4.903   7.369   4.369  0.0071  0.1698 -0.5843
  444MOL0     C58529   4.856   7.245   4.331  0.2852  0.5962 -0.6128
  444MOL0     C58530   4.623   6.932   4.101  0.8410 -0.0696  0.2086
  444MOL0     C58531   4.631   6.859   3.982  0.4126 -0.7062  0.4279
  444MOL0     C58532   4.533   6.768   3.952  0.6405  0.4590 -1.1712
  444MOL0     C58533   4.435   6.730   4.041  0.3294  0.5609  0.2484
  444MOL0     O58534   4.341   6.629   4.014  0.3931  0.2616 -0.1188
  444MOL0     C58535   4.348   6.542   3.896 -0.3718  0.2675  0.0618
  444MOL0     C58536   4.252   6.423   3.920  0.0195  0.7635 -0.4209
  444MOL0     C58537   4.100   6.472   3.920 -0.6408 -0.1447  0.7683
  444MOL0     C58538   4.004   6.361   3.938  0.0214  0.1588 -0.2418
  444MOL0     C58539   3.864   6.411   3.954  1.1390  0.0145  0.3216
  444MOL0     C58540   3.756   6.469   3.965  0.4512 -0.4053  0.1162
  444MOL0     C58541   4.442   6.782   4.173  0.0641  0.0963  0.6869
  444MOL0     C58542   4.538   6.887   4.200  1.2839 -0.0473  0.1929
  444MOL0     H58543   4.553   7.342   4.203  0.0745 -0.1104 -1.2142
  444MOL0     H58544   4.632   7.551   4.261  0.0802  1.0454 -0.2380
  444MOL0     H58545   4.690   7.651   4.493 -1.4297  1.0110 -1.4984
  444MOL0     H58546   4.710   7.740   4.344 -0.9326  0.4692 -0.0938
  444MOL0     H58547   4.863   7.884   4.414 -2.1779  0.3841 -0.6587
  444MOL0     H58548   4.901   7.799   4.569 -1.0196  1.9467  1.5947
  444MOL0     H58549   4.766   7.976   4.649 -3.5289 -0.0461  1.5190
  444MOL0     H58550   4.668   7.835   4.645  1.3193  0.5410  2.1547
  444MOL0     H58551   4.682   8.054   4.432  1.1682 -1.3311 -0.2647
  444MOL0     H58552   4.589   7.913   4.415  1.0686 -0.9735  0.8112
  444MOL0     H58553   4.442   7.992   4.608  0.0886 -0.5630  0.8439
  444MOL0     H58554   4.450   8.099   4.468  1.2598  0.3722  0.0218
  444MOL0     H58555   4.619   8.233   4.562  0.6547 -1.9911 -0.8256
  444MOL0     H58556   4.614   8.154   4.717 -1.6414 -0.1690  1.3449
  444MOL0     H58557   4.396   8.327   4.588 -0.6467 -1.0138 -0.6089
  444MOL0     H58558   4.356   8.194   4.700 -2.3802  2.1556 -0.7207
  444MOL0     H58559   4.580   8.403   4.755 -0.5715  0.2066 -0.0443
  444MOL0     H58560   4.490   8.317   4.878  1.6159 -0.9082  0.5499
  444MOL0     H58561   4.463   8.620   4.631  2.2738  0.5069  0.7287
  444MOL0     H58562   4.366   8.860   4.678  0.6127 -0.3951 -1.1503
  444MOL0     H58563   4.252   8.892   4.818 -3.2375 -0.9952 -1.2788
  444MOL0     H58564   4.142   8.769   4.569  3.0228  1.7962 -1.3628
  444MOL0     H58565   4.154   8.939   4.587  0.3596  1.8341  1.1310
  444MOL0     H58566   4.028   8.743   4.787  2.3923  0.9510  0.6617
  444MOL0     H58567   4.027   8.919   4.817 -0.6559 -1.8120  1.6279
  444MOL0     H58568   3.881   8.793   4.583  0.4314  0.3481 -0.4493
  444MOL0     H58569   3.902   8.964   4.618  2.2160  0.3540  0.6963
  444MOL0     H58570   3.650   8.661   4.794  1.0763  1.7320  1.7448
  444MOL0     H58571   3.420   8.612   4.707 -1.5799  2.4078  1.0654
  444MOL0     H58572   2.973   8.782   4.616  1.0751  0.7724 -0.0319
  444MOL0     H58573   2.745   8.679   4.564 -2.3781 -1.8500 -2.4539
  444MOL0     H58574   2.556   8.620   4.445 -2.5493 -1.2318 -3.5397
  444MOL0     H58575   2.609   8.482   4.546 -0.0239 -0.0583 -0.1662
  444MOL0     H58576   2.504   8.325   4.402  1.2337  0.8159 -0.7418
  444MOL0     H58577   2.471   8.457   4.287  0.9991  0.5942  0.8542
  444MOL0     H58578   2.312   8.570   4.438  0.0023  0.2934  1.0945
  444MOL0     H58579   2.320   8.432   4.550  0.5234 -1.5602 -0.1669
  444MOL0     H58580   2.207   8.427   4.272 -1.1473  1.0797  0.9593
  444MOL0     H58581   2.238   8.294   4.386  0.6050 -0.1662 -1.4577
  444MOL0     H58582   2.018   8.507   4.401 -2.2086 -2.1765 -0.1673
  444MOL0     H58583   2.079   8.423   4.555  0.4034 -1.9462  0.1844
  444MOL0     H58584   2.034   8.216   4.430 -0.4583 -1.0516 -0.8860
  444MOL0     H58585   1.958   8.315   4.304 -1.0170 -1.3902  0.8061
  444MOL0     H58586   1.780   8.246   4.432  0.2178 -0.5242 -0.9111
  444MOL0     H58587   1.870   8.242   4.576 -2.4041 -4.1087 -1.8456
  444MOL0     H58588   1.843   8.493   4.594 -0.4033  0.2175  0.5119
  444MOL0     H58589   1.692   8.401   4.571 -0.7898 -1.0084 -1.4356
  444MOL0     H58590   2.934   8.399   4.307 -1.9884 -0.2668  1.2530
  444MOL0     H58591   3.160   8.485   4.390  0.8535  1.0725  1.2920
  444MOL0     H58592   3.436   8.987   4.499 -1.9365 -0.6548  1.3752
  444MOL0     H58593   3.666   9.010   4.574  1.3998  1.1937  3.0741
  444MOL0     H58594   5.000   7.371   4.418 -0.7344 -0.7024  0.9586
  444MOL0     H58595   4.910   7.151   4.333  1.6405  1.3426 -0.5816
  444MOL0     H58596   4.706   6.896   3.912 -1.1774  3.8466  0.8149
  444MOL0     H58597   4.537   6.713   3.859  1.6033 -2.8875  0.7133
  444MOL0     H58598   4.450   6.506   3.881  1.1149  4.1795 -0.5470
  444MOL0     H58599   4.326   6.590   3.800  0.5667 -2.1823 -1.4721
  444MOL0     H58600   4.257   6.350   3.838 -0.1729 -1.0873  1.1353
  444MOL0     H58601   4.272   6.367   4.011 -2.6828 -0.7453 -0.6279
  444MOL0     H58602   4.086   6.527   3.826  1.3157 -0.2854  0.3680
  444MOL0     H58603   4.087   6.544   4.002  0.4809  2.2995 -1.0734
  444MOL0     H58604   4.014   6.285   3.860 -0.4294 -0.0642 -0.0866
  444MOL0     H58605   4.022   6.306   4.031 -0.4878  0.7303  0.2061
  444MOL0     H58606   3.658   6.513   3.969  0.6050 -0.1238  1.0464
  444MOL0     H58607   4.359   6.756   4.238  2.0815 -0.6988  3.1240
  444MOL0     H58608   4.512   6.934   4.295 -0.6544 -0.2725 -0.1765
  445MOL0     O58609   8.473  10.954   6.314 -0.1236  0.4408  0.0486
  445MOL0     C58610   8.524  10.848   6.273  0.4135 -0.3125  0.4610
  445MOL0     O58611   8.460  10.772   6.182 -0.1040  1.2748 -0.1594
  445MOL0     C58612   8.325  10.789   6.153 -0.6716  0.0889 -0.3378
  445MOL0     C58613   8.224  10.776   6.250 -0.1524 -0.1191  0.4384
  445MOL0     C58614   8.091  10.788   6.218  0.7151  0.0337 -0.5569
  445MOL0     C58615   8.050  10.793   6.082  0.9845  0.0896  0.5318
  445MOL0     O58616   7.910  10.784   6.052  0.1168  0.0014  0.5062
  445MOL0     C58617   7.861  10.798   5.911 -0.2077 -0.6680 -0.6081
  445MOL0     C58618   7.709  10.841   5.902 -0.1525 -0.1120 -0.3418
  445MOL0     C58619   7.623  10.727   5.938 -0.3205  0.1751  0.1869
  445MOL0     C58620   7.469  10.780   5.938 -0.4353 -0.3906  0.2706
  445MOL0     C58621   7.383  10.687   6.021  0.0056  0.3661  0.7508
  445MOL0     C58622   7.242  10.725   5.996  0.7247  0.3519 -0.1437
  445MOL0     C58623   7.150  10.631   6.061  0.0576  0.8306  0.2742
  445MOL0     C58624   7.009  10.675   6.023  0.6271 -0.3827  0.0504
  445MOL0     N58625   6.905  10.578   6.061  0.2746  0.4891  0.1663
  445MOL0     C58626   6.897  10.442   6.025 -0.3050 -0.3419 -0.6850
  445MOL0     C58627   6.765  10.409   6.043 -0.2583  0.2762 -0.0358
  445MOL0     C58628   6.718  10.268   6.033 -0.1485  0.5253 -0.4306
  445MOL0     C58629   6.628  10.250   6.147 -0.3475  0.4848 -1.3997
  445MOL0     C58630   6.583  10.099   6.142  0.2925 -0.5992  0.4259
  445MOL0     C58631   6.478  10.058   6.245  0.0557  0.4686  0.3003
  445MOL0     O58632   6.360  10.135   6.220  0.3580  0.4177  0.3074
  445MOL0     C58633   6.251  10.125   6.306  0.3861  0.1773  1.0282
  445MOL0     C58634   6.147  10.211   6.286 -0.9615  0.4756 -0.7094
  445MOL0     C58635   6.027  10.193   6.349  0.5629 -0.2009 -0.6654
  445MOL0     C58636   6.001  10.099   6.453 -0.2603 -0.3766  0.8299
  445MOL0     C58637   5.872  10.094   6.520  1.0094  0.3460  0.0381
  445MOL0     O58638   5.777  10.187   6.489  0.5672 -0.5976 -0.6421
  445MOL0     C58639   5.666  10.187   6.569 -0.2441 -0.3637 -0.4803
  445MOL0     C58640   5.666  10.254   6.696  0.2327 -0.2405 -0.1037
  445MOL0     C58641   5.551  10.264   6.775 -0.8254  0.2072  0.6214
  445MOL0     C58642   5.431  10.205   6.729 -0.3285  0.6312  0.2401
  445MOL0     O58643   5.318  10.204   6.809  0.5991  0.6265 -0.4087
  445MOL0     C58644   5.227  10.094   6.795 -1.0568  0.5312  0.1547
  445MOL0     C58645   5.123  10.137   6.892  0.9919  0.0688 -0.6182
  445MOL0     C58646   5.001  10.046   6.889  0.3822 -0.8752 -0.3095
  445MOL0     C58647   4.907  10.071   6.775  0.2765  0.0258  0.5026
  445MOL0     C58648   4.801   9.967   6.787 -0.1680 -1.1432 -0.4877
  445MOL0     C58649   4.690  10.003   6.900 -0.2087  0.0816  0.0564
  445MOL0     C58650   4.599   9.886   6.946  0.2478  0.1902  0.1386
  445MOL0     C58651   4.495   9.838   6.845 -0.1574  0.0763  0.2482
  445MOL0    Cl58652   4.384   9.971   6.814  0.2277  0.0025 -0.0968
  445MOL0     C58653   5.443  10.122   6.610  0.2272  1.1255  0.3450
  445MOL0     C58654   5.555  10.112   6.537 -0.3634  0.0903  0.6610
  445MOL0     O58655   5.855   9.994   6.594 -0.2990 -0.3178 -0.3715
  445MOL0     C58656   6.111  10.010   6.475 -0.0079 -0.2906  0.1979
  445MOL0     C58657   6.236  10.023   6.402 -0.6558  0.9920 -0.9664
  445MOL0     N58658   6.698  10.520   6.066  0.2431 -0.6095 -0.1056
  445MOL0     N58659   6.780  10.621   6.085 -0.0546  0.2723 -0.5339
  445MOL0     C58660   8.146  10.808   5.982  0.2601  0.0393  0.2409
  445MOL0     C58661   8.282  10.812   6.017  0.0795  0.3186  0.0443
  445MOL0     C58662   8.646  10.788   6.330 -0.0962  0.1849 -0.0963
  445MOL0     C58663   8.713  10.855   6.430  0.5319  0.2302 -0.2502
  445MOL0     C58664   8.821  10.797   6.497  0.1275  0.2546  0.0357
  445MOL0     C58665   8.880  10.674   6.455  0.3614 -0.3800 -0.4495
  445MOL0     O58666   8.978  10.609   6.532 -0.2034 -0.8263  0.2004
  445MOL0     C58667   9.064  10.667   6.629  0.7532 -0.2578  0.6961
  445MOL0     C58668   9.006  10.680   6.768 -0.2143  0.1781 -0.1884
  445MOL0     C58669   8.908  10.560   6.811 -0.2329  0.8260  0.3482
  445MOL0     C58670   8.983  10.423   6.810  0.3204  0.1659  0.6352
  445MOL0     C58671   8.876  10.317   6.808 -0.4864  0.3198  0.5666
  445MOL0     C58672   8.757  10.162   6.817  1.0011  0.0228 -0.5843
  445MOL0     C58673   8.822  10.618   6.348 -0.1774  0.7174  0.0580
  445MOL0     C58674   8.705  10.663   6.294  0.4304  0.3751 -0.6884
  445MOL0     H58675   8.247  10.766   6.356  0.6977  2.2635  0.5416
  445MOL0     H58676   8.019  10.788   6.299  1.7486 -1.4020  0.4112
  445MOL0     H58677   7.869  10.702   5.858 -1.2582 -3.1073  3.1861
  445MOL0     H58678   7.913  10.874   5.852  0.9009 -0.5229  0.5015
  445MOL0     H58679   7.681  10.879   5.804  0.8665 -0.6490 -0.8547
  445MOL0     H58680   7.696  10.928   5.967  0.8757  1.4495 -2.1420
  445MOL0     H58681   7.647  10.682   6.035  2.3353  0.5408 -0.2211
  445MOL0     H58682   7.642  10.649   5.863 -0.1771  0.8260 -0.4667
  445MOL0     H58683   7.470  10.880   5.982  1.2339 -1.5085  3.1159
  445MOL0     H58684   7.429  10.788   5.837 -1.9928 -1.7525  0.7484
  445MOL0     H58685   7.424  10.699   6.122 -0.2050  0.0948  0.8709
  445MOL0     H58686   7.408  10.583   5.996  0.0457  0.6585 -0.4420
  445MOL0     H58687   7.220  10.729   5.889  0.5713 -0.8454 -0.1718
  445MOL0     H58688   7.228  10.828   6.031  0.6873  0.1094  0.5826
  445MOL0     H58689   7.162  10.531   6.018 -1.1124 -0.5745  2.9807
  445MOL0     H58690   7.168  10.621   6.169  0.5301 -1.5556  0.0290
  445MOL0     H58691   7.010  10.680   5.914  1.8416  0.2119  0.0723
  445MOL0     H58692   6.977  10.774   6.057 -1.4221  0.2127 -3.1877
  445MOL0     H58693   6.969  10.366   5.999 -0.6360 -0.4575 -1.2838
  445MOL0     H58694   6.805  10.201   6.034  0.8985  1.8248  1.2765
  445MOL0     H58695   6.673  10.245   5.936  1.6462  2.7400 -1.8919
  445MOL0     H58696   6.543  10.318   6.141 -1.4126 -0.6311  0.1654
  445MOL0     H58697   6.676  10.270   6.244 -0.4182 -0.1216 -1.2372
  445MOL0     H58698   6.544  10.076   6.042  0.6248 -3.2058  0.8409
  445MOL0     H58699   6.669  10.033   6.155  0.7191 -0.3625 -0.9513
  445MOL0     H58700   6.520  10.074   6.344  3.4344  0.0862 -0.9303
  445MOL0     H58701   6.452   9.952   6.232 -3.0398  1.2391 -0.6510
  445MOL0     H58702   6.173  10.286   6.212  1.9256 -0.2832 -0.5607
  445MOL0     H58703   5.954  10.271   6.331  0.5437  0.1605  0.8210
  445MOL0     H58704   5.760  10.295   6.732 -0.6473  0.6623  1.2674
  445MOL0     H58705   5.573  10.312   6.870  1.8993  1.4928 -0.5545
  445MOL0     H58706   5.287  10.009   6.830  1.3046  2.6807  1.6253
  445MOL0     H58707   5.179  10.084   6.697 -0.1456  0.7592 -0.3256
  445MOL0     H58708   5.101  10.242   6.867 -0.2557 -0.2351 -0.8476
  445MOL0     H58709   5.170  10.153   6.990  0.8867 -1.4972 -0.2932
  445MOL0     H58710   4.949  10.049   6.986  1.0383 -1.9048  0.0955
  445MOL0     H58711   5.050   9.948   6.893  0.7933 -0.6286  2.0645
  445MOL0     H58712   4.862  10.170   6.776 -0.0964 -0.1062 -1.2691
  445MOL0     H58713   4.960  10.058   6.680 -0.9293  1.6851 -0.4320
  445MOL0     H58714   4.859   9.875   6.804  3.1456  0.5339 -1.6737
  445MOL0     H58715   4.754   9.950   6.690  0.0010  0.8408 -0.9668
  445MOL0     H58716   4.625  10.087   6.874 -0.4606  0.1789  0.9534
  445MOL0     H58717   4.742  10.020   6.995 -1.5946  1.0096  0.6895
  445MOL0     H58718   4.668   9.809   6.982  2.6256  2.7453  1.3751
  445MOL0     H58719   4.542   9.924   7.031 -1.0399 -1.3671  0.0254
  445MOL0     H58720   4.440   9.753   6.887  0.8251 -0.1275  1.1429
  445MOL0     H58721   4.545   9.811   6.751  0.4751  2.2487 -0.0797
  445MOL0     H58722   5.352  10.077   6.572 -0.5306  2.6830  0.2038
  445MOL0     H58723   5.543  10.059   6.443 -1.8106 -1.7482  1.8017
  445MOL0     H58724   6.100   9.944   6.560 -2.3982  2.5420  2.2941
  445MOL0     H58725   6.303   9.938   6.408 -2.4336 -0.3864  1.6927
  445MOL0     H58726   8.121  10.810   5.876 -0.2024 -0.4719  0.3369
  445MOL0     H58727   8.352  10.818   5.935 -2.1490 -0.8688 -2.0650
  445MOL0     H58728   8.677  10.953   6.460 -0.6179  0.3685 -1.9666
  445MOL0     H58729   8.857  10.855   6.581  1.6419  1.3938 -1.3620
  445MOL0     H58730   9.104  10.759   6.583 -0.0083 -0.8680 -1.2838
  445MOL0     H58731   9.151  10.601   6.636  0.3293 -1.2552 -2.0655
  445MOL0     H58732   9.082  10.704   6.843  0.6529 -2.3292 -0.1771
  445MOL0     H58733   8.945  10.771   6.761  2.5352  2.4107  2.1585
  445MOL0     H58734   8.825  10.558   6.739  1.0543  0.4410 -1.1847
  445MOL0     H58735   8.873  10.579   6.913 -0.8786 -3.3923  1.1038
  445MOL0     H58736   9.039  10.409   6.717 -0.2068  2.3201 -0.0628
  445MOL0     H58737   9.050  10.413   6.895  0.9737  1.1615  0.2562
  445MOL0     H58738   8.689  10.080   6.824  1.2091 -0.2524 -1.5183
  445MOL0     H58739   8.862  10.531   6.297 -1.6207  0.8514 -1.3745
  445MOL0     H58740   8.654  10.605   6.218 -0.8239 -0.4236  0.7158
  446MOL0     O58741   4.514   0.011   4.036  0.6157  0.6440 -0.1754
  446MOL0     C58742   4.530   0.113   4.103  0.9287  0.1875 -0.0692
  446MOL0     O58743   4.450   0.146   4.209 -0.6404  0.7035 -0.3614
  446MOL0     C58744   4.338   0.072   4.228  0.5606 -0.0656  0.1880
  446MOL0     C58745   4.214   0.118   4.174  0.1120  0.1320  0.5286
  446MOL0     C58746   4.094   0.052   4.214 -0.0302  0.3678  0.2778
  446MOL0     C58747   4.086  -0.051   4.304 -0.5266 -0.4503  0.4363
  446MOL0     O58748   3.963  -0.107   4.323  0.0975  0.0695 -1.1721
  446MOL0     C58749   3.952  -0.243   4.384 -0.0635  0.5717 -0.2192
  446MOL0     C58750   3.819  -0.306   4.353  0.2743 -0.6321 -0.8775
  446MOL0     C58751   3.747  -0.347   4.489 -0.1579  0.0075  0.6550
  446MOL0     C58752   3.610  -0.414   4.457 -0.0159 -0.3331  0.1457
  446MOL0     C58753   3.505  -0.405   4.569 -0.0586  0.5710  0.1178
  446MOL0     C58754   3.473  -0.259   4.618  0.6087  0.2430 -0.3500
  446MOL0     C58755   3.446  -0.263   4.775  0.1948  0.7900 -0.3183
  446MOL0     C58756   3.563  -0.220   4.860 -0.2818  0.2725 -0.3395
  446MOL0     N58757   3.675  -0.314   4.846  0.5821  0.4078 -0.1166
  446MOL0     C58758   3.815  -0.280   4.827  0.1140  0.4097 -1.0204
  446MOL0     C58759   3.884  -0.391   4.860  0.3504 -0.0804 -0.5540
  446MOL0     C58760   4.024  -0.422   4.872 -0.3051 -0.1763  0.4208
  446MOL0     C58761   4.063  -0.548   4.784 -0.0071 -0.5249  0.3175
  446MOL0     C58762   4.203  -0.587   4.807  0.4232 -1.1084  0.0189
  446MOL0     C58763   4.237  -0.714   4.731 -0.3011  0.8111  0.0338
  446MOL0     O58764   4.361  -0.776   4.778  0.3398  0.4854  0.0538
  446MOL0     C58765   4.481  -0.727   4.737 -0.0310 -0.1256  0.4954
  446MOL0     C58766   4.503  -0.647   4.621 -0.0359 -0.6383 -1.1298
  446MOL0     C58767   4.627  -0.604   4.584  0.1948  0.4277 -0.2613
  446MOL0     C58768   4.747  -0.644   4.652 -0.3056 -0.6668  0.3842
  446MOL0     C58769   4.887  -0.592   4.612  0.5721 -0.8303 -0.2750
  446MOL0     O58770   4.998  -0.647   4.687  0.5336 -0.2161 -0.2591
  446MOL0     C58771   5.118  -0.592   4.653 -0.1661  0.2561 -0.8000
  446MOL0     C58772   5.191  -0.532   4.755 -0.4244 -0.2946 -0.9195
  446MOL0     C58773   5.319  -0.483   4.732 -0.9505  0.7232 -0.0712
  446MOL0     C58774   5.387  -0.497   4.609  0.1276  1.7794  0.3693
  446MOL0     O58775   5.513  -0.450   4.590  0.2989 -0.5957  0.0867
  446MOL0     C58776   5.600  -0.528   4.513  0.0650  0.1028  0.5123
  446MOL0     C58777   5.745  -0.478   4.530 -0.7257 -0.5882  0.4333
  446MOL0     C58778   5.753  -0.327   4.478  0.3303  0.5645 -0.0658
  446MOL0     C58779   5.888  -0.260   4.495 -0.8913  0.0286 -0.1594
  446MOL0     C58780   5.901  -0.132   4.415 -0.0192  0.3797 -0.0233
  446MOL0     C58781   5.784  -0.033   4.450  0.4960  0.2262  0.1827
  446MOL0     C58782   5.771  -0.005   4.601 -0.0439  0.5555 -0.1292
  446MOL0     C58783   5.653   0.087   4.626 -0.0383  0.3128  0.1056
  446MOL0    Cl58784   5.495   0.012   4.641 -0.4749  0.3911  0.2406
  446MOL0     C58785   5.319  -0.575   4.511 -0.5962  0.9772 -1.1221
  446MOL0     C58786   5.191  -0.629   4.539 -0.2796 -0.0812  0.7552
  446MOL0     O58787   4.899  -0.519   4.516  0.8795 -0.4966 -0.1525
  446MOL0     C58788   4.723  -0.722   4.762  0.1283  0.3262  0.0346
  446MOL0     C58789   4.596  -0.762   4.808 -0.1400  0.4470  0.1561
  446MOL0     N58790   3.792  -0.481   4.908  1.0789  0.2969  0.7060
  446MOL0     N58791   3.667  -0.440   4.893  0.0014  0.0440 -0.3776
  446MOL0     C58792   4.217  -0.100   4.355 -0.2875 -0.1578  0.5147
  446MOL0     C58793   4.330  -0.032   4.324 -0.1575 -0.8457  0.3951
  446MOL0     C58794   4.652   0.195   4.079  1.0815  0.0705  0.2381
  446MOL0     C58795   4.722   0.175   3.961 -0.3164 -0.8455 -1.0952
  446MOL0     C58796   4.837   0.254   3.944  0.0179 -0.5258 -0.5098
  446MOL0     C58797   4.888   0.336   4.040 -1.2744 -0.5931 -0.6046
  446MOL0     O58798   5.011   0.401   4.044 -0.2198 -0.0415  0.8174
  446MOL0     C58799   5.091   0.414   3.930 -0.6669  0.5408  0.6937
  446MOL0     C58800   5.180   0.536   3.923 -0.8431 -0.2338 -0.1351
  446MOL0     C58801   5.257   0.573   3.786  0.3775 -0.6650 -0.5548
  446MOL0     C58802   5.167   0.554   3.660 -0.1434  0.2020 -0.1954
  446MOL0     C58803   5.173   0.413   3.614 -0.2189  0.1811  0.5138
  446MOL0     C58804   5.179   0.298   3.578  0.3196 -0.6999  0.1159
  446MOL0     C58805   4.819   0.356   4.156 -0.2403  0.4789 -0.3019
  446MOL0     C58806   4.707   0.274   4.182  0.4862 -0.4090 -0.6913
  446MOL0     H58807   4.212   0.205   4.109 -0.0009  0.2376  0.6728
  446MOL0     H58808   3.995   0.080   4.181  0.0600  1.7195  1.0622
  446MOL0     H58809   3.971  -0.234   4.491  2.0026  5.1061 -0.7090
  446MOL0     H58810   4.031  -0.309   4.347 -0.2837 -0.4707  1.1150
  446MOL0     H58811   3.839  -0.402   4.304 -1.4433 -2.2422  1.3148
  446MOL0     H58812   3.754  -0.243   4.293  0.4038  0.4350  0.0673
  446MOL0     H58813   3.727  -0.252   4.539 -0.1347  0.9464 -1.0452
  446MOL0     H58814   3.810  -0.415   4.547  0.7995 -0.4067 -0.8192
  446MOL0     H58815   3.568  -0.357   4.374 -1.8803 -1.2407  0.4023
  446MOL0     H58816   3.635  -0.517   4.430  1.5343 -0.1014  0.6018
  446MOL0     H58817   3.553  -0.471   4.643 -1.9895 -0.3849  0.5743
  446MOL0     H58818   3.410  -0.447   4.536  0.8673 -0.4818 -1.3533
  446MOL0     H58819   3.392  -0.221   4.555  1.6989 -2.6533 -3.8757
  446MOL0     H58820   3.560  -0.193   4.611  0.9216  0.2411  2.3747
  446MOL0     H58821   3.365  -0.194   4.797 -2.0726 -1.7135 -0.3060
  446MOL0     H58822   3.407  -0.363   4.797  0.0636  0.7714 -0.6244
  446MOL0     H58823   3.537  -0.221   4.967 -0.4360  2.0915 -0.3269
  446MOL0     H58824   3.601  -0.121   4.835  1.9425  0.3341  2.7185
  446MOL0     H58825   3.864  -0.189   4.794  2.8922  0.3757  2.3584
  446MOL0     H58826   4.045  -0.444   4.977  3.4491 -0.2945 -0.2059
  446MOL0     H58827   4.092  -0.338   4.855 -0.1148 -0.3108  0.5048
  446MOL0     H58828   4.042  -0.524   4.680 -1.9171 -0.8293  0.5982
  446MOL0     H58829   4.003  -0.634   4.816 -1.4710  0.1968 -0.4436
  446MOL0     H58830   4.264  -0.504   4.767  1.0712 -2.5682 -2.2401
  446MOL0     H58831   4.224  -0.606   4.912 -0.5974  2.8753  1.1323
  446MOL0     H58832   4.252  -0.684   4.626  0.2713  2.6940  0.6105
  446MOL0     H58833   4.166  -0.795   4.751  0.7813  0.4912  3.0058
  446MOL0     H58834   4.419  -0.617   4.559 -0.3825  1.2880  0.1958
  446MOL0     H58835   4.645  -0.553   4.490  0.7170 -0.3777 -0.6089
  446MOL0     H58836   5.142  -0.508   4.850 -0.1880 -1.1108 -0.5851
  446MOL0     H58837   5.364  -0.421   4.809 -0.3023  2.5588 -1.8562
  446MOL0     H58838   5.567  -0.526   4.409  2.0591  1.2161 -0.1647
  446MOL0     H58839   5.611  -0.632   4.546 -0.2083 -0.0291  0.1930
  446MOL0     H58840   5.818  -0.542   4.480 -0.6317 -1.9311  2.1755
  446MOL0     H58841   5.758  -0.490   4.638  0.9339  0.3456  0.3701
  446MOL0     H58842   5.674  -0.267   4.523 -0.2031  0.5110 -0.9161
  446MOL0     H58843   5.727  -0.327   4.372 -0.2749  0.9767  0.0762
  446MOL0     H58844   5.902  -0.243   4.602  2.5127  0.7700 -0.6020
  446MOL0     H58845   5.966  -0.329   4.462 -1.5257 -1.4589  1.3291
  446MOL0     H58846   5.906  -0.150   4.308  0.5178 -1.0047  0.2201
  446MOL0     H58847   5.992  -0.076   4.440 -0.2910  1.7704 -1.9561
  446MOL0     H58848   5.691  -0.078   4.414  1.5944 -0.8890 -1.3597
  446MOL0     H58849   5.813   0.056   4.393  0.1648 -0.5543 -1.2304
  446MOL0     H58850   5.741  -0.088   4.665 -4.2838  1.0536 -1.1667
  446MOL0     H58851   5.860   0.046   4.640  2.9312 -1.5059 -3.5083
  446MOL0     H58852   5.640   0.153   4.540  1.5384  2.1574  1.2052
  446MOL0     H58853   5.687   0.141   4.715 -0.6682 -0.1853  0.6585
  446MOL0     H58854   5.375  -0.613   4.426  1.0991 -2.6295  1.3312
  446MOL0     H58855   5.149  -0.705   4.473  0.1015  0.2731  0.0878
  446MOL0     H58856   4.809  -0.749   4.823 -0.2316  3.4605  2.2381
  446MOL0     H58857   4.586  -0.826   4.896 -0.7737  0.8808  0.4106
  446MOL0     H58858   4.224  -0.184   4.424  0.1292 -0.3848  0.1969
  446MOL0     H58859   4.420  -0.075   4.366  0.4806 -1.7901 -1.8108
  446MOL0     H58860   4.694   0.096   3.891 -0.1987 -0.4974 -1.5400
  446MOL0     H58861   4.888   0.260   3.849 -0.8731  1.8921 -0.9184
  446MOL0     H58862   5.029   0.436   3.843 -1.6799  0.2857  1.3265
  446MOL0     H58863   5.144   0.319   3.916 -2.7794 -0.7219  0.7808
  446MOL0     H58864   5.112   0.619   3.942 -2.5365 -1.3038 -1.2056
  446MOL0     H58865   5.250   0.539   4.007 -1.7610  0.3531  0.6155
  446MOL0     H58866   5.351   0.519   3.774  0.4519 -0.7129  0.1854
  446MOL0     H58867   5.276   0.681   3.794  1.8467 -1.0298  1.8357
  446MOL0     H58868   5.067   0.579   3.696  1.0196  3.6305  1.0077
  446MOL0     H58869   5.194   0.625   3.582 -0.5589  3.3434  2.3186
  446MOL0     H58870   5.190   0.197   3.544  1.4732 -0.8754  0.9402
  446MOL0     H58871   4.866   0.419   4.231 -1.7327  0.7442  0.4466
  446MOL0     H58872   4.662   0.279   4.280  0.4638 -0.2996 -0.7064
  447MOL0     O58873   7.324   2.148   8.881 -0.2490  0.1858 -0.3996
  447MOL0     C58874   7.363   2.057   8.812 -0.2850 -0.1484 -0.4398
  447MOL0     O58875   7.299   1.937   8.789 -0.0309  0.2128  0.8814
  447MOL0     C58876   7.168   1.913   8.818  0.1108  0.0508  0.1337
  447MOL0     C58877   7.070   2.014   8.817  0.2126  0.0504 -0.6359
  447MOL0     C58878   6.934   1.976   8.831 -0.1844  0.7046 -0.7104
  447MOL0     C58879   6.890   1.842   8.855 -0.2920 -0.3520 -0.4336
  447MOL0     O58880   6.753   1.825   8.871  0.4563  0.1253 -0.5038
  447MOL0     C58881   6.705   1.695   8.929 -0.2981 -1.2897 -0.7475
  447MOL0     C58882   6.562   1.734   8.988 -0.8434  0.3789  0.8301
  447MOL0     C58883   6.476   1.795   8.876  0.2500 -0.2076 -0.0526
  447MOL0     C58884   6.340   1.849   8.917  0.3293 -0.1835  0.0580
  447MOL0     C58885   6.263   1.851   8.789  0.1363 -0.1711 -0.0474
  447MOL0     C58886   6.118   1.896   8.817  0.0978  0.2714  0.1190
  447MOL0     C58887   6.033   1.882   8.690 -0.8638 -0.5241 -0.3653
  447MOL0     C58888   5.886   1.933   8.710  0.5407  0.5775  0.0881
  447MOL0     N58889   5.824   1.921   8.580 -0.0911  0.2332  0.2736
  447MOL0     C58890   5.687   1.904   8.569 -1.2542 -0.3912 -0.8346
  447MOL0     C58891   5.666   1.923   8.440  0.0952  1.6475  0.3317
  447MOL0     C58892   5.533   1.916   8.367 -0.0295  0.2855 -0.1768
  447MOL0     C58893   5.458   2.046   8.388 -0.0892 -0.4001 -0.1101
  447MOL0     C58894   5.345   2.071   8.287 -0.0392  0.3808  0.1232
  447MOL0     C58895   5.244   1.963   8.248  0.4437 -0.3216 -0.2069
  447MOL0     O58896   5.178   2.001   8.128 -0.0161 -0.2616  0.3169
  447MOL0     C58897   5.119   1.912   8.038  0.0565  0.7883  0.1457
  447MOL0     C58898   5.056   1.966   7.925  0.0870  0.6772 -0.3447
  447MOL0     C58899   5.008   1.879   7.826  0.3529  0.3783  0.0985
  447MOL0     C58900   5.001   1.738   7.854  0.8485 -0.2535  0.0012
  447MOL0     C58901   4.953   1.639   7.762  0.5952  0.3772  0.0336
  447MOL0     O58902   4.956   1.507   7.797 -0.1501 -0.3126 -0.8303
  447MOL0     C58903   4.862   1.422   7.751  0.0347  0.0823 -0.0962
  447MOL0     C58904   4.907   1.298   7.708  0.3214  0.1785  0.4402
  447MOL0     C58905   4.811   1.201   7.656  0.4344  0.4702  0.4186
  447MOL0     C58906   4.672   1.222   7.664  0.2394  0.7859 -0.5573
  447MOL0     O58907   4.599   1.123   7.604 -0.2572 -0.0727  0.1533
  447MOL0     C58908   4.457   1.135   7.618  0.3766 -1.0294  0.5755
  447MOL0     C58909   4.382   0.998   7.632 -0.2145 -0.4611 -0.2598
  447MOL0     C58910   4.427   0.901   7.743  0.0705 -0.0132 -0.0915
  447MOL0     C58911   4.349   0.775   7.727 -0.1433  0.2882  0.0941
  447MOL0     C58912   4.379   0.705   7.861  0.2533  0.1933  0.0445
  447MOL0     C58913   4.313   0.569   7.869 -0.3222  1.1595 -0.7360
  447MOL0     C58914   4.166   0.566   7.827 -0.9623  0.6022  0.2827
  447MOL0     C58915   4.100   0.433   7.884 -0.4928  0.4597 -0.0980
  447MOL0    Cl58916   4.197   0.288   7.808 -0.2332 -0.3507  0.5084
  447MOL0     C58917   4.638   1.346   7.716  0.1894  0.9421 -0.7695
  447MOL0     C58918   4.726   1.440   7.766  0.3846 -0.0207  0.5176
  447MOL0     O58919   4.924   1.678   7.652  0.4869 -0.2691  0.0305
  447MOL0     C58920   5.058   1.689   7.979  0.2130  0.3230  0.0921
  447MOL0     C58921   5.134   1.774   8.063  0.1502 -0.0299 -0.0943
  447MOL0     N58922   5.788   1.946   8.368  0.0947  0.2558  1.4918
  447MOL0     N58923   5.877   1.948   8.461 -0.3250  0.4306 -0.3506
  447MOL0     C58924   6.987   1.750   8.869 -0.7365 -0.6160 -0.2093
  447MOL0     C58925   7.124   1.784   8.847  0.0803 -0.0100  0.5021
  447MOL0     C58926   7.497   2.061   8.748 -0.7182 -0.2900  0.5526
  447MOL0     C58927   7.569   2.181   8.751 -1.1295  0.3119  0.0425
  447MOL0     C58928   7.699   2.192   8.686  1.0722  0.0531  0.1614
  447MOL0     C58929   7.747   2.082   8.612  0.0917 -0.1627 -0.4492
  447MOL0     O58930   7.870   2.108   8.548 -0.0811 -0.6636  0.5052
  447MOL0     C58931   7.942   1.991   8.492 -0.6153  0.5170 -0.0958
  447MOL0     C58932   7.889   1.956   8.351 -0.3174  0.7435 -0.0622
  447MOL0     C58933   7.967   1.839   8.294  0.9173 -0.9565 -0.7696
  447MOL0     C58934   7.985   1.847   8.147  0.7100  0.0000  0.4744
  447MOL0     C58935   7.862   1.819   8.083  0.5452  0.2389 -0.5413
  447MOL0     C58936   7.756   1.804   8.023 -0.4933  0.6926  0.7565
  447MOL0     C58937   7.672   1.966   8.602 -1.0818 -0.8612 -0.2990
  447MOL0     C58938   7.550   1.958   8.666  0.2376  0.4791 -0.7796
  447MOL0     H58939   7.099   2.115   8.790  1.2546  0.0856  0.5291
  447MOL0     H58940   6.851   2.045   8.824 -1.5503 -0.4234  2.5078
  447MOL0     H58941   6.772   1.665   9.011 -1.5801 -1.8961  0.1085
  447MOL0     H58942   6.711   1.618   8.852  1.8475 -0.3534 -1.6207
  447MOL0     H58943   6.571   1.809   9.067  0.0794  0.5215  0.5958
  447MOL0     H58944   6.515   1.638   9.014 -1.9842  0.4020 -0.9444
  447MOL0     H58945   6.458   1.712   8.808 -0.2483  0.4251 -0.7135
  447MOL0     H58946   6.531   1.876   8.826 -0.2628 -0.5684 -1.2497
  447MOL0     H58947   6.293   1.786   8.993 -0.5711  0.7927  0.3466
  447MOL0     H58948   6.352   1.948   8.963  2.1193 -0.9384  1.3287
  447MOL0     H58949   6.257   1.745   8.765  0.8987 -0.5809  1.4341
  447MOL0     H58950   6.306   1.919   8.715 -0.4488 -3.0820 -3.2838
  447MOL0     H58951   6.114   2.004   8.834 -0.0927  0.6328 -1.9109
  447MOL0     H58952   6.067   1.842   8.898 -0.0680 -1.2792 -0.9657
  447MOL0     H58953   6.088   1.932   8.610  1.1786 -1.2802  0.5194
  447MOL0     H58954   6.036   1.776   8.663 -1.8974 -0.6527 -0.0415
  447MOL0     H58955   5.889   2.035   8.748 -1.7315  1.2588 -1.3710
  447MOL0     H58956   5.832   1.874   8.784 -0.3265 -0.2662 -1.1794
  447MOL0     H58957   5.619   1.883   8.650 -0.2486  0.7152  0.3358
  447MOL0     H58958   5.470   1.830   8.389 -1.2903  0.6008 -2.2614
  447MOL0     H58959   5.559   1.911   8.261  0.7692 -1.1568  0.0736
  447MOL0     H58960   5.527   2.131   8.388  1.2328 -1.4204 -1.3529
  447MOL0     H58961   5.410   2.037   8.485  0.6536  2.3209  0.6140
  447MOL0     H58962   5.286   2.158   8.319  0.9360  1.7751 -1.6913
  447MOL0     H58963   5.389   2.101   8.191  0.7367 -1.5283 -0.1614
  447MOL0     H58964   5.177   1.947   8.333  0.1034 -0.6294 -0.5271
  447MOL0     H58965   5.308   1.875   8.234 -1.6382 -2.6595  3.3585
  447MOL0     H58966   5.054   2.074   7.929 -0.5368  0.6329  0.9283
  447MOL0     H58967   4.977   1.921   7.731 -0.7678  1.2336  0.8027
  447MOL0     H58968   5.013   1.276   7.715  0.7712 -0.4233 -4.5941
  447MOL0     H58969   4.842   1.107   7.612 -3.0080 -0.4962 -0.2701
  447MOL0     H58970   4.411   1.196   7.539  1.4599  0.9348  1.3969
  447MOL0     H58971   4.422   1.195   7.702 -2.2647 -1.9708  0.2430
  447MOL0     H58972   4.407   0.952   7.536  0.5973 -1.3799  0.3776
  447MOL0     H58973   4.273   1.002   7.633 -0.3062 -2.1015  2.0234
  447MOL0     H58974   4.412   0.951   7.839  2.4709 -0.2545  0.4647
  447MOL0     H58975   4.532   0.873   7.735 -0.6077 -2.8462 -0.0642
  447MOL0     H58976   4.242   0.793   7.714  0.1591  0.7108 -2.1498
  447MOL0     H58977   4.388   0.717   7.643 -0.5763  3.4456 -2.4973
  447MOL0     H58978   4.353   0.763   7.949 -1.5958 -3.3584  2.0798
  447MOL0     H58979   4.488   0.691   7.865  0.4580  1.6352  0.0409
  447MOL0     H58980   4.318   0.550   7.976 -0.6157  1.2856 -0.7008
  447MOL0     H58981   4.360   0.496   7.802  0.1563 -0.6182  1.4463
  447MOL0     H58982   4.113   0.654   7.864  2.7207  3.5067 -0.6731
  447MOL0     H58983   4.152   0.579   7.719  1.5314  3.3909  0.1773
  447MOL0     H58984   3.994   0.430   7.860 -0.6504 -2.9605  0.5232
  447MOL0     H58985   4.122   0.436   7.991  4.5487 -0.3227 -0.8427
  447MOL0     H58986   4.533   1.373   7.705 -0.6688 -1.7419  0.0934
  447MOL0     H58987   4.690   1.536   7.804 -1.8341  0.1034 -1.6083
  447MOL0     H58988   5.044   1.583   7.995  1.6241  0.1376  0.1463
  447MOL0     H58989   5.184   1.723   8.145 -0.7172 -0.6589  0.0566
  447MOL0     H58990   6.966   1.646   8.890  3.5381 -1.4452  0.9155
  447MOL0     H58991   7.199   1.705   8.852  0.5709  0.4566  0.6380
  447MOL0     H58992   7.526   2.266   8.803 -0.9607  1.0120 -0.9393
  447MOL0     H58993   7.753   2.286   8.685  2.0085 -0.4798  0.1004
  447MOL0     H58994   7.959   1.906   8.558  2.1161  1.0410 -0.0183
  447MOL0     H58995   8.042   2.031   8.471  0.0049 -0.8510  0.1740
  447MOL0     H58996   7.783   1.930   8.356  0.1737 -1.6164 -0.3986
  447MOL0     H58997   7.908   2.042   8.288  1.3320  0.4268 -0.0474
  447MOL0     H58998   7.920   1.743   8.319 -3.8294  0.7091 -2.1729
  447MOL0     H58999   8.064   1.832   8.343  0.1000 -0.0517  1.0774
  447MOL0     H59000   8.002   1.948   8.109 -2.1618  0.2852 -0.3125
  447MOL0     H59001   8.067   1.780   8.120  0.4099  0.7581 -2.6304
  447MOL0     H59002   7.657   1.789   7.984  0.0563 -0.9271 -0.1408
  447MOL0     H59003   7.703   1.886   8.535  0.1804 -1.2736  0.7394
  447MOL0     H59004   7.498   1.865   8.649 -2.3105  2.1230 -2.7055
  448MOL0     O59005   4.309  11.211   8.608 -0.0266  0.2536 -0.0466
  448MOL0     C59006   4.383  11.112   8.620 -0.4274  0.5558  0.1264
  448MOL0     O59007   4.352  10.983   8.646  0.4488  0.0393  0.2504
  448MOL0     C59008   4.218  10.952   8.634 -0.8873  0.2200  0.0619
  448MOL0     C59009   4.099  11.022   8.677 -0.1341 -0.2202 -0.8600
  448MOL0     C59010   3.975  10.962   8.665  0.3537  0.6125  0.6466
  448MOL0     C59011   3.955  10.835   8.608 -0.4777 -0.0206 -0.2804
  448MOL0     O59012   3.833  10.771   8.622 -0.1830 -0.6551  0.7804
  448MOL0     C59013   3.705  10.838   8.646  0.0321  0.2371 -0.1026
  448MOL0     C59014   3.603  10.736   8.599 -0.0068 -0.5500 -0.1952
  448MOL0     C59015   3.557  10.640   8.710  0.2605 -0.1999 -0.8220
  448MOL0     C59016   3.475  10.530   8.641 -1.3516  0.3322 -0.5574
  448MOL0     C59017   3.334  10.576   8.600  0.4283  0.6752  0.2721
  448MOL0     C59018   3.241  10.590   8.721 -0.1835  0.4082  0.9569
  448MOL0     C59019   3.094  10.618   8.681 -0.1200 -0.1954  0.3474
  448MOL0     C59020   3.064  10.759   8.638 -0.0672 -0.6211  0.4226
  448MOL0     N59021   3.008  10.844   8.749  0.3917  0.2389  0.8192
  448MOL0     C59022   2.911  10.940   8.733 -0.0347  0.5836 -0.0575
  448MOL0     C59023   2.899  10.990   8.859 -0.0298  0.1932  0.2183
  448MOL0     C59024   2.802  11.090   8.905 -1.0165  0.0372 -0.2029
  448MOL0     C59025   2.859  11.206   8.998 -0.3553  0.2043  0.8725
  448MOL0     C59026   2.775  11.337   8.982  0.3328  0.2250  0.7408
  448MOL0     C59027   2.795  11.427   9.104 -0.0830  0.4470 -0.0117
  448MOL0     O59028   2.736  11.555   9.090 -0.1442 -0.4420 -0.0028
  448MOL0     C59029   2.597  11.559   9.077 -0.3800 -0.4664  0.3346
  448MOL0     C59030   2.504  11.463   9.126  0.3103  0.0367 -0.7787
  448MOL0     C59031   2.365  11.492   9.121 -0.4930 -0.0542 -0.2753
  448MOL0     C59032   2.316  11.620   9.079 -0.2346 -0.1108 -0.6194
  448MOL0     C59033   2.173  11.645   9.085  0.5305 -0.0392 -0.6485
  448MOL0     O59034   2.139  11.779   9.091  0.5202  0.1026 -0.1170
  448MOL0     C59035   2.004  11.814   9.092 -0.0652 -0.3975  1.3485
  448MOL0     C59036   1.920  11.808   9.195  0.5915  0.7572 -0.3336
  448MOL0     C59037   1.789  11.853   9.191  0.0115  0.2618 -0.1040
  448MOL0     C59038   1.739  11.914   9.074 -0.0072  0.1233 -0.0442
  448MOL0     O59039   1.607  11.951   9.057  0.4494  0.2535 -0.4112
  448MOL0     C59040   1.528  11.992   9.178 -0.1097  0.2190 -0.3570
  448MOL0     C59041   1.411  12.069   9.138 -0.3548  0.6084 -0.3414
  448MOL0     C59042   1.332  12.097   9.272 -0.1800 -0.1551  0.6163
  448MOL0     C59043   1.188  12.149   9.229 -1.0578  0.1075 -0.1793
  448MOL0     C59044   1.120  12.244   9.329 -0.2928  0.9440  1.0353
  448MOL0     C59045   0.972  12.275   9.269  0.3857 -0.4229 -0.4934
  448MOL0     C59046   0.864  12.326   9.380  0.0885  0.2834 -0.3598
  448MOL0     C59047   0.762  12.217   9.413 -0.0316  1.2984 -0.2790
  448MOL0    Cl59048   0.661  12.261   9.558 -0.2149  0.3562 -0.1822
  448MOL0     C59049   1.826  11.935   8.969  0.1190 -0.1785  0.3904
  448MOL0     C59050   1.954  11.886   8.979 -0.5953  0.4076  0.2190
  448MOL0     O59051   2.103  11.543   9.078 -0.1908  0.1612 -0.4038
  448MOL0     C59052   2.407  11.714   9.035 -0.0340 -0.3765  0.4216
  448MOL0     C59053   2.542  11.676   9.036  0.1787 -0.4299  0.0061
  448MOL0     N59054   2.970  10.910   8.947 -0.2650 -0.2057  0.3340
  448MOL0     N59055   3.033  10.819   8.880  0.5791 -0.2035  0.1690
  448MOL0     C59056   4.076  10.765   8.566 -1.0126  0.2486  0.1957
  448MOL0     C59057   4.199  10.820   8.586  0.0973  0.1592 -0.4059
  448MOL0     C59058   4.531  11.143   8.605  0.3524  0.6782 -0.5210
  448MOL0     C59059   4.582  11.262   8.553 -0.0470  0.1420  0.6980
  448MOL0     C59060   4.722  11.285   8.562  0.6433 -0.1667 -1.0724
  448MOL0     C59061   4.812  11.198   8.628  1.2451  0.2862 -0.0359
  448MOL0     O59062   4.951  11.222   8.632 -0.0805  0.7014  0.5735
  448MOL0     C59063   5.040  11.146   8.709 -0.2284 -0.0265 -1.1801
  448MOL0     C59064   5.107  11.043   8.613  0.2038 -0.9535 -0.3353
  448MOL0     C59065   5.222  10.964   8.674 -0.6496 -0.5800 -0.1687
  448MOL0     C59066   5.304  10.887   8.571 -0.1056 -0.1325 -0.0659
  448MOL0     C59067   5.416  10.819   8.627  0.6572  0.4254 -0.0451
  448MOL0     C59068   5.516  10.794   8.683 -0.5614 -0.2097  0.3176
  448MOL0     C59069   4.752  11.079   8.678 -0.4031  0.4310 -0.3393
  448MOL0     C59070   4.618  11.051   8.651 -0.8783  0.3541 -0.2579
  448MOL0     H59071   4.087  11.120   8.721  0.7423  1.3117 -3.7791
  448MOL0     H59072   3.892  11.026   8.692  1.5820  3.0402 -0.9304
  448MOL0     H59073   3.698  10.924   8.578  1.1030 -2.3542 -3.7761
  448MOL0     H59074   3.683  10.866   8.750 -1.3910  0.3103 -0.3958
  448MOL0     H59075   3.634  10.672   8.516 -1.2378 -1.4709  0.0433
  448MOL0     H59076   3.518  10.786   8.551  1.2016  1.5086 -0.3150
  448MOL0     H59077   3.513  10.702   8.789  0.1489  1.3897 -2.0575
  448MOL0     H59078   3.647  10.596   8.754  1.6746  2.7235 -0.5030
  448MOL0     H59079   3.528  10.487   8.556 -1.2018 -1.8667  0.5691
  448MOL0     H59080   3.476  10.445   8.711 -0.5372  2.0289  1.6190
  448MOL0     H59081   3.290  10.504   8.530 -1.6882  3.0379 -0.9907
  448MOL0     H59082   3.341  10.674   8.551  2.1981  1.8884  2.7478
  448MOL0     H59083   3.278  10.665   8.791  0.1411 -1.3697  2.7845
  448MOL0     H59084   3.249  10.493   8.772  1.1461 -0.0493 -0.0550
  448MOL0     H59085   3.062  10.545   8.607  1.5179 -3.0324  2.2238
  448MOL0     H59086   3.034  10.603   8.772 -2.5250 -1.5319 -1.3386
  448MOL0     H59087   2.992  10.767   8.555 -0.4013 -0.1759  0.7502
  448MOL0     H59088   3.149  10.811   8.593  1.1213 -1.5406  1.5437
  448MOL0     H59089   2.868  10.981   8.642 -0.3001  0.4319  0.0010
  448MOL0     H59090   2.718  11.044   8.958 -0.8229 -1.3834 -1.0982
  448MOL0     H59091   2.760  11.148   8.822  0.7453 -0.3322 -1.4014
  448MOL0     H59092   2.961  11.215   8.957 -1.3772 -0.6655 -2.1546
  448MOL0     H59093   2.863  11.170   9.101  1.5995  1.4576  1.2962
  448MOL0     H59094   2.804  11.396   8.895 -0.3610 -1.9887 -1.0805
  448MOL0     H59095   2.673  11.301   8.971  0.9287 -1.2631 -0.2813
  448MOL0     H59096   2.904  11.431   9.103  0.4178 -4.3115  3.4509
  448MOL0     H59097   2.758  11.362   9.184 -0.8507  0.9030  0.0157
  448MOL0     H59098   2.525  11.364   9.164 -3.4939 -0.4883  0.4688
  448MOL0     H59099   2.288  11.429   9.165 -1.1651  1.6462  1.1306
  448MOL0     H59100   1.959  11.761   9.285  0.5695  0.7620 -0.3217
  448MOL0     H59101   1.717  11.840   9.271 -0.5426  1.8204 -0.3143
  448MOL0     H59102   1.589  12.062   9.236  1.1336 -0.3593 -0.9249
  448MOL0     H59103   1.510  11.901   9.235 -1.5263  0.6018 -0.1613
  448MOL0     H59104   1.349  12.010   9.070 -3.4126  1.2287  1.6612
  448MOL0     H59105   1.444  12.164   9.094 -0.9709  0.4982 -1.0621
  448MOL0     H59106   1.381  12.168   9.340 -0.7706  0.4888  0.3850
  448MOL0     H59107   1.320  11.996   9.312  1.5577 -0.6013  0.1069
  448MOL0     H59108   1.177  12.195   9.130 -1.1311 -1.7954 -1.0939
  448MOL0     H59109   1.134  12.055   9.239  2.4392 -2.1085 -0.5015
  448MOL0     H59110   1.184  12.332   9.330 -0.3590  1.1985 -2.6414
  448MOL0     H59111   1.104  12.184   9.419  0.7680 -2.0448 -0.6136
  448MOL0     H59112   0.923  12.188   9.224 -1.0048  1.1371 -2.1434
  448MOL0     H59113   0.972  12.359   9.198 -1.1007  1.1825  1.3059
  448MOL0     H59114   0.919  12.344   9.473  1.1538 -1.6792 -0.5609
  448MOL0     H59115   0.817  12.414   9.336 -1.4740 -0.1316  0.4088
  448MOL0     H59116   0.819  12.127   9.436 -2.8486 -1.3401 -2.7638
  448MOL0     H59117   0.694  12.185   9.333  1.3947 -5.0083  0.4884
  448MOL0     H59118   1.805  11.975   8.871  1.9867 -1.6453 -0.6915
  448MOL0     H59119   2.021  11.909   8.897 -0.9403  0.3676 -0.0772
  448MOL0     H59120   2.389  11.815   8.999  2.7330 -0.3912 -1.2722
  448MOL0     H59121   2.620  11.748   9.010 -2.2256  1.4186 -2.7074
  448MOL0     H59122   4.070  10.663   8.530 -0.7895  0.2217  0.2342
  448MOL0     H59123   4.283  10.757   8.558  0.0320 -1.4169  2.4747
  448MOL0     H59124   4.523  11.317   8.480 -1.7533 -2.5155 -0.0995
  448MOL0     H59125   4.777  11.375   8.537  1.4911 -0.5304 -0.5689
  448MOL0     H59126   4.984  11.095   8.787  1.0314 -1.9884 -1.4708
  448MOL0     H59127   5.116  11.204   8.763 -0.2219 -3.3950  2.8836
  448MOL0     H59128   5.027  10.982   8.571  0.3478 -1.7458  0.5019
  448MOL0     H59129   5.156  11.106   8.538 -0.1651  1.4742  1.3257
  448MOL0     H59130   5.182  10.883   8.736  0.7567  0.7226  2.6221
  448MOL0     H59131   5.285  11.023   8.741 -2.3048 -0.7571  1.6184
  448MOL0     H59132   5.243  10.808   8.526  1.5902 -0.8355 -1.2142
  448MOL0     H59133   5.332  10.947   8.484  0.3281 -0.1103  0.0864
  448MOL0     H59134   5.604  10.769   8.739 -0.4856 -1.0264 -0.1531
  448MOL0     H59135   4.817  11.007   8.727 -0.4119  0.6258 -0.0375
  448MOL0     H59136   4.583  10.953   8.684 -0.6633  0.3057 -0.1686
  449MOL0     O59137   5.879   3.166   8.398 -0.4274  0.2423 -0.1975
  449MOL0     C59138   5.931   3.283   8.403 -0.0087  0.4960 -0.6493
  449MOL0     O59139   5.859   3.396   8.427  0.3096 -0.0214 -0.2249
  449MOL0     C59140   5.720   3.383   8.448 -0.4827  0.3061 -0.7586
  449MOL0     C59141   5.639   3.478   8.389  0.4218  0.9438 -0.3422
  449MOL0     C59142   5.502   3.485   8.427  0.1054 -1.3120 -0.4292
  449MOL0     C59143   5.450   3.388   8.517 -0.3378  1.0210  0.1441
  449MOL0     O59144   5.317   3.387   8.561  0.5212  0.5049 -0.2302
  449MOL0     C59145   5.209   3.430   8.474 -0.5750  0.2271  0.9075
  449MOL0     C59146   5.086   3.460   8.558 -0.0341 -1.2561  0.6519
  449MOL0     C59147   5.024   3.345   8.633  0.8106 -0.5264  0.2546
  449MOL0     C59148   4.886   3.386   8.680  0.0902  0.0954  0.6688
  449MOL0     C59149   4.822   3.279   8.769  0.1521 -0.7461  0.4142
  449MOL0     C59150   4.684   3.332   8.816 -0.0498  0.4677  0.0055
  449MOL0     C59151   4.601   3.238   8.905 -0.0447  1.1629 -0.4265
  449MOL0     C59152   4.678   3.182   9.029 -0.6154  0.4304  0.8694
  449MOL0     N59153   4.594   3.090   9.103  0.5233  0.1900 -0.5257
  449MOL0     C59154   4.482   3.133   9.173 -1.0060 -0.9464 -1.1341
  449MOL0     C59155   4.454   3.025   9.247 -0.3644 -0.0785 -0.1282
  449MOL0     C59156   4.341   3.009   9.344  0.5988 -0.5110 -0.3215
  449MOL0     C59157   4.312   2.870   9.396  0.5320  0.3269 -0.2619
  449MOL0     C59158   4.203   2.858   9.507 -0.3878 -0.6739 -0.7657
  449MOL0     C59159   4.071   2.925   9.480 -0.1815  0.3053 -0.0752
  449MOL0     O59160   4.020   2.887   9.349  0.8852  0.0281 -0.9726
  449MOL0     C59161   3.918   2.803   9.334 -0.0403  0.1658  1.4863
  449MOL0     C59162   3.876   2.780   9.195  1.0513 -0.4426  0.3637
  449MOL0     C59163   3.784   2.685   9.164  0.4477 -0.4980  0.8060
  449MOL0     C59164   3.729   2.602   9.256  0.3810 -0.5123 -0.5820
  449MOL0     C59165   3.646   2.491   9.218  0.9519  0.0469 -0.5237
  449MOL0     O59166   3.650   2.466   9.093 -0.5833 -0.1072 -0.2467
  449MOL0     C59167   3.568   2.371   9.032  0.4087 -0.0146  0.2956
  449MOL0     C59168   3.636   2.301   8.939  0.6517  0.0335  0.6342
  449MOL0     C59169   3.572   2.196   8.866  1.0747 -0.1248  0.5524
  449MOL0     C59170   3.428   2.173   8.887  0.7040 -0.1346 -0.2109
  449MOL0     O59171   3.379   2.069   8.816 -0.2695 -0.1085  0.3522
  449MOL0     C59172   3.272   2.001   8.886 -0.4174 -0.4977  0.5347
  449MOL0     C59173   3.142   2.042   8.814 -0.3922 -0.4498 -1.2583
  449MOL0     C59174   3.053   1.920   8.795 -0.1740  0.1831 -0.0327
  449MOL0     C59175   2.902   1.956   8.782  0.1899 -0.3139  0.3927
  449MOL0     C59176   2.828   1.825   8.730 -0.5703 -0.3271 -0.4051
  449MOL0     C59177   2.688   1.846   8.706  0.4875  0.0371 -0.5709
  449MOL0     C59178   2.636   1.707   8.658  0.4496 -0.8530  1.1536
  449MOL0     C59179   2.487   1.692   8.680  0.7168 -0.7077 -0.4072
  449MOL0    Cl59180   2.445   1.679   8.846 -0.5297 -0.0874  0.2474
  449MOL0     C59181   3.353   2.255   8.976  0.2246 -0.5935  0.3565
  449MOL0     C59182   3.427   2.354   9.044  0.0469  0.4112  0.7860
  449MOL0     O59183   3.578   2.434   9.301 -0.0254  1.2042 -0.1709
  449MOL0     C59184   3.772   2.619   9.393  0.4760  0.0349  0.0130
  449MOL0     C59185   3.864   2.718   9.428  0.2742 -0.3009 -0.3040
  449MOL0     N59186   4.539   2.914   9.207  0.7580 -0.1636  0.2751
  449MOL0     N59187   4.628   2.959   9.127 -0.2590 -0.3171  0.1471
  449MOL0     C59188   5.536   3.291   8.576 -0.5461 -0.0279  0.2296
  449MOL0     C59189   5.669   3.287   8.538 -1.4384 -0.5671 -0.2802
  449MOL0     C59190   6.074   3.304   8.357 -0.4300  0.1959  0.1188
  449MOL0     C59191   6.098   3.407   8.259 -0.0372  0.3222 -0.0026
  449MOL0     C59192   6.221   3.426   8.205 -0.5764 -0.2838 -0.9534
  449MOL0     C59193   6.327   3.335   8.247  0.3101  0.4934  0.5830
  449MOL0     O59194   6.454   3.338   8.189 -0.4571 -0.6066 -0.7754
  449MOL0     C59195   6.482   3.454   8.106  0.6379 -0.1577  0.3658
  449MOL0     C59196   6.619   3.438   8.052 -0.0661 -0.7355  0.1991
  449MOL0     C59197   6.739   3.396   8.148  0.9847 -0.5092 -0.3093
  449MOL0     C59198   6.854   3.489   8.145  0.1263  0.0203 -0.5614
  449MOL0     C59199   6.802   3.622   8.178 -0.7418  0.3158 -0.5064
  449MOL0     C59200   6.759   3.734   8.203 -0.0217 -0.0026 -0.4426
  449MOL0     C59201   6.299   3.238   8.333  0.9595 -0.3464  0.5035
  449MOL0     C59202   6.176   3.214   8.386  0.0205  0.9363  0.5420
  449MOL0     H59203   5.678   3.537   8.306  0.2811 -2.2994 -2.9154
  449MOL0     H59204   5.431   3.552   8.380  0.2722 -0.3029  0.7192
  449MOL0     H59205   5.193   3.346   8.405  0.7696  0.7615 -0.0934
  449MOL0     H59206   5.238   3.523   8.424 -0.3468 -0.6203 -0.6051
  449MOL0     H59207   5.016   3.497   8.482 -0.9638 -1.3924  1.4114
  449MOL0     H59208   5.113   3.542   8.626  0.9910 -0.6619 -0.4429
  449MOL0     H59209   5.088   3.334   8.721  2.2689  4.6255  0.1787
  449MOL0     H59210   5.017   3.252   8.576  2.0221 -1.8584  2.1397
  449MOL0     H59211   4.903   3.478   8.736  1.2763 -1.3183  2.7797
  449MOL0     H59212   4.810   3.409   8.605  1.2497 -0.2814 -0.6469
  449MOL0     H59213   4.885   3.262   8.857 -1.6455  0.9814  2.1309
  449MOL0     H59214   4.817   3.192   8.702  1.0693 -0.8169  0.4306
  449MOL0     H59215   4.622   3.367   8.733  3.0859 -0.1358 -2.8383
  449MOL0     H59216   4.708   3.417   8.881 -0.7846  1.6090 -1.1686
  449MOL0     H59217   4.519   3.297   8.948 -0.1040  0.3520  0.6024
  449MOL0     H59218   4.571   3.156   8.839  1.0070 -0.2693  0.7901
  449MOL0     H59219   4.717   3.258   9.098 -4.0147  1.7243  1.5336
  449MOL0     H59220   4.765   3.120   9.004 -1.4005 -0.3931  0.1298
  449MOL0     H59221   4.441   3.233   9.162  0.4461 -0.3298 -1.1301
  449MOL0     H59222   4.252   3.042   9.290  0.1025 -0.5895  0.4301
  449MOL0     H59223   4.356   3.072   9.433 -0.5308 -0.6015 -0.0579
  449MOL0     H59224   4.411   2.838   9.431  0.7803  0.1990 -1.0488
  449MOL0     H59225   4.274   2.799   9.322 -1.3495 -0.4911  1.4107
  449MOL0     H59226   4.181   2.753   9.527  0.7615 -0.6473  0.8749
  449MOL0     H59227   4.246   2.904   9.597  0.5725 -3.8612  0.5350
  449MOL0     H59228   4.096   3.032   9.479 -2.0476  0.9282  3.3096
  449MOL0     H59229   4.003   2.916   9.566  0.2855 -0.8063  0.1941
  449MOL0     H59230   3.918   2.834   9.111 -3.8283  0.3030 -1.9587
  449MOL0     H59231   3.764   2.685   9.057  0.7721 -1.9003  0.7353
  449MOL0     H59232   3.744   2.301   8.937  0.7095  2.5143  1.4634
  449MOL0     H59233   3.647   2.134   8.817  2.2898  0.5921  1.4321
  449MOL0     H59234   3.265   2.021   8.993  0.5533  0.7171  0.3935
  449MOL0     H59235   3.282   1.892   8.879  0.6158 -0.4932  1.6241
  449MOL0     H59236   3.168   2.093   8.721 -0.1594  1.4792 -0.2093
  449MOL0     H59237   3.094   2.116   8.880  4.0677 -1.1956  3.4986
  449MOL0     H59238   3.062   1.855   8.882 -0.9657 -0.5752 -0.4974
  449MOL0     H59239   3.093   1.862   8.711 -0.1322  1.5474 -0.9838
  449MOL0     H59240   2.865   1.992   8.878  1.9537  3.7701 -0.2277
  449MOL0     H59241   2.890   2.038   8.710  0.2182 -1.1012 -0.5334
  449MOL0     H59242   2.835   1.748   8.807 -1.8618  0.0777  0.1513
  449MOL0     H59243   2.879   1.797   8.637  0.6032  0.0766  0.1030
  449MOL0     H59244   2.680   1.919   8.625  0.4186 -0.4106 -0.9786
  449MOL0     H59245   2.638   1.881   8.796  1.3774 -1.4581  0.5651
  449MOL0     H59246   2.651   1.690   8.551  0.4485 -0.1651  1.0391
  449MOL0     H59247   2.674   1.619   8.711 -2.0687 -2.6435  0.1556
  449MOL0     H59248   2.437   1.613   8.624 -0.9698 -0.1674  0.2700
  449MOL0     H59249   2.443   1.785   8.642  2.0865  0.1394  0.0068
  449MOL0     H59250   3.245   2.246   8.979  0.1750 -0.6165 -0.9001
  449MOL0     H59251   3.369   2.420   9.108 -3.1707 -0.1793 -1.3227
  449MOL0     H59252   3.743   2.556   9.476  0.1834  0.4861  0.2573
  449MOL0     H59253   3.882   2.733   9.534 -2.4920 -3.6878  0.8444
  449MOL0     H59254   5.502   3.215   8.645 -2.6199  0.2814 -0.3762
  449MOL0     H59255   5.735   3.220   8.592 -0.3737  0.7576  0.1287
  449MOL0     H59256   6.017   3.469   8.222  0.8768  1.9998  0.7104
  449MOL0     H59257   6.209   3.514   8.143 -1.4511  0.1558 -0.1804
  449MOL0     H59258   6.477   3.544   8.168 -0.9767 -1.7770  2.7741
  449MOL0     H59259   6.410   3.471   8.026  0.3646 -0.0832  0.6246
  449MOL0     H59260   6.629   3.366   7.970  2.5887 -0.1815 -0.0731
  449MOL0     H59261   6.640   3.532   7.999 -0.9409  0.3245  1.6656
  449MOL0     H59262   6.769   3.297   8.113  0.2446 -0.6779 -0.4755
  449MOL0     H59263   6.704   3.382   8.251  2.2201  1.2123  0.3985
  449MOL0     H59264   6.938   3.454   8.206 -1.1831 -1.3195  0.5451
  449MOL0     H59265   6.889   3.505   8.042  3.4122  1.7374  0.6653
  449MOL0     H59266   6.711   3.829   8.209  3.0502  1.9537 -2.9802
  449MOL0     H59267   6.385   3.177   8.357  0.6471 -0.7564  0.6045
  449MOL0     H59268   6.149   3.142   8.463 -2.9865 -1.0092 -2.1067
  450MOL0     O59269   6.813   2.333   8.855  0.3622  0.0311 -0.1047
  450MOL0     C59270   6.824   2.382   8.745 -0.6337  0.1451  0.0968
  450MOL0     O59271   6.714   2.408   8.665 -0.5808  0.1626 -0.1505
  450MOL0     C59272   6.587   2.382   8.713 -0.2306  0.0729  0.0351
  450MOL0     C59273   6.551   2.252   8.745 -0.2672 -0.6269  0.1964
  450MOL0     C59274   6.417   2.222   8.787 -0.6204 -0.3719  0.0142
  450MOL0     C59275   6.322   2.320   8.801  1.2025  1.0841 -0.1089
  450MOL0     O59276   6.193   2.277   8.833 -0.1503  0.7127 -0.3628
  450MOL0     C59277   6.083   2.331   8.770 -0.0272  0.2333  0.4875
  450MOL0     C59278   6.008   2.425   8.863 -0.3986  0.4603 -0.5724
  450MOL0     C59279   5.874   2.367   8.916 -0.8558 -0.7089 -0.2710
  450MOL0     C59280   5.795   2.480   8.993 -0.0168 -1.0736  1.0148
  450MOL0     C59281   5.664   2.430   9.056 -0.3512 -0.1142  0.3602
  450MOL0     C59282   5.562   2.544   9.087 -0.0909  0.0243 -0.5481
  450MOL0     C59283   5.433   2.484   9.139  0.4479  0.1240  0.0952
  450MOL0     C59284   5.367   2.567   9.246 -0.3983 -0.6522  0.7695
  450MOL0     N59285   5.294   2.487   9.344 -0.0258 -0.1995 -0.3033
  450MOL0     C59286   5.348   2.393   9.428 -0.2253  0.6423  0.2643
  450MOL0     C59287   5.248   2.352   9.506 -0.2926  0.2660 -0.6739
  450MOL0     C59288   5.264   2.268   9.633  0.7240  0.4119  0.5129
  450MOL0     C59289   5.195   2.131   9.629  0.0943  0.8973  0.4854
  450MOL0     C59290   5.219   2.044   9.499  0.5020  0.7478  0.3723
  450MOL0     C59291   5.142   1.908   9.499 -0.1435 -0.2587  0.0107
  450MOL0     O59292   5.002   1.936   9.520  0.2294  0.2502 -0.0946
  450MOL0     C59293   4.908   1.831   9.518 -0.0898 -0.8751  0.3560
  450MOL0     C59294   4.937   1.694   9.466  0.0655 -1.6395  0.0898
  450MOL0     C59295   4.834   1.600   9.461 -0.1764  0.6189  0.9932
  450MOL0     C59296   4.702   1.632   9.504  0.2809 -0.1022  0.4106
  450MOL0     C59297   4.599   1.529   9.499 -0.2400  0.4995  0.3678
  450MOL0     O59298   4.476   1.567   9.537 -0.4511  0.4763 -0.3246
  450MOL0     C59299   4.367   1.487   9.543 -1.4037  0.7221 -0.3850
  450MOL0     C59300   4.310   1.413   9.441  0.2242 -0.1532  0.7470
  450MOL0     C59301   4.218   1.315   9.469  0.2536  0.0809 -0.0686
  450MOL0     C59302   4.175   1.286   9.601  0.2419 -1.4060  0.2468
  450MOL0     O59303   4.080   1.192   9.642  0.4893  0.1142 -0.0510
  450MOL0     C59304   4.012   1.109   9.546  0.3343 -0.8311 -0.1100
  450MOL0     C59305   3.884   1.069   9.619  0.0092  0.3702 -0.8715
  450MOL0     C59306   3.772   1.176   9.633  0.3180 -0.4090  0.1060
  450MOL0     C59307   3.662   1.131   9.740  0.6091 -0.1261  0.3793
  450MOL0     C59308   3.527   1.206   9.723  0.3447 -0.4262  0.1539
  450MOL0     C59309   3.450   1.155   9.600  0.2712 -0.6005  0.2967
  450MOL0     C59310   3.311   1.225   9.583  0.1339 -0.1332  0.8374
  450MOL0     C59311   3.200   1.120   9.557 -0.2718 -0.0453 -0.4604
  450MOL0    Cl59312   3.164   1.012   9.703 -0.0001  0.0535  0.2109
  450MOL0     C59313   4.228   1.365   9.704  0.6381 -0.1212 -0.0810
  450MOL0     C59314   4.326   1.465   9.680 -0.8298  0.4716 -0.3127
  450MOL0     O59315   4.630   1.418   9.467 -0.4762  0.3731 -0.1573
  450MOL0     C59316   4.684   1.757   9.560 -0.0731 -0.0886 -0.0672
  450MOL0     C59317   4.785   1.850   9.564  0.3466 -0.4907 -0.4260
  450MOL0     N59318   5.132   2.420   9.464  0.0994  0.6537  0.5818
  450MOL0     N59319   5.164   2.497   9.366  0.3758 -0.2519  0.5376
  450MOL0     C59320   6.356   2.451   8.768 -0.8440  0.2381  0.0494
  450MOL0     C59321   6.495   2.482   8.736 -0.1256 -0.3037 -0.2368
  450MOL0     C59322   6.964   2.405   8.703 -0.6232  1.0813  0.5194
  450MOL0     C59323   6.981   2.450   8.568 -0.1821  0.8153  0.6214
  450MOL0     C59324   7.107   2.486   8.518 -1.1044  0.7540 -0.1461
  450MOL0     C59325   7.222   2.484   8.599  0.4984  0.1441 -0.4236
  450MOL0     O59326   7.344   2.522   8.542  0.1128  0.0344 -0.0681
  450MOL0     C59327   7.452   2.566   8.621 -0.2942 -0.7977 -0.5267
  450MOL0     C59328   7.534   2.656   8.530  0.0707  0.5068  0.0814
  450MOL0     C59329   7.671   2.683   8.594 -0.9282 -0.7332  0.1045
  450MOL0     C59330   7.758   2.782   8.506 -0.8768  0.5274 -0.1307
  450MOL0     C59331   7.696   2.913   8.500  0.1470 -0.6089  0.4460
  450MOL0     C59332   7.623   3.013   8.497  0.3730 -0.3377 -0.6019
  450MOL0     C59333   7.202   2.423   8.729 -1.2990 -0.0219  0.0413
  450MOL0     C59334   7.075   2.399   8.784  0.0651 -0.1086 -0.4058
  450MOL0     H59335   6.622   2.173   8.722  0.4142  0.6987 -2.8049
  450MOL0     H59336   6.388   2.119   8.807 -0.4540 -0.4315 -0.0478
  450MOL0     H59337   6.015   2.248   8.748  1.5547 -1.3950  1.4370
  450MOL0     H59338   6.109   2.378   8.675  1.4812 -0.7079  0.3944
  450MOL0     H59339   5.992   2.517   8.806 -1.5061  1.0058  0.5567
  450MOL0     H59340   6.074   2.445   8.948  3.6667 -1.9437 -2.8323
  450MOL0     H59341   5.889   2.282   8.983 -2.7617  1.2300  2.8757
  450MOL0     H59342   5.809   2.327   8.839 -0.7013 -0.8751 -0.3175
  450MOL0     H59343   5.851   2.530   9.073  1.7660  0.0986 -0.8730
  450MOL0     H59344   5.767   2.562   8.927 -2.2887  1.5260  4.8318
  450MOL0     H59345   5.697   2.380   9.147 -0.1894 -0.8430 -0.0883
  450MOL0     H59346   5.622   2.353   8.991 -0.1662  0.1940 -0.1343
  450MOL0     H59347   5.534   2.600   8.997 -0.1660 -1.7922 -1.7143
  450MOL0     H59348   5.612   2.618   9.149  0.2942  0.2039 -1.0569
  450MOL0     H59349   5.361   2.472   9.057 -0.5592 -0.8218  1.0755
  450MOL0     H59350   5.453   2.387   9.186  1.8885  0.9158  1.1822
  450MOL0     H59351   5.309   2.647   9.199  2.0794 -1.2311 -3.9319
  450MOL0     H59352   5.446   2.620   9.300 -1.3802  1.2126  0.4454
  450MOL0     H59353   5.453   2.371   9.447  0.3297  1.9601 -1.1063
  450MOL0     H59354   5.219   2.317   9.719 -0.2245 -0.5272  0.5762
  450MOL0     H59355   5.371   2.264   9.656  1.2459  1.3084 -1.5966
  450MOL0     H59356   5.086   2.142   9.634 -0.0041  0.4045 -0.4401
  450MOL0     H59357   5.223   2.076   9.719  0.4979  0.5551  0.1501
  450MOL0     H59358   5.183   2.104   9.415  0.9304  0.4787 -0.0125
  450MOL0     H59359   5.324   2.014   9.491  0.0461 -0.5486 -1.6031
  450MOL0     H59360   5.185   1.850   9.581  0.1155  1.8877  1.4678
  450MOL0     H59361   5.141   1.847   9.408 -0.1835 -0.9421  0.4639
  450MOL0     H59362   5.026   1.664   9.412 -0.7550 -1.5662 -1.3743
  450MOL0     H59363   4.867   1.508   9.414  0.4541  2.6228 -2.9797
  450MOL0     H59364   4.325   1.425   9.335  2.7810  1.7179  1.2049
  450MOL0     H59365   4.169   1.257   9.392  1.9324 -3.4488  1.2917
  450MOL0     H59366   4.071   1.022   9.516 -1.6478 -2.9427  1.7027
  450MOL0     H59367   3.979   1.168   9.460 -1.2810 -0.6139  0.6154
  450MOL0     H59368   3.905   1.025   9.717 -2.5104 -0.3388 -0.5952
  450MOL0     H59369   3.849   0.988   9.554 -0.6573 -0.8606  0.9231
  450MOL0     H59370   3.733   1.216   9.539 -0.3222  1.2266  1.0072
  450MOL0     H59371   3.821   1.259   9.686 -1.8162 -1.3662  3.9782
  450MOL0     H59372   3.638   1.024   9.737  0.4421 -0.0770 -0.5317
  450MOL0     H59373   3.702   1.147   9.840  1.1206  2.7934 -0.1995
  450MOL0     H59374   3.543   1.313   9.709  0.3067 -0.1842  1.7386
  450MOL0     H59375   3.461   1.197   9.810  0.4888  0.6056  0.3785
  450MOL0     H59376   3.429   1.048   9.612 -1.4663 -0.4092 -0.6630
  450MOL0     H59377   3.509   1.160   9.509 -1.4917  0.6019 -0.8371
  450MOL0     H59378   3.281   1.276   9.675  0.3278  0.6624  0.4635
  450MOL0     H59379   3.311   1.299   9.503 -0.7229  0.6829  1.5556
  450MOL0     H59380   3.240   1.059   9.475 -1.2417  3.1238 -3.5376
  450MOL0     H59381   3.102   1.154   9.524 -0.6622  1.2700  1.7944
  450MOL0     H59382   4.179   1.359   9.801  0.1461  2.8509 -0.0700
  450MOL0     H59383   4.371   1.531   9.754  1.6035  1.3553 -2.4554
  450MOL0     H59384   4.583   1.774   9.596 -0.6924  0.2826 -1.8612
  450MOL0     H59385   4.775   1.947   9.613 -1.4503 -0.3960 -0.9030
  450MOL0     H59386   6.283   2.532   8.767 -0.5336  0.5738 -2.5734
  450MOL0     H59387   6.535   2.581   8.713 -0.6411 -0.2213 -0.8012
  450MOL0     H59388   6.894   2.447   8.503  0.2061 -1.3262  0.1103
  450MOL0     H59389   7.116   2.516   8.414  2.1224 -1.5141 -0.6834
  450MOL0     H59390   7.514   2.482   8.654  3.0898  0.8805 -2.0457
  450MOL0     H59391   7.418   2.609   8.716 -1.0648 -0.7764 -0.8102
  450MOL0     H59392   7.552   2.606   8.434 -4.5357  0.1902 -0.8483
  450MOL0     H59393   7.485   2.751   8.507 -3.2679 -0.9775  0.4401
  450MOL0     H59394   7.736   2.599   8.617  0.1985  0.2482  0.6183
  450MOL0     H59395   7.655   2.727   8.693  1.1993 -2.0637  1.0974
  450MOL0     H59396   7.856   2.788   8.555 -0.3116 -0.1789 -1.1337
  450MOL0     H59397   7.772   2.732   8.410  0.2797 -1.6377  1.0704
  450MOL0     H59398   7.569   3.105   8.492  3.2892  1.5060 -0.9278
  450MOL0     H59399   7.289   2.405   8.791  0.3563  2.2172 -1.4883
  450MOL0     H59400   7.061   2.376   8.889 -1.8117 -1.9734 -0.9969
  451MOL0     O59401   6.555   0.192   3.881  1.0604 -0.2840 -0.4338
  451MOL0     C59402   6.573   0.281   3.798 -0.5959 -0.1127  0.1275
  451MOL0     O59403   6.483   0.324   3.709  0.1387 -0.5725 -0.5362
  451MOL0     C59404   6.360   0.264   3.705 -0.2468  1.0002 -0.1911
  451MOL0     C59405   6.261   0.360   3.723  0.0591 -0.5792 -0.3235
  451MOL0     C59406   6.125   0.320   3.724  0.2849 -0.5403  0.5106
  451MOL0     C59407   6.086   0.186   3.704 -0.8557 -0.6380  1.3585
  451MOL0     O59408   5.958   0.142   3.692  1.0286  0.1063 -0.0036
  451MOL0     C59409   5.853   0.239   3.697  0.0103  0.1338  0.6108
  451MOL0     C59410   5.725   0.180   3.667  0.3700 -0.8424  0.0852
  451MOL0     C59411   5.728   0.102   3.539  0.6870  1.3860  0.3562
  451MOL0     C59412   5.591   0.063   3.482  0.0285  0.2649  0.1053
  451MOL0     C59413   5.505  -0.007   3.589  0.5018  0.8675  0.2422
  451MOL0     C59414   5.570  -0.142   3.645  0.2020 -0.5026  1.0824
  451MOL0     C59415   5.479  -0.235   3.729 -0.0557  0.6072 -0.1862
  451MOL0     C59416   5.564  -0.365   3.737 -0.1870 -0.0209  0.3467
  451MOL0     N59417   5.526  -0.469   3.637  0.4383  0.4864  0.1151
  451MOL0     C59418   5.402  -0.527   3.634  0.0434  0.2313  0.1826
  451MOL0     C59419   5.415  -0.615   3.532 -0.5389  0.2387 -0.6819
  451MOL0     C59420   5.320  -0.728   3.488 -0.3447 -0.5729 -0.1644
  451MOL0     C59421   5.175  -0.699   3.523  0.3860 -0.2101  0.5223
  451MOL0     C59422   5.096  -0.824   3.463  0.0107 -0.6580 -0.6477
  451MOL0     C59423   4.951  -0.811   3.472 -0.3544  0.2635  0.1040
  451MOL0     O59424   4.913  -0.843   3.604  0.0937 -0.7812 -0.2298
  451MOL0     C59425   4.777  -0.825   3.625  0.6518  0.6798  0.3324
  451MOL0     C59426   4.672  -0.816   3.525  0.4786 -0.0480  0.1140
  451MOL0     C59427   4.531  -0.800   3.554 -0.8558  0.0002  0.0422
  451MOL0     C59428   4.495  -0.772   3.693 -0.3859  0.5778 -0.4659
  451MOL0     C59429   4.358  -0.748   3.717  0.5438  0.3060  0.4252
  451MOL0     O59430   4.272  -0.767   3.614 -0.3620 -0.3326 -0.5469
  451MOL0     C59431   4.142  -0.725   3.624  0.6492 -0.1653  0.4229
  451MOL0     C59432   4.046  -0.813   3.582 -0.3920  0.7411 -0.0904
  451MOL0     C59433   3.913  -0.777   3.568  0.0743 -0.3466 -0.5907
  451MOL0     C59434   3.878  -0.640   3.589  0.2209  0.3832  0.1856
  451MOL0     O59435   3.752  -0.601   3.559  0.3979  0.4522  0.5479
  451MOL0     C59436   3.634  -0.671   3.596  0.6214  0.2287 -0.4611
  451MOL0     C59437   3.551  -0.714   3.474 -0.5289 -0.4123 -0.4618
  451MOL0     C59438   3.515  -0.598   3.377 -0.2558 -0.2385  0.3733
  451MOL0     C59439   3.409  -0.630   3.274  0.1845  0.1277 -0.5356
  451MOL0     C59440   3.395  -0.528   3.154 -0.1483 -0.4773 -0.5011
  451MOL0     C59441   3.282  -0.558   3.059  0.0213 -0.1098  0.2211
  451MOL0     C59442   3.305  -0.495   2.920  0.4222 -1.1896 -0.3732
  451MOL0     C59443   3.211  -0.556   2.822  0.1758  0.1970  0.2546
  451MOL0    Cl59444   3.045  -0.486   2.849 -0.1393 -0.1725  0.3114
  451MOL0     C59445   3.973  -0.546   3.633  0.0185  0.4680 -0.6081
  451MOL0     C59446   4.106  -0.592   3.656 -0.4668  0.5099 -0.1063
  451MOL0     O59447   4.335  -0.726   3.836  0.5982 -0.0497  0.0773
  451MOL0     C59448   4.597  -0.772   3.796 -0.3953  0.5093  0.4628
  451MOL0     C59449   4.726  -0.814   3.757 -0.6480 -0.7945 -0.4031
  451MOL0     N59450   5.536  -0.585   3.471 -0.5307 -0.2880  0.1329
  451MOL0     N59451   5.604  -0.498   3.541 -0.8839 -0.4048 -0.0873
  451MOL0     C59452   6.189   0.089   3.694 -0.3226 -0.2186  0.9572
  451MOL0     C59453   6.331   0.122   3.690  0.1304 -0.2772 -0.7906
  451MOL0     C59454   6.685   0.375   3.810 -0.1998  0.0192  0.3118
  451MOL0     C59455   6.781   0.356   3.918  0.7127 -0.0368 -0.0062
  451MOL0     C59456   6.893   0.446   3.929 -0.1067  0.0339  0.8602
  451MOL0     C59457   6.911   0.543   3.827 -0.0011 -0.3812  0.0564
  451MOL0     O59458   7.023   0.623   3.806  0.2704  1.0659 -0.0078
  451MOL0     C59459   7.092   0.672   3.921  0.3639 -0.0668  1.0129
  451MOL0     C59460   7.198   0.768   3.873 -0.9727  0.5577 -0.7951
  451MOL0     C59461   7.320   0.794   3.975 -0.0009 -0.2486 -0.5375
  451MOL0     C59462   7.429   0.868   3.907 -0.3462  0.0939  0.1599
  451MOL0     C59463   7.544   0.871   3.998  0.3322  0.2380 -0.6577
  451MOL0     C59464   7.643   0.877   4.072  0.0388  0.6065  0.6624
  451MOL0     C59465   6.810   0.564   3.731 -0.9483  0.0911  0.4224
  451MOL0     C59466   6.703   0.476   3.719 -0.5934 -0.3174  0.5985
  451MOL0     H59467   6.287   0.465   3.734 -1.5058 -0.3807  2.4358
  451MOL0     H59468   6.054   0.402   3.731 -0.4724 -1.1532  0.2254
  451MOL0     H59469   5.878   0.317   3.624  0.9365  0.1386  0.9156
  451MOL0     H59470   5.860   0.266   3.803  2.6873  0.5234  0.4208
  451MOL0     H59471   5.654   0.263   3.666  2.7953  1.4670 -3.1058
  451MOL0     H59472   5.703   0.115   3.753  5.0683 -1.0045  1.4234
  451MOL0     H59473   5.787   0.011   3.554  1.3481  1.4383 -1.6776
  451MOL0     H59474   5.768   0.154   3.453 -1.7572 -1.8779 -3.0865
  451MOL0     H59475   5.546   0.157   3.450  0.6866  0.1122 -1.3681
  451MOL0     H59476   5.608   0.011   3.387 -3.0265  0.8969 -0.8926
  451MOL0     H59477   5.404  -0.026   3.551 -0.0681  0.7052  1.7278
  451MOL0     H59478   5.490   0.053   3.680 -2.0303 -0.9539  1.1605
  451MOL0     H59479   5.656  -0.107   3.701  0.0026  3.1707 -0.6208
  451MOL0     H59480   5.605  -0.195   3.556 -0.5199  1.3330 -0.3876
  451MOL0     H59481   5.470  -0.194   3.830  3.2074  1.4816 -0.1621
  451MOL0     H59482   5.381  -0.267   3.691 -0.0698 -0.6691  0.8506
  451MOL0     H59483   5.552  -0.420   3.830 -0.8301 -0.3307  0.0841
  451MOL0     H59484   5.669  -0.335   3.728 -0.3155  0.4630  0.4215
  451MOL0     H59485   5.324  -0.515   3.708 -0.9913 -1.2305 -0.6153
  451MOL0     H59486   5.351  -0.825   3.529  0.2347 -0.4401 -0.2878
  451MOL0     H59487   5.319  -0.736   3.379  0.2231 -1.8487 -0.1003
  451MOL0     H59488   5.143  -0.603   3.483  0.2169 -1.2958 -2.1196
  451MOL0     H59489   5.163  -0.701   3.632 -1.9813  0.5618  0.3274
  451MOL0     H59490   5.113  -0.814   3.356  1.8087  2.0786 -0.2144
  451MOL0     H59491   5.134  -0.914   3.511  0.1029 -0.3697 -0.1605
  451MOL0     H59492   4.906  -0.883   3.404  2.6617  0.6816 -2.6066
  451MOL0     H59493   4.918  -0.711   3.440  0.0103  0.7384  1.1656
  451MOL0     H59494   4.696  -0.834   3.420  1.6308  1.3268  0.1135
  451MOL0     H59495   4.453  -0.800   3.479 -1.7068  1.4169  0.8832
  451MOL0     H59496   4.082  -0.914   3.565 -1.4722  0.7522 -2.9123
  451MOL0     H59497   3.834  -0.848   3.546  0.1160 -1.3489  2.1006
  451MOL0     H59498   3.572  -0.608   3.660 -0.4135  1.2769 -2.3964
  451MOL0     H59499   3.656  -0.761   3.654  0.8550 -0.1747 -1.1645
  451MOL0     H59500   3.452  -0.739   3.513  0.1278 -3.4238 -0.4997
  451MOL0     H59501   3.600  -0.799   3.426  0.6847  0.0187 -0.0285
  451MOL0     H59502   3.600  -0.569   3.315 -2.1228  2.6280 -1.0891
  451MOL0     H59503   3.484  -0.516   3.442  0.8026  0.3401  0.1546
  451MOL0     H59504   3.423  -0.730   3.233 -0.3206 -0.1991  0.0796
  451MOL0     H59505   3.313  -0.635   3.326 -0.0093 -0.9387 -0.9807
  451MOL0     H59506   3.486  -0.530   3.093  0.5185 -2.3118  0.4598
  451MOL0     H59507   3.397  -0.426   3.192  1.7631  0.1206 -2.0540
  451MOL0     H59508   3.183  -0.520   3.087 -0.0996 -1.6422  2.0617
  451MOL0     H59509   3.277  -0.665   3.037 -2.1393 -0.5344  2.3424
  451MOL0     H59510   3.282  -0.388   2.928 -1.5817 -1.6694  0.8565
  451MOL0     H59511   3.407  -0.518   2.889  0.4603 -2.7374  0.8153
  451MOL0     H59512   3.215  -0.665   2.821 -4.4403 -0.1679 -0.2184
  451MOL0     H59513   3.249  -0.525   2.725 -0.2067  2.0095  0.6388
  451MOL0     H59514   3.945  -0.445   3.660 -0.8216  0.6767 -2.1687
  451MOL0     H59515   4.188  -0.529   3.691  1.3560 -0.2465 -2.7461
  451MOL0     H59516   4.577  -0.757   3.902  2.0406 -0.5994  1.1501
  451MOL0     H59517   4.804  -0.811   3.833 -0.8514  0.1900 -0.2154
  451MOL0     H59518   6.146  -0.010   3.686  2.7342 -1.7816  2.0706
  451MOL0     H59519   6.414   0.053   3.676 -0.2235 -0.5940 -1.3748
  451MOL0     H59520   6.778   0.279   3.994 -1.1325  0.8063  0.8097
  451MOL0     H59521   6.969   0.426   4.005  2.7239  1.3353 -1.4418
  451MOL0     H59522   7.154   0.593   3.965  0.7967 -0.6342 -0.5470
  451MOL0     H59523   7.023   0.714   3.995  1.4277  1.2740  1.2937
  451MOL0     H59524   7.242   0.740   3.777  1.0703  1.0271 -0.0540
  451MOL0     H59525   7.155   0.867   3.856 -0.6286  0.8915  0.1868
  451MOL0     H59526   7.346   0.691   4.000 -2.5680 -1.2380 -1.5591
  451MOL0     H59527   7.287   0.852   4.062  0.5256 -1.3943  0.4656
  451MOL0     H59528   7.464   0.833   3.809 -1.8289 -0.5563 -0.1691
  451MOL0     H59529   7.389   0.969   3.892  0.1671  0.5490  1.7170
  451MOL0     H59530   7.719   0.898   4.144 -0.1291  0.0831  0.9938
  451MOL0     H59531   6.827   0.639   3.655  1.3697 -0.6905  0.1073
  451MOL0     H59532   6.651   0.496   3.625 -0.6699  0.2805  0.7607
  452MOL0     O59533  11.212   9.775   5.377  1.0278  0.0932  0.5484
  452MOL0     C59534  11.238   9.837   5.479  0.0400 -0.0650  0.1468
  452MOL0     O59535  11.155   9.902   5.562  0.0950  0.0239 -0.5920
  452MOL0     C59536  11.023   9.922   5.527  0.0789 -0.2744  0.4836
  452MOL0     C59537  10.944   9.944   5.636 -0.1917  0.2167 -0.3640
  452MOL0     C59538  10.806   9.947   5.629  0.4834 -0.1333 -0.2044
  452MOL0     C59539  10.732   9.915   5.515  0.4741 -0.0511 -1.2053
  452MOL0     O59540  10.587   9.912   5.513 -0.0899  0.4159 -0.1267
  452MOL0     C59541  10.529   9.834   5.407  0.4325 -0.4113  0.1628
  452MOL0     C59542  10.385   9.784   5.456 -0.0881  0.0795  0.1045
  452MOL0     C59543  10.317   9.674   5.369  0.3657 -0.7174 -0.1704
  452MOL0     C59544  10.208   9.741   5.291  0.0533 -0.1920 -0.7931
  452MOL0     C59545  10.151   9.649   5.179  0.9169 -0.8551 -0.1716
  452MOL0     C59546  10.060   9.540   5.233  0.0184 -0.7432  0.1322
  452MOL0     C59547   9.930   9.575   5.299 -0.7090  0.6709 -0.8338
  452MOL0     C59548   9.839   9.621   5.191  0.4142 -0.6757  0.3385
  452MOL0     N59549   9.790   9.514   5.105 -0.2965  0.1001 -0.8206
  452MOL0     C59550   9.687   9.433   5.144  0.4860  0.5742  0.6484
  452MOL0     C59551   9.666   9.364   5.028 -0.4936 -0.7205  0.3603
  452MOL0     C59552   9.552   9.265   5.018  0.6839  0.3948  0.1073
  452MOL0     C59553   9.417   9.333   4.981  0.7515 -0.2809 -0.2060
  452MOL0     C59554   9.284   9.274   5.029  0.1778  0.5691  0.2939
  452MOL0     C59555   9.274   9.116   5.017 -0.3846  0.6162  0.6189
  452MOL0     O59556   9.287   9.081   4.880 -0.5797 -0.0290  0.0621
  452MOL0     C59557   9.179   9.075   4.798 -0.3109 -0.6195  0.2237
  452MOL0     C59558   9.194   9.009   4.675  0.0713 -0.5697  0.8093
  452MOL0     C59559   9.104   9.019   4.570  0.7475 -0.4541  0.0104
  452MOL0     C59560   8.980   9.087   4.596  0.2867 -0.0583 -0.3000
  452MOL0     C59561   8.874   9.090   4.492 -0.7598 -0.3796  0.0237
  452MOL0     O59562   8.744   9.129   4.533  0.2917 -0.4869 -0.1984
  452MOL0     C59563   8.637   9.111   4.453 -0.1751  0.5246 -0.0566
  452MOL0     C59564   8.605   9.184   4.341  0.0878 -0.2264 -1.1657
  452MOL0     C59565   8.488   9.160   4.271  0.3770  0.8208  0.1169
  452MOL0     C59566   8.401   9.053   4.305 -0.1690 -0.3010  0.7482
  452MOL0     O59567   8.290   9.028   4.235  0.5291  0.0215  0.6929
  452MOL0     C59568   8.218   9.131   4.169  0.4004 -0.7673  0.2658
  452MOL0     C59569   8.075   9.106   4.201 -0.1379 -0.0608  0.2368
  452MOL0     C59570   7.977   9.175   4.104 -0.3451  0.3749 -0.5429
  452MOL0     C59571   7.830   9.171   4.156  1.4514 -0.1656 -0.2588
  452MOL0     C59572   7.731   9.198   4.037 -0.8415  0.4826 -0.0166
  452MOL0     C59573   7.583   9.219   4.072  0.0671  0.1239  0.3274
  452MOL0     C59574   7.516   9.104   4.127  0.2148  0.1475 -0.1791
  452MOL0     C59575   7.367   9.126   4.130  0.0909  0.3889 -0.1563
  452MOL0    Cl59576   7.286   9.003   4.223 -0.5056  0.5454 -0.0874
  452MOL0     C59577   8.437   8.967   4.411  0.9578 -0.1384 -0.6816
  452MOL0     C59578   8.555   8.997   4.484  0.3177  0.2273 -0.0256
  452MOL0     O59579   8.901   9.039   4.379  0.3090 -0.1424 -0.1845
  452MOL0     C59580   8.961   9.142   4.728 -0.1987 -0.6499  0.5114
  452MOL0     C59581   9.062   9.143   4.821 -0.8066  0.7347 -0.2818
  452MOL0     N59582   9.748   9.411   4.921  0.8566 -0.0984 -0.4928
  452MOL0     N59583   9.829   9.499   4.972  1.1487 -0.0990 -0.2561
  452MOL0     C59584  10.813   9.901   5.405  0.0752 -0.2383  0.6067
  452MOL0     C59585  10.954   9.911   5.406  0.7471  0.0147 -0.2053
  452MOL0     C59586  11.382   9.812   5.525 -0.0084 -0.2922 -0.1514
  452MOL0     C59587  11.483   9.728   5.464  0.6727  0.5835  0.6409
  452MOL0     C59588  11.610   9.719   5.520 -0.0893 -0.1518  0.6814
  452MOL0     C59589  11.655   9.802   5.615  0.8583 -0.3495  1.0744
  452MOL0     O59590  11.786   9.801   5.650  0.0800  0.4744 -0.5789
  452MOL0     C59591  11.881   9.838   5.546  0.4585 -0.8693 -0.4727
  452MOL0     C59592  11.908   9.991   5.570  1.0514 -0.2774  0.0664
  452MOL0     C59593  12.047  10.030   5.508 -0.3878  0.2447  0.4483
  452MOL0     C59594  12.057  10.188   5.512  0.2965 -0.1183  0.2778
  452MOL0     C59595  12.043  10.241   5.654  0.5992  0.0476 -0.5299
  452MOL0     C59596  12.023  10.288   5.762 -1.6740  0.0709 -0.1715
  452MOL0     C59597  11.561   9.891   5.671 -0.4111 -1.0637 -0.1271
  452MOL0     C59598  11.432   9.897   5.624  0.1269 -0.2803 -0.8660
  452MOL0     H59599  10.984   9.951   5.737 -1.5384  4.8527  0.0587
  452MOL0     H59600  10.740   9.943   5.716  0.0494 -1.8529 -0.5688
  452MOL0     H59601  10.584   9.740   5.398 -2.2482 -1.9822 -1.2365
  452MOL0     H59602  10.518   9.875   5.306 -0.8816  1.1116  0.8700
  452MOL0     H59603  10.316   9.867   5.471 -1.7611 -1.0589 -0.8859
  452MOL0     H59604  10.410   9.738   5.552 -0.7740 -1.8908 -0.6086
  452MOL0     H59605  10.280   9.599   5.439  0.3660 -0.4927  0.0725
  452MOL0     H59606  10.383   9.623   5.298  2.8815  1.5578  0.3492
  452MOL0     H59607  10.137   9.782   5.364  2.5578  1.4582  0.8855
  452MOL0     H59608  10.244   9.831   5.239 -1.1245  0.0186 -1.2923
  452MOL0     H59609  10.238   9.598   5.137  0.6050 -0.0483 -1.8686
  452MOL0     H59610  10.092   9.703   5.104 -0.0655 -2.3995 -0.5542
  452MOL0     H59611  10.123   9.495   5.310  0.7465 -2.5035 -1.3905
  452MOL0     H59612  10.048   9.460   5.158  2.0165 -0.4305 -0.5786
  452MOL0     H59613   9.881   9.491   5.350 -2.4556  2.3648  0.4177
  452MOL0     H59614   9.937   9.656   5.373 -0.8783  0.0262 -0.0997
  452MOL0     H59615   9.873   9.705   5.130 -1.7812  2.1908  2.7405
  452MOL0     H59616   9.752   9.659   5.245  0.3967 -1.7585  1.0840
  452MOL0     H59617   9.628   9.428   5.235  0.1637 -1.3158  0.3747
  452MOL0     H59618   9.544   9.211   5.113  2.4989  0.2241  0.2066
  452MOL0     H59619   9.572   9.186   4.945 -2.1371 -1.0560  0.7404
  452MOL0     H59620   9.408   9.333   4.872 -1.3651 -1.9916 -0.0970
  452MOL0     H59621   9.409   9.436   5.017 -1.5017 -0.1968 -0.7651
  452MOL0     H59622   9.271   9.307   5.133 -1.7665  1.9039 -0.3183
  452MOL0     H59623   9.204   9.326   4.975 -0.6152  2.1446  2.8079
  452MOL0     H59624   9.181   9.085   5.065 -1.9496 -0.8203 -3.0695
  452MOL0     H59625   9.353   9.071   5.077 -1.2890 -0.1648  1.2503
  452MOL0     H59626   9.281   8.957   4.635  0.1042  0.7770 -1.0297
  452MOL0     H59627   9.137   8.977   4.475 -0.5362 -2.5267  0.4429
  452MOL0     H59628   8.675   9.260   4.308 -0.1280  0.4756 -0.0695
  452MOL0     H59629   8.474   9.222   4.184  3.5148  0.3120 -0.8830
  452MOL0     H59630   8.234   9.124   4.061 -1.2195 -0.1706 -0.0365
  452MOL0     H59631   8.243   9.231   4.206 -1.8485 -0.3626  0.8738
  452MOL0     H59632   8.056   9.143   4.303 -1.7073  1.1178 -0.4418
  452MOL0     H59633   8.048   9.000   4.210  0.2129 -0.0930  1.0550
  452MOL0     H59634   7.972   9.118   4.011 -1.5431 -0.1455 -0.1831
  452MOL0     H59635   7.999   9.278   4.075 -1.9329  0.2004 -2.6386
  452MOL0     H59636   7.789   9.077   4.195  2.7702 -0.5540  0.2529
  452MOL0     H59637   7.815   9.244   4.236 -1.4830 -1.4618  0.5330
  452MOL0     H59638   7.741   9.115   3.966 -0.5973 -1.0214  1.6948
  452MOL0     H59639   7.775   9.283   3.985 -1.4590  1.2630  0.7161
  452MOL0     H59640   7.535   9.246   3.978 -0.5375  1.9341  1.1149
  452MOL0     H59641   7.582   9.307   4.137  2.9133  1.2538 -1.0017
  452MOL0     H59642   7.543   9.018   4.064  3.0939  2.0990 -1.8207
  452MOL0     H59643   7.556   9.084   4.227 -0.2381  2.3146  0.4814
  452MOL0     H59644   7.323   9.111   4.031  0.2271 -0.3473 -0.1144
  452MOL0     H59645   7.331   9.224   4.161  0.1044  0.4610 -0.3640
  452MOL0     H59646   8.371   8.887   4.444 -0.6939  2.2517  2.2493
  452MOL0     H59647   8.584   8.942   4.573 -0.2601 -0.3567 -0.1890
  452MOL0     H59648   8.864   9.183   4.755 -0.1779 -1.0391  1.2173
  452MOL0     H59649   9.052   9.203   4.911  1.7260  2.7510 -1.1999
  452MOL0     H59650  10.769   9.886   5.307  1.9616 -2.1223 -0.0376
  452MOL0     H59651  11.008   9.888   5.315 -0.6314  0.0264 -1.0544
  452MOL0     H59652  11.459   9.654   5.387 -0.9850  0.6329  1.0783
  452MOL0     H59653  11.689   9.650   5.490 -0.4359 -0.5411  0.6605
  452MOL0     H59654  11.844   9.821   5.445  0.6181 -2.1462 -0.3392
  452MOL0     H59655  11.975   9.783   5.561 -1.1969 -2.9953  3.6747
  452MOL0     H59656  11.829  10.053   5.526  0.5538 -2.5266 -2.4257
  452MOL0     H59657  11.907   9.995   5.679 -4.6441 -0.1852  0.3391
  452MOL0     H59658  12.065   9.978   5.413 -0.2983 -3.2421  2.2134
  452MOL0     H59659  12.121   9.996   5.581 -0.5369  3.7152  2.4053
  452MOL0     H59660  12.159  10.209   5.476  0.3611 -0.1634  0.4322
  452MOL0     H59661  11.987  10.228   5.438  0.6764  0.7638  0.3867
  452MOL0     H59662  12.004  10.319   5.863 -2.1065 -1.9804  0.4338
  452MOL0     H59663  11.588   9.959   5.751  0.2801  1.8123 -2.6175
  452MOL0     H59664  11.366   9.972   5.667 -0.9147  0.8693 -4.1878
  453MOL0     O59665   8.628   8.529   6.551  0.2570 -0.3024 -0.6826
  453MOL0     C59666   8.648   8.481   6.664  1.4247  0.1872  0.1796
  453MOL0     O59667   8.552   8.479   6.764  0.1368  0.3312 -0.3465
  453MOL0     C59668   8.431   8.515   6.726  0.6103 -0.0135 -0.5889
  453MOL0     C59669   8.324   8.427   6.740 -0.8373  1.0508 -0.5279
  453MOL0     C59670   8.194   8.464   6.696  0.5381  0.6548 -0.1128
  453MOL0     C59671   8.171   8.593   6.646 -0.0631  0.1809  0.1312
  453MOL0     O59672   8.047   8.635   6.587  0.0605 -0.1078  0.8279
  453MOL0     C59673   7.939   8.645   6.688  0.1222  0.8519  0.3026
  453MOL0     C59674   7.885   8.790   6.705 -0.2748 -0.4595 -0.3707
  453MOL0     C59675   7.751   8.785   6.769  0.2755 -0.0383  0.8860
  453MOL0     C59676   7.696   8.922   6.804 -0.2209 -0.1270 -0.3505
  453MOL0     C59677   7.550   8.920   6.861  0.7087 -0.1722  0.3114
  453MOL0     C59678   7.544   8.835   6.979 -0.1784 -0.0302 -0.2228
  453MOL0     C59679   7.416   8.867   7.055 -0.1664 -0.1261 -0.8275
  453MOL0     C59680   7.413   8.988   7.141 -0.4259 -0.2909 -0.2591
  453MOL0     N59681   7.496   8.980   7.265 -0.1067 -0.2274  0.2396
  453MOL0     C59682   7.628   9.025   7.281  0.1142  0.5811 -0.1671
  453MOL0     C59683   7.662   9.017   7.412 -0.6012 -0.6852  0.0155
  453MOL0     C59684   7.802   9.028   7.473 -0.0548  0.1624 -0.4347
  453MOL0     C59685   7.801   9.003   7.622  0.5625  0.2605  0.4723
  453MOL0     C59686   7.791   8.858   7.662 -1.1901  0.8915 -0.2592
  453MOL0     C59687   7.841   8.826   7.802 -0.0707  0.6943  0.1732
  453MOL0     O59688   7.985   8.857   7.825  0.1850 -0.1556 -1.0429
  453MOL0     C59689   8.029   8.836   7.961 -0.6443 -0.7625  0.7853
  453MOL0     C59690   7.968   8.752   8.052 -0.4086  0.1262 -0.2061
  453MOL0     C59691   8.036   8.729   8.173 -0.6480 -0.1484 -1.2981
  453MOL0     C59692   8.165   8.782   8.213  0.2905  0.2887 -0.5001
  453MOL0     C59693   8.228   8.747   8.349  0.1441  0.2019  0.9070
  453MOL0     O59694   8.161   8.653   8.426  0.6772  0.6948  0.3356
  453MOL0     C59695   8.200   8.615   8.549  0.2168  0.0203 -0.0235
  453MOL0     C59696   8.324   8.635   8.620  0.3611  0.6820  0.6310
  453MOL0     C59697   8.358   8.559   8.732 -0.4308  0.4060 -0.5806
  453MOL0     C59698   8.270   8.461   8.787 -0.3722  0.6405  0.9678
  453MOL0     O59699   8.318   8.379   8.883  0.1736 -0.1037  0.1228
  453MOL0     C59700   8.231   8.269   8.915 -0.3669 -0.2846 -0.3712
  453MOL0     C59701   8.310   8.186   9.021  0.0368 -0.2461  0.7355
  453MOL0     C59702   8.429   8.120   8.946  0.2341  0.1938  0.0006
  453MOL0     C59703   8.495   8.035   9.045  0.1222  0.2829  0.1716
  453MOL0     C59704   8.644   8.001   8.988 -0.2452 -0.3385  0.3855
  453MOL0     C59705   8.752   8.105   9.011  0.4713  0.3685 -0.3861
  453MOL0     C59706   8.792   8.112   9.165 -0.2511  1.0965  0.0163
  453MOL0     C59707   8.885   8.227   9.201 -0.1204  0.7061 -0.6646
  453MOL0    Cl59708   8.806   8.374   9.156 -0.0430 -0.1549  0.0344
  453MOL0     C59709   8.139   8.465   8.743  0.7743 -0.6380 -0.6325
  453MOL0     C59710   8.108   8.536   8.623  0.3300 -0.3204 -0.1327
  453MOL0     O59711   8.331   8.795   8.378 -0.1922  0.2389 -0.0361
  453MOL0     C59712   8.223   8.864   8.115 -0.6361  1.1361 -0.5451
  453MOL0     C59713   8.164   8.879   7.988 -0.3359  0.7837 -0.5334
  453MOL0     N59714   7.547   8.965   7.471 -0.5893 -0.8576  0.4248
  453MOL0     N59715   7.451   8.949   7.387  0.1442 -0.1935 -0.2856
  453MOL0     C59716   8.280   8.672   6.632  0.2380  0.3132  0.5196
  453MOL0     C59717   8.405   8.649   6.685  0.2216 -0.1530 -0.2857
  453MOL0     C59718   8.783   8.442   6.696  0.0667  0.4841 -0.4372
  453MOL0     C59719   8.866   8.394   6.598 -0.7348 -0.4265 -0.4969
  453MOL0     C59720   9.001   8.375   6.620 -0.5741 -0.1025  0.3399
  453MOL0     C59721   9.064   8.390   6.745 -0.1939 -0.0030  0.2934
  453MOL0     O59722   9.200   8.366   6.776  0.0457 -0.2696  0.0162
  453MOL0     C59723   9.286   8.332   6.668  0.0324  0.6958  0.0012
  453MOL0     C59724   9.433   8.342   6.715 -0.5257  0.4048 -1.0771
  453MOL0     C59725   9.529   8.284   6.614  0.8684 -0.7569  1.0390
  453MOL0     C59726   9.538   8.354   6.473  0.2014 -0.3642  0.8936
  453MOL0     C59727   9.565   8.495   6.491 -0.3040 -0.2257  0.5605
  453MOL0     C59728   9.579   8.610   6.520  0.3661  0.2227  1.1183
  453MOL0     C59729   8.980   8.431   6.848  0.0051 -0.3330  0.8144
  453MOL0     C59730   8.839   8.455   6.833 -0.1417  0.2939 -0.8588
  453MOL0     H59731   8.347   8.324   6.766 -1.7220  0.8735 -0.4355
  453MOL0     H59732   8.111   8.396   6.703 -0.5895  2.1737  2.7950
  453MOL0     H59733   7.963   8.601   6.785 -0.5352 -1.4146 -0.4947
  453MOL0     H59734   7.859   8.586   6.642  0.1342 -0.4154  1.8252
  453MOL0     H59735   7.857   8.836   6.610 -0.0293  1.6364  0.5233
  453MOL0     H59736   7.957   8.849   6.763 -3.0661  0.9558  1.8871
  453MOL0     H59737   7.750   8.716   6.854 -2.3632 -0.0800  0.9021
  453MOL0     H59738   7.682   8.740   6.698 -0.4358  1.3729  0.6409
  453MOL0     H59739   7.761   8.971   6.877  0.5876 -1.8456  0.1602
  453MOL0     H59740   7.690   8.991   6.719  1.5416  0.6120  0.0738
  453MOL0     H59741   7.476   8.884   6.789  2.6461 -1.6684 -1.0647
  453MOL0     H59742   7.517   9.021   6.883 -2.4351 -1.7039  3.5081
  453MOL0     H59743   7.635   8.857   7.035 -0.3229  1.4459 -0.5170
  453MOL0     H59744   7.528   8.728   6.962  0.0801  0.1006 -1.3559
  453MOL0     H59745   7.345   8.882   6.973 -0.3799 -0.2123 -0.6571
  453MOL0     H59746   7.405   8.783   7.124  2.3791  0.1617  0.0293
  453MOL0     H59747   7.308   8.989   7.174 -0.3246  0.1693  0.0550
  453MOL0     H59748   7.434   9.081   7.087  0.5665  0.6222  1.6032
  453MOL0     H59749   7.683   9.045   7.190  1.4735 -1.8576  0.0360
  453MOL0     H59750   7.849   9.124   7.451  1.3266 -0.4045 -0.0726
  453MOL0     H59751   7.861   8.952   7.421  0.8986  0.2841  0.4297
  453MOL0     H59752   7.714   9.055   7.663 -0.0406 -0.0468 -0.3842
  453MOL0     H59753   7.896   9.044   7.658  1.5295  1.4517 -3.0803
  453MOL0     H59754   7.688   8.823   7.652 -0.7748  0.0854 -2.2316
  453MOL0     H59755   7.846   8.792   7.595  1.1407 -1.3102  3.4416
  453MOL0     H59756   7.822   8.724   7.838 -1.6375  1.2207  0.9307
  453MOL0     H59757   7.784   8.890   7.870  0.6152  2.3570 -0.7526
  453MOL0     H59758   7.874   8.699   8.044  0.2322 -0.9010 -1.1570
  453MOL0     H59759   7.983   8.661   8.239  1.9636 -0.0809  1.0757
  453MOL0     H59760   8.399   8.697   8.571  1.0219 -1.4903 -1.2547
  453MOL0     H59761   8.457   8.564   8.776 -0.5823  1.9957 -0.3396
  453MOL0     H59762   8.218   8.209   8.824 -3.5050  0.4913 -0.5537
  453MOL0     H59763   8.131   8.297   8.949 -1.4404  0.8787 -4.0227
  453MOL0     H59764   8.252   8.105   9.067  0.2334  0.1171  1.6412
  453MOL0     H59765   8.336   8.262   9.095 -2.5455  0.7442  0.7461
  453MOL0     H59766   8.494   8.200   8.909  0.6054 -1.1645 -2.4957
  453MOL0     H59767   8.402   8.066   8.855 -1.6125 -2.8154  2.1646
  453MOL0     H59768   8.498   8.078   9.145  0.6289  0.3112  0.1509
  453MOL0     H59769   8.446   7.938   9.059  0.4876 -0.0160 -0.5603
  453MOL0     H59770   8.648   7.988   8.879  0.2378  1.5452  0.1479
  453MOL0     H59771   8.678   7.905   9.029  1.6050  0.0676 -0.0709
  453MOL0     H59772   8.707   8.199   8.976 -1.4005 -1.1573 -2.3014
  453MOL0     H59773   8.838   8.087   8.946  2.0234  3.5675  0.5298
  453MOL0     H59774   8.699   8.119   9.222 -1.1542 -0.0186 -1.2468
  453MOL0     H59775   8.837   8.017   9.195 -0.6510  1.4437  1.8357
  453MOL0     H59776   8.979   8.215   9.146  0.6875 -0.9276  0.9674
  453MOL0     H59777   8.903   8.223   9.309 -2.2398 -1.2386 -0.3013
  453MOL0     H59778   8.052   8.417   8.787  0.0397  0.9627 -0.2846
  453MOL0     H59779   8.013   8.516   8.575 -0.1524 -0.4476  0.8453
  453MOL0     H59780   8.318   8.916   8.128 -0.0577 -0.3567  1.7255
  453MOL0     H59781   8.203   8.939   7.906  0.7850  0.6309 -0.1246
  453MOL0     H59782   8.272   8.767   6.581  0.3068  0.7732  1.3531
  453MOL0     H59783   8.480   8.725   6.664 -0.4545  0.4421 -0.6108
  453MOL0     H59784   8.805   8.389   6.508 -0.5222  1.1106 -0.7485
  453MOL0     H59785   9.068   8.354   6.537 -0.4316  3.2331 -0.5348
  453MOL0     H59786   9.273   8.410   6.593 -0.6198  0.7945  0.2142
  453MOL0     H59787   9.273   8.236   6.618  0.3569 -0.4188  1.9708
  453MOL0     H59788   9.461   8.440   6.754  0.4922 -0.6562  1.0052
  453MOL0     H59789   9.441   8.276   6.802  0.6303  0.4306 -1.1536
  453MOL0     H59790   9.509   8.178   6.598  1.4390 -0.9055  1.3119
  453MOL0     H59791   9.627   8.281   6.663  0.5838 -1.5044  1.5674
  453MOL0     H59792   9.611   8.295   6.417  0.2133 -1.0301  1.5904
  453MOL0     H59793   9.450   8.340   6.409  0.7511 -1.0255  0.2646
  453MOL0     H59794   9.601   8.714   6.536  1.1877  0.2815 -0.2168
  453MOL0     H59795   9.012   8.425   6.951 -1.7175 -1.0557  1.3549
  453MOL0     H59796   8.790   8.495   6.921 -1.7715  1.4827 -2.2273
  454MOL0     O59797   4.820   4.182   5.963  0.2767 -0.2627  0.5112
  454MOL0     C59798   4.861   4.106   6.050  0.1827 -0.5696 -0.3032
  454MOL0     O59799   4.801   3.998   6.096 -0.4686 -0.5708 -0.0046
  454MOL0     C59800   4.669   3.974   6.059 -0.1268  0.1835  0.2790
  454MOL0     C59801   4.565   4.055   6.104 -0.2072  0.5979 -0.3622
  454MOL0     C59802   4.436   4.012   6.075  0.0852 -0.0647 -0.0136
  454MOL0     C59803   4.408   3.899   5.996  0.3108  0.4585 -0.0317
  454MOL0     O59804   4.281   3.873   5.945 -0.1965 -0.1845 -1.2593
  454MOL0     C59805   4.164   3.903   6.030 -0.4519  1.1582  0.4662
  454MOL0     C59806   4.054   3.847   5.931 -0.7374  0.1865 -0.4427
  454MOL0     C59807   3.915   3.912   5.968  0.0806  0.0975  0.0646
  454MOL0     C59808   3.818   3.921   5.850 -0.3994 -0.2015 -0.5521
  454MOL0     C59809   3.718   4.031   5.872  0.5662  0.0861  0.1983
  454MOL0     C59810   3.641   4.030   6.008 -0.1797 -0.0562  0.0404
  454MOL0     C59811   3.567   3.904   6.028  0.1799  0.1052  0.2759
  454MOL0     C59812   3.463   3.874   5.923  0.3400 -0.2061 -0.1963
  454MOL0     N59813   3.387   3.995   5.882 -0.6801  0.4723 -0.4617
  454MOL0     C59814   3.309   4.069   5.967 -0.5608 -0.0313 -0.1241
  454MOL0     C59815   3.241   4.153   5.886  0.2780  0.0176  0.4289
  454MOL0     C59816   3.135   4.241   5.935  0.3998  0.3062 -0.4774
  454MOL0     C59817   3.003   4.237   5.861  0.4125 -0.2059  0.2082
  454MOL0     C59818   2.917   4.357   5.903 -0.1016 -0.7843  0.3773
  454MOL0     C59819   2.777   4.363   5.854  1.0613  0.1753 -0.4136
  454MOL0     O59820   2.695   4.251   5.906  0.0801  0.0688 -0.0664
  454MOL0     C59821   2.562   4.267   5.935  0.3338 -0.1287  0.4940
  454MOL0     C59822   2.506   4.160   6.009 -0.5514  0.1736 -0.6646
  454MOL0     C59823   2.381   4.162   6.069 -0.0485  0.3564 -0.1090
  454MOL0     C59824   2.288   4.251   6.026  0.1045 -0.7027 -0.1158
  454MOL0     C59825   2.140   4.244   6.065  0.2116  0.6781 -0.3885
  454MOL0     O59826   2.066   4.357   6.062  0.3639 -0.9348  1.0020
  454MOL0     C59827   1.927   4.357   6.080 -0.1877  0.0190  0.5430
  454MOL0     C59828   1.880   4.487   6.089  0.0336 -0.2083  0.8048
  454MOL0     C59829   1.744   4.512   6.118 -0.1974  1.2536 -0.6258
  454MOL0     C59830   1.652   4.408   6.158 -1.0232  0.6039  0.2236
  454MOL0     O59831   1.530   4.420   6.222  0.3057  0.2559  0.1454
  454MOL0     C59832   1.480   4.557   6.244  0.0370 -0.3835  0.2974
  454MOL0     C59833   1.341   4.570   6.312  0.0612 -0.1785  0.3996
  454MOL0     C59834   1.279   4.701   6.350  0.7759  0.0020  0.8469
  454MOL0     C59835   1.142   4.693   6.426 -0.9844 -0.3265  0.1968
  454MOL0     C59836   1.033   4.660   6.321 -0.7670  0.3720  0.0861
  454MOL0     C59837   0.895   4.636   6.378  0.6749 -0.1559 -0.7613
  454MOL0     C59838   0.847   4.765   6.439 -0.0975 -0.1859 -0.0885
  454MOL0     C59839   0.696   4.773   6.441  1.0575 -0.1355 -0.2686
  454MOL0    Cl59840   0.614   4.615   6.480 -0.2699 -0.2429 -0.1776
  454MOL0     C59841   1.700   4.277   6.152  0.5822  0.5191  0.4158
  454MOL0     C59842   1.836   4.249   6.114 -1.0082  0.6509  0.6205
  454MOL0     O59843   2.107   4.134   6.111  0.2173 -0.5347  0.0629
  454MOL0     C59844   2.339   4.364   5.941  0.7324  0.0395  0.6843
  454MOL0     C59845   2.472   4.370   5.889 -0.1124 -0.2810 -0.8788
  454MOL0     N59846   3.284   4.142   5.757 -0.2574 -0.3709  0.4703
  454MOL0     N59847   3.366   4.039   5.752 -0.0501 -0.6284 -0.4004
  454MOL0     C59848   4.516   3.826   5.948  0.5129  0.2547  0.4480
  454MOL0     C59849   4.645   3.859   5.981 -0.1797 -0.0120  0.1484
  454MOL0     C59850   4.996   4.142   6.106 -0.1060 -0.5482  0.3545
  454MOL0     C59851   5.069   4.054   6.195 -0.1968 -0.3820  0.3257
  454MOL0     C59852   5.200   4.088   6.237  0.7321  0.0780 -0.0541
  454MOL0     C59853   5.260   4.214   6.204  0.0730  0.7053 -0.0209
  454MOL0     O59854   5.389   4.253   6.249 -0.6204  0.1303 -0.7532
  454MOL0     C59855   5.435   4.179   6.367  0.3540  0.0461 -0.2157
  454MOL0     C59856   5.556   4.239   6.441  0.4809 -0.4450  0.0403
  454MOL0     C59857   5.686   4.255   6.352  0.8105  0.4603  0.0148
  454MOL0     C59858   5.694   4.387   6.277  0.2556  0.4588  0.3891
  454MOL0     C59859   5.717   4.499   6.365  0.6690  0.2330 -0.3780
  454MOL0     C59860   5.725   4.589   6.448 -0.6449 -0.2516 -0.9380
  454MOL0     C59861   5.192   4.296   6.121 -0.4374 -0.2602 -0.1813
  454MOL0     C59862   5.067   4.263   6.074 -0.0689  0.3345  0.0811
  454MOL0     H59863   4.592   4.152   6.144 -0.1084  1.2882 -2.0170
  454MOL0     H59864   4.355   4.080   6.099 -2.1240 -2.8274  0.9559
  454MOL0     H59865   4.159   4.012   6.041  0.8534  1.5134 -1.8098
  454MOL0     H59866   4.163   3.855   6.128  1.0661  3.9976  1.9939
  454MOL0     H59867   4.050   3.738   5.930 -1.8284  0.2042 -2.3961
  454MOL0     H59868   4.069   3.879   5.827 -1.0588  3.8301  0.5206
  454MOL0     H59869   3.920   4.015   6.005 -0.8967  0.0173  0.4505
  454MOL0     H59870   3.882   3.843   6.046 -1.0828 -0.4103 -0.8451
  454MOL0     H59871   3.875   3.934   5.758  0.0187  0.3867 -0.2173
  454MOL0     H59872   3.782   3.820   5.827  3.4316 -1.7817 -0.5063
  454MOL0     H59873   3.649   4.035   5.787  2.6495 -0.8318 -1.6336
  454MOL0     H59874   3.780   4.121   5.876 -2.9345  2.6715  3.4065
  454MOL0     H59875   3.570   4.113   6.004 -1.2566 -0.9824 -0.9437
  454MOL0     H59876   3.700   4.043   6.099 -0.9849 -3.2009  1.1572
  454MOL0     H59877   3.642   3.824   6.029  0.0427 -0.0821 -1.6665
  454MOL0     H59878   3.528   3.923   6.129  4.7953  2.2135  1.9421
  454MOL0     H59879   3.397   3.800   5.970  1.4686 -1.4896 -0.5526
  454MOL0     H59880   3.525   3.833   5.843  0.9705  2.2701 -1.0393
  454MOL0     H59881   3.295   4.041   6.071 -1.6959 -0.4522 -0.3738
  454MOL0     H59882   3.179   4.340   5.942  0.8564  0.0942 -0.3238
  454MOL0     H59883   3.105   4.221   6.039  2.0348  3.2130  0.6441
  454MOL0     H59884   2.955   4.139   5.870  1.4190 -0.7069  0.2556
  454MOL0     H59885   3.026   4.244   5.754  2.6613  2.2014  0.7366
  454MOL0     H59886   2.911   4.350   6.012 -0.6155 -2.2562  0.2791
  454MOL0     H59887   2.964   4.451   5.872 -1.0407 -1.1659 -2.5170
  454MOL0     H59888   2.768   4.343   5.747 -0.3171  2.5695 -0.8037
  454MOL0     H59889   2.737   4.459   5.887  1.6005  0.4456 -0.5265
  454MOL0     H59890   2.574   4.078   6.031  0.5702  0.5795 -2.3812
  454MOL0     H59891   2.350   4.075   6.126  0.9642 -0.2526 -0.4580
  454MOL0     H59892   1.932   4.579   6.064 -0.7667  0.5991  2.0109
  454MOL0     H59893   1.711   4.616   6.116  0.6133  1.5301  0.1291
  454MOL0     H59894   1.471   4.606   6.146 -1.1168  2.1291  1.5654
  454MOL0     H59895   1.543   4.615   6.311 -1.1172  0.2735  0.8471
  454MOL0     H59896   1.334   4.506   6.401  0.9009  1.2960  1.5666
  454MOL0     H59897   1.275   4.528   6.236 -0.7624  3.4358 -1.0487
  454MOL0     H59898   1.271   4.767   6.263 -0.6007 -0.3075  0.7024
  454MOL0     H59899   1.346   4.740   6.426  2.9624  0.6651 -1.3112
  454MOL0     H59900   1.141   4.619   6.507  0.0731  0.3715  0.8815
  454MOL0     H59901   1.123   4.793   6.465 -2.1808 -0.2156 -0.6373
  454MOL0     H59902   1.054   4.565   6.270  1.2773  1.0902 -0.5075
  454MOL0     H59903   1.025   4.739   6.246 -1.5547  3.8506  3.5408
  454MOL0     H59904   0.895   4.551   6.447 -0.9439 -1.1678 -1.9404
  454MOL0     H59905   0.829   4.609   6.295  2.9373  2.3702 -3.6134
  454MOL0     H59906   0.882   4.774   6.543  0.6304 -1.3947 -0.2024
  454MOL0     H59907   0.892   4.856   6.399  0.8320  0.4373  2.1905
  454MOL0     H59908   0.653   4.810   6.347  1.7624 -1.0726 -0.9871
  454MOL0     H59909   0.668   4.842   6.521 -0.5053  1.2662 -1.9345
  454MOL0     H59910   1.632   4.203   6.193 -2.1141  2.6639  0.0801
  454MOL0     H59911   1.870   4.147   6.098 -0.9783  0.7033  0.3325
  454MOL0     H59912   2.267   4.436   5.904 -0.2730 -0.4235  1.6729
  454MOL0     H59913   2.494   4.456   5.827 -1.4860  1.3618  0.8107
  454MOL0     H59914   4.504   3.745   5.876 -1.1681  1.2189 -0.4174
  454MOL0     H59915   4.733   3.799   5.960  0.0172 -0.0660  1.0953
  454MOL0     H59916   5.024   3.961   6.227 -1.5231  0.3648  0.7198
  454MOL0     H59917   5.246   4.016   6.303 -0.4875 -0.0561  0.6857
  454MOL0     H59918   5.465   4.081   6.332 -0.5098 -0.0081 -0.8294
  454MOL0     H59919   5.358   4.156   6.442  1.3127 -0.5699  0.6123
  454MOL0     H59920   5.529   4.335   6.484  2.3753  0.0096  0.3241
  454MOL0     H59921   5.593   4.162   6.510  1.2525 -2.0468 -2.0483
  454MOL0     H59922   5.697   4.171   6.282  0.4320  0.1563  0.3139
  454MOL0     H59923   5.772   4.241   6.419 -1.2105 -0.4252  2.6050
  454MOL0     H59924   5.766   4.383   6.194 -0.3740 -1.7276 -0.1044
  454MOL0     H59925   5.599   4.401   6.225  0.1134 -3.2611 -0.6661
  454MOL0     H59926   5.739   4.673   6.515 -0.4661 -1.2999  0.3876
  454MOL0     H59927   5.239   4.391   6.098  1.6704 -0.6503  2.1775
  454MOL0     H59928   5.018   4.335   6.009  1.3661 -0.8249 -2.4309
  455MOL0     O59929  11.213   4.609   9.085  0.2091  0.3349  0.3205
  455MOL0     C59930  11.277   4.516   9.138  0.2381  0.4357 -0.4600
  455MOL0     O59931  11.228   4.393   9.176  0.3129  0.0982  0.3906
  455MOL0     C59932  11.118   4.347   9.116 -0.6720  0.0266 -0.1447
  455MOL0     C59933  10.998   4.393   9.151  0.0569  0.5581 -0.5047
  455MOL0     C59934  10.880   4.346   9.091 -0.5405  0.1510  1.0385
  455MOL0     C59935  10.885   4.235   9.000  0.2011  0.2698 -0.6787
  455MOL0     O59936  10.767   4.180   8.940 -0.9068 -0.6999  0.2820
  455MOL0     C59937  10.666   4.274   8.910  0.4426  0.6812 -0.1064
  455MOL0     C59938  10.562   4.199   8.826  0.5403  0.3486 -0.1866
  455MOL0     C59939  10.460   4.127   8.920 -0.1033  1.0684  0.2167
  455MOL0     C59940  10.342   4.071   8.846  0.1636  0.9347  0.5128
  455MOL0     C59941  10.363   3.932   8.785  0.6196  0.0683  0.3763
  455MOL0     C59942  10.462   3.925   8.670  0.2531 -0.2033  0.4766
  455MOL0     C59943  10.427   3.833   8.545  0.5875  0.6741 -0.3823
  455MOL0     C59944  10.296   3.869   8.461  0.3078 -0.7291  0.1286
  455MOL0     N59945  10.268   3.767   8.351  0.2436 -0.0908  0.5617
  455MOL0     C59946  10.142   3.743   8.291 -0.5620  0.1497 -0.5013
  455MOL0     C59947  10.165   3.632   8.228  0.3480  0.2446 -0.6215
  455MOL0     C59948  10.067   3.550   8.150 -0.6304  0.3965 -0.1872
  455MOL0     C59949  10.068   3.395   8.194  0.3729  0.5356 -0.2965
  455MOL0     C59950   9.984   3.309   8.102 -0.8367 -0.1549  0.0033
  455MOL0     C59951   9.829   3.335   8.110 -0.5363 -0.0023 -0.2888
  455MOL0     O59952   9.762   3.237   8.034  0.2350  0.4086 -0.0533
  455MOL0     C59953   9.634   3.270   7.991 -0.3211  0.6662  0.2099
  455MOL0     C59954   9.621   3.373   7.898 -0.0859  0.5921 -0.6376
  455MOL0     C59955   9.492   3.406   7.852  0.0954 -0.6127  0.0026
  455MOL0     C59956   9.376   3.324   7.881  0.4727  0.3060 -0.5112
  455MOL0     C59957   9.240   3.347   7.806  0.1654  0.0075 -0.3535
  455MOL0     O59958   9.241   3.443   7.698  0.7038  0.2398  0.4210
  455MOL0     C59959   9.123   3.466   7.626  1.1554 -0.4364 -0.2804
  455MOL0     C59960   9.113   3.592   7.568 -0.4796 -0.2606 -0.1393
  455MOL0     C59961   8.994   3.638   7.507 -0.1913  0.5234 -0.0059
  455MOL0     C59962   8.884   3.555   7.502  0.1312  0.6914  0.7255
  455MOL0     O59963   8.766   3.584   7.443 -0.3393  0.0734  0.0500
  455MOL0     C59964   8.757   3.716   7.369  0.0473  0.3122  0.1963
  455MOL0     C59965   8.621   3.751   7.299 -0.0734  1.0777  1.0976
  455MOL0     C59966   8.497   3.729   7.386  0.0327  0.4903 -0.3569
  455MOL0     C59967   8.379   3.802   7.317  0.6696 -0.2148  0.2118
  455MOL0     C59968   8.238   3.752   7.363  0.4111 -0.1026  0.0070
  455MOL0     C59969   8.217   3.772   7.513 -0.1087  0.5503 -0.0872
  455MOL0     C59970   8.201   3.917   7.555 -0.0572  0.1526 -0.5690
  455MOL0     C59971   8.222   3.935   7.701 -0.7750 -0.8841 -0.1294
  455MOL0    Cl59972   8.112   3.836   7.801  0.2250 -0.2847 -0.2915
  455MOL0     C59973   8.896   3.424   7.553  1.3756  0.6128  1.0218
  455MOL0     C59974   9.010   3.382   7.606  0.0611  0.0342 -0.4569
  455MOL0     O59975   9.141   3.288   7.847  0.1292 -0.3299 -0.1831
  455MOL0     C59976   9.389   3.226   7.983  0.2392  0.5191  1.0255
  455MOL0     C59977   9.518   3.197   8.025  1.0623  0.0050  0.8979
  455MOL0     N59978  10.294   3.589   8.251  0.0441 -0.4845  0.2623
  455MOL0     N59979  10.361   3.676   8.314  0.2958 -0.8653  0.7091
  455MOL0     C59980  11.016   4.186   8.962 -0.5704 -0.2527 -0.4848
  455MOL0     C59981  11.133   4.247   9.016  0.3337 -0.4094  0.3803
  455MOL0     C59982  11.418   4.538   9.147 -0.3233 -0.5460  1.0894
  455MOL0     C59983  11.510   4.430   9.135  0.1996  0.7154 -0.0022
  455MOL0     C59984  11.643   4.446   9.161 -0.8854 -0.6989  0.2722
  455MOL0     C59985  11.694   4.578   9.197 -0.7350 -0.1177  1.0970
  455MOL0     O59986  11.829   4.606   9.210 -0.4979 -0.7298 -0.2444
  455MOL0     C59987  11.926   4.519   9.266  0.1177 -0.1222 -0.0466
  455MOL0     C59988  12.056   4.593   9.298 -0.0581 -0.7198  0.2362
  455MOL0     C59989  12.039   4.725   9.369 -0.7769 -0.1442 -0.4848
  455MOL0     C59990  12.177   4.794   9.391  0.0096  0.1692  0.7922
  455MOL0     C59991  12.217   4.856   9.264 -0.3689  0.3234 -0.6310
  455MOL0     C59992  12.247   4.897   9.149  0.4215 -0.2055 -0.1352
  455MOL0     C59993  11.608   4.682   9.188  0.2709 -0.2210  0.0970
  455MOL0     C59994  11.470   4.667   9.170 -0.2262  0.1858  0.5586
  455MOL0     H59995  11.004   4.481   9.215 -1.8623  0.6125 -0.3352
  455MOL0     H59996  10.783   4.386   9.118  0.1898  0.7935  2.8574
  455MOL0     H59997  10.700   4.351   8.840 -1.2902  0.2666 -1.4872
  455MOL0     H59998  10.608   4.325   8.988 -0.8871  0.0087 -0.6237
  455MOL0     H59999  10.605   4.131   8.752  0.8972  1.0459 -0.6292
  455MOL0     H60000  10.506   4.280   8.779 -1.7408 -0.0272  1.7060
  455MOL0     H60001  10.419   4.198   8.992 -0.9208 -1.1298  2.0631
  455MOL0     H60002  10.518   4.046   8.966 -1.7338 -0.0887  0.3177
  455MOL0     H60003  10.257   4.060   8.914 -0.7214 -1.8352 -0.9270
  455MOL0     H60004  10.313   4.144   8.770  1.4111  2.3817  1.3571
  455MOL0     H60005  10.272   3.882   8.750 -1.5099  3.3159  0.8361
  455MOL0     H60006  10.413   3.871   8.861  0.1381 -2.2808 -1.0711
  455MOL0     H60007  10.561   3.899   8.707  0.9116  0.7323 -0.5531
  455MOL0     H60008  10.460   4.027   8.632  1.2505  0.5992  2.4167
  455MOL0     H60009  10.514   3.826   8.480  1.8001 -3.7068  1.3735
  455MOL0     H60010  10.412   3.731   8.581 -0.6846  0.6545 -0.9098
  455MOL0     H60011  10.317   3.965   8.413  1.4582 -0.9544  0.1475
  455MOL0     H60012  10.215   3.871   8.535  1.1946 -0.8068  1.1287
  455MOL0     H60013  10.053   3.805   8.298 -0.7318  0.0436 -1.6103
  455MOL0     H60014  10.086   3.553   8.042  1.9367 -0.2040  0.1737
  455MOL0     H60015   9.973   3.602   8.168  0.5491  2.5737 -0.0182
  455MOL0     H60016  10.043   3.389   8.300  4.4829 -0.5271  0.7874
  455MOL0     H60017  10.173   3.365   8.192  0.7407  1.7279  0.4404
  455MOL0     H60018  10.022   3.336   8.003  0.7891 -0.6155  0.4866
  455MOL0     H60019  10.004   3.203   8.118 -4.1387 -1.0590 -0.9818
  455MOL0     H60020   9.808   3.437   8.076 -0.2490 -0.3424 -1.5521
  455MOL0     H60021   9.793   3.332   8.213 -2.4812  0.5258 -0.9122
  455MOL0     H60022   9.712   3.425   7.868 -0.4742  0.7807 -1.5178
  455MOL0     H60023   9.476   3.486   7.781  3.9740  1.9393  1.7098
  455MOL0     H60024   9.198   3.657   7.583  1.4396 -3.0622  2.3404
  455MOL0     H60025   8.997   3.737   7.463 -0.6859  0.2283 -0.7075
  455MOL0     H60026   8.831   3.698   7.291 -1.1899 -1.6979 -0.6135
  455MOL0     H60027   8.783   3.799   7.435  0.6615 -0.1788  0.5729
  455MOL0     H60028   8.625   3.698   7.203  1.7284  2.0141  0.5998
  455MOL0     H60029   8.626   3.854   7.262 -2.0819  0.1533 -2.1272
  455MOL0     H60030   8.523   3.768   7.485  1.2682 -0.9231 -0.0952
  455MOL0     H60031   8.474   3.623   7.394 -0.4048  0.6916  1.4584
  455MOL0     H60032   8.390   3.908   7.340  1.4341  0.0063 -1.0648
  455MOL0     H60033   8.387   3.800   7.208  1.5835 -1.9874  0.2724
  455MOL0     H60034   8.226   3.644   7.349  0.3893 -0.1759  0.5669
  455MOL0     H60035   8.155   3.802   7.313 -0.9384 -0.9122  1.3197
  455MOL0     H60036   8.290   3.722   7.577  1.5016  1.7810 -0.8991
  455MOL0     H60037   8.122   3.720   7.530  0.7211 -0.9939  0.0442
  455MOL0     H60038   8.270   3.981   7.498 -0.2396  0.0244 -0.9347
  455MOL0     H60039   8.098   3.944   7.532  0.5533  1.9045 -1.4813
  455MOL0     H60040   8.199   4.039   7.726  1.3694 -0.1304 -1.0616
  455MOL0     H60041   8.328   3.926   7.726 -1.0456 -1.0022  1.0609
  455MOL0     H60042   8.805   3.365   7.543 -0.0092  3.0068 -3.2249
  455MOL0     H60043   9.014   3.278   7.640 -0.3906  0.4244  0.8620
  455MOL0     H60044   9.311   3.157   8.012  1.8592 -1.6126  0.5762
  455MOL0     H60045   9.531   3.113   8.093  1.0260 -1.0633 -0.3706
  455MOL0     H60046  11.018   4.109   8.886  3.0294 -0.6906 -0.1194
  455MOL0     H60047  11.236   4.220   8.994 -0.0804 -3.6973  1.9663
  455MOL0     H60048  11.471   4.334   9.104  0.5919  0.6733 -0.3865
  455MOL0     H60049  11.714   4.365   9.147 -1.6879 -0.9685 -2.7698
  455MOL0     H60050  11.941   4.434   9.199  0.1137 -0.7654  0.7605
  455MOL0     H60051  11.897   4.473   9.360  1.9372 -0.2516  0.4800
  455MOL0     H60052  12.122   4.531   9.360  0.5633  1.0469  1.4155
  455MOL0     H60053  12.105   4.613   9.203  0.0656  0.6394  0.5734
  455MOL0     H60054  11.995   4.705   9.467 -0.5542  2.7901  0.3083
  455MOL0     H60055  11.973   4.802   9.328 -1.2077 -0.0207  0.4018
  455MOL0     H60056  12.180   4.858   9.480  0.6391  0.7227  0.3799
  455MOL0     H60057  12.255   4.718   9.400  0.5814  0.3391 -1.8882
  455MOL0     H60058  12.261   4.927   9.047  0.6822  1.4403  0.3645
  455MOL0     H60059  11.632   4.788   9.197  0.0750 -0.0523 -1.2017
  455MOL0     H60060  11.408   4.757   9.167 -0.8281 -0.1832 -2.9024
  456MOL0     O60061   4.795   7.578   1.549  0.2368  0.9265 -0.0399
  456MOL0     C60062   4.810   7.460   1.593  0.0743 -0.0498  0.7868
  456MOL0     O60063   4.712   7.363   1.610 -0.1430  0.5136  0.1880
  456MOL0     C60064   4.578   7.377   1.566  0.1189 -0.5382 -0.4045
  456MOL0     C60065   4.514   7.489   1.515 -0.5646  0.2571  0.2509
  456MOL0     C60066   4.381   7.482   1.468  0.1521  0.7786 -0.3686
  456MOL0     C60067   4.319   7.365   1.468  0.0535 -0.2836 -0.4276
  456MOL0     O60068   4.187   7.347   1.422  0.4233  0.6845  0.5277
  456MOL0     C60069   4.123   7.454   1.343  0.3082  0.4630  0.2162
  456MOL0     C60070   3.975   7.405   1.309 -0.7198 -0.5935 -0.0086
  456MOL0     C60071   3.931   7.452   1.175  1.8629  0.4184  0.8271
  456MOL0     C60072   3.778   7.430   1.173  0.5255 -1.4368 -0.1627
  456MOL0     C60073   3.700   7.536   1.245  0.3972 -0.4955  0.2003
  456MOL0     C60074   3.727   7.682   1.196 -0.0173 -0.1497 -0.2820
  456MOL0     C60075   3.720   7.701   1.046  0.0219 -0.6310  0.8462
  456MOL0     C60076   3.587   7.764   1.003 -0.1457 -0.1523 -0.8464
  456MOL0     N60077   3.471   7.679   1.021 -0.6165 -0.1822  1.1209
  456MOL0     C60078   3.363   7.717   1.091 -0.0729 -0.6186 -0.6851
  456MOL0     C60079   3.258   7.646   1.044  0.2611 -0.2683  0.3622
  456MOL0     C60080   3.123   7.652   1.102  0.9614 -0.5252 -0.6370
  456MOL0     C60081   3.016   7.611   0.995  0.4668  0.9630 -0.0634
  456MOL0     C60082   2.869   7.622   1.046 -0.7050 -0.6609 -0.3891
  456MOL0     C60083   2.789   7.543   0.950 -0.0871 -0.0691 -0.0899
  456MOL0     O60084   2.650   7.537   1.001 -0.4743 -0.2563  0.3356
  456MOL0     C60085   2.555   7.473   0.924  0.0381  0.0668  0.7034
  456MOL0     C60086   2.426   7.497   0.969 -0.0677 -0.3538 -0.0373
  456MOL0     C60087   2.310   7.443   0.894 -0.4020 -0.0270  0.1959
  456MOL0     C60088   2.336   7.356   0.785  0.7467 -0.6900 -0.2136
  456MOL0     C60089   2.219   7.296   0.714 -0.0437  0.5549  0.1201
  456MOL0     O60090   2.090   7.339   0.744  0.0838  0.5168  0.1536
  456MOL0     C60091   1.987   7.274   0.678  0.4466  1.1717 -0.4461
  456MOL0     C60092   1.886   7.216   0.754  0.1487 -0.0637  0.3066
  456MOL0     C60093   1.779   7.159   0.682  0.4436  0.4273 -0.5623
  456MOL0     C60094   1.767   7.155   0.545 -0.4817 -0.1460  0.2595
  456MOL0     O60095   1.654   7.107   0.494  0.0796  0.2017  0.3933
  456MOL0     C60096   1.632   6.968   0.513  0.8088  0.0345 -0.6808
  456MOL0     C60097   1.499   6.914   0.457 -0.7335  0.0391  0.1454
  456MOL0     C60098   1.502   6.763   0.475 -0.0272  0.4497 -0.4720
  456MOL0     C60099   1.371   6.698   0.441 -0.7048 -0.8395  0.4023
  456MOL0     C60100   1.373   6.548   0.472  0.0520 -0.0637  0.2880
  456MOL0     C60101   1.236   6.485   0.445  0.1951  0.3842  0.2489
  456MOL0     C60102   1.230   6.337   0.461  0.1647  0.9603 -0.6548
  456MOL0     C60103   1.298   6.254   0.344 -0.1301 -0.1938  0.2680
  456MOL0    Cl60104   1.235   6.093   0.335  0.0507  0.5525 -0.3582
  456MOL0     C60105   1.870   7.216   0.474 -0.0823  0.7137  0.1193
  456MOL0     C60106   1.985   7.269   0.538  0.0510 -0.3349  0.1334
  456MOL0     O60107   2.241   7.198   0.638  0.3938 -0.5913  0.4645
  456MOL0     C60108   2.468   7.331   0.744 -0.8876  0.2543 -0.0449
  456MOL0     C60109   2.577   7.395   0.807  0.4867 -0.5231 -0.0813
  456MOL0     N60110   3.297   7.585   0.923 -0.4316  0.1853 -0.2388
  456MOL0     N60111   3.425   7.589   0.924 -0.1085  0.1229 -0.6756
  456MOL0     C60112   4.378   7.255   1.522 -0.8361 -0.1644 -0.1730
  456MOL0     C60113   4.508   7.259   1.568 -0.2734 -0.2297  0.0189
  456MOL0     C60114   4.946   7.429   1.638 -0.2916 -0.1612 -0.0258
  456MOL0     C60115   4.970   7.314   1.719 -0.6604  0.6635  0.0086
  456MOL0     C60116   5.095   7.279   1.765 -1.1753 -0.6560 -0.0184
  456MOL0     C60117   5.205   7.361   1.739 -0.5857  0.1582  0.9456
  456MOL0     O60118   5.324   7.323   1.792 -0.4502  0.4422 -0.5036
  456MOL0     C60119   5.446   7.397   1.776 -0.2688  0.0844  0.1039
  456MOL0     C60120   5.450   7.517   1.877  1.1181 -0.5759 -0.9512
  456MOL0     C60121   5.588   7.591   1.862  0.1066  0.8614  0.0238
  456MOL0     C60122   5.613   7.688   1.748 -0.6137 -0.1803  0.0613
  456MOL0     C60123   5.544   7.813   1.784  0.2860 -0.1117  0.2314
  456MOL0     C60124   5.481   7.905   1.828 -0.0023  0.5752 -0.2455
  456MOL0     C60125   5.189   7.470   1.652 -0.2091  0.8311 -0.9500
  456MOL0     C60126   5.061   7.509   1.599  0.1803 -0.0778 -1.0939
  456MOL0     H60127   4.556   7.589   1.515 -0.2638  0.1322  0.2959
  456MOL0     H60128   4.330   7.569   1.429 -0.6078  0.3127 -0.4413
  456MOL0     H60129   4.177   7.457   1.248 -1.1262  2.7430 -0.6184
  456MOL0     H60130   4.133   7.552   1.391  0.1548  0.0212  1.1659
  456MOL0     H60131   3.915   7.462   1.380  1.4386 -0.8954  2.1872
  456MOL0     H60132   3.978   7.299   1.333 -0.5556  0.0893  3.3645
  456MOL0     H60133   3.975   7.392   1.095 -0.7576  0.8802 -1.1058
  456MOL0     H60134   3.955   7.558   1.164 -0.2445  0.8770  0.1460
  456MOL0     H60135   3.743   7.419   1.070  0.1450 -2.3367  0.0494
  456MOL0     H60136   3.744   7.338   1.222  2.0807 -2.4249 -0.8544
  456MOL0     H60137   3.707   7.536   1.354 -0.2239  1.0145  0.2750
  456MOL0     H60138   3.592   7.522   1.232  0.3595 -1.0000  0.9914
  456MOL0     H60139   3.819   7.722   1.241 -0.6182 -0.4476  1.2890
  456MOL0     H60140   3.643   7.733   1.244 -0.5104 -1.5774  0.4641
  456MOL0     H60141   3.789   7.781   1.016 -1.5380  0.5705  0.3320
  456MOL0     H60142   3.735   7.614   0.981 -0.9066  1.0329 -1.7519
  456MOL0     H60143   3.601   7.787   0.897  2.5610  0.2154 -0.4913
  456MOL0     H60144   3.574   7.853   1.064  0.9781 -1.5928  1.6851
  456MOL0     H60145   3.361   7.772   1.185 -4.5807 -0.3611 -0.6972
  456MOL0     H60146   3.101   7.751   1.143  1.5076 -1.5924  2.5255
  456MOL0     H60147   3.120   7.584   1.188 -1.9750 -3.7342 -3.0025
  456MOL0     H60148   3.043   7.514   0.952  0.9621  0.8880  0.4129
  456MOL0     H60149   3.020   7.681   0.910  2.0510  0.4069 -0.4827
  456MOL0     H60150   2.855   7.581   1.147 -1.2167 -1.1455 -0.6561
  456MOL0     H60151   2.850   7.729   1.058 -1.3903 -0.4313 -3.0756
  456MOL0     H60152   2.832   7.447   0.922  2.4600  1.1593 -0.6273
  456MOL0     H60153   2.783   7.616   0.869 -1.7846  2.7799  2.3739
  456MOL0     H60154   2.399   7.556   1.056  0.1408 -0.1346 -0.1198
  456MOL0     H60155   2.211   7.471   0.928  0.4451 -0.3107  3.2362
  456MOL0     H60156   1.890   7.241   0.859 -0.9000  0.5033  0.2264
  456MOL0     H60157   1.697   7.113   0.737  0.1271  2.9359  1.1844
  456MOL0     H60158   1.637   6.953   0.621 -0.6942  0.0215 -0.5921
  456MOL0     H60159   1.709   6.915   0.456 -0.2967 -0.2656 -1.9829
  456MOL0     H60160   1.476   6.949   0.356 -2.0966 -1.4470 -0.0910
  456MOL0     H60161   1.417   6.956   0.516 -2.8103 -1.6175 -1.4272
  456MOL0     H60162   1.526   6.749   0.581 -0.4703  1.8893 -0.1656
  456MOL0     H60163   1.581   6.725   0.409 -0.1507 -0.2033 -0.2506
  456MOL0     H60164   1.304   6.748   0.512 -0.0487  0.4988  0.1132
  456MOL0     H60165   1.340   6.712   0.337 -0.7262 -3.3748 -0.0036
  456MOL0     H60166   1.397   6.536   0.578 -1.5132 -1.5079  0.5192
  456MOL0     H60167   1.454   6.504   0.412  0.7551  0.7340  0.6321
  456MOL0     H60168   1.210   6.497   0.340 -1.3140  0.3168  0.5952
  456MOL0     H60169   1.159   6.533   0.505  0.5204  0.1758  0.8468
  456MOL0     H60170   1.263   6.303   0.559  0.1996 -0.0686 -1.0115
  456MOL0     H60171   1.123   6.316   0.453 -0.4410  2.2700  2.6636
  456MOL0     H60172   1.406   6.257   0.363 -0.1606 -0.9275  0.5822
  456MOL0     H60173   1.273   6.303   0.250 -2.5081 -3.5488 -1.0237
  456MOL0     H60174   1.853   7.201   0.368 -2.2518  0.3149  0.4796
  456MOL0     H60175   2.070   7.301   0.479  0.5114 -2.7145 -0.6049
  456MOL0     H60176   2.479   7.276   0.651 -2.4858 -2.1764  1.1042
  456MOL0     H60177   2.676   7.383   0.765  0.4823  0.9015 -0.5384
  456MOL0     H60178   4.317   7.165   1.520  0.7024 -1.2793  0.8658
  456MOL0     H60179   4.553   7.167   1.604  0.3390 -0.9160 -2.3300
  456MOL0     H60180   4.886   7.269   1.770 -0.1728  0.3023  0.5114
  456MOL0     H60181   5.094   7.192   1.830  2.9041  0.4203  1.7817
  456MOL0     H60182   5.459   7.434   1.675  1.1300 -0.6791 -0.0106
  456MOL0     H60183   5.516   7.317   1.801 -1.3439 -1.5606 -1.8505
  456MOL0     H60184   5.364   7.582   1.856 -3.4969 -4.5072  3.3213
  456MOL0     H60185   5.440   7.472   1.976  0.7737  0.9211 -0.2798
  456MOL0     H60186   5.667   7.516   1.861  1.1531  1.8734  1.3383
  456MOL0     H60187   5.590   7.652   1.953  3.3693  0.5686  0.2657
  456MOL0     H60188   5.719   7.702   1.725  0.2061 -3.4377  1.3100
  456MOL0     H60189   5.575   7.653   1.652  2.0749  2.2260 -2.0401
  456MOL0     H60190   5.425   7.993   1.852 -0.4213  0.7035 -1.6146
  456MOL0     H60191   5.276   7.532   1.630  0.1874  1.2625  1.5356
  456MOL0     H60192   5.037   7.604   1.552  1.7404  1.8632  1.6798
  457MOL0     O60193   8.021   3.448   9.277  0.0129  0.4695 -0.1180
  457MOL0     C60194   7.944   3.355   9.298 -0.6063  0.1495  1.0660
  457MOL0     O60195   7.971   3.234   9.354 -0.5636  0.2676 -0.2663
  457MOL0     C60196   8.088   3.193   9.411 -0.2742 -0.3177  0.1067
  457MOL0     C60197   8.092   3.075   9.487  0.0363 -0.5866 -0.3115
  457MOL0     C60198   8.211   3.028   9.550  0.3168  0.2145  0.1721
  457MOL0     C60199   8.330   3.106   9.544  0.3088 -0.3057  0.0083
  457MOL0     O60200   8.449   3.088   9.603 -0.2504  0.1258 -0.6316
  457MOL0     C60201   8.447   3.014   9.725  0.9918  0.7148 -0.1567
  457MOL0     C60202   8.591   3.014   9.787  0.1012 -0.1872 -0.7333
  457MOL0     C60203   8.684   2.928   9.701  0.0335  0.3807 -0.6857
  457MOL0     C60204   8.810   2.900   9.779 -0.2823  0.5927 -0.8789
  457MOL0     C60205   8.906   2.821   9.691  0.3732  0.2637 -0.1970
  457MOL0     C60206   9.026   2.781   9.772 -0.5153 -0.4064 -0.5195
  457MOL0     C60207   9.147   2.731   9.688  0.2862  0.5217 -0.0170
  457MOL0     C60208   9.273   2.698   9.775 -0.1954 -0.9615  0.3189
  457MOL0     N60209   9.394   2.700   9.691 -0.1103  0.4053 -0.5455
  457MOL0     C60210   9.469   2.806   9.654 -0.4536  0.3470 -0.7474
  457MOL0     C60211   9.552   2.753   9.557  0.4950  0.4238 -0.2202
  457MOL0     C60212   9.634   2.831   9.459 -0.2850 -0.4883  0.0717
  457MOL0     C60213   9.786   2.777   9.473 -0.8690  0.0448  0.1208
  457MOL0     C60214   9.888   2.860   9.397 -1.0633  0.5858 -0.0471
  457MOL0     C60215   9.884   2.854   9.250  0.5962 -0.4037  0.9648
  457MOL0     O60216   9.771   2.934   9.215  0.0581  0.7445 -0.3294
  457MOL0     C60217   9.757   2.977   9.083 -0.4417  0.0428  0.5271
  457MOL0     C60218   9.658   3.066   9.055 -0.9180 -0.0511  0.7609
  457MOL0     C60219   9.636   3.120   8.928 -0.1655  0.1734  0.0251
  457MOL0     C60220   9.709   3.079   8.816 -0.6278 -0.4499  0.4658
  457MOL0     C60221   9.687   3.135   8.683 -0.0953  1.4366  0.2593
  457MOL0     O60222   9.563   3.197   8.665  0.3287 -0.2819 -0.1973
  457MOL0     C60223   9.540   3.284   8.567 -0.3039 -0.2055  0.1143
  457MOL0     C60224   9.608   3.310   8.447 -0.3827  0.4795  0.1521
  457MOL0     C60225   9.547   3.396   8.353 -0.2408  0.6018 -0.1143
  457MOL0     C60226   9.432   3.465   8.377  0.1828 -0.4344  0.5323
  457MOL0     O60227   9.371   3.555   8.296  0.3970 -0.0613  0.6560
  457MOL0     C60228   9.411   3.565   8.157  0.3519  0.1780 -0.0862
  457MOL0     C60229   9.316   3.661   8.080 -0.0780 -0.0576 -0.1405
  457MOL0     C60230   9.176   3.590   8.077 -1.6068 -0.2973 -0.8897
  457MOL0     C60231   9.080   3.643   7.974  0.3569 -0.3368 -0.1816
  457MOL0     C60232   8.954   3.556   7.963 -0.2122  0.4146 -0.1772
  457MOL0     C60233   8.857   3.643   7.891 -0.5217 -0.5387  0.8833
  457MOL0     C60234   8.735   3.570   7.846 -0.3238  0.1447 -0.6796
  457MOL0     C60235   8.660   3.652   7.737 -0.7246  0.6365  0.0036
  457MOL0    Cl60236   8.539   3.748   7.823  0.0795 -0.1334  0.2943
  457MOL0     C60237   9.374   3.446   8.493  0.4373  0.2769 -0.2249
  457MOL0     C60238   9.427   3.359   8.587  0.1703 -0.0129  0.0038
  457MOL0     O60239   9.764   3.095   8.594  0.2828 -0.1946  0.3319
  457MOL0     C60240   9.819   2.992   8.850  0.8131 -0.0506 -0.4242
  457MOL0     C60241   9.838   2.935   8.976 -1.4505 -0.2540 -0.4633
  457MOL0     N60242   9.524   2.609   9.549 -0.2133  0.4992 -0.5669
  457MOL0     N60243   9.434   2.587   9.634  0.2405  0.3255  0.0390
  457MOL0     C60244   8.328   3.216   9.462 -0.2046  0.8453  0.5564
  457MOL0     C60245   8.210   3.250   9.388  0.1143 -0.6467  0.6357
  457MOL0     C60246   7.812   3.376   9.238 -0.8563  0.6750  0.6488
  457MOL0     C60247   7.702   3.299   9.283 -0.9709 -0.0904  0.1187
  457MOL0     C60248   7.575   3.306   9.218 -0.2071 -0.4837 -0.2748
  457MOL0     C60249   7.553   3.402   9.116 -0.6872  1.2642  0.9577
  457MOL0     O60250   7.429   3.405   9.068  0.3985 -0.1012  0.2520
  457MOL0     C60251   7.387   3.499   8.973 -0.5468 -0.6712 -0.7489
  457MOL0     C60252   7.262   3.458   8.885 -0.4461 -0.1343 -1.1278
  457MOL0     C60253   7.271   3.311   8.844 -0.2591  0.1932 -0.4206
  457MOL0     C60254   7.148   3.277   8.761  0.2475  0.1511  0.7869
  457MOL0     C60255   7.147   3.330   8.622  0.3391 -0.1369  0.2925
  457MOL0     C60256   7.135   3.385   8.511 -0.8137  0.7495 -0.0849
  457MOL0     C60257   7.657   3.480   9.081 -0.6693 -0.0541 -0.6953
  457MOL0     C60258   7.789   3.460   9.124 -0.6560  0.3827  0.5495
  457MOL0     H60259   7.992   3.034   9.495 -2.0327  3.2828 -3.0804
  457MOL0     H60260   8.208   2.937   9.609  0.1152  0.0087 -0.1508
  457MOL0     H60261   8.421   2.910   9.703  0.5157  1.0578 -1.2486
  457MOL0     H60262   8.379   3.058   9.798  0.7063  2.5928 -1.4880
  457MOL0     H60263   8.577   2.983   9.891  0.4213  0.5495 -0.4654
  457MOL0     H60264   8.627   3.118   9.785  0.5849 -0.3535 -1.0528
  457MOL0     H60265   8.711   2.978   9.608  1.7745 -0.1220 -0.4989
  457MOL0     H60266   8.625   2.841   9.672  1.3937 -0.5737 -0.6670
  457MOL0     H60267   8.865   2.988   9.814  0.8918 -0.9372  1.3375
  457MOL0     H60268   8.787   2.849   9.873 -2.4511  2.7006 -0.1499
  457MOL0     H60269   8.945   2.894   9.619 -1.3356  1.1936 -0.2415
  457MOL0     H60270   8.880   2.729   9.638  0.6542 -1.0969  1.9183
  457MOL0     H60271   8.981   2.717   9.848 -2.3252  0.3939 -0.8780
  457MOL0     H60272   9.070   2.860   9.834  0.3268 -3.3564  2.9763
  457MOL0     H60273   9.130   2.646   9.621  0.8946 -0.0875  0.5841
  457MOL0     H60274   9.173   2.810   9.618  0.7508 -0.2795 -0.7641
  457MOL0     H60275   9.259   2.605   9.831  0.4008 -1.2203  0.0488
  457MOL0     H60276   9.282   2.787   9.838 -0.2651  1.0157 -2.2899
  457MOL0     H60277   9.465   2.910   9.686 -0.8301  0.0413  0.2310
  457MOL0     H60278   9.620   2.937   9.482  0.7344 -1.0443  3.8636
  457MOL0     H60279   9.608   2.813   9.354  2.6538 -2.3328 -0.4389
  457MOL0     H60280   9.791   2.669   9.456  1.8979 -0.1170  1.4066
  457MOL0     H60281   9.803   2.780   9.581 -0.7991 -1.0704  0.1525
  457MOL0     H60282   9.891   2.967   9.421  3.2202  0.4226  0.9515
  457MOL0     H60283   9.986   2.825   9.430 -1.4545  0.0074  0.5159
  457MOL0     H60284   9.864   2.753   9.213 -2.4694 -0.0772  1.4967
  457MOL0     H60285   9.981   2.892   9.215  0.0694  1.1628  1.1193
  457MOL0     H60286   9.591   3.096   9.135 -1.6139 -1.3868  0.7037
  457MOL0     H60287   9.561   3.197   8.915  0.2077  0.8586  1.6357
  457MOL0     H60288   9.705   3.267   8.426  0.6455  2.6561  0.1923
  457MOL0     H60289   9.610   3.432   8.273  3.4460 -0.2706  2.1356
  457MOL0     H60290   9.412   3.468   8.108 -3.7185  1.5674 -3.5754
  457MOL0     H60291   9.514   3.602   8.156  0.5174 -0.2230  0.8715
  457MOL0     H60292   9.361   3.666   7.980  0.1763  2.0422  0.0484
  457MOL0     H60293   9.303   3.760   8.125  1.2450 -0.1735  0.5413
  457MOL0     H60294   9.130   3.598   8.176 -0.4074 -0.1353 -0.3278
  457MOL0     H60295   9.177   3.482   8.059 -1.1192 -0.5233  0.3934
  457MOL0     H60296   9.055   3.748   7.996  0.3142 -0.0284 -1.6471
  457MOL0     H60297   9.128   3.653   7.877  2.0972  1.0165  0.7676
  457MOL0     H60298   8.915   3.517   8.058  0.8052 -1.3518 -0.4491
  457MOL0     H60299   8.980   3.465   7.909  0.6234  0.0373  0.8149
  457MOL0     H60300   8.902   3.682   7.800 -0.6243 -0.1495  0.9971
  457MOL0     H60301   8.823   3.727   7.952  3.1930  2.0963 -0.3230
  457MOL0     H60302   8.766   3.480   7.792 -0.2556  0.5479 -1.3310
  457MOL0     H60303   8.655   3.548   7.917 -1.3331 -0.5006 -1.9718
  457MOL0     H60304   8.621   3.576   7.667  2.3415 -2.0166  0.9211
  457MOL0     H60305   8.726   3.717   7.679 -0.6024  0.5231  0.0140
  457MOL0     H60306   9.281   3.501   8.509 -0.7196 -1.6994  0.2321
  457MOL0     H60307   9.374   3.321   8.674  0.2039 -1.2026 -0.4768
  457MOL0     H60308   9.884   2.968   8.766  0.2244  0.1949 -0.9642
  457MOL0     H60309   9.921   2.868   8.998 -0.5764  0.7127 -0.7102
  457MOL0     H60310   8.421   3.272   9.452  0.9675 -0.5258  2.7779
  457MOL0     H60311   8.232   3.328   9.315 -0.0271 -0.5007  0.7477
  457MOL0     H60312   7.705   3.238   9.373 -2.1766  2.1533  1.7851
  457MOL0     H60313   7.487   3.250   9.250 -0.7587 -0.0519 -1.0071
  457MOL0     H60314   7.466   3.506   8.897 -0.8212 -0.2457 -1.0036
  457MOL0     H60315   7.375   3.605   8.999  1.2393 -0.7798  0.6649
  457MOL0     H60316   7.174   3.479   8.947  0.5732 -0.5500  0.5198
  457MOL0     H60317   7.259   3.518   8.794  1.5979  1.8380  0.0096
  457MOL0     H60318   7.270   3.249   8.934 -3.8288  1.1888  0.4007
  457MOL0     H60319   7.356   3.292   8.778 -0.6755  1.6835 -1.4475
  457MOL0     H60320   7.135   3.169   8.758 -1.6047  0.3569 -0.2886
  457MOL0     H60321   7.064   3.313   8.820 -0.6253 -0.4802 -0.0338
  457MOL0     H60322   7.148   3.403   8.406 -0.9698  0.0383 -0.2317
  457MOL0     H60323   7.642   3.574   9.029  0.2509 -0.0819 -1.0342
  457MOL0     H60324   7.877   3.521   9.110  1.8660 -2.9382  0.7892
  458MOL0     O60325   2.054   2.621   1.493 -0.5442  0.3258  0.3647
  458MOL0     C60326   2.091   2.653   1.381  0.1105  0.2917  0.4551
  458MOL0     O60327   2.005   2.692   1.278 -1.0692  0.5711  0.1807
  458MOL0     C60328   1.869   2.696   1.309  0.6942  0.1608 -0.4604
  458MOL0     C60329   1.803   2.821   1.303 -0.0697 -0.1417 -0.3807
  458MOL0     C60330   1.663   2.817   1.314 -0.6004 -0.3819 -1.0332
  458MOL0     C60331   1.591   2.699   1.327  0.8569 -0.1756  1.1978
  458MOL0     O60332   1.460   2.718   1.343  0.0528  0.3191  0.4166
  458MOL0     C60333   1.365   2.614   1.305 -0.8440  0.9802  0.4226
  458MOL0     C60334   1.233   2.678   1.273 -0.8692 -0.1650  0.4698
  458MOL0     C60335   1.121   2.580   1.268 -0.2225  0.3661 -0.5528
  458MOL0     C60336   0.991   2.647   1.244  0.4906  0.6327 -0.0902
  458MOL0     C60337   0.869   2.557   1.280  0.1168 -0.8475 -0.3615
  458MOL0     C60338   0.738   2.643   1.260  0.5314 -0.1662  0.5240
  458MOL0     C60339   0.597   2.571   1.255 -0.4157  0.6210  0.5643
  458MOL0     C60340   0.547   2.514   1.387  0.2655  0.5608  0.7525
  458MOL0     N60341   0.403   2.485   1.375 -0.8427 -0.5858 -0.9070
  458MOL0     C60342   0.334   2.438   1.261  1.1559  0.0687 -0.3825
  458MOL0     C60343   0.203   2.453   1.297  0.3387  0.8185  0.4030
  458MOL0     C60344   0.080   2.427   1.209  0.4531 -0.1167  0.0961
  458MOL0     C60345   0.047   2.282   1.216  0.7665  0.7252 -0.6803
  458MOL0     C60346  -0.025   2.238   1.350  0.5094 -0.4240  0.3764
  458MOL0     C60347  -0.183   2.252   1.339  0.3147  0.9165  0.2545
  458MOL0     O60348  -0.245   2.141   1.263  0.0545 -1.1127 -0.1893
  458MOL0     C60349  -0.356   2.085   1.322  0.5007 -0.5780 -0.3364
  458MOL0     C60350  -0.483   2.143   1.300  0.9039 -0.3014 -0.1283
  458MOL0     C60351  -0.605   2.089   1.359 -0.0121  0.5711 -0.1066
  458MOL0     C60352  -0.593   1.985   1.449  0.4636 -0.6902 -0.0504
  458MOL0     C60353  -0.715   1.925   1.515 -0.3770 -0.5198 -0.0068
  458MOL0     O60354  -0.815   2.018   1.550 -0.9172  0.8423 -0.2980
  458MOL0     C60355  -0.936   1.966   1.601 -0.6321 -0.4756 -0.0091
  458MOL0     C60356  -0.948   1.860   1.696  0.7348 -1.7186 -0.0670
  458MOL0     C60357  -1.072   1.825   1.742 -0.0049 -0.4348 -0.3414
  458MOL0     C60358  -1.184   1.899   1.703 -0.7439  0.2917  0.3487
  458MOL0     O60359  -1.303   1.869   1.760 -0.1141  0.2077  0.4138
  458MOL0     C60360  -1.421   1.955   1.741  0.4146 -0.7290  0.0794
  458MOL0     C60361  -1.542   1.925   1.835 -0.2810 -0.2305  0.1955
  458MOL0     C60362  -1.595   1.784   1.821  0.5035 -0.6731  0.5747
  458MOL0     C60363  -1.676   1.733   1.941 -0.5855  0.6057 -0.2268
  458MOL0     C60364  -1.776   1.617   1.923 -0.3363 -0.6155 -0.4573
  458MOL0     C60365  -1.702   1.496   1.867  1.0088  0.7923  0.3265
  458MOL0     C60366  -1.792   1.371   1.893  0.0418 -0.3213 -0.4678
  458MOL0     C60367  -1.780   1.320   2.041 -0.8831 -0.4308  0.4326
  458MOL0    Cl60368  -1.922   1.229   2.084  0.0159  0.4540  0.4170
  458MOL0     C60369  -1.176   1.992   1.595  0.0500  0.3208 -0.3667
  458MOL0     C60370  -1.049   2.028   1.547 -0.0105  0.1776 -0.5372
  458MOL0     O60371  -0.725   1.804   1.513 -0.0720 -0.3941  0.3780
  458MOL0     C60372  -0.463   1.931   1.478 -0.2576  0.4489  0.9624
  458MOL0     C60373  -0.350   1.979   1.405  0.9518  0.8827  0.0119
  458MOL0     N60374   0.192   2.503   1.425 -0.4859 -0.3145 -0.5912
  458MOL0     N60375   0.314   2.516   1.479  0.2032  0.4168  0.3656
  458MOL0     C60376   1.657   2.580   1.331  0.5771  0.3113  0.2277
  458MOL0     C60377   1.802   2.576   1.320  0.0889  0.0476  0.3311
  458MOL0     C60378   2.240   2.652   1.355 -0.1973 -0.2287  0.0457
  458MOL0     C60379   2.297   2.705   1.240 -0.4935 -0.7051 -0.0522
  458MOL0     C60380   2.440   2.696   1.217 -0.3954  0.3080 -0.2528
  458MOL0     C60381   2.529   2.640   1.315 -0.4488 -0.2902  0.7446
  458MOL0     O60382   2.665   2.638   1.284 -0.3792 -0.7890 -0.5756
  458MOL0     C60383   2.757   2.546   1.351  0.7584  0.3336  0.0203
  458MOL0     C60384   2.736   2.409   1.289 -0.3098 -0.0149  0.6898
  458MOL0     C60385   2.866   2.321   1.300  0.6633 -0.5807  0.3466
  458MOL0     C60386   2.866   2.201   1.215 -0.4242  0.5447  0.0233
  458MOL0     C60387   2.855   2.222   1.071  0.6419  0.6125  0.1026
  458MOL0     C60388   2.855   2.228   0.947 -0.0060 -0.5165  0.2551
  458MOL0     C60389   2.467   2.592   1.429 -0.1848 -0.2710 -0.2048
  458MOL0     C60390   2.331   2.596   1.452  1.2233 -0.4978 -0.3483
  458MOL0     H60391   1.853   2.914   1.275  0.2615  0.4387  1.8584
  458MOL0     H60392   1.615   2.914   1.307 -1.2693 -0.6774 -0.6584
  458MOL0     H60393   1.359   2.544   1.388 -2.0978  1.0275  0.3997
  458MOL0     H60394   1.398   2.550   1.222 -0.2376 -0.1303  1.4962
  458MOL0     H60395   1.241   2.733   1.179 -0.0808 -2.9723 -1.2394
  458MOL0     H60396   1.218   2.747   1.357  0.7822  0.9408 -0.0967
  458MOL0     H60397   1.114   2.517   1.358 -1.4217  0.9811 -0.1979
  458MOL0     H60398   1.146   2.504   1.194 -0.2249 -1.8074  1.5248
  458MOL0     H60399   0.997   2.737   1.307 -3.0062  1.5820 -0.8681
  458MOL0     H60400   0.979   2.691   1.145 -0.8856  1.4247  0.3984
  458MOL0     H60401   0.864   2.524   1.384 -2.5146  0.3591 -0.0203
  458MOL0     H60402   0.874   2.460   1.229  0.3172 -2.0633  1.8681
  458MOL0     H60403   0.734   2.685   1.159 -0.0776  1.5397  1.2385
  458MOL0     H60404   0.737   2.727   1.329 -0.0586  0.3876 -0.1455
  458MOL0     H60405   0.526   2.637   1.204 -0.6954  0.7767  1.1452
  458MOL0     H60406   0.605   2.487   1.185 -1.0238  1.6256 -0.7657
  458MOL0     H60407   0.565   2.584   1.469  0.1834 -0.1936  1.4355
  458MOL0     H60408   0.611   2.428   1.411  3.2312  2.5964  0.7579
  458MOL0     H60409   0.374   2.403   1.166  1.1179 -1.5668  0.1662
  458MOL0     H60410   0.099   2.452   1.104 -0.7064  1.0198  0.1302
  458MOL0     H60411   0.005   2.501   1.238  1.0458  0.3417  0.4812
  458MOL0     H60412   0.143   2.231   1.206  1.0131  0.7114  1.3407
  458MOL0     H60413  -0.020   2.260   1.132  0.3259  1.8072 -0.6222
  458MOL0     H60414  -0.002   2.134   1.375  1.3507 -0.6268 -1.1164
  458MOL0     H60415   0.012   2.293   1.437  2.1384 -1.8392  0.6299
  458MOL0     H60416  -0.226   2.337   1.287 -1.0608 -0.1371 -0.3956
  458MOL0     H60417  -0.222   2.252   1.441 -1.8873 -2.4767 -0.4074
  458MOL0     H60418  -0.497   2.229   1.235 -0.7425 -1.6447 -1.6374
  458MOL0     H60419  -0.703   2.131   1.341 -0.6400 -1.0907 -0.7324
  458MOL0     H60420  -0.859   1.812   1.735  1.7367 -1.2297 -1.6467
  458MOL0     H60421  -1.083   1.753   1.823  1.0306  1.1480  1.2776
  458MOL0     H60422  -1.437   1.943   1.634  2.4445 -0.4736 -0.2799
  458MOL0     H60423  -1.389   2.055   1.771 -0.4407 -1.3041  3.2674
  458MOL0     H60424  -1.622   1.998   1.826 -0.2804 -0.2883 -0.3727
  458MOL0     H60425  -1.502   1.932   1.936  1.7257  0.4928 -0.5921
  458MOL0     H60426  -1.520   1.709   1.794 -0.5654 -2.5790  2.5759
  458MOL0     H60427  -1.668   1.791   1.740 -0.9154 -2.0717  1.6746
  458MOL0     H60428  -1.602   1.688   2.009 -0.7530  1.9266  0.8633
  458MOL0     H60429  -1.720   1.815   1.998  0.2424  0.9487 -0.0669
  458MOL0     H60430  -1.851   1.667   1.860  0.9909 -0.0984 -1.6661
  458MOL0     H60431  -1.835   1.609   2.015 -0.6747 -1.1050 -0.7093
  458MOL0     H60432  -1.606   1.494   1.920  1.4673  1.2760 -0.4660
  458MOL0     H60433  -1.680   1.499   1.760  0.3940 -1.3049  0.1078
  458MOL0     H60434  -1.892   1.405   1.864  0.3287 -1.2125 -2.7526
  458MOL0     H60435  -1.763   1.281   1.838 -2.1938 -0.1246 -2.0905
  458MOL0     H60436  -1.767   1.405   2.107  2.1996 -0.5278  0.0992
  458MOL0     H60437  -1.689   1.260   2.053 -1.8759 -1.4824  3.9721
  458MOL0     H60438  -1.271   2.034   1.565 -0.6979 -1.3007 -0.4061
  458MOL0     H60439  -1.034   2.107   1.475  0.4637  1.4273  0.8912
  458MOL0     H60440  -0.455   1.848   1.547 -5.4153 -1.1564  0.0606
  458MOL0     H60441  -0.256   1.927   1.419  0.7933  0.7137  0.4606
  458MOL0     H60442   1.598   2.492   1.352 -2.1392  1.8408 -0.4510
  458MOL0     H60443   1.854   2.481   1.316  1.1022  0.5264  1.4717
  458MOL0     H60444   2.229   2.741   1.163  1.5818  0.3185 -1.5047
  458MOL0     H60445   2.476   2.716   1.117 -3.3310 -1.6002 -1.8536
  458MOL0     H60446   2.744   2.559   1.459 -2.9863  0.9865 -0.3554
  458MOL0     H60447   2.858   2.582   1.329  1.7415 -1.0074  2.1041
  458MOL0     H60448   2.646   2.359   1.324 -0.9439 -0.9616 -2.0336
  458MOL0     H60449   2.719   2.430   1.183  0.2838 -0.2210  0.5462
  458MOL0     H60450   2.894   2.294   1.403 -0.1839 -3.6546 -0.1310
  458MOL0     H60451   2.953   2.378   1.267 -0.0611  1.2047  1.3604
  458MOL0     H60452   2.958   2.145   1.235  0.1160  2.2119  2.7542
  458MOL0     H60453   2.789   2.127   1.237  1.4986 -2.0802 -1.4605
  458MOL0     H60454   2.852   2.225   0.840 -2.5805 -1.0683  0.2852
  458MOL0     H60455   2.519   2.546   1.513 -1.3937  0.9011  1.2627
  458MOL0     H60456   2.294   2.548   1.542  1.2358 -1.5288 -0.8721
  459MOL0     O60457   4.460   4.285   3.917 -0.5740  0.0523  0.4789
  459MOL0     C60458   4.497   4.233   3.811  0.3398 -0.6227 -0.0859
  459MOL0     O60459   4.423   4.168   3.727  0.5211  0.5615  0.3342
  459MOL0     C60460   4.299   4.128   3.751  0.0017  0.3897  0.6230
  459MOL0     C60461   4.195   4.200   3.814 -0.7528  0.0194 -0.0850
  459MOL0     C60462   4.069   4.153   3.825  0.8455  0.0118 -0.2039
  459MOL0     C60463   4.036   4.022   3.777  0.7916 -0.4373  0.0708
  459MOL0     O60464   3.907   3.981   3.792 -0.5532  0.0975 -0.6955
  459MOL0     C60465   3.882   3.842   3.760  0.9836  0.2276  0.0211
  459MOL0     C60466   3.749   3.789   3.823 -0.2335 -0.4588  0.3189
  459MOL0     C60467   3.632   3.876   3.771 -0.2730 -0.1745  0.5176
  459MOL0     C60468   3.500   3.815   3.821 -0.9170  0.5249 -0.3335
  459MOL0     C60469   3.381   3.916   3.825  0.4599  0.3463  0.0806
  459MOL0     C60470   3.248   3.852   3.879 -1.0218 -0.0848 -0.3348
  459MOL0     C60471   3.134   3.948   3.889  0.3274 -0.0325 -0.5530
  459MOL0     C60472   3.011   3.882   3.955 -0.8481 -0.0719 -0.9194
  459MOL0     N60473   2.913   3.985   4.002  0.2451  0.1009  0.3106
  459MOL0     C60474   2.922   4.051   4.124 -0.2979 -0.4890  0.3431
  459MOL0     C60475   2.793   4.103   4.133 -0.9760 -0.0438  0.4831
  459MOL0     C60476   2.748   4.187   4.242 -0.4559  0.7301  0.2363
  459MOL0     C60477   2.595   4.210   4.243  0.1435 -1.0329  0.5873
  459MOL0     C60478   2.545   4.309   4.353  0.4906  0.1943 -0.0895
  459MOL0     C60479   2.407   4.364   4.317 -0.9968 -0.0099 -0.4660
  459MOL0     O60480   2.377   4.459   4.414 -0.0856 -0.2974  0.2226
  459MOL0     C60481   2.248   4.456   4.463  0.2781 -0.3793  0.0898
  459MOL0     C60482   2.140   4.452   4.377  1.8319 -0.3023  0.4962
  459MOL0     C60483   2.004   4.435   4.419 -0.3203 -0.0861  0.2081
  459MOL0     C60484   1.984   4.433   4.561 -0.3658 -0.2670 -0.2279
  459MOL0     C60485   1.845   4.421   4.612 -0.5782 -0.1828  0.4083
  459MOL0     O60486   1.823   4.480   4.735  0.1691  0.0897 -0.0366
  459MOL0     C60487   1.694   4.499   4.782  0.6131 -0.1240 -0.5285
  459MOL0     C60488   1.635   4.625   4.796  0.4784 -0.2032 -0.0367
  459MOL0     C60489   1.509   4.642   4.858 -0.5556  0.0279  0.0740
  459MOL0     C60490   1.444   4.532   4.904  0.9208  0.8406 -0.7155
  459MOL0     O60491   1.314   4.548   4.938  0.3670  0.4123  0.1191
  459MOL0     C60492   1.281   4.603   5.071  0.3645 -0.0877  0.1213
  459MOL0     C60493   1.135   4.574   5.115 -0.6644  0.3369 -0.6306
  459MOL0     C60494   1.048   4.528   4.993 -0.3410 -0.5772 -0.3164
  459MOL0     C60495   0.895   4.529   5.027 -0.1934 -0.1916 -0.3229
  459MOL0     C60496   0.803   4.473   4.908 -0.5881 -0.0099  0.3495
  459MOL0     C60497   0.668   4.415   4.955 -0.0692 -0.1815 -0.7590
  459MOL0     C60498   0.633   4.295   4.869 -0.2623  0.2486 -0.7547
  459MOL0     C60499   0.706   4.166   4.914  0.0339  0.2439  0.0466
  459MOL0    Cl60500   0.608   4.088   5.045 -0.2432  0.1308  0.2886
  459MOL0     C60501   1.494   4.403   4.885  0.6675 -0.2587 -0.0516
  459MOL0     C60502   1.617   4.390   4.826  0.3653  0.2065  0.3771
  459MOL0     O60503   1.755   4.367   4.546 -0.4927  0.2253 -0.3989
  459MOL0     C60504   2.097   4.459   4.644 -0.6540 -0.8797 -1.2884
  459MOL0     C60505   2.225   4.463   4.595 -0.9624 -0.7086 -0.0744
  459MOL0     N60506   2.713   4.062   4.031  0.0472  0.0936 -0.7134
  459MOL0     N60507   2.784   3.985   3.951  0.5734 -0.6830 -1.0104
  459MOL0     C60508   4.139   3.954   3.708  0.3273  0.4663  1.0664
  459MOL0     C60509   4.267   4.004   3.695 -0.0677  0.3302 -0.2473
  459MOL0     C60510   4.634   4.275   3.761  0.6362  0.8009  0.6097
  459MOL0     C60511   4.680   4.215   3.646  0.2132 -0.4524  0.6832
  459MOL0     C60512   4.805   4.245   3.591  0.5036  0.1712 -0.5010
  459MOL0     C60513   4.887   4.343   3.641 -0.1947 -0.0167  0.2502
  459MOL0     O60514   5.004   4.366   3.577 -0.3071 -0.0223  0.4277
  459MOL0     C60515   5.099   4.455   3.646  0.2653  0.4749 -0.5063
  459MOL0     C60516   5.235   4.467   3.593  0.3216 -0.2922  0.6870
  459MOL0     C60517   5.228   4.547   3.463 -1.0101  0.1674  0.3480
  459MOL0     C60518   5.346   4.514   3.370 -0.4649 -0.0286 -0.3132
  459MOL0     C60519   5.473   4.558   3.426  0.5925 -1.0717  0.2555
  459MOL0     C60520   5.583   4.603   3.468 -0.2452 -0.2027  0.8545
  459MOL0     C60521   4.832   4.400   3.759 -0.0796  0.1004  0.1993
  459MOL0     C60522   4.710   4.369   3.819  0.5291  0.6839  0.4565
  459MOL0     H60523   4.209   4.301   3.850 -1.6239  0.7088 -1.5979
  459MOL0     H60524   3.988   4.206   3.873  0.6491 -1.5456  1.3012
  459MOL0     H60525   3.970   3.784   3.789  2.2594  0.5475 -2.8488
  459MOL0     H60526   3.883   3.821   3.652  0.5282 -1.5593  0.3362
  459MOL0     H60527   3.753   3.800   3.932  0.7044 -0.2783  0.2797
  459MOL0     H60528   3.742   3.685   3.792  0.0669  0.2618 -2.4595
  459MOL0     H60529   3.635   3.883   3.662 -1.4660  0.3319  0.5014
  459MOL0     H60530   3.635   3.979   3.806 -0.0299  0.0095 -0.0276
  459MOL0     H60531   3.487   3.725   3.760  0.4594  0.9286 -1.2613
  459MOL0     H60532   3.508   3.786   3.927 -2.0885  0.4632 -0.2527
  459MOL0     H60533   3.375   3.954   3.722  0.7230  1.9478  0.6214
  459MOL0     H60534   3.399   3.991   3.902 -2.7586  0.4197  0.9088
  459MOL0     H60535   3.273   3.812   3.978  0.3519  3.1044  0.7511
  459MOL0     H60536   3.218   3.767   3.817 -1.0549 -0.5228  0.2714
  459MOL0     H60537   3.161   4.042   3.938  0.5772 -0.2146 -0.3402
  459MOL0     H60538   3.105   3.972   3.787 -1.2029  0.9704  0.0764
  459MOL0     H60539   3.047   3.828   4.043 -1.9982  0.0080 -0.3853
  459MOL0     H60540   2.973   3.808   3.883 -0.9972 -0.5540 -0.3518
  459MOL0     H60541   3.005   4.072   4.191 -1.5751 -1.5917  2.3856
  459MOL0     H60542   2.798   4.283   4.230  1.3984 -0.4711 -2.5750
  459MOL0     H60543   2.780   4.149   4.340 -1.2215  0.9837  0.5901
  459MOL0     H60544   2.548   4.111   4.246 -0.3926 -0.7634  2.9779
  459MOL0     H60545   2.572   4.264   4.150 -1.2022 -3.9529 -0.9097
  459MOL0     H60546   2.528   4.258   4.448 -0.3882 -1.1171 -0.9239
  459MOL0     H60547   2.615   4.393   4.362 -0.9880  1.3524  1.2406
  459MOL0     H60548   2.335   4.282   4.320 -1.8119  0.7100  0.3505
  459MOL0     H60549   2.418   4.401   4.215 -0.0234  1.3014  0.0822
  459MOL0     H60550   2.162   4.457   4.271 -3.3058  0.6838 -0.8429
  459MOL0     H60551   1.927   4.413   4.346 -0.2237 -1.2983  0.4384
  459MOL0     H60552   1.691   4.704   4.746 -0.7160  0.5582 -0.2096
  459MOL0     H60553   1.480   4.746   4.864  2.3917  0.8744  1.2232
  459MOL0     H60554   1.295   4.711   5.060 -0.3703 -0.1022 -1.0982
  459MOL0     H60555   1.350   4.567   5.148 -1.7470 -0.5096  1.9275
  459MOL0     H60556   1.106   4.664   5.170  0.5614  0.0629  0.5153
  459MOL0     H60557   1.125   4.508   5.202 -2.1739  2.7451  1.1410
  459MOL0     H60558   1.074   4.427   4.960 -0.5058 -0.6615 -0.1915
  459MOL0     H60559   1.057   4.608   4.919 -1.3203  0.5818  0.7703
  459MOL0     H60560   0.885   4.457   5.109  1.2090  0.4829  0.4754
  459MOL0     H60561   0.873   4.630   5.062 -1.6577  0.0694 -1.9100
  459MOL0     H60562   0.853   4.390   4.857 -2.1295 -1.5416  1.2409
  459MOL0     H60563   0.783   4.553   4.836 -1.4438 -1.1136 -0.6796
  459MOL0     H60564   0.587   4.489   4.955 -0.8513 -0.7993  3.4537
  459MOL0     H60565   0.675   4.399   5.063  0.8974  5.3657  0.2758
  459MOL0     H60566   0.525   4.280   4.873 -0.1645 -0.8484 -1.6502
  459MOL0     H60567   0.660   4.306   4.763  1.0131  0.6770 -0.4054
  459MOL0     H60568   0.806   4.184   4.955 -0.5564  0.1642  1.5995
  459MOL0     H60569   0.703   4.102   4.825  1.2657 -0.3083  0.3909
  459MOL0     H60570   1.426   4.322   4.908 -1.8955  1.2566 -1.7689
  459MOL0     H60571   1.648   4.286   4.814 -3.5759 -1.1754  0.7971
  459MOL0     H60572   2.080   4.467   4.751 -0.7236 -0.5631 -1.3244
  459MOL0     H60573   2.308   4.463   4.664  0.3558  0.5470 -1.5845
  459MOL0     H60574   4.126   3.856   3.664 -1.2381  1.4894 -0.9205
  459MOL0     H60575   4.349   3.942   3.659 -0.0169  1.1035 -1.5183
  459MOL0     H60576   4.629   4.135   3.592  1.6828 -0.3610 -0.9244
  459MOL0     H60577   4.836   4.214   3.492  1.1793  2.2312 -0.9754
  459MOL0     H60578   5.117   4.418   3.747  0.2645  2.7676  0.4009
  459MOL0     H60579   5.055   4.553   3.666  0.2858  0.4108 -0.1350
  459MOL0     H60580   5.305   4.506   3.666  0.9158 -3.1342  1.7623
  459MOL0     H60581   5.267   4.365   3.573  1.8952  0.0560  1.3206
  459MOL0     H60582   5.214   4.655   3.467  1.3765  0.6935 -2.3770
  459MOL0     H60583   5.144   4.499   3.411 -1.0133 -1.3446  1.6909
  459MOL0     H60584   5.340   4.406   3.355 -0.9054 -0.6412  3.1955
  459MOL0     H60585   5.324   4.563   3.275 -1.3924  2.5220  1.1131
  459MOL0     H60586   5.681   4.646   3.479  0.8166 -2.0900 -0.6077
  459MOL0     H60587   4.893   4.475   3.809 -1.3462 -0.4880  2.8429
  459MOL0     H60588   4.678   4.421   3.908  0.4284  2.6980 -0.7062
  460MOL0     O60589   6.135   0.858   4.423  0.5310  0.2040 -0.4540
  460MOL0     C60590   6.192   0.780   4.498 -0.0937 -0.2779  0.4808
  460MOL0     O60591   6.145   0.666   4.557  0.4803 -0.1590  0.5989
  460MOL0     C60592   6.021   0.612   4.539  0.1933  0.1137 -0.8900
  460MOL0     C60593   5.899   0.688   4.513 -0.0507 -0.1092  0.1701
  460MOL0     C60594   5.782   0.634   4.496  0.1770  0.3329  0.5937
  460MOL0     C60595   5.773   0.489   4.493  0.0497 -0.0499 -0.8298
  460MOL0     O60596   5.657   0.422   4.466  0.1190 -0.1246 -0.7813
  460MOL0     C60597   5.534   0.451   4.520  0.6989 -1.1181 -0.9276
  460MOL0     C60598   5.432   0.425   4.417  0.0644 -0.5225 -0.0363
  460MOL0     C60599   5.299   0.502   4.448 -0.6181 -0.6698  0.2807
  460MOL0     C60600   5.181   0.463   4.360 -0.2480  0.3397  0.4818
  460MOL0     C60601   5.055   0.542   4.398  1.2362 -0.8453  0.8446
  460MOL0     C60602   5.043   0.663   4.304  0.3641  0.3713  0.6222
  460MOL0     C60603   4.926   0.751   4.336  0.0493  0.3983  0.0007
  460MOL0     C60604   4.938   0.872   4.238 -0.0645 -0.1707 -0.1132
  460MOL0     N60605   4.862   0.991   4.277  0.4410  0.3417  0.3871
  460MOL0     C60606   4.730   1.000   4.307  1.3143 -0.4855 -0.8163
  460MOL0     C60607   4.715   1.127   4.351 -0.6793 -0.7403  0.3058
  460MOL0     C60608   4.587   1.206   4.374  0.5839 -0.1300 -0.0838
  460MOL0     C60609   4.480   1.196   4.265 -0.3111 -0.3541 -0.3445
  460MOL0     C60610   4.386   1.309   4.264 -0.2509  0.0650 -0.1061
  460MOL0     C60611   4.285   1.296   4.374  0.7135  0.2651 -0.1464
  460MOL0     O60612   4.189   1.397   4.357 -0.5071  0.6376 -0.5277
  460MOL0     C60613   4.062   1.354   4.353  0.2271  0.1564 -0.0167
  460MOL0     C60614   4.009   1.266   4.449 -1.2278 -0.6788 -0.1734
  460MOL0     C60615   3.873   1.234   4.464  1.0308  0.4095  1.7239
  460MOL0     C60616   3.781   1.274   4.367  0.5031 -0.1358  0.1094
  460MOL0     C60617   3.637   1.258   4.385  0.5368  0.1874  0.0306
  460MOL0     O60618   3.549   1.330   4.308 -0.2895  0.0336 -0.4127
  460MOL0     C60619   3.414   1.320   4.326  1.0772  0.8026 -0.0003
  460MOL0     C60620   3.340   1.355   4.218 -0.4278 -1.0399  0.8473
  460MOL0     C60621   3.198   1.362   4.225  0.4445  0.5400  0.0733
  460MOL0     C60622   3.125   1.333   4.339 -0.0684 -0.4951  0.1292
  460MOL0     O60623   2.986   1.323   4.355 -0.1823  0.2821  0.1741
  460MOL0     C60624   2.904   1.341   4.237 -0.1645 -0.0553  0.5854
  460MOL0     C60625   2.760   1.390   4.275  0.0291 -0.2222  0.2880
  460MOL0     C60626   2.746   1.533   4.323 -0.4401  0.2802 -0.7181
  460MOL0     C60627   2.742   1.630   4.208  0.6488 -0.0718  0.7515
  460MOL0     C60628   2.713   1.772   4.246 -0.7450 -0.2598 -0.4108
  460MOL0     C60629   2.842   1.841   4.299 -0.2911  0.2464  0.2326
  460MOL0     C60630   2.833   1.993   4.298  0.2547  0.7172 -0.0740
  460MOL0     C60631   2.965   2.053   4.342 -0.0350 -0.3440  0.1086
  460MOL0    Cl60632   2.961   2.230   4.348 -0.2033 -0.2694  0.3780
  460MOL0     C60633   3.202   1.296   4.450 -0.7092 -0.2663  0.2613
  460MOL0     C60634   3.344   1.293   4.449 -0.3954 -0.0071  0.0382
  460MOL0     O60635   3.615   1.168   4.460 -0.5680 -0.0808 -0.1076
  460MOL0     C60636   3.827   1.356   4.271 -0.7053  0.5930  0.0546
  460MOL0     C60637   3.966   1.400   4.258  0.3630 -0.5676  0.9694
  460MOL0     N60638   4.829   1.205   4.334 -0.9293  0.0367  0.0912
  460MOL0     N60639   4.912   1.124   4.287 -0.0233  0.4175 -0.9295
  460MOL0     C60640   5.884   0.415   4.520  0.6623  0.2574 -0.1327
  460MOL0     C60641   6.008   0.473   4.549 -0.0244 -0.3564  0.0575
  460MOL0     C60642   6.327   0.819   4.535 -1.0890 -0.8896  0.3461
  460MOL0     C60643   6.371   0.954   4.532 -0.3747  0.9272  0.4989
  460MOL0     C60644   6.505   0.984   4.559  0.1648  0.8429 -0.1781
  460MOL0     C60645   6.603   0.884   4.582 -0.0106  0.4203 -0.1088
  460MOL0     O60646   6.739   0.901   4.581 -0.0256  0.4330 -0.2524
  460MOL0     C60647   6.784   1.041   4.567  0.0915  0.0834  0.5322
  460MOL0     C60648   6.936   1.031   4.596 -0.2604  0.2083 -0.3438
  460MOL0     C60649   7.007   1.165   4.582  0.3050  0.3398  0.3684
  460MOL0     C60650   7.145   1.143   4.646 -0.4921 -0.3351 -0.3114
  460MOL0     C60651   7.219   1.269   4.623 -0.2856  0.0302 -0.8150
  460MOL0     C60652   7.255   1.379   4.591  0.2759 -0.6905  0.3087
  460MOL0     C60653   6.554   0.752   4.581  0.2185 -0.4653  0.7265
  460MOL0     C60654   6.419   0.714   4.557  0.7239 -0.3912  0.7526
  460MOL0     H60655   5.920   0.794   4.516 -0.7622  0.0148  0.9629
  460MOL0     H60656   5.692   0.693   4.486 -1.6112 -2.4652 -1.3237
  460MOL0     H60657   5.535   0.557   4.544 -1.2683 -1.7689  2.6151
  460MOL0     H60658   5.506   0.395   4.610  2.7441 -1.9133 -0.7269
  460MOL0     H60659   5.416   0.317   4.410 -3.2979 -0.3008  1.9874
  460MOL0     H60660   5.473   0.463   4.323 -0.1018 -0.8054 -0.2261
  460MOL0     H60661   5.325   0.607   4.435  5.8088 -2.1344 -2.0971
  460MOL0     H60662   5.269   0.477   4.551  3.1457 -0.4976  1.5752
  460MOL0     H60663   5.207   0.478   4.254 -1.2185 -1.5058 -0.0583
  460MOL0     H60664   5.157   0.357   4.375 -0.4647  0.5159  1.3944
  460MOL0     H60665   5.051   0.576   4.502  2.0826 -0.2109  0.6843
  460MOL0     H60666   4.961   0.487   4.386  0.6594  0.4900 -1.2524
  460MOL0     H60667   5.026   0.625   4.203 -0.5340  1.0614  0.5077
  460MOL0     H60668   5.134   0.724   4.306 -2.0069  4.4252 -1.2633
  460MOL0     H60669   4.829   0.703   4.326 -0.7153  1.6197  1.2680
  460MOL0     H60670   4.936   0.786   4.439  0.6367  0.1132  0.0515
  460MOL0     H60671   4.916   0.830   4.139 -0.8691 -2.3509  0.9418
  460MOL0     H60672   5.039   0.914   4.239 -0.3641  0.6820  2.7152
  460MOL0     H60673   4.643   0.935   4.302 -0.8371  2.1224  0.4631
  460MOL0     H60674   4.600   1.313   4.392 -1.3979  0.1721 -0.1223
  460MOL0     H60675   4.537   1.180   4.469 -0.2355  0.1932 -0.4180
  460MOL0     H60676   4.424   1.102   4.269  2.6644 -2.2898 -0.4070
  460MOL0     H60677   4.524   1.208   4.165  2.8056  2.5757  1.1821
  460MOL0     H60678   4.439   1.404   4.264  0.6497 -0.4183  0.5288
  460MOL0     H60679   4.329   1.303   4.170 -0.4992  0.1633  0.0383
  460MOL0     H60680   4.332   1.312   4.472  1.8339 -0.5632 -0.5257
  460MOL0     H60681   4.234   1.199   4.371 -2.5785  1.8428  0.0963
  460MOL0     H60682   4.065   1.228   4.534  0.1725  5.2389  2.0839
  460MOL0     H60683   3.837   1.178   4.550 -2.6146  0.2051  0.2433
  460MOL0     H60684   3.392   1.379   4.126 -0.2351 -0.5448  1.0814
  460MOL0     H60685   3.146   1.377   4.131  0.4223 -0.8311 -0.1588
  460MOL0     H60686   2.901   1.242   4.190  0.1320 -0.6260  1.7316
  460MOL0     H60687   2.948   1.414   4.168 -1.1361  0.2063  0.2217
  460MOL0     H60688   2.717   1.329   4.355  0.0275  1.9004  2.0053
  460MOL0     H60689   2.697   1.374   4.187  0.6774  0.9291 -0.4010
  460MOL0     H60690   2.831   1.558   4.388 -0.6418  1.9358 -1.0679
  460MOL0     H60691   2.647   1.544   4.369  0.4106 -0.4197  1.4357
  460MOL0     H60692   2.839   1.633   4.158  0.1574  0.6138 -0.1831
  460MOL0     H60693   2.661   1.602   4.140  0.7135 -1.8241  1.3328
  460MOL0     H60694   2.640   1.783   4.326 -1.4738  0.1996 -1.1203
  460MOL0     H60695   2.674   1.815   4.153  0.5254 -0.4830 -1.0725
  460MOL0     H60696   2.928   1.819   4.235 -0.5374 -1.2123  0.3782
  460MOL0     H60697   2.862   1.809   4.401 -0.0682  3.5094  1.3335
  460MOL0     H60698   2.798   2.025   4.200  0.7375  0.4014 -0.3509
  460MOL0     H60699   2.758   2.027   4.371  0.3590  2.2632 -0.6440
  460MOL0     H60700   3.035   2.037   4.260 -0.6119  4.2137 -1.5337
  460MOL0     H60701   3.003   2.014   4.437  1.1616 -0.4584 -0.4011
  460MOL0     H60702   3.151   1.260   4.539  0.2143  1.6291  1.6522
  460MOL0     H60703   3.395   1.269   4.542  0.0444 -0.5601 -0.3373
  460MOL0     H60704   3.765   1.400   4.194  0.3347  3.2714  0.6530
  460MOL0     H60705   3.990   1.467   4.176 -1.2632  3.3543  3.3809
  460MOL0     H60706   5.870   0.307   4.525  0.8338  0.2230 -0.3679
  460MOL0     H60707   6.090   0.406   4.573 -1.1711 -1.1720  1.9636
  460MOL0     H60708   6.301   1.037   4.521 -0.7077  0.4505 -1.1907
  460MOL0     H60709   6.525   1.091   4.558 -0.3178  0.9659 -2.7920
  460MOL0     H60710   6.738   1.110   4.639 -0.0439  3.3162 -2.3543
  460MOL0     H60711   6.760   1.067   4.463 -1.9292  1.2124  1.2148
  460MOL0     H60712   6.950   0.993   4.698 -0.6295 -2.2796 -1.1581
  460MOL0     H60713   6.974   0.959   4.523 -2.1789 -0.4317 -0.7603
  460MOL0     H60714   6.956   1.243   4.639 -0.4132  0.5680 -0.5564
  460MOL0     H60715   6.997   1.189   4.475  0.3775 -1.1304  0.0177
  460MOL0     H60716   7.145   1.133   4.755  2.1297 -0.5922 -0.2612
  460MOL0     H60717   7.200   1.053   4.617 -1.2563 -2.3364  3.7023
  460MOL0     H60718   7.282   1.477   4.558 -0.6850 -0.1386  1.1059
  460MOL0     H60719   6.624   0.670   4.595  2.9265  1.5383 -0.3966
  460MOL0     H60720   6.391   0.610   4.554 -2.3108  0.3579  0.0804
  461MOL0     O60721   4.684   7.650   3.352 -0.7977 -0.1532 -0.2863
  461MOL0     C60722   4.747   7.592   3.445  0.7815  0.3200 -0.4051
  461MOL0     O60723   4.696   7.579   3.571 -0.2059  0.7592  0.4680
  461MOL0     C60724   4.565   7.631   3.591 -0.6864  0.4715 -0.2033
  461MOL0     C60725   4.467   7.542   3.639 -0.0799 -0.0176 -0.4668
  461MOL0     C60726   4.344   7.590   3.675  0.2444 -0.1632  0.0100
  461MOL0     C60727   4.309   7.727   3.648 -0.1309  0.4407 -0.1345
  461MOL0     O60728   4.178   7.767   3.676 -0.5493 -0.3330  0.0418
  461MOL0     C60729   4.147   7.905   3.697 -0.7994 -0.3814  0.5296
  461MOL0     C60730   3.998   7.931   3.711  1.3720  0.6196  0.7886
  461MOL0     C60731   3.926   7.839   3.819  0.0039 -0.7770 -0.0343
  461MOL0     C60732   3.774   7.822   3.806 -0.6600  0.0177  0.5942
  461MOL0     C60733   3.691   7.949   3.797 -0.2254  0.7677 -0.9044
  461MOL0     C60734   3.679   8.016   3.940 -0.7300  0.2892 -0.2356
  461MOL0     C60735   3.595   8.140   3.954  0.0195 -0.2605  0.1326
  461MOL0     C60736   3.453   8.138   3.903  0.3510  0.0017  0.0079
  461MOL0     N60737   3.374   8.259   3.930 -0.1154  0.2465 -0.6474
  461MOL0     C60738   3.378   8.333   4.042  0.3833 -0.0541 -0.1224
  461MOL0     C60739   3.290   8.436   4.018 -0.2836  0.0177 -0.3700
  461MOL0     C60740   3.269   8.560   4.096  0.1997  0.1381 -0.5070
  461MOL0     C60741   3.254   8.693   4.019  0.6899  0.4166  0.5743
  461MOL0     C60742   3.197   8.814   4.106  0.5992 -0.2143 -0.0258
  461MOL0     C60743   3.047   8.798   4.130  0.5117  0.4817 -0.1261
  461MOL0     O60744   2.974   8.808   4.011 -0.2212  0.4678  0.3102
  461MOL0     C60745   2.834   8.796   4.034 -0.3882 -0.0462 -0.4650
  461MOL0     C60746   2.749   8.825   3.934  0.8961  1.1933  0.2845
  461MOL0     C60747   2.612   8.830   3.946  0.4203  0.0036  0.3755
  461MOL0     C60748   2.555   8.809   4.078 -0.2890 -0.5039  0.0760
  461MOL0     C60749   2.405   8.811   4.099  1.0471  0.0922  0.0544
  461MOL0     O60750   2.334   8.841   3.981 -0.5694 -0.2826 -0.0781
  461MOL0     C60751   2.199   8.862   3.992  0.1205  0.0261 -0.4005
  461MOL0     C60752   2.133   8.980   3.950  0.1044 -0.1078 -0.1480
  461MOL0     C60753   1.999   8.991   3.967  0.1795  0.2483  0.2519
  461MOL0     C60754   1.920   8.908   4.049 -1.1053 -0.0762  0.2661
  461MOL0     O60755   1.789   8.943   4.055 -0.1359  0.5088 -0.1617
  461MOL0     C60756   1.711   8.873   4.157  0.1143 -0.3576 -0.2781
  461MOL0     C60757   1.575   8.926   4.146 -0.0892 -0.5448  0.0584
  461MOL0     C60758   1.470   8.869   4.242  0.5776  0.1676  0.4398
  461MOL0     C60759   1.332   8.924   4.225  0.2494  0.5914  0.2644
  461MOL0     C60760   1.247   8.906   4.354  0.4853  0.0099 -0.4042
  461MOL0     C60761   1.095   8.923   4.330 -0.4820 -0.9529  0.1855
  461MOL0     C60762   1.014   8.884   4.456  0.9727  0.6716  0.3448
  461MOL0     C60763   0.877   8.948   4.449  0.3651 -0.1877  0.0081
  461MOL0    Cl60764   0.774   8.854   4.332  0.3187  0.2399  0.0958
  461MOL0     C60765   1.981   8.797   4.094  0.6185 -0.0021 -0.4253
  461MOL0     C60766   2.115   8.773   4.065  0.1434  0.1164  0.2094
  461MOL0     O60767   2.357   8.799   4.209  0.2896  0.5876 -0.3921
  461MOL0     C60768   2.646   8.782   4.186 -0.2169 -1.0406 -0.2014
  461MOL0     C60769   2.777   8.770   4.160 -0.5404 -0.3958 -0.4749
  461MOL0     N60770   3.228   8.410   3.895 -0.4364 -0.6662 -0.4105
  461MOL0     N60771   3.282   8.305   3.845  0.3266  0.2001  0.0683
  461MOL0     C60772   4.416   7.815   3.605 -0.2505 -0.0835  0.8895
  461MOL0     C60773   4.544   7.769   3.578 -0.2102 -0.3894  0.5707
  461MOL0     C60774   4.848   7.493   3.413 -0.4196  0.7006 -0.0288
  461MOL0     C60775   4.851   7.420   3.288  0.3714  0.3621 -0.1702
  461MOL0     C60776   4.940   7.332   3.263  0.2638  0.5568  0.5641
  461MOL0     C60777   5.034   7.288   3.362 -0.2956  0.8164 -0.5385
  461MOL0     O60778   5.141   7.199   3.341  0.1789 -0.6469 -0.0788
  461MOL0     C60779   5.171   7.167   3.209 -0.3756 -0.2220  0.3782
  461MOL0     C60780   5.289   7.253   3.160  0.5634  0.8843 -0.4607
  461MOL0     C60781   5.385   7.195   3.051  0.2186  0.6016 -0.5702
  461MOL0     C60782   5.500   7.131   3.116  0.0101  0.6708 -0.4227
  461MOL0     C60783   5.581   7.059   3.017 -0.3088  0.2828  0.4976
  461MOL0     C60784   5.631   6.995   2.934  0.0281  0.7954  0.3959
  461MOL0     C60785   5.025   7.348   3.490  0.8934 -0.5603  0.2223
  461MOL0     C60786   4.936   7.451   3.517  0.2605 -0.0461  0.4762
  461MOL0     H60787   4.500   7.438   3.631  1.5221  0.5782 -2.5635
  461MOL0     H60788   4.261   7.531   3.712  0.2469 -2.5110 -3.2608
  461MOL0     H60789   4.182   7.971   3.616  3.1774 -1.2192  1.3407
  461MOL0     H60790   4.205   7.936   3.784 -1.3790  0.4481  0.6320
  461MOL0     H60791   3.953   7.901   3.616 -0.6531 -0.6574  2.0898
  461MOL0     H60792   3.978   8.038   3.725 -2.1229  0.0034  1.2985
  461MOL0     H60793   3.951   7.895   3.910  1.0400  0.8512 -1.2606
  461MOL0     H60794   3.977   7.743   3.820 -0.2131 -0.9083 -1.1997
  461MOL0     H60795   3.760   7.780   3.706 -1.4356 -0.1541  0.7640
  461MOL0     H60796   3.748   7.743   3.876  2.3278 -1.6696 -0.0457
  461MOL0     H60797   3.588   7.923   3.771  0.0934  0.8982 -2.3242
  461MOL0     H60798   3.735   8.019   3.726 -0.2231  1.0975 -0.5798
  461MOL0     H60799   3.775   8.053   3.978  0.5726 -3.1888  0.2725
  461MOL0     H60800   3.648   7.934   4.005 -0.1154  0.5634  0.4191
  461MOL0     H60801   3.591   8.160   4.062 -0.4751  1.8369 -0.2202
  461MOL0     H60802   3.647   8.226   3.910  0.4477  0.8730  2.6846
  461MOL0     H60803   3.407   8.054   3.954  1.1583 -1.1498 -1.1063
  461MOL0     H60804   3.442   8.113   3.797 -2.2955 -1.9755  0.6456
  461MOL0     H60805   3.437   8.322   4.133 -0.2358 -2.4616  0.0432
  461MOL0     H60806   3.352   8.569   4.167 -0.3887  1.1457  0.0854
  461MOL0     H60807   3.181   8.549   4.160  1.6541  0.2281  1.6120
  461MOL0     H60808   3.179   8.679   3.939 -2.5038 -1.7877  3.6160
  461MOL0     H60809   3.354   8.711   3.980  0.8346  1.1650  1.2754
  461MOL0     H60810   3.248   8.825   4.202  1.2069  1.2016 -0.4904
  461MOL0     H60811   3.218   8.911   4.061  0.6543  0.8955  2.2867
  461MOL0     H60812   3.011   8.867   4.206  0.0327 -1.0550  1.0944
  461MOL0     H60813   3.033   8.700   4.178  1.8174  0.6055  0.5601
  461MOL0     H60814   2.798   8.838   3.838  2.2164 -0.7571  0.6401
  461MOL0     H60815   2.555   8.837   3.854  2.4965  2.8582 -0.8466
  461MOL0     H60816   2.191   9.051   3.891  0.9801 -1.9775 -1.6478
  461MOL0     H60817   1.946   9.079   3.930  1.5758  0.5189 -1.2251
  461MOL0     H60818   1.758   8.910   4.249  2.9171  2.1945 -2.5466
  461MOL0     H60819   1.709   8.765   4.138  1.4862 -0.6587  1.1211
  461MOL0     H60820   1.547   8.924   4.040 -0.5159  1.3468  0.0966
  461MOL0     H60821   1.586   9.032   4.167 -1.0468 -0.0696 -1.6420
  461MOL0     H60822   1.505   8.890   4.344 -0.0260  2.4216  0.2353
  461MOL0     H60823   1.470   8.762   4.222 -1.8645  0.4248 -1.3045
  461MOL0     H60824   1.345   9.030   4.202  1.1350  0.2026 -1.1735
  461MOL0     H60825   1.282   8.881   4.138 -1.3823  3.3259 -0.2593
  461MOL0     H60826   1.282   8.977   4.429 -3.0211  1.1923  0.3113
  461MOL0     H60827   1.262   8.802   4.385 -0.2542  0.5040  1.7198
  461MOL0     H60828   1.072   8.871   4.237 -0.2326 -1.0779  0.1914
  461MOL0     H60829   1.083   9.030   4.311  0.5027 -0.7735  0.5186
  461MOL0     H60830   1.006   8.776   4.470  1.7483  0.8995  3.4027
  461MOL0     H60831   1.062   8.919   4.549 -0.8683 -3.3428  3.0750
  461MOL0     H60832   0.895   9.053   4.423 -0.5492 -0.9136 -4.2419
  461MOL0     H60833   0.823   8.951   4.544  1.4966 -2.4108  0.7990
  461MOL0     H60834   1.918   8.727   4.149 -1.7562  0.1477 -2.7712
  461MOL0     H60835   2.160   8.682   4.106  1.8696  0.6609 -0.3682
  461MOL0     H60836   2.609   8.768   4.287  0.8198 -0.2251  0.3081
  461MOL0     H60837   2.826   8.735   4.250 -0.5930 -2.4908 -1.2114
  461MOL0     H60838   4.398   7.921   3.590  0.0808 -0.0736  0.5433
  461MOL0     H60839   4.623   7.832   3.539  0.6000 -3.6239 -3.5967
  461MOL0     H60840   4.789   7.457   3.208  0.6056  0.6798 -0.2072
  461MOL0     H60841   4.934   7.290   3.163  1.6696  2.5345 -0.4121
  461MOL0     H60842   5.087   7.183   3.141 -1.0267  0.2698  1.2832
  461MOL0     H60843   5.206   7.064   3.210 -0.7202 -0.3423  0.1326
  461MOL0     H60844   5.244   7.345   3.124 -3.0769 -0.3599  0.4914
  461MOL0     H60845   5.351   7.289   3.244  0.3244  1.5959 -0.5870
  461MOL0     H60846   5.420   7.267   2.976  0.8718 -0.9659 -1.8475
  461MOL0     H60847   5.326   7.125   2.991  0.0406 -1.2674  1.6526
  461MOL0     H60848   5.568   7.201   3.166  2.0950 -1.7476  0.3404
  461MOL0     H60849   5.468   7.063   3.195 -0.2368 -3.3765 -3.6973
  461MOL0     H60850   5.664   6.914   2.872  0.2503  2.2121 -1.4581
  461MOL0     H60851   5.096   7.314   3.565 -0.6621  1.2123  2.6480
  461MOL0     H60852   4.942   7.507   3.610  1.5200  0.4466  0.1229
  462MOL0     O60853   8.641   2.368  10.602  0.1602  0.3238  1.1156
  462MOL0     C60854   8.702   2.466  10.643 -0.0652  0.0141  0.0793
  462MOL0     O60855   8.650   2.583  10.667 -0.3403 -0.3923  0.1634
  462MOL0     C60856   8.516   2.607  10.653 -0.1037  0.0434  0.1712
  462MOL0     C60857   8.462   2.680  10.763 -0.0827 -0.2085  0.6740
  462MOL0     C60858   8.324   2.717  10.767  0.0248  0.3370 -0.2168
  462MOL0     C60859   8.242   2.686  10.662 -0.5082 -0.0995  0.3073
  462MOL0     O60860   8.110   2.723  10.661  0.3671 -0.1941  0.2110
  462MOL0     C60861   8.092   2.851  10.599  1.2287  0.3926 -0.3872
  462MOL0     C60862   7.937   2.869  10.569 -0.7097  0.4705  0.1523
  462MOL0     C60863   7.896   2.998  10.493  0.1672 -0.0882  0.3226
  462MOL0     C60864   7.733   3.008  10.511 -0.4705  0.1357  0.2304
  462MOL0     C60865   7.670   3.087  10.399  0.1782  0.2904  0.5560
  462MOL0     C60866   7.710   3.237  10.391 -0.0944  0.3728  0.1523
  462MOL0     C60867   7.625   3.318  10.289 -0.3815 -0.0753 -0.1115
  462MOL0     C60868   7.675   3.466  10.277  0.7052 -0.1069  0.3720
  462MOL0     N60869   7.625   3.546  10.166  0.2361  0.3465  1.1467
  462MOL0     C60870   7.498   3.608  10.155 -0.3298  0.4474  0.1002
  462MOL0     C60871   7.511   3.687  10.050  0.0421 -0.0381 -0.8909
  462MOL0     C60872   7.406   3.780   9.986 -0.7104  0.1873  0.3292
  462MOL0     C60873   7.381   3.905  10.068 -0.7092  0.4527 -1.2405
  462MOL0     C60874   7.266   3.997  10.017 -0.9231 -0.8359  0.2024
  462MOL0     C60875   7.241   4.109  10.128  0.1582 -0.6751  0.7002
  462MOL0     O60876   7.198   4.053  10.257  0.3645  0.0421  0.1752
  462MOL0     C60877   7.126   4.135  10.339  0.3488 -0.3757 -0.5596
  462MOL0     C60878   7.046   4.082  10.444 -0.3414 -0.2587  0.0810
  462MOL0     C60879   6.966   4.163  10.523  0.1046  0.2402  1.1749
  462MOL0     C60880   6.958   4.298  10.506 -0.2491  0.4886  0.1223
  462MOL0     C60881   6.866   4.379  10.593 -0.2211 -1.0681  0.3334
  462MOL0     O60882   6.782   4.306  10.671  0.0829  0.0504 -0.8442
  462MOL0     C60883   6.676   4.384  10.725  0.1636  0.1953  0.3198
  462MOL0     C60884   6.559   4.411  10.644  0.2351  0.2710  0.5642
  462MOL0     C60885   6.459   4.496  10.698 -0.7859 -1.0963  0.5402
  462MOL0     C60886   6.472   4.552  10.825 -0.2101 -0.2215  0.4642
  462MOL0     O60887   6.385   4.625  10.895 -0.5389 -0.0358  0.6868
  462MOL0     C60888   6.253   4.615  10.860 -0.0055  0.4005 -0.1831
  462MOL0     C60889   6.164   4.713  10.940  0.9539  0.1627 -0.2914
  462MOL0     C60890   6.069   4.626  11.025 -0.2683  0.4942 -0.3612
  462MOL0     C60891   6.001   4.727  11.121  0.2153  0.2593 -0.6060
  462MOL0     C60892   5.898   4.832  11.062 -0.3119  0.6484 -0.2376
  462MOL0     C60893   5.847   4.924  11.165 -0.3260 -0.2326  0.8000
  462MOL0     C60894   5.739   5.011  11.106  0.3377  0.0250 -0.6031
  462MOL0     C60895   5.638   5.061  11.220 -0.3944  0.0826  0.8004
  462MOL0    Cl60896   5.496   5.120  11.129 -0.1999  0.1797  0.0791
  462MOL0     C60897   6.584   4.514  10.895  0.6418  0.3834 -1.2041
  462MOL0     C60898   6.688   4.436  10.848 -0.4245  0.2194 -1.0762
  462MOL0     O60899   6.866   4.503  10.572  0.0856 -0.3495  0.1210
  462MOL0     C60900   7.035   4.354  10.407  1.0983  0.2070  0.2367
  462MOL0     C60901   7.113   4.278  10.330 -0.5306  0.4224 -0.0574
  462MOL0     N60902   7.625   3.651   9.988  0.4576 -0.3621 -0.0877
  462MOL0     N60903   7.690   3.565  10.051 -0.0725  0.4447  0.6529
  462MOL0     C60904   8.292   2.607  10.558  0.5444 -0.4345 -0.6242
  462MOL0     C60905   8.432   2.574  10.547  0.4712 -0.2825  0.3691
  462MOL0     C60906   8.854   2.448  10.650  0.9233  0.4889  0.6601
  462MOL0     C60907   8.913   2.327  10.612 -0.2261 -0.7305  1.0163
  462MOL0     C60908   9.049   2.317  10.601 -0.1414  0.0030 -0.4889
  462MOL0     C60909   9.137   2.427  10.631  0.6697  0.1362 -0.1000
  462MOL0     O60910   9.274   2.411  10.632  0.5491 -0.7277 -0.3717
  462MOL0     C60911   9.335   2.306  10.568 -0.3777  0.6376 -0.0603
  462MOL0     C60912   9.485   2.314  10.602  0.6127  0.9070 -0.2338
  462MOL0     C60913   9.551   2.448  10.553 -0.9017 -0.2856  0.0382
  462MOL0     C60914   9.699   2.421  10.546 -0.9839 -0.2582  0.5614
  462MOL0     C60915   9.772   2.549  10.537  0.2861 -0.9282 -0.1680
  462MOL0     C60916   9.838   2.650  10.524 -0.6279 -0.7191 -0.2977
  462MOL0     C60917   9.080   2.546  10.680  0.0292 -0.3439 -0.5210
  462MOL0     C60918   8.940   2.559  10.693  0.2575  0.8359 -0.0126
  462MOL0     H60919   8.538   2.714  10.833 -0.0434  0.0946  0.4846
  462MOL0     H60920   8.276   2.779  10.843 -0.2397 -0.1498  0.0157
  462MOL0     H60921   8.159   2.858  10.513  1.2345  1.2430 -0.3244
  462MOL0     H60922   8.110   2.916  10.686  0.3564  0.1379 -0.0097
  462MOL0     H60923   7.885   2.876  10.665 -1.4475  1.4749 -0.2967
  462MOL0     H60924   7.905   2.777  10.520  1.6568 -1.0546  1.3081
  462MOL0     H60925   7.933   2.993  10.390 -1.8473 -0.1543 -0.4471
  462MOL0     H60926   7.943   3.086  10.537  3.6989 -2.2380  1.1659
  462MOL0     H60927   7.691   2.908  10.522  3.5650 -1.6782  1.1750
  462MOL0     H60928   7.707   3.048  10.610 -2.3905 -1.6937  0.5399
  462MOL0     H60929   7.561   3.081  10.409  0.2287  0.2171  1.0910
  462MOL0     H60930   7.706   3.034  10.310  2.0393 -0.9537  1.9690
  462MOL0     H60931   7.815   3.237  10.361 -1.0010  2.0193 -3.6599
  462MOL0     H60932   7.706   3.291  10.487  4.7813 -0.8729  1.2938
  462MOL0     H60933   7.633   3.270  10.191  1.2152  0.8357 -0.4663
  462MOL0     H60934   7.524   3.309  10.329 -0.1608 -1.5551  0.1879
  462MOL0     H60935   7.784   3.464  10.274  0.8115  1.3541  1.6616
  462MOL0     H60936   7.645   3.519  10.368  1.3775  2.1208 -0.6316
  462MOL0     H60937   7.413   3.600  10.223  0.3347 -0.4498  0.8714
  462MOL0     H60938   7.308   3.731   9.982 -1.3926  1.5253 -2.3246
  462MOL0     H60939   7.443   3.799   9.885 -0.6873 -3.9220 -0.6380
  462MOL0     H60940   7.474   3.963  10.075  1.0359 -2.3124  0.1626
  462MOL0     H60941   7.370   3.860  10.167 -1.7394 -0.1528 -1.6204
  462MOL0     H60942   7.296   4.050   9.927 -1.2856 -0.7276  0.1433
  462MOL0     H60943   7.181   3.935   9.986 -0.2975 -1.3045 -0.6240
  462MOL0     H60944   7.169   4.180  10.086 -2.0998 -1.8600  2.3431
  462MOL0     H60945   7.337   4.156  10.147  0.1124  1.2560 -2.8960
  462MOL0     H60946   7.051   3.975  10.461  1.2140  0.1591  2.8556
  462MOL0     H60947   6.901   4.109  10.591 -1.7040  0.8819  0.0147
  462MOL0     H60948   6.538   4.380  10.542 -1.0144  0.0610  0.8695
  462MOL0     H60949   6.382   4.528  10.627 -0.5910 -0.0686  0.7733
  462MOL0     H60950   6.230   4.516  10.898  3.5022  0.2857  2.0777
  462MOL0     H60951   6.235   4.635  10.754  2.0007 -1.9140 -1.0526
  462MOL0     H60952   6.118   4.780  10.866 -0.7144 -0.6475 -0.0112
  462MOL0     H60953   6.223   4.766  11.016 -0.6499  1.8940 -0.1880
  462MOL0     H60954   6.131   4.560  11.087 -0.2284  0.2871 -0.6199
  462MOL0     H60955   6.002   4.565  10.963  0.3853  0.9737 -1.5722
  462MOL0     H60956   5.953   4.664  11.196  3.1119 -2.3027 -0.6975
  462MOL0     H60957   6.082   4.775  11.177 -0.5296  1.0411 -0.1700
  462MOL0     H60958   5.819   4.763  11.030  1.7391 -1.7179 -0.4755
  462MOL0     H60959   5.938   4.891  10.980  0.9676 -0.0097 -0.1154
  462MOL0     H60960   5.927   4.985  11.208  0.2707 -0.3388 -0.1251
  462MOL0     H60961   5.800   4.866  11.246 -0.2623  1.2768  1.9577
  462MOL0     H60962   5.782   5.095  11.050  0.4634  0.0282 -0.5004
  462MOL0     H60963   5.685   4.953  11.030 -0.8217 -0.5186  0.5984
  462MOL0     H60964   5.682   5.142  11.281  0.1545  0.9056 -0.6423
  462MOL0     H60965   5.617   4.979  11.290  1.9672 -1.1926  0.1260
  462MOL0     H60966   6.592   4.541  11.000 -1.7175  2.5054 -1.4761
  462MOL0     H60967   6.773   4.412  10.911 -0.7449 -1.3600 -1.2112
  462MOL0     H60968   7.035   4.462  10.395  0.0121  0.1008 -0.9459
  462MOL0     H60969   7.176   4.322  10.253  0.9315  2.4247  2.1365
  462MOL0     H60970   8.217   2.583  10.483 -2.8081  0.8015  2.1033
  462MOL0     H60971   8.481   2.507  10.477  0.1006  1.0604 -1.2457
  462MOL0     H60972   8.845   2.244  10.593  1.7781 -3.1663  3.6336
  462MOL0     H60973   9.078   2.214  10.580  0.0147  0.1467 -1.0217
  462MOL0     H60974   9.321   2.302  10.460 -3.8480  0.7765  0.2934
  462MOL0     H60975   9.285   2.218  10.610  0.8915 -0.5311 -0.9019
  462MOL0     H60976   9.506   2.296  10.708 -1.1811 -1.2404 -0.1579
  462MOL0     H60977   9.523   2.227  10.547 -2.3972 -2.5326  2.5743
  462MOL0     H60978   9.542   2.525  10.630 -2.2814 -0.8568  0.4834
  462MOL0     H60979   9.515   2.487  10.458 -2.0020 -2.7757 -0.6351
  462MOL0     H60980   9.733   2.360  10.630  3.3084 -0.3744 -1.0440
  462MOL0     H60981   9.727   2.367  10.455  1.5013  0.2475  0.9753
  462MOL0     H60982   9.880   2.748  10.526 -1.9729 -0.1361  0.2452
  462MOL0     H60983   9.142   2.633  10.700  1.0823 -0.7917 -1.7225
  462MOL0     H60984   8.884   2.640  10.737 -0.9572  1.0929 -1.8816
  463MOL0     O60985   1.278   3.994   1.646 -0.1018  0.2805  0.1232
  463MOL0     C60986   1.213   4.055   1.727  0.1098 -0.4676 -0.4991
  463MOL0     O60987   1.181   4.015   1.852 -0.0858 -0.0618  0.1733
  463MOL0     C60988   1.206   3.886   1.891  0.2778 -0.4309  0.3818
  463MOL0     C60989   1.099   3.806   1.925  0.8325 -0.2811  0.5335
  463MOL0     C60990   1.109   3.680   1.978  1.7070  0.0585 -0.2437
  463MOL0     C60991   1.242   3.635   2.007  0.2452 -0.0999 -0.2247
  463MOL0     O60992   1.244   3.512   2.068  0.0468 -0.6905 -0.5654
  463MOL0     C60993   1.342   3.481   2.166 -0.2060 -0.6994  0.1826
  463MOL0     C60994   1.282   3.380   2.264 -0.7604 -0.6720  0.2506
  463MOL0     C60995   1.183   3.433   2.373  0.1637 -0.0282 -0.6869
  463MOL0     C60996   1.041   3.465   2.323  0.5083 -0.5147  0.9266
  463MOL0     C60997   0.932   3.393   2.397 -0.1800  0.5616 -0.0405
  463MOL0     C60998   0.794   3.453   2.380  0.2883  0.3122 -0.0975
  463MOL0     C60999   0.688   3.345   2.402 -0.2748  0.5720 -0.0884
  463MOL0     C61000   0.544   3.403   2.419 -0.0846 -0.5037  0.2340
  463MOL0     N61001   0.539   3.508   2.518  0.0907 -0.7212  0.1959
  463MOL0     C61002   0.540   3.640   2.487  0.4034  0.2736  0.2049
  463MOL0     C61003   0.508   3.706   2.604  0.4198  0.0935 -0.4474
  463MOL0     C61004   0.504   3.848   2.636 -0.0803  0.3959  0.2939
  463MOL0     C61005   0.641   3.904   2.662 -0.0606 -0.9876  0.2737
  463MOL0     C61006   0.656   4.060   2.648  0.3666  1.0086 -0.1432
  463MOL0     C61007   0.804   4.103   2.687  0.2125  0.1606 -0.2085
  463MOL0     O61008   0.823   4.224   2.620 -0.1410  0.2766  0.0260
  463MOL0     C61009   0.941   4.295   2.635  0.4926 -0.1278  0.1852
  463MOL0     C61010   1.047   4.258   2.716 -0.3975 -0.9785 -0.7531
  463MOL0     C61011   1.161   4.339   2.739  0.3603 -0.6791 -0.1884
  463MOL0     C61012   1.184   4.455   2.665  0.3991  0.0156  0.6105
  463MOL0     C61013   1.296   4.539   2.698 -0.1941  0.3602 -0.0306
  463MOL0     O61014   1.412   4.477   2.751 -0.5482 -0.3671 -0.1948
  463MOL0     C61015   1.516   4.557   2.788 -0.7656 -0.6853 -0.2581
  463MOL0     C61016   1.649   4.513   2.768  0.2391  0.0029  1.1180
  463MOL0     C61017   1.755   4.585   2.817 -0.0937 -0.9534 -0.7825
  463MOL0     C61018   1.729   4.702   2.897 -0.1056  1.0572 -0.0860
  463MOL0     O61019   1.822   4.777   2.968 -0.3835 -0.0242 -0.0569
  463MOL0     C61020   1.948   4.797   2.899 -0.0378 -0.1166  0.1774
  463MOL0     C61021   1.936   4.947   2.857  0.5094 -0.4560 -0.5360
  463MOL0     C61022   2.054   4.978   2.759  0.5590 -0.0267 -0.0968
  463MOL0     C61023   2.063   5.131   2.733  0.2320  0.3159  0.1116
  463MOL0     C61024   2.149   5.149   2.606  0.5535 -1.2446 -0.1772
  463MOL0     C61025   2.292   5.093   2.602 -0.4126 -0.7979  0.6069
  463MOL0     C61026   2.386   5.120   2.717 -1.1596 -0.3818  0.0937
  463MOL0     C61027   2.530   5.115   2.686  0.2074  0.3473  0.0673
  463MOL0    Cl61028   2.587   4.946   2.634 -0.1311 -0.1110 -0.3071
  463MOL0     C61029   1.601   4.742   2.917 -0.1647 -0.4550  0.3417
  463MOL0     C61030   1.495   4.676   2.861 -0.4092 -0.4107 -0.1749
  463MOL0     O61031   1.285   4.661   2.680 -0.2581  0.1392  0.3172
  463MOL0     C61032   1.080   4.501   2.578 -0.3135  0.4205  0.2937
  463MOL0     C61033   0.969   4.415   2.549  0.0988 -0.0516 -0.2660
  463MOL0     N61034   0.486   3.613   2.703 -0.3298  0.7113 -0.1064
  463MOL0     N61035   0.509   3.491   2.647  0.2036 -0.0300 -0.5222
  463MOL0     C61036   1.355   3.703   1.957  1.1591 -1.0416 -0.1892
  463MOL0     C61037   1.332   3.826   1.899 -0.0746 -0.0155  0.0469
  463MOL0     C61038   1.161   4.188   1.683 -0.4329 -0.2007  0.5306
  463MOL0     C61039   1.088   4.268   1.771  0.7206 -0.1916 -0.2006
  463MOL0     C61040   1.048   4.398   1.734 -0.2843  0.9307 -0.0966
  463MOL0     C61041   1.097   4.465   1.622 -0.7088 -0.2954 -0.2913
  463MOL0     O61042   1.047   4.585   1.575  1.2971  0.1332 -0.9570
  463MOL0     C61043   0.989   4.670   1.675 -0.8923  0.5519 -0.4354
  463MOL0     C61044   1.015   4.822   1.642 -0.0422 -0.5817  0.6991
  463MOL0     C61045   0.937   4.871   1.522 -0.0749  0.2891  0.2002
  463MOL0     C61046   0.796   4.809   1.522  0.5797 -0.5107 -0.1646
  463MOL0     C61047   0.712   4.868   1.415 -0.2981 -0.1845 -0.4892
  463MOL0     C61048   0.644   4.887   1.315 -0.4569  0.5348 -0.0382
  463MOL0     C61049   1.184   4.392   1.538  0.2146  0.4115 -0.4154
  463MOL0     C61050   1.211   4.251   1.565  0.7204 -0.1501  0.6476
  463MOL0     H61051   1.001   3.851   1.910  1.5161  2.6573  3.6761
  463MOL0     H61052   1.018   3.630   2.010  0.7976 -0.7181 -3.6732
  463MOL0     H61053   1.369   3.569   2.224  1.3299  0.6076 -2.3435
  463MOL0     H61054   1.432   3.441   2.118 -1.3163  1.0481 -3.7135
  463MOL0     H61055   1.375   3.361   2.319  1.0210  0.0423 -2.3158
  463MOL0     H61056   1.246   3.297   2.204 -0.5439  0.6928 -1.8506
  463MOL0     H61057   1.232   3.517   2.423  0.6123 -0.3819 -0.5191
  463MOL0     H61058   1.170   3.352   2.444  2.5051 -1.8251 -2.1394
  463MOL0     H61059   1.024   3.573   2.324 -0.2302 -0.6148  0.2441
  463MOL0     H61060   1.021   3.439   2.219 -0.7061  0.1258  0.9770
  463MOL0     H61061   0.947   3.391   2.506 -1.1441 -1.3483  0.0889
  463MOL0     H61062   0.935   3.288   2.367  2.4052  0.4351  0.4777
  463MOL0     H61063   0.783   3.496   2.280 -1.8973  3.2043  1.2280
  463MOL0     H61064   0.774   3.531   2.453 -1.5518  0.1057 -0.3207
  463MOL0     H61065   0.685   3.262   2.330 -3.9207  1.3205 -1.0128
  463MOL0     H61066   0.706   3.307   2.503 -2.2547  0.5653  0.2977
  463MOL0     H61067   0.479   3.318   2.441  0.9397 -1.2309  0.5555
  463MOL0     H61068   0.514   3.440   2.321  1.6125  0.5855  0.0815
  463MOL0     H61069   0.554   3.685   2.390 -1.3018 -0.0862 -0.2313
  463MOL0     H61070   0.440   3.866   2.723 -0.5173  0.6634 -0.0803
  463MOL0     H61071   0.461   3.890   2.545 -1.1362 -0.9063  0.1606
  463MOL0     H61072   0.714   3.851   2.600  2.2485 -0.4653  2.4204
  463MOL0     H61073   0.670   3.886   2.766  1.1035  1.4138  0.4398
  463MOL0     H61074   0.640   4.069   2.540 -0.8533 -1.0170 -0.1938
  463MOL0     H61075   0.578   4.112   2.705 -2.0116 -0.1198 -2.1475
  463MOL0     H61076   0.875   4.032   2.644  0.9064  1.0162 -0.5026
  463MOL0     H61077   0.811   4.124   2.794 -0.8938  1.4017 -0.3522
  463MOL0     H61078   1.039   4.165   2.772 -1.1234 -0.2799  0.3240
  463MOL0     H61079   1.234   4.313   2.815  1.2541 -1.3223 -1.2277
  463MOL0     H61080   1.659   4.419   2.715 -1.3092 -1.4444  3.2376
  463MOL0     H61081   1.855   4.549   2.794  0.8371  1.9970 -1.8346
  463MOL0     H61082   1.957   4.724   2.817  0.7188  0.5932 -0.3975
  463MOL0     H61083   2.034   4.794   2.967  0.1353 -0.0112 -0.0351
  463MOL0     H61084   1.953   5.000   2.952  0.5783 -3.1618  1.0678
  463MOL0     H61085   1.845   4.972   2.802  0.4030 -1.4157 -0.8041
  463MOL0     H61086   2.032   4.931   2.663  1.0794 -1.6630  0.5454
  463MOL0     H61087   2.145   4.931   2.798 -0.7666 -2.6255  0.0845
  463MOL0     H61088   1.963   5.169   2.711  1.3657  2.2003 -2.2003
  463MOL0     H61089   2.115   5.181   2.815  2.9301 -2.5388  0.3417
  463MOL0     H61090   2.158   5.256   2.583 -2.4393 -0.4497  1.8031
  463MOL0     H61091   2.095   5.111   2.519  2.3330 -0.9475 -1.4786
  463MOL0     H61092   2.336   5.141   2.513 -2.2630  2.0257  1.0854
  463MOL0     H61093   2.291   4.985   2.583 -0.5019 -0.6611 -0.2381
  463MOL0     H61094   2.363   5.215   2.765 -1.0733 -0.7634  0.9010
  463MOL0     H61095   2.357   5.036   2.782 -1.2228 -1.1197 -0.8557
  463MOL0     H61096   2.584   5.149   2.775  0.1037  0.0287  0.2564
  463MOL0     H61097   2.553   5.182   2.603 -0.4777 -2.0939 -2.2311
  463MOL0     H61098   1.565   4.824   2.978 -1.1576  0.2268 -1.0972
  463MOL0     H61099   1.399   4.715   2.893  1.0392  1.1594  2.7226
  463MOL0     H61100   1.092   4.593   2.521  0.7260  0.4556  0.5506
  463MOL0     H61101   0.898   4.445   2.472 -0.6749  0.1971  0.5363
  463MOL0     H61102   1.450   3.652   1.966  1.6435  0.0913  2.2220
  463MOL0     H61103   1.419   3.871   1.852 -1.0816  2.2930  0.2615
  463MOL0     H61104   1.042   4.231   1.862 -2.5419  1.4437 -1.0210
  463MOL0     H61105   0.974   4.443   1.800 -1.3060  0.3700 -0.8306
  463MOL0     H61106   1.049   4.654   1.765  1.5064  0.5243 -1.9410
  463MOL0     H61107   0.884   4.643   1.688 -0.8022 -1.0616 -2.4848
  463MOL0     H61108   0.981   4.879   1.729 -0.7957 -1.1071  0.7538
  463MOL0     H61109   1.119   4.852   1.624 -0.7401  1.6172 -0.0139
  463MOL0     H61110   0.983   4.839   1.428 -2.2222 -1.6099 -0.3136
  463MOL0     H61111   0.944   4.978   1.503  3.3389 -0.2211 -2.2808
  463MOL0     H61112   0.796   4.701   1.510  1.0648 -0.5127 -0.1741
  463MOL0     H61113   0.749   4.836   1.616 -0.0442  1.3755 -0.9620
  463MOL0     H61114   0.583   4.887   1.227  0.3014  0.8890 -0.5846
  463MOL0     H61115   1.218   4.431   1.442  3.6791 -2.3000 -0.4910
  463MOL0     H61116   1.272   4.198   1.493 -1.0656 -0.6000 -0.5935
  464MOL0     O61117   1.142   4.175   7.024  0.5524  0.3210  0.3304
  464MOL0     C61118   1.144   4.074   6.949 -0.5555 -0.3703  0.4306
  464MOL0     O61119   1.037   3.984   6.924 -0.5057  0.2622 -0.1926
  464MOL0     C61120   0.907   4.000   6.973 -1.2061 -0.2885  0.5477
  464MOL0     C61121   0.848   4.123   7.001  0.2699  0.6660 -0.4461
  464MOL0     C61122   0.710   4.123   7.027 -0.3210  0.0709 -0.2957
  464MOL0     C61123   0.632   4.006   7.042 -0.1029 -0.3529  0.5575
  464MOL0     O61124   0.495   4.018   7.058 -0.0568 -1.0951  0.1463
  464MOL0     C61125   0.443   3.937   7.165 -0.0637 -0.8395 -0.3746
  464MOL0     C61126   0.303   3.885   7.151  0.1667 -0.4302 -0.6847
  464MOL0     C61127   0.255   3.824   7.281  0.8405  0.1179  0.2472
  464MOL0     C61128   0.096   3.803   7.277 -0.1744 -0.0770  0.6891
  464MOL0     C61129   0.045   3.735   7.401  0.5923  0.3415 -0.8203
  464MOL0     C61130  -0.109   3.771   7.405 -0.0821  1.0877 -0.4027
  464MOL0     C61131  -0.198   3.708   7.522 -0.0271  0.0153 -0.4453
  464MOL0     C61132  -0.228   3.560   7.502 -0.0190  0.2572  0.3283
  464MOL0     N61133  -0.285   3.507   7.620  0.6082  0.3170  0.8300
  464MOL0     C61134  -0.412   3.534   7.649 -0.4964 -1.5687 -0.1067
  464MOL0     C61135  -0.436   3.450   7.744  0.9061  0.1299 -0.6129
  464MOL0     C61136  -0.576   3.442   7.809  0.5526 -0.9907 -0.3512
  464MOL0     C61137  -0.646   3.306   7.791  0.6295 -0.3206  0.7881
  464MOL0     C61138  -0.780   3.281   7.860 -0.0146 -0.1470 -0.1255
  464MOL0     C61139  -0.889   3.285   7.766  1.0126 -0.5011 -0.9785
  464MOL0     O61140  -1.003   3.215   7.818  0.2720 -0.6507  0.3850
  464MOL0     C61141  -1.119   3.189   7.741 -0.6295  0.1122  0.0993
  464MOL0     C61142  -1.126   3.228   7.606 -0.5767 -0.4308 -0.6761
  464MOL0     C61143  -1.248   3.222   7.533  0.2051 -0.0376 -0.7834
  464MOL0     C61144  -1.365   3.180   7.595 -0.0673  0.4496  0.7048
  464MOL0     C61145  -1.497   3.165   7.519 -0.6370  1.4798  0.0920
  464MOL0     O61146  -1.609   3.127   7.596  0.3543  0.2432  0.3553
  464MOL0     C61147  -1.723   3.128   7.523 -0.2333 -0.3657  0.2899
  464MOL0     C61148  -1.829   3.217   7.525  0.4709  0.6387  0.1518
  464MOL0     C61149  -1.930   3.219   7.433 -1.0180 -0.2315 -0.2338
  464MOL0     C61150  -1.940   3.117   7.338 -1.1384 -0.2176 -0.2259
  464MOL0     O61151  -2.031   3.137   7.240 -0.3881 -0.4613  0.0987
  464MOL0     C61152  -2.006   3.086   7.108  0.1682  0.7372 -0.1646
  464MOL0     C61153  -1.895   3.178   7.041 -0.0464  0.0450 -0.9143
  464MOL0     C61154  -1.908   3.155   6.893 -0.0432 -0.5860 -0.2204
  464MOL0     C61155  -1.790   3.226   6.813 -0.4851  0.3537  0.3208
  464MOL0     C61156  -1.833   3.349   6.741 -0.0256  0.0682 -0.2190
  464MOL0     C61157  -1.717   3.431   6.696 -0.0721  0.7852 -0.2156
  464MOL0     C61158  -1.760   3.575   6.645  0.1193  0.1573 -0.1220
  464MOL0     C61159  -1.795   3.689   6.749 -0.1699 -0.0416  0.6499
  464MOL0    Cl61160  -1.636   3.723   6.841  0.1800 -0.2608  0.2000
  464MOL0     C61161  -1.837   3.016   7.336  0.3120 -0.0640 -0.6514
  464MOL0     C61162  -1.734   3.022   7.431  0.5989 -0.4384 -0.3072
  464MOL0     O61163  -1.495   3.179   7.400 -0.0428 -0.6480  0.7085
  464MOL0     C61164  -1.357   3.133   7.724 -0.2342 -1.0315 -1.0935
  464MOL0     C61165  -1.235   3.144   7.801  0.4908 -0.3419 -0.4747
  464MOL0     N61166  -0.325   3.381   7.779 -0.3868 -0.1786  0.1474
  464MOL0     N61167  -0.226   3.422   7.696  0.4185 -0.0847 -0.1107
  464MOL0     C61168   0.691   3.881   7.017 -0.4206 -0.3256  0.4912
  464MOL0     C61169   0.832   3.878   6.972 -0.1382 -0.5677 -0.3178
  464MOL0     C61170   1.265   4.059   6.861  0.7566 -1.1603 -0.4064
  464MOL0     C61171   1.277   3.969   6.750  0.2095 -0.1704 -1.0601
  464MOL0     C61172   1.394   3.953   6.684 -0.3150 -0.0317 -0.5209
  464MOL0     C61173   1.507   4.020   6.718 -0.7053 -0.3410 -0.5590
  464MOL0     O61174   1.613   4.005   6.629 -0.4554  0.5649  0.2002
  464MOL0     C61175   1.730   4.089   6.628 -0.2154 -0.1962  0.3854
  464MOL0     C61176   1.778   4.086   6.487 -0.8154 -0.5553 -0.4818
  464MOL0     C61177   1.916   4.150   6.469 -0.6104  0.8359  0.2476
  464MOL0     C61178   2.033   4.071   6.528  0.6263 -0.3661 -0.2395
  464MOL0     C61179   2.158   4.117   6.477 -0.9503  0.1999 -0.2000
  464MOL0     C61180   2.262   4.168   6.437  0.4890  0.9892 -0.5909
  464MOL0     C61181   1.497   4.127   6.817 -1.0264  0.0862 -0.1092
  464MOL0     C61182   1.380   4.133   6.893 -0.5105 -0.1305  0.4036
  464MOL0     H61183   0.899   4.217   7.015  0.5816  1.1228 -3.9017
  464MOL0     H61184   0.677   4.223   7.053  0.7368  0.3015  0.2205
  464MOL0     H61185   0.447   3.997   7.256 -0.6039  0.5820 -1.2427
  464MOL0     H61186   0.509   3.851   7.179  1.6228  0.3156 -0.8111
  464MOL0     H61187   0.279   3.811   7.074 -2.7574  0.2259 -0.4928
  464MOL0     H61188   0.237   3.969   7.129  0.4887 -0.1655 -0.6629
  464MOL0     H61189   0.274   3.878   7.374  0.1009  1.8032 -0.5347
  464MOL0     H61190   0.309   3.729   7.288  1.9420  0.4734 -2.4274
  464MOL0     H61191   0.066   3.909   7.276  5.0510  1.7933 -3.1509
  464MOL0     H61192   0.062   3.752   7.187  1.9230 -0.7971  0.2399
  464MOL0     H61193   0.091   3.773   7.493  1.4091 -0.7639 -0.7499
  464MOL0     H61194   0.057   3.626   7.396  1.1998  0.4624 -2.1609
  464MOL0     H61195  -0.155   3.732   7.314  1.6778 -2.3636 -0.0183
  464MOL0     H61196  -0.121   3.879   7.401 -3.1467  0.8270 -0.4415
  464MOL0     H61197  -0.154   3.731   7.620 -0.2266 -0.4613 -0.2411
  464MOL0     H61198  -0.287   3.772   7.521 -0.5159 -0.6554 -0.6333
  464MOL0     H61199  -0.134   3.510   7.477 -0.6011 -0.3405 -0.6920
  464MOL0     H61200  -0.297   3.550   7.418 -1.8296  0.9138  1.6854
  464MOL0     H61201  -0.473   3.609   7.599 -0.0700  0.3322  2.0456
  464MOL0     H61202  -0.652   3.510   7.770 -0.9098 -1.4950  1.5206
  464MOL0     H61203  -0.576   3.455   7.917  1.1358  1.0619 -0.5602
  464MOL0     H61204  -0.569   3.240   7.833  1.3993  0.3043  0.3833
  464MOL0     H61205  -0.661   3.287   7.684 -2.2258  3.6082  0.2691
  464MOL0     H61206  -0.780   3.180   7.902 -1.6020 -0.5390 -0.9950
  464MOL0     H61207  -0.795   3.353   7.941  1.6569 -0.7569  0.7781
  464MOL0     H61208  -0.848   3.240   7.675  2.7130  0.1886 -0.5897
  464MOL0     H61209  -0.911   3.390   7.747 -1.2319 -0.8082 -0.3529
  464MOL0     H61210  -1.031   3.250   7.560  1.1009 -1.4377  2.0548
  464MOL0     H61211  -1.252   3.246   7.427 -2.3545 -0.4479 -0.8481
  464MOL0     H61212  -1.816   3.299   7.596 -3.5570  0.0972  1.7330
  464MOL0     H61213  -1.995   3.306   7.431 -3.2805 -1.7899  1.0751
  464MOL0     H61214  -2.098   3.089   7.049  0.2758  1.0655 -0.3182
  464MOL0     H61215  -1.968   2.984   7.111  1.7613  1.2277 -1.8790
  464MOL0     H61216  -1.794   3.154   7.074  0.0633  2.6042  0.9270
  464MOL0     H61217  -1.917   3.283   7.063  2.3976  0.0821  2.0257
  464MOL0     H61218  -2.003   3.187   6.851  0.2741  1.0271  0.2256
  464MOL0     H61219  -1.899   3.048   6.872  4.1784 -0.6677  1.0934
  464MOL0     H61220  -1.716   3.260   6.886 -0.5035 -1.2014  1.1092
  464MOL0     H61221  -1.756   3.155   6.737 -1.2946 -0.6621  0.8914
  464MOL0     H61222  -1.892   3.405   6.814  3.2486  1.3015  1.7231
  464MOL0     H61223  -1.902   3.334   6.657  1.5439  3.6133 -2.3810
  464MOL0     H61224  -1.667   3.373   6.618  0.6622  1.6529 -0.4093
  464MOL0     H61225  -1.648   3.434   6.781 -2.9856 -1.0341  2.4142
  464MOL0     H61226  -1.678   3.603   6.578 -0.9721  1.2757 -1.0335
  464MOL0     H61227  -1.847   3.563   6.580  0.6367  1.2405 -1.0516
  464MOL0     H61228  -1.873   3.654   6.818 -1.7410  0.1682 -0.9612
  464MOL0     H61229  -1.836   3.776   6.697  1.3692  1.4149  1.7454
  464MOL0     H61230  -1.830   2.940   7.260 -0.5350  0.2956 -1.0939
  464MOL0     H61231  -1.647   2.957   7.421 -0.7024 -2.1754 -0.8902
  464MOL0     H61232  -1.453   3.104   7.766 -0.5284  1.2682  0.0041
  464MOL0     H61233  -1.218   3.110   7.903  2.5105 -2.3798 -1.4011
  464MOL0     H61234   0.635   3.788   7.016 -0.5112 -0.2700  0.4656
  464MOL0     H61235   0.877   3.786   6.939  0.8614 -0.2176  0.0229
  464MOL0     H61236   1.188   3.915   6.718  1.6986 -4.2073  0.9363
  464MOL0     H61237   1.407   3.886   6.600  0.6710  0.8047 -1.0582
  464MOL0     H61238   1.807   4.055   6.697  0.2845  1.3808  0.6311
  464MOL0     H61239   1.696   4.192   6.641  0.2369  0.3050 -1.9462
  464MOL0     H61240   1.776   3.984   6.447 -0.9700 -1.0748  0.7930
  464MOL0     H61241   1.709   4.154   6.437  0.9054 -0.4944 -2.9512
  464MOL0     H61242   1.909   4.247   6.519 -2.8529  1.5368 -1.2478
  464MOL0     H61243   1.916   4.149   6.360 -0.0394  0.2692  0.2471
  464MOL0     H61244   2.027   4.090   6.636  0.8960 -2.3559  0.1672
  464MOL0     H61245   2.018   3.965   6.507 -1.3139 -0.5137  1.5495
  464MOL0     H61246   2.346   4.192   6.375  1.5837  1.2278  0.9218
  464MOL0     H61247   1.582   4.191   6.839 -0.1944 -0.2324 -2.1272
  464MOL0     H61248   1.385   4.189   6.986 -0.0978 -0.3761  0.5366
  465MOL0     O61249   0.928  11.027   5.819 -0.2332 -0.2163  0.3895
  465MOL0     C61250   0.931  10.906   5.846 -0.2735 -0.8945  0.6225
  465MOL0     O61251   1.038  10.833   5.887  0.1005 -0.2276  0.1963
  465MOL0     C61252   1.164  10.885   5.869  0.0547 -1.1279 -0.0192
  465MOL0     C61253   1.244  10.929   5.980  0.8994  0.3578  0.1491
  465MOL0     C61254   1.360  11.000   5.961 -0.0862  0.4026  0.3561
  465MOL0     C61255   1.408  11.016   5.829 -0.2990 -0.0595  0.0979
  465MOL0     O61256   1.537  11.074   5.812  0.4976  0.2446 -0.3695
  465MOL0     C61257   1.567  11.157   5.701  0.7658 -0.1337 -0.1999
  465MOL0     C61258   1.618  11.287   5.750  0.2349 -0.2332 -0.8944
  465MOL0     C61259   1.513  11.364   5.832  0.0904 -0.4207 -0.7339
  465MOL0     C61260   1.554  11.503   5.873 -0.2932 -0.0293 -0.0625
  465MOL0     C61261   1.426  11.567   5.939 -0.2865 -0.3316 -0.0695
  465MOL0     C61262   1.457  11.710   5.985 -0.1660 -0.6417  0.1080
  465MOL0     C61263   1.343  11.792   6.046 -0.7556  1.1408 -0.5420
  465MOL0     C61264   1.248  11.851   5.949 -0.3135 -0.0565  0.1691
  465MOL0     N61265   1.114  11.854   6.006 -0.6013 -0.9154  0.0043
  465MOL0     C61266   1.078  11.938   6.109 -0.3560 -0.0453  0.3805
  465MOL0     C61267   0.957  11.900   6.151 -0.1458  0.1420  0.2041
  465MOL0     C61268   0.890  11.955   6.272  0.8354 -0.3224  0.0766
  465MOL0     C61269   0.742  12.007   6.247 -0.7463 -0.2311 -0.0733
  465MOL0     C61270   0.643  11.892   6.270  0.6286 -0.6704 -1.4426
  465MOL0     C61271   0.497  11.934   6.237 -0.7979  0.0361  0.4645
  465MOL0     O61272   0.455  12.062   6.283 -0.2497  0.6508  0.8289
  465MOL0     C61273   0.424  12.082   6.418 -0.6003 -0.2278  0.3029
  465MOL0     C61274   0.428  12.220   6.451  0.0109  0.3507  0.1990
  465MOL0     C61275   0.389  12.259   6.580  0.3266 -0.1437  0.0833
  465MOL0     C61276   0.347  12.164   6.674 -0.1774  0.6288 -0.3281
  465MOL0     C61277   0.315  12.204   6.812 -0.3402  0.1106  1.1170
  465MOL0     O61278   0.238  12.113   6.886 -0.2372 -0.1536  0.0985
  465MOL0     C61279   0.192  12.156   7.005  0.3524  1.0005 -0.3890
  465MOL0     C61280   0.261  12.112   7.120 -0.4582 -0.0746 -0.3093
  465MOL0     C61281   0.229  12.148   7.252  0.4149 -0.1370 -0.4935
  465MOL0     C61282   0.135  12.253   7.266  0.2709  0.4639 -0.2767
  465MOL0     O61283   0.096  12.316   7.385 -0.5992  0.6334 -0.5601
  465MOL0     C61284   0.187  12.332   7.502 -0.2049  0.0424  0.2019
  465MOL0     C61285   0.337  12.367   7.471 -0.3029 -0.0794 -0.3642
  465MOL0     C61286   0.424  12.406   7.591 -0.5219 -0.1333  0.0500
  465MOL0     C61287   0.562  12.456   7.547 -0.1528  0.4266  0.0854
  465MOL0     C61288   0.642  12.512   7.656  0.2934 -0.1800 -0.5502
  465MOL0     C61289   0.796  12.527   7.636  0.2954  0.2002 -0.4807
  465MOL0     C61290   0.855  12.572   7.768 -0.6679  0.1744  0.0388
  465MOL0     C61291   1.014  12.584   7.754  0.8599 -0.7040  0.1921
  465MOL0    Cl61292   1.027  12.712   7.628  0.1397 -0.0163  0.1036
  465MOL0     C61293   0.056  12.295   7.148 -0.1186 -0.1741  0.1664
  465MOL0     C61294   0.091  12.250   7.024 -0.2781 -0.6408  0.2407
  465MOL0     O61295   0.348  12.315   6.854  0.1646  0.1643  0.7934
  465MOL0     C61296   0.342  12.030   6.640  0.9009 -0.4425  0.8513
  465MOL0     C61297   0.389  11.989   6.516 -0.4166  0.1562  0.3569
  465MOL0     N61298   0.905  11.816   6.054  0.5301  1.0431  0.5622
  465MOL0     N61299   1.000  11.779   5.978 -0.4154  0.9528 -0.0599
  465MOL0     C61300   1.337  10.964   5.720  0.2578  0.3122  0.0232
  465MOL0     C61301   1.210  10.901   5.735 -0.1502 -0.1199  0.6261
  465MOL0     C61302   0.804  10.837   5.859 -0.1602  0.0558 -0.4051
  465MOL0     C61303   0.795  10.701   5.888  0.2784 -0.7292  0.0320
  465MOL0     C61304   0.664  10.645   5.898 -0.0907  0.5464  0.3699
  465MOL0     C61305   0.546  10.717   5.899 -1.1102  0.2566  0.8267
  465MOL0     O61306   0.429  10.646   5.935 -0.6349  0.2417  0.6790
  465MOL0     C61307   0.319  10.719   5.998 -0.0619  0.1622 -0.3719
  465MOL0     C61308   0.217  10.609   6.053  1.0690 -0.2874 -0.1025
  465MOL0     C61309   0.153  10.540   5.930 -0.4563 -0.1808 -0.0479
  465MOL0     C61310   0.071  10.419   5.976 -0.0702  0.8216  0.1632
  465MOL0     C61311  -0.054  10.456   6.046  0.3709 -0.6589  0.2307
  465MOL0     C61312  -0.153  10.479   6.113 -0.1843  0.6039 -0.1869
  465MOL0     C61313   0.555  10.852   5.868 -0.3018 -0.2504  0.8804
  465MOL0     C61314   0.678  10.912   5.846  0.2518 -0.0344 -0.5368
  465MOL0     H61315   1.212  10.910   6.082 -1.7132  1.8887 -0.2688
  465MOL0     H61316   1.417  11.038   6.045  0.4040  1.2764 -0.3571
  465MOL0     H61317   1.474  11.179   5.648  0.4336  2.0911  1.1422
  465MOL0     H61318   1.639  11.107   5.637  0.6857  2.0637 -2.1316
  465MOL0     H61319   1.666  11.351   5.675 -1.0069  3.2728  1.0704
  465MOL0     H61320   1.702  11.264   5.816  0.9379  0.1628 -1.6193
  465MOL0     H61321   1.488  11.314   5.926 -0.8456  0.0923 -0.6993
  465MOL0     H61322   1.423  11.377   5.770 -0.1466 -1.8329 -0.7155
  465MOL0     H61323   1.634  11.498   5.948 -2.5681 -0.9583  2.4603
  465MOL0     H61324   1.575  11.563   5.785 -1.5440 -0.8566 -0.9549
  465MOL0     H61325   1.393  11.504   6.022 -0.2795 -2.9047 -1.9260
  465MOL0     H61326   1.343  11.575   5.867  1.6625  2.3993 -2.2258
  465MOL0     H61327   1.498  11.774   5.907 -0.3866 -0.9404 -0.2602
  465MOL0     H61328   1.529  11.689   6.064 -0.8198 -0.1848  0.8380
  465MOL0     H61329   1.292  11.717   6.107  1.6789  0.5421  0.9082
  465MOL0     H61330   1.385  11.868   6.112  0.0911 -0.6793  1.1351
  465MOL0     H61331   1.251  11.800   5.852  0.8965  0.4670 -0.0893
  465MOL0     H61332   1.278  11.955   5.932 -0.0993 -0.3032 -1.0422
  465MOL0     H61333   1.147  12.009   6.154  1.4739 -0.0421 -2.2253
  465MOL0     H61334   0.951  12.025   6.331  2.9314 -1.6747 -0.3623
  465MOL0     H61335   0.884  11.871   6.342 -0.3895  0.0559  0.4402
  465MOL0     H61336   0.740  12.041   6.143 -0.0412 -0.5797 -0.2097
  465MOL0     H61337   0.714  12.082   6.321  2.8679  2.0628 -0.7632
  465MOL0     H61338   0.676  11.803   6.215 -0.7845 -1.0750 -1.6832
  465MOL0     H61339   0.639  11.872   6.377  2.3448  3.1632 -0.5095
  465MOL0     H61340   0.435  11.846   6.252  0.4754 -1.0354 -0.3339
  465MOL0     H61341   0.505  11.947   6.128  1.4036  2.6521  0.8395
  465MOL0     H61342   0.455  12.293   6.375  0.8206 -1.3840 -1.2659
  465MOL0     H61343   0.378  12.363   6.609  0.9415 -0.4986  1.6517
  465MOL0     H61344   0.342  12.040   7.109 -0.3983 -0.8512  3.8119
  465MOL0     H61345   0.269  12.099   7.340 -0.9818 -0.7309 -0.1537
  465MOL0     H61346   0.185  12.238   7.557  0.2131  0.7860  1.5405
  465MOL0     H61347   0.145  12.411   7.567 -1.9025  2.9700 -3.9982
  465MOL0     H61348   0.354  12.448   7.399  0.8431 -1.0191 -1.1722
  465MOL0     H61349   0.390  12.279   7.436 -0.7101  0.8020 -3.6399
  465MOL0     H61350   0.446  12.324   7.659  1.1547  1.0820  1.0221
  465MOL0     H61351   0.386  12.484   7.658 -0.2498  0.4844 -0.5047
  465MOL0     H61352   0.619  12.377   7.497  2.3996  3.8109 -2.8148
  465MOL0     H61353   0.553  12.528   7.465 -2.1527 -2.0747 -2.0759
  465MOL0     H61354   0.627  12.452   7.746 -1.2324 -2.6194 -2.3059
  465MOL0     H61355   0.598  12.612   7.669  1.5957  0.8033 -3.1716
  465MOL0     H61356   0.804  12.591   7.547  2.4243 -1.0861 -1.2827
  465MOL0     H61357   0.840  12.431   7.608  0.0502  0.5355 -2.1230
  465MOL0     H61358   0.813  12.670   7.792 -1.2118  0.0381 -0.3273
  465MOL0     H61359   0.835  12.502   7.850  2.7772 -1.2111 -0.1423
  465MOL0     H61360   1.058  12.488   7.727  0.0807 -1.3998  1.3457
  465MOL0     H61361   1.060  12.620   7.846  1.1179 -0.5520  0.0063
  465MOL0     H61362  -0.026  12.366   7.150 -1.4198 -1.6383  0.2919
  465MOL0     H61363   0.040  12.285   6.935  0.6662 -0.9186 -0.4221
  465MOL0     H61364   0.326  11.954   6.715 -0.4470  1.1159  2.2358
  465MOL0     H61365   0.376  11.886   6.487 -2.5594  0.6274 -0.5419
  465MOL0     H61366   1.381  10.975   5.622 -1.4728  1.5619 -0.6362
  465MOL0     H61367   1.156  10.880   5.643 -0.0121  0.5047  0.4031
  465MOL0     H61368   0.873  10.628   5.906 -0.0346 -0.7091  1.6246
  465MOL0     H61369   0.665  10.541   5.929  5.8835  0.3784  0.6519
  465MOL0     H61370   0.254  10.778   5.932 -0.7569  1.1546  1.1475
  465MOL0     H61371   0.357  10.782   6.079 -1.8216 -0.7299  1.2274
  465MOL0     H61372   0.270  10.535   6.113 -0.6261 -0.9930  0.5848
  465MOL0     H61373   0.140  10.668   6.105 -1.4823  1.5055 -5.2486
  465MOL0     H61374   0.231  10.509   5.859  0.6137 -1.2457  1.5513
  465MOL0     H61375   0.095  10.614   5.873  1.3518  1.3693  0.0245
  465MOL0     H61376   0.049  10.367   5.882  2.6263  1.1022 -0.7367
  465MOL0     H61377   0.130  10.354   6.041 -3.8033 -1.0082  2.0338
  465MOL0     H61378  -0.248  10.470   6.163 -0.2384 -2.0620 -0.6597
  465MOL0     H61379   0.462  10.908   5.859  0.8071  1.5417 -0.0686
  465MOL0     H61380   0.679  11.014   5.811  1.3046  0.0620 -0.2590
  466MOL0     O61381   1.440   9.062   5.607 -0.1311 -0.0251 -0.4046
  466MOL0     C61382   1.347   9.082   5.529 -1.0808 -0.0661  0.3258
  466MOL0     O61383   1.368   9.144   5.404 -0.8234  0.2749  0.6248
  466MOL0     C61384   1.495   9.188   5.369 -0.7927 -0.3197 -0.3794
  466MOL0     C61385   1.507   9.324   5.341  0.0147 -0.7997  0.5205
  466MOL0     C61386   1.615   9.391   5.296 -1.0110 -0.2537  0.4465
  466MOL0     C61387   1.731   9.315   5.279  0.3909 -0.7470 -0.0450
  466MOL0     O61388   1.831   9.376   5.209 -0.4009  0.4144 -0.2828
  466MOL0     C61389   1.962   9.317   5.213  0.5748  0.5328 -0.5789
  466MOL0     C61390   2.062   9.387   5.116 -0.4925  0.3066  0.2347
  466MOL0     C61391   2.126   9.522   5.173  0.0038 -0.0208  0.3191
  466MOL0     C61392   2.261   9.553   5.119 -0.1922 -0.3371  0.3239
  466MOL0     C61393   2.254   9.619   4.977 -0.9849 -0.3562  0.6096
  466MOL0     C61394   2.389   9.699   4.945 -0.0844  0.3503  0.1699
  466MOL0     C61395   2.414   9.751   4.807  0.0807  0.3420  0.1826
  466MOL0     C61396   2.319   9.866   4.775  0.5130  0.7843  0.0117
  466MOL0     N61397   2.199   9.825   4.698 -0.5095 -0.0445 -0.2793
  466MOL0     C61398   2.068   9.813   4.748 -0.3112 -0.5128  0.8242
  466MOL0     C61399   2.004   9.750   4.649  0.2799 -1.0139  1.2489
  466MOL0     C61400   1.864   9.694   4.663 -0.9052  0.1425 -0.0832
  466MOL0     C61401   1.867   9.536   4.644 -0.3194 -0.5303  0.0860
  466MOL0     C61402   1.742   9.464   4.699 -0.2465 -0.1740 -0.3947
  466MOL0     C61403   1.750   9.437   4.852  0.8247 -1.0330  0.6981
  466MOL0     O61404   1.647   9.359   4.916 -0.4114 -0.2029  0.3783
  466MOL0     C61405   1.515   9.400   4.929 -0.0434 -0.2014  0.6024
  466MOL0     C61406   1.438   9.324   5.015 -0.5963 -0.0096  0.6857
  466MOL0     C61407   1.307   9.364   5.046 -0.1434  0.2175 -0.5931
  466MOL0     C61408   1.248   9.480   4.995 -0.2792 -0.6570 -0.6250
  466MOL0     C61409   1.106   9.521   5.019 -0.6894  0.0761 -1.0703
  466MOL0     O61410   1.079   9.659   5.002 -0.3034 -0.0769 -0.0262
  466MOL0     C61411   0.971   9.723   5.056 -0.1052  0.3451 -0.0608
  466MOL0     C61412   0.868   9.665   5.138 -0.1778 -0.4847 -0.7887
  466MOL0     C61413   0.760   9.747   5.172  0.5965  0.0948  0.3727
  466MOL0     C61414   0.747   9.882   5.146  0.0519 -0.4850  0.4357
  466MOL0     O61415   0.627   9.942   5.187 -0.3934 -0.1133 -0.1818
  466MOL0     C61416   0.589  10.066   5.123 -0.1683 -0.7492 -0.1890
  466MOL0     C61417   0.442  10.094   5.162  0.3582  0.0934 -0.1256
  466MOL0     C61418   0.402  10.128   5.304 -0.2740 -0.0842  0.6147
  466MOL0     C61419   0.253  10.174   5.290  0.7091 -0.0407  0.1386
  466MOL0     C61420   0.194  10.221   5.426  0.0586  0.3167  0.2729
  466MOL0     C61421   0.100  10.340   5.421  0.3236 -0.6972 -0.8158
  466MOL0     C61422   0.007  10.369   5.539 -0.0801  0.5415  0.7758
  466MOL0     C61423  -0.063  10.504   5.520  0.1313  0.7609 -0.4346
  466MOL0    Cl61424  -0.199  10.506   5.629 -0.3805  0.3591 -0.7480
  466MOL0     C61425   0.849   9.943   5.068  0.3089 -0.2129 -0.2722
  466MOL0     C61426   0.953   9.860   5.019 -0.1897 -0.0312 -0.1529
  466MOL0     O61427   1.031   9.434   5.062 -0.2789 -0.5095 -0.0440
  466MOL0     C61428   1.331   9.568   4.922 -0.1571  0.5331 -0.0333
  466MOL0     C61429   1.462   9.519   4.882  0.5710 -0.1100  0.4487
  466MOL0     N61430   2.095   9.728   4.542 -0.2443 -0.6310 -0.1172
  466MOL0     N61431   2.210   9.781   4.574  0.2337 -0.3794  0.3987
  466MOL0     C61432   1.730   9.181   5.321  0.9714  0.1388 -0.1668
  466MOL0     C61433   1.617   9.113   5.363  0.8621  0.3079  0.1604
  466MOL0     C61434   1.210   9.037   5.567 -0.4510 -0.2698 -0.3023
  466MOL0     C61435   1.180   8.938   5.663 -0.5079 -0.0894  0.0304
  466MOL0     C61436   1.044   8.924   5.700 -0.5563  0.2685 -0.0792
  466MOL0     C61437   0.942   8.991   5.640  0.3211  0.9248 -0.4219
  466MOL0     O61438   0.809   8.968   5.663  0.6000 -0.0578  0.3032
  466MOL0     C61439   0.757   8.918   5.788 -0.0736  0.3394  0.7168
  466MOL0     C61440   0.752   8.759   5.786  0.2217  0.2478  0.6288
  466MOL0     C61441   0.651   8.690   5.695 -0.2138  1.0361 -0.5231
  466MOL0     C61442   0.513   8.706   5.744  0.2385 -0.2239 -0.4804
  466MOL0     C61443   0.423   8.662   5.630 -0.2621  0.3672 -0.1224
  466MOL0     C61444   0.361   8.626   5.536 -0.7727  0.3468  0.0418
  466MOL0     C61445   0.969   9.079   5.533 -0.1139  0.1560 -0.2679
  466MOL0     C61446   1.102   9.096   5.499  0.0716  0.3362 -0.4280
  466MOL0     H61447   1.418   9.387   5.349  0.7117  0.1128  1.2625
  466MOL0     H61448   1.601   9.496   5.271 -2.8883 -0.0111  2.1961
  466MOL0     H61449   1.959   9.211   5.188  2.9591  0.5634 -1.2470
  466MOL0     H61450   2.004   9.319   5.314 -0.9247 -2.0283  0.1823
  466MOL0     H61451   2.013   9.411   5.021 -1.4693 -1.2699  0.3029
  466MOL0     H61452   2.138   9.316   5.083 -3.1174 -2.0175 -1.3042
  466MOL0     H61453   2.143   9.508   5.281 -0.7333 -4.1573  0.0715
  466MOL0     H61454   2.052   9.601   5.167  1.5917  1.6903  1.8521
  466MOL0     H61455   2.300   9.627   5.189  0.5557 -1.2519  0.8952
  466MOL0     H61456   2.330   9.469   5.116 -0.5444 -0.6092 -1.0667
  466MOL0     H61457   2.174   9.692   4.959 -0.8594 -0.4989 -0.6842
  466MOL0     H61458   2.247   9.538   4.903 -0.7120  0.7132 -0.6338
  466MOL0     H61459   2.472   9.629   4.955 -0.3925  0.1014  1.0494
  466MOL0     H61460   2.405   9.768   5.028  0.8995 -0.0735  0.3387
  466MOL0     H61461   2.519   9.784   4.799  0.7645 -1.8577 -0.4945
  466MOL0     H61462   2.402   9.669   4.736  0.8861  0.4137 -0.0551
  466MOL0     H61463   2.379   9.939   4.720  2.4604 -2.4742 -2.5969
  466MOL0     H61464   2.265   9.915   4.856 -1.8081 -1.7268  0.1301
  466MOL0     H61465   2.032   9.856   4.841 -0.1468 -0.0867  0.6968
  466MOL0     H61466   1.793   9.725   4.586 -0.5497 -0.9655 -0.8981
  466MOL0     H61467   1.831   9.730   4.761 -2.1110  0.6742 -0.6719
  466MOL0     H61468   1.954   9.507   4.704 -0.0436 -1.8539 -0.9174
  466MOL0     H61469   1.892   9.509   4.541  0.3748  0.6581 -0.0738
  466MOL0     H61470   1.653   9.517   4.665  0.7069  0.6273 -1.7394
  466MOL0     H61471   1.743   9.364   4.653  2.8467 -0.0936 -0.7242
  466MOL0     H61472   1.739   9.538   4.891  1.7743  0.9812 -3.6665
  466MOL0     H61473   1.851   9.403   4.878  1.1955 -0.5041 -0.0209
  466MOL0     H61474   1.487   9.237   5.058  0.0639  0.3965  0.7735
  466MOL0     H61475   1.249   9.300   5.112 -3.5868 -0.4909 -3.9357
  466MOL0     H61476   0.876   9.563   5.173 -1.7001 -0.0415  1.0014
  466MOL0     H61477   0.678   9.702   5.227 -1.0059  0.0660 -1.8796
  466MOL0     H61478   0.600  10.068   5.015  2.0296  2.1962 -0.0266
  466MOL0     H61479   0.646  10.149   5.165 -4.3028  1.3969  1.8998
  466MOL0     H61480   0.375  10.016   5.124 -1.4217  2.3765 -1.9625
  466MOL0     H61481   0.413  10.176   5.095  0.1339  0.4644  0.4224
  466MOL0     H61482   0.461  10.205   5.355 -0.3056  0.1874  0.2426
  466MOL0     H61483   0.405  10.040   5.368  0.8036  0.7046  1.7057
  466MOL0     H61484   0.253  10.262   5.225 -0.0172  0.8771  1.3411
  466MOL0     H61485   0.186  10.094   5.258  2.0723 -0.6018 -1.4342
  466MOL0     H61486   0.278  10.234   5.493 -0.5735  1.8095  0.8158
  466MOL0     H61487   0.138  10.135   5.464  0.3102 -1.4625 -2.9381
  466MOL0     H61488   0.032  10.330   5.336 -2.9755 -0.5757  1.6314
  466MOL0     H61489   0.164  10.429   5.426  0.2611 -0.6616 -0.6368
  466MOL0     H61490  -0.065  10.286   5.546  2.4960 -1.8844  0.5343
  466MOL0     H61491   0.067  10.370   5.630 -0.7302  0.2952  1.2166
  466MOL0     H61492  -0.105  10.510   5.419 -1.7323 -1.0530  0.1747
  466MOL0     H61493   0.012  10.583   5.529 -2.8059  4.2349 -3.2348
  466MOL0     H61494   0.829  10.049   5.058 -2.0120 -0.7633 -2.5729
  466MOL0     H61495   1.027   9.910   4.957 -1.7883 -0.6568 -2.7094
  466MOL0     H61496   1.296   9.662   4.880 -2.2889 -0.5951 -0.9122
  466MOL0     H61497   1.513   9.583   4.810 -0.2629 -0.4851 -0.4885
  466MOL0     H61498   1.819   9.119   5.322  1.3496  0.6441 -1.1478
  466MOL0     H61499   1.621   9.007   5.388 -2.0511  0.1842  0.3561
  466MOL0     H61500   1.253   8.889   5.726  0.5715  0.0568 -1.0762
  466MOL0     H61501   1.042   8.855   5.783 -1.1731 -1.0794 -1.1607
  466MOL0     H61502   0.655   8.953   5.808  0.2233  2.7647 -1.3748
  466MOL0     H61503   0.818   8.968   5.864  2.4602 -0.9083 -0.3794
  466MOL0     H61504   0.854   8.729   5.762 -0.6613 -2.8307  0.2663
  466MOL0     H61505   0.736   8.728   5.890  2.3691  0.9683  1.2263
  466MOL0     H61506   0.684   8.586   5.689  2.0846  1.7142 -0.3588
  466MOL0     H61507   0.653   8.728   5.592  0.5959  0.2617 -0.8004
  466MOL0     H61508   0.492   8.650   5.836  1.4452  1.0186  0.5937
  466MOL0     H61509   0.495   8.813   5.759  0.2780 -0.5881  2.9839
  466MOL0     H61510   0.311   8.601   5.445  1.3088 -0.4140 -0.9377
  466MOL0     H61511   0.896   9.135   5.476 -0.2709 -0.6384 -0.8530
  466MOL0     H61512   1.122   9.157   5.412  3.2917  0.1107  0.0083
  467MOL0     O61513   9.604   3.364   1.834  0.0418  0.6226  0.1129
  467MOL0     C61514   9.639   3.281   1.920 -0.4111 -0.4303 -0.1819
  467MOL0     O61515   9.567   3.180   1.965 -0.6287 -0.1581  0.0176
  467MOL0     C61516   9.434   3.177   1.947  0.4143 -0.1135  0.9628
  467MOL0     C61517   9.356   3.256   2.022  0.3258 -0.1871 -0.2798
  467MOL0     C61518   9.215   3.262   2.007 -0.4339 -0.4485 -0.9828
  467MOL0     C61519   9.153   3.178   1.914  0.2887  0.2771  0.5139
  467MOL0     O61520   9.022   3.154   1.910  0.5601 -0.3510  0.6560
  467MOL0     C61521   8.936   3.237   1.991 -0.1700 -0.2745 -0.3297
  467MOL0     C61522   8.784   3.228   1.969 -1.1574 -0.1990  0.4353
  467MOL0     C61523   8.762   3.240   1.817 -0.2335 -0.2635  0.0329
  467MOL0     C61524   8.621   3.221   1.757 -0.0676 -0.0596 -0.6471
  467MOL0     C61525   8.617   3.206   1.605 -0.1052  0.3429  0.2539
  467MOL0     C61526   8.473   3.217   1.542  0.5148 -0.1107  0.5590
  467MOL0     C61527   8.479   3.164   1.395  0.0109 -0.7002 -0.3125
  467MOL0     C61528   8.452   3.013   1.381 -0.1779  0.6170  0.8009
  467MOL0     N61529   8.314   2.977   1.395  0.6486 -0.3167 -0.4193
  467MOL0     C61530   8.213   2.967   1.299  0.5629  0.3374 -0.2709
  467MOL0     C61531   8.126   2.880   1.354 -0.1556  0.1147 -0.0374
  467MOL0     C61532   7.998   2.820   1.303 -0.5633  0.2410 -1.1135
  467MOL0     C61533   7.894   2.919   1.364  0.2471  0.5461 -0.3981
  467MOL0     C61534   7.757   2.843   1.358 -0.0050 -0.5306 -1.4297
  467MOL0     C61535   7.641   2.920   1.426 -0.3539  0.2110 -0.3786
  467MOL0     O61536   7.608   3.047   1.360 -0.3352 -0.0675 -0.4906
  467MOL0     C61537   7.481   3.100   1.381  0.5528  0.0972 -0.5431
  467MOL0     C61538   7.368   3.053   1.450 -0.0381 -0.6893 -0.1741
  467MOL0     C61539   7.256   3.138   1.451 -0.5122 -0.5291 -0.4277
  467MOL0     C61540   7.248   3.259   1.372 -1.4396  0.9176  0.1187
  467MOL0     C61541   7.121   3.332   1.358 -0.3182  0.5706  0.1336
  467MOL0     O61542   7.009   3.270   1.412  0.8859 -0.0183  0.2317
  467MOL0     C61543   6.877   3.322   1.387 -0.4271 -0.1530 -0.6853
  467MOL0     C61544   6.774   3.287   1.476  0.6894  0.1709  0.3481
  467MOL0     C61545   6.648   3.341   1.472  0.2773 -0.6554 -0.0465
  467MOL0     C61546   6.626   3.438   1.376  0.9768  1.1296  0.5861
  467MOL0     O61547   6.503   3.496   1.349  0.0989  0.0086 -0.2157
  467MOL0     C61548   6.401   3.471   1.448  0.1042 -1.2847 -0.3492
  467MOL0     C61549   6.300   3.574   1.408 -0.2299  0.0834 -0.8740
  467MOL0     C61550   6.182   3.583   1.501  0.6745  0.5056 -1.1054
  467MOL0     C61551   6.093   3.456   1.522  0.6787  0.3072  0.8669
  467MOL0     C61552   5.944   3.497   1.546  0.4464  0.2979 -0.6228
  467MOL0     C61553   5.910   3.600   1.659 -0.3166  0.1098 -0.1573
  467MOL0     C61554   5.770   3.653   1.617  0.1434 -0.2580 -0.4343
  467MOL0     C61555   5.654   3.555   1.641  0.3767  0.3242 -0.0247
  467MOL0    Cl61556   5.640   3.544   1.824  0.1603 -0.2952  0.0744
  467MOL0     C61557   6.722   3.471   1.281  0.6760 -0.5466 -0.0935
  467MOL0     C61558   6.846   3.410   1.282 -0.0848 -0.0539 -0.2928
  467MOL0     O61559   7.129   3.440   1.296 -0.1096  0.4507 -0.4184
  467MOL0     C61560   7.368   3.308   1.311 -0.1702  0.4157 -0.3916
  467MOL0     C61561   7.479   3.221   1.320  0.5882  0.2644  0.4197
  467MOL0     N61562   8.169   2.855   1.480  0.0061  0.1508  0.0238
  467MOL0     N61563   8.281   2.915   1.508 -0.8685 -0.0584  0.3830
  467MOL0     C61564   9.235   3.101   1.833 -0.8567  0.3847  0.0540
  467MOL0     C61565   9.374   3.100   1.843  0.3087 -1.0920 -0.5479
  467MOL0     C61566   9.778   3.281   1.958  0.2431  0.8642 -0.0467
  467MOL0     C61567   9.824   3.207   2.064  0.6981  0.6046 -0.6462
  467MOL0     C61568   9.955   3.211   2.103 -0.0633  0.1736 -0.2974
  467MOL0     C61569  10.051   3.284   2.048 -0.4809 -0.1095 -0.1038
  467MOL0     O61570  10.179   3.277   2.109  0.1210  0.1852  0.4344
  467MOL0     C61571  10.280   3.366   2.062  0.0394 -0.0942 -0.3846
  467MOL0     C61572  10.413   3.327   2.135  0.1198  0.1761 -0.8784
  467MOL0     C61573  10.462   3.189   2.106  0.1245 -0.1696 -0.6769
  467MOL0     C61574  10.495   3.170   1.957  0.5959  1.4199  0.4285
  467MOL0     C61575  10.601   3.262   1.920  1.4211 -0.2050 -0.2444
  467MOL0     C61576  10.688   3.343   1.882  0.2390  0.5920  0.1516
  467MOL0     C61577  10.009   3.371   1.944  0.0169  0.7682 -0.4809
  467MOL0     C61578   9.878   3.365   1.893 -0.0935  0.4537 -0.6528
  467MOL0     H61579   9.418   3.323   2.082 -3.5719  1.7571  1.9825
  467MOL0     H61580   9.162   3.327   2.076 -3.6742 -0.9546 -2.7877
  467MOL0     H61581   8.962   3.343   1.977 -0.5809 -0.4368 -2.8425
  467MOL0     H61582   8.956   3.205   2.094  2.5384 -2.6593 -1.4655
  467MOL0     H61583   8.747   3.312   2.027  1.5235  1.5697 -0.2323
  467MOL0     H61584   8.742   3.136   2.010 -1.3596 -0.6328 -0.6833
  467MOL0     H61585   8.824   3.164   1.769  1.2398  1.1234 -0.3871
  467MOL0     H61586   8.800   3.338   1.787 -0.9915 -0.0016 -0.0796
  467MOL0     H61587   8.584   3.128   1.801 -2.3103  1.7126  1.5764
  467MOL0     H61588   8.554   3.303   1.784  0.1619  0.3028 -1.1722
  467MOL0     H61589   8.675   3.118   1.576  1.5817  1.4566  0.0940
  467MOL0     H61590   8.681   3.288   1.572  2.8866 -1.2689  1.6495
  467MOL0     H61591   8.441   3.322   1.541 -3.5292 -1.1807 -0.4311
  467MOL0     H61592   8.399   3.161   1.599 -2.1872  1.5156 -1.0984
  467MOL0     H61593   8.408   3.218   1.332  2.2809  2.7157 -0.2584
  467MOL0     H61594   8.578   3.188   1.353 -0.2007  3.7381  1.1986
  467MOL0     H61595   8.526   2.954   1.437  1.2210  1.4662 -0.0922
  467MOL0     H61596   8.472   2.993   1.276 -0.5150 -1.3971  1.0758
  467MOL0     H61597   8.212   2.996   1.194  1.0466  2.2727  0.2217
  467MOL0     H61598   7.991   2.720   1.348  2.7579  0.9272  1.2856
  467MOL0     H61599   8.003   2.805   1.195 -0.3497 -0.6318 -0.9959
  467MOL0     H61600   7.902   3.010   1.303 -0.3275  1.0008  0.1885
  467MOL0     H61601   7.906   2.934   1.471 -0.2215 -0.5757 -0.1740
  467MOL0     H61602   7.724   2.825   1.255 -1.4912 -0.5021 -0.9847
  467MOL0     H61603   7.761   2.746   1.408  1.6434 -0.3803 -1.2118
  467MOL0     H61604   7.674   2.942   1.528  1.8743  0.9511 -1.2044
  467MOL0     H61605   7.556   2.852   1.421  1.0887 -1.5898 -2.8404
  467MOL0     H61606   7.363   2.953   1.492 -3.2838 -1.5079 -2.1467
  467MOL0     H61607   7.167   3.122   1.510  0.1392 -1.1699  0.4121
  467MOL0     H61608   6.791   3.226   1.564  0.1623  0.6648  0.8038
  467MOL0     H61609   6.566   3.317   1.539  0.2831 -2.8096 -0.7554
  467MOL0     H61610   6.429   3.487   1.553 -2.0316  1.0670 -0.0180
  467MOL0     H61611   6.365   3.371   1.427 -3.7503 -0.5639  1.8405
  467MOL0     H61612   6.267   3.570   1.303  0.1585  3.0936 -1.2010
  467MOL0     H61613   6.363   3.663   1.413  3.3702 -2.2606 -0.4521
  467MOL0     H61614   6.120   3.668   1.471  3.1468  3.0183  0.4392
  467MOL0     H61615   6.226   3.607   1.599 -3.5778  0.7477  0.9896
  467MOL0     H61616   6.082   3.397   1.431  1.2423 -0.1000  1.0602
  467MOL0     H61617   6.135   3.388   1.596 -0.5344  1.2286  2.4852
  467MOL0     H61618   5.899   3.403   1.576  2.2431 -0.0871  1.0812
  467MOL0     H61619   5.892   3.527   1.454 -0.7272 -1.4099 -0.5492
  467MOL0     H61620   5.977   3.687   1.654 -1.7213  1.2767  0.6104
  467MOL0     H61621   5.909   3.570   1.764 -0.7000  0.2203 -0.1277
  467MOL0     H61622   5.744   3.742   1.674 -0.5174 -0.4032 -0.5011
  467MOL0     H61623   5.780   3.691   1.515  1.4255 -0.4386 -0.3932
  467MOL0     H61624   5.675   3.457   1.597  0.4312  0.5926 -0.6020
  467MOL0     H61625   5.563   3.594   1.596 -0.1329  1.3407  1.7624
  467MOL0     H61626   6.695   3.532   1.196  2.3641 -2.5505 -2.1678
  467MOL0     H61627   6.918   3.430   1.203 -0.7911  0.4016 -0.8223
  467MOL0     H61628   7.375   3.404   1.261 -1.9644  0.3260 -0.8783
  467MOL0     H61629   7.570   3.250   1.268  1.9511 -3.0034  0.7456
  467MOL0     H61630   9.193   3.026   1.766 -1.9771 -0.8949  2.0983
  467MOL0     H61631   9.435   3.056   1.765  0.5798  0.1652 -1.0787
  467MOL0     H61632   9.761   3.145   2.126  1.9913 -0.6055 -0.4850
  467MOL0     H61633   9.976   3.149   2.189  2.5490  2.6941  1.0246
  467MOL0     H61634  10.246   3.467   2.087 -0.2550 -0.4601  0.7802
  467MOL0     H61635  10.290   3.358   1.954  0.2591 -0.4410 -0.3401
  467MOL0     H61636  10.491   3.403   2.122 -0.4301  1.6899  3.2146
  467MOL0     H61637  10.394   3.330   2.243  0.4215 -0.0413 -0.8197
  467MOL0     H61638  10.396   3.109   2.138  1.0289 -0.6371  0.0500
  467MOL0     H61639  10.554   3.168   2.162 -0.1940  0.1675 -0.0086
  467MOL0     H61640  10.530   3.066   1.956 -1.5875  0.6271 -1.5093
  467MOL0     H61641  10.408   3.188   1.893  0.0214 -2.9917 -0.3442
  467MOL0     H61642  10.759   3.410   1.839 -0.4164  0.7701 -0.7005
  467MOL0     H61643  10.079   3.433   1.889  2.4537 -2.8023 -1.7204
  467MOL0     H61644   9.859   3.439   1.816 -1.2849  0.9878  0.1205
  468MOL0     O61645   9.495   4.461   6.774 -0.8627 -0.2211  0.2380
  468MOL0     C61646   9.470   4.457   6.894 -0.1586 -0.0938 -0.3398
  468MOL0     O61647   9.351   4.487   6.956 -0.5460 -0.0254  0.3029
  468MOL0     C61648   9.234   4.501   6.881 -0.1588  0.3804 -0.4293
  468MOL0     C61649   9.147   4.591   6.943 -0.4393  0.3463 -0.5561
  468MOL0     C61650   9.027   4.619   6.888  0.1904  0.5097 -0.3051
  468MOL0     C61651   8.992   4.563   6.761  0.1874  0.9152  0.3816
  468MOL0     O61652   8.869   4.594   6.723 -0.4192 -0.4887  0.1935
  468MOL0     C61653   8.803   4.520   6.621  0.3866 -0.4988  0.5302
  468MOL0     C61654   8.654   4.544   6.636 -0.6527 -0.2599  0.3844
  468MOL0     C61655   8.622   4.695   6.632  0.2956 -0.2353 -0.2934
  468MOL0     C61656   8.471   4.727   6.635  0.7327  0.3957  0.1030
  468MOL0     C61657   8.400   4.707   6.502  0.2385 -0.4933  0.7811
  468MOL0     C61658   8.267   4.638   6.510 -0.6597  0.3319 -0.0079
  468MOL0     C61659   8.154   4.727   6.567 -0.9587 -0.7170  0.4856
  468MOL0     C61660   8.022   4.653   6.530 -0.0311  1.1837  0.6419
  468MOL0     N61661   7.901   4.727   6.574 -0.4068  0.6944 -0.4955
  468MOL0     C61662   7.823   4.691   6.677 -0.3831 -0.1150  0.0654
  468MOL0     C61663   7.701   4.748   6.655  0.2840  0.1148  0.5933
  468MOL0     C61664   7.574   4.728   6.730 -0.2060  0.0911  0.1737
  468MOL0     C61665   7.588   4.678   6.877  0.1840 -1.0247  0.3801
  468MOL0     C61666   7.616   4.794   6.972 -0.4407 -0.1187 -0.5696
  468MOL0     C61667   7.637   4.748   7.121 -0.3003 -0.3396  0.2166
  468MOL0     O61668   7.502   4.718   7.174  0.3933 -0.1956 -0.1876
  468MOL0     C61669   7.485   4.630   7.283  0.4964  0.1853 -0.0006
  468MOL0     C61670   7.549   4.509   7.286  0.1886  0.0139  0.5099
  468MOL0     C61671   7.540   4.413   7.395 -0.2007 -0.2884 -0.1561
  468MOL0     C61672   7.455   4.450   7.503 -0.0430  0.0906  0.2865
  468MOL0     C61673   7.417   4.356   7.612  0.7800 -0.2251  0.2217
  468MOL0     O61674   7.287   4.371   7.664  0.2475 -0.1035  0.7483
  468MOL0     C61675   7.239   4.281   7.764  0.0077 -0.2687  0.4781
  468MOL0     C61676   7.123   4.312   7.826  0.1599  0.4849 -0.3173
  468MOL0     C61677   7.050   4.228   7.915 -0.0171  0.7744 -0.3355
  468MOL0     C61678   7.107   4.112   7.957 -0.0157  1.0433 -0.0978
  468MOL0     O61679   7.026   4.035   8.042  0.3014  0.2231 -0.0342
  468MOL0     C61680   7.075   4.038   8.172 -0.2201 -0.2117 -0.2541
  468MOL0     C61681   6.986   3.968   8.272  0.9051  0.4275  0.6653
  468MOL0     C61682   7.064   3.960   8.407 -0.2537  0.1505 -0.3832
  468MOL0     C61683   6.988   3.874   8.507  0.2072  0.2730 -0.0397
  468MOL0     C61684   7.085   3.832   8.624 -0.1904  0.1862 -0.1292
  468MOL0     C61685   7.009   3.745   8.722 -0.4638  0.1034 -0.4694
  468MOL0     C61686   6.884   3.811   8.790  0.6798  0.3735  0.3589
  468MOL0     C61687   6.866   3.769   8.934 -0.0744  0.0616  0.6864
  468MOL0    Cl61688   6.798   3.600   8.941 -0.2454 -0.1472 -0.0491
  468MOL0     C61689   7.227   4.071   7.897  0.9297  0.4820 -0.1620
  468MOL0     C61690   7.287   4.149   7.798 -0.4612  0.3454  0.8784
  468MOL0     O61691   7.508   4.285   7.654 -0.2572  0.2106 -0.0878
  468MOL0     C61692   7.391   4.575   7.496 -0.0514 -0.6564  0.8948
  468MOL0     C61693   7.403   4.660   7.388  0.3750 -0.3712 -0.3292
  468MOL0     N61694   7.709   4.818   6.536  0.6215  0.1045 -0.7375
  468MOL0     N61695   7.829   4.807   6.495 -0.1864 -0.0010  0.1817
  468MOL0     C61696   9.080   4.476   6.697  0.3299  0.0511  0.9013
  468MOL0     C61697   9.203   4.452   6.754 -0.6434  0.4746 -0.3292
  468MOL0     C61698   9.584   4.432   6.990 -1.1459  0.1654  0.5760
  468MOL0     C61699   9.717   4.427   6.944 -0.1357  0.7205  0.3001
  468MOL0     C61700   9.826   4.402   7.031 -0.8488  0.3928  0.2920
  468MOL0     C61701   9.805   4.379   7.167 -0.7580 -0.7792  0.0289
  468MOL0     O61702   9.919   4.365   7.240 -0.6990  0.3048 -0.1824
  468MOL0     C61703   9.885   4.335   7.376  0.4735 -0.2174  0.5363
  468MOL0     C61704  10.016   4.301   7.452  0.5160 -0.7031  0.0211
  468MOL0     C61705  10.101   4.188   7.388  1.0114 -0.4258 -0.1231
  468MOL0     C61706  10.218   4.147   7.463  0.2851  0.0485 -0.4273
  468MOL0     C61707  10.294   4.038   7.398 -1.1519 -0.0694  0.0257
  468MOL0     C61708  10.337   3.959   7.317  0.0110 -0.0743 -0.3407
  468MOL0     C61709   9.672   4.407   7.217 -0.0690 -0.8338  0.1328
  468MOL0     C61710   9.568   4.435   7.132  0.3551  0.7877 -0.2992
  468MOL0     H61711   9.176   4.650   7.029  0.2573  0.3143 -0.7635
  468MOL0     H61712   8.956   4.677   6.947  0.7510  1.7269 -0.7829
  468MOL0     H61713   8.817   4.412   6.637 -3.8321 -1.2998 -0.0254
  468MOL0     H61714   8.822   4.556   6.520  0.0283  1.7708  1.2099
  468MOL0     H61715   8.610   4.504   6.728  1.9242  2.2001  2.8785
  468MOL0     H61716   8.601   4.491   6.556  0.0764 -0.0243 -0.2622
  468MOL0     H61717   8.670   4.740   6.545  1.0857 -0.7658 -0.1449
  468MOL0     H61718   8.671   4.739   6.719  1.1974  2.5067 -2.0789
  468MOL0     H61719   8.417   4.670   6.711  2.2303  1.0179  1.6857
  468MOL0     H61720   8.452   4.828   6.672  1.4859  0.5835 -0.0149
  468MOL0     H61721   8.466   4.640   6.446 -0.4559 -2.5405  2.2619
  468MOL0     H61722   8.396   4.800   6.446  0.6571  0.1863  1.8446
  468MOL0     H61723   8.263   4.549   6.573 -2.0642 -0.3199 -0.9736
  468MOL0     H61724   8.238   4.616   6.407  1.4775  5.8311 -2.1618
  468MOL0     H61725   8.171   4.727   6.675  0.1415 -3.2664  0.3698
  468MOL0     H61726   8.146   4.830   6.530  0.0109 -1.1330 -0.9603
  468MOL0     H61727   8.031   4.555   6.579  2.3862  1.3013  0.5527
  468MOL0     H61728   8.021   4.636   6.422  2.4138  2.0531  0.4159
  468MOL0     H61729   7.857   4.629   6.759  2.3909 -1.1041 -1.6890
  468MOL0     H61730   7.512   4.653   6.679 -0.5233 -0.7543  1.7471
  468MOL0     H61731   7.517   4.821   6.716  1.0059  0.3600 -4.8395
  468MOL0     H61732   7.664   4.601   6.896  0.0494 -1.3912 -0.5450
  468MOL0     H61733   7.493   4.634   6.908 -0.7865 -0.9886 -2.3307
  468MOL0     H61734   7.713   4.837   6.946 -0.4330  0.3148  0.1548
  468MOL0     H61735   7.540   4.873   6.972  1.3459  1.7763  1.8237
  468MOL0     H61736   7.674   4.835   7.177  0.2262  0.9926 -2.0942
  468MOL0     H61737   7.713   4.670   7.128 -0.0509 -0.0755  0.4841
  468MOL0     H61738   7.611   4.490   7.199 -1.6921  0.7776 -1.0750
  468MOL0     H61739   7.605   4.326   7.397  1.3133  0.7839  2.3012
  468MOL0     H61740   7.074   4.407   7.803 -3.9432 -1.5082 -0.7424
  468MOL0     H61741   6.956   4.270   7.950 -1.0699  0.4344 -2.5484
  468MOL0     H61742   7.099   4.143   8.196 -1.5050  0.1170 -0.3405
  468MOL0     H61743   7.175   3.993   8.172 -0.7713 -1.5212  1.2587
  468MOL0     H61744   6.963   3.874   8.220 -0.6874  1.8615 -1.3674
  468MOL0     H61745   6.889   4.017   8.280  1.5232  1.6950  0.6128
  468MOL0     H61746   7.085   4.061   8.441 -1.5367 -0.3409  2.1183
  468MOL0     H61747   7.161   3.914   8.388 -0.6379  0.2101 -2.7616
  468MOL0     H61748   6.899   3.925   8.545  0.6089 -0.5671  2.1957
  468MOL0     H61749   6.966   3.786   8.446  3.2092 -0.4425 -0.2569
  468MOL0     H61750   7.113   3.925   8.674  2.3655  0.1520 -1.3277
  468MOL0     H61751   7.177   3.784   8.588  0.1678  0.1483  0.8081
  468MOL0     H61752   7.083   3.717   8.798 -2.1749 -1.2314  0.7674
  468MOL0     H61753   6.985   3.654   8.667  0.9007 -0.5649 -0.0104
  468MOL0     H61754   6.897   3.920   8.791  0.7703  0.4026 -1.0771
  468MOL0     H61755   6.798   3.782   8.729  0.4529 -0.0799  0.8897
  468MOL0     H61756   6.793   3.836   8.979 -3.5641 -0.2731 -3.7856
  468MOL0     H61757   6.960   3.765   8.991 -1.7495 -0.0088  3.6654
  468MOL0     H61758   7.268   3.976   7.931  0.5300 -0.3715 -1.9293
  468MOL0     H61759   7.379   4.109   7.756 -1.1239  0.3172 -0.6001
  468MOL0     H61760   7.334   4.615   7.579  0.3109  0.2634  0.7045
  468MOL0     H61761   7.349   4.754   7.379  2.1651  0.9130  1.4130
  468MOL0     H61762   9.048   4.407   6.620  2.3351  0.4719 -0.3756
  468MOL0     H61763   9.272   4.381   6.710  1.6222  1.7411  1.0327
  468MOL0     H61764   9.744   4.437   6.840  1.4902  0.6688  0.6939
  468MOL0     H61765   9.924   4.387   6.988 -2.3012 -0.9946 -2.8892
  468MOL0     H61766   9.825   4.246   7.396  1.7339 -0.9084  1.3879
  468MOL0     H61767   9.846   4.425   7.424 -2.0151 -1.6985  1.4464
  468MOL0     H61768  10.079   4.390   7.455  1.7224 -1.5416  0.2504
  468MOL0     H61769   9.985   4.289   7.556  0.2561  2.0595  0.3422
  468MOL0     H61770  10.139   4.220   7.290 -1.3503 -0.0688 -0.9954
  468MOL0     H61771  10.039   4.102   7.364  0.8262 -0.5391  0.7396
  468MOL0     H61772  10.283   4.233   7.483  1.6647 -1.4297  1.7933
  468MOL0     H61773  10.187   4.123   7.565  2.1478  0.7708  0.3532
  468MOL0     H61774  10.380   3.885   7.253 -1.4965 -0.0609 -1.4037
  468MOL0     H61775   9.642   4.389   7.319  2.2343  0.1226  1.0380
  468MOL0     H61776   9.470   4.434   7.178  0.3587 -4.3232  0.1958
  469MOL0     O61777   0.740  10.889   9.225 -0.0819 -0.2635 -0.4649
  469MOL0     C61778   0.763  10.814   9.323  0.3707 -0.2852 -0.2466
  469MOL0     O61779   0.878  10.766   9.361 -0.0148 -0.5935 -0.9393
  469MOL0     C61780   1.000  10.793   9.317 -0.4929 -0.0019  0.1681
  469MOL0     C61781   1.098  10.799   9.415  0.3445 -0.8607  0.3977
  469MOL0     C61782   1.234  10.822   9.389  0.0768 -0.0349  0.6097
  469MOL0     C61783   1.274  10.835   9.258  0.0305 -0.5447 -0.1520
  469MOL0     O61784   1.409  10.855   9.224 -0.4181  1.1451  0.2063
  469MOL0     C61785   1.512  10.825   9.315  0.5178  0.4190 -0.1997
  469MOL0     C61786   1.633  10.865   9.237 -0.0620 -0.2608  0.1582
  469MOL0     C61787   1.774  10.835   9.298  0.9068  0.4862 -1.2587
  469MOL0     C61788   1.889  10.913   9.239  1.6528 -0.9128  0.0626
  469MOL0     C61789   2.031  10.861   9.288 -0.1480 -0.5485  1.2227
  469MOL0     C61790   2.144  10.959   9.241 -0.0404 -0.3571 -0.0679
  469MOL0     C61791   2.294  10.914   9.272  0.1232  0.8813 -0.4048
  469MOL0     C61792   2.396  11.018   9.232 -0.0920 -0.0246  0.4563
  469MOL0     N61793   2.377  11.064   9.087  0.4519  0.1112 -0.1474
  469MOL0     C61794   2.298  11.172   9.046  0.3742 -0.7161  0.4508
  469MOL0     C61795   2.311  11.177   8.914 -0.4605 -0.0469  0.1156
  469MOL0     C61796   2.232  11.273   8.830 -0.1458 -0.1606  0.4117
  469MOL0     C61797   2.109  11.202   8.764 -0.4976 -0.2887 -0.1169
  469MOL0     C61798   1.994  11.202   8.861  0.5035  0.1060 -0.6340
  469MOL0     C61799   1.861  11.129   8.814 -0.5372 -0.1474  0.1478
  469MOL0     O61800   1.767  11.233   8.787 -0.6162 -0.4110 -0.1866
  469MOL0     C61801   1.640  11.221   8.813 -0.4642 -0.1709  0.8175
  469MOL0     C61802   1.555  11.306   8.735  0.2265  0.4616 -0.8686
  469MOL0     C61803   1.423  11.318   8.767  0.3995  0.0296  0.1426
  469MOL0     C61804   1.371  11.248   8.874 -0.2191 -0.4545 -0.9795
  469MOL0     C61805   1.232  11.268   8.924  0.3543  0.2382  1.0590
  469MOL0     O61806   1.191  11.191   9.033 -0.0275 -0.0698 -0.4794
  469MOL0     C61807   1.060  11.217   9.063 -0.1173 -0.1687 -0.6338
  469MOL0     C61808   1.025  11.322   9.141 -0.0105  0.0935  0.4353
  469MOL0     C61809   0.892  11.332   9.172 -0.0151 -0.7228  0.1304
  469MOL0     C61810   0.798  11.250   9.141  0.3057  0.6507  0.0623
  469MOL0     O61811   0.669  11.282   9.177  0.4043  0.1832  0.1855
  469MOL0     C61812   0.567  11.195   9.131  0.5734  0.5205  0.1745
  469MOL0     C61813   0.427  11.230   9.180  0.0425 -0.6959  0.1096
  469MOL0     C61814   0.325  11.142   9.109 -0.3501 -0.9364  0.0058
  469MOL0     C61815   0.188  11.217   9.130 -0.3196 -0.0865 -0.9784
  469MOL0     C61816   0.061  11.143   9.077  0.0467 -0.6425  0.2313
  469MOL0     C61817  -0.057  11.241   9.052 -0.1225  0.2038  0.2008
  469MOL0     C61818  -0.170  11.155   8.978  0.1104 -0.4302  0.7690
  469MOL0     C61819  -0.279  11.253   8.935 -0.0988 -0.1476  0.0829
  469MOL0    Cl61820  -0.386  11.275   9.077 -0.0141 -0.6179 -0.2233
  469MOL0     C61821   0.833  11.145   9.056 -0.1293 -0.4009  0.4227
  469MOL0     C61822   0.963  11.126   9.018 -0.4817 -0.0734 -0.1201
  469MOL0     O61823   1.153  11.341   8.861 -0.2804 -0.8055  0.0949
  469MOL0     C61824   1.454  11.163   8.954 -0.4769 -0.0816 -0.2171
  469MOL0     C61825   1.587  11.142   8.920  0.1962 -0.2047 -0.5597
  469MOL0     N61826   2.388  11.073   8.866  0.0986 -0.4140 -0.8882
  469MOL0     N61827   2.419  11.001   8.970 -0.1958 -0.1069 -0.0420
  469MOL0     C61828   1.175  10.838   9.154 -0.7732  0.4354 -0.1022
  469MOL0     C61829   1.043  10.813   9.182  0.2274 -0.2003  0.1696
  469MOL0     C61830   0.644  10.758   9.400  0.7535 -0.0200  0.7893
  469MOL0     C61831   0.648  10.708   9.527 -0.2187 -0.7045  0.5796
  469MOL0     C61832   0.530  10.653   9.590  0.3792 -0.0247 -0.3372
  469MOL0     C61833   0.408  10.657   9.524 -1.2486  0.1659 -0.2244
  469MOL0     O61834   0.301  10.615   9.591  0.6624  0.0221 -0.0748
  469MOL0     C61835   0.206  10.712   9.641  0.4742  0.1638 -1.2606
  469MOL0     C61836   0.078  10.631   9.691  0.5383  0.0373  0.0602
  469MOL0     C61837  -0.041  10.720   9.698  0.4857  0.2170  0.6642
  469MOL0     C61838  -0.038  10.849   9.772 -0.2431 -1.4237 -0.4600
  469MOL0     C61839  -0.074  10.823   9.912 -0.1221 -0.7897  1.0197
  469MOL0     C61840  -0.081  10.780  10.026  0.4701  0.3405 -0.8416
  469MOL0     C61841   0.404  10.712   9.397 -0.4791  1.0541  0.2540
  469MOL0     C61842   0.520  10.754   9.334  0.1139 -0.4993 -0.2574
  469MOL0     H61843   1.057  10.792   9.515 -1.5979  0.1857 -0.2697
  469MOL0     H61844   1.302  10.831   9.473  0.1684 -1.1162  0.6768
  469MOL0     H61845   1.517  10.720   9.345 -0.4179  0.8814  1.7788
  469MOL0     H61846   1.501  10.887   9.404 -0.6581 -0.9888  0.6790
  469MOL0     H61847   1.618  10.968   9.205  0.4257 -0.0235  0.6725
  469MOL0     H61848   1.634  10.802   9.148  1.7644 -1.1758  0.7576
  469MOL0     H61849   1.788  10.730   9.270 -1.1866 -0.4454  0.8607
  469MOL0     H61850   1.768  10.849   9.406 -0.2882  2.6602 -1.5611
  469MOL0     H61851   1.882  10.905   9.130  0.1015  2.1669 -0.1503
  469MOL0     H61852   1.877  11.019   9.262  1.0721 -0.8186 -0.6612
  469MOL0     H61853   2.054  10.765   9.240  1.3476  0.5269 -0.3019
  469MOL0     H61854   2.030  10.839   9.395  2.3683 -3.7963  0.7614
  469MOL0     H61855   2.130  11.057   9.287 -0.5909 -1.0420  1.3013
  469MOL0     H61856   2.122  10.974   9.135 -1.4098 -2.3066 -0.1193
  469MOL0     H61857   2.294  10.912   9.381 -1.6817  0.2115 -0.3707
  469MOL0     H61858   2.322  10.818   9.227 -1.4088  0.6318 -0.8928
  469MOL0     H61859   2.500  10.986   9.247 -0.7127 -2.7827 -0.5619
  469MOL0     H61860   2.397  11.111   9.290 -0.0047 -0.0009  0.4187
  469MOL0     H61861   2.241  11.240   9.108  0.9140 -0.9630  1.2379
  469MOL0     H61862   2.303  11.310   8.755  1.0781 -2.7321  0.2096
  469MOL0     H61863   2.187  11.350   8.893 -0.4982 -1.3293  1.6317
  469MOL0     H61864   2.121  11.097   8.736 -1.0608 -0.5338  0.5242
  469MOL0     H61865   2.077  11.246   8.670 -0.4075 -1.4702 -0.7186
  469MOL0     H61866   2.023  11.146   8.951 -3.0648  1.2991  1.4882
  469MOL0     H61867   1.966  11.307   8.874 -0.2839 -0.1084 -0.5400
  469MOL0     H61868   1.831  11.063   8.896  0.8979 -2.4238 -1.0521
  469MOL0     H61869   1.878  11.071   8.723 -1.4607 -0.1861 -0.0084
  469MOL0     H61870   1.592  11.360   8.648  0.7353  0.4541 -0.6642
  469MOL0     H61871   1.367  11.401   8.724  0.4040 -0.1226 -0.1591
  469MOL0     H61872   1.094  11.401   9.169 -2.2003  2.0063  0.6738
  469MOL0     H61873   0.873  11.425   9.225 -0.9754 -1.3245  0.8727
  469MOL0     H61874   0.588  11.090   9.156 -0.3867 -0.7543 -3.6297
  469MOL0     H61875   0.560  11.191   9.022 -0.8970 -1.0690  0.2694
  469MOL0     H61876   0.413  11.335   9.152 -2.3234 -1.1911 -0.7996
  469MOL0     H61877   0.417  11.213   9.288  0.4804  1.0680  0.4702
  469MOL0     H61878   0.320  11.042   9.152 -1.2790 -1.2254 -0.7434
  469MOL0     H61879   0.337  11.141   9.000 -1.6360 -0.4243 -0.1614
  469MOL0     H61880   0.184  11.244   9.236  1.0862  1.9308 -1.3852
  469MOL0     H61881   0.195  11.315   9.080  2.4989  0.5521  0.5072
  469MOL0     H61882   0.023  11.059   9.136 -1.7264 -0.2338 -0.2899
  469MOL0     H61883   0.087  11.100   8.980 -2.4816 -1.6603 -0.0813
  469MOL0     H61884  -0.025  11.319   8.982  1.2001  2.7900  3.4361
  469MOL0     H61885  -0.091  11.283   9.147 -0.8435 -0.3104  0.1812
  469MOL0     H61886  -0.145  11.107   8.883 -1.3189  0.1028  0.0904
  469MOL0     H61887  -0.220  11.092   9.052  1.1344 -1.0879  0.9182
  469MOL0     H61888  -0.334  11.221   8.846  2.6777 -5.5558 -0.1103
  469MOL0     H61889  -0.238  11.349   8.904 -1.7143  1.0859  1.5912
  469MOL0     H61890   0.758  11.077   9.016  0.1612 -0.4875  0.0215
  469MOL0     H61891   0.994  11.042   8.956  2.6210  0.6743  0.2919
  469MOL0     H61892   1.417  11.117   9.045 -1.7669  2.5048  0.6722
  469MOL0     H61893   1.647  11.087   8.991 -1.4360 -0.4413  0.7030
  469MOL0     H61894   1.223  10.853   9.058  0.2370 -0.3319  0.2588
  469MOL0     H61895   0.979  10.815   9.094  2.4024  2.0903 -1.4877
  469MOL0     H61896   0.746  10.704   9.572  0.3285 -0.6867 -0.5556
  469MOL0     H61897   0.530  10.623   9.694 -0.1222  2.2307  0.3574
  469MOL0     H61898   0.182  10.780   9.558 -0.4741  0.2997 -0.8864
  469MOL0     H61899   0.250  10.767   9.724  1.7040 -2.6309  0.0542
  469MOL0     H61900   0.045  10.555   9.620 -3.8742  0.6832  1.1355
  469MOL0     H61901   0.086  10.585   9.790 -1.6664 -0.5287  0.0269
  469MOL0     H61902  -0.135  10.669   9.723 -0.9579  2.1988 -0.4830
  469MOL0     H61903  -0.048  10.742   9.591  0.3009  0.7071  0.7769
  469MOL0     H61904   0.059  10.898   9.761  0.2528 -2.9087 -3.7400
  469MOL0     H61905  -0.109  10.918   9.726  0.4249 -1.0212 -0.9033
  469MOL0     H61906  -0.090  10.725  10.117 -0.1666 -1.7342 -2.0869
  469MOL0     H61907   0.306  10.716   9.353 -0.4572  1.5889  0.2571
  469MOL0     H61908   0.491  10.794   9.237 -2.6691  2.8411  1.7260
  470MOL0     O61909   9.849   4.228   6.394  0.2978  1.1320 -0.1334
  470MOL0     C61910   9.810   4.344   6.382 -0.0583  0.2357  0.3006
  470MOL0     O61911   9.884   4.457   6.396  0.1857 -0.3036 -0.2004
  470MOL0     C61912  10.013   4.462   6.448  0.8188 -0.8937 -0.2993
  470MOL0     C61913  10.072   4.590   6.452 -0.9658 -0.5286 -0.6391
  470MOL0     C61914  10.203   4.600   6.498 -0.3892 -0.0628  0.5834
  470MOL0     C61915  10.263   4.490   6.568 -0.9426 -1.7133  0.3231
  470MOL0     O61916  10.400   4.490   6.600  0.0475  0.2477 -0.7881
  470MOL0     C61917  10.437   4.480   6.745  0.1485  0.6025  0.2460
  470MOL0     C61918  10.567   4.555   6.762 -0.0681  0.2663 -1.8456
  470MOL0     C61919  10.679   4.479   6.690 -0.6890 -0.2286 -0.0913
  470MOL0     C61920  10.816   4.550   6.704 -0.3080  0.2571  0.2326
  470MOL0     C61921  10.833   4.701   6.658  0.3938  0.6010 -0.9052
  470MOL0     C61922  10.808   4.707   6.510  0.3115  0.3781  0.3452
  470MOL0     C61923  10.805   4.852   6.472 -0.1910 -0.5009 -0.0868
  470MOL0     C61924  10.863   4.873   6.332 -0.2790 -0.4697 -0.8766
  470MOL0     N61925  10.844   5.020   6.288  0.0356  0.7461 -0.3858
  470MOL0     C61926  10.925   5.126   6.319  0.2651 -0.5305  0.7364
  470MOL0     C61927  10.858   5.243   6.278  0.1895 -0.3535  0.2931
  470MOL0     C61928  10.904   5.383   6.284  0.2574 -0.2445  0.3134
  470MOL0     C61929  10.959   5.437   6.417 -0.5822 -0.2579  0.4631
  470MOL0     C61930  10.955   5.586   6.415 -0.1999 -0.3965 -0.4000
  470MOL0     C61931  10.978   5.647   6.558  0.1688  0.1088 -0.5903
  470MOL0     O61932  10.860   5.612   6.629  0.0610 -0.4024 -0.2134
  470MOL0     C61933  10.757   5.702   6.634  0.4279 -0.1983 -0.5745
  470MOL0     C61934  10.665   5.694   6.736  0.3932  0.5993 -0.2585
  470MOL0     C61935  10.557   5.772   6.754  0.1508 -0.2146  0.0152
  470MOL0     C61936  10.538   5.886   6.669 -0.1917  0.0892 -0.5121
  470MOL0     C61937  10.413   5.970   6.689  0.3857  0.5105  0.4339
  470MOL0     O61938  10.346   5.963   6.805  0.4461  0.2191 -0.3136
  470MOL0     C61939  10.249   6.061   6.834 -0.5106 -0.0840  0.0039
  470MOL0     C61940  10.141   6.105   6.745  0.0875  0.1491  0.7241
  470MOL0     C61941  10.050   6.195   6.782  0.2147 -0.4308 -0.3429
  470MOL0     C61942  10.059   6.265   6.903  0.1264 -1.2636 -0.2688
  470MOL0     O61943   9.965   6.361   6.921  0.6195 -0.2949 -0.0269
  470MOL0     C61944   9.995   6.467   7.011 -0.1264  0.0606  0.5160
  470MOL0     C61945   9.868   6.556   7.005  0.6380 -0.3955 -0.7247
  470MOL0     C61946   9.851   6.639   6.874  0.2197  0.6376  0.4524
  470MOL0     C61947   9.719   6.720   6.877  0.0226 -0.2760 -0.2188
  470MOL0     C61948   9.674   6.762   6.729 -0.3364  0.9438 -0.2768
  470MOL0     C61949   9.549   6.855   6.726 -0.6273 -0.0006 -0.1855
  470MOL0     C61950   9.518   6.909   6.583 -0.3825  0.4393 -0.5851
  470MOL0     C61951   9.367   6.927   6.558  0.3832  0.7336  0.5049
  470MOL0    Cl61952   9.316   7.056   6.670  0.1631  0.2564  0.4971
  470MOL0     C61953  10.165   6.240   6.984 -0.2862 -0.0405  0.1915
  470MOL0     C61954  10.259   6.141   6.952  0.1564 -0.0855  0.4562
  470MOL0     O61955  10.375   6.028   6.587 -0.1045 -0.5584  0.2115
  470MOL0     C61956  10.634   5.902   6.569  0.9402  0.1308  0.0192
  470MOL0     C61957  10.725   5.807   6.538 -1.0703  0.2690  0.0017
  470MOL0     N61958  10.743   5.201   6.222 -0.2317 -0.4235 -0.4402
  470MOL0     N61959  10.735   5.072   6.236 -0.4496  0.3950 -0.5314
  470MOL0     C61960  10.197   4.371   6.586  0.1186  0.4440  0.3795
  470MOL0     C61961  10.072   4.361   6.527  0.4441 -0.2826 -0.6091
  470MOL0     C61962   9.669   4.362   6.354  0.4583  0.8566 -0.6798
  470MOL0     C61963   9.603   4.259   6.282  0.2636  0.0428 -0.4787
  470MOL0     C61964   9.466   4.263   6.245  0.7269 -0.2074  0.0481
  470MOL0     C61965   9.387   4.379   6.277  0.2940  0.3499  0.0702
  470MOL0     O61966   9.252   4.383   6.254  0.0309  0.7039  0.2739
  470MOL0     C61967   9.174   4.279   6.184  0.3734  0.5187 -0.6368
  470MOL0     C61968   9.021   4.303   6.189 -0.3445 -0.2615  0.4535
  470MOL0     C61969   8.969   4.280   6.332  0.1640  0.4511  0.0721
  470MOL0     C61970   8.819   4.318   6.329  0.5079 -0.7479 -0.9213
  470MOL0     C61971   8.737   4.234   6.242  0.4776 -0.4670 -0.1765
  470MOL0     C61972   8.653   4.159   6.191 -0.6962  0.1231 -0.6557
  470MOL0     C61973   9.462   4.486   6.330  0.2873  0.2327 -0.0789
  470MOL0     C61974   9.595   4.482   6.379  0.2631  0.5053  0.3969
  470MOL0     H61975  10.020   4.674   6.408 -0.7491 -1.5492 -2.9859
  470MOL0     H61976  10.246   4.698   6.483 -0.4741 -0.0305  0.5510
  470MOL0     H61977  10.455   4.377   6.776 -2.1228 -0.0484 -0.3573
  470MOL0     H61978  10.358   4.519   6.811  1.3229  0.8644  1.5341
  470MOL0     H61979  10.582   4.561   6.870  0.9764  4.3644 -2.0208
  470MOL0     H61980  10.554   4.660   6.731 -1.1268  2.2940  4.1619
  470MOL0     H61981  10.648   4.468   6.585  0.5900 -0.6956 -0.4337
  470MOL0     H61982  10.688   4.376   6.723 -1.0236 -0.6382 -1.2215
  470MOL0     H61983  10.846   4.544   6.809 -1.6572  0.8777  0.6798
  470MOL0     H61984  10.890   4.491   6.650  2.4108  0.7842  3.0497
  470MOL0     H61985  10.934   4.730   6.686  0.0703 -0.9090  2.3002
  470MOL0     H61986  10.766   4.767   6.714  0.3492  0.2714 -0.5659
  470MOL0     H61987  10.718   4.652   6.482  0.7485  0.3990 -1.1827
  470MOL0     H61988  10.894   4.657   6.466  1.3592  1.8113  0.6873
  470MOL0     H61989  10.707   4.897   6.491  1.0232  4.0477 -2.9365
  470MOL0     H61990  10.871   4.905   6.542 -0.6983  1.0704 -0.7607
  470MOL0     H61991  10.816   4.798   6.268 -0.9350  0.4758 -1.5244
  470MOL0     H61992  10.970   4.847   6.330 -0.4709 -1.6576  1.1865
  470MOL0     H61993  11.025   5.121   6.363  0.2816  0.2463  0.8008
  470MOL0     H61994  10.822   5.447   6.250  0.6390 -0.0493 -0.2588
  470MOL0     H61995  10.980   5.391   6.206 -0.6968  1.4576 -0.4903
  470MOL0     H61996  11.063   5.406   6.427 -0.1266  1.5335  2.0233
  470MOL0     H61997  10.896   5.407   6.502 -1.4853  0.2578 -0.0003
  470MOL0     H61998  11.031   5.633   6.352 -1.1171  0.1479 -1.1216
  470MOL0     H61999  10.859   5.618   6.372  0.0373  2.3314  0.8766
  470MOL0     H62000  10.989   5.756   6.551 -0.6509  0.1202 -2.4536
  470MOL0     H62001  11.068   5.597   6.593 -1.6759 -3.9590 -1.0947
  470MOL0     H62002  10.672   5.606   6.799 -0.6970 -0.6811 -1.8312
  470MOL0     H62003  10.487   5.741   6.830  0.8057 -2.8507 -0.3507
  470MOL0     H62004  10.115   6.062   6.649  1.8868  1.5709 -0.4820
  470MOL0     H62005   9.965   6.220   6.720  1.5627  2.3594 -1.2342
  470MOL0     H62006  10.090   6.514   6.984  0.5088 -0.4380  1.8174
  470MOL0     H62007  10.019   6.427   7.110  1.2824 -1.9860 -0.6005
  470MOL0     H62008   9.870   6.618   7.095 -1.8484  2.5162 -2.4661
  470MOL0     H62009   9.781   6.491   7.016 -1.7127  2.9268  3.7708
  470MOL0     H62010   9.854   6.574   6.786 -1.2630 -2.2687  2.3841
  470MOL0     H62011   9.929   6.714   6.862 -1.3025  2.3894  1.0003
  470MOL0     H62012   9.643   6.657   6.924 -0.5819  0.2625 -0.4646
  470MOL0     H62013   9.734   6.805   6.945  1.1351 -0.8790  0.3305
  470MOL0     H62014   9.665   6.678   6.660  0.3188 -0.1710  0.9470
  470MOL0     H62015   9.760   6.820   6.696 -0.9972  1.0919 -1.8258
  470MOL0     H62016   9.556   6.946   6.785 -1.0537  0.2577 -0.5286
  470MOL0     H62017   9.460   6.798   6.755 -1.7228  0.1415 -2.9822
  470MOL0     H62018   9.567   7.004   6.561 -1.5553  1.6911  1.7836
  470MOL0     H62019   9.558   6.839   6.510 -1.0247 -0.4652 -0.0854
  470MOL0     H62020   9.313   6.832   6.561 -0.4445  1.1835  0.3157
  470MOL0     H62021   9.351   6.960   6.455  0.2305  0.7631  0.5373
  470MOL0     H62022  10.182   6.292   7.078  1.0616  1.9629 -1.0770
  470MOL0     H62023  10.345   6.136   7.018  0.6096  3.3305  0.3313
  470MOL0     H62024  10.626   5.987   6.502 -1.5115 -0.5475 -0.6506
  470MOL0     H62025  10.798   5.824   6.460 -2.1181 -0.3360 -1.1519
  470MOL0     H62026  10.245   4.289   6.638  1.3018  0.0160 -1.2932
  470MOL0     H62027  10.017   4.268   6.542 -1.3500  0.6955 -0.8187
  470MOL0     H62028   9.664   4.174   6.253  0.9437  0.0344  0.8974
  470MOL0     H62029   9.414   4.176   6.206  3.0467 -0.9225 -1.7051
  470MOL0     H62030   9.192   4.187   6.241 -0.5768 -1.6032 -3.5251
  470MOL0     H62031   9.208   4.266   6.081 -1.2100  0.7520 -1.2046
  470MOL0     H62032   9.007   4.407   6.157 -1.5782 -0.6218 -0.2217
  470MOL0     H62033   8.974   4.238   6.114  0.6867  0.1742 -0.6002
  470MOL0     H62034   9.028   4.340   6.403 -1.4178  0.9361  1.0206
  470MOL0     H62035   8.983   4.176   6.363  2.6378  0.5261 -0.5552
  470MOL0     H62036   8.790   4.306   6.434  2.8776 -2.8678 -0.4102
  470MOL0     H62037   8.795   4.423   6.313 -0.2471 -0.6265  0.7446
  470MOL0     H62038   8.584   4.087   6.153  0.6265 -3.1853  2.6192
  470MOL0     H62039   9.420   4.584   6.351 -0.9473 -0.2762 -0.0786
  470MOL0     H62040   9.645   4.566   6.426  0.1814  0.6631  0.2011
  471MOL0     O62041   6.187   0.986   7.475  0.2826 -1.0438  0.3822
  471MOL0     C62042   6.228   1.008   7.588  0.3039 -0.6167 -0.0731
  471MOL0     O62043   6.157   0.989   7.701  0.1478 -0.4751 -0.3347
  471MOL0     C62044   6.019   0.986   7.693  0.3076  0.0607  1.0105
  471MOL0     C62045   5.950   0.907   7.787  0.2017  0.2534 -0.1416
  471MOL0     C62046   5.811   0.898   7.781 -0.2193 -0.4166  0.2761
  471MOL0     C62047   5.734   0.973   7.693 -0.7955  0.3883  0.6236
  471MOL0     O62048   5.597   0.958   7.696 -0.5661 -0.2569  0.5145
  471MOL0     C62049   5.509   0.987   7.579 -0.9736  0.4465 -0.5825
  471MOL0     C62050   5.460   1.126   7.569 -0.0398 -0.7198  0.8390
  471MOL0     C62051   5.379   1.129   7.442 -0.1046  0.2084  0.0497
  471MOL0     C62052   5.327   1.264   7.400  0.2967  0.4161 -0.1577
  471MOL0     C62053   5.234   1.321   7.505  0.3965  0.5697 -0.8031
  471MOL0     C62054   5.174   1.461   7.488 -0.2290  0.3809 -0.1233
  471MOL0     C62055   5.079   1.484   7.378  0.5443 -0.4328  0.4208
  471MOL0     C62056   4.940   1.418   7.402  0.0557 -0.0069  0.0151
  471MOL0     N62057   4.852   1.428   7.282  0.5415 -0.3106  0.5371
  471MOL0     C62058   4.841   1.542   7.211 -0.9209  1.0185  0.8303
  471MOL0     C62059   4.766   1.500   7.102 -0.6568 -0.5725 -1.0391
  471MOL0     C62060   4.706   1.588   6.994 -0.1033 -0.1295 -0.3661
  471MOL0     C62061   4.602   1.688   7.055 -0.2060  0.4303  0.0483
  471MOL0     C62062   4.525   1.763   6.948 -0.0583  0.2746  0.2350
  471MOL0     C62063   4.428   1.672   6.879 -0.5811  0.4584 -0.7003
  471MOL0     O62064   4.322   1.634   6.969 -0.4822  0.2820  0.1115
  471MOL0     C62065   4.200   1.578   6.921  0.4462 -0.8169 -0.2701
  471MOL0     C62066   4.108   1.540   7.020  0.0639  0.4658 -0.2111
  471MOL0     C62067   3.990   1.466   6.984  0.2508  0.3488  0.5076
  471MOL0     C62068   3.971   1.435   6.854 -0.4267  0.9742  0.4026
  471MOL0     C62069   3.848   1.357   6.810  0.4844 -0.4964 -0.3122
  471MOL0     O62070   3.739   1.372   6.883 -0.2834  0.4497  1.0083
  471MOL0     C62071   3.631   1.292   6.885 -0.4846 -0.8677 -0.0246
  471MOL0     C62072   3.634   1.157   6.841  0.6963  0.2852  0.0991
  471MOL0     C62073   3.510   1.086   6.847  0.3085 -0.2394 -0.3217
  471MOL0     C62074   3.391   1.149   6.889  0.3420  0.1994  0.5136
  471MOL0     O62075   3.266   1.086   6.910  0.5641 -0.5416  0.1298
  471MOL0     C62076   3.242   0.954   6.861  0.1893  0.2092  0.2070
  471MOL0     C62077   3.093   0.914   6.902  0.1786  0.3075 -0.5721
  471MOL0     C62078   3.050   0.782   6.833  0.1794  0.4176  0.2885
  471MOL0     C62079   2.919   0.725   6.891 -0.5052  0.2046  0.7162
  471MOL0     C62080   2.865   0.590   6.831  0.1214  0.7912 -0.2589
  471MOL0     C62081   2.759   0.548   6.934 -0.1845  0.0788 -0.1860
  471MOL0     C62082   2.634   0.635   6.948  0.1337  0.1462  0.0142
  471MOL0     C62083   2.503   0.554   6.936  0.2014  0.4888  0.2875
  471MOL0    Cl62084   2.473   0.458   7.090  0.3257 -0.8418  0.2617
  471MOL0     C62085   3.394   1.282   6.940 -0.2635  0.4702 -0.1316
  471MOL0     C62086   3.515   1.348   6.941  1.5355 -0.0909  0.3019
  471MOL0     O62087   3.858   1.282   6.716  0.4435 -0.6568  0.2352
  471MOL0     C62088   4.060   1.470   6.754 -0.5070 -0.7253 -0.7349
  471MOL0     C62089   4.176   1.539   6.788 -0.3767 -0.8421  0.3480
  471MOL0     N62090   4.731   1.367   7.114  0.8857  0.6336 -0.1977
  471MOL0     N62091   4.785   1.327   7.226  0.1128 -0.4793 -0.1290
  471MOL0     C62092   5.808   1.058   7.605  0.1102  0.2180  0.2388
  471MOL0     C62093   5.946   1.064   7.599 -0.1761 -0.0104  0.2726
  471MOL0     C62094   6.373   1.040   7.599 -0.6606  0.1267 -0.4615
  471MOL0     C62095   6.435   1.056   7.728  0.5816 -0.5352 -0.4275
  471MOL0     C62096   6.572   1.069   7.736 -0.4329  0.2769 -0.8516
  471MOL0     C62097   6.654   1.075   7.624  0.0686 -1.1316  0.3190
  471MOL0     O62098   6.792   1.101   7.621  0.5503  0.2814 -0.5190
  471MOL0     C62099   6.849   1.148   7.743 -0.0789  0.2887  0.9245
  471MOL0     C62100   7.010   1.147   7.728  0.3717  0.1932  0.3132
  471MOL0     C62101   7.048   1.231   7.609  0.1219 -0.1268  0.1203
  471MOL0     C62102   7.199   1.280   7.635  0.5938  0.2827  0.5173
  471MOL0     C62103   7.304   1.177   7.617  0.3781 -0.3553 -0.0219
  471MOL0     C62104   7.368   1.083   7.576 -0.6340 -0.2695 -0.2347
  471MOL0     C62105   6.594   1.076   7.504 -0.4758  0.0743  0.1118
  471MOL0     C62106   6.457   1.061   7.487  0.2319 -0.2038  0.9679
  471MOL0     H62107   6.006   0.845   7.856  0.3301  1.2964  0.7168
  471MOL0     H62108   5.762   0.834   7.854  0.7315 -1.5546 -0.0595
  471MOL0     H62109   5.421   0.925   7.602  1.0953 -1.2669  3.6729
  471MOL0     H62110   5.570   0.970   7.490  1.9867  2.5602  0.8856
  471MOL0     H62111   5.538   1.200   7.550 -0.6489 -0.8477 -2.8976
  471MOL0     H62112   5.398   1.159   7.652  2.3812  0.6761  2.2024
  471MOL0     H62113   5.298   1.055   7.442  0.1020 -0.0195 -0.5341
  471MOL0     H62114   5.442   1.101   7.358 -0.8741  1.0142 -0.8205
  471MOL0     H62115   5.418   1.322   7.381  1.9039 -1.4317  1.4039
  471MOL0     H62116   5.272   1.253   7.306  0.0673  0.0927  0.0132
  471MOL0     H62117   5.282   1.308   7.603 -0.9418 -0.8833 -0.2935
  471MOL0     H62118   5.146   1.256   7.514  0.6713  0.1643 -1.0327
  471MOL0     H62119   5.261   1.525   7.474  1.5500 -1.2783  2.3119
  471MOL0     H62120   5.123   1.488   7.581 -2.0145 -0.8802 -0.6755
  471MOL0     H62121   5.068   1.591   7.356  3.0252 -0.4961 -1.6010
  471MOL0     H62122   5.120   1.446   7.284 -0.2434  0.9388 -0.5210
  471MOL0     H62123   4.896   1.472   7.486  0.7600 -0.8628  0.9518
  471MOL0     H62124   4.963   1.313   7.424  1.8591  0.0350 -1.4352
  471MOL0     H62125   4.873   1.643   7.235 -1.7392  1.2239  1.0798
  471MOL0     H62126   4.651   1.518   6.930 -0.6014 -2.8256  2.7722
  471MOL0     H62127   4.789   1.639   6.945  1.0545  0.9555  2.5610
  471MOL0     H62128   4.660   1.756   7.118  0.9422  0.6903 -1.2399
  471MOL0     H62129   4.527   1.634   7.114 -1.0048  0.6167 -0.7771
  471MOL0     H62130   4.473   1.838   7.008 -0.3510 -1.0944  1.7694
  471MOL0     H62131   4.590   1.799   6.868 -2.0670  1.2387 -1.0472
  471MOL0     H62132   4.481   1.591   6.830 -0.0201  1.5010 -1.8819
  471MOL0     H62133   4.376   1.729   6.801 -1.6279 -0.6681 -0.8636
  471MOL0     H62134   4.128   1.569   7.123  0.5345  1.3099 -0.5314
  471MOL0     H62135   3.919   1.437   7.061 -0.0798 -1.3561 -0.3898
  471MOL0     H62136   3.726   1.116   6.802  1.2250  0.5727  1.0138
  471MOL0     H62137   3.508   0.980   6.825 -0.1690  0.2040 -2.6195
  471MOL0     H62138   3.317   0.886   6.904  2.2952  2.0540 -0.3407
  471MOL0     H62139   3.246   0.943   6.752  2.6962 -1.8382  0.3811
  471MOL0     H62140   3.026   0.997   6.876  1.1385  1.1345 -0.4281
  471MOL0     H62141   3.090   0.906   7.011  0.1826 -0.0629 -0.5979
  471MOL0     H62142   3.127   0.705   6.846  0.1935  0.4487  0.3883
  471MOL0     H62143   3.035   0.796   6.726  0.9704 -4.8005 -0.7870
  471MOL0     H62144   2.937   0.715   6.999 -1.3020 -1.0189  0.7483
  471MOL0     H62145   2.837   0.795   6.871  0.7086  1.1070 -1.4001
  471MOL0     H62146   2.948   0.519   6.831  1.2520  1.8114  3.7664
  471MOL0     H62147   2.827   0.593   6.729 -0.2541  1.9339 -0.1021
  471MOL0     H62148   2.811   0.548   7.030 -0.3933  1.8980 -0.0560
  471MOL0     H62149   2.732   0.442   6.922 -0.5660 -0.0080  1.2978
  471MOL0     H62150   2.630   0.693   7.041  1.5942  1.3191 -0.6177
  471MOL0     H62151   2.634   0.704   6.863 -1.5036  0.1130 -0.0532
  471MOL0     H62152   2.506   0.491   6.847 -2.5365 -0.9735  1.1139
  471MOL0     H62153   2.414   0.616   6.922  0.7348  1.5182  1.3284
  471MOL0     H62154   3.311   1.343   6.974 -0.1709  0.9998 -0.8289
  471MOL0     H62155   3.519   1.445   6.988  0.4005  0.1898 -0.1647
  471MOL0     H62156   4.047   1.440   6.651 -0.3153 -1.5321 -0.5331
  471MOL0     H62157   4.254   1.558   6.715  0.8290 -0.5552  1.6812
  471MOL0     H62158   5.756   1.107   7.523 -0.2586  2.9938  1.9997
  471MOL0     H62159   5.981   1.129   7.519 -1.2801 -0.3254 -0.4998
  471MOL0     H62160   6.374   1.040   7.816  1.8566 -1.4427  0.3238
  471MOL0     H62161   6.614   1.070   7.836 -1.4400 -0.2576 -0.4027
  471MOL0     H62162   6.832   1.081   7.828  0.8397  1.5946  2.1884
  471MOL0     H62163   6.816   1.247   7.774 -2.2439 -0.3114  0.6956
  471MOL0     H62164   7.054   1.189   7.819 -1.7956  0.5748  1.2702
  471MOL0     H62165   7.053   1.047   7.720 -1.5731 -0.6104 -0.8535
  471MOL0     H62166   6.982   1.318   7.614  1.8395  1.2015  0.6098
  471MOL0     H62167   7.028   1.175   7.517 -0.6755 -0.9189  0.7533
  471MOL0     H62168   7.220   1.354   7.557 -0.4479 -0.6930 -0.7451
  471MOL0     H62169   7.214   1.339   7.726  0.6775 -0.7946  1.2151
  471MOL0     H62170   7.433   1.012   7.529 -0.5903 -0.9384  0.7811
  471MOL0     H62171   6.655   1.092   7.416 -0.8576  2.8431  0.2544
  471MOL0     H62172   6.406   1.063   7.391  0.3108 -0.8335  0.9078
  472MOL0     O62173   1.572   3.726   9.047  1.4349 -0.2964 -1.0940
  472MOL0     C62174   1.461   3.783   9.049  0.6136 -0.4593 -0.4622
  472MOL0     O62175   1.449   3.921   9.061  0.3678  0.2056  0.5478
  472MOL0     C62176   1.561   3.995   9.072 -0.4560  0.1770 -0.4453
  472MOL0     C62177   1.662   4.001   8.973  0.6914 -1.5447 -0.4953
  472MOL0     C62178   1.773   4.085   8.994  0.0196  0.3151  0.7159
  472MOL0     C62179   1.782   4.172   9.103 -0.2543  0.8695 -0.7434
  472MOL0     O62180   1.890   4.245   9.137 -0.8285  0.6503  0.5773
  472MOL0     C62181   1.989   4.259   9.041 -0.5337 -0.0262 -0.3328
  472MOL0     C62182   2.073   4.363   9.109  0.0017 -0.2693  0.3106
  472MOL0     C62183   2.190   4.389   9.027 -0.2466  0.2300 -0.4348
  472MOL0     C62184   2.287   4.481   9.098  0.6110 -0.0789  0.1681
  472MOL0     C62185   2.423   4.458   9.041  0.2589  0.5361  0.5730
  472MOL0     C62186   2.525   4.549   9.112  0.3461  0.1744  0.2901
  472MOL0     C62187   2.659   4.549   9.039 -0.1274 -0.3145 -0.2010
  472MOL0     C62188   2.743   4.666   9.088 -0.4035 -0.2088 -0.1598
  472MOL0     N62189   2.859   4.683   9.006 -0.5730  0.1979 -0.1853
  472MOL0     C62190   2.883   4.792   8.927 -0.6810 -0.3594 -0.8247
  472MOL0     C62191   3.007   4.779   8.881 -0.3585 -0.7913  0.6977
  472MOL0     C62192   3.089   4.880   8.797  0.5698 -0.0431  0.5830
  472MOL0     C62193   3.054   4.894   8.645 -0.2946  0.2641 -0.7513
  472MOL0     C62194   3.081   4.769   8.558  0.0480 -0.5612  0.3690
  472MOL0     C62195   2.980   4.655   8.579  0.0796  0.1264 -0.1203
  472MOL0     O62196   2.850   4.717   8.601 -0.0177  0.6157  0.2493
  472MOL0     C62197   2.740   4.636   8.607  0.2856  0.7165  0.3988
  472MOL0     C62198   2.739   4.499   8.589  0.0901 -0.2653  0.1940
  472MOL0     C62199   2.622   4.427   8.575  0.4706 -1.0099  0.6244
  472MOL0     C62200   2.497   4.491   8.588 -0.1937 -0.0803  0.3396
  472MOL0     C62201   2.376   4.415   8.566  0.7550 -0.0820  0.3270
  472MOL0     O62202   2.392   4.278   8.570  0.4084 -0.0013 -0.4367
  472MOL0     C62203   2.285   4.191   8.591 -0.1075  0.3745  0.1706
  472MOL0     C62204   2.169   4.175   8.509  0.3071 -0.7661  0.9163
  472MOL0     C62205   2.067   4.083   8.542  0.1952 -0.6657  0.0083
  472MOL0     C62206   2.061   4.023   8.663 -1.3444  0.3556 -0.2267
  472MOL0     O62207   1.967   3.929   8.709  0.2560  0.5200 -0.2127
  472MOL0     C62208   1.871   3.894   8.613 -0.8563  0.3764  0.2291
  472MOL0     C62209   1.940   3.793   8.513  0.0876 -1.0036  0.5684
  472MOL0     C62210   1.842   3.759   8.397 -0.3311  0.6154 -0.0648
  472MOL0     C62211   1.877   3.618   8.347 -0.3069 -0.1434  0.5450
  472MOL0     C62212   1.785   3.563   8.241  0.2541  0.3369  0.2994
  472MOL0     C62213   1.641   3.523   8.290  0.4678  0.5296  0.7764
  472MOL0     C62214   1.558   3.445   8.190 -0.2767 -0.3124  0.6378
  472MOL0     C62215   1.417   3.413   8.246  0.1766 -0.0725 -0.1427
  472MOL0    Cl62216   1.334   3.573   8.267 -0.0659  0.2616  0.1117
  472MOL0     C62217   2.177   4.030   8.746  0.3606  0.2284  0.4173
  472MOL0     C62218   2.284   4.109   8.704 -0.6813  1.0285 -0.9165
  472MOL0     O62219   2.267   4.475   8.548  0.1130 -0.2902 -0.0633
  472MOL0     C62220   2.498   4.634   8.622  0.6429 -0.1333 -0.5838
  472MOL0     C62221   2.615   4.698   8.633 -0.4744 -0.6705 -0.7509
  472MOL0     N62222   3.047   4.652   8.924 -0.1648  0.0932  0.6832
  472MOL0     N62223   2.965   4.608   9.002 -0.2434  0.9114  0.1964
  472MOL0     C62224   1.669   4.172   9.192 -0.5688 -0.0077  0.2157
  472MOL0     C62225   1.560   4.087   9.177  0.9701  0.9807  0.1206
  472MOL0     C62226   1.330   3.708   9.066 -0.1086  0.3530  1.1975
  472MOL0     C62227   1.322   3.574   9.026  0.3351 -0.1710  0.2558
  472MOL0     C62228   1.195   3.515   9.015 -0.7781  0.4014  0.0771
  472MOL0     C62229   1.076   3.583   9.054 -0.3876  0.1421  0.8544
  472MOL0     O62230   0.963   3.498   9.039 -0.2296 -1.5189 -0.1438
  472MOL0     C62231   0.831   3.536   9.080 -0.3896 -0.3109  0.0134
  472MOL0     C62232   0.825   3.576   9.229 -0.2909  0.0079  0.0513
  472MOL0     C62233   0.751   3.707   9.273 -0.2917 -0.2867  0.3068
  472MOL0     C62234   0.793   3.774   9.405 -0.6573  0.2757 -0.2003
  472MOL0     C62235   0.768   3.689   9.528 -0.0381 -0.3325 -0.2609
  472MOL0     C62236   0.756   3.609   9.620  0.2697  0.0660  0.3871
  472MOL0     C62237   1.086   3.718   9.095  0.3078  0.0650  0.7787
  472MOL0     C62238   1.210   3.776   9.093 -0.3069  0.5483 -0.5136
  472MOL0     H62239   1.650   3.946   8.880  1.7695  0.8931 -2.1883
  472MOL0     H62240   1.849   4.077   8.917 -1.3491 -2.0656 -0.5089
  472MOL0     H62241   1.962   4.311   8.949  0.9887 -2.4138 -2.2581
  472MOL0     H62242   2.036   4.162   9.026 -0.6956  0.0503 -1.3813
  472MOL0     H62243   2.100   4.329   9.210 -1.0260 -1.7302  0.1192
  472MOL0     H62244   2.027   4.461   9.125  2.2880  1.3661 -2.2176
  472MOL0     H62245   2.154   4.433   8.933  0.7231  2.2943  0.1188
  472MOL0     H62246   2.245   4.298   9.000 -0.7302 -0.1286 -0.2362
  472MOL0     H62247   2.258   4.585   9.079  0.5628 -0.4241 -1.8033
  472MOL0     H62248   2.287   4.451   9.204 -2.0345 -1.7104 -0.1903
  472MOL0     H62249   2.428   4.473   8.933 -0.4588  2.2415  0.7460
  472MOL0     H62250   2.439   4.351   9.051  0.5240  0.3620 -1.3816
  472MOL0     H62251   2.544   4.517   9.215  0.2538  0.7964  0.5050
  472MOL0     H62252   2.485   4.651   9.116  1.8110  0.8215 -0.6307
  472MOL0     H62253   2.709   4.455   9.065  0.6882  0.4025  0.9452
  472MOL0     H62254   2.642   4.569   8.933  0.7478  1.3278 -0.0625
  472MOL0     H62255   2.755   4.654   9.196 -4.3680  0.0576  0.4334
  472MOL0     H62256   2.680   4.755   9.081 -0.2775 -0.2361 -2.0175
  472MOL0     H62257   2.818   4.873   8.897 -1.1047 -1.5391 -3.3607
  472MOL0     H62258   3.196   4.865   8.811  0.6868  0.2903  0.0950
  472MOL0     H62259   3.069   4.976   8.846  3.2518 -0.2181  2.2078
  472MOL0     H62260   3.107   4.976   8.595  0.1900  0.3924 -0.0545
  472MOL0     H62261   2.952   4.933   8.651  0.0262  0.9814  3.4384
  472MOL0     H62262   3.079   4.806   8.455  0.4708  0.0134  0.5615
  472MOL0     H62263   3.180   4.733   8.583 -1.0851 -2.9162  1.7707
  472MOL0     H62264   3.006   4.595   8.667  0.0755  0.9225  0.4273
  472MOL0     H62265   2.973   4.587   8.493 -1.7861 -0.2123  0.2598
  472MOL0     H62266   2.832   4.444   8.579  0.6926  0.8049 -0.2749
  472MOL0     H62267   2.626   4.323   8.543  0.5833 -2.0664  3.7161
  472MOL0     H62268   2.155   4.234   8.418  1.7202  1.6542  2.1597
  472MOL0     H62269   1.976   4.073   8.484 -2.7904  0.5290  3.9850
  472MOL0     H62270   1.831   3.979   8.558  1.5799  1.8820  0.6143
  472MOL0     H62271   1.786   3.844   8.659 -2.3857  0.3158 -2.4399
  472MOL0     H62272   1.954   3.702   8.571 -1.1597 -1.8523 -0.4312
  472MOL0     H62273   2.040   3.825   8.481  0.5914 -1.7971  1.3354
  472MOL0     H62274   1.855   3.824   8.310 -1.8099  1.2209  0.1428
  472MOL0     H62275   1.735   3.763   8.418 -1.0352 -3.5049 -1.9134
  472MOL0     H62276   1.972   3.636   8.295 -1.7289  0.4489 -2.0175
  472MOL0     H62277   1.882   3.547   8.430 -2.8042  0.2324  1.0934
  472MOL0     H62278   1.833   3.475   8.198 -0.3516 -0.4207  1.1424
  472MOL0     H62279   1.776   3.637   8.160 -1.0856  3.5514  3.1328
  472MOL0     H62280   1.593   3.615   8.324  1.9986  1.9284 -0.6580
  472MOL0     H62281   1.652   3.456   8.376 -1.4414 -2.0427 -0.8410
  472MOL0     H62282   1.543   3.500   8.097 -2.1336  2.3531  2.3673
  472MOL0     H62283   1.611   3.352   8.169 -1.5716 -1.4176  1.9818
  472MOL0     H62284   1.429   3.365   8.343 -2.6125 -1.4898 -0.4084
  472MOL0     H62285   1.363   3.336   8.190  0.8320 -2.0254  1.7664
  472MOL0     H62286   2.176   3.972   8.838  1.0943  0.2957  0.4724
  472MOL0     H62287   2.370   4.102   8.770 -1.4505 -2.4099 -0.0496
  472MOL0     H62288   2.403   4.682   8.643 -0.3493 -2.0383 -0.4580
  472MOL0     H62289   2.620   4.801   8.667  1.8364 -0.2584 -2.1185
  472MOL0     H62290   1.699   4.222   9.284  0.6435 -2.7923  1.4620
  472MOL0     H62291   1.484   4.095   9.254  0.4501  1.4658 -0.4328
  472MOL0     H62292   1.410   3.516   9.001 -1.0614 -2.3414  0.1073
  472MOL0     H62293   1.180   3.410   8.993 -0.3369  0.3179  0.1586
  472MOL0     H62294   0.785   3.439   9.059  1.9413 -2.2014  2.8575
  472MOL0     H62295   0.792   3.617   9.017 -0.7282 -0.1407  0.4439
  472MOL0     H62296   0.764   3.499   9.277 -1.3338 -0.8826 -2.4990
  472MOL0     H62297   0.927   3.571   9.267 -0.1513  1.0399 -0.1441
  472MOL0     H62298   0.644   3.686   9.288 -0.5648  1.1302  0.5418
  472MOL0     H62299   0.753   3.782   9.193 -1.6374  0.1312  0.6332
  472MOL0     H62300   0.900   3.792   9.393 -0.6791  0.3105 -0.3488
  472MOL0     H62301   0.740   3.869   9.418  0.0745  0.7623 -0.6694
  472MOL0     H62302   0.746   3.547   9.708 -1.4882 -4.1300 -2.4606
  472MOL0     H62303   1.003   3.775   9.134  0.3501  1.5154 -1.1241
  472MOL0     H62304   1.215   3.882   9.114  2.3295  0.2443  0.7286
  473MOL0     O62305   9.069   1.849   5.212 -0.5660  0.8264  0.0150
  473MOL0     C62306   9.135   1.774   5.143  0.1621 -0.2273 -1.0033
  473MOL0     O62307   9.088   1.714   5.026  0.0426 -0.4128 -0.1412
  473MOL0     C62308   8.958   1.740   4.988 -0.0049 -0.5164 -1.2067
  473MOL0     C62309   8.864   1.635   4.991 -0.1095 -0.9147 -0.5619
  473MOL0     C62310   8.735   1.658   4.972 -0.8617  0.1202  0.1881
  473MOL0     C62311   8.694   1.778   4.924 -0.1976 -0.6287 -0.4552
  473MOL0     O62312   8.567   1.811   4.897  0.3454 -0.4326  0.3113
  473MOL0     C62313   8.458   1.713   4.882 -0.0045 -0.2828  0.5450
  473MOL0     C62314   8.341   1.782   4.802 -0.4420  0.1672  0.1312
  473MOL0     C62315   8.218   1.697   4.793 -0.4448 -0.8287  0.0559
  473MOL0     C62316   8.115   1.764   4.700  0.8584  0.1968  0.9617
  473MOL0     C62317   8.029   1.659   4.624  0.1649 -0.1648  0.2214
  473MOL0     C62318   7.950   1.703   4.497 -0.5529  0.2735 -0.1714
  473MOL0     C62319   7.868   1.829   4.535 -0.1386  1.0772 -0.7372
  473MOL0     C62320   7.747   1.795   4.636 -0.2979 -0.7559 -0.7420
  473MOL0     N62321   7.658   1.683   4.599 -0.2780  0.5938  0.5289
  473MOL0     C62322   7.684   1.550   4.631 -1.2702 -0.8849  0.5345
  473MOL0     C62323   7.600   1.478   4.550  0.2254  0.0432 -0.6118
  473MOL0     C62324   7.628   1.334   4.516  0.0642 -0.3439  0.0670
  473MOL0     C62325   7.582   1.233   4.624  0.5009 -0.9993 -0.0981
  473MOL0     C62326   7.691   1.150   4.686 -0.1719  0.7281  0.4340
  473MOL0     C62327   7.790   1.210   4.784 -0.1529 -0.1744  0.0091
  473MOL0     O62328   7.901   1.269   4.715 -0.2524 -0.6095  0.0810
  473MOL0     C62329   8.013   1.298   4.778 -1.1508  0.8618  0.7836
  473MOL0     C62330   8.021   1.301   4.923 -0.6358 -0.6807 -0.1131
  473MOL0     C62331   8.140   1.330   4.989 -0.6259 -0.6033 -0.5587
  473MOL0     C62332   8.259   1.348   4.917  0.2777  0.9422  0.2833
  473MOL0     C62333   8.389   1.378   4.982 -0.1130 -0.8556 -0.6933
  473MOL0     O62334   8.391   1.427   5.111 -0.4572  0.8941  0.3275
  473MOL0     C62335   8.514   1.425   5.177 -0.1452  0.0843 -0.3045
  473MOL0     C62336   8.540   1.519   5.275  0.8288 -0.4391  0.0298
  473MOL0     C62337   8.643   1.517   5.360 -0.1012 -1.1358  0.0267
  473MOL0     C62338   8.729   1.411   5.362  0.0501  0.5368  0.6600
  473MOL0     O62339   8.838   1.412   5.448  0.1015 -0.3424  0.9313
  473MOL0     C62340   8.919   1.305   5.459 -0.9652 -0.0646  0.5028
  473MOL0     C62341   9.037   1.353   5.545 -0.6172  0.0730  0.1002
  473MOL0     C62342   9.160   1.263   5.573  0.4405  0.2025 -0.1145
  473MOL0     C62343   9.264   1.320   5.669 -0.4254 -0.2330  0.1415
  473MOL0     C62344   9.373   1.209   5.691 -0.2155 -0.3951 -0.1565
  473MOL0     C62345   9.459   1.269   5.808  0.1208 -0.4032  1.1828
  473MOL0     C62346   9.582   1.179   5.840  0.7060  0.5652  0.0093
  473MOL0     C62347   9.690   1.256   5.910 -0.1160 -0.3590  0.5634
  473MOL0    Cl62348   9.643   1.318   6.075 -0.4912  0.0370 -0.6938
  473MOL0     C62349   8.707   1.305   5.266 -0.6372 -0.1870 -0.0873
  473MOL0     C62350   8.600   1.314   5.171  0.4695 -0.4192  0.0175
  473MOL0     O62351   8.492   1.377   4.910  0.1461 -0.4847  0.0272
  473MOL0     C62352   8.254   1.329   4.775 -0.1409  0.6976  0.5633
  473MOL0     C62353   8.132   1.315   4.709  0.7749 -0.1230  0.9633
  473MOL0     N62354   7.523   1.571   4.479  0.8719 -0.5932  0.2827
  473MOL0     N62355   7.553   1.691   4.515 -0.2072 -0.0611 -0.6262
  473MOL0     C62356   8.790   1.881   4.917  0.9639  0.4778 -0.0618
  473MOL0     C62357   8.919   1.865   4.937  0.2903  0.8371 -0.6654
  473MOL0     C62358   9.279   1.753   5.178  0.3044 -0.3038  0.4981
  473MOL0     C62359   9.361   1.685   5.093 -0.0877 -0.0201  0.5782
  473MOL0     C62360   9.499   1.666   5.127  0.8522  0.1240  0.5461
  473MOL0     C62361   9.546   1.697   5.249 -0.5603 -0.5826 -0.5244
  473MOL0     O62362   9.672   1.657   5.278 -0.6756 -0.6576  0.2530
  473MOL0     C62363   9.711   1.620   5.406 -0.2583  0.1010 -0.8509
  473MOL0     C62364   9.866   1.622   5.409 -0.5569  0.0388 -0.4992
  473MOL0     C62365   9.913   1.606   5.550 -0.3264 -0.2107 -0.0960
  473MOL0     C62366   9.852   1.497   5.644  0.2647  0.3021  0.4218
  473MOL0     C62367   9.878   1.360   5.601  0.2636 -1.5438 -0.3926
  473MOL0     C62368   9.900   1.242   5.588  0.1709 -0.4573 -1.1504
  473MOL0     C62369   9.457   1.760   5.336 -0.1960 -0.1815 -0.2986
  473MOL0     C62370   9.326   1.793   5.303  0.0770 -0.1648  0.6125
  473MOL0     H62371   8.912   1.543   5.024  1.5383 -0.3121 -1.1695
  473MOL0     H62372   8.666   1.575   4.980  0.3906 -1.0207 -0.3599
  473MOL0     H62373   8.424   1.676   4.979 -0.7501 -0.1046  0.3601
  473MOL0     H62374   8.487   1.632   4.814 -0.2352  1.6273 -1.9869
  473MOL0     H62375   8.377   1.800   4.700 -1.7458  0.6395 -0.2611
  473MOL0     H62376   8.325   1.884   4.837  2.9835  0.3932  1.4371
  473MOL0     H62377   8.173   1.673   4.890 -0.1857 -0.6237  0.2309
  473MOL0     H62378   8.239   1.597   4.756  1.2672  0.2570 -2.1726
  473MOL0     H62379   8.050   1.815   4.771 -0.2344 -1.7500  1.4135
  473MOL0     H62380   8.159   1.834   4.628 -1.4100  0.7005 -0.0001
  473MOL0     H62381   7.970   1.599   4.694 -0.0655 -0.6761 -0.4042
  473MOL0     H62382   8.097   1.583   4.585  0.0201 -0.1333 -0.0940
  473MOL0     H62383   7.901   1.612   4.460  0.8106 -0.7466  0.4492
  473MOL0     H62384   8.016   1.729   4.413 -1.5861 -1.4808 -1.5951
  473MOL0     H62385   7.937   1.903   4.577 -0.4739  1.0346 -0.0924
  473MOL0     H62386   7.827   1.865   4.440  0.6088 -1.4941 -2.1367
  473MOL0     H62387   7.692   1.888   4.654 -0.5861 -1.2114  0.8924
  473MOL0     H62388   7.786   1.774   4.736 -2.3188 -1.5745 -0.0743
  473MOL0     H62389   7.776   1.512   4.675 -2.1833 -0.3902  3.0751
  473MOL0     H62390   7.732   1.316   4.486 -0.4352  1.1375 -2.9900
  473MOL0     H62391   7.570   1.321   4.424 -1.7820  2.0932  0.7812
  473MOL0     H62392   7.504   1.171   4.577 -1.3393  1.9663 -1.3020
  473MOL0     H62393   7.520   1.284   4.698 -0.0201  2.7538 -2.7845
  473MOL0     H62394   7.635   1.072   4.737  1.0152 -0.7641 -0.4685
  473MOL0     H62395   7.749   1.104   4.606 -0.4330  0.4628  0.3977
  473MOL0     H62396   7.817   1.129   4.852 -0.3474  1.0738  1.6443
  473MOL0     H62397   7.741   1.285   4.847  0.6441  0.3556  0.0136
  473MOL0     H62398   7.930   1.298   4.982  0.4704  0.3451  1.7270
  473MOL0     H62399   8.138   1.339   5.097 -1.6364  1.5235 -0.6979
  473MOL0     H62400   8.472   1.603   5.271  1.5537  0.1060 -1.6826
  473MOL0     H62401   8.654   1.586   5.443  1.1097 -0.1528 -0.9114
  473MOL0     H62402   8.965   1.280   5.363  0.7885  0.0537  1.2558
  473MOL0     H62403   8.871   1.220   5.508 -1.1692 -0.6894 -0.7405
  473MOL0     H62404   8.989   1.385   5.638  4.3154  3.4488  1.9599
  473MOL0     H62405   9.070   1.452   5.511 -1.7193 -0.2014 -1.9197
  473MOL0     H62406   9.217   1.226   5.487  0.3954 -2.7339  0.9925
  473MOL0     H62407   9.121   1.175   5.625  2.1475  0.6606  2.1444
  473MOL0     H62408   9.316   1.409   5.631  4.0668 -3.0647 -1.1875
  473MOL0     H62409   9.224   1.356   5.764  1.1897  0.6966  0.5118
  473MOL0     H62410   9.433   1.197   5.600  0.2317 -0.2358  0.1135
  473MOL0     H62411   9.333   1.108   5.709  0.1896 -1.4792 -4.2737
  473MOL0     H62412   9.400   1.293   5.897 -0.7514 -0.5656  0.6658
  473MOL0     H62413   9.500   1.366   5.779 -2.0282  0.3098  0.2420
  473MOL0     H62414   9.540   1.096   5.897 -2.5112 -0.4368 -3.4083
  473MOL0     H62415   9.618   1.132   5.747 -0.7923  0.7977 -0.7172
  473MOL0     H62416   9.713   1.341   5.846  2.6514 -0.6667  1.0240
  473MOL0     H62417   9.780   1.194   5.911 -0.8231 -1.4505 -0.5164
  473MOL0     H62418   8.772   1.218   5.254  1.4885  1.2331  0.5289
  473MOL0     H62419   8.573   1.225   5.114 -2.9629  1.4790 -1.5867
  473MOL0     H62420   8.345   1.341   4.717 -1.5257  1.0826 -1.6110
  473MOL0     H62421   8.130   1.321   4.600  0.9248  0.2521  0.9820
  473MOL0     H62422   8.760   1.982   4.888 -0.8178 -0.0668 -0.2731
  473MOL0     H62423   8.986   1.950   4.932  0.7472  0.5466  0.2673
  473MOL0     H62424   9.316   1.641   5.005 -2.5196 -0.5384  1.9983
  473MOL0     H62425   9.559   1.617   5.051  2.3481 -0.0480  1.7835
  473MOL0     H62426   9.673   1.520   5.432 -2.9706  1.0189 -1.0110
  473MOL0     H62427   9.679   1.683   5.489  0.0377 -1.1618  0.2699
  473MOL0     H62428   9.905   1.551   5.336  0.9842  1.2688 -0.9388
  473MOL0     H62429   9.898   1.724   5.385  3.0221 -1.3643 -2.4736
  473MOL0     H62430   9.904   1.700   5.606  0.8093 -0.4953  0.6043
  473MOL0     H62431  10.022   1.596   5.547  0.1203  2.0770  3.0368
  473MOL0     H62432   9.893   1.505   5.745  2.0120  0.7066 -0.2845
  473MOL0     H62433   9.743   1.507   5.648  0.0970 -0.7124 -1.0206
  473MOL0     H62434   9.932   1.142   5.567  1.2319 -0.6454  1.1233
  473MOL0     H62435   9.492   1.788   5.435 -0.0919  1.9856 -0.8970
  473MOL0     H62436   9.268   1.838   5.384  1.0695 -2.7559  2.9340
  474MOL0     O62437  10.541   9.803   5.922  0.1604 -0.3622  0.1977
  474MOL0     C62438  10.491   9.886   6.000  0.1998  0.0251  0.4249
  474MOL0     O62439  10.546   9.938   6.107 -0.8597  0.3815  0.3539
  474MOL0     C62440  10.667   9.897   6.168 -0.2054 -0.3208 -0.4901
  474MOL0     C62441  10.771   9.812   6.119  0.5334  0.1494  0.9144
  474MOL0     C62442  10.882   9.785   6.201  1.0150  0.6803 -0.5371
  474MOL0     C62443  10.897   9.842   6.328  0.6712  0.0988 -0.0618
  474MOL0     O62444  11.003   9.810   6.407 -0.8089  0.2561 -0.0166
  474MOL0     C62445  10.963   9.731   6.515  0.2168 -0.1211 -0.4013
  474MOL0     C62446  11.036   9.786   6.643  0.0503  1.1959 -0.2925
  474MOL0     C62447  11.009   9.703   6.773  0.0623 -0.0023 -0.8193
  474MOL0     C62448  10.865   9.733   6.816 -0.2750 -0.1474 -0.5891
  474MOL0     C62449  10.838   9.665   6.949 -0.2166 -0.1985  0.1190
  474MOL0     C62450  10.688   9.671   6.989 -0.2203 -0.1993  0.1851
  474MOL0     C62451  10.665   9.583   7.110  0.4151 -0.0981  0.0462
  474MOL0     C62452  10.559   9.621   7.210  0.2913 -0.1900  0.5749
  474MOL0     N62453  10.587   9.741   7.291 -0.2200  0.7798 -0.7040
  474MOL0     C62454  10.702   9.752   7.372 -0.1730  0.3878  0.0197
  474MOL0     C62455  10.707   9.884   7.405  0.3483 -0.8374 -0.1006
  474MOL0     C62456  10.806   9.965   7.484 -0.4457 -0.4158  0.0113
  474MOL0     C62457  10.860   9.906   7.608 -0.7227 -0.1552 -0.8297
  474MOL0     C62458  10.946  10.015   7.676  0.0327 -0.4338 -1.1961
  474MOL0     C62459  11.029   9.960   7.794  0.1873 -0.5396 -0.6184
  474MOL0     O62460  11.095  10.069   7.853 -0.6589  1.0346 -0.3673
  474MOL0     C62461  11.220  10.070   7.908 -0.5676  1.3387 -0.7124
  474MOL0     C62462  11.249  10.187   7.990  0.0242 -0.2736  0.0957
  474MOL0     C62463  11.369  10.203   8.050  0.8037 -1.2317  0.3201
  474MOL0     C62464  11.470  10.110   8.025  0.5245  0.1789 -0.1800
  474MOL0     C62465  11.604  10.122   8.094  0.0349 -0.3547 -0.7738
  474MOL0     O62466  11.698  10.029   8.059  0.4670 -0.5342  0.6726
  474MOL0     C62467  11.834  10.037   8.082  0.3074 -0.3269 -0.7267
  474MOL0     C62468  11.910   9.935   8.030 -0.2407  1.2988 -0.3552
  474MOL0     C62469  12.048   9.929   8.029 -0.3960 -0.3861 -0.6005
  474MOL0     C62470  12.120  10.030   8.095  0.5941  0.6769 -0.1676
  474MOL0     O62471  12.256  10.018   8.098 -0.4952  0.7858 -0.2141
  474MOL0     C62472  12.344  10.116   8.150  0.6199  0.1024 -0.4217
  474MOL0     C62473  12.488  10.057   8.134 -0.0212 -0.7688 -0.5612
  474MOL0     C62474  12.543  10.031   8.001 -1.4269 -0.1542  0.2300
  474MOL0     C62475  12.659   9.933   8.008  0.2717 -0.2399 -0.4688
  474MOL0     C62476  12.773   9.985   8.089  0.1355  0.4787  0.2403
  474MOL0     C62477  12.871   9.864   8.108 -0.0045 -0.2021  0.8632
  474MOL0     C62478  13.011   9.895   8.157 -1.3170 -1.0401  0.4079
  474MOL0     C62479  13.099   9.935   8.038  0.2270  0.2460  0.0773
  474MOL0    Cl62480  13.102   9.795   7.915 -0.3854  0.2223 -0.2410
  474MOL0     C62481  12.045  10.126   8.166 -0.0875 -0.0525  0.8398
  474MOL0     C62482  11.903  10.133   8.157  0.6920  0.3910 -0.1447
  474MOL0     O62483  11.626  10.214   8.171 -0.2549 -0.0418 -0.6180
  474MOL0     C62484  11.458  10.000   7.934  0.9381 -0.6591 -0.2970
  474MOL0     C62485  11.323   9.970   7.885 -0.1169 -0.4968  1.0665
  474MOL0     N62486  10.604   9.955   7.340 -0.2860  0.1204  0.1120
  474MOL0     N62487  10.531   9.862   7.278  0.2255 -0.6327 -0.4474
  474MOL0     C62488  10.798   9.933   6.370  0.2427 -0.4917  0.2014
  474MOL0     C62489  10.685   9.958   6.297  0.0328 -0.1532  0.3885
  474MOL0     C62490  10.367   9.954   5.953  0.7059  0.6008 -0.2143
  474MOL0     C62491  10.329   9.956   5.818 -0.4230 -0.5039 -0.2510
  474MOL0     C62492  10.214  10.040   5.781  1.1139 -0.3300 -0.0450
  474MOL0     C62493  10.155  10.126   5.869  0.2570  0.3133 -1.0684
  474MOL0     O62494  10.062  10.218   5.831 -0.3121  0.4555  0.4080
  474MOL0     C62495  10.036  10.335   5.899 -0.0036 -0.1353 -0.0422
  474MOL0     C62496  10.152  10.434   5.890  0.4560  0.2388  0.9100
  474MOL0     C62497  10.189  10.463   5.747 -0.5175  0.1682  0.2065
  474MOL0     C62498  10.104  10.555   5.656 -0.4332  1.1694 -1.1208
  474MOL0     C62499   9.982  10.493   5.608  0.2738 -0.1682 -0.1265
  474MOL0     C62500   9.877  10.431   5.581 -0.3735 -0.7523 -0.9664
  474MOL0     C62501  10.193  10.123   6.001 -0.5275 -0.4413  0.7403
  474MOL0     C62502  10.297  10.043   6.040  0.9943 -0.6238  0.0504
  474MOL0     H62503  10.759   9.756   6.027 -0.5004 -1.6921  2.1028
  474MOL0     H62504  10.964   9.722   6.170 -0.6277 -3.0066  1.9218
  474MOL0     H62505  11.002   9.630   6.504  0.8982  0.1224 -0.2961
  474MOL0     H62506  10.855   9.735   6.530  0.5544  0.5645  2.3112
  474MOL0     H62507  11.008   9.888   6.669 -2.9356  0.1916  0.7701
  474MOL0     H62508  11.145   9.781   6.628 -0.3291 -0.8636 -3.1181
  474MOL0     H62509  11.076   9.733   6.854 -2.3414 -2.8908  2.5921
  474MOL0     H62510  11.014   9.595   6.755  0.4827 -0.3440  1.1099
  474MOL0     H62511  10.843   9.839   6.824  0.4207  0.1037 -1.7768
  474MOL0     H62512  10.798   9.691   6.740 -1.1286 -1.2935  0.7345
  474MOL0     H62513  10.900   9.705   7.030  1.3798 -1.5947 -0.3575
  474MOL0     H62514  10.874   9.562   6.941 -0.4314 -0.4139  1.6497
  474MOL0     H62515  10.629   9.638   6.903  0.9432 -0.5583 -0.4880
  474MOL0     H62516  10.661   9.775   7.009  1.1646  0.7159 -2.3781
  474MOL0     H62517  10.636   9.486   7.067 -2.7568  1.5185 -1.8991
  474MOL0     H62518  10.754   9.573   7.171  0.7091  1.1727 -0.1449
  474MOL0     H62519  10.557   9.533   7.275  0.0986  0.1726  1.0635
  474MOL0     H62520  10.463   9.626   7.158  0.5580 -1.7285 -0.1312
  474MOL0     H62521  10.763   9.670   7.407 -1.8602 -1.6777 -1.6631
  474MOL0     H62522  10.764  10.063   7.511 -0.7373 -0.7710  0.8678
  474MOL0     H62523  10.884   9.991   7.411 -0.8787  0.9149 -0.0083
  474MOL0     H62524  10.930   9.825   7.582  0.5733  1.0857 -1.3598
  474MOL0     H62525  10.775   9.869   7.664 -2.1407  0.6632 -2.3509
  474MOL0     H62526  11.015  10.060   7.603 -1.6120  0.0014 -2.5471
  474MOL0     H62527  10.889  10.098   7.719 -1.3654 -2.5196  1.2582
  474MOL0     H62528  11.099   9.889   7.750  1.7320  0.2246  0.5324
  474MOL0     H62529  10.972   9.900   7.866  2.6327  1.0448  2.9273
  474MOL0     H62530  11.165  10.253   8.011  0.1296  0.0577 -0.5134
  474MOL0     H62531  11.379  10.282   8.125 -0.1535  1.3032 -2.0487
  474MOL0     H62532  11.859   9.876   7.954  1.2366 -0.0464 -0.3392
  474MOL0     H62533  12.106   9.848   7.986  3.1666  1.1541  0.9011
  474MOL0     H62534  12.316  10.133   8.254  1.3124  1.9684 -0.5028
  474MOL0     H62535  12.345  10.215   8.103  4.8743  1.2328  1.5365
  474MOL0     H62536  12.482   9.964   8.191 -0.6770 -0.1933  0.3522
  474MOL0     H62537  12.555  10.126   8.187 -1.5724 -1.1303  2.0914
  474MOL0     H62538  12.571  10.119   7.942 -1.0043 -3.0643 -4.4245
  474MOL0     H62539  12.467   9.988   7.935  0.8938 -4.2145 -0.0977
  474MOL0     H62540  12.616   9.842   8.051 -1.3653  0.3746 -0.7247
  474MOL0     H62541  12.686   9.908   7.905  0.4147  1.4684 -0.8731
  474MOL0     H62542  12.739  10.024   8.186 -1.1334  1.3547 -0.5234
  474MOL0     H62543  12.824  10.070   8.041  2.3761 -0.9702 -0.0844
  474MOL0     H62544  12.877   9.820   8.008 -0.8140  0.7295  0.3831
  474MOL0     H62545  12.828   9.787   8.172 -3.0059  1.6895  1.3076
  474MOL0     H62546  13.028   9.980   8.224 -2.0416  1.6685 -2.5903
  474MOL0     H62547  13.053   9.805   8.203  0.1781 -0.4919  0.1515
  474MOL0     H62548  13.201   9.957   8.071  0.5829  0.6201 -1.2256
  474MOL0     H62549  13.069  10.027   7.987  2.2261 -0.2663 -2.1999
  474MOL0     H62550  12.088  10.212   8.217 -1.5671  2.0653 -1.2768
  474MOL0     H62551  11.868  10.217   8.217  1.1414 -1.6137  3.1870
  474MOL0     H62552  11.541   9.936   7.903  0.3444 -1.3845 -0.4299
  474MOL0     H62553  11.314   9.886   7.817  0.9410  0.5640 -0.4651
  474MOL0     H62554  10.813   9.992   6.459 -0.8246  0.5119 -0.2601
  474MOL0     H62555  10.608  10.029   6.327  1.5415  1.7156  0.0672
  474MOL0     H62556  10.386   9.905   5.741  0.6052  0.1057  0.0879
  474MOL0     H62557  10.193  10.061   5.676  2.4195 -1.2556 -0.5320
  474MOL0     H62558   9.994  10.322   6.000  0.8251 -1.4122  0.1734
  474MOL0     H62559   9.952  10.388   5.854 -0.8911 -0.9664  0.5901
  474MOL0     H62560  10.114  10.526   5.936 -1.3873  0.1917 -0.4139
  474MOL0     H62561  10.239  10.390   5.939 -0.2283 -3.3341 -0.8159
  474MOL0     H62562  10.199  10.369   5.693  0.7661  0.5252 -0.2164
  474MOL0     H62563  10.289  10.506   5.753 -0.9130  1.1449 -0.1105
  474MOL0     H62564  10.084  10.650   5.708 -0.1616  0.1948  0.8653
  474MOL0     H62565  10.160  10.595   5.571 -0.5500  0.0022 -1.7594
  474MOL0     H62566   9.795  10.363   5.574  0.8011 -2.3494  0.0255
  474MOL0     H62567  10.148  10.177   6.083  0.9467 -2.7926  3.2888
  474MOL0     H62568  10.313  10.060   6.147  1.0907 -0.3032 -0.0118
  475MOL0     O62569  10.357   6.944   6.746  0.0096 -0.3209  0.3061
  475MOL0     C62570  10.307   6.856   6.814 -0.2093 -0.6612 -0.9826
  475MOL0     O62571  10.185   6.859   6.873  0.5007  0.3046 -0.0522
  475MOL0     C62572  10.083   6.934   6.826  0.4998 -0.0257  0.0086
  475MOL0     C62573   9.995   6.980   6.924 -0.4266 -0.4901  0.3505
  475MOL0     C62574   9.882   7.052   6.891 -0.3169 -0.5293 -0.2241
  475MOL0     C62575   9.870   7.095   6.754  0.7441  0.6164 -0.7995
  475MOL0     O62576   9.772   7.180   6.700 -0.3306  0.2116  0.1482
  475MOL0     C62577   9.758   7.304   6.771  0.3865 -0.5445 -0.3411
  475MOL0     C62578   9.655   7.396   6.702  0.3918  0.0542 -0.6293
  475MOL0     C62579   9.518   7.350   6.732 -0.2390 -0.9884 -0.1954
  475MOL0     C62580   9.425   7.462   6.684 -0.5179  0.3651  0.6025
  475MOL0     C62581   9.284   7.413   6.643  0.0066 -0.2802 -0.8985
  475MOL0     C62582   9.199   7.529   6.587  0.0081  0.7225 -0.2254
  475MOL0     C62583   9.054   7.485   6.582  0.3088 -0.3461  0.1140
  475MOL0     C62584   8.974   7.578   6.480  0.4053  0.4757  0.0317
  475MOL0     N62585   8.828   7.564   6.505 -0.2268  0.2187 -0.3680
  475MOL0     C62586   8.757   7.657   6.571  0.0020  0.5793 -0.3806
  475MOL0     C62587   8.624   7.617   6.558 -0.3311 -0.3714  0.1935
  475MOL0     C62588   8.504   7.697   6.600 -0.1417  0.2996 -0.2017
  475MOL0     C62589   8.383   7.606   6.599  0.1274 -0.6581  0.4684
  475MOL0     C62590   8.259   7.667   6.654  0.2812 -0.0599  0.0888
  475MOL0     C62591   8.128   7.595   6.606 -0.2901 -0.0903 -0.1361
  475MOL0     O62592   8.016   7.651   6.683  0.6735 -0.1018  0.7986
  475MOL0     C62593   7.899   7.577   6.695 -0.5468 -0.3164  0.4972
  475MOL0     C62594   7.829   7.582   6.816 -0.3484  0.3471  0.5630
  475MOL0     C62595   7.704   7.519   6.831  0.4800 -1.1792 -0.1727
  475MOL0     C62596   7.659   7.429   6.728  0.9583 -0.3169 -0.1317
  475MOL0     C62597   7.537   7.347   6.745  0.8247 -0.2164 -0.1069
  475MOL0     O62598   7.506   7.265   6.644  1.0571  0.2263 -0.8393
  475MOL0     C62599   7.386   7.204   6.646 -0.0077 -1.0565 -0.1338
  475MOL0     C62600   7.263   7.270   6.614  0.0285  0.3421  0.0400
  475MOL0     C62601   7.144   7.201   6.602  0.6528  0.2049  0.6960
  475MOL0     C62602   7.150   7.067   6.632  0.7993  0.1047  0.3426
  475MOL0     O62603   7.037   6.984   6.613  0.5787 -0.1138  0.0731
  475MOL0     C62604   7.049   6.879   6.506  0.6115 -1.0606  0.5746
  475MOL0     C62605   6.925   6.898   6.418 -0.1280 -0.5253 -0.4344
  475MOL0     C62606   6.918   6.803   6.298  0.7846 -0.1707 -0.7639
  475MOL0     C62607   6.875   6.657   6.333  1.2431 -0.4426  0.6462
  475MOL0     C62608   6.730   6.664   6.389 -0.1611  0.2301  0.2785
  475MOL0     C62609   6.676   6.524   6.397  0.5414 -0.9710  1.0603
  475MOL0     C62610   6.531   6.521   6.446  0.2045  0.4175  0.0686
  475MOL0     C62611   6.488   6.383   6.489  0.2732 -0.5864 -0.9935
  475MOL0    Cl62612   6.530   6.264   6.365 -0.0356  0.2847 -0.3505
  475MOL0     C62613   7.260   7.004   6.667  0.3243  0.1888 -0.4253
  475MOL0     C62614   7.380   7.071   6.675  0.0048  0.5389 -0.5981
  475MOL0     O62615   7.483   7.339   6.854 -0.0623  0.0087 -0.2437
  475MOL0     C62616   7.723   7.428   6.608 -0.1252 -0.0674  1.3448
  475MOL0     C62617   7.842   7.508   6.585  0.0342  0.2754 -0.1323
  475MOL0     N62618   8.634   7.488   6.501 -1.1197 -0.0389  0.2776
  475MOL0     N62619   8.759   7.457   6.468 -0.8124 -0.4280 -0.2437
  475MOL0     C62620   9.952   7.051   6.653 -0.7654 -0.1460 -0.0398
  475MOL0     C62621  10.067   6.971   6.690  0.3776  0.2348 -0.6928
  475MOL0     C62622  10.378   6.726   6.812  0.9609 -0.4576  0.3102
  475MOL0     C62623  10.514   6.720   6.828 -0.0419 -0.0631  0.0443
  475MOL0     C62624  10.584   6.596   6.837 -0.5159 -0.0720 -0.4533
  475MOL0     C62625  10.503   6.477   6.838 -0.5261  0.7484 -0.0320
  475MOL0     O62626  10.560   6.350   6.840  0.6206 -0.1542  0.8334
  475MOL0     C62627  10.708   6.334   6.861  0.2355 -0.4220 -0.3195
  475MOL0     C62628  10.744   6.190   6.870 -0.4292 -0.3327 -0.0155
  475MOL0     C62629  10.662   6.118   6.986 -0.0323 -0.4991  0.3460
  475MOL0     C62630  10.705   5.973   6.995  0.2536  0.6456 -0.3956
  475MOL0     C62631  10.845   5.944   7.042 -0.4861  0.6477  0.5999
  475MOL0     C62632  10.952   5.917   7.093 -0.7624 -0.1589 -1.0557
  475MOL0     C62633  10.364   6.488   6.832 -0.7750 -0.0551  0.3034
  475MOL0     C62634  10.301   6.610   6.822 -0.0573 -0.4853  0.6595
  475MOL0     H62635  10.005   6.942   7.026 -0.7678  2.3395  1.5397
  475MOL0     H62636   9.804   7.081   6.960  0.5231 -1.1776  1.0320
  475MOL0     H62637   9.855   7.352   6.784 -0.3674  0.6363  1.2090
  475MOL0     H62638   9.711   7.296   6.870 -0.8017 -0.4680 -0.8825
  475MOL0     H62639   9.679   7.395   6.595  0.3801 -2.1449 -0.6729
  475MOL0     H62640   9.669   7.494   6.748 -0.8285  0.0217 -0.1724
  475MOL0     H62641   9.500   7.338   6.839 -0.3130  0.6433  0.0051
  475MOL0     H62642   9.496   7.257   6.678 -3.0573 -0.9261  0.6753
  475MOL0     H62643   9.418   7.541   6.759 -2.2112  1.4966 -0.6514
  475MOL0     H62644   9.470   7.490   6.588  1.2561 -2.5078  0.4914
  475MOL0     H62645   9.231   7.377   6.731  1.4707 -2.4540 -0.8244
  475MOL0     H62646   9.298   7.324   6.581  5.2527 -1.9188  2.0266
  475MOL0     H62647   9.219   7.567   6.486 -0.2853 -0.8001 -0.8879
  475MOL0     H62648   9.219   7.607   6.661 -1.6526  0.3589  0.6581
  475MOL0     H62649   9.048   7.377   6.562  3.0247 -1.1268  2.7712
  475MOL0     H62650   9.016   7.489   6.684  0.9356  0.3768  0.3286
  475MOL0     H62651   8.980   7.547   6.375 -4.5490 -1.3819  0.0039
  475MOL0     H62652   9.020   7.677   6.483  1.0045  0.3559 -2.5295
  475MOL0     H62653   8.792   7.743   6.628  1.5706  0.4587 -1.0957
  475MOL0     H62654   8.493   7.787   6.539  1.5117  0.5666 -0.1523
  475MOL0     H62655   8.499   7.729   6.705 -1.3217 -0.8437  0.1291
  475MOL0     H62656   8.391   7.515   6.659 -1.0985  0.0321  1.7403
  475MOL0     H62657   8.360   7.578   6.496 -1.5670  0.2323  0.5572
  475MOL0     H62658   8.266   7.661   6.763  0.4059  1.0805  0.1612
  475MOL0     H62659   8.250   7.773   6.627  1.3264  0.0356  0.0592
  475MOL0     H62660   8.134   7.488   6.630  0.2666 -0.0353  0.0030
  475MOL0     H62661   8.121   7.609   6.498  0.4276 -2.8352 -0.6290
  475MOL0     H62662   7.878   7.638   6.896  3.3335  0.0901 -1.2991
  475MOL0     H62663   7.645   7.531   6.922 -0.3667 -0.8660 -0.7460
  475MOL0     H62664   7.275   7.376   6.594  2.6216 -0.2364 -2.2681
  475MOL0     H62665   7.056   7.260   6.576  0.9871  0.6067  0.4668
  475MOL0     H62666   7.054   6.780   6.554  0.4544 -0.9007  0.9256
  475MOL0     H62667   7.141   6.888   6.448 -0.2281  0.1404 -0.6237
  475MOL0     H62668   6.921   6.996   6.369 -3.2886 -1.5317 -2.5293
  475MOL0     H62669   6.836   6.912   6.480  0.9344  3.0065  0.5413
  475MOL0     H62670   7.014   6.798   6.245  2.4090 -0.7940  2.0128
  475MOL0     H62671   6.842   6.833   6.225  1.1885  3.3119  0.0987
  475MOL0     H62672   6.883   6.605   6.237  1.0272 -0.7842  0.8102
  475MOL0     H62673   6.944   6.615   6.407 -0.5433  1.5701  3.6853
  475MOL0     H62674   6.663   6.727   6.331 -0.0877 -0.1661 -0.2470
  475MOL0     H62675   6.724   6.700   6.492 -1.4553  0.8328  0.0086
  475MOL0     H62676   6.748   6.461   6.450  1.3775 -0.2604  0.8067
  475MOL0     H62677   6.679   6.486   6.295  0.8853  0.7237  0.4183
  475MOL0     H62678   6.510   6.587   6.531 -1.3120  1.7722 -1.2780
  475MOL0     H62679   6.466   6.554   6.364 -0.9685  2.6619  1.7852
  475MOL0     H62680   6.381   6.377   6.511 -0.3740  2.6131 -2.7137
  475MOL0     H62681   6.537   6.369   6.586 -0.5612 -2.2774 -0.7694
  475MOL0     H62682   7.262   6.897   6.684 -1.6787  0.2173  0.2000
  475MOL0     H62683   7.462   7.005   6.700  0.0521  1.2868  1.4775
  475MOL0     H62684   7.689   7.369   6.524 -0.2664 -0.1630  1.4689
  475MOL0     H62685   7.886   7.510   6.486  0.6840  0.0114  0.1497
  475MOL0     H62686   9.938   7.094   6.554 -2.0472  2.3058  1.1220
  475MOL0     H62687  10.133   6.926   6.617 -0.0417 -0.4792 -0.6334
  475MOL0     H62688  10.577   6.809   6.831 -0.6947  0.4956 -1.6612
  475MOL0     H62689  10.692   6.601   6.838 -0.4971 -0.1932 -1.2090
  475MOL0     H62690  10.748   6.388   6.947 -0.8105  0.8276 -0.5946
  475MOL0     H62691  10.754   6.384   6.775 -0.5684  2.8155  0.9783
  475MOL0     H62692  10.725   6.128   6.782  2.0568 -3.0031  1.1412
  475MOL0     H62693  10.853   6.182   6.876 -0.2469  1.8023  0.2036
  475MOL0     H62694  10.555   6.133   6.967  0.0579 -2.6995 -2.6048
  475MOL0     H62695  10.688   6.166   7.081 -0.5839  2.1865 -0.7493
  475MOL0     H62696  10.629   5.931   7.062  2.2113 -0.1169  1.4756
  475MOL0     H62697  10.681   5.925   6.900  0.2166 -0.3643  0.1166
  475MOL0     H62698  11.046   5.898   7.140 -2.2601  1.1033  2.8097
  475MOL0     H62699  10.308   6.396   6.829  1.0977 -1.2557  0.5885
  475MOL0     H62700  10.196   6.602   6.797  0.5938  0.4214 -3.1235
  476MOL0     O62701   2.177   2.823   5.669  0.4222  0.3168  0.7994
  476MOL0     C62702   2.188   2.911   5.755  0.1493 -1.0862  0.2177
  476MOL0     O62703   2.306   2.969   5.805  0.8293 -0.0787 -0.4377
  476MOL0     C62704   2.424   2.920   5.748 -0.6322  0.3643  0.5818
  476MOL0     C62705   2.508   3.014   5.692  0.0352  0.2829 -0.0775
  476MOL0     C62706   2.624   2.975   5.627 -0.3982  0.3958 -0.3423
  476MOL0     C62707   2.666   2.844   5.622 -0.2812  0.1116 -0.0570
  476MOL0     O62708   2.770   2.817   5.545 -0.4519  0.0723 -0.4552
  476MOL0     C62709   2.837   2.689   5.533 -0.0917  1.3963  0.5104
  476MOL0     C62710   2.979   2.691   5.472  0.2208 -0.4022 -0.2832
  476MOL0     C62711   2.993   2.791   5.356  0.1450  0.0825 -0.7491
  476MOL0     C62712   3.103   2.743   5.266  0.1136  0.4547  0.1932
  476MOL0     C62713   3.124   2.824   5.142 -0.2519  0.1645 -0.5198
  476MOL0     C62714   3.012   2.809   5.035 -0.4580 -0.0616 -0.4315
  476MOL0     C62715   3.056   2.870   4.901 -0.6236  0.5881  0.2568
  476MOL0     C62716   2.995   2.821   4.774 -0.1658  0.2560  0.2044
  476MOL0     N62717   2.849   2.814   4.781 -0.4220  0.8407 -0.1674
  476MOL0     C62718   2.760   2.905   4.826  0.7274  0.1799  0.1428
  476MOL0     C62719   2.646   2.836   4.836 -0.1574  0.4950 -0.3215
  476MOL0     C62720   2.516   2.897   4.876 -0.0599  0.0299  0.3829
  476MOL0     C62721   2.478   3.013   4.780  0.1385  0.8896 -0.2724
  476MOL0     C62722   2.333   3.065   4.799  0.1171  0.6454  0.5815
  476MOL0     C62723   2.314   3.191   4.724  0.3850 -0.6924  0.7311
  476MOL0     O62724   2.227   3.288   4.789 -0.3617 -0.7327  0.6932
  476MOL0     C62725   2.090   3.289   4.766 -0.1781 -1.1222  1.0565
  476MOL0     C62726   2.015   3.390   4.823 -0.8355 -0.4448 -0.2773
  476MOL0     C62727   1.876   3.403   4.800  0.1490  0.0421  0.6202
  476MOL0     C62728   1.806   3.309   4.724  0.2584 -0.5399  0.6465
  476MOL0     C62729   1.653   3.306   4.717 -0.6446  0.4179 -0.0611
  476MOL0     O62730   1.600   3.215   4.625 -0.3020  0.1307 -0.3967
  476MOL0     C62731   1.465   3.224   4.607 -1.2583  0.1506  0.0397
  476MOL0     C62732   1.363   3.198   4.697  0.2627  0.4183  0.1571
  476MOL0     C62733   1.229   3.190   4.659  0.0869  0.6740  0.2919
  476MOL0     C62734   1.189   3.216   4.523 -0.2852  0.8264 -0.6250
  476MOL0     O62735   1.056   3.212   4.479 -0.0648 -0.3518 -0.8448
  476MOL0     C62736   0.954   3.151   4.561  0.3360 -0.5879  0.9174
  476MOL0     C62737   0.826   3.182   4.476 -0.2276 -0.1083 -0.0893
  476MOL0     C62738   0.717   3.095   4.550  0.4454 -0.4257  0.1560
  476MOL0     C62739   0.581   3.114   4.477  1.0771  0.5187  0.0090
  476MOL0     C62740   0.473   3.040   4.553 -0.6318  0.0277  0.0548
  476MOL0     C62741   0.485   2.892   4.540 -0.2659  0.3311  0.1535
  476MOL0     C62742   0.373   2.810   4.609 -0.5486 -0.7878  0.5755
  476MOL0     C62743   0.236   2.811   4.535  1.2313 -0.1066  0.8088
  476MOL0    Cl62744   0.111   2.711   4.618 -0.1434  0.0582  0.1354
  476MOL0     C62745   1.289   3.244   4.433 -0.0839 -0.5225  0.6643
  476MOL0     C62746   1.421   3.256   4.479  0.0201 -0.2057 -0.0008
  476MOL0     O62747   1.588   3.383   4.796 -0.1250 -0.3156 -0.0823
  476MOL0     C62748   1.885   3.206   4.667  0.6816 -0.3216  1.3988
  476MOL0     C62749   2.021   3.202   4.682 -0.2341  0.7469 -0.5461
  476MOL0     N62750   2.661   2.708   4.779  0.2682  0.1635 -0.3853
  476MOL0     N62751   2.782   2.695   4.757 -0.2764 -0.8617 -0.1148
  476MOL0     C62752   2.582   2.755   5.678 -1.0657  0.1528 -0.1467
  476MOL0     C62753   2.458   2.790   5.741  0.0537  0.1894  0.3013
  476MOL0     C62754   2.065   2.966   5.798 -0.7134  0.0228  0.7691
  476MOL0     C62755   1.944   2.902   5.780  0.3795 -0.1406  0.3495
  476MOL0     C62756   1.827   2.973   5.815  0.2422  0.0105  0.5164
  476MOL0     C62757   1.837   3.096   5.874 -0.1649  1.3489  0.9932
  476MOL0     O62758   1.721   3.154   5.890  0.5482  0.2079 -0.2994
  476MOL0     C62759   1.717   3.248   5.997 -0.0549 -0.0582  0.3464
  476MOL0     C62760   1.576   3.279   6.031  0.9744  0.6144 -0.4046
  476MOL0     C62761   1.504   3.358   5.930  0.3762 -0.3371 -0.0597
  476MOL0     C62762   1.355   3.360   5.956  0.3205 -0.5391  0.0720
  476MOL0     C62763   1.316   3.448   6.059 -0.5340 -0.1400  0.4006
  476MOL0     C62764   1.295   3.499   6.164 -0.5860  0.3197 -0.0206
  476MOL0     C62765   1.956   3.159   5.899  0.0747 -0.0047  0.9984
  476MOL0     C62766   2.073   3.091   5.860  0.7229 -1.0302  0.4795
  476MOL0     H62767   2.479   3.118   5.699  0.1323  0.2986  0.1206
  476MOL0     H62768   2.687   3.044   5.573 -2.3707  0.4848 -2.6945
  476MOL0     H62769   2.771   2.630   5.468  0.1252  0.7162  0.9078
  476MOL0     H62770   2.835   2.651   5.635 -3.9755 -0.9953 -0.2573
  476MOL0     H62771   2.983   2.586   5.441 -1.3101  0.3300 -3.4733
  476MOL0     H62772   3.053   2.718   5.547 -1.0249 -2.1008  1.6714
  476MOL0     H62773   3.013   2.893   5.391  2.7847 -0.0582 -1.5564
  476MOL0     H62774   2.903   2.783   5.294  2.3985 -2.9200 -4.0504
  476MOL0     H62775   3.195   2.749   5.325 -0.4221  0.9749  0.9970
  476MOL0     H62776   3.069   2.644   5.234 -1.3986 -0.0327  2.9559
  476MOL0     H62777   3.218   2.783   5.106 -0.4542 -1.8796  1.0786
  476MOL0     H62778   3.143   2.927   5.173  0.2585 -0.3008  0.7942
  476MOL0     H62779   2.911   2.840   5.062 -1.0273  0.0013 -2.4290
  476MOL0     H62780   3.010   2.702   5.015  0.1718 -0.2479  0.4269
  476MOL0     H62781   3.031   2.974   4.923 -0.9783  0.7721 -0.9014
  476MOL0     H62782   3.163   2.864   4.879 -1.1282  0.1420 -2.5183
  476MOL0     H62783   3.042   2.727   4.745  0.5976  0.3352  1.1175
  476MOL0     H62784   3.025   2.897   4.701 -0.9017  0.6475  0.3012
  476MOL0     H62785   2.786   3.000   4.872 -3.0008 -0.1222  3.4566
  476MOL0     H62786   2.515   2.934   4.980 -1.1396 -2.1895  1.2247
  476MOL0     H62787   2.435   2.826   4.858  1.1049 -0.7149 -2.2966
  476MOL0     H62788   2.486   2.973   4.679 -1.6840  2.4656 -1.1081
  476MOL0     H62789   2.554   3.088   4.804  0.2076  0.0124  2.6269
  476MOL0     H62790   2.259   2.992   4.764  0.9802 -1.4916  2.8539
  476MOL0     H62791   2.311   3.077   4.905 -1.7881 -0.2632  0.3392
  476MOL0     H62792   2.280   3.156   4.626  0.2555 -0.1585  0.5820
  476MOL0     H62793   2.413   3.237   4.714  1.8398 -3.0127  3.1706
  476MOL0     H62794   2.059   3.463   4.891 -2.8043 -0.3850  1.0053
  476MOL0     H62795   1.829   3.478   4.863  0.7664 -0.5189  1.7971
  476MOL0     H62796   1.380   3.181   4.803  1.2851  1.0398  0.1001
  476MOL0     H62797   1.145   3.165   4.723 -0.1470  0.1384 -0.2219
  476MOL0     H62798   0.952   3.214   4.650  0.5695 -0.7577  1.0425
  476MOL0     H62799   0.971   3.045   4.580  0.8060 -0.6481  0.2088
  476MOL0     H62800   0.835   3.155   4.371  1.0871  0.1727 -0.0699
  476MOL0     H62801   0.797   3.288   4.470 -1.3656 -0.4906 -2.4115
  476MOL0     H62802   0.692   3.129   4.651  2.7388  0.8489  0.3643
  476MOL0     H62803   0.744   2.989   4.546 -1.1938 -0.8422 -0.4881
  476MOL0     H62804   0.556   3.220   4.464  2.6761  0.8216 -0.8452
  476MOL0     H62805   0.587   3.080   4.373 -1.5203  0.5227 -0.1953
  476MOL0     H62806   0.376   3.074   4.514 -1.1648 -2.2596 -0.7669
  476MOL0     H62807   0.469   3.067   4.659 -2.2273  2.6259 -0.5827
  476MOL0     H62808   0.576   2.857   4.588 -0.9280  0.9498  1.9356
  476MOL0     H62809   0.503   2.870   4.434  2.3990 -1.2575  0.8549
  476MOL0     H62810   0.397   2.704   4.620 -2.9815 -1.3284  1.3649
  476MOL0     H62811   0.352   2.849   4.709  0.9451 -0.3221  0.7275
  476MOL0     H62812   0.254   2.757   4.442  2.8850  3.6517 -1.2471
  476MOL0     H62813   0.188   2.906   4.509  0.9003 -0.2968  0.7154
  476MOL0     H62814   1.283   3.257   4.325  2.6629 -0.1733  0.4725
  476MOL0     H62815   1.498   3.264   4.403  1.2322 -0.6617  1.1176
  476MOL0     H62816   1.838   3.128   4.608 -3.6935  1.8347  1.5695
  476MOL0     H62817   2.075   3.114   4.648  0.8274  0.6609  1.2478
  476MOL0     H62818   2.605   2.649   5.668  2.1409  0.8693 -1.6512
  476MOL0     H62819   2.399   2.718   5.797 -3.0790  2.8662  0.6890
  476MOL0     H62820   1.943   2.801   5.741  0.0098  0.4938 -1.3891
  476MOL0     H62821   1.728   2.928   5.804 -1.4970  3.2540  1.5585
  476MOL0     H62822   1.768   3.341   5.972  2.0072 -0.9068  1.1738
  476MOL0     H62823   1.764   3.203   6.086 -0.2542  1.6784  1.3669
  476MOL0     H62824   1.518   3.188   6.046 -1.3598  2.0376 -0.1989
  476MOL0     H62825   1.583   3.344   6.119  0.5351 -1.4202  1.1894
  476MOL0     H62826   1.517   3.316   5.830 -2.8626 -0.2274 -0.6469
  476MOL0     H62827   1.548   3.458   5.927 -0.4526  0.0436  0.1015
  476MOL0     H62828   1.289   3.371   5.870 -0.0990  0.8246  0.5479
  476MOL0     H62829   1.328   3.260   5.992 -0.4972  0.0886  1.2513
  476MOL0     H62830   1.278   3.552   6.256  0.2897  3.5176 -1.5763
  476MOL0     H62831   1.964   3.263   5.927  2.5179 -0.4579  2.2264
  476MOL0     H62832   2.171   3.139   5.860  0.8864 -1.1129 -2.8678
  477MOL0     O62833   3.584   7.485   4.629 -0.7139  0.4748  0.0746
  477MOL0     C62834   3.694   7.528   4.652  0.0723 -0.0916 -0.4492
  477MOL0     O62835   3.732   7.643   4.707  0.6539 -1.1325 -0.0665
  477MOL0     C62836   3.641   7.735   4.751  0.7794  0.3112 -0.8193
  477MOL0     C62837   3.682   7.859   4.729  0.4325  0.1605 -0.4105
  477MOL0     C62838   3.598   7.962   4.760 -0.0249 -0.7787  0.3080
  477MOL0     C62839   3.470   7.948   4.797  0.3206 -0.0522 -1.0764
  477MOL0     O62840   3.382   8.052   4.809  0.4612 -0.3605  0.2408
  477MOL0     C62841   3.249   8.038   4.867 -0.4570  0.7281 -0.2332
  477MOL0     C62842   3.248   8.041   5.020 -0.9217  0.6594  0.0807
  477MOL0     C62843   3.104   8.032   5.075  0.5840 -0.0505 -0.7756
  477MOL0     C62844   3.011   7.921   5.025  0.6643  0.2378 -0.0272
  477MOL0     C62845   2.878   7.900   5.115 -0.5720 -0.2296 -0.4167
  477MOL0     C62846   2.774   8.004   5.079  0.0227 -0.6481  0.1236
  477MOL0     C62847   2.645   7.997   5.159 -0.3557  0.6126 -0.6134
  477MOL0     C62848   2.586   7.860   5.179 -0.0241  0.3033  1.1979
  477MOL0     N62849   2.466   7.834   5.101 -0.1868  0.1339  0.4462
  477MOL0     C62850   2.343   7.855   5.158 -0.4249  0.3201 -0.5757
  477MOL0     C62851   2.257   7.802   5.068 -1.1464 -0.0814 -0.1653
  477MOL0     C62852   2.103   7.795   5.090  0.5856  0.0610 -0.0370
  477MOL0     C62853   2.038   7.905   4.996 -0.7013 -0.1102  0.3281
  477MOL0     C62854   1.900   7.960   5.041 -0.4818  0.6470 -0.0467
  477MOL0     C62855   1.787   7.856   5.011 -0.1910  0.6914  0.7659
  477MOL0     O62856   1.764   7.829   4.872 -0.1643  0.6363 -0.0015
  477MOL0     C62857   1.689   7.908   4.793 -0.5385  0.4424  0.4861
  477MOL0     C62858   1.670   7.873   4.664  0.1150 -0.1640  0.2158
  477MOL0     C62859   1.594   7.959   4.580 -0.8520  0.7817  0.0756
  477MOL0     C62860   1.526   8.072   4.628 -0.1765  1.1904  0.4216
  477MOL0     C62861   1.444   8.159   4.543  0.4935  0.1097 -0.8665
  477MOL0     O62862   1.403   8.288   4.591  0.0495 -0.1826  0.3347
  477MOL0     C62863   1.300   8.354   4.516 -0.1276  0.2125  0.3822
  477MOL0     C62864   1.339   8.435   4.412 -0.1686 -0.7638  0.1971
  477MOL0     C62865   1.249   8.512   4.344 -0.8768 -0.5539  0.3139
  477MOL0     C62866   1.114   8.497   4.371  0.1000 -0.0090  0.5859
  477MOL0     O62867   1.019   8.547   4.285 -0.4860 -0.4106  0.1053
  477MOL0     C62868   0.885   8.507   4.279  0.6453 -0.2783  0.4705
  477MOL0     C62869   0.831   8.547   4.138 -0.3769 -0.4942 -0.4686
  477MOL0     C62870   0.693   8.500   4.110  0.7122 -0.3638  0.7885
  477MOL0     C62871   0.639   8.545   3.970  0.2535 -0.8103 -0.4590
  477MOL0     C62872   0.717   8.496   3.845  0.7797 -0.7159 -0.5367
  477MOL0     C62873   0.673   8.558   3.712  0.1793 -0.2180  0.1037
  477MOL0     C62874   0.709   8.707   3.700  0.3019 -0.2944 -1.1399
  477MOL0     C62875   0.730   8.760   3.565 -0.3997 -0.4533 -0.5590
  477MOL0    Cl62876   0.745   8.929   3.567  0.2925  0.1225 -0.2901
  477MOL0     C62877   1.072   8.428   4.487 -0.1634 -0.6994 -0.2508
  477MOL0     C62878   1.168   8.358   4.563  0.1568 -1.2532  0.4760
  477MOL0     O62879   1.402   8.109   4.436 -0.5095 -0.6306 -0.5194
  477MOL0     C62880   1.560   8.113   4.759 -0.9640 -0.8205 -0.7670
  477MOL0     C62881   1.641   8.028   4.841  1.2032  0.7915  1.1875
  477MOL0     N62882   2.322   7.738   4.961  0.9581 -0.1040 -0.3745
  477MOL0     N62883   2.447   7.763   4.981  0.2543  0.0969  0.1905
  477MOL0     C62884   3.424   7.819   4.833 -1.0185 -0.2912  0.5873
  477MOL0     C62885   3.514   7.712   4.814 -0.1759 -0.6073 -0.4736
  477MOL0     C62886   3.808   7.437   4.617 -0.7622  0.0208  0.0085
  477MOL0     C62887   3.947   7.479   4.622  0.1934  0.0017 -0.6069
  477MOL0     C62888   4.042   7.380   4.597  0.2522 -0.9650  0.0431
  477MOL0     C62889   4.014   7.248   4.559 -0.5351 -0.2253  0.0060
  477MOL0     O62890   4.128   7.174   4.533  0.2210  0.4837 -0.2217
  477MOL0     C62891   4.126   7.104   4.405  0.3754 -0.0786 -0.2572
  477MOL0     C62892   4.215   7.180   4.312  0.4405 -0.2324  0.5152
  477MOL0     C62893   4.170   7.153   4.167  0.1515  0.2171 -0.0652
  477MOL0     C62894   4.292   7.182   4.073  0.4595 -0.5186  0.5329
  477MOL0     C62895   4.316   7.331   4.069  0.0930 -0.0136  0.4768
  477MOL0     C62896   4.321   7.455   4.067 -0.6447  0.0834 -0.0071
  477MOL0     C62897   3.879   7.212   4.546  0.1596 -0.4771  0.3522
  477MOL0     C62898   3.782   7.305   4.582  0.9067 -0.6212  0.3503
  477MOL0     H62899   3.780   7.891   4.694  0.1646  2.4422  0.7039
  477MOL0     H62900   3.646   8.058   4.746  1.1183 -1.3666  0.0675
  477MOL0     H62901   3.204   7.942   4.840  0.2655  0.1098  0.7224
  477MOL0     H62902   3.184   8.119   4.830 -0.5336  0.6267 -0.3189
  477MOL0     H62903   3.292   8.135   5.054 -1.8057  1.7044 -1.5664
  477MOL0     H62904   3.293   7.954   5.069 -0.4879  1.5641  1.3423
  477MOL0     H62905   3.055   8.128   5.060 -0.4842 -0.0285  2.1166
  477MOL0     H62906   3.112   8.031   5.184  1.4107 -0.0261 -0.8309
  477MOL0     H62907   2.976   7.946   4.925  1.7184 -0.8386 -0.6859
  477MOL0     H62908   3.072   7.830   5.027 -0.3648 -0.4809  1.4029
  477MOL0     H62909   2.916   7.922   5.216 -2.5369 -4.2341  1.4266
  477MOL0     H62910   2.845   7.796   5.118  1.1381 -0.8047 -0.1559
  477MOL0     H62911   2.750   7.986   4.974 -0.7129 -0.3523  0.2350
  477MOL0     H62912   2.822   8.103   5.075 -0.0745 -0.5774  0.6790
  477MOL0     H62913   2.661   8.038   5.259 -0.5985  0.7942 -0.6480
  477MOL0     H62914   2.573   8.064   5.111 -0.6429 -0.2789 -1.4736
  477MOL0     H62915   2.564   7.848   5.286  1.4840  2.7590  1.8893
  477MOL0     H62916   2.652   7.778   5.149 -2.0250 -1.6214  1.8251
  477MOL0     H62917   2.323   7.892   5.258  0.2316 -0.7135 -0.0392
  477MOL0     H62918   2.085   7.813   5.197 -1.3026  1.1203 -0.4861
  477MOL0     H62919   2.072   7.693   5.067  4.2968 -1.3208  0.3763
  477MOL0     H62920   2.022   7.873   4.893  3.3267 -1.1109 -0.1486
  477MOL0     H62921   2.105   7.990   4.983  0.0795 -0.5877  1.1035
  477MOL0     H62922   1.901   7.978   5.148 -0.3673 -0.0817  0.0817
  477MOL0     H62923   1.878   8.053   4.988  2.7519  4.3809  4.4436
  477MOL0     H62924   1.691   7.883   5.056 -1.2463  0.6140 -1.3018
  477MOL0     H62925   1.830   7.772   5.066  1.3730  1.5745  0.9593
  477MOL0     H62926   1.729   7.793   4.622 -0.0676  0.0022 -0.3552
  477MOL0     H62927   1.580   7.926   4.477 -1.4358  1.0561  0.0614
  477MOL0     H62928   1.439   8.436   4.370 -0.2681 -1.1305 -0.0593
  477MOL0     H62929   1.282   8.575   4.262 -2.7512  2.6240  1.8168
  477MOL0     H62930   0.827   8.571   4.346  1.7102  0.6416  0.5456
  477MOL0     H62931   0.869   8.401   4.300  2.1983 -0.4641  0.8355
  477MOL0     H62932   0.898   8.502   4.065  2.1826 -0.8006  1.8940
  477MOL0     H62933   0.842   8.655   4.130  0.0691 -0.3927  1.2027
  477MOL0     H62934   0.631   8.525   4.196  2.8459 -1.4248  2.7445
  477MOL0     H62935   0.683   8.391   4.112 -1.6257 -0.1914  1.8597
  477MOL0     H62936   0.535   8.510   3.971  0.0813 -0.3939  1.5730
  477MOL0     H62937   0.628   8.654   3.965  0.8524 -0.6904  0.5520
  477MOL0     H62938   0.698   8.389   3.834 -0.7647 -0.3832 -1.4760
  477MOL0     H62939   0.824   8.517   3.845  0.3478  1.7998 -0.1391
  477MOL0     H62940   0.565   8.543   3.710  0.2938 -1.4022  1.4169
  477MOL0     H62941   0.719   8.509   3.626 -0.5477 -2.0122  0.6842
  477MOL0     H62942   0.622   8.752   3.747  1.4678 -0.2248  1.0637
  477MOL0     H62943   0.803   8.707   3.755 -1.3205 -3.3274  2.0274
  477MOL0     H62944   0.649   8.734   3.496  1.9134 -1.3805 -3.0982
  477MOL0     H62945   0.817   8.711   3.521 -0.0834  1.3987 -2.1179
  477MOL0     H62946   0.968   8.426   4.519 -0.7650 -0.5749 -2.0990
  477MOL0     H62947   1.128   8.325   4.658 -0.4050 -0.4425  0.5300
  477MOL0     H62948   1.534   8.213   4.791  0.4121 -0.4766 -0.6792
  477MOL0     H62949   1.654   8.052   4.946  0.6702 -0.7620  1.6404
  477MOL0     H62950   3.329   7.798   4.882 -2.1105 -0.6261 -1.5675
  477MOL0     H62951   3.478   7.618   4.855  0.3563  0.2912  2.2511
  477MOL0     H62952   3.980   7.577   4.653 -0.5708  0.5281 -1.4103
  477MOL0     H62953   4.145   7.407   4.617 -0.5222  2.2303  0.2023
  477MOL0     H62954   4.024   7.087   4.368  0.9100  0.4177 -2.0434
  477MOL0     H62955   4.165   7.004   4.425 -0.0635 -0.5172 -1.5519
  477MOL0     H62956   4.207   7.289   4.320  2.4611  0.1425 -1.4612
  477MOL0     H62957   4.322   7.161   4.320  0.4799  0.0298  0.5951
  477MOL0     H62958   4.084   7.215   4.140 -1.1347 -0.8200  1.4686
  477MOL0     H62959   4.155   7.045   4.155  2.1558 -0.0688 -0.3365
  477MOL0     H62960   4.386   7.135   4.102  1.5423  1.5982  0.6662
  477MOL0     H62961   4.266   7.141   3.975 -0.2719 -0.7851  0.8286
  477MOL0     H62962   4.309   7.560   4.085  0.9202  0.2991 -0.1311
  477MOL0     H62963   3.848   7.113   4.515 -1.6803  0.2118 -0.1971
  477MOL0     H62964   3.680   7.271   4.568  1.0747 -0.7616 -0.5809
  478MOL0     O62965  10.479   6.546  10.214  0.5871 -0.5468 -0.1309
  478MOL0     C62966  10.476   6.665  10.176 -0.0175 -0.0847  0.6235
  478MOL0     O62967  10.370   6.749  10.163  0.4644 -0.1012 -0.6543
  478MOL0     C62968  10.244   6.695  10.173 -0.1792 -0.8428  0.4084
  478MOL0     C62969  10.207   6.576  10.113 -0.7802 -0.8717  0.4968
  478MOL0     C62970  10.076   6.537  10.108  0.9568  0.2039  0.2499
  478MOL0     C62971   9.975   6.612  10.173 -0.2293  0.5374 -0.3817
  478MOL0     O62972   9.838   6.588  10.185  0.7285 -0.3916  0.0756
  478MOL0     C62973   9.785   6.459  10.150 -0.4147 -0.0651 -0.0566
  478MOL0     C62974   9.636   6.451  10.185  0.5401  0.3647 -0.9094
  478MOL0     C62975   9.580   6.310  10.196  0.2104 -0.8708  0.1451
  478MOL0     C62976   9.460   6.324  10.290  0.1002  1.0237 -0.2074
  478MOL0     C62977   9.346   6.416  10.253  0.0969  0.5243  0.0956
  478MOL0     C62978   9.294   6.367  10.115  1.3411  0.4487  0.4534
  478MOL0     C62979   9.154   6.412  10.101 -0.3048 -0.9753 -0.5748
  478MOL0     C62980   9.092   6.378   9.963  0.4005  0.0305  0.2176
  478MOL0     N62981   8.948   6.418   9.963  0.1141  0.3182 -0.2995
  478MOL0     C62982   8.901   6.511   9.878 -0.2176  0.2173 -0.1419
  478MOL0     C62983   8.770   6.503   9.893  0.5743 -0.3426 -0.4869
  478MOL0     C62984   8.676   6.582   9.809 -0.5964  0.4218  0.4006
  478MOL0     C62985   8.625   6.707   9.869  0.1831 -0.2839  0.0739
  478MOL0     C62986   8.515   6.673   9.974  0.4310 -0.0841  0.3587
  478MOL0     C62987   8.380   6.615   9.934  0.1931  0.2756  0.1171
  478MOL0     O62988   8.323   6.553  10.050 -0.3533  0.5153  1.1880
  478MOL0     C62989   8.186   6.517  10.059 -0.1834 -0.1048  0.0058
  478MOL0     C62990   8.108   6.514   9.946  0.8878 -0.2443  0.3228
  478MOL0     C62991   7.972   6.472   9.961  0.4724  0.2463 -0.0832
  478MOL0     C62992   7.929   6.419  10.087  0.1327 -0.2410  0.5617
  478MOL0     C62993   7.784   6.367  10.091 -0.8561 -0.2873 -0.8636
  478MOL0     O62994   7.708   6.373   9.978 -0.0768  0.1864  0.1765
  478MOL0     C62995   7.583   6.311   9.989  0.6919  0.8017  0.0137
  478MOL0     C62996   7.538   6.228   9.884  0.6546 -0.5846 -0.0503
  478MOL0     C62997   7.403   6.181   9.881  0.4313 -0.2118  0.3808
  478MOL0     C62998   7.321   6.214   9.985 -0.5941 -0.3730 -0.5672
  478MOL0     O62999   7.186   6.176  10.009 -0.0045 -0.3682 -0.6934
  478MOL0     C63000   7.124   6.112   9.897  1.0873  0.2854  0.0133
  478MOL0     C63001   6.975   6.094   9.942 -0.0062 -0.4525 -0.3045
  478MOL0     C63002   6.895   6.017   9.842 -0.4248 -0.1226  0.1459
  478MOL0     C63003   6.751   6.026   9.890  0.0678  0.4066 -0.1346
  478MOL0     C63004   6.665   5.956   9.778 -0.9827  0.8088  0.0756
  478MOL0     C63005   6.527   5.931   9.816  0.6031  0.0887 -0.2722
  478MOL0     C63006   6.441   5.863   9.714  0.2251  0.8325  0.8620
  478MOL0     C63007   6.304   5.823   9.764 -0.2009  0.2529  0.6599
  478MOL0    Cl63008   6.218   5.970   9.802  0.2527  0.3174  0.5454
  478MOL0     C63009   7.372   6.286  10.093  0.1558 -0.4573  0.4441
  478MOL0     C63010   7.499   6.341  10.092  0.7901 -0.8915 -0.5221
  478MOL0     O63011   7.761   6.305  10.194  0.3385  0.6123 -0.6524
  478MOL0     C63012   8.010   6.428  10.198  0.3957 -0.1015 -1.2682
  478MOL0     C63013   8.142   6.476  10.180 -0.1334 -0.6543 -0.2402
  478MOL0     N63014   8.738   6.414   9.994 -0.0995  0.1221 -0.3528
  478MOL0     N63015   8.847   6.363  10.032 -0.1797  0.4692  0.2846
  478MOL0     C63016  10.009   6.735  10.218  0.1598  0.2144  0.4441
  478MOL0     C63017  10.138   6.781  10.214 -0.5252  0.1323  0.0204
  478MOL0     C63018  10.613   6.723  10.166  0.0302  0.2576  0.5682
  478MOL0     C63019  10.725   6.639  10.174 -0.4299 -0.0481  0.5016
  478MOL0     C63020  10.858   6.688  10.183 -0.8114 -0.0922  0.7716
  478MOL0     C63021  10.881   6.824  10.188  0.0034 -0.8159 -0.0106
  478MOL0     O63022  11.002   6.883  10.177 -0.4266 -0.0377  0.2572
  478MOL0     C63023  11.123   6.806  10.152  0.4481  0.1691  0.4150
  478MOL0     C63024  11.143   6.764  10.006  0.0295 -0.3789 -0.1206
  478MOL0     C63025  11.216   6.875   9.923 -0.7562 -0.1748  0.0547
  478MOL0     C63026  11.251   6.837   9.782  0.5575  0.0282  0.6367
  478MOL0     C63027  11.380   6.773   9.773 -0.4775  0.2774  0.0201
  478MOL0     C63028  11.481   6.700   9.764  0.5350  0.0915 -0.4540
  478MOL0     C63029  10.765   6.908  10.176  0.2147  0.0231  0.2007
  478MOL0     C63030  10.633   6.860  10.161  0.0867 -0.1703  0.3078
  478MOL0     H63031  10.279   6.516  10.058  0.4286  2.5869 -2.0223
  478MOL0     H63032  10.041   6.445  10.062 -0.8142  1.2785 -0.6358
  478MOL0     H63033   9.843   6.380  10.199  0.3898  0.1777 -0.6031
  478MOL0     H63034   9.799   6.451  10.042 -0.1690  3.6552 -0.4216
  478MOL0     H63035   9.577   6.502  10.109  1.7524  1.3319 -1.2144
  478MOL0     H63036   9.622   6.506  10.278  0.1893 -0.3517 -0.5292
  478MOL0     H63037   9.660   6.249  10.239  2.1602  1.3865 -0.0873
  478MOL0     H63038   9.558   6.285  10.092  1.1850  0.3126 -0.3629
  478MOL0     H63039   9.419   6.223  10.300  4.5277 -1.1599 -1.4090
  478MOL0     H63040   9.489   6.347  10.393 -1.4081 -2.7055  1.2264
  478MOL0     H63041   9.369   6.522  10.243  0.0599  0.3723 -2.4282
  478MOL0     H63042   9.269   6.414  10.330  1.7688  1.9874  1.9143
  478MOL0     H63043   9.296   6.258  10.118 -1.7347  0.1265 -2.8832
  478MOL0     H63044   9.344   6.402  10.025  1.9982 -0.2210  0.5447
  478MOL0     H63045   9.084   6.358  10.165  1.3650  0.2660  2.4939
  478MOL0     H63046   9.140   6.519  10.119 -0.6343 -1.1345  0.1526
  478MOL0     H63047   9.096   6.269   9.955 -0.4938  0.0943 -1.7097
  478MOL0     H63048   9.144   6.420   9.876  0.4726  1.5015  0.9487
  478MOL0     H63049   8.954   6.579   9.812 -1.1176 -0.0620 -1.1755
  478MOL0     H63050   8.599   6.514   9.771  0.2445  0.1837 -0.9299
  478MOL0     H63051   8.727   6.619   9.720  1.7481 -2.0123  0.5902
  478MOL0     H63052   8.592   6.782   9.797  0.6806  1.2074  1.3520
  478MOL0     H63053   8.704   6.753   9.929 -1.8206  0.5814  2.1977
  478MOL0     H63054   8.556   6.605  10.050 -1.6894 -2.0586 -0.1537
  478MOL0     H63055   8.501   6.768  10.028 -1.2103  0.7346 -1.3754
  478MOL0     H63056   8.395   6.541   9.855  0.8066  0.9904 -0.4560
  478MOL0     H63057   8.322   6.700   9.898  0.9766  1.0019  0.5329
  478MOL0     H63058   8.148   6.545   9.850  0.2354 -0.4228 -0.0082
  478MOL0     H63059   7.901   6.472   9.878  1.0171 -0.5416 -0.5586
  478MOL0     H63060   7.612   6.218   9.805  1.4823  1.6985  0.3313
  478MOL0     H63061   7.369   6.118   9.799 -1.6724  1.8257 -0.4304
  478MOL0     H63062   7.161   6.009   9.895  0.3262 -0.0459  1.4555
  478MOL0     H63063   7.129   6.159   9.798 -3.1296 -2.4480 -1.7861
  478MOL0     H63064   6.925   6.190   9.951  0.1586 -0.3825 -0.1123
  478MOL0     H63065   6.971   6.041  10.038  0.9405 -1.1181 -0.6127
  478MOL0     H63066   6.920   5.910   9.844  1.2902  0.2503  2.1820
  478MOL0     H63067   6.919   6.059   9.744 -0.8293  2.4354  1.0809
  478MOL0     H63068   6.741   5.982   9.990  0.0896  4.0367  1.6177
  478MOL0     H63069   6.724   6.131   9.901 -1.0715  0.1702 -0.4407
  478MOL0     H63070   6.705   5.857   9.751 -0.0341  0.7249  1.7025
  478MOL0     H63071   6.680   6.020   9.691 -0.6879 -0.6519 -0.9943
  478MOL0     H63072   6.479   6.025   9.844  1.5226  0.8032 -1.0367
  478MOL0     H63073   6.525   5.865   9.903  1.9834  1.4708  0.8408
  478MOL0     H63074   6.416   5.929   9.630  1.3102 -1.7904 -1.6916
  478MOL0     H63075   6.487   5.776   9.665 -2.3072 -0.0545 -0.0919
  478MOL0     H63076   6.313   5.762   9.853 -1.0819 -2.6071 -1.0784
  478MOL0     H63077   6.243   5.764   9.694  3.2259 -1.2432 -1.3260
  478MOL0     H63078   7.301   6.310  10.172  0.9297 -0.9908  1.3244
  478MOL0     H63079   7.528   6.403  10.176 -1.9023 -0.1442 -0.0375
  478MOL0     H63080   7.978   6.384  10.292  0.8369 -1.1655 -1.5985
  478MOL0     H63081   8.215   6.484  10.260 -0.6057  1.8039  0.0169
  478MOL0     H63082   9.932   6.807  10.244 -1.2470 -0.5033 -1.4831
  478MOL0     H63083  10.163   6.882  10.247 -3.4734  0.3391  1.9711
  478MOL0     H63084  10.710   6.532  10.175 -2.7986  0.2396  0.7872
  478MOL0     H63085  10.940   6.617  10.186 -0.6587 -0.0600 -1.5273
  478MOL0     H63086  11.128   6.710  10.204  1.7009 -1.4298 -2.4386
  478MOL0     H63087  11.208   6.858  10.198  0.3912  1.2082 -0.5965
  478MOL0     H63088  11.210   6.678  10.008  1.1805  0.4663 -0.8795
  478MOL0     H63089  11.053   6.736   9.950 -0.9198 -1.0444  1.6809
  478MOL0     H63090  11.304   6.912   9.975 -1.0155  1.1001 -0.3740
  478MOL0     H63091  11.140   6.954   9.920  2.3330  2.9768 -1.0669
  478MOL0     H63092  11.174   6.778   9.730 -1.0352  0.8420  1.9798
  478MOL0     H63093  11.261   6.921   9.713  1.4434 -0.9808 -0.5069
  478MOL0     H63094  11.569   6.638   9.757 -1.3610 -2.9939  0.6862
  478MOL0     H63095  10.773   7.016  10.168 -1.2424  0.0832 -0.8240
  478MOL0     H63096  10.549   6.928  10.150 -1.2905 -1.4194  2.5389
  479MOL0     O63097   7.576   5.930  10.778 -0.4537 -0.0401  0.0278
  479MOL0     C63098   7.535   5.845  10.857  0.3158 -0.9140  0.1754
  479MOL0     O63099   7.416   5.859  10.929 -0.1326  0.7128  0.5383
  479MOL0     C63100   7.354   5.978  10.950 -0.3846 -0.7390  0.1560
  479MOL0     C63101   7.410   6.104  10.936 -0.2337 -0.0263 -1.4339
  479MOL0     C63102   7.334   6.214  10.956 -0.8210  0.3135 -0.6043
  479MOL0     C63103   7.198   6.196  10.985 -0.1860 -0.9234  0.0316
  479MOL0     O63104   7.120   6.315  10.989  1.0554  0.4285 -1.3984
  479MOL0     C63105   7.181   6.442  11.021  0.8644 -0.5534  0.3020
  479MOL0     C63106   7.089   6.569  11.040  0.4512 -0.3531 -0.2145
  479MOL0     C63107   6.999   6.606  10.912  0.2497  0.1684  0.2022
  479MOL0     C63108   7.043   6.740  10.848 -0.3720  0.2876 -1.1886
  479MOL0     C63109   6.979   6.772  10.718  0.1511 -0.0852 -0.5534
  479MOL0     C63110   6.817   6.791  10.734 -0.6034  1.1907  0.1152
  479MOL0     C63111   6.761   6.829  10.600 -0.3546 -0.3976  0.6311
  479MOL0     C63112   6.611   6.857  10.607 -0.2018 -0.7292 -0.3100
  479MOL0     N63113   6.555   6.870  10.475  0.3096 -0.1494  0.0660
  479MOL0     C63114   6.516   6.989  10.407  0.4833  0.1770 -0.2343
  479MOL0     C63115   6.441   6.949  10.303 -0.1455 -0.1550 -0.6016
  479MOL0     C63116   6.367   7.032  10.201 -0.5632  0.4115 -0.6410
  479MOL0     C63117   6.218   7.044  10.223 -0.7168  0.4243  0.0431
  479MOL0     C63118   6.164   7.135  10.117  0.2868  0.0628  0.6464
  479MOL0     C63119   6.006   7.123  10.089 -0.1236  0.5794 -0.5706
  479MOL0     O63120   5.935   7.190  10.191 -0.3185  0.0582  0.3195
  479MOL0     C63121   5.803   7.211  10.168  0.4051 -0.3666 -1.2015
  479MOL0     C63122   5.730   7.310  10.240  0.8936 -1.0112 -0.3366
  479MOL0     C63123   5.588   7.319  10.233 -0.6040  0.1618 -0.1838
  479MOL0     C63124   5.515   7.236  10.145 -0.6362  0.6216  0.3929
  479MOL0     C63125   5.368   7.254  10.121  0.0755 -0.1802 -0.7676
  479MOL0     O63126   5.312   7.199  10.014  0.2978 -0.0076 -0.1324
  479MOL0     C63127   5.181   7.221   9.985  0.6670 -0.3668 -0.9530
  479MOL0     C63128   5.089   7.186  10.083 -0.2853  0.4269 -0.2373
  479MOL0     C63129   4.947   7.196  10.067  0.0556 -0.3173 -0.7159
  479MOL0     C63130   4.894   7.230   9.942  0.1032  0.1647  0.0651
  479MOL0     O63131   4.761   7.221   9.897 -0.3796 -0.5484  0.2276
  479MOL0     C63132   4.680   7.132   9.977  0.6174 -0.3270  0.4504
  479MOL0     C63133   4.564   7.108   9.892  0.2200  0.7525  0.0958
  479MOL0     C63134   4.484   7.242   9.874 -0.6664  0.2681  0.2330
  479MOL0     C63135   4.350   7.227   9.811  0.2042  0.0938 -0.3921
  479MOL0     C63136   4.243   7.170   9.901  0.4861 -0.6966  0.2275
  479MOL0     C63137   4.098   7.168   9.840  0.6711 -0.3916  0.4169
  479MOL0     C63138   3.985   7.116   9.935 -1.1059  0.5962 -0.2299
  479MOL0     C63139   4.000   6.958   9.945  0.6327 -0.5246 -0.0325
  479MOL0    Cl63140   3.861   6.877  10.033 -0.0648  0.0946 -0.5390
  479MOL0     C63141   4.991   7.259   9.845  0.1169  0.0399 -0.4429
  479MOL0     C63142   5.130   7.260   9.859 -0.0298  0.0329 -0.0163
  479MOL0     O63143   5.311   7.315  10.205 -0.5463 -0.3678 -0.2333
  479MOL0     C63144   5.589   7.141  10.073  0.2713 -0.2738  0.9507
  479MOL0     C63145   5.727   7.122  10.094 -0.3597 -0.2341  0.3155
  479MOL0     N63146   6.424   6.811  10.309  0.1969  0.0196 -0.0972
  479MOL0     N63147   6.489   6.765  10.414 -0.8232 -0.5366 -0.0292
  479MOL0     C63148   7.135   6.072  10.983  0.5154 -0.8909  0.2353
  479MOL0     C63149   7.222   5.965  10.975  0.1022 -0.7167  0.0866
  479MOL0     C63150   7.598   5.719  10.866 -1.3337 -0.1534 -0.2041
  479MOL0     C63151   7.723   5.686  10.802 -0.1332  0.4725 -0.4509
  479MOL0     C63152   7.768   5.550  10.796 -0.3026  1.0815  0.3692
  479MOL0     C63153   7.708   5.447  10.868  0.2555  0.3223  0.6654
  479MOL0     O63154   7.735   5.310  10.879 -0.5990  0.3530  0.2358
  479MOL0     C63155   7.857   5.267  10.824 -0.7870  0.2927  0.1480
  479MOL0     C63156   7.979   5.307  10.897 -0.3040  0.0130 -0.1722
  479MOL0     C63157   8.100   5.213  10.867 -1.1041  0.2680  0.3430
  479MOL0     C63158   8.192   5.177  10.985  0.2250 -0.2908 -0.5723
  479MOL0     C63159   8.120   5.081  11.075  0.0590  0.1109 -0.1077
  479MOL0     C63160   8.064   5.011  11.155 -0.1982  0.1900  0.3979
  479MOL0     C63161   7.591   5.483  10.945  0.7718  0.2432 -0.0966
  479MOL0     C63162   7.532   5.613  10.946  0.7662 -1.1142  0.3019
  479MOL0     H63163   7.516   6.122  10.920  1.3190 -1.6471  4.4553
  479MOL0     H63164   7.383   6.311  10.943  0.0256 -0.0939 -0.5154
  479MOL0     H63165   7.247   6.484  10.944  1.5236 -1.0859  0.5627
  479MOL0     H63166   7.242   6.423  11.110  3.1554 -1.1258 -1.3013
  479MOL0     H63167   7.156   6.650  11.068 -0.6578  0.6548 -0.4231
  479MOL0     H63168   7.013   6.546  11.116  2.6640 -0.9681  1.9566
  479MOL0     H63169   6.901   6.621  10.958  1.0927 -0.0211  2.1649
  479MOL0     H63170   7.008   6.522  10.843 -0.0310 -0.3055  0.7385
  479MOL0     H63171   7.018   6.824  10.914  1.2014  0.8707 -1.3030
  479MOL0     H63172   7.150   6.726  10.833  0.0162  0.9448  0.6559
  479MOL0     H63173   7.011   6.699  10.644  3.2512  2.1266 -1.5984
  479MOL0     H63174   7.022   6.865  10.679  2.7483 -0.5523  0.9420
  479MOL0     H63175   6.783   6.864  10.808 -0.4622  1.7275 -0.3460
  479MOL0     H63176   6.774   6.694  10.760 -0.2135 -0.2480 -3.9217
  479MOL0     H63177   6.807   6.919  10.559 -1.8598 -0.4628 -1.3906
  479MOL0     H63178   6.784   6.748  10.529  1.8537 -0.6766  1.5993
  479MOL0     H63179   6.594   6.949  10.664  2.8483 -0.7342  0.8051
  479MOL0     H63180   6.572   6.777  10.669  3.5426 -1.8908  0.8443
  479MOL0     H63181   6.531   7.086  10.455 -0.4082 -0.4112  1.3133
  479MOL0     H63182   6.384   6.974  10.110 -0.5716 -1.6692  0.6175
  479MOL0     H63183   6.425   7.123  10.181  0.3193  0.2048  0.8372
  479MOL0     H63184   6.205   7.093  10.320  2.1639  1.8151 -0.1676
  479MOL0     H63185   6.176   6.944  10.215  0.8992 -0.6006  2.7250
  479MOL0     H63186   6.195   7.238  10.138 -3.3242  1.1344  1.4631
  479MOL0     H63187   6.196   7.094  10.021 -0.8292 -0.5377  0.5229
  479MOL0     H63188   5.983   7.018  10.071  0.2168  1.0595 -4.8988
  479MOL0     H63189   5.980   7.167   9.992  0.1977 -0.7747 -1.2900
  479MOL0     H63190   5.794   7.371  10.304  0.2780  0.9079 -1.4671
  479MOL0     H63191   5.559   7.403  10.296  2.0715  0.7843  0.3602
  479MOL0     H63192   5.130   7.154  10.178 -0.4529 -1.2778 -0.7073
  479MOL0     H63193   4.882   7.168  10.149 -1.1613  1.9882 -0.8025
  479MOL0     H63194   4.643   7.171  10.072 -0.9212 -0.7750  0.0647
  479MOL0     H63195   4.720   7.032   9.998 -2.0934 -1.3503  1.0935
  479MOL0     H63196   4.509   7.029   9.944  0.0128  1.5261  1.0854
  479MOL0     H63197   4.592   7.069   9.794  1.8956 -1.3184  1.3144
  479MOL0     H63198   4.542   7.305   9.806 -1.5791  2.7883  1.6537
  479MOL0     H63199   4.471   7.296   9.968  0.3602  1.1309 -0.1090
  479MOL0     H63200   4.327   7.330   9.781  0.0978 -0.5344 -2.5904
  479MOL0     H63201   4.340   7.160   9.726 -2.4181 -0.5810  0.3613
  479MOL0     H63202   4.231   7.246   9.978 -1.5152 -2.8020  2.1587
  479MOL0     H63203   4.281   7.078   9.947  1.4519 -0.0422  0.7874
  479MOL0     H63204   4.102   7.102   9.753 -2.9056 -1.5498  0.9786
  479MOL0     H63205   4.077   7.271   9.811  3.0604 -0.5405 -2.2815
  479MOL0     H63206   4.000   7.163  10.032  0.0244  2.1569 -1.1147
  479MOL0     H63207   3.884   7.140   9.903 -0.6626 -0.1585 -2.3904
  479MOL0     H63208   4.096   6.931   9.991  0.6936 -0.6940 -0.2567
  479MOL0     H63209   3.991   6.922   9.842 -2.1343  2.3692 -0.9795
  479MOL0     H63210   4.958   7.265   9.742  0.1859 -1.3973 -0.5659
  479MOL0     H63211   5.198   7.277   9.776 -2.9923 -0.3198 -2.6935
  479MOL0     H63212   5.531   7.067  10.020  3.6341 -3.1146  0.9099
  479MOL0     H63213   5.772   7.029  10.062  1.2927  0.6685 -0.1172
  479MOL0     H63214   7.028   6.078  10.998  0.2224  2.9387 -1.9466
  479MOL0     H63215   7.188   5.862  10.975 -0.7095 -0.5237 -2.2893
  479MOL0     H63216   7.784   5.761  10.753  0.8643  1.4053  2.0369
  479MOL0     H63217   7.863   5.535  10.745 -0.8257 -4.2383  0.4057
  479MOL0     H63218   7.878   5.289  10.719 -0.1583 -1.8782 -0.2350
  479MOL0     H63219   7.856   5.158  10.821 -2.8829  0.2827 -0.0760
  479MOL0     H63220   8.004   5.406  10.858  0.1485 -0.0991 -0.1660
  479MOL0     H63221   7.979   5.309  11.006  3.0294 -0.7949 -0.0547
  479MOL0     H63222   8.150   5.255  10.779 -0.2881  0.8731  1.0777
  479MOL0     H63223   8.066   5.116  10.831 -0.6819  0.5579 -0.9292
  479MOL0     H63224   8.288   5.135  10.952 -0.8874 -3.1646 -0.4356
  479MOL0     H63225   8.215   5.267  11.044  0.4345 -0.0286 -1.0425
  479MOL0     H63226   8.005   4.954  11.224 -1.4026 -0.5204 -1.1470
  479MOL0     H63227   7.545   5.413  11.014  2.4804  0.1464  0.9810
  479MOL0     H63228   7.440   5.640  10.996  2.4668  2.4211  1.8692
  480MOL0     O63229   4.339   2.773   3.077  0.2737  0.6340  0.2612
  480MOL0     C63230   4.335   2.736   2.963 -0.0313  0.2331  1.2013
  480MOL0     O63231   4.230   2.742   2.867 -0.2329  0.2696 -0.7025
  480MOL0     C63232   4.108   2.790   2.909 -0.4918 -0.6733  0.4208
  480MOL0     C63233   4.048   2.741   3.025 -0.0698  0.1106  0.0817
  480MOL0     C63234   3.910   2.750   3.050  0.1112 -0.7704 -0.3649
  480MOL0     C63235   3.840   2.836   2.971  0.0267  0.5857  0.1300
  480MOL0     O63236   3.717   2.879   3.003 -0.3547 -0.5384 -0.4409
  480MOL0     C63237   3.607   2.815   2.942 -0.6139  0.3009 -0.1533
  480MOL0     C63238   3.511   2.903   2.856 -0.2603 -0.2271 -0.0892
  480MOL0     C63239   3.464   3.020   2.945 -0.1832  0.6888 -0.0361
  480MOL0     C63240   3.415   3.143   2.872 -0.5212 -0.3135  0.6083
  480MOL0     C63241   3.331   3.252   2.945 -0.6199  0.9709 -0.1293
  480MOL0     C63242   3.201   3.206   2.995  0.6533 -0.4481  0.0818
  480MOL0     C63243   3.119   3.313   3.065 -0.7465 -0.1298  0.0124
  480MOL0     C63244   2.995   3.242   3.098 -0.1975 -0.0972 -0.9969
  480MOL0     N63245   2.907   3.333   3.171 -0.5799  0.5542 -0.7432
  480MOL0     C63246   2.905   3.384   3.300 -0.4946 -0.5182  0.0488
  480MOL0     C63247   2.809   3.467   3.310  0.5381 -0.4317 -0.1052
  480MOL0     C63248   2.770   3.539   3.440  0.5069 -0.0349  0.0739
  480MOL0     C63249   2.656   3.474   3.517  0.1551  0.0972  0.1675
  480MOL0     C63250   2.704   3.364   3.607  0.3389  0.6758  0.3307
  480MOL0     C63251   2.595   3.308   3.694 -0.3637  0.2623 -0.9330
  480MOL0     O63252   2.462   3.263   3.638  0.6448  0.5238 -0.1437
  480MOL0     C63253   2.373   3.216   3.738  0.2764  0.4060  0.4325
  480MOL0     C63254   2.361   3.250   3.871  0.3358 -0.1185  0.4371
  480MOL0     C63255   2.264   3.194   3.950  0.8265  0.0123  0.0121
  480MOL0     C63256   2.163   3.106   3.897 -0.0941  0.1621  0.8016
  480MOL0     C63257   2.054   3.061   3.988  0.2710 -0.4348 -1.2679
  480MOL0     O63258   2.074   3.068   4.124 -0.7296  0.0063  0.3081
  480MOL0     C63259   1.995   3.006   4.218 -0.0970 -0.9533 -0.1847
  480MOL0     C63260   1.863   3.027   4.246  0.1218  0.3259  1.0212
  480MOL0     C63261   1.801   2.976   4.362  0.7911 -0.9519  0.4831
  480MOL0     C63262   1.867   2.903   4.458  0.3319  0.6711 -0.1943
  480MOL0     O63263   1.792   2.837   4.554  0.1006 -0.3395 -0.4329
  480MOL0     C63264   1.868   2.825   4.678 -0.1024 -0.3816 -0.3366
  480MOL0     C63265   1.767   2.838   4.793 -0.0534  0.4079 -0.7158
  480MOL0     C63266   1.841   2.835   4.927  0.3052  0.1714 -0.3805
  480MOL0     C63267   1.901   2.969   4.953 -0.8040 -0.7966  0.4469
  480MOL0     C63268   1.921   2.994   5.104 -0.0271  0.1194 -0.3436
  480MOL0     C63269   1.956   3.141   5.123  0.5668  0.2721  0.0829
  480MOL0     C63270   1.967   3.168   5.276 -0.4415 -0.8625  0.7291
  480MOL0     C63271   1.827   3.179   5.337 -0.7717 -0.0305  0.0866
  480MOL0    Cl63272   1.845   3.256   5.489 -0.0563 -0.1875 -0.3674
  480MOL0     C63273   2.002   2.884   4.431 -0.5434 -0.2861 -0.2250
  480MOL0     C63274   2.066   2.936   4.315  0.0974  0.6895  0.6086
  480MOL0     O63275   1.949   3.019   3.939 -1.1715 -0.3066  0.4783
  480MOL0     C63276   2.164   3.079   3.758 -0.2552  0.2634  0.2146
  480MOL0     C63277   2.274   3.130   3.686 -0.2693  0.2136 -0.2613
  480MOL0     N63278   2.739   3.476   3.193 -0.0738  0.1095  0.3892
  480MOL0     N63279   2.805   3.395   3.105  0.3613  0.5228 -0.4853
  480MOL0     C63280   3.898   2.893   2.861  0.2127 -0.1205  0.2689
  480MOL0     C63281   4.029   2.865   2.821  0.6687 -0.7722  0.4675
  480MOL0     C63282   4.460   2.689   2.893  0.4196 -0.0378 -0.3304
  480MOL0     C63283   4.552   2.620   2.972  0.3231  0.9829  0.4235
  480MOL0     C63284   4.684   2.589   2.918  0.3870 -0.0770 -0.5376
  480MOL0     C63285   4.716   2.626   2.790  0.3285 -0.2479 -0.3568
  480MOL0     O63286   4.838   2.581   2.733  0.0825 -0.5989  0.1587
  480MOL0     C63287   4.868   2.631   2.602 -0.8885 -0.2453  0.4059
  480MOL0     C63288   4.979   2.544   2.546  1.5573 -0.3343  0.4195
  480MOL0     C63289   5.098   2.543   2.635 -0.6525  0.5544 -0.2145
  480MOL0     C63290   5.196   2.435   2.590  0.1460  0.2552  0.0385
  480MOL0     C63291   5.323   2.455   2.665  0.3192  0.9401 -0.1794
  480MOL0     C63292   5.413   2.458   2.743 -0.5307 -0.1450  0.4539
  480MOL0     C63293   4.621   2.702   2.719  0.3189 -0.1871 -0.5736
  480MOL0     C63294   4.492   2.738   2.770  0.4440  0.2732 -0.5329
  480MOL0     H63295   4.108   2.687   3.098  0.0871  1.7005  1.1734
  480MOL0     H63296   3.875   2.700   3.140 -0.4956 -0.9525 -0.7013
  480MOL0     H63297   3.545   2.761   3.014 -0.5471 -3.1747 -2.4907
  480MOL0     H63298   3.639   2.740   2.868  3.0415  0.8432  0.6616
  480MOL0     H63299   3.423   2.843   2.829 -0.9037 -0.1563  1.7121
  480MOL0     H63300   3.569   2.934   2.768  2.1605 -2.1513  0.7331
  480MOL0     H63301   3.550   3.050   3.004  1.6807  0.3616 -2.4349
  480MOL0     H63302   3.382   2.989   3.010  0.8650  2.0460  2.0078
  480MOL0     H63303   3.500   3.192   2.824  0.3790 -1.0141  1.4619
  480MOL0     H63304   3.348   3.101   2.796 -3.1703  0.6456  2.2633
  480MOL0     H63305   3.317   3.340   2.881 -2.4139  1.0697  0.3652
  480MOL0     H63306   3.388   3.284   3.033  0.7620 -1.8217  0.0910
  480MOL0     H63307   3.214   3.126   3.068 -3.5852 -1.4810 -0.0137
  480MOL0     H63308   3.153   3.168   2.904  3.4555 -3.4463 -0.3341
  480MOL0     H63309   3.176   3.345   3.153  0.5678  0.5479 -1.0336
  480MOL0     H63310   3.105   3.403   3.004  1.3993  1.8415  2.1561
  480MOL0     H63311   3.017   3.158   3.164 -1.2441 -1.1559 -1.9226
  480MOL0     H63312   2.943   3.194   3.014 -1.3748 -1.9374  0.6935
  480MOL0     H63313   2.975   3.357   3.379  0.9503  1.5564 -0.4401
  480MOL0     H63314   2.734   3.638   3.410 -0.7768 -0.2798  0.7388
  480MOL0     H63315   2.845   3.564   3.516 -1.4101  1.0050  1.7029
  480MOL0     H63316   2.594   3.433   3.437  1.8228 -0.6315 -0.7972
  480MOL0     H63317   2.609   3.551   3.579  0.2475 -0.6286  1.1687
  480MOL0     H63318   2.750   3.285   3.546  3.3738  2.0402  0.6682
  480MOL0     H63319   2.795   3.391   3.661  0.2364 -0.8717  1.3404
  480MOL0     H63320   2.576   3.387   3.766  3.7664  1.7715 -1.2022
  480MOL0     H63321   2.650   3.232   3.750  2.5135  0.4854 -3.1762
  480MOL0     H63322   2.442   3.312   3.908  0.0205  1.8742 -1.9248
  480MOL0     H63323   2.267   3.218   4.056 -1.6017 -0.0497  0.1383
  480MOL0     H63324   1.809   3.095   4.181 -0.5344 -1.6416 -0.5709
  480MOL0     H63325   1.699   3.011   4.379  0.3596 -0.0156 -3.1834
  480MOL0     H63326   1.947   2.901   4.686 -1.2632  0.8007  0.3456
  480MOL0     H63327   1.932   2.736   4.674  5.1641  2.9984 -2.4351
  480MOL0     H63328   1.702   2.751   4.793  1.0027 -0.4026 -1.0985
  480MOL0     H63329   1.702   2.924   4.775 -0.3053  0.2630 -0.5018
  480MOL0     H63330   1.909   2.750   4.931 -0.4358 -0.5439 -1.9897
  480MOL0     H63331   1.763   2.826   5.003  0.4204  0.6891 -0.2046
  480MOL0     H63332   2.000   2.972   4.906 -0.9590  1.3466  0.1549
  480MOL0     H63333   1.833   3.043   4.910 -0.8556 -1.2702 -0.3006
  480MOL0     H63334   1.998   2.928   5.145  1.2744  1.5269 -0.4669
  480MOL0     H63335   1.830   2.970   5.160  0.1952 -0.6504 -0.3028
  480MOL0     H63336   1.889   3.211   5.072 -0.0635 -0.3991 -0.0236
  480MOL0     H63337   2.056   3.166   5.085 -0.4081  3.0812 -0.9127
  480MOL0     H63338   2.025   3.081   5.310 -0.1379 -1.3072 -0.8372
  480MOL0     H63339   2.023   3.260   5.293  0.8334 -1.1628 -1.4306
  480MOL0     H63340   1.768   3.087   5.349  0.1458 -0.9259 -1.7597
  480MOL0     H63341   1.761   3.233   5.268  0.1726 -0.3521 -1.1166
  480MOL0     H63342   2.067   2.824   4.495  2.7271  1.0050 -2.0758
  480MOL0     H63343   2.170   2.906   4.314  0.4909  1.9329  1.1924
  480MOL0     H63344   2.093   3.015   3.708  1.0290  1.8585 -4.0792
  480MOL0     H63345   2.293   3.095   3.585  1.0443  0.5146 -0.1409
  480MOL0     H63346   3.824   2.947   2.803  1.8224 -0.5297 -2.2908
  480MOL0     H63347   4.081   2.888   2.728 -0.4022  0.3109  0.1137
  480MOL0     H63348   4.526   2.587   3.072  1.8895  0.0513  0.5612
  480MOL0     H63349   4.748   2.529   2.982 -0.2383 -1.6981 -1.3489
  480MOL0     H63350   4.900   2.735   2.601  1.6473 -0.8109  3.7669
  480MOL0     H63351   4.796   2.626   2.520  0.0751  0.4189 -0.5144
  480MOL0     H63352   4.944   2.441   2.548 -3.0504  0.9570 -1.0381
  480MOL0     H63353   5.001   2.576   2.444 -0.0547  1.7990  0.6743
  480MOL0     H63354   5.072   2.545   2.741  0.4775 -0.0656  0.0904
  480MOL0     H63355   5.139   2.641   2.608 -0.3875 -0.0579 -2.1582
  480MOL0     H63356   5.139   2.344   2.607  1.5265 -0.9112 -1.3173
  480MOL0     H63357   5.218   2.454   2.484  0.9897  1.4381  0.3981
  480MOL0     H63358   5.484   2.446   2.823 -0.2949 -1.9369  0.0197
  480MOL0     H63359   4.633   2.736   2.617 -0.0526  1.4934 -0.0944
  480MOL0     H63360   4.421   2.802   2.719  0.5783  1.4189  0.6709
  481MOL0     O63361   8.327   6.177   5.466 -0.1330 -0.1687 -0.4629
  481MOL0     C63362   8.310   6.062   5.512  0.3295 -0.8714 -0.5153
  481MOL0     O63363   8.190   6.016   5.564 -0.7883 -0.2888  0.2429
  481MOL0     C63364   8.071   6.077   5.534 -1.1673  0.4143  0.2903
  481MOL0     C63365   7.951   6.000   5.573 -0.1862 -0.2173 -0.2921
  481MOL0     C63366   7.821   6.046   5.546  0.4463  0.2200  0.4796
  481MOL0     C63367   7.802   6.172   5.489 -0.0531  0.8912  0.1703
  481MOL0     O63368   7.674   6.215   5.474 -0.4361  0.5238  0.0475
  481MOL0     C63369   7.649   6.357   5.438  0.4006 -0.3310  0.1605
  481MOL0     C63370   7.499   6.386   5.419 -0.0110  0.3524 -0.1966
  481MOL0     C63371   7.425   6.274   5.351 -0.2381 -0.0231  0.3763
  481MOL0     C63372   7.278   6.311   5.336 -0.8366 -0.1107 -0.1183
  481MOL0     C63373   7.183   6.193   5.337  1.2262  0.3085  0.1447
  481MOL0     C63374   7.044   6.257   5.327  0.6649  0.7121 -0.5531
  481MOL0     C63375   6.932   6.156   5.352  0.4457  0.2210 -0.6487
  481MOL0     C63376   6.792   6.204   5.354  0.1718 -1.1353  0.2880
  481MOL0     N63377   6.696   6.096   5.355 -0.4468  0.5108 -0.4228
  481MOL0     C63378   6.561   6.104   5.343 -0.3918  0.3605 -1.1957
  481MOL0     C63379   6.517   5.974   5.362  0.6952 -0.1006  0.5640
  481MOL0     C63380   6.381   5.927   5.412 -0.2254 -0.7831 -0.6447
  481MOL0     C63381   6.283   5.896   5.281 -0.1887  0.3629 -0.2113
  481MOL0     C63382   6.325   5.763   5.218  0.4624  0.0567 -0.3948
  481MOL0     C63383   6.267   5.632   5.283 -0.3227  0.3127 -0.5665
  481MOL0     O63384   6.126   5.637   5.292  0.9208 -0.4046  0.2436
  481MOL0     C63385   6.043   5.529   5.326 -0.3133 -0.5824  0.4943
  481MOL0     C63386   5.908   5.544   5.339 -0.2301  0.2213  0.3375
  481MOL0     C63387   5.822   5.434   5.364 -0.4826 -0.8077  0.8785
  481MOL0     C63388   5.864   5.303   5.357 -0.3732 -0.1240  0.3220
  481MOL0     C63389   5.774   5.194   5.365 -0.5366  0.3445 -0.8138
  481MOL0     O63390   5.643   5.220   5.352 -0.1366  0.1869  0.6868
  481MOL0     C63391   5.549   5.134   5.401 -0.0771  0.2658  0.3956
  481MOL0     C63392   5.531   5.003   5.366  0.4249 -0.0564 -0.1687
  481MOL0     C63393   5.441   4.919   5.436 -0.7152 -0.3973 -0.0459
  481MOL0     C63394   5.362   4.977   5.533  0.4301  0.4702  0.2777
  481MOL0     O63395   5.277   4.890   5.599 -0.6860  0.1410 -0.2019
  481MOL0     C63396   5.145   4.948   5.634 -0.4592  0.2017 -0.0345
  481MOL0     C63397   5.035   4.848   5.667 -0.6252  0.6481  0.0449
  481MOL0     C63398   4.991   4.758   5.550 -0.6326 -0.1141  0.0721
  481MOL0     C63399   4.892   4.805   5.449  0.1684 -0.9303 -0.1064
  481MOL0     C63400   4.759   4.844   5.512 -0.0486  0.2261  0.0132
  481MOL0     C63401   4.642   4.844   5.418 -0.5008  0.3359 -0.2659
  481MOL0     C63402   4.516   4.903   5.484 -0.3903 -0.3497  0.5181
  481MOL0     C63403   4.490   5.046   5.449  0.5305 -0.2278  0.9319
  481MOL0    Cl63404   4.451   5.063   5.279  0.2495 -0.3055  0.0566
  481MOL0     C63405   5.371   5.111   5.569  0.4684  0.6265 -0.0369
  481MOL0     C63406   5.467   5.185   5.501 -0.3538  0.6239  1.2852
  481MOL0     O63407   5.824   5.081   5.384  0.2472  0.3947  0.5138
  481MOL0     C63408   6.008   5.288   5.346 -0.4256 -0.2629 -0.1713
  481MOL0     C63409   6.092   5.398   5.336 -0.1937  0.1904  0.8941
  481MOL0     N63410   6.621   5.890   5.381  0.7153 -0.0536  0.9063
  481MOL0     N63411   6.727   5.966   5.375 -0.1771  0.2980 -0.2886
  481MOL0     C63412   7.917   6.247   5.457  0.6932 -0.8852 -0.3353
  481MOL0     C63413   8.047   6.200   5.479 -0.2848 -0.1888  0.4043
  481MOL0     C63414   8.426   5.971   5.520 -0.2741  0.7065  1.4456
  481MOL0     C63415   8.408   5.837   5.556  0.0458 -0.2840  0.2497
  481MOL0     C63416   8.519   5.757   5.579 -0.3930 -0.3007  0.6231
  481MOL0     C63417   8.647   5.810   5.560  0.4643 -0.1916  0.0902
  481MOL0     O63418   8.756   5.730   5.583  0.3686 -0.4999  0.2681
  481MOL0     C63419   8.740   5.589   5.604  1.0263  0.0675 -0.7262
  481MOL0     C63420   8.869   5.519   5.597 -0.1538 -0.2276  0.5540
  481MOL0     C63421   8.937   5.555   5.726 -0.2957 -0.1866  0.1838
  481MOL0     C63422   9.083   5.504   5.739 -0.2278 -0.2816 -0.2610
  481MOL0     C63423   9.140   5.545   5.870  0.1484 -0.2813 -0.0385
  481MOL0     C63424   9.200   5.597   5.962  0.2583  0.5140 -0.0320
  481MOL0     C63425   8.657   5.940   5.512 -0.7474 -0.0501  0.2657
  481MOL0     C63426   8.552   6.018   5.489  0.0220 -0.4726  0.6429
  481MOL0     H63427   7.964   5.902   5.615  0.3052  0.4862  1.2698
  481MOL0     H63428   7.727   5.997   5.569  0.4340 -0.3438 -0.7247
  481MOL0     H63429   7.695   6.387   5.344 -1.3684 -0.6149 -0.8359
  481MOL0     H63430   7.689   6.427   5.512 -2.0888 -0.3850  1.6801
  481MOL0     H63431   7.489   6.471   5.351 -0.0677  0.7974  0.3658
  481MOL0     H63432   7.456   6.408   5.517  0.8796 -1.5434  0.6721
  481MOL0     H63433   7.441   6.184   5.411 -0.5898  0.4441  1.1937
  481MOL0     H63434   7.464   6.264   5.250 -2.3762 -0.3417 -0.4825
  481MOL0     H63435   7.261   6.374   5.424  1.9493  2.3306 -1.1893
  481MOL0     H63436   7.268   6.370   5.245 -0.6299 -1.3326 -0.9523
  481MOL0     H63437   7.197   6.137   5.430  1.1559  0.1654  0.0710
  481MOL0     H63438   7.205   6.128   5.252 -0.7973 -0.4361  0.1210
  481MOL0     H63439   7.031   6.299   5.227 -1.2057  1.3347 -0.0939
  481MOL0     H63440   7.027   6.330   5.407 -1.2659 -0.9529  0.6815
  481MOL0     H63441   6.929   6.084   5.269  0.1784 -0.7021  0.1461
  481MOL0     H63442   6.956   6.115   5.450  2.3125 -0.6479 -1.4159
  481MOL0     H63443   6.761   6.260   5.265  2.6816  0.9479  0.6001
  481MOL0     H63444   6.784   6.272   5.440  1.5862 -1.1570  0.4611
  481MOL0     H63445   6.496   6.190   5.351  0.8738  1.1372  3.2779
  481MOL0     H63446   6.348   6.008   5.477  0.3300 -0.3522 -0.8870
  481MOL0     H63447   6.392   5.830   5.462 -0.1341 -0.7114 -0.5248
  481MOL0     H63448   6.279   5.972   5.203  0.4114  0.1423 -0.4696
  481MOL0     H63449   6.179   5.885   5.313 -0.6750  1.2050 -1.4390
  481MOL0     H63450   6.294   5.763   5.113 -2.4721  4.4368  0.2227
  481MOL0     H63451   6.434   5.758   5.221  0.4073 -1.0541  0.2502
  481MOL0     H63452   6.305   5.625   5.386  0.9988  0.1497 -1.0382
  481MOL0     H63453   6.300   5.543   5.229  2.9593  0.3104  1.1454
  481MOL0     H63454   5.872   5.647   5.347 -0.8275  0.0932 -0.5813
  481MOL0     H63455   5.716   5.457   5.374 -0.4629  0.6105 -1.4657
  481MOL0     H63456   5.595   4.968   5.286  1.0054 -0.7111  0.5642
  481MOL0     H63457   5.423   4.817   5.407  1.6493 -0.5049 -1.3584
  481MOL0     H63458   5.109   5.011   5.552  0.5583 -0.1962 -0.8135
  481MOL0     H63459   5.164   5.013   5.720  0.4895  2.2603 -1.7039
  481MOL0     H63460   4.952   4.894   5.722  1.7296 -0.0221  4.6189
  481MOL0     H63461   5.086   4.792   5.745  0.0947  1.9765  0.5666
  481MOL0     H63462   4.951   4.670   5.601 -0.1949 -0.1202  0.4120
  481MOL0     H63463   5.076   4.728   5.488 -0.0597 -0.3681  0.9670
  481MOL0     H63464   4.933   4.889   5.393  0.2566 -0.8895  0.0188
  481MOL0     H63465   4.874   4.723   5.379  1.2795 -0.6308 -0.7621
  481MOL0     H63466   4.765   4.944   5.558  1.2306 -0.2502  0.9284
  481MOL0     H63467   4.738   4.778   5.597  0.1222  1.3283  0.9363
  481MOL0     H63468   4.628   4.746   5.372 -1.0953 -0.0180  0.6210
  481MOL0     H63469   4.669   4.911   5.336 -0.8353  2.5374  1.3207
  481MOL0     H63470   4.425   4.847   5.462 -2.2768  3.1036 -1.2675
  481MOL0     H63471   4.521   4.898   5.593 -0.5794 -0.5778  0.5173
  481MOL0     H63472   4.584   5.095   5.475 -0.7687  1.5954  2.4127
  481MOL0     H63473   4.404   5.086   5.503  0.4452  0.1519  0.5238
  481MOL0     H63474   5.314   5.164   5.644  0.7764  2.0210 -0.7544
  481MOL0     H63475   5.481   5.292   5.513  0.0203  0.6418  0.7260
  481MOL0     H63476   6.058   5.192   5.355  0.5384 -0.1382 -3.1502
  481MOL0     H63477   6.199   5.380   5.334 -0.6113 -3.5240  2.8374
  481MOL0     H63478   7.897   6.340   5.405  2.9151 -1.0071 -1.4763
  481MOL0     H63479   8.122   6.273   5.453 -0.6747 -0.3072 -1.1109
  481MOL0     H63480   8.318   5.786   5.590  0.4722  0.2404  2.2808
  481MOL0     H63481   8.513   5.656   5.617  2.0690 -0.7081  0.0662
  481MOL0     H63482   8.682   5.539   5.526  1.0278  0.5324 -1.0283
  481MOL0     H63483   8.692   5.572   5.700  2.3170 -1.1290 -0.2588
  481MOL0     H63484   8.867   5.411   5.581  3.7408 -0.1795 -1.3572
  481MOL0     H63485   8.925   5.566   5.516 -0.2683 -2.5939 -0.9861
  481MOL0     H63486   8.878   5.527   5.813 -1.8385 -5.4778 -2.1453
  481MOL0     H63487   8.943   5.664   5.732 -0.6433 -0.1127 -0.7449
  481MOL0     H63488   9.094   5.398   5.713 -1.2524 -0.7784  1.1595
  481MOL0     H63489   9.143   5.566   5.673 -0.8611  1.8312  1.0535
  481MOL0     H63490   9.243   5.635   6.052 -0.6238 -1.1173  1.1299
  481MOL0     H63491   8.755   5.984   5.500 -0.5938  0.6250  3.1236
  481MOL0     H63492   8.569   6.123   5.467  1.6595 -1.1553 -1.8965
  482MOL0     O63493   7.708   9.392   9.686  0.4244  0.0123  0.0160
  482MOL0     C63494   7.761   9.295   9.736  0.3439  0.5509  0.1968
  482MOL0     O63495   7.887   9.281   9.767  0.1329 -0.4749 -0.6991
  482MOL0     C63496   7.977   9.387   9.750  0.3453  0.6631  0.1796
  482MOL0     C63497   8.014   9.431   9.625 -0.0799 -0.0716 -0.2081
  482MOL0     C63498   8.102   9.534   9.607  0.0028  0.0220 -0.1142
  482MOL0     C63499   8.161   9.603   9.715 -0.4556 -0.2080 -0.4731
  482MOL0     O63500   8.261   9.696   9.691 -0.7199 -0.3736  0.0585
  482MOL0     C63501   8.290   9.793   9.795  0.2787  0.4660 -0.7001
  482MOL0     C63502   8.391   9.895   9.737  0.0881  0.0091  0.0840
  482MOL0     C63503   8.405  10.012   9.827  0.0368  0.2970  0.2380
  482MOL0     C63504   8.506  10.114   9.784  0.5277  0.1539 -0.9719
  482MOL0     C63505   8.652  10.086   9.744 -0.3062 -0.2681  0.6668
  482MOL0     C63506   8.707  10.230   9.689 -0.1548  0.7741 -0.1956
  482MOL0     C63507   8.859  10.224   9.658  0.0556 -0.1111  0.3573
  482MOL0     C63508   8.941  10.315   9.752  0.5371  0.5610  0.1342
  482MOL0     N63509   8.957  10.256   9.882  1.1569 -0.7320  0.3164
  482MOL0     C63510   8.857  10.260   9.979  0.3330  0.0538 -0.0967
  482MOL0     C63511   8.927  10.205  10.082  0.2222  0.0705 -0.1329
  482MOL0     C63512   8.877  10.192  10.219  1.3056 -0.3018 -0.2422
  482MOL0     C63513   8.723  10.186  10.222  0.0928  0.6744 -0.5786
  482MOL0     C63514   8.683  10.039  10.199 -0.0705  0.4527 -0.0735
  482MOL0     C63515   8.531  10.030  10.215  0.4856  0.1795 -1.2096
  482MOL0     O63516   8.505   9.889  10.196 -0.5299 -0.7076 -0.3528
  482MOL0     C63517   8.381   9.839  10.193  0.4514 -0.3263 -0.0446
  482MOL0     C63518   8.373   9.704  10.214 -0.4754  0.1033 -0.8107
  482MOL0     C63519   8.249   9.636  10.229 -0.3795  0.4519 -0.0399
  482MOL0     C63520   8.130   9.705  10.197  0.5091  0.2999 -0.0648
  482MOL0     C63521   8.003   9.629  10.179 -0.4337 -0.5745 -0.1797
  482MOL0     O63522   7.893   9.707  10.156 -0.0255  0.2821  0.3743
  482MOL0     C63523   7.772   9.635  10.148 -0.4871 -0.6398 -0.6375
  482MOL0     C63524   7.688   9.627  10.259 -0.5070 -0.5969 -0.4426
  482MOL0     C63525   7.563   9.565  10.244 -0.1928  0.2462 -0.6305
  482MOL0     C63526   7.524   9.506  10.126 -1.0773  0.4526  0.2246
  482MOL0     O63527   7.408   9.435  10.119 -0.0335  0.3708  0.1023
  482MOL0     C63528   7.320   9.450  10.004 -0.0264 -0.7367  0.3625
  482MOL0     C63529   7.180   9.398  10.036 -0.1872 -0.5201 -0.3417
  482MOL0     C63530   7.089   9.373   9.917  0.3579  0.3461  0.1081
  482MOL0     C63531   6.945   9.328   9.959  0.8049 -0.2768  0.7977
  482MOL0     C63532   6.856   9.255   9.851  0.4286 -0.1077  0.1205
  482MOL0     C63533   6.712   9.301   9.863  0.0612 -0.8703 -0.7557
  482MOL0     C63534   6.612   9.203   9.783  0.1642 -0.9679  0.1587
  482MOL0     C63535   6.458   9.240   9.815 -0.0710 -0.2033 -0.6114
  482MOL0    Cl63536   6.349   9.173   9.698 -0.1360 -0.1353 -0.0455
  482MOL0     C63537   7.610   9.513  10.015 -0.2909  0.4261  0.8574
  482MOL0     C63538   7.733   9.578  10.030  0.4399  0.1806 -0.3131
  482MOL0     O63539   8.004   9.506  10.192 -0.3267  0.0659  0.0382
  482MOL0     C63540   8.136   9.847  10.172  0.2290 -0.4511 -0.0119
  482MOL0     C63541   8.260   9.908  10.181 -0.4560  0.4091 -0.3327
  482MOL0     N63542   9.063  10.180  10.049 -0.6835 -0.2675  0.4743
  482MOL0     N63543   9.079  10.217   9.929  0.1442 -0.2490 -0.7397
  482MOL0     C63544   8.122   9.564   9.842 -0.2996 -0.2474 -0.2793
  482MOL0     C63545   8.037   9.452   9.862 -0.1402 -0.0993 -1.0562
  482MOL0     C63546   7.671   9.179   9.757  0.5347 -0.2493  0.2181
  482MOL0     C63547   7.712   9.056   9.803  0.0974 -0.6504 -0.5124
  482MOL0     C63548   7.617   8.951   9.816 -0.5396  0.0720 -0.1112
  482MOL0     C63549   7.481   8.970   9.784 -0.0669 -0.1395 -0.0418
  482MOL0     O63550   7.397   8.860   9.801  0.3760 -0.4210  0.0923
  482MOL0     C63551   7.302   8.839   9.695  1.1174 -0.3785  0.2013
  482MOL0     C63552   7.159   8.877   9.734 -0.2714 -0.3894 -0.0668
  482MOL0     C63553   7.070   8.910   9.617 -0.2738  0.1986  0.0127
  482MOL0     C63554   6.926   8.898   9.645  0.0919  0.0762  0.0982
  482MOL0     C63555   6.826   8.926   9.537 -0.8059 -0.7511 -0.1374
  482MOL0     C63556   6.730   8.947   9.473 -0.5640 -0.5270  0.6761
  482MOL0     C63557   7.444   9.095   9.730 -0.8060 -0.1615  0.1629
  482MOL0     C63558   7.534   9.197   9.719 -0.5870  1.0829 -0.0688
  482MOL0     H63559   7.985   9.365   9.544  1.9792  0.2724 -1.3070
  482MOL0     H63560   8.132   9.551   9.504  2.0646 -1.2337  0.2173
  482MOL0     H63561   8.342   9.750   9.881 -0.2699 -1.9473 -1.4777
  482MOL0     H63562   8.199   9.844   9.828  1.8917  2.1489  1.4052
  482MOL0     H63563   8.365   9.931   9.637  0.4387  2.4434  0.8035
  482MOL0     H63564   8.486   9.843   9.723  1.1792  2.1996 -1.3706
  482MOL0     H63565   8.435   9.961   9.919 -1.6813 -1.5476 -0.1393
  482MOL0     H63566   8.313  10.068   9.848 -0.1852 -0.2918  0.8792
  482MOL0     H63567   8.467  10.173   9.700  0.0061 -1.0300 -1.5903
  482MOL0     H63568   8.514  10.183   9.868 -0.0642 -0.3245 -0.5197
  482MOL0     H63569   8.668  10.007   9.670  1.1729  1.2290 -0.6921
  482MOL0     H63570   8.700  10.053   9.836  1.7200  0.8610  0.0814
  482MOL0     H63571   8.673  10.308   9.757 -0.8046 -1.1109  1.7654
  482MOL0     H63572   8.654  10.240   9.594 -0.8127  0.3462  0.1236
  482MOL0     H63573   8.890  10.119   9.647  0.1018 -0.0528 -0.0959
  482MOL0     H63574   8.881  10.268   9.560 -1.2332 -2.4164 -1.0818
  482MOL0     H63575   8.896  10.414   9.766  1.9203  1.2686 -0.2821
  482MOL0     H63576   9.039  10.332   9.708  0.2060 -0.6280 -1.1398
  482MOL0     H63577   8.754  10.293   9.971  0.7796  1.6555  0.5017
  482MOL0     H63578   8.909  10.283  10.269  0.6870 -0.6208  0.7611
  482MOL0     H63579   8.915  10.104  10.272 -0.0892 -1.2857 -0.8229
  482MOL0     H63580   8.673  10.253  10.152 -1.1694  0.8659  0.4684
  482MOL0     H63581   8.691  10.219  10.321  0.7911  0.7747 -0.3861
  482MOL0     H63582   8.722   9.993  10.108  0.0853 -0.5947  0.5025
  482MOL0     H63583   8.724   9.986  10.285 -2.5366  0.9486  1.5305
  482MOL0     H63584   8.474  10.092  10.144 -0.8442  0.2686 -0.1073
  482MOL0     H63585   8.493  10.058  10.313 -0.6073 -3.5133 -0.4138
  482MOL0     H63586   8.471   9.662  10.235 -0.4684  1.3012  1.9719
  482MOL0     H63587   8.255   9.530  10.249 -0.1757  0.4636 -0.0374
  482MOL0     H63588   7.719   9.671  10.353  0.8898 -0.8361 -0.7677
  482MOL0     H63589   7.486   9.565  10.320  2.5463  1.5602  2.4095
  482MOL0     H63590   7.353   9.400   9.912  2.0694  1.6869 -0.2993
  482MOL0     H63591   7.321   9.558   9.989 -0.1707 -0.9037 -1.0672
  482MOL0     H63592   7.138   9.486  10.086 -0.5741  0.7407 -2.7512
  482MOL0     H63593   7.192   9.317  10.109 -1.3644  2.2222  3.2290
  482MOL0     H63594   7.140   9.286   9.875  0.9024  0.3215  0.8042
  482MOL0     H63595   7.088   9.455   9.844 -1.0804 -1.3192 -1.8556
  482MOL0     H63596   6.947   9.260  10.045 -2.6275 -1.6856 -0.0806
  482MOL0     H63597   6.899   9.420   9.996  2.0869 -0.1268  2.1034
  482MOL0     H63598   6.856   9.147   9.867  0.4331  0.0418  1.2024
  482MOL0     H63599   6.905   9.260   9.753  0.4223 -2.4858 -0.0531
  482MOL0     H63600   6.694   9.397   9.814  1.9237 -0.0834  0.0187
  482MOL0     H63601   6.682   9.310   9.968 -1.5955  1.0260 -1.3440
  482MOL0     H63602   6.642   9.224   9.679  2.7478 -1.6597  0.6715
  482MOL0     H63603   6.642   9.100   9.808  2.2792 -0.3659  0.2834
  482MOL0     H63604   6.455   9.349   9.819  1.2031 -0.1666 -0.2203
  482MOL0     H63605   6.431   9.205   9.915 -1.6735 -0.8404 -1.2408
  482MOL0     H63606   7.596   9.472   9.915  0.5594  2.1645 -0.0215
  482MOL0     H63607   7.797   9.581   9.942  0.6785 -2.8998 -0.3266
  482MOL0     H63608   8.050   9.905  10.142  0.9056  1.2616  1.1651
  482MOL0     H63609   8.261  10.016  10.170 -0.5598  0.9379  3.4423
  482MOL0     H63610   8.170   9.600   9.932  0.1091 -2.1349  0.3037
  482MOL0     H63611   8.040   9.413   9.964 -0.0032 -1.6262 -1.6171
  482MOL0     H63612   7.817   9.036   9.816 -0.4815 -3.4286  0.7290
  482MOL0     H63613   7.654   8.855   9.850 -1.8028  0.0119  1.2077
  482MOL0     H63614   7.302   8.735   9.662  1.7070 -1.2132  2.6320
  482MOL0     H63615   7.316   8.896   9.603  0.3567  0.3641  0.5393
  482MOL0     H63616   7.111   8.799   9.794  0.1500 -1.3003 -0.8865
  482MOL0     H63617   7.159   8.962   9.802  0.0982  0.4056 -1.0438
  482MOL0     H63618   7.109   8.853   9.532 -0.1186  0.4497 -0.0848
  482MOL0     H63619   7.083   9.017   9.600  2.6342 -0.5166 -3.6079
  482MOL0     H63620   6.906   8.794   9.672  1.2063 -0.3541 -0.6813
  482MOL0     H63621   6.899   8.968   9.725 -0.7446  1.3881 -1.2930
  482MOL0     H63622   6.647   8.967   9.408  2.1611  0.8188 -2.7047
  482MOL0     H63623   7.344   9.127   9.701  0.4547  1.4241 -2.8036
  482MOL0     H63624   7.509   9.295   9.678  2.0171  2.1650  0.6514
  483MOL0     O63625   5.283   7.114   6.100 -0.1056  0.3997 -0.2100
  483MOL0     C63626   5.281   7.204   6.185  0.5311  0.1672  0.6768
  483MOL0     O63627   5.175   7.263   6.233  0.1671  0.6387 -1.0165
  483MOL0     C63628   5.053   7.209   6.204 -0.1256  0.4856  0.7938
  483MOL0     C63629   4.955   7.301   6.169  0.2926  0.0471 -0.4382
  483MOL0     C63630   4.819   7.268   6.158 -0.0416 -0.0043  0.5824
  483MOL0     C63631   4.777   7.132   6.175 -0.3574 -0.0869  0.0110
  483MOL0     O63632   4.641   7.115   6.179  0.1106 -0.1859 -0.2609
  483MOL0     C63633   4.589   6.986   6.210  0.4149 -0.0633  0.0230
  483MOL0     C63634   4.437   6.992   6.233 -0.0825  0.3115  0.0251
  483MOL0     C63635   4.373   6.857   6.189 -0.1048 -0.7266 -0.8284
  483MOL0     C63636   4.218   6.879   6.188 -0.3566  0.6681  0.0650
  483MOL0     C63637   4.147   6.738   6.198  0.3270 -0.1976  0.5290
  483MOL0     C63638   4.009   6.762   6.143 -0.3808  0.2831  0.6101
  483MOL0     C63639   3.918   6.632   6.135 -0.5844  0.3963  0.1556
  483MOL0     C63640   3.778   6.655   6.085 -0.0051  0.3784 -0.2280
  483MOL0     N63641   3.778   6.691   5.943 -0.1292  0.3307 -0.6320
  483MOL0     C63642   3.727   6.620   5.832  0.3109 -0.0047  0.1041
  483MOL0     C63643   3.696   6.715   5.742  0.1618  1.0573  0.2025
  483MOL0     C63644   3.634   6.674   5.613 -0.4188 -0.4263 -0.7334
  483MOL0     C63645   3.738   6.656   5.501  0.4056  0.1818  0.1629
  483MOL0     C63646   3.764   6.508   5.474 -0.6693  0.1227 -0.0061
  483MOL0     C63647   3.906   6.468   5.498 -0.5562 -0.2612 -0.1938
  483MOL0     O63648   3.951   6.517   5.631  0.7593 -0.1730  0.5244
  483MOL0     C63649   4.081   6.536   5.663  0.2471  0.5633 -0.4685
  483MOL0     C63650   4.180   6.460   5.617 -0.4971 -0.4057 -0.4457
  483MOL0     C63651   4.309   6.459   5.673  0.3046  0.6082 -0.3710
  483MOL0     C63652   4.340   6.553   5.772 -0.2291 -0.0787 -0.1195
  483MOL0     C63653   4.481   6.556   5.827 -0.5634 -0.2635 -0.7524
  483MOL0     O63654   4.506   6.661   5.907  0.7310 -0.6284  0.2343
  483MOL0     C63655   4.627   6.679   5.957 -0.6583 -0.1586  0.7298
  483MOL0     C63656   4.711   6.782   5.902 -0.1355  0.1467  0.7310
  483MOL0     C63657   4.831   6.807   5.952 -0.8333 -0.1389 -0.8641
  483MOL0     C63658   4.886   6.713   6.048  0.4146 -0.1694  0.4569
  483MOL0     O63659   5.013   6.716   6.096 -0.5000 -0.1492 -0.4624
  483MOL0     C63660   5.099   6.809   6.019 -0.0786 -0.6596 -0.6284
  483MOL0     C63661   5.241   6.807   6.058 -0.4104 -0.0415  0.0160
  483MOL0     C63662   5.293   6.669   6.043 -0.6999 -0.6943 -1.2060
  483MOL0     C63663   5.452   6.677   6.024  0.0796  0.2534  0.2352
  483MOL0     C63664   5.506   6.531   5.992  0.3405  0.2999 -0.0955
  483MOL0     C63665   5.658   6.506   5.966 -0.3572 -0.9439  0.3474
  483MOL0     C63666   5.713   6.619   5.881 -0.5893 -0.3563 -0.3654
  483MOL0     C63667   5.864   6.602   5.849 -0.1041 -0.7065 -0.2253
  483MOL0    Cl63668   5.932   6.733   5.749  0.0246 -0.0845  0.3206
  483MOL0     C63669   4.808   6.618   6.103  0.3640  0.5909  0.4897
  483MOL0     C63670   4.677   6.600   6.058  0.3993 -0.9198 -0.0446
  483MOL0     O63671   4.563   6.469   5.801  0.4098 -0.2930  0.7856
  483MOL0     C63672   4.239   6.647   5.815  0.2625 -0.3805 -0.2551
  483MOL0     C63673   4.108   6.626   5.759 -0.2217 -0.4656 -0.9945
  483MOL0     N63674   3.723   6.844   5.791 -0.8896  0.0029  0.5354
  483MOL0     N63675   3.775   6.827   5.912  0.3236  0.2959  0.1366
  483MOL0     C63676   4.880   7.037   6.204  0.6616 -0.2716 -0.0350
  483MOL0     C63677   5.018   7.074   6.215  0.1292 -0.1114  0.0494
  483MOL0     C63678   5.414   7.245   6.236 -0.2756  1.3744  0.3783
  483MOL0     C63679   5.524   7.154   6.232  0.7655  0.1242  0.1990
  483MOL0     C63680   5.647   7.187   6.289  0.6121 -0.2428 -0.4790
  483MOL0     C63681   5.668   7.313   6.334 -0.3353  1.2860 -0.7884
  483MOL0     O63682   5.793   7.320   6.388  0.4210  0.0034  0.2920
  483MOL0     C63683   5.827   7.445   6.441  0.2562 -1.0338 -0.4716
  483MOL0     C63684   5.969   7.437   6.494  0.2941  0.9435  0.0234
  483MOL0     C63685   6.030   7.570   6.538 -0.0735 -0.7123  0.3150
  483MOL0     C63686   6.001   7.611   6.683 -0.0605  0.4887 -0.2166
  483MOL0     C63687   6.063   7.728   6.738  0.5574 -0.4535 -0.0334
  483MOL0     C63688   6.141   7.820   6.759 -0.1273 -0.1296 -0.5763
  483MOL0     C63689   5.567   7.405   6.332  0.8526 -0.2660 -0.5184
  483MOL0     C63690   5.432   7.370   6.294 -0.1864  0.1135  0.2749
  483MOL0     H63691   4.976   7.406   6.152  0.3945 -0.0542 -0.9397
  483MOL0     H63692   4.748   7.348   6.138 -1.1316 -1.6326 -2.7986
  483MOL0     H63693   4.640   6.956   6.302 -2.4536 -3.3323  0.7041
  483MOL0     H63694   4.622   6.925   6.126  4.4444  2.6117 -0.6836
  483MOL0     H63695   4.384   7.072   6.181 -1.4315 -1.6402 -1.8201
  483MOL0     H63696   4.424   7.007   6.340  0.7057  2.7033 -0.1701
  483MOL0     H63697   4.401   6.785   6.266  0.9787  0.6512  0.1035
  483MOL0     H63698   4.404   6.824   6.089 -1.8218  2.0530 -2.4100
  483MOL0     H63699   4.195   6.947   6.270  1.3563  1.5124 -0.0994
  483MOL0     H63700   4.188   6.932   6.097  2.4868 -0.6644 -1.8317
  483MOL0     H63701   4.149   6.690   6.296  0.1840 -1.9771 -0.3110
  483MOL0     H63702   4.198   6.667   6.132  0.2702  1.5948 -1.5665
  483MOL0     H63703   4.014   6.796   6.040  1.7665 -3.2729 -0.6398
  483MOL0     H63704   3.960   6.843   6.197 -2.0839 -1.6913  2.2101
  483MOL0     H63705   3.965   6.554   6.074  0.2876  2.6765 -2.3016
  483MOL0     H63706   3.915   6.594   6.237  0.4315  0.8120  0.3508
  483MOL0     H63707   3.722   6.724   6.148  0.9135 -0.1084  1.1648
  483MOL0     H63708   3.715   6.566   6.081 -1.0243  1.0421  0.6034
  483MOL0     H63709   3.712   6.513   5.826  0.2551 -0.0737  1.1775
  483MOL0     H63710   3.574   6.763   5.589 -1.4062 -0.9931 -0.4238
  483MOL0     H63711   3.567   6.588   5.622 -2.2154  1.0633  1.5952
  483MOL0     H63712   3.833   6.709   5.513  1.7201 -2.2592  1.3667
  483MOL0     H63713   3.699   6.708   5.413  0.3243 -0.2821 -0.0792
  483MOL0     H63714   3.704   6.443   5.540  0.0892 -1.5940 -0.9475
  483MOL0     H63715   3.735   6.484   5.372  0.2255  0.0567 -0.2441
  483MOL0     H63716   3.976   6.509   5.425  1.8662  0.0732  2.1494
  483MOL0     H63717   3.907   6.358   5.496  0.0422 -0.2622 -2.6990
  483MOL0     H63718   4.159   6.395   5.533 -1.0844 -0.9722  0.1341
  483MOL0     H63719   4.382   6.391   5.629 -0.3689  0.2888 -1.0096
  483MOL0     H63720   4.675   6.851   5.826  1.5056  0.4765  0.2161
  483MOL0     H63721   4.883   6.891   5.907 -2.4743 -0.3473 -3.3481
  483MOL0     H63722   5.079   6.913   6.045 -0.8428 -1.2452  1.2970
  483MOL0     H63723   5.088   6.796   5.911 -2.5584 -0.8767 -0.4174
  483MOL0     H63724   5.255   6.840   6.161 -1.3941 -1.5154  0.6610
  483MOL0     H63725   5.313   6.861   5.995  2.9581 -3.1682  0.8599
  483MOL0     H63726   5.251   6.619   5.955 -3.4741 -0.6602  0.0290
  483MOL0     H63727   5.271   6.615   6.135 -4.2723  3.0495  0.4556
  483MOL0     H63728   5.479   6.748   5.945 -2.2415  1.7725  0.7211
  483MOL0     H63729   5.495   6.723   6.113  3.2328  0.5264 -1.2915
  483MOL0     H63730   5.466   6.510   5.892  2.6129 -0.3278 -0.9430
  483MOL0     H63731   5.477   6.462   6.071 -1.0981  2.3495  1.2600
  483MOL0     H63732   5.687   6.413   5.915 -2.3297 -2.3499  1.6595
  483MOL0     H63733   5.706   6.503   6.064  1.3237  3.2612 -0.1627
  483MOL0     H63734   5.647   6.621   5.794 -2.5361  0.8514  1.0366
  483MOL0     H63735   5.707   6.716   5.931  0.6797 -1.4167  2.0495
  483MOL0     H63736   5.883   6.503   5.805  0.3812  0.9395 -4.0551
  483MOL0     H63737   5.913   6.611   5.947 -0.6857 -0.5870  0.0576
  483MOL0     H63738   4.847   6.549   6.178  2.1346  0.0560 -0.8751
  483MOL0     H63739   4.612   6.529   6.108 -1.1593  1.2945  1.2506
  483MOL0     H63740   4.259   6.723   5.891 -1.3694 -1.0462  0.9019
  483MOL0     H63741   4.022   6.676   5.802 -1.6107 -2.8067 -0.8526
  483MOL0     H63742   4.849   6.933   6.205  3.9590 -1.3987 -0.7350
  483MOL0     H63743   5.100   7.009   6.243 -1.0779 -2.3403 -1.2191
  483MOL0     H63744   5.506   7.067   6.170 -0.6684 -0.7905  1.8136
  483MOL0     H63745   5.728   7.116   6.298  0.8562 -0.3305 -2.8742
  483MOL0     H63746   5.763   7.476   6.523  0.1825  2.6299 -1.7059
  483MOL0     H63747   5.829   7.529   6.370 -0.9864 -0.9437 -0.4115
  483MOL0     H63748   5.951   7.362   6.572 -3.4313  2.6570  1.0262
  483MOL0     H63749   6.029   7.380   6.423 -1.0169 -4.3457  2.6564
  483MOL0     H63750   5.995   7.652   6.476  2.5655  0.2717  0.0218
  483MOL0     H63751   6.137   7.562   6.516 -0.0593  0.0475  0.0931
  483MOL0     H63752   5.892   7.621   6.689 -0.1370 -0.9472  1.9381
  483MOL0     H63753   6.033   7.530   6.749  0.5362  0.8675 -0.0326
  483MOL0     H63754   6.201   7.907   6.777 -0.9616  0.3764 -0.1790
  483MOL0     H63755   5.598   7.505   6.361 -0.5957  1.1715 -3.4464
  483MOL0     H63756   5.359   7.449   6.308  0.1334 -0.0595  3.8726
  484MOL0     O63757   7.909   7.671   1.904 -0.1492 -0.1486  0.5102
  484MOL0     C63758   7.929   7.562   1.961  0.1840  0.2864  1.2297
  484MOL0     O63759   7.850   7.498   2.044 -0.7922  0.2882 -0.3141
  484MOL0     C63760   7.725   7.531   2.072  0.5241  0.0290  0.6082
  484MOL0     C63761   7.668   7.656   2.058  0.3274  0.0333 -0.4321
  484MOL0     C63762   7.540   7.675   2.101  0.1192  1.0516 -0.8414
  484MOL0     C63763   7.447   7.579   2.127  2.0529 -0.2669 -0.3157
  484MOL0     O63764   7.311   7.608   2.152  0.6865 -0.2081 -0.1559
  484MOL0     C63765   7.225   7.503   2.200 -0.1963  0.5886  0.2283
  484MOL0     C63766   7.082   7.545   2.166  0.4882  0.1314 -0.2324
  484MOL0     C63767   7.044   7.651   2.266 -0.3998  0.1677  0.5468
  484MOL0     C63768   6.886   7.671   2.259  0.9926 -0.1525 -0.2579
  484MOL0     C63769   6.841   7.811   2.320  0.4052 -0.2122 -0.3632
  484MOL0     C63770   6.708   7.860   2.265 -0.1619 -0.4934 -0.2856
  484MOL0     C63771   6.655   7.978   2.344  0.0115  0.1143  0.5825
  484MOL0     C63772   6.581   8.084   2.249  0.2776  0.5563 -1.2889
  484MOL0     N63773   6.666   8.150   2.153  0.0615  0.2724  0.0842
  484MOL0     C63774   6.787   8.222   2.172  0.2326 -0.2703 -0.2028
  484MOL0     C63775   6.826   8.257   2.054 -0.7977 -0.8267 -1.1087
  484MOL0     C63776   6.948   8.346   2.028  0.3213 -0.1726  0.7214
  484MOL0     C63777   7.084   8.281   2.050  0.7521  0.4148 -0.6005
  484MOL0     C63778   7.198   8.374   2.009  0.1801 -0.3602  0.2831
  484MOL0     C63779   7.208   8.496   2.100 -0.5564  0.8075  0.0513
  484MOL0     O63780   7.334   8.561   2.072 -0.2967 -0.1670  0.4348
  484MOL0     C63781   7.443   8.531   2.147  0.0396  0.0874  0.5141
  484MOL0     C63782   7.451   8.428   2.243 -0.2684 -0.2029  1.2354
  484MOL0     C63783   7.567   8.407   2.319 -0.2957 -0.3199  0.2972
  484MOL0     C63784   7.676   8.493   2.306  0.3086 -0.5160 -0.3893
  484MOL0     C63785   7.801   8.474   2.387 -0.1010  0.1150 -0.3980
  484MOL0     O63786   7.903   8.551   2.359 -0.7137  1.1072  0.7371
  484MOL0     C63787   8.023   8.535   2.421 -0.5776 -0.0314  0.3808
  484MOL0     C63788   8.108   8.642   2.456 -0.1221 -0.5059 -0.0716
  484MOL0     C63789   8.238   8.625   2.483 -0.6423 -1.2136 -0.7327
  484MOL0     C63790   8.296   8.502   2.501  0.3496  0.4328 -0.2253
  484MOL0     O63791   8.423   8.480   2.535  0.4559  0.4292 -0.2752
  484MOL0     C63792   8.478   8.573   2.634 -0.7761  1.0173  1.0947
  484MOL0     C63793   8.604   8.506   2.677  0.3371  0.6306  0.8165
  484MOL0     C63794   8.714   8.525   2.572  0.3341 -0.3786  0.2430
  484MOL0     C63795   8.849   8.457   2.593  0.1036  0.0892 -0.4776
  484MOL0     C63796   8.953   8.485   2.487 -0.0636 -0.4237  0.5876
  484MOL0     C63797   9.075   8.395   2.513 -0.6629  0.8500  0.2350
  484MOL0     C63798   9.188   8.409   2.407  0.4644  0.0990 -0.2208
  484MOL0     C63799   9.145   8.370   2.267 -0.6116 -0.3228  0.8727
  484MOL0    Cl63800   9.087   8.192   2.270  0.2762 -0.1509 -0.2703
  484MOL0     C63801   8.217   8.387   2.469 -0.8093  0.2911  0.0657
  484MOL0     C63802   8.081   8.409   2.426 -0.1157 -0.1388  1.1025
  484MOL0     O63803   7.795   8.399   2.482 -0.2038  0.0065  0.3208
  484MOL0     C63804   7.669   8.601   2.216  0.2389 -0.1014 -0.1662
  484MOL0     C63805   7.553   8.624   2.140  0.4867 -1.4980 -0.5501
  484MOL0     N63806   6.722   8.223   1.963 -0.3939 -0.4375  0.4480
  484MOL0     N63807   6.630   8.164   2.025  0.5189 -0.1337 -0.3778
  484MOL0     C63808   7.497   7.447   2.127 -0.1651 -0.8943 -0.2967
  484MOL0     C63809   7.633   7.427   2.101 -0.5266  0.4013  0.4528
  484MOL0     C63810   8.058   7.491   1.924  0.3691 -0.8538 -0.1216
  484MOL0     C63811   8.080   7.355   1.959  0.3017 -0.6495  0.9346
  484MOL0     C63812   8.200   7.292   1.937  0.7695  0.3408 -0.5271
  484MOL0     C63813   8.312   7.362   1.890 -0.8247  0.3975  1.1419
  484MOL0     O63814   8.423   7.272   1.866 -0.0454 -1.3447  0.0019
  484MOL0     C63815   8.429   7.220   1.732 -0.1386 -0.3701 -0.6907
  484MOL0     C63816   8.462   7.066   1.737  0.8315  0.4105  0.3826
  484MOL0     C63817   8.603   7.041   1.786  0.4301 -0.5083 -0.5138
  484MOL0     C63818   8.651   6.893   1.765  0.4029  0.2081 -0.2493
  484MOL0     C63819   8.698   6.874   1.623 -0.2511 -0.0021  1.2767
  484MOL0     C63820   8.737   6.861   1.506 -0.2605 -0.2264 -1.0070
  484MOL0     C63821   8.289   7.494   1.862 -0.5215  0.3812  0.5306
  484MOL0     C63822   8.165   7.564   1.868 -0.2769  0.2281  1.3760
  484MOL0     H63823   7.731   7.740   2.031 -1.2319  1.4220  0.0006
  484MOL0     H63824   7.494   7.770   2.126 -2.1396  0.4257 -2.2034
  484MOL0     H63825   7.217   7.490   2.309 -2.5204  3.3232  0.4715
  484MOL0     H63826   7.240   7.405   2.153 -0.1853  0.0580  1.3045
  484MOL0     H63827   7.015   7.463   2.193 -3.2584  2.7779 -0.8294
  484MOL0     H63828   7.068   7.581   2.063  0.8761  3.3181  0.7260
  484MOL0     H63829   7.096   7.740   2.231  1.5226 -1.6824 -1.5991
  484MOL0     H63830   7.074   7.630   2.369 -1.0521 -1.0584  0.5124
  484MOL0     H63831   6.855   7.684   2.155  4.9387 -1.0835 -1.7627
  484MOL0     H63832   6.836   7.586   2.304  4.3297 -0.9645  2.3441
  484MOL0     H63833   6.920   7.880   2.288  1.6698 -1.8710 -0.9700
  484MOL0     H63834   6.833   7.808   2.429 -2.2679 -1.1371 -0.5094
  484MOL0     H63835   6.630   7.787   2.286 -1.5938  0.6808 -1.2690
  484MOL0     H63836   6.712   7.887   2.159 -2.0794  1.4293  0.0544
  484MOL0     H63837   6.576   7.953   2.414 -0.4764  2.2567  0.8444
  484MOL0     H63838   6.736   8.030   2.395 -1.3210  1.0197  1.8403
  484MOL0     H63839   6.541   8.167   2.309 -1.8692  0.9022 -3.1001
  484MOL0     H63840   6.510   8.024   2.192  3.0653 -1.7376 -2.5554
  484MOL0     H63841   6.837   8.256   2.262 -1.2266 -1.4607  1.1464
  484MOL0     H63842   6.945   8.439   2.086 -1.0261  0.4484 -0.2748
  484MOL0     H63843   6.945   8.368   1.921  0.2417 -2.5663  0.1697
  484MOL0     H63844   7.097   8.196   1.982  1.3891  0.5110 -0.6002
  484MOL0     H63845   7.094   8.243   2.152 -0.6386  0.1676 -0.5383
  484MOL0     H63846   7.293   8.320   2.012  0.2477 -0.2400  0.3298
  484MOL0     H63847   7.169   8.402   1.907 -0.6435 -1.5097  0.1763
  484MOL0     H63848   7.193   8.463   2.203 -1.7570 -1.2559 -0.7110
  484MOL0     H63849   7.122   8.557   2.070 -0.1472  2.2432  1.6894
  484MOL0     H63850   7.363   8.365   2.252 -0.3111 -0.2898  0.3022
  484MOL0     H63851   7.564   8.329   2.394 -3.6878  0.2389  0.8866
  484MOL0     H63852   8.065   8.740   2.438  1.5371  1.1229  3.6540
  484MOL0     H63853   8.300   8.714   2.489 -0.9396 -1.0997  1.5594
  484MOL0     H63854   8.417   8.579   2.724  0.7651  0.6629  2.2078
  484MOL0     H63855   8.494   8.678   2.605 -1.8996  0.8431 -0.2212
  484MOL0     H63856   8.584   8.399   2.687 -0.3825  0.7565  0.8062
  484MOL0     H63857   8.637   8.536   2.777 -0.0639  1.8761  0.5915
  484MOL0     H63858   8.736   8.632   2.564 -0.0941 -0.3328 -0.4695
  484MOL0     H63859   8.676   8.492   2.474  1.0601 -0.0486 -0.1582
  484MOL0     H63860   8.897   8.474   2.690 -2.3394 -0.3521  0.8758
  484MOL0     H63861   8.835   8.348   2.593  4.6869 -0.7239 -1.1538
  484MOL0     H63862   8.986   8.589   2.494  0.9422 -0.7628  1.0558
  484MOL0     H63863   8.899   8.462   2.394  1.3862 -0.4644 -0.2733
  484MOL0     H63864   9.051   8.288   2.521 -0.1037  0.8264  1.8722
  484MOL0     H63865   9.115   8.419   2.611  1.2231  1.2473 -0.5951
  484MOL0     H63866   9.227   8.511   2.411 -0.8192  0.6067 -0.3974
  484MOL0     H63867   9.277   8.349   2.427  1.0767  1.3413  0.9372
  484MOL0     H63868   9.236   8.385   2.209  0.4291  1.9792  2.9162
  484MOL0     H63869   9.070   8.444   2.237 -0.1278  0.7056  2.0989
  484MOL0     H63870   8.264   8.289   2.465  2.1970  1.5141  2.1102
  484MOL0     H63871   8.023   8.328   2.385 -0.7393  0.0412  1.6207
  484MOL0     H63872   7.758   8.658   2.191 -0.7810  0.0344 -4.1298
  484MOL0     H63873   7.542   8.714   2.082  0.9295 -0.3898  1.0042
  484MOL0     H63874   7.442   7.362   2.168  0.0269 -1.1620 -0.5905
  484MOL0     H63875   7.684   7.333   2.090  3.0472  2.4344 -2.4446
  484MOL0     H63876   8.001   7.293   1.999  0.8088 -0.8996  1.5777
  484MOL0     H63877   8.218   7.187   1.957 -0.6714  0.0826 -0.4621
  484MOL0     H63878   8.496   7.279   1.668  0.0937 -1.6387 -1.6464
  484MOL0     H63879   8.329   7.231   1.689 -0.6107  1.7787  0.7926
  484MOL0     H63880   8.390   7.010   1.798  0.1145  1.6295  0.6980
  484MOL0     H63881   8.457   7.029   1.635 -0.7268  2.6180 -0.4289
  484MOL0     H63882   8.619   7.062   1.892 -1.6670  0.8655 -0.4012
  484MOL0     H63883   8.671   7.114   1.741  1.5033 -0.4513  1.1213
  484MOL0     H63884   8.733   6.881   1.836  1.1184  0.7135 -0.9724
  484MOL0     H63885   8.570   6.821   1.783  1.1512 -1.2620 -2.4007
  484MOL0     H63886   8.770   6.855   1.404  3.5360 -0.4444  0.0700
  484MOL0     H63887   8.376   7.553   1.833  0.0594  1.2521  3.6453
  484MOL0     H63888   8.154   7.668   1.838 -0.9355 -0.4589 -0.9285
  485MOL0     O63889   2.484   1.922   1.507 -0.1572 -0.7314  0.2497
  485MOL0     C63890   2.537   2.016   1.571  0.2840  0.5303 -0.2698
  485MOL0     O63891   2.473   2.114   1.623  0.3548 -0.1096  0.1757
  485MOL0     C63892   2.333   2.122   1.618  0.5732 -0.3593  1.2342
  485MOL0     C63893   2.277   2.254   1.596  0.0596 -0.3077  0.1387
  485MOL0     C63894   2.140   2.271   1.596 -0.1685  0.1047 -0.2996
  485MOL0     C63895   2.048   2.172   1.612 -0.6036  0.4071  0.6511
  485MOL0     O63896   1.916   2.196   1.625  0.3826 -0.0727  0.6626
  485MOL0     C63897   1.867   2.338   1.621 -0.9509 -0.0157 -0.3669
  485MOL0     C63898   1.722   2.352   1.664 -0.0952 -0.4032  0.3377
  485MOL0     C63899   1.625   2.277   1.574  0.3896 -0.6705  0.0298
  485MOL0     C63900   1.484   2.307   1.625 -1.0805 -0.0449  0.0875
  485MOL0     C63901   1.377   2.255   1.533  0.1123  0.0994 -0.6404
  485MOL0     C63902   1.238   2.301   1.598 -0.4216  0.2003 -0.2549
  485MOL0     C63903   1.115   2.248   1.514  0.1572  0.2558 -0.6716
  485MOL0     C63904   0.983   2.290   1.575 -0.0227  0.2339 -0.4672
  485MOL0     N63905   0.867   2.236   1.516  0.1411 -0.2821 -0.6797
  485MOL0     C63906   0.852   2.204   1.381  0.0733 -0.4587  0.0818
  485MOL0     C63907   0.723   2.158   1.360 -0.1922 -0.1657  0.4285
  485MOL0     C63908   0.649   2.123   1.231  0.4480  0.8543  0.0303
  485MOL0     C63909   0.537   2.025   1.247 -0.3564  0.6247 -0.1450
  485MOL0     C63910   0.408   2.073   1.316  0.4442 -0.0243 -0.1732
  485MOL0     C63911   0.301   1.964   1.312 -0.4080  0.2818 -0.1739
  485MOL0     O63912   0.203   1.989   1.205 -0.9860  0.6542 -0.5858
  485MOL0     C63913   0.084   1.917   1.218 -0.3316 -0.5540 -0.5011
  485MOL0     C63914   0.059   1.814   1.315  0.2630 -0.6286 -0.0288
  485MOL0     C63915  -0.065   1.745   1.314  0.0042 -0.0021  0.6823
  485MOL0     C63916  -0.167   1.774   1.215 -0.0434  0.3981 -0.0989
  485MOL0     C63917  -0.287   1.693   1.223  0.3489 -0.6516  0.4056
  485MOL0     O63918  -0.367   1.694   1.110 -0.0147 -0.0805 -0.5535
  485MOL0     C63919  -0.474   1.609   1.105 -0.4626  0.7415 -0.4635
  485MOL0     C63920  -0.576   1.605   1.206 -0.1808 -0.1664 -0.1662
  485MOL0     C63921  -0.683   1.515   1.189  0.3621 -0.5700  0.6608
  485MOL0     C63922  -0.704   1.449   1.069 -0.4544 -0.4454  0.0127
  485MOL0     O63923  -0.811   1.369   1.074  0.8182  0.1662  0.0456
  485MOL0     C63924  -0.824   1.264   0.984 -0.7075 -0.1621 -0.4836
  485MOL0     C63925  -0.933   1.180   1.045  0.0743  0.0567  0.8699
  485MOL0     C63926  -1.072   1.262   1.036  0.2393  0.4461 -0.6177
  485MOL0     C63927  -1.182   1.182   1.095  0.6507  0.2159  0.1996
  485MOL0     C63928  -1.314   1.253   1.062  0.2939 -0.2093 -0.3178
  485MOL0     C63929  -1.431   1.163   1.116  0.1898 -0.6748  0.9849
  485MOL0     C63930  -1.448   1.018   1.074 -0.7933 -0.3407  1.1241
  485MOL0     C63931  -1.571   0.957   1.139  0.2366  0.7306  0.0534
  485MOL0    Cl63932  -1.620   0.801   1.059  0.0289 -0.0035 -0.4642
  485MOL0     C63933  -0.606   1.456   0.973  0.1913 -0.1505 -0.2404
  485MOL0     C63934  -0.486   1.529   0.994 -0.4702  0.2828 -0.8212
  485MOL0     O63935  -0.306   1.627   1.328 -0.0259 -0.2682 -0.4301
  485MOL0     C63936  -0.153   1.882   1.132 -0.8471  0.0233  0.5735
  485MOL0     C63937  -0.019   1.951   1.136  0.3884  0.1985  0.0621
  485MOL0     N63938   0.670   2.149   1.485 -0.6215 -0.1654  0.1249
  485MOL0     N63939   0.747   2.205   1.575 -0.8546 -0.2471  0.5100
  485MOL0     C63940   2.097   2.037   1.633  0.2811 -0.1458 -0.6413
  485MOL0     C63941   2.241   2.017   1.635  0.0822 -0.5475  0.5470
  485MOL0     C63942   2.681   2.034   1.554  0.3604 -0.3038  0.3340
  485MOL0     C63943   2.758   1.953   1.469 -0.1096 -0.1141 -0.8517
  485MOL0     C63944   2.903   1.966   1.473 -0.0111  0.4242  0.1417
  485MOL0     C63945   2.963   2.058   1.557 -0.5764  0.8284  0.2129
  485MOL0     O63946   3.095   2.077   1.554  0.2450  0.4186 -0.1708
  485MOL0     C63947   3.162   2.190   1.619  0.3673 -0.4555  0.5241
  485MOL0     C63948   3.313   2.180   1.584 -0.0443  0.0595 -0.0548
  485MOL0     C63949   3.346   2.169   1.428  0.6611 -0.6168 -0.4895
  485MOL0     C63950   3.281   2.277   1.341  1.2733  0.2474  0.7747
  485MOL0     C63951   3.326   2.409   1.382 -0.4472 -0.0075  0.0715
  485MOL0     C63952   3.378   2.515   1.419  0.4623 -0.1178 -1.3093
  485MOL0     C63953   2.890   2.135   1.643  0.0944 -0.1892  0.4519
  485MOL0     C63954   2.751   2.125   1.633 -0.2585  0.0797 -0.5338
  485MOL0     H63955   2.327   2.349   1.577 -3.1375  1.2478 -1.2008
  485MOL0     H63956   2.111   2.375   1.581 -1.0914 -0.0478  0.3952
  485MOL0     H63957   1.881   2.383   1.523  0.5643 -1.4013 -0.8336
  485MOL0     H63958   1.926   2.401   1.688 -0.8309 -2.1523  1.6903
  485MOL0     H63959   1.699   2.458   1.669 -0.3775 -0.5221  2.1283
  485MOL0     H63960   1.718   2.323   1.769 -1.1234  2.5048  1.1876
  485MOL0     H63961   1.636   2.169   1.589  1.0158 -0.2082  4.1135
  485MOL0     H63962   1.640   2.321   1.475 -3.4289  0.4432 -0.1923
  485MOL0     H63963   1.468   2.267   1.726  2.6418 -0.0834  0.8158
  485MOL0     H63964   1.465   2.414   1.642 -0.5826  0.0391  0.1326
  485MOL0     H63965   1.382   2.146   1.526 -0.6697 -0.2108  2.4050
  485MOL0     H63966   1.386   2.305   1.436 -0.7714  0.6123 -0.4728
  485MOL0     H63967   1.249   2.409   1.608  1.1110  0.0466 -0.1324
  485MOL0     H63968   1.222   2.261   1.699 -0.1114  1.3022  0.2447
  485MOL0     H63969   1.110   2.292   1.414 -1.1074 -0.7629 -1.0853
  485MOL0     H63970   1.122   2.138   1.514 -0.6205  0.1976 -0.0316
  485MOL0     H63971   0.990   2.398   1.567 -0.9405  0.1752 -2.7254
  485MOL0     H63972   0.990   2.257   1.680 -1.3316 -4.2251 -1.5325
  485MOL0     H63973   0.922   2.214   1.299 -0.7863 -0.9105 -0.7163
  485MOL0     H63974   0.730   2.081   1.171  1.0393 -0.5505  1.7401
  485MOL0     H63975   0.620   2.222   1.195  0.3923  1.7233  2.3020
  485MOL0     H63976   0.573   1.934   1.296  0.0826  0.9016  0.0525
  485MOL0     H63977   0.503   2.007   1.144 -0.4591  0.1297 -0.0306
  485MOL0     H63978   0.436   2.091   1.420 -0.0969  0.2147 -0.0614
  485MOL0     H63979   0.379   2.164   1.262 -0.0838  0.0043  0.1480
  485MOL0     H63980   0.252   1.946   1.408  0.0081 -2.6401 -0.4223
  485MOL0     H63981   0.351   1.869   1.291  0.2575  0.9555 -1.7784
  485MOL0     H63982   0.134   1.771   1.380  0.0188 -1.1349 -0.0783
  485MOL0     H63983  -0.076   1.662   1.383 -0.5407 -0.4519  0.0674
  485MOL0     H63984  -0.561   1.659   1.300 -0.8256 -1.5227  0.7479
  485MOL0     H63985  -0.740   1.494   1.279  0.1130  0.3859  0.7436
  485MOL0     H63986  -0.725   1.217   0.977 -0.6366  0.0625 -1.0214
  485MOL0     H63987  -0.853   1.303   0.886 -1.1461  1.1768  0.1556
  485MOL0     H63988  -0.916   1.159   1.151 -0.7043 -0.2618  0.9380
  485MOL0     H63989  -0.952   1.088   0.989  0.0430  0.0454  0.8988
  485MOL0     H63990  -1.095   1.271   0.930  1.0385 -4.5634 -1.4552
  485MOL0     H63991  -1.070   1.357   1.091 -1.4259  0.3334 -0.3129
  485MOL0     H63992  -1.188   1.081   1.055  0.8986 -2.0577  5.1156
  485MOL0     H63993  -1.168   1.168   1.203 -0.4293 -2.7994  0.0480
  485MOL0     H63994  -1.321   1.248   0.953  1.2862 -2.6449 -0.3432
  485MOL0     H63995  -1.322   1.352   1.107  0.7899  0.6848 -2.1257
  485MOL0     H63996  -1.518   1.225   1.094 -0.5810 -2.1623 -0.4074
  485MOL0     H63997  -1.414   1.173   1.223 -2.7792  3.0713  1.3377
  485MOL0     H63998  -1.446   1.003   0.965 -0.2008  0.0998  1.0665
  485MOL0     H63999  -1.365   0.956   1.109 -0.2835  0.6508  1.6967
  485MOL0     H64000  -1.660   1.020   1.138 -1.0217 -0.9290  1.2280
  485MOL0     H64001  -1.551   0.938   1.245 -1.0233 -1.4442 -0.0326
  485MOL0     H64002  -0.619   1.403   0.879  0.2541 -1.7141  0.5903
  485MOL0     H64003  -0.406   1.530   0.922 -0.5676  1.1062 -0.9295
  485MOL0     H64004  -0.231   1.902   1.059 -0.0100 -0.0905 -0.3753
  485MOL0     H64005  -0.005   2.035   1.068  2.6337  1.5209  1.9976
  485MOL0     H64006   2.027   1.956   1.651 -1.8347  2.1678  2.9935
  485MOL0     H64007   2.272   1.913   1.636 -1.4978 -1.0561 -0.5952
  485MOL0     H64008   2.714   1.870   1.415  1.9779 -2.1914  0.4267
  485MOL0     H64009   2.954   1.909   1.396 -0.7281 -0.1081  0.0479
  485MOL0     H64010   3.154   2.176   1.727  0.6716  1.2127  0.7970
  485MOL0     H64011   3.127   2.290   1.589  1.5984 -0.5890 -1.5808
  485MOL0     H64012   3.360   2.270   1.624 -1.6306  0.8378  0.1205
  485MOL0     H64013   3.356   2.089   1.628 -0.7679 -1.4076 -2.1884
  485MOL0     H64014   3.315   2.067   1.403  2.7363 -0.5602 -3.8166
  485MOL0     H64015   3.453   2.190   1.418  0.9979 -1.1841  1.4506
  485MOL0     H64016   3.304   2.263   1.235  2.3189 -1.8340  1.2271
  485MOL0     H64017   3.174   2.260   1.353  1.0092  1.6200  0.4967
  485MOL0     H64018   3.421   2.604   1.459 -1.8096  1.6317 -2.4609
  485MOL0     H64019   2.931   2.204   1.715 -1.1720 -1.5258  2.6076
  485MOL0     H64020   2.689   2.183   1.701 -2.0885 -2.9487  0.5657
  486MOL0     O64021   0.597   9.256   1.767  0.6506  0.3014 -0.0865
  486MOL0     C64022   0.609   9.214   1.890 -0.5004 -0.0995 -0.6989
  486MOL0     O64023   0.509   9.147   1.961  0.0450 -0.1192  0.2830
  486MOL0     C64024   0.393   9.119   1.899  0.0076  0.2539  0.2602
  486MOL0     C64025   0.293   9.220   1.903  0.1047  0.2387  0.2299
  486MOL0     C64026   0.164   9.193   1.857  0.0328 -0.4794 -0.3230
  486MOL0     C64027   0.136   9.062   1.806  0.4578 -0.3596  0.6802
  486MOL0     O64028   0.010   9.024   1.773  0.1232 -0.1433 -0.5145
  486MOL0     C64029  -0.000   8.986   1.637  0.7825 -0.3574 -0.7048
  486MOL0     C64030  -0.144   8.963   1.587  0.3494  0.1781  0.3737
  486MOL0     C64031  -0.150   8.916   1.446 -0.1108  0.5320 -0.1175
  486MOL0     C64032  -0.285   8.961   1.373  0.4038  0.4888 -0.1252
  486MOL0     C64033  -0.415   8.965   1.460 -0.1697 -0.4566  0.5291
  486MOL0     C64034  -0.539   8.995   1.371 -0.5896  0.0349 -0.1963
  486MOL0     C64035  -0.542   9.150   1.331 -0.2373  0.4491 -0.0592
  486MOL0     C64036  -0.689   9.168   1.288 -1.1632  0.1547  0.5751
  486MOL0     N64037  -0.771   9.209   1.395 -0.2977 -0.0957 -0.3663
  486MOL0     C64038  -0.845   9.133   1.488 -0.3537 -0.2076  0.0849
  486MOL0     C64039  -0.878   9.220   1.585 -0.5162  0.2294  0.3111
  486MOL0     C64040  -0.961   9.188   1.707  0.2839 -0.3993 -0.5878
  486MOL0     C64041  -1.100   9.186   1.651 -0.1168 -0.5665 -0.0255
  486MOL0     C64042  -1.205   9.246   1.745 -0.6073 -0.2210 -0.1297
  486MOL0     C64043  -1.352   9.235   1.684  0.2850 -0.6812  0.6512
  486MOL0     O64044  -1.369   9.325   1.584  0.2770 -0.0838  0.3922
  486MOL0     C64045  -1.460   9.290   1.491  0.6856  0.2398  0.7218
  486MOL0     C64046  -1.425   9.300   1.352  0.0646  0.0017  0.7911
  486MOL0     C64047  -1.522   9.269   1.257  0.2926 -0.4002  0.4461
  486MOL0     C64048  -1.654   9.228   1.292  0.0922  0.2376 -0.4472
  486MOL0     C64049  -1.760   9.209   1.188 -0.4023 -1.1891 -0.7791
  486MOL0     O64050  -1.892   9.224   1.230 -0.0451 -0.1901  0.0076
  486MOL0     C64051  -1.997   9.229   1.140  0.8337  0.8335 -1.4175
  486MOL0     C64052  -2.001   9.238   1.001 -0.3199  0.3064  0.4407
  486MOL0     C64053  -2.128   9.228   0.931 -0.5385  0.0037  0.8021
  486MOL0     C64054  -2.250   9.221   1.000 -0.4547 -0.2119  0.0305
  486MOL0     O64055  -2.380   9.229   0.954 -0.1252 -0.7608 -0.2318
  486MOL0     C64056  -2.402   9.270   0.815  0.4279 -0.2637 -0.5890
  486MOL0     C64057  -2.545   9.280   0.776 -0.5453 -0.1915  0.1202
  486MOL0     C64058  -2.608   9.411   0.820  0.2100 -0.3795  0.0906
  486MOL0     C64059  -2.759   9.399   0.771 -0.4488 -0.4282 -0.7353
  486MOL0     C64060  -2.849   9.511   0.827  0.9209 -0.5512 -0.4085
  486MOL0     C64061  -2.987   9.510   0.766 -0.6605  0.1514  0.7198
  486MOL0     C64062  -3.066   9.644   0.767 -0.1735  0.6753 -1.1844
  486MOL0     C64063  -3.181   9.655   0.657 -0.1135 -0.7256 -0.1812
  486MOL0    Cl64064  -3.296   9.526   0.652 -0.6925 -0.3116 -0.1122
  486MOL0     C64065  -2.239   9.215   1.138  0.5012 -0.6119  0.3129
  486MOL0     C64066  -2.117   9.212   1.211 -0.3244  0.2796  0.8529
  486MOL0     O64067  -1.727   9.204   1.073 -0.2332 -0.1087 -0.0911
  486MOL0     C64068  -1.692   9.221   1.429 -0.6523  0.2371 -0.6284
  486MOL0     C64069  -1.597   9.257   1.524  0.4917 -0.3513 -0.3375
  486MOL0     N64070  -0.839   9.345   1.541  0.4415 -0.6406 -0.5044
  486MOL0     N64071  -0.772   9.341   1.439 -0.7254 -0.1279  0.9688
  486MOL0     C64072   0.243   8.966   1.802  0.4265 -0.2939 -0.5348
  486MOL0     C64073   0.370   8.993   1.843 -0.0058 -0.6508 -1.0148
  486MOL0     C64074   0.743   9.237   1.950  0.8519 -0.1905  0.5687
  486MOL0     C64075   0.768   9.193   2.080  0.3767 -0.0819  0.2772
  486MOL0     C64076   0.884   9.216   2.155 -0.9724 -0.6759 -0.0558
  486MOL0     C64077   0.993   9.276   2.087 -0.4225 -0.2478  0.5100
  486MOL0     O64078   1.121   9.304   2.137  0.9905  0.2084  0.0806
  486MOL0     C64079   1.142   9.249   2.269  0.2166  0.2100 -0.0520
  486MOL0     C64080   1.282   9.288   2.313  0.2551  0.7312  1.2669
  486MOL0     C64081   1.292   9.431   2.375 -0.1892  0.1778 -0.2934
  486MOL0     C64082   1.243   9.420   2.521  1.2986 -0.0873 -0.6001
  486MOL0     C64083   1.239   9.556   2.574  1.0042 -0.4836  0.2187
  486MOL0     C64084   1.243   9.670   2.610  0.1805 -0.0669 -0.7157
  486MOL0     C64085   0.973   9.322   1.959  0.6850  0.0831  0.0906
  486MOL0     C64086   0.846   9.305   1.892  0.7561  0.0251 -0.5353
  486MOL0     H64087   0.319   9.318   1.944 -1.5945  0.8795 -0.1425
  486MOL0     H64088   0.082   9.264   1.866 -0.0017  0.0861 -3.9150
  486MOL0     H64089   0.061   8.897   1.621  1.8636 -0.1214  1.6750
  486MOL0     H64090   0.049   9.056   1.569  0.0327  0.3382 -0.5474
  486MOL0     H64091  -0.201   9.057   1.580 -0.4304 -0.3502 -0.5805
  486MOL0     H64092  -0.191   8.886   1.649  1.6574  0.7948  2.2308
  486MOL0     H64093  -0.135   8.808   1.431  2.3160  0.5014  1.9141
  486MOL0     H64094  -0.065   8.960   1.394  1.2648 -1.8916 -0.0517
  486MOL0     H64095  -0.264   9.063   1.339  2.1163  0.4126  0.5800
  486MOL0     H64096  -0.301   8.903   1.281 -2.2834  0.4056  0.3211
  486MOL0     H64097  -0.413   9.046   1.533 -1.1540  0.5295 -0.4949
  486MOL0     H64098  -0.426   8.874   1.520 -2.3984 -0.3039  0.4454
  486MOL0     H64099  -0.626   8.965   1.432 -0.4372 -0.5557 -0.2656
  486MOL0     H64100  -0.532   8.927   1.285 -0.5516  0.5309 -0.5869
  486MOL0     H64101  -0.523   9.213   1.418 -1.6660  0.1834  0.4764
  486MOL0     H64102  -0.465   9.176   1.258 -0.1186  3.8236  1.1093
  486MOL0     H64103  -0.718   9.077   1.237 -0.1395 -0.9037  1.8029
  486MOL0     H64104  -0.706   9.257   1.226 -0.3518  0.1869  0.3922
  486MOL0     H64105  -0.856   9.026   1.479  0.6882 -0.3126 -0.0739
  486MOL0     H64106  -0.954   9.265   1.783  0.2849 -0.7203 -0.2583
  486MOL0     H64107  -0.921   9.100   1.758  3.3236  0.6890 -0.8903
  486MOL0     H64108  -1.134   9.085   1.627 -0.4515  0.2208 -3.5119
  486MOL0     H64109  -1.101   9.235   1.553  2.3977 -1.9349 -0.8538
  486MOL0     H64110  -1.203   9.200   1.845 -5.4700 -0.6721  0.0239
  486MOL0     H64111  -1.180   9.352   1.749  3.8653 -1.0864 -0.4154
  486MOL0     H64112  -1.424   9.247   1.765 -1.2343 -1.5593 -0.5159
  486MOL0     H64113  -1.364   9.133   1.647  1.6418 -0.3196 -0.9319
  486MOL0     H64114  -1.323   9.325   1.327  0.1307  3.6013  3.7544
  486MOL0     H64115  -1.496   9.270   1.151 -2.6802  0.7548 -0.3709
  486MOL0     H64116  -1.913   9.259   0.942  0.5444 -2.1754  0.7164
  486MOL0     H64117  -2.128   9.230   0.823  0.4623 -0.3590  0.7944
  486MOL0     H64118  -2.367   9.194   0.746  1.4382 -1.2940  0.9988
  486MOL0     H64119  -2.361   9.371   0.803 -0.4327  0.6395  2.7588
  486MOL0     H64120  -2.596   9.196   0.823  0.2682 -1.8670 -1.8492
  486MOL0     H64121  -2.559   9.271   0.668 -0.9047 -0.8685  0.2219
  486MOL0     H64122  -2.561   9.493   0.765  0.8421 -2.4046 -2.6203
  486MOL0     H64123  -2.612   9.424   0.929 -2.2918 -0.4849  0.0639
  486MOL0     H64124  -2.765   9.408   0.662 -0.0482  3.5212 -0.5832
  486MOL0     H64125  -2.800   9.302   0.801 -0.6084 -0.0574  0.2927
  486MOL0     H64126  -2.810   9.611   0.805 -2.1510  0.3105 -2.4877
  486MOL0     H64127  -2.853   9.497   0.936 -1.0650 -1.9405 -0.6157
  486MOL0     H64128  -3.045   9.426   0.804 -1.5072 -0.5833 -1.9520
  486MOL0     H64129  -2.978   9.497   0.657  1.4207  0.7159  0.7796
  486MOL0     H64130  -3.121   9.667   0.858  0.5652 -1.1639 -0.2188
  486MOL0     H64131  -2.998   9.723   0.734 -0.9295  0.5205 -3.2685
  486MOL0     H64132  -3.149   9.665   0.553 -1.7118  2.3089 -0.5093
  486MOL0     H64133  -3.242   9.745   0.672 -1.3399 -1.1007 -2.3786
  486MOL0     H64134  -2.332   9.204   1.193  0.9900  0.8084  1.4740
  486MOL0     H64135  -2.125   9.198   1.318  3.4486 -3.3806  0.9055
  486MOL0     H64136  -1.792   9.184   1.450 -0.4584 -0.6634 -1.2154
  486MOL0     H64137  -1.624   9.259   1.629 -3.0845  2.4946 -1.1194
  486MOL0     H64138   0.224   8.864   1.771 -1.1122  0.2139 -1.3721
  486MOL0     H64139   0.444   8.914   1.851 -1.1552 -1.5439  1.6710
  486MOL0     H64140   0.690   9.132   2.126  0.9674  0.0507  1.5050
  486MOL0     H64141   0.894   9.186   2.259 -0.8900 -0.3048  0.0432
  486MOL0     H64142   1.127   9.141   2.266 -1.5366  0.4225 -2.3320
  486MOL0     H64143   1.067   9.287   2.339  0.6230 -1.0629  1.1032
  486MOL0     H64144   1.310   9.211   2.384  0.1734  0.5003  1.0501
  486MOL0     H64145   1.347   9.278   2.225  0.5467 -1.3851  1.6746
  486MOL0     H64146   1.232   9.500   2.315  2.8133  2.5281 -0.8779
  486MOL0     H64147   1.391   9.477   2.370  0.3434 -0.8542  0.3860
  486MOL0     H64148   1.149   9.365   2.526  1.4529 -0.4490 -1.4760
  486MOL0     H64149   1.318   9.369   2.582  0.1418  2.1191  2.9799
  486MOL0     H64150   1.241   9.777   2.618 -1.2822 -0.1418  0.1441
  486MOL0     H64151   1.054   9.353   1.894  0.6979  1.2993  0.6522
  486MOL0     H64152   0.844   9.363   1.800  0.5287 -0.6050 -0.9316
  487MOL0     O64153   3.500   0.306   5.114 -0.5145  0.7776 -0.1190
  487MOL0     C64154   3.572   0.403   5.116  0.2738 -0.6521  0.0626
  487MOL0     O64155   3.544   0.520   5.040 -0.5129 -0.0032 -0.1494
  487MOL0     C64156   3.418   0.527   4.994 -0.0272  0.0461 -0.2001
  487MOL0     C64157   3.385   0.558   4.859 -0.5739 -0.5739 -0.2972
  487MOL0     C64158   3.255   0.545   4.810  0.4848  0.9589  0.3813
  487MOL0     C64159   3.145   0.509   4.896 -0.2948 -0.1224 -0.8753
  487MOL0     O64160   3.009   0.497   4.865  0.5307  0.0337  0.3994
  487MOL0     C64161   2.972   0.520   4.725 -0.1118 -0.6838 -0.8050
  487MOL0     C64162   2.820   0.536   4.710 -0.1833 -0.1319 -0.4547
  487MOL0     C64163   2.728   0.484   4.822 -0.3443  0.3421  1.0881
  487MOL0     C64164   2.751   0.328   4.837 -0.4905 -0.7676 -0.8714
  487MOL0     C64165   2.657   0.270   4.947 -0.5328  0.4017  1.3929
  487MOL0     C64166   2.663   0.336   5.087 -0.1150 -0.0579  0.4156
  487MOL0     C64167   2.813   0.346   5.144  1.0812 -0.1558 -0.6672
  487MOL0     C64168   2.809   0.395   5.283 -0.0814 -0.2821  0.2780
  487MOL0     N64169   2.944   0.406   5.342  0.3859 -0.4173  0.4277
  487MOL0     C64170   3.029   0.311   5.404 -0.6598 -0.1802  0.0395
  487MOL0     C64171   3.140   0.387   5.426  0.5602  0.7265 -0.5226
  487MOL0     C64172   3.276   0.346   5.488  0.1667  0.6592  0.4097
  487MOL0     C64173   3.345   0.228   5.417 -0.0265 -0.0484  0.8204
  487MOL0     C64174   3.403   0.136   5.520 -0.2050  0.6536 -0.9901
  487MOL0     C64175   3.522   0.053   5.467  0.1323 -0.1671  0.1457
  487MOL0     O64176   3.566  -0.044   5.570 -0.3683 -0.1473 -0.5008
  487MOL0     C64177   3.692  -0.088   5.559 -0.5787  0.5767 -0.7511
  487MOL0     C64178   3.731  -0.214   5.614  0.0216 -0.0694 -0.2240
  487MOL0     C64179   3.865  -0.251   5.626  0.3239 -0.2112 -0.1678
  487MOL0     C64180   3.965  -0.156   5.592  0.3242 -0.2038  0.5363
  487MOL0     C64181   4.105  -0.196   5.599  0.1260 -0.1460 -0.1029
  487MOL0     O64182   4.131  -0.320   5.650  0.1035  0.1488 -0.3327
  487MOL0     C64183   4.235  -0.406   5.599  0.2428 -0.5090  0.6265
  487MOL0     C64184   4.357  -0.349   5.559 -0.1200  0.5889  0.3678
  487MOL0     C64185   4.466  -0.432   5.514 -0.1920 -0.2083  0.0054
  487MOL0     C64186   4.434  -0.562   5.492 -0.6672  0.0122 -0.6362
  487MOL0     O64187   4.529  -0.643   5.438 -0.0747 -0.0398  0.4671
  487MOL0     C64188   4.643  -0.658   5.521  0.4338 -0.4105  0.0148
  487MOL0     C64189   4.773  -0.638   5.437  0.6700  0.7651 -0.1013
  487MOL0     C64190   4.886  -0.636   5.544  0.3491  0.5862  0.1441
  487MOL0     C64191   5.018  -0.582   5.481 -0.3895 -0.3497  0.5430
  487MOL0     C64192   5.130  -0.609   5.578  0.1457 -1.3054  1.0885
  487MOL0     C64193   5.261  -0.567   5.515  0.0757  1.5330  0.7711
  487MOL0     C64194   5.314  -0.672   5.416 -0.0653  2.0112 -0.5984
  487MOL0     C64195   5.447  -0.620   5.354  0.3773  1.1234  0.8322
  487MOL0    Cl64196   5.434  -0.450   5.301 -0.4710 -0.5655 -0.0442
  487MOL0     C64197   4.311  -0.620   5.526 -0.0971  0.5697 -0.6961
  487MOL0     C64198   4.207  -0.542   5.577  0.1295 -0.0259 -0.2076
  487MOL0     O64199   4.190  -0.114   5.565 -0.1443 -0.0488  0.3623
  487MOL0     C64200   3.930  -0.028   5.537  0.2434  0.5024  0.5424
  487MOL0     C64201   3.795  -0.002   5.518 -0.2173  0.0028 -0.2931
  487MOL0     N64202   3.106   0.517   5.396  0.0843 -1.2628 -0.6221
  487MOL0     N64203   2.984   0.533   5.348 -0.1980  0.9722 -0.3023
  487MOL0     C64204   3.173   0.501   5.028  0.1519  0.3387 -0.1791
  487MOL0     C64205   3.308   0.502   5.074 -0.9660  0.1471  0.4351
  487MOL0     C64206   3.715   0.374   5.176 -0.0515 -0.4924 -0.8615
  487MOL0     C64207   3.750   0.241   5.187 -0.1233 -0.0900  0.1265
  487MOL0     C64208   3.873   0.207   5.240 -0.2610  0.2680 -0.3985
  487MOL0     C64209   3.967   0.300   5.286  0.3271 -0.5952  0.3396
  487MOL0     O64210   4.089   0.252   5.329 -0.0592  0.1180 -0.0961
  487MOL0     C64211   4.192   0.350   5.352  0.2345 -0.3131  0.7676
  487MOL0     C64212   4.306   0.294   5.432 -0.1471 -0.4035 -0.2206
  487MOL0     C64213   4.370   0.175   5.355 -1.0142  1.6844  0.2841
  487MOL0     C64214   4.468   0.086   5.440 -0.4463 -0.7010  0.0741
  487MOL0     C64215   4.591   0.158   5.476  0.1612 -0.2276  0.0683
  487MOL0     C64216   4.679   0.235   5.502  0.9683  0.4007  0.0458
  487MOL0     C64217   3.928   0.435   5.269  0.1672 -0.0275 -0.3830
  487MOL0     C64218   3.806   0.473   5.219  0.5511 -0.1864 -0.1303
  487MOL0     H64219   3.456   0.572   4.778 -1.0135 -0.1093 -0.6033
  487MOL0     H64220   3.232   0.559   4.705 -2.4507  1.5441  1.0030
  487MOL0     H64221   3.007   0.439   4.660  0.8449 -2.6834  1.9793
  487MOL0     H64222   3.022   0.607   4.682  1.3559 -1.4348 -0.6951
  487MOL0     H64223   2.792   0.504   4.609  0.8371 -0.0611 -0.7694
  487MOL0     H64224   2.799   0.643   4.709  0.1578  0.0062  1.9760
  487MOL0     H64225   2.622   0.489   4.793  0.3029  0.2544 -1.5537
  487MOL0     H64226   2.747   0.534   4.917  3.1343  0.8304  0.2472
  487MOL0     H64227   2.750   0.274   4.742 -0.4690 -0.8873 -0.8053
  487MOL0     H64228   2.851   0.319   4.880 -1.0423 -0.4935  0.5372
  487MOL0     H64229   2.687   0.165   4.959  0.2035  0.8574  4.3800
  487MOL0     H64230   2.557   0.285   4.904  1.0108  2.0893 -1.9752
  487MOL0     H64231   2.617   0.271   5.162  2.1858  0.5041  2.4381
  487MOL0     H64232   2.615   0.435   5.077 -1.4703 -0.8166 -1.2515
  487MOL0     H64233   2.875   0.257   5.132  0.0691 -1.0900  0.7316
  487MOL0     H64234   2.866   0.425   5.089  1.2979 -0.7391 -1.2983
  487MOL0     H64235   2.751   0.324   5.344 -0.6112  1.6580  2.1961
  487MOL0     H64236   2.771   0.497   5.297  3.6821  0.9555  3.0604
  487MOL0     H64237   3.023   0.204   5.420  1.3460  0.0853  3.8789
  487MOL0     H64238   3.250   0.304   5.586 -0.6753 -0.3546 -0.2210
  487MOL0     H64239   3.343   0.431   5.501  0.4148  1.0977 -2.8656
  487MOL0     H64240   3.423   0.273   5.355 -0.1301 -1.4346 -0.3696
  487MOL0     H64241   3.269   0.179   5.355 -1.0320  1.5255  0.7576
  487MOL0     H64242   3.440   0.197   5.603 -0.7897  0.8323 -0.8551
  487MOL0     H64243   3.323   0.069   5.555  0.8447 -1.0164 -1.6405
  487MOL0     H64244   3.597   0.128   5.440  1.7798 -0.4442  3.4068
  487MOL0     H64245   3.490  -0.006   5.381 -0.3298 -1.6394  1.2713
  487MOL0     H64246   3.650  -0.280   5.642  1.3091 -1.6236 -0.0285
  487MOL0     H64247   3.883  -0.346   5.676 -3.1743  1.0301  4.0429
  487MOL0     H64248   4.385  -0.245   5.574  3.1559 -0.1845  0.5035
  487MOL0     H64249   4.563  -0.399   5.479 -0.0094 -1.5443 -0.8070
  487MOL0     H64250   4.638  -0.762   5.553 -4.4397 -0.4080  0.1167
  487MOL0     H64251   4.647  -0.594   5.610  2.2294  0.5378 -0.7080
  487MOL0     H64252   4.773  -0.541   5.387  1.8071 -0.7384 -3.2742
  487MOL0     H64253   4.788  -0.709   5.355  4.4278 -0.8315  1.7188
  487MOL0     H64254   4.901  -0.734   5.589 -3.9165 -0.0246  0.6152
  487MOL0     H64255   4.855  -0.569   5.625  0.9702 -0.9309  1.6803
  487MOL0     H64256   5.038  -0.614   5.379 -1.2153  0.9131 -0.0420
  487MOL0     H64257   4.996  -0.475   5.485  1.6404  0.0819  1.3143
  487MOL0     H64258   5.127  -0.712   5.614 -1.3954 -1.4019  0.7354
  487MOL0     H64259   5.111  -0.541   5.662 -3.7009  2.1229 -2.1718
  487MOL0     H64260   5.336  -0.555   5.594 -0.6425 -1.7173  2.1285
  487MOL0     H64261   5.246  -0.475   5.457 -1.4760  0.6458 -0.3306
  487MOL0     H64262   5.324  -0.771   5.460  1.6785  2.2700 -0.3685
  487MOL0     H64263   5.252  -0.691   5.328  2.0854 -2.6398 -1.4060
  487MOL0     H64264   5.470  -0.679   5.264 -1.6750 -0.4532  1.2496
  487MOL0     H64265   5.536  -0.621   5.416  1.0186 -0.0625 -0.0441
  487MOL0     H64266   4.298  -0.726   5.509 -1.3153  0.4643  0.6856
  487MOL0     H64267   4.107  -0.582   5.593 -0.1211  0.4613 -0.5367
  487MOL0     H64268   4.008   0.045   5.516  0.4404  0.4579  1.0952
  487MOL0     H64269   3.774   0.100   5.489  0.0383  0.3758  0.7938
  487MOL0     H64270   3.096   0.472   5.099 -0.1763  0.3742 -0.5181
  487MOL0     H64271   3.314   0.482   5.180 -0.2775  1.4539  0.6642
  487MOL0     H64272   3.690   0.158   5.151 -1.3104  0.3100  1.1040
  487MOL0     H64273   3.902   0.103   5.253  1.0738  0.8342  1.4330
  487MOL0     H64274   4.148   0.424   5.420 -0.0365 -1.8976  2.4143
  487MOL0     H64275   4.223   0.395   5.258 -0.8647 -3.3755 -1.2289
  487MOL0     H64276   4.377   0.375   5.449 -1.2584  1.0168 -1.9262
  487MOL0     H64277   4.271   0.247   5.525  1.5907 -0.1965  0.5653
  487MOL0     H64278   4.433   0.209   5.272 -1.0789  1.2685  0.0565
  487MOL0     H64279   4.294   0.116   5.301  1.5041 -0.0051 -1.6838
  487MOL0     H64280   4.417   0.064   5.535  0.3903  2.9313  1.5157
  487MOL0     H64281   4.503  -0.000   5.383  0.4918  1.6617 -3.1701
  487MOL0     H64282   4.756   0.301   5.535 -2.3305  4.2086  0.8464
  487MOL0     H64283   3.998   0.514   5.293  1.0872 -0.1510 -2.4441
  487MOL0     H64284   3.775   0.573   5.192  1.1125 -0.2580 -1.0796
  488MOL0     O64285   3.377   3.763   4.244 -0.5541  0.5891  0.4935
  488MOL0     C64286   3.470   3.798   4.316 -0.5602 -0.2579 -0.1475
  488MOL0     O64287   3.475   3.904   4.397  0.1172  0.1329 -0.7512
  488MOL0     C64288   3.376   3.999   4.396 -0.3931  0.8983  0.2299
  488MOL0     C64289   3.312   4.032   4.517  0.3470 -0.2198 -0.0441
  488MOL0     C64290   3.190   4.105   4.516  0.2653  0.2591 -0.6766
  488MOL0     C64291   3.158   4.179   4.401 -0.0765 -0.6793  0.5919
  488MOL0     O64292   3.037   4.250   4.381 -0.8770  0.2779 -0.1572
  488MOL0     C64293   2.964   4.299   4.490  0.3268 -1.2883  0.0750
  488MOL0     C64294   2.918   4.444   4.451  1.0619  0.8013  0.8277
  488MOL0     C64295   2.806   4.473   4.559 -0.2884  0.1623 -0.9409
  488MOL0     C64296   2.784   4.623   4.555 -0.6656  0.8831  0.1227
  488MOL0     C64297   2.707   4.682   4.677 -0.2952 -0.4644 -0.5085
  488MOL0     C64298   2.667   4.830   4.676  0.5584 -0.1988  0.1213
  488MOL0     C64299   2.568   4.846   4.789  0.2045 -0.9076  0.2094
  488MOL0     C64300   2.425   4.862   4.728  0.3867  0.8187  0.4236
  488MOL0     N64301   2.312   4.846   4.819  0.2113 -0.7720 -0.4438
  488MOL0     C64302   2.298   4.929   4.931 -0.3339  0.2026 -0.5824
  488MOL0     C64303   2.192   4.873   4.995 -0.7996  0.0593 -0.2016
  488MOL0     C64304   2.143   4.920   5.128  0.0597 -0.1242 -0.6745
  488MOL0     C64305   2.012   4.858   5.171 -0.0856  0.1097  0.5967
  488MOL0     C64306   1.902   4.936   5.107  0.3824 -0.8945 -0.3166
  488MOL0     C64307   1.766   4.899   5.164 -0.0169 -0.1039 -0.4991
  488MOL0     O64308   1.657   4.972   5.109 -0.4941 -0.2766  0.5685
  488MOL0     C64309   1.532   4.956   5.171 -0.2149 -0.4885  1.2943
  488MOL0     C64310   1.510   4.882   5.281 -0.6923 -0.2862 -0.2732
  488MOL0     C64311   1.381   4.856   5.327 -0.1745 -0.3258 -0.8967
  488MOL0     C64312   1.266   4.928   5.274 -0.0785 -0.5139 -0.2916
  488MOL0     C64313   1.132   4.909   5.335  0.4616 -0.1794 -0.7064
  488MOL0     O64314   1.108   4.796   5.412  0.6911 -0.1620  0.0427
  488MOL0     C64315   0.983   4.798   5.466 -0.0101 -0.2461 -0.1779
  488MOL0     C64316   0.875   4.737   5.404 -0.2293 -0.6406  0.4932
  488MOL0     C64317   0.753   4.733   5.469  0.4008  1.2877 -0.5761
  488MOL0     C64318   0.723   4.798   5.589 -0.7390  0.0551  0.6699
  488MOL0     O64319   0.597   4.809   5.649 -0.1705 -0.1422  0.3827
  488MOL0     C64320   0.478   4.762   5.588 -0.3384  0.4318 -0.1909
  488MOL0     C64321   0.369   4.787   5.698  0.2468  0.3513 -0.5463
  488MOL0     C64322   0.235   4.714   5.662 -0.0293 -0.4999  0.3984
  488MOL0     C64323   0.133   4.737   5.772 -0.3841  0.3448  0.1655
  488MOL0     C64324   0.003   4.666   5.741  0.2777 -0.6362 -1.0430
  488MOL0     C64325  -0.105   4.721   5.833 -0.3409  0.4685 -0.1114
  488MOL0     C64326  -0.205   4.812   5.761 -0.1823  0.1531 -0.6453
  488MOL0     C64327  -0.334   4.808   5.841  1.1312 -0.7074  0.4934
  488MOL0    Cl64328  -0.321   4.907   5.989 -0.1355  0.0660  0.1502
  488MOL0     C64329   0.833   4.871   5.643  0.5911 -0.5128  0.4746
  488MOL0     C64330   0.967   4.865   5.588  0.8610 -0.5480 -0.0659
  488MOL0     O64331   1.053   4.997   5.313  0.8505  0.6012 -0.7621
  488MOL0     C64332   1.293   5.003   5.162  0.6822 -0.8331 -0.2535
  488MOL0     C64333   1.422   5.014   5.106 -0.1835  0.8894 -0.0847
  488MOL0     N64334   2.147   4.758   4.923 -0.3699  0.3700 -0.5116
  488MOL0     N64335   2.224   4.744   4.820 -0.4510  0.0159  0.2262
  488MOL0     C64336   3.221   4.143   4.279 -0.8032 -0.0166 -0.2011
  488MOL0     C64337   3.328   4.057   4.281 -0.4109  0.3885 -0.1063
  488MOL0     C64338   3.601   3.734   4.285  0.2846 -0.6581  0.4289
  488MOL0     C64339   3.618   3.628   4.196 -0.2309  0.0419  0.2211
  488MOL0     C64340   3.740   3.574   4.173 -0.2581 -0.0286  0.1627
  488MOL0     C64341   3.857   3.621   4.236  0.1752 -0.4840 -0.5786
  488MOL0     O64342   3.980   3.577   4.189  0.2197  0.0627  0.8345
  488MOL0     C64343   4.029   3.448   4.239 -0.0627  0.2557  0.2752
  488MOL0     C64344   4.053   3.464   4.388 -0.7971 -0.2535  0.6674
  488MOL0     C64345   4.096   3.330   4.452 -0.5509 -0.6669 -0.0432
  488MOL0     C64346   4.107   3.329   4.605  0.2044  0.1308  0.2753
  488MOL0     C64347   4.148   3.185   4.631 -0.2439 -0.7845  0.0324
  488MOL0     C64348   4.180   3.076   4.654  0.6519  0.7132  0.2478
  488MOL0     C64349   3.843   3.719   4.335  0.3090  0.5346  0.2130
  488MOL0     C64350   3.713   3.768   4.358  0.2731  1.1148  0.4276
  488MOL0     H64351   3.333   3.995   4.617 -0.9822 -0.0945  0.3094
  488MOL0     H64352   3.127   4.100   4.604  1.9207 -0.2186  0.5335
  488MOL0     H64353   3.034   4.311   4.573 -0.0249  1.2537  0.0926
  488MOL0     H64354   2.872   4.242   4.506  0.0931 -1.8597 -2.7860
  488MOL0     H64355   2.875   4.451   4.350  1.8798 -1.6150  0.2424
  488MOL0     H64356   3.003   4.513   4.448 -0.2165  2.4068 -1.2690
  488MOL0     H64357   2.837   4.448   4.661 -0.1645 -1.0675 -1.2688
  488MOL0     H64358   2.713   4.417   4.549 -0.7227  0.2841  1.6873
  488MOL0     H64359   2.884   4.669   4.561  1.5109 -3.4398  0.5778
  488MOL0     H64360   2.738   4.651   4.460 -1.1448 -0.2381  0.0136
  488MOL0     H64361   2.769   4.663   4.765  2.6935  2.9075 -1.6311
  488MOL0     H64362   2.609   4.633   4.687 -1.7039  1.9357 -1.5307
  488MOL0     H64363   2.624   4.860   4.580  0.7443  1.4821  0.5398
  488MOL0     H64364   2.753   4.894   4.699  1.5948 -1.6008  0.3131
  488MOL0     H64365   2.570   4.777   4.874  2.0814  0.2813  1.1853
  488MOL0     H64366   2.592   4.944   4.832  0.4537 -0.9236  0.1056
  488MOL0     H64367   2.418   4.770   4.669  3.7031 -1.3726  2.9823
  488MOL0     H64368   2.418   4.951   4.666  2.6282  1.2631  0.7251
  488MOL0     H64369   2.355   5.018   4.958 -1.8411  0.7051  1.1422
  488MOL0     H64370   2.127   5.027   5.140 -0.2658 -0.4377  3.0440
  488MOL0     H64371   2.220   4.891   5.201 -0.1742  0.1706 -0.3056
  488MOL0     H64372   2.023   4.867   5.280  1.9434  2.0810  0.3069
  488MOL0     H64373   2.006   4.755   5.134  0.2982  0.1346  0.4636
  488MOL0     H64374   1.915   5.045   5.108 -3.0209 -0.2583 -3.5774
  488MOL0     H64375   1.897   4.915   5.000  1.4694 -2.7420 -0.0489
  488MOL0     H64376   1.773   4.920   5.271 -0.6773  2.0108 -0.8148
  488MOL0     H64377   1.762   4.790   5.156  0.2756 -0.2424  0.9171
  488MOL0     H64378   1.588   4.836   5.341  0.5070  1.3372 -0.5160
  488MOL0     H64379   1.359   4.782   5.403 -0.1857 -0.1736 -0.7504
  488MOL0     H64380   0.890   4.684   5.310 -1.1594  1.4359 -0.9139
  488MOL0     H64381   0.673   4.681   5.418 -0.2379  0.6929  0.9582
  488MOL0     H64382   0.480   4.655   5.564 -1.2031  0.5426 -0.8055
  488MOL0     H64383   0.452   4.820   5.500 -0.1890 -0.5365 -0.8984
  488MOL0     H64384   0.348   4.894   5.714 -0.3450  0.2015 -0.2927
  488MOL0     H64385   0.411   4.750   5.792  0.9612 -1.3665 -1.4952
  488MOL0     H64386   0.240   4.606   5.645 -0.4606 -0.7838  1.9156
  488MOL0     H64387   0.201   4.772   5.576  1.1754 -0.7522 -0.2735
  488MOL0     H64388   0.172   4.703   5.869  0.1857  0.7627  0.0908
  488MOL0     H64389   0.122   4.846   5.777 -1.0072  0.2349  1.6559
  488MOL0     H64390  -0.001   4.559   5.766 -1.3370 -0.0922  1.4568
  488MOL0     H64391  -0.027   4.678   5.637 -1.0723  4.3975 -0.3241
  488MOL0     H64392  -0.072   4.775   5.922 -2.8810 -0.2637  1.3980
  488MOL0     H64393  -0.157   4.639   5.885  0.1306 -0.3135 -0.8425
  488MOL0     H64394  -0.170   4.915   5.768  0.2490 -0.1100  3.4968
  488MOL0     H64395  -0.202   4.783   5.656  1.8724 -1.9119 -0.0948
  488MOL0     H64396  -0.369   4.706   5.861  1.1377 -0.3939  2.2314
  488MOL0     H64397  -0.418   4.845   5.782  1.6391 -0.7038 -0.2456
  488MOL0     H64398   0.809   4.916   5.739  0.7006 -1.8995  1.1772
  488MOL0     H64399   1.057   4.911   5.627  1.5635  1.1386 -3.3033
  488MOL0     H64400   1.210   5.063   5.127  0.8325  0.3375  1.2922
  488MOL0     H64401   1.439   5.066   5.012 -0.1238 -1.8805 -1.7118
  488MOL0     H64402   3.197   4.188   4.184  0.3249 -1.8814 -1.4565
  488MOL0     H64403   3.360   4.041   4.178 -1.4225  3.6792 -1.0634
  488MOL0     H64404   3.535   3.575   4.150 -1.1093 -1.5464  3.3564
  488MOL0     H64405   3.747   3.487   4.110  2.4414  0.9869 -1.1040
  488MOL0     H64406   4.119   3.417   4.186  2.3316  0.0004  4.1169
  488MOL0     H64407   3.953   3.375   4.210  0.0409  0.5200 -0.7033
  488MOL0     H64408   4.135   3.536   4.404  0.4573 -1.6286  0.6459
  488MOL0     H64409   3.970   3.517   4.434  0.2269  3.9164 -1.7553
  488MOL0     H64410   4.189   3.300   4.402 -0.1047  0.1746  0.2581
  488MOL0     H64411   4.020   3.259   4.419 -0.1600 -1.0596 -0.1082
  488MOL0     H64412   4.169   3.406   4.652  2.0503 -1.2880  0.2361
  488MOL0     H64413   4.005   3.345   4.643 -0.8318 -0.8306 -1.9444
  488MOL0     H64414   4.222   2.980   4.677  0.0824  0.0639 -1.3015
  488MOL0     H64415   3.932   3.767   4.374  1.2786 -0.4140 -0.7677
  488MOL0     H64416   3.697   3.828   4.448 -0.4423  1.6189 -0.0210
  489MOL0     O64417   3.284   8.491   8.480 -0.1876 -0.3738 -0.1591
  489MOL0     C64418   3.318   8.375   8.481  0.3621  0.1531  0.9801
  489MOL0     O64419   3.238   8.270   8.493  0.1121  0.1486  0.2040
  489MOL0     C64420   3.105   8.282   8.533 -0.4259 -0.0563 -0.7786
  489MOL0     C64421   3.047   8.182   8.612  0.0568 -0.6038 -0.0140
  489MOL0     C64422   2.910   8.183   8.643  0.1420  0.2958  0.1615
  489MOL0     C64423   2.829   8.285   8.583  0.4925  0.8137  0.1438
  489MOL0     O64424   2.695   8.296   8.609 -0.2524  0.2292 -0.4501
  489MOL0     C64425   2.619   8.169   8.609 -0.0672  0.5151 -0.6348
  489MOL0     C64426   2.470   8.178   8.625  0.0279  0.5655  0.5965
  489MOL0     C64427   2.421   8.244   8.496 -0.1515  0.3044 -0.2558
  489MOL0     C64428   2.269   8.257   8.510 -1.1226  1.0757 -0.7371
  489MOL0     C64429   2.198   8.283   8.380  0.9295 -0.2523 -0.4074
  489MOL0     C64430   2.043   8.321   8.391 -0.1717 -0.7623  0.4396
  489MOL0     C64431   2.029   8.466   8.448 -0.8296  0.3459 -0.3946
  489MOL0     C64432   2.096   8.582   8.375  0.0673  0.2568  1.0122
  489MOL0     N64433   2.052   8.714   8.410 -0.6329  1.7654 -0.0276
  489MOL0     C64434   2.052   8.750   8.542  0.1679  0.4978  0.1420
  489MOL0     C64435   2.014   8.881   8.539  0.0923  0.1640 -0.6533
  489MOL0     C64436   2.010   8.957   8.670 -0.5039  0.4329 -0.1425
  489MOL0     C64437   1.933   9.091   8.658 -0.3485 -0.2767 -0.2673
  489MOL0     C64438   1.786   9.065   8.630  0.6065  0.5290  0.9079
  489MOL0     C64439   1.691   9.185   8.655 -0.2770  0.3404 -0.5387
  489MOL0     O64440   1.696   9.194   8.797  0.0805 -0.6438 -0.2539
  489MOL0     C64441   1.581   9.230   8.875 -0.6408  0.6823  0.5177
  489MOL0     C64442   1.595   9.318   8.985 -0.8604  0.5541  0.8755
  489MOL0     C64443   1.483   9.362   9.049 -0.1677  1.4187  0.5106
  489MOL0     C64444   1.358   9.313   9.012  0.5605  0.3960  0.5696
  489MOL0     C64445   1.236   9.342   9.090 -0.1714 -0.1632 -0.0159
  489MOL0     O64446   1.236   9.452   9.172  0.3293  0.1672  0.6733
  489MOL0     C64447   1.122   9.490   9.242  0.4950  0.1596 -0.3303
  489MOL0     C64448   1.151   9.583   9.339  0.7280  0.5015  0.3756
  489MOL0     C64449   1.046   9.645   9.413 -0.0585  0.0876  0.1945
  489MOL0     C64450   0.913   9.607   9.400 -0.3821 -0.0385  0.5027
  489MOL0     O64451   0.818   9.660   9.476  0.1133  0.0651 -0.5467
  489MOL0     C64452   0.817   9.797   9.512 -0.8960  0.7796  0.1360
  489MOL0     C64453   0.685   9.830   9.583 -1.1398 -0.1903  0.0539
  489MOL0     C64454   0.561   9.835   9.497 -0.5039  0.6361  0.1947
  489MOL0     C64455   0.432   9.870   9.573  0.8265 -0.2968  0.4378
  489MOL0     C64456   0.327   9.916   9.471 -0.2987  0.5677  0.1069
  489MOL0     C64457   0.185   9.931   9.531 -0.7399 -0.3752 -0.1039
  489MOL0     C64458   0.076   9.956   9.424 -0.9073 -0.2457 -0.0556
  489MOL0     C64459  -0.058   9.890   9.469  0.1106  0.5279  0.2135
  489MOL0    Cl64460  -0.195   9.926   9.366  0.0780  0.1947  0.4704
  489MOL0     C64461   0.881   9.514   9.294 -0.0298 -0.9361 -0.2292
  489MOL0     C64462   0.984   9.457   9.223 -0.3576  0.3390  0.6670
  489MOL0     O64463   1.153   9.251   9.096 -0.2086 -0.6929 -0.8181
  489MOL0     C64464   1.344   9.228   8.899 -0.5391  1.5381 -0.6035
  489MOL0     C64465   1.456   9.183   8.830 -0.0744  0.4382 -0.4352
  489MOL0     N64466   1.991   8.918   8.411  0.6308 -0.3701 -0.8084
  489MOL0     N64467   2.021   8.819   8.335  0.1139  0.0853  1.2118
  489MOL0     C64468   2.888   8.379   8.498 -0.3871 -0.0946  0.7954
  489MOL0     C64469   3.025   8.377   8.470 -0.2625 -0.0776 -0.1074
  489MOL0     C64470   3.458   8.356   8.456  0.4933 -0.4149  0.2766
  489MOL0     C64471   3.539   8.456   8.394 -0.1889  0.3857 -0.0033
  489MOL0     C64472   3.675   8.438   8.393  0.1573 -0.9793  0.1587
  489MOL0     C64473   3.738   8.328   8.439 -0.4863  0.3534 -0.4754
  489MOL0     O64474   3.878   8.320   8.426  0.3767 -0.5238  0.3796
  489MOL0     C64475   3.944   8.217   8.492  0.1328  0.3151 -0.1597
  489MOL0     C64476   4.086   8.225   8.442 -0.9566  0.1851  0.2230
  489MOL0     C64477   4.164   8.337   8.515  0.1037  0.5009 -0.5497
  489MOL0     C64478   4.284   8.389   8.423  0.3223  0.2799 -0.8227
  489MOL0     C64479   4.390   8.283   8.398 -0.4657 -0.1986  0.2707
  489MOL0     C64480   4.468   8.196   8.369 -0.3178 -0.1504  0.3511
  489MOL0     C64481   3.659   8.233   8.512  0.0808  0.5827 -0.3991
  489MOL0     C64482   3.516   8.240   8.524  0.3569  0.7987 -0.3588
  489MOL0     H64483   3.109   8.107   8.660  0.9006  0.5459  0.7503
  489MOL0     H64484   2.862   8.105   8.701  0.1394 -0.4948 -0.8599
  489MOL0     H64485   2.651   8.104   8.691 -2.6718 -0.6874 -0.4784
  489MOL0     H64486   2.646   8.113   8.518 -0.5718  0.1590 -0.5733
  489MOL0     H64487   2.459   8.242   8.714  1.0953  0.6673  0.6727
  489MOL0     H64488   2.429   8.078   8.641  2.8148 -0.7794  0.0281
  489MOL0     H64489   2.454   8.186   8.409 -0.3366 -0.7809  0.3813
  489MOL0     H64490   2.459   8.346   8.480 -1.6037  1.4793  2.9833
  489MOL0     H64491   2.227   8.165   8.551 -1.8213  0.9364 -1.7245
  489MOL0     H64492   2.250   8.335   8.583 -0.4376 -2.0737  3.1476
  489MOL0     H64493   2.207   8.198   8.312  3.2625  1.5990 -2.5999
  489MOL0     H64494   2.248   8.365   8.328 -2.3405  2.6052  0.5665
  489MOL0     H64495   1.987   8.244   8.446 -3.7949  0.9309 -0.6374
  489MOL0     H64496   1.988   8.324   8.297 -1.6233  1.2398  1.2822
  489MOL0     H64497   1.925   8.499   8.457 -1.4046 -1.1000 -1.3426
  489MOL0     H64498   2.063   8.471   8.552 -1.9959 -1.5461  0.1405
  489MOL0     H64499   2.097   8.557   8.268  3.1181  0.3027  0.9656
  489MOL0     H64500   2.201   8.581   8.402  0.5514 -0.5894 -0.7413
  489MOL0     H64501   2.066   8.674   8.619 -1.7937 -1.6284 -1.4418
  489MOL0     H64502   2.115   8.973   8.695 -0.0693 -0.0757 -1.5843
  489MOL0     H64503   1.951   8.895   8.739 -1.6937 -0.2793 -1.7358
  489MOL0     H64504   1.970   9.150   8.574  0.0553 -0.7064 -0.3931
  489MOL0     H64505   1.939   9.156   8.746 -3.3377 -1.8063  1.2275
  489MOL0     H64506   1.772   9.034   8.526  0.9690  0.5121  0.8629
  489MOL0     H64507   1.751   8.982   8.692  0.7203  1.0326  1.6653
  489MOL0     H64508   1.586   9.184   8.624  0.1352 -0.5085 -2.0131
  489MOL0     H64509   1.732   9.275   8.609  3.0740 -0.6128  0.3119
  489MOL0     H64510   1.695   9.347   9.014 -1.6951  0.1527  4.8020
  489MOL0     H64511   1.487   9.416   9.144 -0.8355 -0.0896  1.4361
  489MOL0     H64512   1.247   9.632   9.350  0.1049  1.5182  1.4625
  489MOL0     H64513   1.084   9.724   9.476  4.8502 -2.4853  0.9786
  489MOL0     H64514   0.835   9.854   9.420 -0.5744 -1.8340 -1.5159
  489MOL0     H64515   0.905   9.814   9.575 -0.4662 -1.8085  0.3238
  489MOL0     H64516   0.704   9.936   9.603  0.5271 -0.7271  1.4995
  489MOL0     H64517   0.674   9.771   9.675  1.7775 -0.1919  0.5079
  489MOL0     H64518   0.542   9.740   9.447 -0.1333  1.8718 -2.4882
  489MOL0     H64519   0.569   9.909   9.416 -0.1627 -1.6702 -2.0030
  489MOL0     H64520   0.395   9.782   9.628  0.1322 -0.2725  0.0161
  489MOL0     H64521   0.454   9.944   9.651 -0.9206 -0.2476  0.9152
  489MOL0     H64522   0.330   9.843   9.389  1.4705 -0.2875  0.8903
  489MOL0     H64523   0.358  10.013   9.432 -1.5806  0.6415 -0.7939
  489MOL0     H64524   0.185  10.010   9.606  0.3855 -2.0823  1.7986
  489MOL0     H64525   0.168   9.840   9.589 -0.0577  0.1000  0.8767
  489MOL0     H64526   0.055  10.059   9.394  1.9457 -0.0160 -1.7193
  489MOL0     H64527   0.107   9.900   9.335 -2.7357  0.1489 -0.9755
  489MOL0     H64528  -0.090   9.919   9.569 -2.0633 -0.2813 -0.1854
  489MOL0     H64529  -0.044   9.782   9.473  0.9382  0.6585  1.1977
  489MOL0     H64530   0.776   9.505   9.270  0.5079 -2.3372 -2.3004
  489MOL0     H64531   0.954   9.379   9.153  0.2755 -0.6512  1.4614
  489MOL0     H64532   1.247   9.200   8.861 -0.7406  1.6086 -0.1430
  489MOL0     H64533   1.435   9.113   8.749  1.4668 -0.5440 -0.0167
  489MOL0     H64534   2.827   8.450   8.442  0.1859  0.9126  1.4191
  489MOL0     H64535   3.066   8.450   8.400 -3.4989  1.4239 -0.6468
  489MOL0     H64536   3.488   8.547   8.363  2.2357  1.9090  0.1995
  489MOL0     H64537   3.733   8.512   8.338 -0.0108 -1.2122 -0.3437
  489MOL0     H64538   3.900   8.119   8.469 -0.8002 -0.4264  3.8906
  489MOL0     H64539   3.935   8.227   8.601 -2.2091  2.4969 -0.4657
  489MOL0     H64540   4.134   8.134   8.480 -1.1351  0.2462  0.5924
  489MOL0     H64541   4.081   8.222   8.332 -1.3139  1.0797  0.2091
  489MOL0     H64542   4.200   8.303   8.612  0.1750  0.6607 -0.5198
  489MOL0     H64543   4.096   8.422   8.529 -0.0962 -0.0278  2.4941
  489MOL0     H64544   4.247   8.416   8.324 -0.4534 -3.9641 -1.8919
  489MOL0     H64545   4.339   8.474   8.465  1.9425 -0.9391 -0.3393
  489MOL0     H64546   4.532   8.115   8.338 -2.0517 -1.2090 -0.6386
  489MOL0     H64547   3.715   8.157   8.566  0.1163  1.1146  0.3347
  489MOL0     H64548   3.455   8.164   8.573  0.2717  0.3401 -1.1559
  490MOL0     O64549   9.567   7.334   8.246 -0.0818  0.3448  0.4720
  490MOL0     C64550   9.671   7.401   8.230  0.3984 -0.1116 -0.0147
  490MOL0     O64551   9.678   7.541   8.234  0.5775 -0.2778 -0.3016
  490MOL0     C64552   9.559   7.607   8.248  0.9380  0.5340 -0.2577
  490MOL0     C64553   9.520   7.688   8.359 -0.3942 -0.4828  0.0308
  490MOL0     C64554   9.403   7.765   8.359  0.8217 -0.2813  0.8497
  490MOL0     C64555   9.326   7.776   8.244 -0.1859  0.7283 -0.4101
  490MOL0     O64556   9.224   7.871   8.232  0.3402  0.0872  0.1266
  490MOL0     C64557   9.201   7.964   8.342 -0.0631  0.3421 -0.1470
  490MOL0     C64558   9.101   8.073   8.311  1.2174 -0.1570  0.4211
  490MOL0     C64559   8.973   8.019   8.240 -0.1031  0.4198  0.7760
  490MOL0     C64560   8.874   8.134   8.210 -0.6155 -0.1229 -0.4806
  490MOL0     C64561   8.744   8.074   8.149 -0.1757 -0.9691  0.1545
  490MOL0     C64562   8.635   8.175   8.135 -0.5922 -0.4193  0.0847
  490MOL0     C64563   8.516   8.118   8.049  0.3063  0.4739 -0.0088
  490MOL0     C64564   8.419   8.031   8.145 -0.3122 -0.6361  0.2961
  490MOL0     N64565   8.304   7.988   8.073 -0.0382  0.0653 -1.1064
  490MOL0     C64566   8.217   8.061   7.999  0.5664 -0.0798 -0.0673
  490MOL0     C64567   8.146   7.970   7.926 -0.6751 -0.2245 -0.5408
  490MOL0     C64568   8.031   7.992   7.831  0.4545  0.5622 -0.0260
  490MOL0     C64569   7.890   7.996   7.907 -0.6198  0.0816  0.4191
  490MOL0     C64570   7.782   8.042   7.812 -0.3429  1.4116 -0.5072
  490MOL0     C64571   7.644   8.071   7.879  0.8876 -0.1703  0.1046
  490MOL0     O64572   7.539   8.045   7.782  0.4539  0.4016 -0.3663
  490MOL0     C64573   7.406   8.075   7.805 -0.6572  0.7627 -0.6231
  490MOL0     C64574   7.307   8.053   7.707 -0.0129 -0.0568  0.1210
  490MOL0     C64575   7.170   8.074   7.744 -0.2267  0.0665  0.7141
  490MOL0     C64576   7.130   8.113   7.869 -0.4952  1.1063 -0.0004
  490MOL0     C64577   6.994   8.118   7.911  0.2371  0.0945 -0.4470
  490MOL0     O64578   6.894   8.086   7.816  0.5828 -0.2609 -0.0668
  490MOL0     C64579   6.756   8.097   7.842  0.7899 -0.1809 -0.9500
  490MOL0     C64580   6.667   8.109   7.726  0.1150  0.2419 -0.1596
  490MOL0     C64581   6.532   8.120   7.744 -0.3772 -0.2371 -0.4888
  490MOL0     C64582   6.468   8.101   7.866 -0.8709 -0.0799  0.7849
  490MOL0     O64583   6.332   8.101   7.869 -0.2864 -0.0968 -0.0674
  490MOL0     C64584   6.278   8.027   7.979 -0.1125 -0.0476 -0.2405
  490MOL0     C64585   6.124   8.002   7.952 -0.2482  0.4849 -0.4557
  490MOL0     C64586   6.081   7.880   8.035 -0.5244 -0.7231 -0.7670
  490MOL0     C64587   5.933   7.844   8.021 -0.4617  0.4038  0.7862
  490MOL0     C64588   5.912   7.713   8.095 -0.1059 -0.3977  0.0358
  490MOL0     C64589   5.768   7.661   8.116 -0.0158  0.2643 -0.3499
  490MOL0     C64590   5.707   7.720   8.244 -0.6356  0.8392  0.6511
  490MOL0     C64591   5.566   7.681   8.256 -0.0190  1.2530 -0.0683
  490MOL0    Cl64592   5.457   7.741   8.124  0.0938  0.0806 -0.3930
  490MOL0     C64593   6.546   8.104   7.976 -0.6448 -0.2542  0.1657
  490MOL0     C64594   6.687   8.104   7.966  0.4597 -0.3220 -0.7263
  490MOL0     O64595   6.970   8.156   8.025  1.0896  0.1704  0.0150
  490MOL0     C64596   7.229   8.135   7.964  0.5904 -0.1174 -0.1164
  490MOL0     C64597   7.370   8.123   7.929 -0.0939  0.5999 -0.3996
  490MOL0     N64598   8.188   7.843   7.968 -0.6932 -0.1345 -0.2150
  490MOL0     N64599   8.287   7.849   8.044  0.3939 -0.4942 -0.7148
  490MOL0     C64600   9.353   7.698   8.134  0.0748 -0.7256  0.1180
  490MOL0     C64601   9.478   7.623   8.134 -0.3016 -0.0815 -0.4267
  490MOL0     C64602   9.797   7.331   8.200  0.9924 -0.1805  0.0601
  490MOL0     C64603   9.810   7.193   8.220  0.2212 -0.0917 -0.2627
  490MOL0     C64604   9.929   7.131   8.198  0.2768  0.1005 -0.1173
  490MOL0     C64605  10.044   7.207   8.165 -0.4210 -0.9171  0.3949
  490MOL0     O64606  10.163   7.149   8.151 -0.4199 -0.1769 -0.3702
  490MOL0     C64607  10.280   7.222   8.113 -0.1056 -0.1031 -0.1620
  490MOL0     C64608  10.398   7.134   8.114 -0.7489  0.3243 -0.1343
  490MOL0     C64609  10.393   7.024   8.002 -0.0078 -0.0757 -0.0163
  490MOL0     C64610  10.512   6.942   8.016 -0.3431  0.3583  0.9397
  490MOL0     C64611  10.641   7.020   7.999  0.8255  0.3644 -0.2471
  490MOL0     C64612  10.746   7.083   7.984  0.2096  0.3036 -0.8922
  490MOL0     C64613  10.027   7.347   8.141 -0.0362  0.4499 -0.2000
  490MOL0     C64614   9.906   7.407   8.153  0.3057 -0.0685 -0.0693
  490MOL0     H64615   9.604   7.693   8.429 -1.3963 -0.5149  1.2752
  490MOL0     H64616   9.380   7.829   8.443 -1.7171 -0.6844  0.5628
  490MOL0     H64617   9.294   8.018   8.362  1.1493  0.3355 -4.6736
  490MOL0     H64618   9.153   7.911   8.424  0.2989 -1.7034 -1.1974
  490MOL0     H64619   9.145   8.143   8.238 -0.7747  1.8487  1.0331
  490MOL0     H64620   9.077   8.130   8.401 -0.4447  2.0806 -1.3028
  490MOL0     H64621   8.925   7.952   8.311  0.6503 -1.5886 -0.5421
  490MOL0     H64622   8.997   7.964   8.149  4.2331  1.4768  1.0680
  490MOL0     H64623   8.854   8.194   8.300 -1.9704 -0.3254 -0.6241
  490MOL0     H64624   8.922   8.211   8.149  0.1333 -0.4511 -0.3119
  490MOL0     H64625   8.693   7.995   8.206 -2.7950 -0.2435 -1.0562
  490MOL0     H64626   8.778   8.034   8.053 -0.5505 -1.7635  0.3412
  490MOL0     H64627   8.681   8.257   8.079  0.6214 -1.1285  0.0002
  490MOL0     H64628   8.610   8.217   8.233  3.8945 -2.0107  2.1507
  490MOL0     H64629   8.452   8.198   8.009 -1.1414 -0.6237  0.0212
  490MOL0     H64630   8.558   8.062   7.965  2.7490 -0.4581  1.7372
  490MOL0     H64631   8.378   8.095   8.223 -0.6886  2.8024 -2.4542
  490MOL0     H64632   8.477   7.949   8.188 -0.2357 -0.8821 -0.2718
  490MOL0     H64633   8.221   8.169   8.005 -1.2869  0.1586 -1.9884
  490MOL0     H64634   8.030   7.916   7.753 -1.1801  0.9325 -0.4018
  490MOL0     H64635   8.047   8.091   7.787 -0.5438  0.6114 -0.3114
  490MOL0     H64636   7.903   8.070   7.987  1.4723 -1.0247  1.1797
  490MOL0     H64637   7.859   7.900   7.950 -1.5903  0.9485  1.7681
  490MOL0     H64638   7.811   8.137   7.766  0.9307  0.9832 -0.6280
  490MOL0     H64639   7.758   7.966   7.737 -2.8622  0.7988  0.8087
  490MOL0     H64640   7.636   8.173   7.916 -1.5683 -0.3467  0.1989
  490MOL0     H64641   7.617   8.003   7.960 -0.9167 -1.4263 -1.4417
  490MOL0     H64642   7.340   8.012   7.612  1.1618  0.6952  0.1880
  490MOL0     H64643   7.093   8.056   7.669  1.1529  1.8341 -1.2291
  490MOL0     H64644   6.710   8.112   7.627 -0.2874 -0.3363 -0.3604
  490MOL0     H64645   6.464   8.142   7.663 -3.2245 -0.0691  1.7548
  490MOL0     H64646   6.294   8.087   8.069 -2.7179 -1.4953  1.3201
  490MOL0     H64647   6.330   7.932   7.991  0.6274 -0.0426 -2.7565
  490MOL0     H64648   6.090   7.982   7.850 -0.5005  1.7065 -0.6220
  490MOL0     H64649   6.080   8.096   7.985  0.5908  0.8572 -0.3625
  490MOL0     H64650   6.107   7.896   8.140  0.2902 -1.8581 -0.7853
  490MOL0     H64651   6.138   7.791   8.008  1.7074  0.4650 -0.1922
  490MOL0     H64652   5.864   7.918   8.064 -2.5018 -0.8596 -0.1877
  490MOL0     H64653   5.885   7.842   7.923  0.0052  2.9793  0.4416
  490MOL0     H64654   5.957   7.710   8.195  1.9712 -2.0389 -0.8689
  490MOL0     H64655   5.972   7.633   8.051  1.5673 -0.0320  1.5235
  490MOL0     H64656   5.771   7.553   8.137  1.3243  0.8693  3.3737
  490MOL0     H64657   5.698   7.677   8.034  0.4939 -0.6238 -0.9807
  490MOL0     H64658   5.761   7.697   8.337  1.5800  1.3067 -0.4460
  490MOL0     H64659   5.705   7.828   8.232 -0.6927  0.5867 -2.4555
  490MOL0     H64660   5.530   7.723   8.351  2.9304  2.9438  0.4487
  490MOL0     H64661   5.548   7.573   8.257  1.9829  0.8778 -0.5726
  490MOL0     H64662   6.498   8.102   8.074 -1.5394  1.3195 -0.1895
  490MOL0     H64663   6.749   8.092   8.054  1.1928 -0.6107 -1.2609
  490MOL0     H64664   7.210   8.170   8.065  0.3549 -4.9693  1.7914
  490MOL0     H64665   7.439   8.136   8.011 -1.5198  2.7626  0.5446
  490MOL0     H64666   9.289   7.718   8.049  0.2408 -1.4083 -0.1747
  490MOL0     H64667   9.500   7.574   8.040  2.7190  1.9826 -0.9536
  490MOL0     H64668   9.730   7.130   8.257  1.2359 -2.1975 -1.4584
  490MOL0     H64669   9.935   7.025   8.217  0.9095  0.3422  1.0795
  490MOL0     H64670  10.296   7.306   8.182  0.1498  0.3499 -0.7570
  490MOL0     H64671  10.277   7.271   8.015 -0.9803 -0.1570 -0.1755
  490MOL0     H64672  10.487   7.195   8.096 -0.4505  0.3903  1.4520
  490MOL0     H64673  10.404   7.080   8.209  1.6663  0.6434 -0.0558
  490MOL0     H64674  10.402   7.078   7.907  1.3220 -2.3072 -1.2443
  490MOL0     H64675  10.303   6.963   7.986 -0.1365  0.4608 -1.5534
  490MOL0     H64676  10.506   6.889   8.111 -1.6014  2.6974  2.2237
  490MOL0     H64677  10.513   6.872   7.931 -0.0960  3.8712 -2.2136
  490MOL0     H64678  10.838   7.139   7.980  0.2354  0.7659  2.5999
  490MOL0     H64679  10.106   7.418   8.118  2.2822 -1.4549  1.3626
  490MOL0     H64680   9.884   7.510   8.125  1.0512  0.4000  0.9894
  491MOL0     O64681   1.383   0.883  10.523 -0.3853  0.1440  0.0085
  491MOL0     C64682   1.421   0.823  10.424  0.6174 -1.7799 -0.3475
  491MOL0     O64683   1.355   0.717  10.363  0.1076 -0.2219  1.1580
  491MOL0     C64684   1.239   0.662  10.398  1.1008  0.2204 -0.4092
  491MOL0     C64685   1.130   0.655  10.312 -0.0599 -0.1038 -0.1319
  491MOL0     C64686   1.004   0.599  10.355  0.2196  0.3390 -0.0003
  491MOL0     C64687   0.982   0.565  10.488  0.1222 -0.3981  0.0122
  491MOL0     O64688   0.862   0.521  10.536  0.0828 -0.7855 -0.1469
  491MOL0     C64689   0.863   0.380  10.566 -0.2787 -0.5981  1.0726
  491MOL0     C64690   0.736   0.354  10.645 -0.3039  0.0848  0.1015
  491MOL0     C64691   0.611   0.390  10.568 -0.1957  0.2332  0.2820
  491MOL0     C64692   0.574   0.277  10.468 -0.5880 -0.4636 -1.0470
  491MOL0     C64693   0.494   0.338  10.351 -0.0718 -0.4172  0.2797
  491MOL0     C64694   0.359   0.403  10.393 -0.0193  0.0506  0.2977
  491MOL0     C64695   0.268   0.318  10.474 -0.8925  0.5998 -0.6799
  491MOL0     C64696   0.229   0.198  10.380  0.4127 -0.0638 -0.4353
  491MOL0     N64697   0.105   0.143  10.424  0.2049 -0.8070  0.5828
  491MOL0     C64698  -0.015   0.141  10.346  0.4902 -0.3273 -0.1115
  491MOL0     C64699  -0.104   0.082  10.429 -0.1381  0.2623  0.8518
  491MOL0     C64700  -0.249   0.057  10.409 -0.9854  0.1873 -0.3554
  491MOL0     C64701  -0.317   0.165  10.313 -0.2476 -0.1121  0.3018
  491MOL0     C64702  -0.471   0.137  10.280  0.2300  0.2789 -0.4197
  491MOL0     C64703  -0.557   0.151  10.400  0.3030  0.1982 -0.2161
  491MOL0     O64704  -0.683   0.088  10.358  0.5582 -0.0410 -0.2170
  491MOL0     C64705  -0.803   0.154  10.344  0.9978 -0.1254  0.4720
  491MOL0     C64706  -0.828   0.286  10.372  0.2181  0.2450 -0.2645
  491MOL0     C64707  -0.948   0.354  10.349  0.0294  0.9140 -0.3936
  491MOL0     C64708  -1.059   0.289  10.302  0.0808  0.2854 -0.9683
  491MOL0     C64709  -1.181   0.351  10.271  0.4434 -0.1760  1.6354
  491MOL0     O64710  -1.179   0.486  10.299 -0.1522  0.5536  0.4574
  491MOL0     C64711  -1.302   0.544  10.292 -0.1267 -0.9863  0.2963
  491MOL0     C64712  -1.346   0.594  10.170 -0.1023  0.1570  0.7697
  491MOL0     C64713  -1.482   0.639  10.165 -0.3897 -0.6268  0.2655
  491MOL0     C64714  -1.566   0.642  10.274 -0.0176 -0.3291  0.3451
  491MOL0     O64715  -1.690   0.699  10.285 -0.3237 -0.3388  0.1595
  491MOL0     C64716  -1.757   0.710  10.156 -0.0304  0.3622  1.2177
  491MOL0     C64717  -1.905   0.726  10.188 -0.0931  0.4375 -0.1422
  491MOL0     C64718  -1.986   0.711  10.057 -0.1920 -0.1471  0.2412
  491MOL0     C64719  -2.029   0.570  10.027 -0.7601 -0.3089  0.1546
  491MOL0     C64720  -2.103   0.569   9.896  0.4290 -0.3586 -0.2499
  491MOL0     C64721  -2.172   0.433   9.863 -0.1298 -0.1218  0.2975
  491MOL0     C64722  -2.269   0.437   9.737  0.2054 -0.5035 -0.3272
  491MOL0     C64723  -2.413   0.475   9.786  0.1112  0.2709 -0.4280
  491MOL0    Cl64724  -2.525   0.499   9.648  0.3997 -0.2803 -0.2705
  491MOL0     C64725  -1.513   0.602  10.393 -0.5584 -0.2297  0.4007
  491MOL0     C64726  -1.386   0.545  10.401  0.6052 -0.1153 -0.8232
  491MOL0     O64727  -1.279   0.291  10.235  0.1344  0.6702 -0.2185
  491MOL0     C64728  -1.043   0.146  10.269 -0.3841 -0.7771  0.8229
  491MOL0     C64729  -0.918   0.082  10.296  0.6042  0.0236  0.3513
  491MOL0     N64730  -0.036   0.036  10.543  0.1807  0.3344 -0.2131
  491MOL0     N64731   0.093   0.067  10.532 -0.4160 -0.0986  0.1264
  491MOL0     C64732   1.092   0.590  10.572  0.8479 -0.3846  0.3756
  491MOL0     C64733   1.222   0.631  10.538 -0.3355 -0.2904  0.1048
  491MOL0     C64734   1.533   0.888  10.346 -0.8498 -0.1674 -0.4135
  491MOL0     C64735   1.596   1.013  10.377 -0.6520  0.3356  1.2249
  491MOL0     C64736   1.689   1.072  10.283  0.6427  0.3234  0.2030
  491MOL0     C64737   1.714   1.019  10.162 -0.3527  0.3703 -0.6864
  491MOL0     O64738   1.784   1.081  10.064 -0.1925  0.3525 -0.7437
  491MOL0     C64739   1.925   1.113  10.094 -0.3980 -0.0550  0.4105
  491MOL0     C64740   2.015   0.995  10.110 -0.4071  0.7429  0.0394
  491MOL0     C64741   2.022   0.902   9.984  0.3102  0.8341 -0.3019
  491MOL0     C64742   2.069   0.970   9.858  0.7521 -0.9287  0.0685
  491MOL0     C64743   2.215   0.974   9.852  0.0564  0.2514  0.4929
  491MOL0     C64744   2.340   0.974   9.839  0.0460 -1.2342  0.6559
  491MOL0     C64745   1.663   0.894  10.133 -0.0825 -0.4139  0.8639
  491MOL0     C64746   1.573   0.835  10.221  0.3432 -0.4223 -0.2628
  491MOL0     H64747   1.144   0.700  10.214 -0.6597 -2.0612 -1.1556
  491MOL0     H64748   0.922   0.589  10.284  1.4173 -0.4696 -1.3269
  491MOL0     H64749   0.954   0.344  10.614  0.9204  0.8221 -0.0238
  491MOL0     H64750   0.863   0.326  10.471 -2.7124 -1.7607  1.6620
  491MOL0     H64751   0.738   0.409  10.740 -0.4615  1.7104 -0.8002
  491MOL0     H64752   0.735   0.247  10.667 -1.5964  0.3558  1.4843
  491MOL0     H64753   0.622   0.484  10.512  2.0548  0.3815  0.8893
  491MOL0     H64754   0.534   0.396  10.646  1.6422 -0.9614  2.2755
  491MOL0     H64755   0.661   0.220  10.434 -0.4609 -1.6071  0.9797
  491MOL0     H64756   0.510   0.205  10.521  1.0902 -0.3144  1.3614
  491MOL0     H64757   0.475   0.265  10.271 -3.1701  0.2452  0.2482
  491MOL0     H64758   0.561   0.410  10.303 -0.6735  0.1053  0.1963
  491MOL0     H64759   0.311   0.415  10.295 -0.3592 -2.4394  0.1137
  491MOL0     H64760   0.382   0.497  10.445  0.9596  0.0886 -0.1842
  491MOL0     H64761   0.307   0.282  10.570  2.4429  4.3299 -0.3576
  491MOL0     H64762   0.184   0.385  10.495 -1.2903  0.8576 -2.8435
  491MOL0     H64763   0.303   0.120  10.366  3.4755  2.9025 -2.2977
  491MOL0     H64764   0.215   0.226  10.275  0.3398  1.1859 -0.1123
  491MOL0     H64765  -0.057   0.194  10.261 -0.3520  2.7857  2.0526
  491MOL0     H64766  -0.305   0.051  10.502 -1.6417  0.8221 -0.7049
  491MOL0     H64767  -0.253  -0.041  10.359  1.1166  0.0422 -0.3440
  491MOL0     H64768  -0.272   0.165  10.214 -1.5963 -1.8064 -0.3719
  491MOL0     H64769  -0.306   0.268  10.349 -0.8241  0.1656 -0.2853
  491MOL0     H64770  -0.522   0.198  10.204 -2.7018  0.1994  1.3073
  491MOL0     H64771  -0.469   0.034  10.242 -0.0665  0.1534 -0.1079
  491MOL0     H64772  -0.555   0.257  10.430  1.9500  0.0671  0.2327
  491MOL0     H64773  -0.508   0.096  10.480  3.6276  0.8402 -1.6528
  491MOL0     H64774  -0.749   0.346  10.413  1.9507 -1.0989 -1.4664
  491MOL0     H64775  -0.961   0.460  10.370 -2.1342  1.8588 -5.1886
  491MOL0     H64776  -1.280   0.593  10.084 -3.5458 -1.9975 -2.1312
  491MOL0     H64777  -1.512   0.697  10.078  1.4778  0.2475  0.1603
  491MOL0     H64778  -1.753   0.620  10.094  2.6139  1.1707  0.0975
  491MOL0     H64779  -1.724   0.789  10.089  0.2200  0.8857  1.9473
  491MOL0     H64780  -1.927   0.828  10.221 -0.9337  0.2892 -0.2013
  491MOL0     H64781  -1.943   0.667  10.272 -1.9609  2.1033  0.2717
  491MOL0     H64782  -1.936   0.755   9.971 -1.4764  0.8053 -0.0381
  491MOL0     H64783  -2.078   0.769  10.068 -1.3743 -1.3353 -2.4638
  491MOL0     H64784  -1.946   0.501  10.041 -2.2803 -2.3922 -0.6060
  491MOL0     H64785  -2.098   0.541  10.107 -0.0728  4.7744  3.0159
  491MOL0     H64786  -2.042   0.603   9.812 -0.4722  1.3820 -0.2500
  491MOL0     H64787  -2.183   0.644   9.894 -0.7267 -1.5524 -1.4429
  491MOL0     H64788  -2.235   0.401   9.947 -0.7905 -0.4845 -0.3226
  491MOL0     H64789  -2.089   0.365   9.846  1.1866  1.4722  0.1309
  491MOL0     H64790  -2.248   0.523   9.672 -1.7458 -1.3041 -2.1332
  491MOL0     H64791  -2.272   0.351   9.670 -1.5708 -0.8072  0.1057
  491MOL0     H64792  -2.411   0.561   9.854  0.0827 -0.7839  0.9572
  491MOL0     H64793  -2.459   0.404   9.855  1.1458  1.5363  1.6749
  491MOL0     H64794  -1.573   0.618  10.482 -0.9266 -0.2693  0.1604
  491MOL0     H64795  -1.332   0.511  10.488  1.0601 -0.6660 -1.3086
  491MOL0     H64796  -1.126   0.090  10.227 -0.8385  1.5373 -1.6012
  491MOL0     H64797  -0.910  -0.025  10.282 -0.6291  0.1832 -2.2074
  491MOL0     H64798   1.080   0.577  10.679 -0.7309  0.6738  0.3499
  491MOL0     H64799   1.297   0.651  10.614 -0.1644  0.6239 -0.3025
  491MOL0     H64800   1.560   1.070  10.461  0.0674  0.7073  1.2816
  491MOL0     H64801   1.720   1.174  10.304  0.6503  0.3791 -0.0736
  491MOL0     H64802   1.925   1.167  10.190  1.1757  1.2073 -0.2591
  491MOL0     H64803   1.971   1.187  10.028  1.5057  0.3380  2.0812
  491MOL0     H64804   2.117   1.029  10.129  1.0908 -3.1143 -0.1775
  491MOL0     H64805   1.983   0.933  10.194  0.0933  2.6398  1.7024
  491MOL0     H64806   1.918   0.870   9.974 -0.7365  4.1737 -1.1458
  491MOL0     H64807   2.084   0.813  10.001  0.0132  0.6856  0.0101
  491MOL0     H64808   2.017   0.924   9.774 -1.0509  0.3487  0.4371
  491MOL0     H64809   2.049   1.076   9.842 -2.7230 -1.2398  1.4919
  491MOL0     H64810   2.446   0.977   9.827  0.0653 -1.9923  0.5875
  491MOL0     H64811   1.696   0.845  10.042 -0.1462  0.4810  0.3459
  491MOL0     H64812   1.534   0.738  10.191 -2.9976  0.4024  0.9975
  492MOL0     O64813   9.886   4.216   1.186  0.2496  0.0215 -0.2890
  492MOL0     C64814   9.952   4.291   1.255 -0.7249 -0.1586  0.4672
  492MOL0     O64815   9.931   4.420   1.286  0.1240  0.3269  0.1612
  492MOL0     C64816   9.805   4.473   1.288  0.2417  0.0816 -0.3454
  492MOL0     C64817   9.794   4.606   1.253 -0.2458 -0.1252  0.7370
  492MOL0     C64818   9.673   4.675   1.251  1.1073  0.1203 -0.2702
  492MOL0     C64819   9.553   4.605   1.263  0.4833  0.2408 -0.7484
  492MOL0     O64820   9.435   4.668   1.236 -0.7810 -0.5093  0.5304
  492MOL0     C64821   9.311   4.599   1.199 -0.5346 -0.5676 -0.2095
  492MOL0     C64822   9.314   4.527   1.066 -0.0318  0.3585  0.0064
  492MOL0     C64823   9.176   4.451   1.034 -0.5139  0.2385  0.2987
  492MOL0     C64824   9.053   4.537   1.030  0.1247 -0.1188 -0.6459
  492MOL0     C64825   8.928   4.455   0.984  0.6699  0.0731 -0.2319
  492MOL0     C64826   8.806   4.554   0.985  0.4549  0.5400  0.3812
  492MOL0     C64827   8.679   4.469   0.956  0.5281  0.3142 -0.2415
  492MOL0     C64828   8.570   4.578   0.934  0.1333 -0.5104 -0.2832
  492MOL0     N64829   8.446   4.505   0.885  0.4409  0.5469 -0.7200
  492MOL0     C64830   8.376   4.413   0.960  0.5495  0.6535  0.2056
  492MOL0     C64831   8.266   4.398   0.886 -0.0639  0.7207  0.3177
  492MOL0     C64832   8.145   4.312   0.930 -0.1770 -0.2578 -0.3582
  492MOL0     C64833   8.167   4.166   0.883 -0.1602  1.0873  0.7839
  492MOL0     C64834   8.197   4.146   0.728  0.2199  0.4822  0.4051
  492MOL0     C64835   8.094   4.204   0.630 -0.3130 -0.1668  0.1313
  492MOL0     O64836   7.981   4.116   0.639 -0.4181  0.6481  0.0835
  492MOL0     C64837   7.866   4.140   0.705  0.5403  0.3232 -0.2167
  492MOL0     C64838   7.789   4.036   0.752 -0.5746  0.3460  0.3557
  492MOL0     C64839   7.665   4.049   0.811  0.0164 -0.5967  0.7922
  492MOL0     C64840   7.604   4.178   0.819  0.3102  0.1466  0.1843
  492MOL0     C64841   7.476   4.201   0.882  0.0531  0.0055 -0.6855
  492MOL0     O64842   7.438   4.329   0.906  0.1285 -0.1509  0.8949
  492MOL0     C64843   7.325   4.337   0.977 -0.0863 -0.1090 -0.7177
  492MOL0     C64844   7.336   4.334   1.115 -0.0226  0.0519 -1.5399
  492MOL0     C64845   7.223   4.366   1.197  0.0044  0.3133  0.6069
  492MOL0     C64846   7.094   4.400   1.148 -0.3633  0.0514  0.4041
  492MOL0     O64847   7.000   4.434   1.234  0.9928  0.1867 -0.1289
  492MOL0     C64848   6.860   4.388   1.215  1.2895  0.5328 -0.3058
  492MOL0     C64849   6.774   4.502   1.181  0.2767  0.1602 -0.5302
  492MOL0     C64850   6.627   4.471   1.149  0.4710  0.8441 -0.4130
  492MOL0     C64851   6.527   4.590   1.130  0.9455 -0.4215  0.0717
  492MOL0     C64852   6.382   4.548   1.160  0.8350 -0.2244  0.5960
  492MOL0     C64853   6.297   4.668   1.131  0.4787  1.0358  0.3305
  492MOL0     C64854   6.145   4.635   1.155  0.1308 -0.0918 -0.2219
  492MOL0     C64855   6.050   4.758   1.141  0.1397  0.4861 -1.1633
  492MOL0    Cl64856   6.104   4.884   1.262  0.3012 -0.0540  0.1981
  492MOL0     C64857   7.088   4.407   1.007 -0.4297 -0.7643 -0.6267
  492MOL0     C64858   7.199   4.376   0.923 -1.0744 -0.0374 -0.3380
  492MOL0     O64859   7.414   4.097   0.901 -0.2434  0.1305 -0.7319
  492MOL0     C64860   7.687   4.289   0.785 -0.3778  0.0379 -0.3991
  492MOL0     C64861   7.819   4.270   0.737  1.1083 -0.0709  0.6969
  492MOL0     N64862   8.282   4.465   0.766 -0.2571 -0.2030 -0.3035
  492MOL0     N64863   8.392   4.527   0.763  0.2575 -0.5217  0.4716
  492MOL0     C64864   9.559   4.468   1.297 -0.9574 -0.9364 -0.6816
  492MOL0     C64865   9.685   4.402   1.312  0.6215  0.5122  0.0467
  492MOL0     C64866  10.073   4.231   1.312 -0.0395 -1.0205  0.4483
  492MOL0     C64867  10.105   4.094   1.293  0.1887 -0.3780 -0.4053
  492MOL0     C64868  10.225   4.042   1.342  0.0297  1.0482  0.4042
  492MOL0     C64869  10.311   4.124   1.418 -0.8775  0.2360  0.7924
  492MOL0     O64870  10.439   4.085   1.472  0.3112 -0.2981 -0.2030
  492MOL0     C64871  10.477   3.944   1.483 -0.5475 -0.2205  1.3599
  492MOL0     C64872  10.587   3.922   1.579 -0.1211 -0.4027 -0.0682
  492MOL0     C64873  10.722   3.943   1.515  1.0512  0.0092 -0.8618
  492MOL0     C64874  10.832   3.893   1.605  0.3472  0.1632  0.8174
  492MOL0     C64875  10.950   3.979   1.565  0.5207  0.3045  0.1488
  492MOL0     C64876  11.048   4.049   1.538  0.2229  0.4972  0.0725
  492MOL0     C64877  10.269   4.254   1.459 -0.1223  0.7137 -0.2487
  492MOL0     C64878  10.160   4.314   1.393  0.4003 -0.1041 -0.2923
  492MOL0     H64879   9.885   4.661   1.229 -0.7598  0.4572  0.0489
  492MOL0     H64880   9.668   4.783   1.241  3.1970  0.5164  2.1326
  492MOL0     H64881   9.226   4.668   1.206 -2.0857 -2.4992  1.0889
  492MOL0     H64882   9.289   4.534   1.284  1.4095 -1.8327 -0.6293
  492MOL0     H64883   9.404   4.465   1.068  0.6048  1.2442 -0.6611
  492MOL0     H64884   9.334   4.601   0.988  3.0635  0.9528  1.2016
  492MOL0     H64885   9.157   4.363   1.095  1.1445 -1.1702 -1.0962
  492MOL0     H64886   9.194   4.409   0.934  1.6660 -0.1496  0.8049
  492MOL0     H64887   9.028   4.596   1.118 -0.1997  0.8513 -1.3806
  492MOL0     H64888   9.067   4.611   0.951 -0.9918  1.1165  0.2690
  492MOL0     H64889   8.910   4.379   1.061  0.3507 -0.2856 -0.6492
  492MOL0     H64890   8.937   4.416   0.882  0.1708  0.6125 -0.4890
  492MOL0     H64891   8.826   4.626   0.905  1.6870 -0.3585 -0.1500
  492MOL0     H64892   8.807   4.603   1.082  2.6474  1.1427  0.1187
  492MOL0     H64893   8.701   4.420   0.860  0.7068 -1.3735  0.6358
  492MOL0     H64894   8.658   4.392   1.030  2.6349  0.7609  0.9104
  492MOL0     H64895   8.592   4.663   0.869 -0.8474  1.6186  1.9708
  492MOL0     H64896   8.554   4.632   1.028  0.6540 -2.5474  1.0337
  492MOL0     H64897   8.399   4.389   1.064  0.0860  1.0701  0.4089
  492MOL0     H64898   8.061   4.360   0.879  0.9257  2.5556  0.2606
  492MOL0     H64899   8.117   4.321   1.035  2.6089 -0.7904  0.5245
  492MOL0     H64900   8.087   4.096   0.911  1.4982 -1.3467 -0.2249
  492MOL0     H64901   8.250   4.128   0.943  0.0314 -1.1223 -0.7660
  492MOL0     H64902   8.294   4.187   0.701 -0.3523  0.0419 -2.8389
  492MOL0     H64903   8.205   4.038   0.718  4.1890  0.5655  1.2271
  492MOL0     H64904   8.122   4.207   0.524 -2.3423 -1.5486 -0.4974
  492MOL0     H64905   8.067   4.307   0.652 -1.9795 -1.0185  2.5132
  492MOL0     H64906   7.815   3.932   0.731 -1.0291 -1.2359  6.0667
  492MOL0     H64907   7.618   3.954   0.836  3.4544 -2.4997  0.5196
  492MOL0     H64908   7.427   4.319   1.172 -1.6669  0.4502  1.4144
  492MOL0     H64909   7.230   4.363   1.306  0.8136  0.0785  0.5549
  492MOL0     H64910   6.823   4.339   1.306  4.2046  0.5699  1.0043
  492MOL0     H64911   6.847   4.318   1.132  0.4391 -1.8072  1.6674
  492MOL0     H64912   6.821   4.553   1.096  1.7310  1.8660  1.2071
  492MOL0     H64913   6.781   4.571   1.265  0.5544  0.3186 -0.6827
  492MOL0     H64914   6.592   4.401   1.225 -0.9164 -0.1499 -1.8792
  492MOL0     H64915   6.629   4.415   1.054  0.5454 -0.0308  0.0930
  492MOL0     H64916   6.557   4.676   1.190  0.6246 -0.7677  0.7398
  492MOL0     H64917   6.556   4.617   1.028  2.5349 -1.6882  0.1466
  492MOL0     H64918   6.367   4.514   1.263 -2.0082 -0.6020  0.1435
  492MOL0     H64919   6.339   4.472   1.094 -1.1254  0.4436  1.0390
  492MOL0     H64920   6.303   4.695   1.025 -0.1754  2.1746  0.5698
  492MOL0     H64921   6.323   4.751   1.197  0.3742  0.1810  1.4764
  492MOL0     H64922   6.110   4.558   1.085  0.6141 -0.7235  0.2246
  492MOL0     H64923   6.131   4.592   1.255  0.6919 -3.4093 -1.4540
  492MOL0     H64924   5.946   4.734   1.163  0.1498  1.8728  0.5862
  492MOL0     H64925   6.060   4.787   1.036  4.4400 -0.5283 -1.2451
  492MOL0     H64926   7.001   4.444   0.955 -0.3928  1.4246  0.7395
  492MOL0     H64927   7.199   4.392   0.816  0.8171 -0.0938 -0.3850
  492MOL0     H64928   7.645   4.388   0.795  4.2238  2.1859  0.3872
  492MOL0     H64929   7.875   4.358   0.706  1.2462 -0.1628  0.6853
  492MOL0     H64930   9.463   4.419   1.313 -1.2217 -0.2041  0.0511
  492MOL0     H64931   9.688   4.301   1.351 -4.0959 -0.4193 -1.3506
  492MOL0     H64932  10.046   4.029   1.229 -2.7231  2.5208 -0.9345
  492MOL0     H64933  10.254   3.944   1.305  0.0071  1.3558 -0.4499
  492MOL0     H64934  10.508   3.908   1.384 -1.2365 -3.1472  2.1087
  492MOL0     H64935  10.391   3.879   1.501 -2.7518  0.8715 -3.6730
  492MOL0     H64936  10.588   3.980   1.672  1.9194 -0.8244  0.2138
  492MOL0     H64937  10.580   3.814   1.596 -1.8118 -0.1029  1.4724
  492MOL0     H64938  10.734   4.048   1.486 -0.1252  0.1995 -0.7144
  492MOL0     H64939  10.709   3.886   1.422 -2.9295 -0.1506 -0.3789
  492MOL0     H64940  10.823   3.910   1.713  2.9910 -2.1647  1.5148
  492MOL0     H64941  10.847   3.786   1.590 -0.9622  0.1331 -0.3926
  492MOL0     H64942  11.135   4.111   1.542  2.9782 -3.0750  1.0808
  492MOL0     H64943  10.329   4.313   1.527 -0.9385 -0.3389  1.4456
  492MOL0     H64944  10.130   4.412   1.428  1.2434  1.2004 -2.9115
  493MOL0     O64945   3.910   4.318   6.905 -0.5803 -0.9072 -0.6656
  493MOL0     C64946   4.007   4.304   6.991  0.0369  0.5322  0.9232
  493MOL0     O64947   4.003   4.213   7.093  0.5601  0.4859  0.1887
  493MOL0     C64948   3.888   4.132   7.105  0.1880 -0.3788 -0.5113
  493MOL0     C64949   3.907   3.996   7.123 -0.4381  0.6252 -0.4670
  493MOL0     C64950   3.803   3.904   7.112 -0.4586  0.0991 -0.2193
  493MOL0     C64951   3.673   3.947   7.078  0.4498 -0.9503  0.1019
  493MOL0     O64952   3.569   3.863   7.065 -0.0045 -0.2983 -0.2034
  493MOL0     C64953   3.534   3.847   6.933  0.0464  0.0633  0.3105
  493MOL0     C64954   3.387   3.869   6.910  0.2916 -0.1502 -0.0482
  493MOL0     C64955   3.293   3.791   7.001  0.2365  0.5953  0.2007
  493MOL0     C64956   3.145   3.830   6.973  0.0814  0.0954 -0.1261
  493MOL0     C64957   3.057   3.771   7.081  0.0070  0.0183  0.5366
  493MOL0     C64958   2.917   3.844   7.065 -0.5255  0.2820  0.4061
  493MOL0     C64959   2.805   3.791   7.155 -0.8985 -0.5743 -0.2098
  493MOL0     C64960   2.737   3.680   7.079 -0.0920  0.2386 -0.7255
  493MOL0     N64961   2.622   3.619   7.156  0.5794  0.0923  0.0214
  493MOL0     C64962   2.622   3.608   7.290  0.0253 -0.2000  0.0498
  493MOL0     C64963   2.495   3.579   7.322  0.4199  0.3302 -0.1551
  493MOL0     C64964   2.433   3.542   7.460 -0.2144  0.5729  0.4871
  493MOL0     C64965   2.294   3.470   7.451  0.2605 -0.5970 -0.2368
  493MOL0     C64966   2.248   3.426   7.591  0.0608 -0.5681 -0.3385
  493MOL0     C64967   2.088   3.395   7.596 -0.4791 -0.3822  1.0368
  493MOL0     O64968   2.058   3.333   7.725 -0.9884 -0.1024 -0.2725
  493MOL0     C64969   1.933   3.286   7.753  0.1626 -0.5342 -1.1501
  493MOL0     C64970   1.846   3.235   7.661  0.9666 -0.4300  0.2898
  493MOL0     C64971   1.724   3.169   7.696 -0.7938 -0.3641 -0.9600
  493MOL0     C64972   1.687   3.168   7.830  0.3581 -0.0774 -0.4461
  493MOL0     C64973   1.559   3.103   7.872  0.3810  0.1144 -0.2699
  493MOL0     O64974   1.471   3.063   7.777  0.3793 -0.5848  0.3340
  493MOL0     C64975   1.355   2.996   7.806 -0.2395 -0.9138  0.1847
  493MOL0     C64976   1.349   2.877   7.873 -0.2627  0.7373  0.1283
  493MOL0     C64977   1.226   2.824   7.913 -0.1964  0.5447 -0.7260
  493MOL0     C64978   1.105   2.897   7.902 -0.4018 -0.7001 -0.7597
  493MOL0     O64979   0.993   2.824   7.944 -0.3714 -0.9936 -1.3856
  493MOL0     C64980   0.869   2.893   7.942 -0.1019  0.0896  0.3213
  493MOL0     C64981   0.748   2.815   7.989  0.2897 -0.1501 -0.6359
  493MOL0     C64982   0.615   2.882   7.994  0.2709 -0.3230  0.2220
  493MOL0     C64983   0.510   2.784   8.038  0.5426 -0.0125  0.8561
  493MOL0     C64984   0.371   2.850   8.062 -0.2338  0.5358 -0.5954
  493MOL0     C64985   0.277   2.761   8.138 -0.0059 -0.2025 -0.1926
  493MOL0     C64986   0.144   2.822   8.149  0.8747 -0.4472 -0.0533
  493MOL0     C64987   0.070   2.772   8.266 -0.1576 -0.2365  0.8301
  493MOL0    Cl64988  -0.101   2.778   8.240 -0.6306  0.5740 -0.3974
  493MOL0     C64989   1.116   3.016   7.826  0.6230 -0.6397 -0.7872
  493MOL0     C64990   1.232   3.068   7.784 -0.8934  0.4861  0.3098
  493MOL0     O64991   1.539   3.096   7.993  0.0168  0.3860 -0.0081
  493MOL0     C64992   1.783   3.211   7.930 -0.0563 -0.3863 -0.0903
  493MOL0     C64993   1.907   3.270   7.891 -0.3305 -0.0128 -0.7072
  493MOL0     N64994   2.413   3.583   7.212  0.2330 -0.0664 -0.0151
  493MOL0     N64995   2.490   3.599   7.110 -0.2434  0.1986 -0.6128
  493MOL0     C64996   3.652   4.088   7.074  0.3755 -1.2642 -0.8116
  493MOL0     C64997   3.753   4.179   7.094  0.1604  0.1783  0.4288
  493MOL0     C64998   4.125   4.400   6.983  0.7701 -0.1731 -0.0869
  493MOL0     C64999   4.129   4.491   6.875 -0.5007 -0.4975  0.8032
  493MOL0     C65000   4.241   4.575   6.867  0.1578 -0.6124 -0.0856
  493MOL0     C65001   4.343   4.570   6.967 -0.4665 -0.6819  0.8202
  493MOL0     O65002   4.451   4.655   6.952  0.2014 -0.4442 -0.4014
  493MOL0     C65003   4.544   4.635   6.846 -0.5364  0.9847  0.4290
  493MOL0     C65004   4.678   4.645   6.907 -0.8478  0.1984  0.4402
  493MOL0     C65005   4.716   4.786   6.947 -0.3539 -0.3996 -0.5297
  493MOL0     C65006   4.864   4.798   7.008  0.4426  0.0573  0.8696
  493MOL0     C65007   4.966   4.751   6.913 -0.8600 -0.3525 -0.0247
  493MOL0     C65008   5.052   4.697   6.847  0.8414 -0.9712  0.0925
  493MOL0     C65009   4.324   4.488   7.075  0.3634  0.7303  0.0629
  493MOL0     C65010   4.215   4.406   7.084 -1.4607 -0.2520  0.5728
  493MOL0     H65011   4.006   3.954   7.139  0.0845  1.2903 -1.7422
  493MOL0     H65012   3.825   3.799   7.128 -1.3835 -0.5477 -2.7209
  493MOL0     H65013   3.559   3.743   6.909 -1.1216  0.4039 -2.9329
  493MOL0     H65014   3.603   3.906   6.872 -0.0280 -0.1621  0.0046
  493MOL0     H65015   3.362   3.850   6.806  1.2576  0.4998 -0.4107
  493MOL0     H65016   3.368   3.976   6.929 -0.4294 -0.4359  0.9753
  493MOL0     H65017   3.325   3.809   7.103  1.5365  1.6409 -0.3718
  493MOL0     H65018   3.306   3.682   6.992  0.3292  0.4864  1.5049
  493MOL0     H65019   3.132   3.939   6.969 -3.6752 -0.2313 -1.0821
  493MOL0     H65020   3.119   3.794   6.873 -0.8518 -1.3263  0.5996
  493MOL0     H65021   3.090   3.801   7.180 -0.3562  0.9970  0.3728
  493MOL0     H65022   3.048   3.662   7.072  0.1025  0.1049 -1.0219
  493MOL0     H65023   2.880   3.840   6.962  0.2906 -0.1986  0.1184
  493MOL0     H65024   2.932   3.947   7.097 -2.9965  0.5636  0.8888
  493MOL0     H65025   2.848   3.756   7.250  0.7345  0.6065 -0.4598
  493MOL0     H65026   2.744   3.878   7.181  1.5133  0.6398  1.8318
  493MOL0     H65027   2.804   3.598   7.051 -1.6211 -1.6823  0.9518
  493MOL0     H65028   2.690   3.719   6.988  0.9974  1.7518 -0.6738
  493MOL0     H65029   2.701   3.613   7.364 -0.0295 -1.0400  0.1825
  493MOL0     H65030   2.415   3.630   7.522 -0.2504  0.1821  1.0402
  493MOL0     H65031   2.497   3.483   7.526 -0.0370  0.0946 -0.1056
  493MOL0     H65032   2.304   3.381   7.387  2.7764  1.0429 -2.3139
  493MOL0     H65033   2.229   3.541   7.399  1.3947 -0.7291 -1.9158
  493MOL0     H65034   2.307   3.344   7.632 -1.3930 -1.1767  0.6126
  493MOL0     H65035   2.256   3.512   7.658  1.0680  0.7570 -2.0791
  493MOL0     H65036   2.057   3.334   7.511 -2.0578 -0.1263  1.4021
  493MOL0     H65037   2.021   3.481   7.582 -0.6854 -0.6338  0.4687
  493MOL0     H65038   1.868   3.238   7.554 -0.9451  0.4419 -0.1264
  493MOL0     H65039   1.667   3.129   7.612  1.9675 -2.2858 -2.0575
  493MOL0     H65040   1.443   2.827   7.890 -0.2154  0.6880 -0.2772
  493MOL0     H65041   1.223   2.729   7.965  4.4261 -0.1065 -1.1927
  493MOL0     H65042   0.845   2.919   7.839 -1.4029  1.0712  0.8510
  493MOL0     H65043   0.867   2.985   8.001 -1.4252 -1.6105  3.1411
  493MOL0     H65044   0.757   2.784   8.094 -2.6421 -1.5627 -0.7021
  493MOL0     H65045   0.739   2.720   7.935 -2.7621  0.3685 -1.2197
  493MOL0     H65046   0.581   2.909   7.893 -1.8294 -1.7664  0.4903
  493MOL0     H65047   0.622   2.971   8.058 -0.3435 -0.0278 -0.1061
  493MOL0     H65048   0.500   2.712   7.956  1.2107  1.7493 -0.8604
  493MOL0     H65049   0.544   2.736   8.130  1.7202  0.9191  0.9373
  493MOL0     H65050   0.322   2.868   7.966 -1.3778  0.9596  0.0501
  493MOL0     H65051   0.376   2.952   8.103 -1.1999  0.5854 -0.5876
  493MOL0     H65052   0.319   2.743   8.238 -1.5855  3.1618  1.2418
  493MOL0     H65053   0.264   2.664   8.087 -0.2368  0.1908 -0.8919
  493MOL0     H65054   0.159   2.930   8.158 -1.6248  0.1024 -1.5010
  493MOL0     H65055   0.084   2.800   8.060  0.4594 -0.9224  0.3402
  493MOL0     H65056   0.101   2.832   8.352 -1.0896 -1.2709  1.9209
  493MOL0     H65057   0.089   2.666   8.288  2.0842 -0.0470  0.1589
  493MOL0     H65058   1.028   3.073   7.797  1.4735  0.5240 -1.1520
  493MOL0     H65059   1.236   3.164   7.733 -2.7263  0.0105 -0.7732
  493MOL0     H65060   1.767   3.197   8.036  0.1484 -1.3432 -0.1826
  493MOL0     H65061   1.974   3.307   7.967  0.1890 -0.7563 -0.7906
  493MOL0     H65062   3.553   4.126   7.051  0.6276 -0.0879 -0.0911
  493MOL0     H65063   3.727   4.282   7.074  0.5414  0.4670  1.3601
  493MOL0     H65064   4.044   4.495   6.808 -1.5752  0.9511  2.1779
  493MOL0     H65065   4.246   4.646   6.785  0.4334 -0.3774  0.1349
  493MOL0     H65066   4.532   4.712   6.769 -0.4264  3.0042  2.3366
  493MOL0     H65067   4.526   4.537   6.801 -0.9347  0.5644  1.4772
  493MOL0     H65068   4.687   4.590   7.001  2.0237  4.7521  3.2418
  493MOL0     H65069   4.751   4.600   6.840 -1.2062 -1.1015  0.8833
  493MOL0     H65070   4.647   4.825   7.022  0.0110  0.9292 -0.8554
  493MOL0     H65071   4.709   4.853   6.860  0.9052 -0.6318 -0.8211
  493MOL0     H65072   4.884   4.905   7.017  1.0960  0.3222 -2.3738
  493MOL0     H65073   4.868   4.734   7.097 -0.9682 -2.7285 -0.9191
  493MOL0     H65074   5.142   4.670   6.797  0.5404  1.6821 -2.1626
  493MOL0     H65075   4.393   4.485   7.159 -2.0780 -2.3420  2.1973
  493MOL0     H65076   4.208   4.345   7.174  0.1072  0.5829  1.2828
  494MOL0     O65077   7.116  10.353   3.165  0.4047 -0.3445 -0.2575
  494MOL0     C65078   7.150  10.467   3.131  0.7118 -0.5444 -0.7608
  494MOL0     O65079   7.111  10.531   3.019  0.0810  0.2266 -0.5927
  494MOL0     C65080   6.999  10.486   2.955  0.5899 -0.3523 -0.7434
  494MOL0     C65081   6.876  10.514   3.015 -0.3183  0.3132 -0.3600
  494MOL0     C65082   6.759  10.468   2.950 -0.2853  0.2508 -0.4158
  494MOL0     C65083   6.770  10.408   2.829 -0.2676  0.1826  0.3435
  494MOL0     O65084   6.655  10.356   2.767  0.0581 -0.5884 -0.7220
  494MOL0     C65085   6.620  10.425   2.642 -0.2913  0.1302  0.0530
  494MOL0     C65086   6.480  10.404   2.590 -0.5655 -0.5653 -1.2453
  494MOL0     C65087   6.379  10.489   2.672  0.0716 -0.2458  0.5158
  494MOL0     C65088   6.225  10.478   2.655  0.3368  0.2013 -0.0714
  494MOL0     C65089   6.169  10.340   2.711  0.1484  0.1704  0.3742
  494MOL0     C65090   6.072  10.282   2.609 -0.0636 -0.1916  0.6077
  494MOL0     C65091   6.003  10.150   2.659 -0.0574 -0.2857 -0.6976
  494MOL0     C65092   5.918  10.184   2.781  0.6224 -0.4892  0.1219
  494MOL0     N65093   5.816  10.288   2.760 -0.1940 -0.2589  0.1469
  494MOL0     C65094   5.734  10.310   2.645 -0.1509  0.6953  0.0073
  494MOL0     C65095   5.676  10.434   2.657 -0.0194 -0.9738 -0.1298
  494MOL0     C65096   5.578  10.517   2.574  0.1883  0.8403  0.1483
  494MOL0     C65097   5.441  10.451   2.584  0.5181 -0.9983  0.0756
  494MOL0     C65098   5.411  10.315   2.521 -0.3440  0.3954 -0.2395
  494MOL0     C65099   5.263  10.277   2.529 -0.0492 -0.0165 -0.1836
  494MOL0     O65100   5.185  10.343   2.626 -0.1824 -0.5018 -0.3837
  494MOL0     C65101   5.050  10.357   2.614  1.1213  0.0845  0.0451
  494MOL0     C65102   4.976  10.420   2.720 -0.2642  0.3436 -0.2170
  494MOL0     C65103   4.843  10.423   2.725 -0.1615 -0.0862 -0.0551
  494MOL0     C65104   4.764  10.342   2.638 -0.1432  0.8802  0.0917
  494MOL0     C65105   4.610  10.321   2.650  0.6897 -0.3873  0.1536
  494MOL0     O65106   4.536  10.429   2.704 -0.7674 -1.0497 -0.1601
  494MOL0     C65107   4.406  10.421   2.729 -0.3807 -0.0052  0.5115
  494MOL0     C65108   4.335  10.308   2.777  0.0943  0.3955 -0.4892
  494MOL0     C65109   4.197  10.320   2.805  0.7083 -0.1500 -0.5500
  494MOL0     C65110   4.132  10.441   2.793  0.5091 -0.2715  0.4946
  494MOL0     O65111   3.996  10.439   2.823 -0.6952  0.1009  0.1285
  494MOL0     C65112   3.913  10.555   2.800 -0.2817 -0.4309  0.8777
  494MOL0     C65113   3.765  10.543   2.856 -0.7439  0.3355  0.1996
  494MOL0     C65114   3.701  10.424   2.771 -0.2543 -0.2403 -0.2557
  494MOL0     C65115   3.552  10.422   2.795  0.2420  0.6163 -0.3119
  494MOL0     C65116   3.499  10.314   2.701  1.0460 -0.5494  0.1054
  494MOL0     C65117   3.343  10.324   2.697 -0.0448  0.2490  0.3564
  494MOL0     C65118   3.293  10.207   2.609  0.1517  0.5406  0.3996
  494MOL0     C65119   3.159  10.235   2.542 -0.8974 -0.1814 -0.1891
  494MOL0    Cl65120   3.034  10.227   2.675 -0.0405  0.0032 -0.0166
  494MOL0     C65121   4.210  10.559   2.764 -0.3932  0.6631  0.2350
  494MOL0     C65122   4.346  10.545   2.727  1.0216  0.5511 -0.9853
  494MOL0     O65123   4.560  10.212   2.619  0.3006  0.3490  1.0715
  494MOL0     C65124   4.834  10.274   2.534 -0.3959  0.1593  0.1141
  494MOL0     C65125   4.975  10.290   2.518  0.6576  0.1596  0.1234
  494MOL0     N65126   5.721  10.483   2.775 -0.3839 -0.4040  0.1131
  494MOL0     N65127   5.799  10.396   2.836  0.5399 -0.1995  0.1889
  494MOL0     C65128   6.890  10.384   2.771 -1.0081 -0.3114 -0.0067
  494MOL0     C65129   7.011  10.427   2.830  0.6844  0.9277  0.3545
  494MOL0     C65130   7.264  10.532   3.215  0.1795  0.4278 -0.0084
  494MOL0     C65131   7.273  10.517   3.348 -0.3196  0.5182 -0.5320
  494MOL0     C65132   7.380  10.577   3.421 -0.1552  1.0718  0.7698
  494MOL0     C65133   7.481  10.649   3.349 -0.5385 -0.5395 -0.2922
  494MOL0     O65134   7.583  10.724   3.404  0.1183  0.5571  0.3177
  494MOL0     C65135   7.632  10.678   3.530  0.6719 -0.3351 -0.2382
  494MOL0     C65136   7.691  10.539   3.515 -0.2374  0.7922  0.3049
  494MOL0     C65137   7.815  10.539   3.428  0.2870  0.1133  0.2209
  494MOL0     C65138   7.933  10.588   3.509 -0.0035  0.0339 -0.8669
  494MOL0     C65139   8.052  10.605   3.426 -0.5730  0.9405  0.1710
  494MOL0     C65140   8.143  10.598   3.345  0.2273  0.2984 -0.4344
  494MOL0     C65141   7.462  10.673   3.209  0.5837 -0.0098  0.6396
  494MOL0     C65142   7.354  10.614   3.151  0.2061 -0.6338  0.1082
  494MOL0     H65143   6.890  10.563   3.111  3.1208 -1.5146  0.2468
  494MOL0     H65144   6.664  10.475   3.002 -0.1057 -0.5732  0.0575
  494MOL0     H65145   6.679  10.386   2.558 -0.9447 -0.8452  0.0308
  494MOL0     H65146   6.644  10.530   2.660 -2.2668  0.3673  1.5636
  494MOL0     H65147   6.455  10.298   2.588 -1.0951 -0.4363 -2.4411
  494MOL0     H65148   6.484  10.443   2.488  0.6727  1.0019 -0.6471
  494MOL0     H65149   6.394  10.593   2.642 -1.8523 -0.3342 -0.9657
  494MOL0     H65150   6.398  10.473   2.778 -0.2053 -1.0187  0.4563
  494MOL0     H65151   6.188  10.563   2.712 -2.0929 -0.7526 -0.1074
  494MOL0     H65152   6.195  10.485   2.549  3.0530  0.2915 -0.9049
  494MOL0     H65153   6.113  10.353   2.805 -1.8130  0.5261 -0.7828
  494MOL0     H65154   6.248  10.266   2.724 -0.4107 -1.0563 -2.4047
  494MOL0     H65155   6.126  10.245   2.521  0.0437  2.2315 -0.4219
  494MOL0     H65156   5.986  10.345   2.583 -0.8590 -1.3766  0.2735
  494MOL0     H65157   5.928  10.113   2.588  0.0574 -2.0423  0.0418
  494MOL0     H65158   6.072  10.066   2.673 -0.8736 -0.7016  1.0630
  494MOL0     H65159   5.989  10.203   2.862 -0.3765  1.9931  0.4737
  494MOL0     H65160   5.869  10.091   2.810 -2.1610  1.1985  1.1849
  494MOL0     H65161   5.722  10.251   2.554 -2.4534 -1.5708  1.6379
  494MOL0     H65162   5.602  10.508   2.467 -2.5153 -0.3817 -0.4467
  494MOL0     H65163   5.577  10.622   2.604  1.8688  0.9057  0.0600
  494MOL0     H65164   5.376  10.524   2.534  3.3219  1.5912 -0.0710
  494MOL0     H65165   5.411  10.450   2.689 -3.0322  0.4096 -0.7565
  494MOL0     H65166   5.447  10.310   2.418 -0.8384 -1.2926 -0.3689
  494MOL0     H65167   5.461  10.235   2.577 -2.1467 -0.3865  0.3528
  494MOL0     H65168   5.266  10.167   2.533 -6.0814 -0.4878  0.9484
  494MOL0     H65169   5.226  10.306   2.431 -1.2644  4.1116  1.3027
  494MOL0     H65170   5.032  10.482   2.789  0.1736  1.3233 -1.4257
  494MOL0     H65171   4.790  10.475   2.804 -1.8164 -0.6050 -0.7814
  494MOL0     H65172   4.371  10.208   2.799 -3.2597 -1.0533 -0.9493
  494MOL0     H65173   4.135  10.240   2.844  1.3365  0.7584  2.5357
  494MOL0     H65174   3.915  10.566   2.691  3.7542  0.1054  0.8332
  494MOL0     H65175   3.959  10.645   2.841  2.9355 -2.3642  1.8877
  494MOL0     H65176   3.715  10.637   2.834  2.2616  2.2895  0.9848
  494MOL0     H65177   3.764  10.540   2.965 -1.2547  3.0328  0.3217
  494MOL0     H65178   3.742  10.328   2.804  1.2736 -0.4584 -2.5885
  494MOL0     H65179   3.735  10.428   2.667  1.7844 -1.4170  0.3132
  494MOL0     H65180   3.530  10.392   2.898 -2.5874 -1.3389 -1.3585
  494MOL0     H65181   3.506  10.520   2.776 -0.2402  0.5611  0.5139
  494MOL0     H65182   3.529  10.213   2.729 -0.6930 -1.0474  0.3017
  494MOL0     H65183   3.531  10.333   2.597  0.6183 -0.2525  0.0242
  494MOL0     H65184   3.315  10.421   2.654 -3.1573  0.0142  1.5639
  494MOL0     H65185   3.294  10.320   2.795  0.5911  1.8356  0.7766
  494MOL0     H65186   3.369  10.185   2.534  0.3833 -1.0852  1.0633
  494MOL0     H65187   3.290  10.122   2.678  0.7466 -0.7344 -1.0852
  494MOL0     H65188   3.129  10.163   2.465 -0.9550  0.5904 -0.8987
  494MOL0     H65189   3.156  10.332   2.492 -2.0855  0.6540  1.4175
  494MOL0     H65190   4.161  10.655   2.757 -0.8622  0.2870 -2.8020
  494MOL0     H65191   4.396  10.638   2.703  3.3150 -0.0206  1.1910
  494MOL0     H65192   4.777  10.206   2.471  0.1060  2.0541 -2.5252
  494MOL0     H65193   5.026  10.225   2.447  0.0465  0.9754 -1.1138
  494MOL0     H65194   6.882  10.332   2.675 -1.1841 -1.4133  0.5860
  494MOL0     H65195   7.107  10.410   2.783  1.1308 -1.1195  1.8602
  494MOL0     H65196   7.202  10.459   3.406  0.1858  1.6050  1.2707
  494MOL0     H65197   7.383  10.565   3.529  0.6714  1.7711  0.8316
  494MOL0     H65198   7.549  10.681   3.602 -0.4891 -0.6617 -1.5191
  494MOL0     H65199   7.702  10.752   3.571  0.8382 -0.6934  0.1279
  494MOL0     H65200   7.723  10.501   3.612 -0.7029 -3.7505 -1.0539
  494MOL0     H65201   7.617  10.474   3.467 -0.7482  1.3041  0.3830
  494MOL0     H65202   7.799  10.608   3.344  1.1118  2.1698  1.6729
  494MOL0     H65203   7.837  10.439   3.390  0.9797  0.2438  0.2560
  494MOL0     H65204   7.919  10.686   3.555  2.8769  0.0259  0.2648
  494MOL0     H65205   7.958  10.519   3.591  1.4443 -1.1380 -2.2244
  494MOL0     H65206   8.208  10.593   3.260 -0.8136  1.4494 -1.3263
  494MOL0     H65207   7.532  10.737   3.157  0.3807 -0.0691  0.2911
  494MOL0     H65208   7.341  10.624   3.044  1.1231 -1.5861 -0.1174
  495MOL0     O65209   3.700   2.900   8.210  0.2206  0.5146 -0.2370
  495MOL0     C65210   3.799   2.845   8.253 -0.5058  1.0399  0.1129
  495MOL0     O65211   3.827   2.709   8.248  0.1057 -0.1253 -0.1411
  495MOL0     C65212   3.736   2.627   8.194 -0.0565  0.4932  0.2661
  495MOL0     C65213   3.609   2.598   8.255 -1.1728 -0.0515  0.6933
  495MOL0     C65214   3.538   2.490   8.204  0.3107 -0.1434  0.0837
  495MOL0     C65215   3.568   2.421   8.085  0.0375 -0.3628 -0.3281
  495MOL0     O65216   3.505   2.316   8.024 -1.2410  0.1866  0.6201
  495MOL0     C65217   3.382   2.259   8.061 -0.4872 -0.3621 -0.0196
  495MOL0     C65218   3.349   2.142   7.960  0.3942 -0.1599 -0.6088
  495MOL0     C65219   3.232   2.056   8.013  0.0504  0.7889  0.6475
  495MOL0     C65220   3.199   1.944   7.909 -0.1460 -0.4892  0.5855
  495MOL0     C65221   3.057   1.901   7.902  0.1660 -0.3096 -0.2699
  495MOL0     C65222   2.993   1.855   8.037  0.6100 -0.3215 -0.6422
  495MOL0     C65223   2.870   1.757   8.022 -0.1934  0.2738 -0.2060
  495MOL0     C65224   2.920   1.624   7.972 -0.0482  0.3251  0.4781
  495MOL0     N65225   2.808   1.529   7.970 -0.4207 -0.4438  0.6975
  495MOL0     C65226   2.752   1.449   8.063 -0.7683  0.0488  0.5770
  495MOL0     C65227   2.637   1.402   8.015  0.7081  0.6519  0.0156
  495MOL0     C65228   2.539   1.322   8.093 -0.1617  0.1467 -0.2578
  495MOL0     C65229   2.579   1.169   8.109  0.5984  0.4587  0.3436
  495MOL0     C65230   2.556   1.081   7.980  0.1969  0.3698 -0.5173
  495MOL0     C65231   2.412   1.049   7.953  0.5617 -0.3648  0.2133
  495MOL0     O65232   2.400   0.982   7.834  0.2535 -0.0845  0.4131
  495MOL0     C65233   2.280   0.933   7.799  0.8278 -0.4012 -0.3841
  495MOL0     C65234   2.262   0.903   7.664 -0.2854 -1.2389 -0.6754
  495MOL0     C65235   2.153   0.831   7.617 -1.1340  0.4293 -0.3653
  495MOL0     C65236   2.054   0.778   7.706  0.3041  0.4096  0.4484
  495MOL0     C65237   1.962   0.679   7.652 -0.2347  0.3495  0.0286
  495MOL0     O65238   1.974   0.649   7.516 -0.2474  0.2248 -0.6157
  495MOL0     C65239   1.874   0.566   7.468  0.7076 -0.2766 -0.6109
  495MOL0     C65240   1.887   0.429   7.468 -0.6472 -0.5169  0.2871
  495MOL0     C65241   1.779   0.350   7.421 -0.4138  0.2040 -0.0622
  495MOL0     C65242   1.669   0.405   7.350  0.1744  0.3182  0.0622
  495MOL0     O65243   1.572   0.337   7.290  0.0088 -0.3365  0.3828
  495MOL0     C65244   1.613   0.205   7.231  0.2819  0.0581  0.0540
  495MOL0     C65245   1.516   0.157   7.140  0.9388 -0.4091  0.0104
  495MOL0     C65246   1.537   0.200   6.990 -0.1525  0.1402 -0.3859
  495MOL0     C65247   1.542   0.357   6.983  0.3525  0.5335  0.1554
  495MOL0     C65248   1.523   0.390   6.826 -0.6119 -0.1347 -0.6694
  495MOL0     C65249   1.418   0.505   6.808 -0.1670 -0.4310 -0.2089
  495MOL0     C65250   1.467   0.646   6.853 -0.6340  0.2479  0.2453
  495MOL0     C65251   1.348   0.755   6.844  0.5674 -0.1917  0.3960
  495MOL0    Cl65252   1.195   0.691   6.919 -0.5732  0.6912  0.4552
  495MOL0     C65253   1.654   0.544   7.361 -0.5096 -0.7007 -0.0014
  495MOL0     C65254   1.754   0.620   7.418  0.4888  0.1822  0.0727
  495MOL0     O65255   1.880   0.633   7.726  0.1963  0.1446  0.6237
  495MOL0     C65256   2.061   0.816   7.836 -0.7102 -0.5262 -0.3695
  495MOL0     C65257   2.175   0.885   7.886  0.9591 -0.6166  0.1455
  495MOL0     N65258   2.630   1.442   7.884 -0.2646  0.0055  0.5661
  495MOL0     N65259   2.740   1.504   7.858 -0.5331  0.0417 -0.0898
  495MOL0     C65260   3.690   2.457   8.032 -0.5052  0.0699  0.4255
  495MOL0     C65261   3.771   2.558   8.076  0.1520  0.9045 -0.8082
  495MOL0     C65262   3.897   2.918   8.333  0.4201  0.2503 -0.0384
  495MOL0     C65263   3.921   3.050   8.298  1.3987 -0.9410  0.3853
  495MOL0     C65264   4.029   3.121   8.355  0.2887  0.2363  0.4441
  495MOL0     C65265   4.125   3.057   8.424 -0.5671  0.5445 -0.0047
  495MOL0     O65266   4.240   3.133   8.454 -0.5192 -0.7921  0.1530
  495MOL0     C65267   4.354   3.073   8.527  0.9323 -0.5273  0.8973
  495MOL0     C65268   4.476   3.168   8.531  0.1267 -0.0163 -0.0629
  495MOL0     C65269   4.526   3.213   8.391  0.1689 -0.1306 -1.0826
  495MOL0     C65270   4.515   3.362   8.369 -0.4923  0.0353  0.0229
  495MOL0     C65271   4.576   3.395   8.240 -0.0476 -1.4866 -0.6626
  495MOL0     C65272   4.643   3.432   8.148 -0.5950  0.2122  0.4697
  495MOL0     C65273   4.104   2.921   8.468 -0.4831 -0.2364 -0.4289
  495MOL0     C65274   3.992   2.856   8.415  0.1688  0.4263 -0.1775
  495MOL0     H65275   3.582   2.653   8.344 -0.7288  2.8226 -0.8095
  495MOL0     H65276   3.450   2.463   8.262 -0.2577  1.8782  0.2429
  495MOL0     H65277   3.301   2.333   8.056 -0.5632 -0.4594 -0.3087
  495MOL0     H65278   3.387   2.216   8.161  2.5710 -0.8415 -0.3104
  495MOL0     H65279   3.432   2.073   7.944  0.1247 -0.4470 -0.7924
  495MOL0     H65280   3.319   2.187   7.864  1.9171 -2.2537 -2.1390
  495MOL0     H65281   3.146   2.123   8.019  0.9151  1.9551  0.5466
  495MOL0     H65282   3.257   2.009   8.109  0.3297 -2.3423 -0.8539
  495MOL0     H65283   3.225   1.988   7.812  1.0570 -2.1321  0.1253
  495MOL0     H65284   3.262   1.860   7.941  2.6049  1.4790  0.7062
  495MOL0     H65285   3.037   1.824   7.826 -1.2529  0.2149 -0.4619
  495MOL0     H65286   2.988   1.983   7.880  0.5418  0.0619 -0.0744
  495MOL0     H65287   2.978   1.944   8.100  3.1748 -0.3061  0.0805
  495MOL0     H65288   3.072   1.797   8.087  4.4229 -0.2106 -5.7547
  495MOL0     H65289   2.830   1.747   8.124  1.2464 -2.1448  0.2075
  495MOL0     H65290   2.790   1.803   7.963 -1.2026  1.9223  2.3032
  495MOL0     H65291   3.004   1.584   8.030  0.5413 -1.7012 -1.6068
  495MOL0     H65292   2.948   1.636   7.867  0.7273 -1.7613  0.3915
  495MOL0     H65293   2.791   1.438   8.164 -0.9390  2.5710  0.9930
  495MOL0     H65294   2.437   1.331   8.056 -0.4904  1.5164  0.8710
  495MOL0     H65295   2.533   1.367   8.192  1.3981  1.2012 -0.6049
  495MOL0     H65296   2.518   1.120   8.186  0.3088 -2.1981 -1.4198
  495MOL0     H65297   2.685   1.159   8.136  0.3865  2.7859  2.4654
  495MOL0     H65298   2.610   1.127   7.897  0.5421  0.7806 -0.0697
  495MOL0     H65299   2.602   0.982   7.990 -3.1086 -1.4404 -1.7530
  495MOL0     H65300   2.372   1.148   7.931  1.5359 -0.2845 -1.3673
  495MOL0     H65301   2.355   1.004   8.035  0.4452 -1.3825 -0.4121
  495MOL0     H65302   2.343   0.929   7.597 -0.9990 -3.0787 -2.3320
  495MOL0     H65303   2.154   0.800   7.513 -0.5831  0.0944 -0.2682
  495MOL0     H65304   1.971   0.383   7.519  0.1993 -2.1089 -2.3230
  495MOL0     H65305   1.797   0.243   7.427 -1.7823  0.0157  1.7058
  495MOL0     H65306   1.622   0.141   7.319  2.7873  1.1886  0.7177
  495MOL0     H65307   1.711   0.209   7.182 -0.1834 -1.4033 -1.0870
  495MOL0     H65308   1.419   0.196   7.173  1.0603 -0.5344  0.5214
  495MOL0     H65309   1.513   0.048   7.145  2.9765 -0.4839  0.3430
  495MOL0     H65310   1.452   0.163   6.932  0.2695  1.3376 -1.8359
  495MOL0     H65311   1.623   0.149   6.946  1.4058  2.5032 -0.3260
  495MOL0     H65312   1.461   0.397   7.045 -1.7063  0.1067 -2.1421
  495MOL0     H65313   1.637   0.397   7.019  1.4019 -1.4180 -0.3215
  495MOL0     H65314   1.494   0.304   6.764 -2.4323 -0.1253  0.0966
  495MOL0     H65315   1.621   0.417   6.786 -0.5437 -2.0058 -1.9227
  495MOL0     H65316   1.335   0.471   6.871  0.4880 -0.5796  0.5972
  495MOL0     H65317   1.395   0.510   6.701 -0.7886  1.6555 -0.0128
  495MOL0     H65318   1.513   0.626   6.950  1.2762 -1.0814 -0.8773
  495MOL0     H65319   1.540   0.659   6.772  0.3175 -2.5473  0.5470
  495MOL0     H65320   1.334   0.764   6.736 -0.1407 -2.1084  0.2798
  495MOL0     H65321   1.387   0.847   6.889 -0.5869 -0.0727  1.2036
  495MOL0     H65322   1.566   0.594   7.320 -0.7775  0.4388  1.8797
  495MOL0     H65323   1.741   0.728   7.412 -4.0327 -0.0309  1.8465
  495MOL0     H65324   1.988   0.781   7.908 -1.6054  1.9854  0.0221
  495MOL0     H65325   2.188   0.908   7.991 -0.2378 -0.5552  0.2909
  495MOL0     H65326   3.724   2.406   7.943 -3.0660 -3.1063  1.0289
  495MOL0     H65327   3.874   2.572   8.047 -0.1295 -0.0158 -2.3262
  495MOL0     H65328   3.845   3.097   8.236  0.8914 -2.0996  0.0832
  495MOL0     H65329   4.042   3.225   8.329 -1.7798  0.8461  1.6436
  495MOL0     H65330   4.379   2.975   8.484  1.2959  0.6298 -1.7597
  495MOL0     H65331   4.323   3.056   8.630  1.1927  0.6185  1.1831
  495MOL0     H65332   4.450   3.251   8.598 -0.4096 -0.7809  0.6890
  495MOL0     H65333   4.561   3.118   8.579  1.1498  0.6798 -1.0825
  495MOL0     H65334   4.464   3.171   8.311 -0.1100  1.6097 -1.8329
  495MOL0     H65335   4.630   3.181   8.383  0.5573  1.1260 -1.2765
  495MOL0     H65336   4.411   3.394   8.382 -0.3124 -0.4906  4.0125
  495MOL0     H65337   4.571   3.422   8.442  1.3860 -0.0532 -1.2831
  495MOL0     H65338   4.698   3.453   8.059  0.5713 -1.7231  0.6831
  495MOL0     H65339   4.171   2.858   8.527  0.5935 -1.6945 -3.0522
  495MOL0     H65340   3.980   2.748   8.425 -0.1447  0.3734 -0.9979
  496MOL0     O65341   5.809   8.528   5.660  0.1002 -0.4003  0.0368
  496MOL0     C65342   5.891   8.465   5.726 -0.0910 -0.1397  0.1922
  496MOL0     O65343   5.864   8.364   5.812 -0.2400  0.4377  0.2752
  496MOL0     C65344   5.738   8.307   5.800  0.7357 -0.4520 -0.0543
  496MOL0     C65345   5.710   8.201   5.710 -0.0424 -1.0374  0.3213
  496MOL0     C65346   5.588   8.141   5.698  0.9013  0.8082 -0.3818
  496MOL0     C65347   5.482   8.175   5.787 -0.7687 -0.3021  0.2646
  496MOL0     O65348   5.375   8.096   5.793  0.0739 -0.1750  1.0555
  496MOL0     C65349   5.247   8.157   5.801  0.1373 -0.4191 -0.6897
  496MOL0     C65350   5.135   8.069   5.750 -0.8253  0.7778 -1.1103
  496MOL0     C65351   4.992   8.114   5.807 -0.7988  0.1114 -0.0020
  496MOL0     C65352   4.872   8.047   5.737 -0.3120  0.3074 -0.3877
  496MOL0     C65353   4.727   8.086   5.768 -0.1620 -0.2922  0.2268
  496MOL0     C65354   4.617   8.033   5.681  1.2304  0.0486  0.3331
  496MOL0     C65355   4.484   8.060   5.748 -0.0873  0.4078 -0.5921
  496MOL0     C65356   4.356   7.993   5.685 -0.6794 -0.3523 -0.4554
  496MOL0     N65357   4.230   8.056   5.732  0.6152  0.8881  0.5462
  496MOL0     C65358   4.181   8.062   5.859  0.1661  0.2737  1.1258
  496MOL0     C65359   4.086   8.159   5.851 -0.3117  0.0336 -0.5318
  496MOL0     C65360   4.003   8.208   5.969  0.1048 -0.2402  0.0724
  496MOL0     C65361   4.040   8.133   6.107  0.5973  0.1279 -0.1708
  496MOL0     C65362   3.939   8.193   6.220 -0.2842 -0.3491  1.5679
  496MOL0     C65363   3.797   8.160   6.179 -1.0708  0.3178  0.0936
  496MOL0     O65364   3.745   8.088   6.289  0.2237 -0.6258 -0.4379
  496MOL0     C65365   3.612   8.041   6.275 -0.0497 -0.0422 -0.4360
  496MOL0     C65366   3.519   8.072   6.174 -0.4226 -0.0941  0.1612
  496MOL0     C65367   3.392   8.015   6.178 -0.0600 -0.0461 -0.3873
  496MOL0     C65368   3.354   7.927   6.277 -0.3952 -0.2806  0.6550
  496MOL0     C65369   3.230   7.848   6.260  0.0344 -0.3881  0.5167
  496MOL0     O65370   3.205   7.766   6.364  0.3898  0.1838  0.3059
  496MOL0     C65371   3.111   7.669   6.334 -0.1986 -0.7351  0.7018
  496MOL0     C65372   3.155   7.538   6.328 -0.1266  0.2143  0.0476
  496MOL0     C65373   3.071   7.437   6.284  0.0419  0.8779  0.2379
  496MOL0     C65374   2.933   7.464   6.266 -0.8920  0.3495  0.5568
  496MOL0     O65375   2.853   7.358   6.225  0.0700  0.3064  0.1642
  496MOL0     C65376   2.718   7.367   6.256 -0.4464 -0.5560 -0.0747
  496MOL0     C65377   2.657   7.228   6.246  1.0484  0.4266 -0.4798
  496MOL0     C65378   2.517   7.224   6.292  1.0358 -0.0164 -0.0899
  496MOL0     C65379   2.489   7.188   6.442  0.5615  0.4077  0.2040
  496MOL0     C65380   2.474   7.040   6.467  0.0321  0.9517 -1.0200
  496MOL0     C65381   2.324   7.009   6.435  0.0522 -0.1562  0.3550
  496MOL0     C65382   2.314   6.856   6.444 -0.2496 -0.6988  0.4224
  496MOL0     C65383   2.171   6.819   6.467  0.2027  0.2947  0.0829
  496MOL0    Cl65384   2.177   6.638   6.458 -0.2390  0.2328 -0.3094
  496MOL0     C65385   2.888   7.600   6.269 -0.1390 -0.7550  0.2736
  496MOL0     C65386   2.973   7.702   6.307  0.4949  0.0916 -0.3176
  496MOL0     O65387   3.157   7.863   6.163  0.2269 -0.4574  0.0408
  496MOL0     C65388   3.438   7.897   6.385 -0.5460  0.2491 -0.1829
  496MOL0     C65389   3.570   7.952   6.376 -0.3093 -0.0682  0.5200
  496MOL0     N65390   4.069   8.191   5.716  0.3520 -0.3363 -0.0543
  496MOL0     N65391   4.150   8.123   5.641  0.0793  1.0861 -0.3353
  496MOL0     C65392   5.504   8.286   5.865  0.3180  1.4913  0.2641
  496MOL0     C65393   5.635   8.344   5.886 -0.3119  0.6360 -0.6932
  496MOL0     C65394   6.020   8.520   5.718 -0.1434  0.1214  0.0082
  496MOL0     C65395   6.121   8.440   5.774 -0.3085 -0.7198  0.1834
  496MOL0     C65396   6.260   8.491   5.779 -0.5428 -0.1842  0.6264
  496MOL0     C65397   6.283   8.621   5.722  0.4983 -0.2115  0.4156
  496MOL0     O65398   6.405   8.686   5.712  0.3025  0.1648 -0.2552
  496MOL0     C65399   6.515   8.641   5.793 -0.3857  0.6778 -0.1660
  496MOL0     C65400   6.647   8.701   5.731 -0.1436  0.0859 -0.7751
  496MOL0     C65401   6.764   8.669   5.826 -0.0974 -0.4925  0.1916
  496MOL0     C65402   6.894   8.745   5.797 -0.5536 -0.1660 -0.9321
  496MOL0     C65403   6.934   8.728   5.668  0.4426 -0.2117  0.2390
  496MOL0     C65404   6.955   8.708   5.549  0.0131 -0.4210 -0.6987
  496MOL0     C65405   6.182   8.689   5.652  0.2857  0.0099  0.3948
  496MOL0     C65406   6.050   8.636   5.647  0.0391 -0.4269 -0.2146
  496MOL0     H65407   5.798   8.183   5.649  1.9170  1.2862  2.2349
  496MOL0     H65408   5.579   8.060   5.627  0.4557  0.4265  0.1067
  496MOL0     H65409   5.238   8.252   5.747 -2.0193  0.1816  0.6204
  496MOL0     H65410   5.233   8.179   5.907 -0.8089  2.0350 -1.2519
  496MOL0     H65411   5.154   7.969   5.791 -2.9400  2.0273  3.5696
  496MOL0     H65412   5.132   8.068   5.640 -1.6113  1.8912 -1.1187
  496MOL0     H65413   4.983   8.221   5.783 -1.3937 -0.3302 -1.8538
  496MOL0     H65414   4.976   8.106   5.915 -1.6062  1.3739 -0.0053
  496MOL0     H65415   4.886   8.063   5.629  1.8597 -2.2326 -0.6102
  496MOL0     H65416   4.874   7.938   5.745 -3.3384  0.1907 -0.3691
  496MOL0     H65417   4.727   8.195   5.773 -0.2204  0.1752 -4.8267
  496MOL0     H65418   4.709   8.052   5.871 -2.4867  0.0189 -0.0336
  496MOL0     H65419   4.643   7.930   5.656 -0.3083 -0.5009  0.8820
  496MOL0     H65420   4.609   8.089   5.587 -1.4918 -1.1667 -0.2551
  496MOL0     H65421   4.495   8.044   5.856  1.1508  1.9784 -0.4458
  496MOL0     H65422   4.466   8.168   5.743  1.3222  0.7153  0.3770
  496MOL0     H65423   4.364   7.886   5.708  1.3541 -0.4537 -1.4194
  496MOL0     H65424   4.360   7.999   5.576  4.5283  1.8351 -0.4405
  496MOL0     H65425   4.205   8.017   5.955  1.7286 -0.7303  0.3087
  496MOL0     H65426   3.902   8.180   5.937  0.3957 -1.5716  0.2658
  496MOL0     H65427   4.014   8.315   5.985 -0.9658 -0.3577  1.8744
  496MOL0     H65428   4.142   8.155   6.141  0.6802 -1.4025  0.6347
  496MOL0     H65429   4.024   8.025   6.107 -0.6933  0.2817 -1.4485
  496MOL0     H65430   3.965   8.141   6.313 -1.7454  0.3045  2.3807
  496MOL0     H65431   3.950   8.301   6.229  1.0144  0.1254 -3.1041
  496MOL0     H65432   3.794   8.100   6.088 -2.5750  2.0903 -1.0991
  496MOL0     H65433   3.743   8.252   6.154 -0.8695  1.6777  3.8884
  496MOL0     H65434   3.555   8.135   6.093  2.8979 -2.1959 -0.2087
  496MOL0     H65435   3.328   8.040   6.094  3.2487 -0.5842 -3.3255
  496MOL0     H65436   3.256   7.502   6.347 -0.2826 -0.6145 -0.6246
  496MOL0     H65437   3.115   7.341   6.256  0.6840  1.4762 -0.8480
  496MOL0     H65438   2.663   7.433   6.187  1.6185  1.7372  0.3190
  496MOL0     H65439   2.713   7.408   6.357  0.7878  1.4651 -0.7645
  496MOL0     H65440   2.711   7.151   6.302 -1.0858 -1.9785 -1.4961
  496MOL0     H65441   2.666   7.200   6.140 -0.2590 -1.3726 -0.1734
  496MOL0     H65442   2.473   7.148   6.226 -0.4960  0.4508  0.3492
  496MOL0     H65443   2.462   7.310   6.254 -0.0244 -0.5751  0.1308
  496MOL0     H65444   2.566   7.235   6.504 -1.0438  2.8579  0.4711
  496MOL0     H65445   2.393   7.233   6.467  0.2253  0.1703 -0.6153
  496MOL0     H65446   2.496   7.008   6.569  2.4053  1.4496 -1.3197
  496MOL0     H65447   2.545   6.981   6.408 -0.4733 -1.7281  0.8763
  496MOL0     H65448   2.298   7.049   6.337 -0.7192 -2.0850 -0.2871
  496MOL0     H65449   2.260   7.054   6.510  0.7747 -0.9414  1.4803
  496MOL0     H65450   2.352   6.804   6.356 -1.8734 -0.3679 -0.5201
  496MOL0     H65451   2.359   6.816   6.535  0.6719  0.9998  0.7596
  496MOL0     H65452   2.101   6.856   6.391  1.9881 -0.8204 -2.2271
  496MOL0     H65453   2.151   6.859   6.567  2.9424  1.8562  0.1017
  496MOL0     H65454   2.783   7.626   6.255  0.4579  0.5556 -2.3236
  496MOL0     H65455   2.924   7.799   6.310 -0.8108 -0.5704  0.9943
  496MOL0     H65456   3.412   7.832   6.468  0.1114  1.9818  1.4268
  496MOL0     H65457   3.646   7.916   6.445 -0.5749 -0.1131  0.7934
  496MOL0     H65458   5.425   8.313   5.934 -0.0029  0.2829  0.3919
  496MOL0     H65459   5.660   8.421   5.960  2.2964 -2.0742  1.4903
  496MOL0     H65460   6.113   8.346   5.827 -2.1268  0.1726  1.5923
  496MOL0     H65461   6.344   8.440   5.824  0.2465 -0.1857 -0.8003
  496MOL0     H65462   6.530   8.533   5.797  0.3483  0.7097 -1.3125
  496MOL0     H65463   6.506   8.689   5.890  0.7277 -0.9117  0.7621
  496MOL0     H65464   6.666   8.663   5.630  1.0246  0.0895 -0.5655
  496MOL0     H65465   6.635   8.809   5.727  1.3892  0.3176  0.1107
  496MOL0     H65466   6.784   8.562   5.820  2.3861 -0.1349  0.9468
  496MOL0     H65467   6.732   8.686   5.929 -0.1938  2.1585 -0.2161
  496MOL0     H65468   6.882   8.853   5.810 -1.1146 -0.1113 -1.8635
  496MOL0     H65469   6.966   8.718   5.875  1.7740 -1.5897 -3.3919
  496MOL0     H65470   6.968   8.712   5.442 -2.2092  4.0161 -1.0171
  496MOL0     H65471   6.209   8.777   5.594  1.7966 -1.0843 -0.6286
  496MOL0     H65472   5.968   8.688   5.599  0.0685  1.7609  1.9260
  497MOL0     O65473   5.821   2.771   7.074  0.5890 -0.6722 -0.1564
  497MOL0     C65474   5.889   2.743   6.975  0.1832 -0.4980  0.7214
  497MOL0     O65475   5.844   2.715   6.854 -0.1979 -0.2355  0.5359
  497MOL0     C65476   5.711   2.710   6.840 -0.7154  0.3883 -0.6166
  497MOL0     C65477   5.627   2.616   6.916 -0.1238 -0.1965  0.1319
  497MOL0     C65478   5.490   2.634   6.910  0.0512 -0.5339  0.1115
  497MOL0     C65479   5.424   2.729   6.832 -0.4954 -0.3686 -0.0893
  497MOL0     O65480   5.287   2.751   6.816  0.0084  1.2748  0.0479
  497MOL0     C65481   5.197   2.696   6.916 -0.3812  0.3318 -0.1655
  497MOL0     C65482   5.081   2.790   6.920  0.2885 -0.5814  0.3060
  497MOL0     C65483   4.970   2.725   7.001 -0.0475 -0.3145 -0.0733
  497MOL0     C65484   4.874   2.628   6.931 -0.1690  1.3616 -0.1454
  497MOL0     C65485   4.763   2.593   7.033 -0.1865 -0.3632  0.8381
  497MOL0     C65486   4.694   2.466   6.987 -0.0174  0.2947  0.3357
  497MOL0     C65487   4.540   2.476   6.966 -0.0540  0.0671  0.3817
  497MOL0     C65488   4.505   2.527   6.826  0.9092 -1.1005 -1.3670
  497MOL0     N65489   4.361   2.535   6.811  0.1259  0.4687 -0.6096
  497MOL0     C65490   4.292   2.439   6.734  0.0156 -0.0820 -0.4130
  497MOL0     C65491   4.158   2.469   6.751 -0.3185  0.1050 -0.7239
  497MOL0     C65492   4.042   2.388   6.692  0.0818  0.1258 -0.5938
  497MOL0     C65493   3.915   2.395   6.778 -0.4031 -0.3806  0.0143
  497MOL0     C65494   3.799   2.334   6.702  1.2028  0.1941  0.0690
  497MOL0     C65495   3.666   2.353   6.787 -0.1551  0.4527  0.0019
  497MOL0     O65496   3.635   2.494   6.797 -0.0808 -0.2783 -0.3548
  497MOL0     C65497   3.511   2.537   6.846  0.1245  0.4721  0.2645
  497MOL0     C65498   3.418   2.443   6.888  0.3955 -0.5759  0.3105
  497MOL0     C65499   3.293   2.484   6.923  0.1679  0.1099 -0.1096
  497MOL0     C65500   3.255   2.620   6.926 -0.2035  0.3138 -0.0094
  497MOL0     C65501   3.112   2.667   6.962 -1.0721 -0.6244 -0.3037
  497MOL0     O65502   3.013   2.574   6.971 -0.7904 -0.3624 -0.3450
  497MOL0     C65503   2.892   2.601   7.028  0.4374 -0.4644 -0.4699
  497MOL0     C65504   2.804   2.493   7.040 -1.5138  0.3318  0.1956
  497MOL0     C65505   2.670   2.497   7.091 -1.1880 -0.2059 -0.8714
  497MOL0     C65506   2.623   2.619   7.138  0.1273  0.3990 -0.4020
  497MOL0     O65507   2.486   2.635   7.172 -0.1422 -0.6409  0.3955
  497MOL0     C65508   2.440   2.767   7.221  0.3962 -0.3596  0.9512
  497MOL0     C65509   2.284   2.765   7.217  0.0284 -0.3573 -0.1090
  497MOL0     C65510   2.232   2.668   7.326 -0.4943  0.0897 -0.0487
  497MOL0     C65511   2.082   2.647   7.309 -0.3349 -0.7472 -0.3489
  497MOL0     C65512   2.024   2.551   7.195 -0.1636  0.0560  0.3055
  497MOL0     C65513   2.096   2.408   7.181 -0.3088  0.2310  0.1276
  497MOL0     C65514   2.022   2.334   7.074 -0.1019 -0.2840 -0.2453
  497MOL0     C65515   2.056   2.186   7.067  0.2032 -0.4937 -0.2452
  497MOL0    Cl65516   2.235   2.164   7.047 -0.0437 -0.5835  0.1049
  497MOL0     C65517   2.721   2.726   7.144 -0.4069 -0.3197 -0.0408
  497MOL0     C65518   2.852   2.716   7.086 -0.0143  0.6473 -0.1311
  497MOL0     O65519   3.096   2.789   6.966 -0.3235  0.4350  0.5246
  497MOL0     C65520   3.349   2.719   6.874  0.3128 -0.3477 -0.6198
  497MOL0     C65521   3.478   2.673   6.832 -0.0608 -0.0904 -0.1552
  497MOL0     N65522   4.153   2.573   6.851 -0.4273  0.2157 -0.2460
  497MOL0     N65523   4.274   2.601   6.893  0.1562  0.9526 -0.1987
  497MOL0     C65524   5.500   2.812   6.751  0.9292  0.6973 -0.6237
  497MOL0     C65525   5.645   2.800   6.754  0.7184 -0.6918  0.0980
  497MOL0     C65526   6.032   2.764   6.973 -0.4461  0.0467 -0.8797
  497MOL0     C65527   6.119   2.737   6.866 -0.0647  0.8475  0.1398
  497MOL0     C65528   6.258   2.741   6.881  0.0104 -0.5536  0.3125
  497MOL0     C65529   6.318   2.787   6.999 -0.4011 -0.9359  0.6640
  497MOL0     O65530   6.450   2.784   7.023 -0.0616 -0.0210 -0.2805
  497MOL0     C65531   6.541   2.729   6.924 -0.1470 -0.5269 -0.3624
  497MOL0     C65532   6.675   2.762   6.976 -0.6488 -0.4536 -0.9330
  497MOL0     C65533   6.770   2.671   6.884  0.0824 -1.1271 -0.1478
  497MOL0     C65534   6.918   2.686   6.925  0.5566 -0.3120  0.1621
  497MOL0     C65535   7.010   2.602   6.836  0.3684  0.7401  0.3700
  497MOL0     C65536   7.074   2.543   6.747  0.0122  0.1026 -0.3499
  497MOL0     C65537   6.237   2.822   7.106  0.1481 -0.4291  0.0551
  497MOL0     C65538   6.093   2.805   7.092  0.2828 -0.3763  0.8765
  497MOL0     H65539   5.666   2.541   6.985 -0.0314 -1.4096 -1.1818
  497MOL0     H65540   5.441   2.578   6.989  2.1010 -1.3342  0.8783
  497MOL0     H65541   5.241   2.688   7.016 -2.8087 -1.8033  0.8463
  497MOL0     H65542   5.167   2.594   6.888 -0.4317  0.1071  0.6668
  497MOL0     H65543   5.038   2.820   6.823 -2.3660 -1.0604  1.2518
  497MOL0     H65544   5.109   2.883   6.970 -0.9784  1.6566 -2.8210
  497MOL0     H65545   4.904   2.803   7.040  0.3855  0.4861 -0.9040
  497MOL0     H65546   5.013   2.675   7.088  2.9066 -0.0776 -1.2692
  497MOL0     H65547   4.838   2.677   6.840 -0.5044 -0.6994 -1.1769
  497MOL0     H65548   4.929   2.541   6.894  1.7019  1.2810  2.5917
  497MOL0     H65549   4.693   2.676   7.024  0.7837  0.3083 -1.1881
  497MOL0     H65550   4.796   2.573   7.135 -0.7106 -1.7347  0.7718
  497MOL0     H65551   4.726   2.388   7.056  2.0826  2.1789  1.5958
  497MOL0     H65552   4.730   2.438   6.888  2.7831 -1.3984  1.7022
  497MOL0     H65553   4.487   2.380   6.974 -0.8485  0.4598 -0.1226
  497MOL0     H65554   4.493   2.544   7.037 -1.5593  3.6874 -3.6875
  497MOL0     H65555   4.533   2.458   6.746  1.3123  0.9170 -3.0623
  497MOL0     H65556   4.565   2.616   6.805  1.4459 -2.0207 -4.0413
  497MOL0     H65557   4.340   2.368   6.667 -0.9548  0.8122 -2.1502
  497MOL0     H65558   4.060   2.282   6.672 -0.7601 -1.0945  4.0442
  497MOL0     H65559   4.014   2.432   6.595 -2.3161  2.3606  0.9943
  497MOL0     H65560   3.885   2.497   6.802  1.7269  0.2350  0.1960
  497MOL0     H65561   3.939   2.348   6.874  1.2978 -0.9268 -0.6400
  497MOL0     H65562   3.772   2.378   6.605 -1.2096  0.6060  0.8524
  497MOL0     H65563   3.843   2.234   6.693 -0.1903 -0.3333 -1.4492
  497MOL0     H65564   3.684   2.311   6.886 -0.8929 -1.8372 -0.7552
  497MOL0     H65565   3.586   2.302   6.732  0.8831  0.1269 -1.2578
  497MOL0     H65566   3.440   2.337   6.902  0.3109 -0.5492  0.6515
  497MOL0     H65567   3.217   2.413   6.956  0.0231 -1.2414 -3.1023
  497MOL0     H65568   2.840   2.395   7.010 -2.0026 -0.4468  2.0444
  497MOL0     H65569   2.609   2.408   7.079 -0.5374 -0.4629 -2.4846
  497MOL0     H65570   2.473   2.857   7.168 -0.6257  0.9967  2.5151
  497MOL0     H65571   2.475   2.782   7.323  0.0799  0.3897  0.9635
  497MOL0     H65572   2.248   2.743   7.116  0.9193 -1.2864 -0.2474
  497MOL0     H65573   2.245   2.863   7.248  1.6839 -0.2093  1.7077
  497MOL0     H65574   2.257   2.726   7.415  1.0936  2.1179 -1.7050
  497MOL0     H65575   2.293   2.578   7.336  3.3341  2.6956  3.2947
  497MOL0     H65576   2.041   2.621   7.408 -1.8186 -0.0877 -0.7696
  497MOL0     H65577   2.035   2.745   7.299 -0.4508 -0.7604  0.0144
  497MOL0     H65578   2.034   2.595   7.095 -0.2635 -0.0848  0.2332
  497MOL0     H65579   1.917   2.542   7.217  0.2720 -1.3451  2.0595
  497MOL0     H65580   2.111   2.358   7.277  0.5776  0.2303  0.0002
  497MOL0     H65581   2.197   2.429   7.143 -0.4311 -0.0676 -0.3729
  497MOL0     H65582   1.916   2.354   7.094  0.8602  2.3823  3.0577
  497MOL0     H65583   2.048   2.379   6.978  0.6556  0.4259  0.2845
  497MOL0     H65584   2.007   2.143   6.979 -0.2623 -1.0972  0.2874
  497MOL0     H65585   2.007   2.138   7.153 -2.5754 -0.6469 -1.7975
  497MOL0     H65586   2.708   2.820   7.198  2.9604 -1.1226  2.5156
  497MOL0     H65587   2.910   2.807   7.099 -0.8380  0.9970  1.3148
  497MOL0     H65588   3.331   2.826   6.874  2.3227  0.0470  1.2095
  497MOL0     H65589   3.559   2.725   6.783 -0.4756  1.5861  0.8461
  497MOL0     H65590   5.463   2.877   6.672 -1.3735  2.7939  1.9728
  497MOL0     H65591   5.706   2.873   6.701  1.6606 -0.5756  1.2957
  497MOL0     H65592   6.083   2.693   6.773  0.2174  2.3084 -0.6870
  497MOL0     H65593   6.311   2.696   6.798 -0.4052 -1.5090  0.5445
  497MOL0     H65594   6.527   2.769   6.823 -1.5529 -0.1398 -0.0229
  497MOL0     H65595   6.529   2.620   6.928 -2.4554 -0.2780  1.5064
  497MOL0     H65596   6.703   2.867   6.970  2.3431 -0.8832  2.2881
  497MOL0     H65597   6.684   2.728   7.080 -1.9099  3.2900  0.5779
  497MOL0     H65598   6.756   2.715   6.784  0.4276  2.6549  1.2771
  497MOL0     H65599   6.741   2.566   6.875  1.1680 -1.4135 -0.4815
  497MOL0     H65600   6.936   2.793   6.912  0.3526 -0.3667 -0.6113
  497MOL0     H65601   6.932   2.675   7.033 -2.8617  2.2232  1.0130
  497MOL0     H65602   7.115   2.494   6.661  0.8773 -1.9412  1.1584
  497MOL0     H65603   6.280   2.844   7.203 -1.1145 -0.2100  0.5829
  497MOL0     H65604   6.035   2.821   7.183  1.0869  0.0835  1.3159
  498MOL0     O65605   0.208   1.246   1.957 -0.3276 -0.2216 -0.0788
  498MOL0     C65606   0.286   1.343   1.973  0.8118  0.7210  0.1563
  498MOL0     O65607   0.258   1.471   1.967  0.2395  0.2285 -0.0677
  498MOL0     C65608   0.134   1.512   2.015  0.6509 -0.0760  0.7110
  498MOL0     C65609   0.049   1.445   2.098  0.2568 -0.0309 -0.2217
  498MOL0     C65610  -0.072   1.490   2.144 -0.4455  0.2473  0.1410
  498MOL0     C65611  -0.121   1.613   2.108 -1.0491 -0.3888 -0.5069
  498MOL0     O65612  -0.229   1.648   2.173 -0.0065  0.3251 -0.3343
  498MOL0     C65613  -0.343   1.703   2.107  0.5088 -0.0670  0.3025
  498MOL0     C65614  -0.437   1.757   2.208  0.5502  0.7937  0.1084
  498MOL0     C65615  -0.542   1.656   2.248 -0.3111 -0.0284 -0.0651
  498MOL0     C65616  -0.641   1.733   2.332  0.1644  0.4406 -0.2343
  498MOL0     C65617  -0.766   1.648   2.364  0.0362  0.3352 -0.8014
  498MOL0     C65618  -0.868   1.704   2.464 -0.0261  0.0479  0.1043
  498MOL0     C65619  -0.920   1.844   2.441  0.3067  0.1799 -0.4309
  498MOL0     C65620  -0.987   1.904   2.567 -0.2969 -0.1529  0.4378
  498MOL0     N65621  -1.015   2.044   2.539  0.3340 -0.5298  0.2496
  498MOL0     C65622  -1.101   2.095   2.451 -0.5770  0.0808  1.0613
  498MOL0     C65623  -1.085   2.228   2.454 -0.4190  0.4078  0.2742
  498MOL0     C65624  -1.157   2.331   2.378  0.1161 -0.5419  0.7636
  498MOL0     C65625  -1.306   2.315   2.356 -0.1082  0.5254 -0.0435
  498MOL0     C65626  -1.385   2.332   2.486  0.3382 -0.4591 -0.0648
  498MOL0     C65627  -1.536   2.348   2.454 -0.5083 -0.2601 -0.4940
  498MOL0     O65628  -1.583   2.221   2.413 -0.3021  0.3979  0.6194
  498MOL0     C65629  -1.725   2.196   2.409 -0.5190  0.0906 -0.7571
  498MOL0     C65630  -1.822   2.282   2.456  0.4767 -0.2340  0.0456
  498MOL0     C65631  -1.956   2.242   2.439  0.4316 -0.7459  0.1061
  498MOL0     C65632  -1.993   2.119   2.385 -0.2117  0.0269  0.2307
  498MOL0     C65633  -2.134   2.080   2.365  0.4099  0.0537  0.4881
  498MOL0     O65634  -2.153   1.967   2.294  0.7818 -0.0459  0.4251
  498MOL0     C65635  -2.284   1.945   2.270 -0.4026 -1.4576 -0.5276
  498MOL0     C65636  -2.336   1.993   2.156  0.6951 -0.8396  0.5039
  498MOL0     C65637  -2.465   1.944   2.116  0.4014 -0.5796  0.0991
  498MOL0     C65638  -2.540   1.865   2.190  1.3022  0.5812 -0.7754
  498MOL0     O65639  -2.675   1.834   2.163 -0.2676 -0.0387 -0.0653
  498MOL0     C65640  -2.730   1.864   2.033  0.0133  0.3318  0.0591
  498MOL0     C65641  -2.852   1.785   2.006  0.9101  0.0872  0.1701
  498MOL0     C65642  -2.951   1.825   1.892 -0.5267 -1.1284 -0.3361
  498MOL0     C65643  -3.020   1.968   1.918  0.0294  0.5840 -0.4018
  498MOL0     C65644  -3.091   1.981   2.054  0.0041 -0.0818 -0.2785
  498MOL0     C65645  -3.195   1.869   2.072  0.0478  0.0600 -0.8133
  498MOL0     C65646  -3.306   1.906   2.172 -0.0426  0.0196  0.3861
  498MOL0     C65647  -3.443   1.873   2.111  0.0564  0.4084  0.5472
  498MOL0    Cl65648  -3.551   1.893   2.251 -0.0166  0.2612 -0.0400
  498MOL0     C65649  -2.493   1.835   2.317  0.2346  0.4137 -0.1131
  498MOL0     C65650  -2.362   1.866   2.351 -0.4520 -0.7644 -0.1945
  498MOL0     O65651  -2.222   2.157   2.401 -0.0845 -0.0786 -0.1040
  498MOL0     C65652  -1.888   2.034   2.347 -0.5290  0.0373  0.0634
  498MOL0     C65653  -1.758   2.069   2.351 -0.8800 -0.1245 -0.0485
  498MOL0     N65654  -0.985   2.264   2.537 -0.9079  0.5501  0.2622
  498MOL0     N65655  -0.939   2.151   2.591  0.2721  0.0531 -0.3638
  498MOL0     C65656  -0.046   1.684   2.018 -0.0683  0.9544  0.6481
  498MOL0     C65657   0.078   1.632   1.968 -0.0523 -0.6496  0.3876
  498MOL0     C65658   0.428   1.298   1.981  0.0397  0.0381 -0.6701
  498MOL0     C65659   0.525   1.396   1.946 -0.5133  0.0969  0.2853
  498MOL0     C65660   0.662   1.366   1.947 -0.2607  0.3610  0.3067
  498MOL0     C65661   0.714   1.241   1.980  0.0460 -0.5205  0.3807
  498MOL0     O65662   0.851   1.233   1.971  0.6960  0.2384  0.1734
  498MOL0     C65663   0.910   1.109   1.998 -0.2914 -0.0024 -0.1167
  498MOL0     C65664   1.060   1.124   1.957  0.4046  0.0645 -0.2121
  498MOL0     C65665   1.086   1.153   1.812 -0.0442  0.1935  0.0806
  498MOL0     C65666   1.193   1.265   1.792  0.3082 -0.0682 -0.4388
  498MOL0     C65667   1.317   1.231   1.859  0.1646 -0.3682 -0.6492
  498MOL0     C65668   1.411   1.194   1.921  0.5186 -0.0731 -0.3748
  498MOL0     C65669   0.619   1.144   2.009 -0.7600 -0.1793 -0.9321
  498MOL0     C65670   0.480   1.169   2.004 -0.1576  0.0101  0.8687
  498MOL0     H65671   0.099   1.358   2.140  2.2954  0.2276 -1.9366
  498MOL0     H65672  -0.124   1.424   2.214  1.7617  0.3046  1.9502
  498MOL0     H65673  -0.386   1.629   2.039  0.7863  0.0085  0.0441
  498MOL0     H65674  -0.312   1.779   2.035 -0.9448 -0.3178 -0.6225
  498MOL0     H65675  -0.484   1.850   2.173  1.7271  0.7981 -1.5791
  498MOL0     H65676  -0.374   1.791   2.290  2.1489  2.0329 -1.5430
  498MOL0     H65677  -0.496   1.567   2.292 -1.6909 -0.4665  0.5376
  498MOL0     H65678  -0.603   1.633   2.160  1.1044  0.7535 -1.2893
  498MOL0     H65679  -0.586   1.759   2.424 -0.6401 -1.6343  0.9101
  498MOL0     H65680  -0.663   1.830   2.288 -1.6278  1.1149  2.0002
  498MOL0     H65681  -0.735   1.547   2.392  2.4057  1.1048 -0.3739
  498MOL0     H65682  -0.829   1.631   2.277 -2.9044  1.4184  0.9661
  498MOL0     H65683  -0.813   1.712   2.558 -0.1160  1.3729  0.0644
  498MOL0     H65684  -0.953   1.639   2.489 -0.1894  0.9900  2.2788
  498MOL0     H65685  -0.836   1.906   2.410  2.4374 -0.8883  2.6880
  498MOL0     H65686  -1.000   1.842   2.367 -0.4130  2.8836  0.1618
  498MOL0     H65687  -0.926   1.898   2.658  2.5462 -0.2440 -1.3408
  498MOL0     H65688  -1.075   1.840   2.580 -0.4564  0.0404  0.3050
  498MOL0     H65689  -1.167   2.038   2.387 -0.3862  2.3534 -1.3296
  498MOL0     H65690  -1.115   2.354   2.279  0.2456  1.3242  1.2077
  498MOL0     H65691  -1.150   2.420   2.441  0.2486  0.4112 -0.5462
  498MOL0     H65692  -1.320   2.212   2.319 -2.0316  0.9944 -0.7910
  498MOL0     H65693  -1.344   2.376   2.273 -0.8067 -0.2817 -0.3449
  498MOL0     H65694  -1.372   2.249   2.556 -1.2383 -0.3110  0.4491
  498MOL0     H65695  -1.341   2.424   2.524  2.0029 -0.9105 -0.7927
  498MOL0     H65696  -1.551   2.431   2.384  3.4258  2.6260  1.6968
  498MOL0     H65697  -1.579   2.366   2.552 -2.6676 -2.0111 -1.0286
  498MOL0     H65698  -1.808   2.381   2.498 -2.9471  0.3434  0.1359
  498MOL0     H65699  -2.030   2.310   2.480  1.3379  1.4572 -1.6760
  498MOL0     H65700  -2.276   2.062   2.097 -1.4410  0.1649 -0.6275
  498MOL0     H65701  -2.504   1.983   2.023  0.5106  1.5942  0.9206
  498MOL0     H65702  -2.665   1.836   1.949 -1.6597 -0.4223 -1.0255
  498MOL0     H65703  -2.754   1.970   2.031 -2.3630 -0.1730 -1.0668
  498MOL0     H65704  -2.919   1.776   2.092 -1.4665  1.0082 -1.4524
  498MOL0     H65705  -2.821   1.684   1.979  1.6671 -0.9606  4.3203
  498MOL0     H65706  -3.026   1.746   1.884  1.6566 -3.4848  0.9354
  498MOL0     H65707  -2.896   1.822   1.798  1.0328 -1.2748  0.5487
  498MOL0     H65708  -2.940   2.043   1.910 -0.3307  0.8355 -1.9151
  498MOL0     H65709  -3.089   1.985   1.836  2.2467 -1.0971 -2.7816
  498MOL0     H65710  -3.150   2.073   2.051 -0.0255 -0.1249 -1.9987
  498MOL0     H65711  -3.020   1.978   2.138 -0.3684 -3.7193  0.0847
  498MOL0     H65712  -3.147   1.777   2.104 -1.3859 -0.1753  0.8320
  498MOL0     H65713  -3.237   1.851   1.972 -2.3689  1.8682 -0.2284
  498MOL0     H65714  -3.294   1.849   2.264 -0.2247  2.0244  1.6985
  498MOL0     H65715  -3.300   2.011   2.202  1.2431 -0.2102  1.0209
  498MOL0     H65716  -3.429   1.767   2.087 -0.3276  0.2731  0.9163
  498MOL0     H65717  -3.470   1.933   2.024 -0.9396 -0.5186  0.1994
  498MOL0     H65718  -2.554   1.781   2.389  0.3116  1.8687  1.0813
  498MOL0     H65719  -2.320   1.812   2.435  1.5471 -1.3837 -1.5103
  498MOL0     H65720  -1.916   1.938   2.307  1.3753  0.9681 -3.9790
  498MOL0     H65721  -1.673   2.011   2.316 -1.2248  0.4286 -1.8825
  498MOL0     H65722  -0.073   1.780   1.974 -2.3108  2.2366  4.3554
  498MOL0     H65723   0.133   1.692   1.895 -0.1730 -0.0398  0.7898
  498MOL0     H65724   0.492   1.495   1.916  1.2395  0.3499 -0.9442
  498MOL0     H65725   0.733   1.445   1.925  1.6586 -0.9433  1.4765
  498MOL0     H65726   0.866   1.023   1.947 -0.9405 -0.0340  0.4782
  498MOL0     H65727   0.911   1.098   2.107  1.6003  2.1518  0.1682
  498MOL0     H65728   1.094   1.210   2.016 -1.8753  0.5006  0.5704
  498MOL0     H65729   1.127   1.043   1.987 -0.5629 -1.0908 -1.0726
  498MOL0     H65730   0.995   1.172   1.754 -0.9716  1.2179  1.7899
  498MOL0     H65731   1.129   1.061   1.772 -0.8499  0.1294 -0.6775
  498MOL0     H65732   1.208   1.280   1.685  0.8966  0.1945 -0.3197
  498MOL0     H65733   1.160   1.355   1.845  0.2873  0.1575 -0.8315
  498MOL0     H65734   1.483   1.143   1.981 -2.8736 -3.1691  1.4860
  498MOL0     H65735   0.647   1.048   2.051  3.7218  1.9943  1.8852
  498MOL0     H65736   0.407   1.090   2.021 -2.1954  1.9224  1.5599
  499MOL0     O65737   8.800   8.737   8.776  0.1184 -0.1189  0.1070
  499MOL0     C65738   8.874   8.835   8.809  0.0887  0.3695 -0.6337
  499MOL0     O65739   8.843   8.967   8.815 -0.4769  0.4837 -0.5211
  499MOL0     C65740   8.718   9.003   8.785  0.0253  0.5592 -0.6668
  499MOL0     C65741   8.650   9.110   8.855  0.4393  0.9872  0.2333
  499MOL0     C65742   8.526   9.167   8.802 -0.1603 -0.1255  0.3475
  499MOL0     C65743   8.460   9.109   8.691  0.2035  0.5457  0.0106
  499MOL0     O65744   8.345   9.174   8.658 -0.1680  1.0161  0.2198
  499MOL0     C65745   8.287   9.143   8.534  0.4129  0.0404  0.4594
  499MOL0     C65746   8.182   9.251   8.517  0.3459  0.1135 -0.7058
  499MOL0     C65747   8.115   9.251   8.383  0.6276 -0.4820 -0.2083
  499MOL0     C65748   8.097   9.127   8.309 -0.2755  0.1998  0.5826
  499MOL0     C65749   8.021   9.137   8.174  0.4275  0.3392 -0.1216
  499MOL0     C65750   8.084   9.223   8.060  0.3164 -0.1879  0.2006
  499MOL0     C65751   7.990   9.255   7.944  0.9995 -0.2610 -0.2177
  499MOL0     C65752   8.051   9.358   7.849  0.1084 -0.3565  0.4134
  499MOL0     N65753   7.963   9.364   7.735  0.0352 -0.6718  0.1517
  499MOL0     C65754   7.836   9.421   7.734 -0.0993  0.1743 -0.9824
  499MOL0     C65755   7.796   9.420   7.601  0.2737  0.0693  0.0399
  499MOL0     C65756   7.698   9.514   7.528 -0.7445 -0.3626 -0.1565
  499MOL0     C65757   7.595   9.419   7.464  0.1354 -0.6012 -0.1301
  499MOL0     C65758   7.512   9.345   7.574  0.4960 -0.4679 -0.4886
  499MOL0     C65759   7.373   9.283   7.518 -0.0062 -0.0298  0.5046
  499MOL0     O65760   7.302   9.394   7.461  0.2799  0.2153  0.1740
  499MOL0     C65761   7.161   9.384   7.452 -0.2985  0.4174  0.4927
  499MOL0     C65762   7.083   9.501   7.427 -0.7143 -0.2949 -0.5565
  499MOL0     C65763   6.943   9.496   7.411 -0.0377 -0.8179 -0.1140
  499MOL0     C65764   6.871   9.368   7.420 -0.1791 -0.5346 -0.0962
  499MOL0     C65765   6.726   9.365   7.407  0.1871 -0.3390 -0.3050
  499MOL0     O65766   6.663   9.245   7.422 -0.5378 -0.4446 -0.4406
  499MOL0     C65767   6.526   9.237   7.416 -0.1475 -0.5229  0.2627
  499MOL0     C65768   6.451   9.236   7.535 -0.2997  0.5927  0.0426
  499MOL0     C65769   6.312   9.215   7.532 -0.1884  0.4865 -0.0690
  499MOL0     C65770   6.250   9.186   7.415  1.0029 -0.3131  0.0935
  499MOL0     O65771   6.111   9.169   7.420 -0.6588 -0.5034 -0.9344
  499MOL0     C65772   6.058   9.087   7.318 -0.4962 -0.6145  0.4212
  499MOL0     C65773   5.922   9.029   7.358  0.1092 -0.0541  0.7848
  499MOL0     C65774   5.808   9.128   7.339 -0.2931 -1.1357 -0.2675
  499MOL0     C65775   5.671   9.079   7.380  0.3711 -0.6590  0.5445
  499MOL0     C65776   5.575   9.196   7.355  0.6503 -0.0719  0.9425
  499MOL0     C65777   5.428   9.155   7.375 -0.8277  0.4378  0.0716
  499MOL0     C65778   5.326   9.258   7.318 -0.6961 -0.2085 -0.6176
  499MOL0     C65779   5.189   9.209   7.280 -0.1646  0.4615 -0.4604
  499MOL0    Cl65780   5.079   9.146   7.418 -0.3854 -0.0657  0.4497
  499MOL0     C65781   6.319   9.190   7.290 -0.6733  0.8406  0.2652
  499MOL0     C65782   6.458   9.209   7.294 -0.2126  0.4416  0.0843
  499MOL0     O65783   6.661   9.471   7.386  0.2206 -0.3602  0.7532
  499MOL0     C65784   6.942   9.251   7.449 -0.3525  0.4828  0.6576
  499MOL0     C65785   7.086   9.258   7.465  0.8054  0.0300  0.0989
  499MOL0     N65786   7.908   9.367   7.532  0.5527  0.6208 -0.7885
  499MOL0     N65787   8.004   9.327   7.609  0.4084  0.4995  0.6669
  499MOL0     C65788   8.528   9.004   8.626  0.1106  0.2600 -0.0614
  499MOL0     C65789   8.653   8.951   8.669 -0.1998 -0.5598 -0.1043
  499MOL0     C65790   9.015   8.813   8.830 -0.3111 -0.9070 -0.0269
  499MOL0     C65791   9.101   8.907   8.880  0.2918 -0.4630 -0.5708
  499MOL0     C65792   9.237   8.883   8.910 -0.7278  0.1093  0.2140
  499MOL0     C65793   9.287   8.758   8.877 -0.4004 -0.4232 -0.0063
  499MOL0     O65794   9.423   8.727   8.880 -0.0742  0.0597  0.0886
  499MOL0     C65795   9.511   8.826   8.925  0.8891 -0.0508  0.2751
  499MOL0     C65796   9.655   8.766   8.927  0.1147  0.5965  0.2271
  499MOL0     C65797   9.685   8.684   8.799  0.2885  0.1673 -0.3190
  499MOL0     C65798   9.833   8.684   8.767  0.0237 -0.4236 -0.1697
  499MOL0     C65799   9.855   8.634   8.632 -0.0456 -0.0534 -0.1731
  499MOL0     C65800   9.866   8.591   8.519  0.1609 -0.2231 -0.3087
  499MOL0     C65801   9.201   8.657   8.836 -0.7907 -0.7332  0.2349
  499MOL0     C65802   9.069   8.687   8.810  0.0707  0.4104  0.7174
  499MOL0     H65803   8.698   9.150   8.943  0.5926  0.3029  0.4717
  499MOL0     H65804   8.475   9.253   8.843  0.2496 -1.1212  3.1947
  499MOL0     H65805   8.241   9.044   8.538 -1.5036  0.9028  1.3232
  499MOL0     H65806   8.358   9.147   8.452 -2.7845  0.8186 -2.5123
  499MOL0     H65807   8.229   9.345   8.548  2.4063 -2.4758  5.7892
  499MOL0     H65808   8.108   9.232   8.595 -1.7063  0.6940 -2.4304
  499MOL0     H65809   8.174   9.311   8.313 -0.1506  1.1103  0.4558
  499MOL0     H65810   8.021   9.305   8.399  0.6262 -0.2813 -0.8883
  499MOL0     H65811   8.197   9.090   8.287 -0.2388  0.2571  0.6486
  499MOL0     H65812   8.050   9.048   8.368  0.4030 -1.0739 -0.5394
  499MOL0     H65813   7.921   9.170   8.204 -0.3616 -1.2381 -0.9005
  499MOL0     H65814   7.999   9.038   8.133  2.8543 -0.7565  1.0382
  499MOL0     H65815   8.170   9.167   8.022  0.3578  1.4899 -2.4452
  499MOL0     H65816   8.113   9.317   8.108 -2.3780  0.2217  1.1982
  499MOL0     H65817   7.964   9.161   7.894  0.0788 -0.0854 -0.0955
  499MOL0     H65818   7.902   9.300   7.992  2.2213  0.3938  1.5375
  499MOL0     H65819   8.149   9.324   7.813  0.8639  1.7074  0.3991
  499MOL0     H65820   8.070   9.456   7.893 -0.0116  1.2313 -2.7432
  499MOL0     H65821   7.800   9.485   7.814 -0.7565 -1.4070  0.0467
  499MOL0     H65822   7.745   9.565   7.444  1.1512 -2.9271 -0.7955
  499MOL0     H65823   7.649   9.576   7.604  1.5272  0.3306  0.8240
  499MOL0     H65824   7.648   9.342   7.409  1.7011 -0.2249  0.7895
  499MOL0     H65825   7.531   9.482   7.401  0.0743 -1.4529 -0.9406
  499MOL0     H65826   7.568   9.269   7.629  0.6142 -0.0950 -0.0890
  499MOL0     H65827   7.473   9.424   7.639  1.1292 -1.5523  1.2914
  499MOL0     H65828   7.320   9.240   7.604  2.9600 -0.3877  2.3094
  499MOL0     H65829   7.401   9.211   7.442  0.2217 -0.1448  0.6953
  499MOL0     H65830   7.133   9.597   7.419 -0.0899 -0.1860  3.0666
  499MOL0     H65831   6.896   9.592   7.390  0.5232 -0.3484  0.7221
  499MOL0     H65832   6.502   9.242   7.631 -1.1900 -2.2015  0.7789
  499MOL0     H65833   6.260   9.223   7.627  0.7744  0.0297  0.5182
  499MOL0     H65834   6.119   9.001   7.289  0.7141 -0.1328  1.4554
  499MOL0     H65835   6.047   9.149   7.229 -1.6539  1.7824  2.1456
  499MOL0     H65836   5.921   8.997   7.462 -0.6963 -0.5689  0.6320
  499MOL0     H65837   5.901   8.938   7.302  0.3216 -0.0809  0.7496
  499MOL0     H65838   5.823   9.167   7.238  4.0160 -0.9578  0.2543
  499MOL0     H65839   5.829   9.213   7.405  0.2530 -1.7818  0.4069
  499MOL0     H65840   5.633   8.994   7.324  0.7480 -0.1354 -0.5427
  499MOL0     H65841   5.666   9.055   7.487 -1.4403 -0.2309  0.5871
  499MOL0     H65842   5.589   9.217   7.249 -1.9549  0.2254  0.5984
  499MOL0     H65843   5.614   9.275   7.420 -0.2295  0.6693  0.5900
  499MOL0     H65844   5.407   9.141   7.482  0.6855  0.4271  0.3879
  499MOL0     H65845   5.412   9.058   7.327  0.9036  0.9585 -1.6611
  499MOL0     H65846   5.305   9.343   7.383  0.2973  0.9028 -1.6911
  499MOL0     H65847   5.379   9.300   7.231  0.4869  1.1874  0.7253
  499MOL0     H65848   5.207   9.125   7.212 -0.1395 -1.5508  1.8895
  499MOL0     H65849   5.124   9.278   7.226 -3.3062 -1.9015  0.0211
  499MOL0     H65850   6.274   9.189   7.191  4.0904 -1.4876 -2.2534
  499MOL0     H65851   6.509   9.211   7.198 -0.7867 -1.6320 -0.3017
  499MOL0     H65852   6.891   9.156   7.453  0.4405 -0.0042 -0.3360
  499MOL0     H65853   7.128   9.163   7.496 -0.4424 -0.9482 -1.1317
  499MOL0     H65854   8.485   8.944   8.546  0.8722 -0.2318 -0.1206
  499MOL0     H65855   8.692   8.881   8.596  0.2991 -0.4004  0.0020
  499MOL0     H65856   9.050   9.000   8.906  1.0242 -0.1788 -0.1454
  499MOL0     H65857   9.298   8.961   8.957 -0.7721  0.2657  0.0126
  499MOL0     H65858   9.482   8.855   9.026  3.1809 -0.7135  1.1848
  499MOL0     H65859   9.505   8.916   8.864  1.6641 -0.8985 -1.1024
  499MOL0     H65860   9.725   8.849   8.914  2.1039 -1.2925 -2.4094
  499MOL0     H65861   9.697   8.722   9.018  2.8551  1.1237 -0.6641
  499MOL0     H65862   9.624   8.725   8.718 -1.6560 -0.3341  0.8180
  499MOL0     H65863   9.656   8.579   8.812  2.7284 -0.3343  2.0471
  499MOL0     H65864   9.876   8.784   8.777  1.3361 -0.8046 -1.5438
  499MOL0     H65865   9.891   8.624   8.839  2.1415  1.0760 -0.5222
  499MOL0     H65866   9.869   8.542   8.424 -2.1694  0.6475 -0.9206
  499MOL0     H65867   9.238   8.556   8.820 -2.2938 -1.1405 -0.8968
  499MOL0     H65868   9.018   8.603   8.764  0.0004 -0.3301  2.0660
  500MOL0     O65869   9.118   7.990   8.970 -0.1201  0.8691  0.1104
  500MOL0     C65870   9.199   8.077   8.961  0.5808 -0.0693 -0.1540
  500MOL0     O65871   9.178   8.199   8.899 -0.2403 -0.4867  0.2174
  500MOL0     C65872   9.062   8.225   8.827  0.1490 -0.5466 -0.3484
  500MOL0     C65873   8.994   8.343   8.850 -0.3865 -0.1806 -0.0194
  500MOL0     C65874   8.875   8.382   8.789 -0.0513  0.5562  0.0566
  500MOL0     C65875   8.826   8.296   8.689  0.2179 -0.7112 -0.3885
  500MOL0     O65876   8.710   8.317   8.621  0.2217  0.3844 -0.3207
  500MOL0     C65877   8.683   8.449   8.568  0.6337 -0.0957 -0.2577
  500MOL0     C65878   8.672   8.458   8.427  0.2044  0.9571 -0.0314
  500MOL0     C65879   8.656   8.597   8.379  0.0558 -0.1827 -0.5170
  500MOL0     C65880   8.659   8.605   8.222 -0.5738  0.2229 -0.3706
  500MOL0     C65881   8.528   8.578   8.149 -0.1503 -0.1212 -0.3665
  500MOL0     C65882   8.549   8.543   8.004  0.7900  0.7523 -0.4779
  500MOL0     C65883   8.421   8.492   7.939 -0.0530 -0.3705  0.6395
  500MOL0     C65884   8.307   8.593   7.954 -0.0176 -0.1225 -0.2193
  500MOL0     N65885   8.191   8.513   7.904 -0.0900 -0.6562  0.7765
  500MOL0     C65886   8.151   8.496   7.767  0.2886 -0.2951  0.1670
  500MOL0     C65887   8.052   8.407   7.772 -0.2638 -0.0509  0.4921
  500MOL0     C65888   7.975   8.371   7.646  0.1129 -0.0708 -0.1037
  500MOL0     C65889   7.828   8.423   7.658  0.4090  0.0240  0.9457
  500MOL0     C65890   7.733   8.345   7.575  0.7515  0.8318  0.2842
  500MOL0     C65891   7.588   8.344   7.619  0.0769 -0.9950  0.3212
  500MOL0     O65892   7.539   8.479   7.604  0.5153 -0.1145  0.1730
  500MOL0     C65893   7.408   8.494   7.563  0.1323  0.3823 -0.1496
  500MOL0     C65894   7.374   8.618   7.520  0.4803 -0.0707 -0.9101
  500MOL0     C65895   7.243   8.639   7.479 -0.7264 -0.1791  1.1047
  500MOL0     C65896   7.145   8.542   7.482 -0.7275 -0.0553  0.6732
  500MOL0     C65897   7.014   8.572   7.431  0.4478  0.9357 -0.6438
  500MOL0     O65898   6.921   8.472   7.446  0.1741  0.0569  0.3855
  500MOL0     C65899   6.785   8.478   7.424  0.3423  0.0445 -0.0682
  500MOL0     C65900   6.706   8.598   7.425  0.3594 -0.1159 -0.4373
  500MOL0     C65901   6.562   8.597   7.412 -1.1556  0.0246  1.0906
  500MOL0     C65902   6.503   8.463   7.403  0.5247  0.2405  0.2622
  500MOL0     O65903   6.365   8.449   7.401  0.6098  0.8068 -0.2035
  500MOL0     C65904   6.297   8.327   7.368  0.6079 -0.1583  0.4177
  500MOL0     C65905   6.206   8.262   7.472  0.0724  0.1771 -0.3984
  500MOL0     C65906   6.185   8.119   7.441  0.3700  0.4179  0.1785
  500MOL0     C65907   6.133   8.043   7.566 -0.0443  0.2013  0.5133
  500MOL0     C65908   6.094   7.907   7.522 -0.3350 -0.9559  0.2404
  500MOL0     C65909   6.051   7.814   7.622  0.6141  0.0964 -0.3916
  500MOL0     C65910   6.057   7.667   7.569 -0.1444  0.5995 -0.0852
  500MOL0     C65911   5.937   7.583   7.617  0.0557 -0.2052  0.7377
  500MOL0    Cl65912   5.775   7.678   7.600 -0.0893  0.5089  0.0665
  500MOL0     C65913   6.584   8.349   7.397  0.2854  0.4871  0.4176
  500MOL0     C65914   6.719   8.357   7.407 -0.6829  0.2226  0.1050
  500MOL0     O65915   6.995   8.675   7.385 -0.2771 -0.0063 -0.4449
  500MOL0     C65916   7.180   8.414   7.527  0.1337 -0.3235 -0.2837
  500MOL0     C65917   7.307   8.395   7.569  0.5268  0.5524 -0.6251
  500MOL0     N65918   8.035   8.367   7.905 -0.0591 -0.3744 -0.9243
  500MOL0     N65919   8.118   8.429   7.985 -0.3885 -0.1394 -0.0966
  500MOL0     C65920   8.893   8.172   8.662 -0.6779  0.0841 -0.0181
  500MOL0     C65921   9.015   8.144   8.726  0.0106 -0.6904 -0.9498
  500MOL0     C65922   9.332   8.057   9.025 -0.8201 -0.4934  0.3676
  500MOL0     C65923   9.361   7.949   9.111  0.5249 -0.3725  0.0283
  500MOL0     C65924   9.483   7.931   9.169 -0.1846  0.1678  0.4814
  500MOL0     C65925   9.577   8.029   9.156 -0.8078  0.9362 -0.0883
  500MOL0     O65926   9.700   8.010   9.217 -0.9382  0.3663  0.1524
  500MOL0     C65927   9.807   8.107   9.195 -0.3742  0.4549 -0.4264
  500MOL0     C65928   9.925   8.078   9.279 -0.7664 -0.4556 -0.3908
  500MOL0     C65929  10.036   8.193   9.257  0.2008  0.0344 -0.4763
  500MOL0     C65930  10.121   8.175   9.128  0.5278  0.1143 -0.0798
  500MOL0     C65931  10.191   8.037   9.129 -0.0064  0.2166  0.3523
  500MOL0     C65932  10.222   7.920   9.163 -0.5819 -0.3454 -0.4270
  500MOL0     C65933   9.553   8.146   9.076  0.1186  0.1672  0.4264
  500MOL0     C65934   9.431   8.152   9.005  0.7859  0.1824  0.0503
  500MOL0     H65935   9.036   8.398   8.934 -0.6257 -0.2180  0.1249
  500MOL0     H65936   8.832   8.475   8.824 -1.6189  0.6688 -2.0248
  500MOL0     H65937   8.766   8.517   8.591  0.3975  1.4186 -3.2559
  500MOL0     H65938   8.595   8.494   8.615  1.4598 -1.3008  2.6114
  500MOL0     H65939   8.578   8.406   8.405  1.2814 -0.9567 -0.3974
  500MOL0     H65940   8.758   8.411   8.378  0.0104  0.4018  0.1481
  500MOL0     H65941   8.746   8.655   8.404  0.2341 -1.9089  3.8104
  500MOL0     H65942   8.564   8.642   8.416  1.4476  1.0229  1.6859
  500MOL0     H65943   8.700   8.702   8.194  1.6874 -0.3845  0.5658
  500MOL0     H65944   8.736   8.539   8.181  0.9795  1.4609  0.4208
  500MOL0     H65945   8.468   8.669   8.156 -4.3390 -2.6888  0.4391
  500MOL0     H65946   8.478   8.498   8.204 -0.1366  0.3842  0.3965
  500MOL0     H65947   8.622   8.461   8.006  1.1671  1.0768 -0.7078
  500MOL0     H65948   8.592   8.624   7.945  3.1001  0.9164  1.2801
  500MOL0     H65949   8.433   8.472   7.832  3.3841  3.2201  0.1318
  500MOL0     H65950   8.388   8.402   7.992 -3.5578  0.4096  0.0131
  500MOL0     H65951   8.324   8.682   7.892  0.4896 -0.2940 -0.3304
  500MOL0     H65952   8.294   8.628   8.056 -0.3370  2.0813 -0.9689
  500MOL0     H65953   8.195   8.539   7.678 -0.9518 -0.5520 -0.5900
  500MOL0     H65954   7.976   8.264   7.626 -3.1947 -0.2674  0.2209
  500MOL0     H65955   8.020   8.422   7.560 -2.1140  1.2915 -0.5625
  500MOL0     H65956   7.828   8.523   7.613  0.9404 -0.9561 -1.3664
  500MOL0     H65957   7.801   8.430   7.764  0.6631 -0.2090  1.0286
  500MOL0     H65958   7.730   8.384   7.473  1.0686 -3.2507 -1.5055
  500MOL0     H65959   7.766   8.242   7.556 -0.2760  0.4812  0.2859
  500MOL0     H65960   7.567   8.310   7.721  0.6134  0.2645  0.8764
  500MOL0     H65961   7.532   8.280   7.551 -2.5352  2.2237 -0.8411
  500MOL0     H65962   7.440   8.702   7.501 -1.7477  1.8365 -0.6717
  500MOL0     H65963   7.211   8.735   7.439  0.7895 -0.6506 -1.4822
  500MOL0     H65964   6.754   8.695   7.424 -0.6587  0.4327 -2.5517
  500MOL0     H65965   6.501   8.685   7.419  0.0012  0.8223  1.4275
  500MOL0     H65966   6.354   8.256   7.307 -2.7690  1.4318 -5.4437
  500MOL0     H65967   6.224   8.363   7.294 -0.2115  0.5915  1.5704
  500MOL0     H65968   6.107   8.307   7.481 -0.1037 -0.1142 -0.8426
  500MOL0     H65969   6.254   8.264   7.570 -1.7829 -1.4594  0.6330
  500MOL0     H65970   6.279   8.074   7.407 -0.4385  0.2849 -2.0784
  500MOL0     H65971   6.108   8.109   7.364 -0.5105  1.9761  0.8116
  500MOL0     H65972   6.205   8.036   7.648 -0.8150  1.5980  1.3590
  500MOL0     H65973   6.041   8.081   7.613 -0.7083 -1.2988  0.4934
  500MOL0     H65974   6.185   7.878   7.468 -0.1549  3.7458 -2.5360
  500MOL0     H65975   6.012   7.926   7.452 -1.6849 -1.7552  1.5428
  500MOL0     H65976   5.957   7.838   7.673  2.3807  0.2570  3.0788
  500MOL0     H65977   6.123   7.821   7.704  1.0657 -0.2165 -0.7544
  500MOL0     H65978   6.056   7.661   7.460  0.6816 -2.9245 -0.0483
  500MOL0     H65979   6.147   7.617   7.608 -1.1866  0.3434  2.1324
  500MOL0     H65980   5.937   7.553   7.723 -0.8923  0.8848  1.0686
  500MOL0     H65981   5.938   7.489   7.562  4.0668  0.4152 -0.5870
  500MOL0     H65982   6.542   8.250   7.386  0.5821  0.3819  0.2322
  500MOL0     H65983   6.773   8.266   7.387 -3.6502 -1.2420 -1.9413
  500MOL0     H65984   7.109   8.333   7.542  0.0151 -0.1150  0.2687
  500MOL0     H65985   7.322   8.299   7.617 -3.6009  0.3332  0.6201
  500MOL0     H65986   8.856   8.101   8.588 -1.6045 -0.5824  1.0422
  500MOL0     H65987   9.075   8.055   8.705  2.4195  0.8548 -1.0718
  500MOL0     H65988   9.287   7.871   9.115  1.2088 -0.9647  3.2427
  500MOL0     H65989   9.498   7.840   9.226 -0.5351  0.3591  0.8843
  500MOL0     H65990   9.762   8.201   9.228 -0.5728 -0.3700  1.8344
  500MOL0     H65991   9.830   8.123   9.090 -0.1093 -0.7867 -0.5761
  500MOL0     H65992   9.895   8.074   9.384  0.7978  1.9941  0.2220
  500MOL0     H65993   9.970   7.979   9.270 -0.2850 -0.4626  1.6296
  500MOL0     H65994  10.095   8.188   9.349 -0.6943  2.5713  0.3321
  500MOL0     H65995   9.985   8.290   9.250 -0.6169 -0.3005  0.5288
  500MOL0     H65996  10.053   8.175   9.042  2.1028 -0.8271 -1.3793
  500MOL0     H65997  10.198   8.252   9.118  0.6308  0.0663  0.3478
  500MOL0     H65998  10.235   7.818   9.191 -1.4630 -0.7693 -1.4813
  500MOL0     H65999   9.619   8.231   9.058 -0.9379  0.7312 -0.9536
  500MOL0     H66000   9.408   8.243   8.950 -0.9724 -0.4588 -0.3288
  501MOL0     O66001   0.883   1.125   5.904  0.1225  0.5612 -0.3190
  501MOL0     C66002   0.862   1.040   5.818  0.4642  0.4747 -0.1462
  501MOL0     O66003   0.740   0.971   5.790 -1.0459  0.5538  0.4135
  501MOL0     C66004   0.624   0.994   5.862 -0.5183 -0.1835  0.2390
  501MOL0     C66005   0.599   1.031   5.993 -0.2443 -0.0789 -0.4300
  501MOL0     C66006   0.477   1.052   6.043 -0.1437  0.2215  0.4287
  501MOL0     C66007   0.368   1.040   5.965 -0.0442  0.8220 -0.6107
  501MOL0     O66008   0.242   1.081   6.009 -0.0305  0.0783 -0.3235
  501MOL0     C66009   0.202   0.995   6.121  0.7032 -0.9650 -0.4073
  501MOL0     C66010   0.049   1.002   6.145  0.5742 -0.9057  1.4869
  501MOL0     C66011   0.021   1.145   6.201 -0.2314  0.2700  0.1751
  501MOL0     C66012  -0.112   1.146   6.268 -0.7420  0.7873 -0.6735
  501MOL0     C66013  -0.127   1.283   6.325  0.4428  0.4674  0.2205
  501MOL0     C66014  -0.271   1.284   6.375  0.1258 -0.7667  0.0375
  501MOL0     C66015  -0.305   1.418   6.439  0.8879  0.3741 -1.1767
  501MOL0     C66016  -0.452   1.450   6.450 -0.0116 -0.0857  0.9495
  501MOL0     N66017  -0.509   1.350   6.536  0.0155  0.2560 -0.5064
  501MOL0     C66018  -0.511   1.346   6.674 -0.1864 -0.4719  0.2326
  501MOL0     C66019  -0.559   1.226   6.720 -1.2799 -0.1007  0.2716
  501MOL0     C66020  -0.579   1.197   6.862  0.3793  0.1734 -0.4177
  501MOL0     C66021  -0.726   1.227   6.900 -0.3589 -0.0570 -0.3544
  501MOL0     C66022  -0.836   1.136   6.839 -0.9073 -0.6187  0.4828
  501MOL0     C66023  -0.961   1.121   6.932 -0.0629 -0.8966 -0.3324
  501MOL0     O66024  -1.039   1.239   6.934  0.8691 -0.1581  0.3295
  501MOL0     C66025  -1.176   1.216   6.936 -0.2135  0.1851  0.6982
  501MOL0     C66026  -1.249   1.100   6.964  1.3352 -0.1852 -0.0646
  501MOL0     C66027  -1.390   1.105   6.981 -0.4019  0.1698 -0.0511
  501MOL0     C66028  -1.457   1.228   6.958 -0.7171  0.4852  0.0033
  501MOL0     C66029  -1.601   1.238   6.959  0.4971 -0.2770  0.0365
  501MOL0     O66030  -1.650   1.354   7.009  0.4220 -0.1276 -0.4760
  501MOL0     C66031  -1.786   1.386   7.019 -0.1882  0.1768 -0.0669
  501MOL0     C66032  -1.815   1.523   6.997 -0.4396 -0.4240  0.0746
  501MOL0     C66033  -1.940   1.563   6.993  0.0497 -0.2207 -0.7484
  501MOL0     C66034  -2.049   1.484   7.026 -0.0710  0.7834  0.0513
  501MOL0     O66035  -2.173   1.546   7.050 -0.4108  0.8757 -0.1325
  501MOL0     C66036  -2.298   1.481   7.058 -0.3851 -0.5710 -0.1807
  501MOL0     C66037  -2.379   1.519   7.184  0.1240  0.3992 -0.5025
  501MOL0     C66038  -2.534   1.521   7.156 -0.1441 -0.0561  0.5638
  501MOL0     C66039  -2.606   1.383   7.143  0.9562 -0.3197  0.6469
  501MOL0     C66040  -2.758   1.401   7.126 -0.7693 -0.8945  0.9467
  501MOL0     C66041  -2.820   1.265   7.121  0.4054  0.0567  0.1483
  501MOL0     C66042  -2.971   1.279   7.115  0.4652  0.2079 -0.0318
  501MOL0     C66043  -3.028   1.340   6.985 -0.4892 -0.1482 -0.8467
  501MOL0    Cl66044  -3.207   1.313   6.993  0.3124 -0.1823 -0.0805
  501MOL0     C66045  -2.023   1.349   7.057  0.2636  0.1250 -0.2108
  501MOL0     C66046  -1.888   1.294   7.047  0.3193 -0.5883  0.5237
  501MOL0     O66047  -1.669   1.141   6.931  0.1749 -0.0213  0.2089
  501MOL0     C66048  -1.384   1.343   6.932  0.4681  0.2473 -0.1990
  501MOL0     C66049  -1.244   1.337   6.920  0.1587 -0.7113 -0.0056
  501MOL0     N66050  -0.584   1.148   6.604  0.7786 -0.4355  0.5706
  501MOL0     N66051  -0.551   1.217   6.505  0.3288 -0.1281 -0.2240
  501MOL0     C66052   0.385   1.010   5.828  0.3009 -1.2157 -0.0869
  501MOL0     C66053   0.512   0.987   5.770 -0.0394 -0.5290 -1.4903
  501MOL0     C66054   0.987   0.989   5.752  0.4546  0.2542 -0.3517
  501MOL0     C66055   1.105   1.060   5.770  0.2610  0.3649 -0.2758
  501MOL0     C66056   1.232   1.012   5.722  1.1165 -0.5849 -0.2223
  501MOL0     C66057   1.240   0.892   5.654  0.1826  0.0886 -1.3835
  501MOL0     O66058   1.370   0.844   5.622  0.3051  0.8927 -0.1648
  501MOL0     C66059   1.383   0.731   5.534  0.5945  0.2401  0.6846
  501MOL0     C66060   1.512   0.752   5.455 -0.1055 -0.3573  0.1067
  501MOL0     C66061   1.537   0.631   5.362  0.2667 -0.4896  1.0570
  501MOL0     C66062   1.662   0.658   5.263 -0.0259 -0.0588  0.0511
  501MOL0     C66063   1.781   0.647   5.349 -0.9499 -0.7998 -0.3481
  501MOL0     C66064   1.885   0.646   5.416  0.8158 -0.2495  0.1943
  501MOL0     C66065   1.126   0.821   5.641 -0.6131 -0.1571  0.0211
  501MOL0     C66066   1.001   0.863   5.688 -0.0802  0.1836 -0.2390
  501MOL0     H66067   0.679   1.025   6.067 -0.6073  0.5666  0.0280
  501MOL0     H66068   0.452   1.073   6.146 -1.4206 -0.4214  0.2679
  501MOL0     H66069   0.254   1.021   6.214  0.3922 -1.8279  0.0268
  501MOL0     H66070   0.227   0.891   6.096  0.4545 -1.2569  0.5161
  501MOL0     H66071   0.025   0.923   6.217  1.0077 -1.0369  1.4888
  501MOL0     H66072  -0.009   0.975   6.057  0.8900  0.3128  0.8849
  501MOL0     H66073   0.027   1.212   6.115 -0.0481  1.1577  0.8680
  501MOL0     H66074   0.097   1.176   6.273 -0.8946  0.8429  0.6362
  501MOL0     H66075  -0.193   1.122   6.198  0.8166 -2.0381 -1.6642
  501MOL0     H66076  -0.119   1.068   6.345  0.9945  0.1862 -1.0821
  501MOL0     H66077  -0.108   1.357   6.246  1.9640 -1.4076 -1.2520
  501MOL0     H66078  -0.053   1.299   6.404  0.7685  0.5774 -0.1048
  501MOL0     H66079  -0.273   1.202   6.448  1.5928  0.2826  1.3378
  501MOL0     H66080  -0.349   1.266   6.301 -1.4379  2.0612  0.8612
  501MOL0     H66081  -0.264   1.409   6.540  0.6659  2.3556 -0.8681
  501MOL0     H66082  -0.239   1.496   6.399 -0.5360  2.5078  0.4046
  501MOL0     H66083  -0.501   1.432   6.354  2.2207 -0.2807 -0.2224
  501MOL0     H66084  -0.468   1.552   6.484  0.7406  0.1472  0.6303
  501MOL0     H66085  -0.489   1.429   6.740  0.7968  0.5381 -1.3134
  501MOL0     H66086  -0.503   1.251   6.920 -0.9656  1.2506  0.4165
  501MOL0     H66087  -0.556   1.094   6.892 -1.1077 -0.5635 -1.6832
  501MOL0     H66088  -0.742   1.334   6.887 -1.1394 -0.4151 -2.8123
  501MOL0     H66089  -0.745   1.225   7.008 -2.8972 -0.2957 -0.7458
  501MOL0     H66090  -0.863   1.176   6.741  1.5678 -1.0708 -0.4517
  501MOL0     H66091  -0.809   1.032   6.821 -1.4386 -0.8911  1.2108
  501MOL0     H66092  -0.930   1.098   7.035  1.1897  1.1910 -0.1763
  501MOL0     H66093  -1.008   1.033   6.888 -0.5181 -0.6815 -0.2762
  501MOL0     H66094  -1.203   1.006   6.993  1.4758 -0.2553 -0.5120
  501MOL0     H66095  -1.452   1.021   7.012 -0.0210  0.4774  1.6396
  501MOL0     H66096  -1.736   1.598   6.995 -0.5920 -0.2695 -1.8606
  501MOL0     H66097  -1.961   1.668   6.976 -2.2334 -0.6846 -1.1274
  501MOL0     H66098  -2.283   1.373   7.055  0.1962 -0.5159  0.4738
  501MOL0     H66099  -2.347   1.502   6.962 -2.1556  0.5690  0.9234
  501MOL0     H66100  -2.359   1.620   7.220 -1.9123  1.8708 -3.0918
  501MOL0     H66101  -2.355   1.439   7.254 -0.0700  0.7470 -0.0269
  501MOL0     H66102  -2.554   1.566   7.059 -0.3731  0.4866  0.8603
  501MOL0     H66103  -2.591   1.576   7.232  0.8074  1.3141  0.3116
  501MOL0     H66104  -2.560   1.325   7.062  0.7748 -0.8357  0.9067
  501MOL0     H66105  -2.582   1.322   7.231  0.7692  1.4533  1.9637
  501MOL0     H66106  -2.775   1.456   7.033 -2.1582 -1.0907  1.0649
  501MOL0     H66107  -2.795   1.457   7.213  0.5810  0.2962  0.8035
  501MOL0     H66108  -2.797   1.210   7.213  0.7579 -0.8723 -0.4753
  501MOL0     H66109  -2.785   1.206   7.035  1.2606  0.7186  0.0294
  501MOL0     H66110  -3.011   1.177   7.122  4.7555 -1.8426 -1.8029
  501MOL0     H66111  -3.002   1.335   7.204 -3.2510 -2.2677  0.4713
  501MOL0     H66112  -2.977   1.289   6.903  0.0964 -3.2067  1.2393
  501MOL0     H66113  -3.014   1.447   6.997 -0.1682 -0.0530 -2.0176
  501MOL0     H66114  -2.097   1.283   7.100  1.6809  0.4321  2.9664
  501MOL0     H66115  -1.867   1.188   7.062 -2.7342 -1.2179  0.9425
  501MOL0     H66116  -1.424   1.442   6.912  0.2290  0.3139  0.5563
  501MOL0     H66117  -1.189   1.430   6.907  0.8676 -0.7916  1.9835
  501MOL0     H66118   0.298   1.034   5.767  0.9470  0.2328 -0.4667
  501MOL0     H66119   0.507   0.965   5.664 -0.5436 -2.6781 -1.0550
  501MOL0     H66120   1.111   1.161   5.808  1.6934 -0.5473  2.1632
  501MOL0     H66121   1.319   1.077   5.724 -0.3393  1.7353 -3.4883
  501MOL0     H66122   1.305   0.720   5.457  0.0276  1.6219  1.0241
  501MOL0     H66123   1.382   0.637   5.589  1.7693  0.2920  0.8007
  501MOL0     H66124   1.519   0.840   5.391  2.5349 -0.1705  0.5409
  501MOL0     H66125   1.596   0.757   5.525 -2.0726 -0.2863  2.6143
  501MOL0     H66126   1.452   0.609   5.297  0.2018 -1.3135  1.4077
  501MOL0     H66127   1.558   0.537   5.414  3.5669 -1.8432 -2.2298
  501MOL0     H66128   1.678   0.577   5.191  2.7871  1.2241 -0.9227
  501MOL0     H66129   1.656   0.756   5.215  2.8412  0.4708  0.5658
  501MOL0     H66130   1.965   0.656   5.486 -2.1070  1.8679  3.5428
  501MOL0     H66131   1.121   0.727   5.586 -1.9787 -1.1657  1.7832
  501MOL0     H66132   0.919   0.792   5.679 -0.6805  0.7140  0.8753
  502MOL0     O66133   5.382   5.721   1.687  0.0172 -0.1122  0.1816
  502MOL0     C66134   5.449   5.818   1.723  0.2421 -0.1898  0.2357
  502MOL0     O66135   5.408   5.914   1.802 -0.3740  0.3990 -0.2621
  502MOL0     C66136   5.288   5.897   1.866 -0.6310 -0.8635 -0.1970
  502MOL0     C66137   5.164   5.865   1.803 -0.6927  0.4563  0.4446
  502MOL0     C66138   5.047   5.865   1.883  0.3628  0.2239 -0.3738
  502MOL0     C66139   5.053   5.867   2.019 -0.5410  0.4551 -0.5413
  502MOL0     O66140   4.940   5.857   2.095 -0.6694 -0.1614 -0.0837
  502MOL0     C66141   4.919   5.985   2.147  1.0749 -0.8364 -0.2972
  502MOL0     C66142   4.769   6.014   2.139  0.0624 -0.1936 -0.4482
  502MOL0     C66143   4.737   6.165   2.122 -0.3999 -0.3189 -0.3475
  502MOL0     C66144   4.591   6.196   2.176 -0.2016 -0.3438  0.4888
  502MOL0     C66145   4.476   6.161   2.088  1.0372  0.3695  0.3619
  502MOL0     C66146   4.453   6.248   1.960  0.4535  0.7903  0.4250
  502MOL0     C66147   4.319   6.229   1.896 -1.0291 -0.3098 -0.5245
  502MOL0     C66148   4.307   6.287   1.763 -0.1942  0.7264 -0.1710
  502MOL0     N66149   4.399   6.241   1.660 -0.8166  0.3927  0.3233
  502MOL0     C66150   4.510   6.307   1.616  0.0406  0.4670  0.3205
  502MOL0     C66151   4.572   6.239   1.520  0.0964  0.8155  0.1224
  502MOL0     C66152   4.708   6.252   1.461  0.6166  0.4139 -0.3136
  502MOL0     C66153   4.818   6.185   1.539 -0.1094 -0.1677  0.0841
  502MOL0     C66154   4.815   6.226   1.698 -0.0486  0.0463 -0.0314
  502MOL0     C66155   4.957   6.206   1.754  0.1140 -0.1599 -0.5111
  502MOL0     O66156   5.041   6.302   1.705 -0.0937 -0.6112 -0.3376
  502MOL0     C66157   5.171   6.314   1.747  0.3181  0.1310 -0.3200
  502MOL0     C66158   5.224   6.229   1.844  0.1988  0.6978 -0.2273
  502MOL0     C66159   5.361   6.228   1.877 -0.6706 -0.9550 -0.9055
  502MOL0     C66160   5.442   6.309   1.802 -0.2028  0.4922  0.6421
  502MOL0     C66161   5.583   6.302   1.828  0.2009  0.4147 -1.1170
  502MOL0     O66162   5.658   6.408   1.777 -1.0637  0.1346 -0.0823
  502MOL0     C66163   5.793   6.378   1.758  0.0254  0.0121 -0.6246
  502MOL0     C66164   5.826   6.273   1.672  0.3746  0.3109 -1.1353
  502MOL0     C66165   5.941   6.217   1.655 -0.4116  0.2487 -0.1917
  502MOL0     C66166   6.047   6.271   1.725  0.4673  0.1135  0.4403
  502MOL0     O66167   6.162   6.204   1.697  0.2729 -0.7946  0.3880
  502MOL0     C66168   6.285   6.267   1.725 -0.4802 -0.9090  0.1230
  502MOL0     C66169   6.387   6.204   1.635 -0.2887 -0.3508  0.1694
  502MOL0     C66170   6.359   6.223   1.483  0.5470  0.9158 -0.0730
  502MOL0     C66171   6.487   6.187   1.408 -0.4259 -0.7297 -0.0531
  502MOL0     C66172   6.469   6.241   1.257  0.1708  0.7529 -0.2011
  502MOL0     C66173   6.597   6.228   1.180  0.0889  0.1242 -0.1819
  502MOL0     C66174   6.657   6.086   1.151  0.3054 -0.0543 -0.6054
  502MOL0     C66175   6.806   6.066   1.164 -0.2232  0.3946  0.6443
  502MOL0    Cl66176   6.872   6.103   1.339  0.1848  0.0853  0.2526
  502MOL0     C66177   6.030   6.381   1.813 -0.9103 -0.5278  0.7427
  502MOL0     C66178   5.896   6.433   1.829 -0.1176 -0.5458  0.0112
  502MOL0     O66179   5.624   6.198   1.890 -0.1902  0.1604  0.2488
  502MOL0     C66180   5.390   6.392   1.704 -0.1455  0.5188 -0.0357
  502MOL0     C66181   5.252   6.403   1.683  0.1605 -0.1972  0.0084
  502MOL0     N66182   4.493   6.131   1.495 -0.2998  0.8024  0.8442
  502MOL0     N66183   4.397   6.131   1.581  0.3020  0.1728  0.7362
  502MOL0     C66184   5.179   5.887   2.089 -0.4192  0.3526  0.9669
  502MOL0     C66185   5.298   5.898   2.008 -0.2702 -0.5719  0.2655
  502MOL0     C66186   5.585   5.823   1.662 -0.1819  0.9090  0.1643
  502MOL0     C66187   5.691   5.882   1.726  0.1375  0.3007 -0.0528
  502MOL0     C66188   5.813   5.898   1.663  0.0136 -0.0586 -1.0811
  502MOL0     C66189   5.844   5.848   1.536  0.2676  0.4480 -0.1051
  502MOL0     O66190   5.958   5.858   1.454 -0.2798 -0.1367 -0.0933
  502MOL0     C66191   6.076   5.879   1.536  0.0911 -1.1642 -0.1619
  502MOL0     C66192   6.182   5.851   1.436 -0.0645  0.5332 -0.2212
  502MOL0     C66193   6.314   5.819   1.508 -0.3538  0.5323 -0.1320
  502MOL0     C66194   6.415   5.763   1.399 -0.0063 -0.7781 -0.0981
  502MOL0     C66195   6.559   5.793   1.434 -0.3356  0.0571  0.9395
  502MOL0     C66196   6.680   5.828   1.443  0.2187 -0.2835  0.1087
  502MOL0     C66197   5.739   5.778   1.479 -0.0850 -0.3823  0.3072
  502MOL0     C66198   5.614   5.759   1.541 -0.0496  0.1738  0.2743
  502MOL0     H66199   5.143   5.872   1.697 -3.4542  0.3615  0.9021
  502MOL0     H66200   4.948   5.862   1.839 -0.2114  0.3222  0.8733
  502MOL0     H66201   4.964   6.067   2.091  1.2274 -0.1790  0.7520
  502MOL0     H66202   4.958   6.003   2.247 -1.5650 -3.6954  1.4445
  502MOL0     H66203   4.720   5.977   2.229 -0.6223  0.6917 -0.4419
  502MOL0     H66204   4.735   5.965   2.047 -0.1803 -0.5098 -0.1931
  502MOL0     H66205   4.747   6.185   2.015  3.6121 -0.6426 -0.1578
  502MOL0     H66206   4.808   6.227   2.177 -0.6729 -0.3973  0.1001
  502MOL0     H66207   4.575   6.150   2.274 -0.6700  1.1068  1.1170
  502MOL0     H66208   4.584   6.304   2.189 -0.1961  0.1857 -3.0852
  502MOL0     H66209   4.390   6.167   2.156  0.7776 -0.2069  0.0901
  502MOL0     H66210   4.489   6.059   2.051  2.2687  1.1577 -1.4923
  502MOL0     H66211   4.531   6.224   1.886 -0.5705  1.9261 -1.0720
  502MOL0     H66212   4.460   6.354   1.984 -0.4641  0.3754  2.7442
  502MOL0     H66213   4.302   6.121   1.884  0.6855 -0.5659 -0.8744
  502MOL0     H66214   4.240   6.263   1.964 -0.7635 -1.3969  0.3574
  502MOL0     H66215   4.333   6.393   1.772 -0.0433  0.7352 -0.6722
  502MOL0     H66216   4.203   6.282   1.732  0.3463 -3.2807 -1.9633
  502MOL0     H66217   4.551   6.396   1.663 -1.9050  0.3013  2.5133
  502MOL0     H66218   4.728   6.358   1.443 -0.9280  0.5029 -1.6672
  502MOL0     H66219   4.713   6.206   1.362 -1.3186  0.0445 -0.2764
  502MOL0     H66220   4.908   6.234   1.501  0.7596  0.5561  2.7998
  502MOL0     H66221   4.825   6.078   1.519  0.7349 -0.0385 -0.3634
  502MOL0     H66222   4.790   6.333   1.699  0.0582  0.0763 -0.3524
  502MOL0     H66223   4.739   6.172   1.754 -0.4261 -1.5577 -2.0009
  502MOL0     H66224   4.999   6.107   1.736 -0.6712 -0.8179  1.0653
  502MOL0     H66225   4.949   6.219   1.863  1.4167  1.0693 -0.5307
  502MOL0     H66226   5.176   6.149   1.898  1.9029  0.9622  1.8244
  502MOL0     H66227   5.404   6.159   1.949 -0.0022  0.3633  0.0029
  502MOL0     H66228   5.742   6.221   1.628  1.2009  0.3034 -2.8039
  502MOL0     H66229   5.948   6.146   1.574  3.3276 -0.2421  0.3636
  502MOL0     H66230   6.313   6.242   1.828 -2.6175 -1.4206  0.6264
  502MOL0     H66231   6.273   6.374   1.709 -3.3862 -0.8437  2.0910
  502MOL0     H66232   6.391   6.098   1.663 -1.7407 -0.7896 -1.1201
  502MOL0     H66233   6.479   6.255   1.663  0.0500 -1.6473  1.5438
  502MOL0     H66234   6.327   6.323   1.453 -1.6462 -0.5436 -3.1410
  502MOL0     H66235   6.280   6.154   1.453 -0.0769  0.4830  2.4145
  502MOL0     H66236   6.577   6.231   1.453  0.7162 -1.1440 -1.8501
  502MOL0     H66237   6.509   6.080   1.411  1.9421 -0.2873  0.0353
  502MOL0     H66238   6.424   6.340   1.253 -1.4992  0.0424 -0.0551
  502MOL0     H66239   6.405   6.166   1.209  1.3988 -0.0689 -0.6030
  502MOL0     H66240   6.665   6.295   1.233  0.9939  0.1444 -1.3389
  502MOL0     H66241   6.579   6.282   1.086 -1.3052  1.1089  0.6185
  502MOL0     H66242   6.619   6.009   1.219  2.7971  0.7079  1.8449
  502MOL0     H66243   6.631   6.057   1.049 -2.0067  0.5579 -0.2300
  502MOL0     H66244   6.862   6.124   1.090 -1.7999 -0.9321 -1.6972
  502MOL0     H66245   6.838   5.962   1.151  1.2841  1.1247 -2.2277
  502MOL0     H66246   6.107   6.443   1.857 -2.1297  2.8741 -1.5139
  502MOL0     H66247   5.881   6.521   1.892  0.1510 -1.5399  1.5135
  502MOL0     H66248   5.459   6.447   1.642 -0.4443  1.0549  0.0996
  502MOL0     H66249   5.209   6.459   1.601  1.2386 -2.4092 -2.2296
  502MOL0     H66250   5.177   5.895   2.198 -2.0323 -0.0855  0.9821
  502MOL0     H66251   5.394   5.921   2.052  0.0959 -0.1525 -0.7106
  502MOL0     H66252   5.672   5.930   1.822 -0.0215  0.0872  0.0224
  502MOL0     H66253   5.884   5.957   1.720  0.0969  0.1383 -1.3868
  502MOL0     H66254   6.064   5.804   1.614 -1.7933 -0.9352 -0.1948
  502MOL0     H66255   6.100   5.979   1.574 -2.9149 -0.4286  0.0402
  502MOL0     H66256   6.154   5.762   1.379  0.3893 -0.3283  0.8341
  502MOL0     H66257   6.198   5.935   1.368 -2.6080  3.1207  2.1090
  502MOL0     H66258   6.304   5.736   1.579 -2.1951  1.0366  0.2414
  502MOL0     H66259   6.354   5.901   1.567  4.2226 -1.4290 -0.1107
  502MOL0     H66260   6.399   5.656   1.378  1.4883 -0.4186 -3.7930
  502MOL0     H66261   6.389   5.823   1.312  1.7870  0.4930  0.1903
  502MOL0     H66262   6.784   5.851   1.432  0.0688 -0.2568 -1.6127
  502MOL0     H66263   5.751   5.734   1.381 -2.5504  0.2391 -0.3342
  502MOL0     H66264   5.531   5.708   1.493 -1.7078  0.8938  2.2061
  503MOL0     O66265   2.154   8.422   2.183  0.1020 -0.9748 -0.3484
  503MOL0     C66266   2.123   8.384   2.292 -0.2819  0.2451 -0.1684
  503MOL0     O66267   2.055   8.268   2.318 -0.0577 -0.6703 -0.0876
  503MOL0     C66268   1.992   8.197   2.218 -1.0074  0.1548 -0.6384
  503MOL0     C66269   1.885   8.118   2.266 -0.3822  0.0746  0.1614
  503MOL0     C66270   1.818   8.038   2.181  0.6510 -0.1662  0.6264
  503MOL0     C66271   1.848   8.035   2.044  0.2584 -0.4609  0.0378
  503MOL0     O66272   1.784   7.956   1.946 -0.2645 -0.0773 -0.5654
  503MOL0     C66273   1.643   7.944   1.947 -0.0458  0.3636 -0.1955
  503MOL0     C66274   1.600   7.848   1.834 -0.5646  0.1168 -0.0301
  503MOL0     C66275   1.458   7.798   1.846  0.2707  0.3261 -0.0358
  503MOL0     C66276   1.357   7.919   1.827  0.2027 -0.9864 -0.1355
  503MOL0     C66277   1.208   7.874   1.830 -0.5144 -0.0069  0.9730
  503MOL0     C66278   1.114   7.994   1.865 -0.7023  0.2509  0.1403
  503MOL0     C66279   1.098   8.106   1.759  0.9289  1.1584  0.0629
  503MOL0     C66280   1.072   8.044   1.620 -0.3621 -0.6118 -0.7583
  503MOL0     N66281   0.946   7.974   1.602 -0.1452 -0.1068  0.0658
  503MOL0     C66282   0.923   7.841   1.602  0.2488  0.3114  0.2225
  503MOL0     C66283   0.787   7.821   1.586  0.0123  0.7006 -0.0557
  503MOL0     C66284   0.731   7.678   1.593  0.2905  0.3034  0.1929
  503MOL0     C66285   0.731   7.608   1.731 -0.0358  0.0865  0.1956
  503MOL0     C66286   0.659   7.475   1.726 -0.1873  0.1047  0.4496
  503MOL0     C66287   0.670   7.414   1.859 -0.5851 -0.7234  0.3086
  503MOL0     O66288   0.619   7.283   1.871  0.0775  0.6752  1.2374
  503MOL0     C66289   0.489   7.257   1.862  0.1147  0.6195  0.2500
  503MOL0     C66290   0.454   7.123   1.844 -0.3400 -0.2729 -0.6031
  503MOL0     C66291   0.319   7.084   1.848 -0.3457  0.0001  0.1826
  503MOL0     C66292   0.222   7.180   1.873  0.1533  0.3542 -0.0208
  503MOL0     C66293   0.081   7.134   1.885  0.3131  0.8295  1.1010
  503MOL0     O66294   0.062   7.001   1.931 -0.9047 -0.1590  0.3862
  503MOL0     C66295  -0.062   6.973   1.981 -0.4530 -0.3367 -0.4969
  503MOL0     C66296  -0.137   7.045   2.081  0.2041 -0.2528 -0.6001
  503MOL0     C66297  -0.257   6.991   2.118 -0.5881 -0.3088  0.2546
  503MOL0     C66298  -0.304   6.876   2.060  0.6126 -0.0801 -0.2901
  503MOL0     O66299  -0.411   6.824   2.131  0.0727  0.1598  0.4501
  503MOL0     C66300  -0.458   6.694   2.099 -0.8912  0.4026 -0.4933
  503MOL0     C66301  -0.541   6.678   1.972  0.2757  0.1450 -0.2677
  503MOL0     C66302  -0.641   6.565   1.969  0.6413  0.8932  0.3902
  503MOL0     C66303  -0.746   6.566   1.849 -0.0676  0.5130  0.6254
  503MOL0     C66304  -0.860   6.463   1.872  0.3652  0.4502 -0.2085
  503MOL0     C66305  -0.975   6.497   1.774  0.9641 -0.1642 -0.2795
  503MOL0     C66306  -1.081   6.386   1.781  0.7204 -0.6294 -0.2425
  503MOL0     C66307  -1.187   6.408   1.670 -0.0415 -0.0101  0.3961
  503MOL0    Cl66308  -1.101   6.400   1.513 -0.1254 -0.0073  0.0254
  503MOL0     C66309  -0.235   6.807   1.961  1.2713 -0.3476  0.8561
  503MOL0     C66310  -0.118   6.864   1.918  0.0635  0.9988 -0.2478
  503MOL0     O66311  -0.011   7.217   1.880 -0.3092  0.0530 -0.0071
  503MOL0     C66312   0.258   7.312   1.886 -0.2328 -1.0070  0.8511
  503MOL0     C66313   0.389   7.359   1.874  0.2123  0.5715  0.2014
  503MOL0     N66314   0.727   7.939   1.568  0.0910 -0.0969 -0.1229
  503MOL0     N66315   0.816   8.025   1.582 -0.0009  0.2098  0.0203
  503MOL0     C66316   1.960   8.114   1.994 -0.0562  0.8744 -0.9921
  503MOL0     C66317   2.038   8.183   2.082  0.1640 -0.1533  0.3156
  503MOL0     C66318   2.195   8.444   2.407  1.0311 -0.3498  0.2941
  503MOL0     C66319   2.153   8.411   2.541  0.1553  0.3987  0.2693
  503MOL0     C66320   2.234   8.446   2.652 -0.0006  0.2850 -0.1648
  503MOL0     C66321   2.358   8.515   2.632  0.7467 -0.6281  0.6667
  503MOL0     O66322   2.442   8.549   2.730 -0.2840 -0.1258  0.0388
  503MOL0     C66323   2.421   8.494   2.861  0.7509  0.1035  0.3835
  503MOL0     C66324   2.331   8.588   2.950 -0.3247  0.2627  0.4765
  503MOL0     C66325   2.299   8.514   3.079 -0.3664  0.2531  0.2032
  503MOL0     C66326   2.228   8.584   3.190 -0.2633 -0.4008 -0.2406
  503MOL0     C66327   2.116   8.652   3.135  0.4596 -0.2494  0.3769
  503MOL0     C66328   2.016   8.711   3.095 -0.1208 -0.4465 -0.9199
  503MOL0     C66329   2.388   8.566   2.503 -0.3042 -0.0420 -0.5722
  503MOL0     C66330   2.308   8.532   2.396  0.8354 -0.7156 -0.8628
  503MOL0     H66331   1.853   8.122   2.370 -1.8172 -0.1182 -0.2397
  503MOL0     H66332   1.729   7.984   2.211 -0.5161  1.4657  0.2998
  503MOL0     H66333   1.596   8.043   1.947  0.6009  0.6857  1.2538
  503MOL0     H66334   1.621   7.897   2.043  0.1407  1.6792  0.5075
  503MOL0     H66335   1.658   7.756   1.833 -2.7889 -1.3532 -1.1291
  503MOL0     H66336   1.611   7.897   1.737  2.1382 -1.1792 -0.4592
  503MOL0     H66337   1.434   7.748   1.941  0.9482 -0.0504 -0.0591
  503MOL0     H66338   1.438   7.727   1.765 -0.5503  1.8274 -1.1991
  503MOL0     H66339   1.372   7.988   1.910 -0.1110  0.0653 -0.9236
  503MOL0     H66340   1.375   7.970   1.731 -0.7210  1.0989  0.7359
  503MOL0     H66341   1.190   7.799   1.908 -0.6062 -0.1713  0.7969
  503MOL0     H66342   1.188   7.837   1.729 -0.2733  1.9931  0.1513
  503MOL0     H66343   1.137   8.037   1.963 -2.7438 -1.2637  1.3781
  503MOL0     H66344   1.008   7.966   1.875 -2.0711  4.3907 -0.9163
  503MOL0     H66345   1.010   8.167   1.779 -1.8747 -2.1425 -1.1110
  503MOL0     H66346   1.190   8.164   1.764  2.7936 -1.7300  2.1950
  503MOL0     H66347   1.160   7.987   1.587  1.1745 -0.9559  3.3426
  503MOL0     H66348   1.061   8.133   1.556 -0.6111  0.2675  0.4733
  503MOL0     H66349   1.006   7.772   1.611 -0.6787 -1.0248 -0.9337
  503MOL0     H66350   0.797   7.614   1.533 -0.1620  0.1773 -0.1824
  503MOL0     H66351   0.631   7.680   1.548  0.6741 -1.0312 -0.7832
  503MOL0     H66352   0.676   7.670   1.803  0.3637 -0.2566  0.7989
  503MOL0     H66353   0.834   7.592   1.763  0.2132  0.7527 -0.2461
  503MOL0     H66354   0.559   7.498   1.686  0.1532  0.7774 -0.0299
  503MOL0     H66355   0.715   7.414   1.655  2.1666  3.2912 -0.6616
  503MOL0     H66356   0.636   7.479   1.940 -2.0205 -0.1489 -0.7075
  503MOL0     H66357   0.776   7.401   1.883  0.4405  0.8595 -2.7786
  503MOL0     H66358   0.531   7.049   1.826  1.0765  1.4335 -1.9724
  503MOL0     H66359   0.296   6.978   1.837 -2.0955  0.1913  1.5751
  503MOL0     H66360  -0.116   7.144   2.119 -1.8660 -1.4193  4.4545
  503MOL0     H66361  -0.330   7.023   2.192 -4.2254 -5.5159 -0.4553
  503MOL0     H66362  -0.526   6.661   2.178  0.9712 -1.2793  0.4906
  503MOL0     H66363  -0.379   6.618   2.097 -1.8054 -0.5639 -1.5216
  503MOL0     H66364  -0.479   6.650   1.887 -0.6753  0.0593 -0.9495
  503MOL0     H66365  -0.585   6.777   1.960 -0.0331  0.5246  2.9783
  503MOL0     H66366  -0.697   6.568   2.063  0.6988  0.4074  0.4433
  503MOL0     H66367  -0.581   6.473   1.968 -1.6057 -0.6679 -0.1418
  503MOL0     H66368  -0.788   6.666   1.838 -2.2204 -0.0705  2.6756
  503MOL0     H66369  -0.699   6.560   1.750 -1.7908  3.0963 -0.4633
  503MOL0     H66370  -0.888   6.479   1.976 -0.0312  2.1345 -0.5562
  503MOL0     H66371  -0.825   6.360   1.859  0.5884  0.2553  1.6400
  503MOL0     H66372  -0.936   6.510   1.673  1.4536 -1.5704 -0.2921
  503MOL0     H66373  -1.013   6.592   1.812  2.4678 -0.4901  2.3215
  503MOL0     H66374  -1.045   6.283   1.769 -0.6980 -0.9833 -1.8844
  503MOL0     H66375  -1.138   6.395   1.874  4.3225 -0.4005  2.1554
  503MOL0     H66376  -1.229   6.509   1.668 -0.8383 -0.2268  3.1402
  503MOL0     H66377  -1.257   6.325   1.662  2.9195 -2.6061 -0.8300
  503MOL0     H66378  -0.282   6.716   1.924 -0.1543  1.2297 -1.4330
  503MOL0     H66379  -0.063   6.806   1.844 -1.5414  0.2138 -0.8797
  503MOL0     H66380   0.179   7.386   1.900 -0.4880 -0.5523 -2.3487
  503MOL0     H66381   0.411   7.464   1.887 -0.5124  1.0716 -2.0651
  503MOL0     H66382   1.985   8.112   1.888  0.4364  0.0623 -0.8707
  503MOL0     H66383   2.126   8.236   2.045  1.3212 -2.7146 -0.8707
  503MOL0     H66384   2.066   8.346   2.549 -2.0516  2.4728 -3.5736
  503MOL0     H66385   2.194   8.419   2.749 -2.4642  2.5121 -0.4411
  503MOL0     H66386   2.514   8.476   2.916  0.6139 -0.8464  0.3209
  503MOL0     H66387   2.371   8.396   2.863 -1.5847  1.2120  2.6433
  503MOL0     H66388   2.377   8.682   2.982 -0.0517  0.7464 -1.2804
  503MOL0     H66389   2.243   8.611   2.890 -0.0493 -3.8675 -1.8933
  503MOL0     H66390   2.387   8.462   3.117  0.0456  1.0024  0.3026
  503MOL0     H66391   2.233   8.435   3.041 -1.0755  1.9020 -2.3250
  503MOL0     H66392   2.182   8.517   3.263 -2.2757  0.0673 -1.0255
  503MOL0     H66393   2.304   8.634   3.251 -0.0044 -4.2550  3.0497
  503MOL0     H66394   1.928   8.763   3.064 -0.1341 -2.3355 -4.5539
  503MOL0     H66395   2.481   8.620   2.490  1.6404 -2.5430  1.6184
  503MOL0     H66396   2.326   8.564   2.293 -0.8993 -1.1682 -1.3412
  504MOL0     O66397   4.911   8.126   2.204 -0.4040 -0.3134 -0.4520
  504MOL0     C66398   4.999   8.203   2.243  0.8534 -0.1264 -0.8094
  504MOL0     O66399   4.978   8.330   2.301  0.7617  0.2410 -0.0176
  504MOL0     C66400   4.857   8.397   2.281 -0.2069 -0.9082  0.5608
  504MOL0     C66401   4.768   8.377   2.169 -0.0494  0.0734 -0.3495
  504MOL0     C66402   4.648   8.451   2.162 -1.0261  0.5960  0.6308
  504MOL0     C66403   4.612   8.546   2.258 -0.3172 -0.3839 -0.1478
  504MOL0     O66404   4.496   8.621   2.264  0.0471 -0.0028  0.0649
  504MOL0     C66405   4.413   8.609   2.149 -0.2110  0.6902  0.4874
  504MOL0     C66406   4.290   8.699   2.145 -0.5810  0.2194  0.2060
  504MOL0     C66407   4.185   8.641   2.249 -0.4187 -0.1841 -0.0451
  504MOL0     C66408   4.049   8.715   2.229 -0.1844 -0.5504  0.1118
  504MOL0     C66409   3.934   8.642   2.302  0.1847  0.3884 -0.7405
  504MOL0     C66410   3.791   8.649   2.237 -0.1296  0.0908  0.6199
  504MOL0     C66411   3.691   8.592   2.345 -0.4842 -0.4083  0.0805
  504MOL0     C66412   3.550   8.608   2.289  1.0087  0.0596 -0.1257
  504MOL0     N66413   3.461   8.548   2.387 -0.2684  0.2074  0.0955
  504MOL0     C66414   3.423   8.594   2.511  0.4041  0.7362 -0.5597
  504MOL0     C66415   3.333   8.503   2.555 -0.6349  0.5202 -0.5281
  504MOL0     C66416   3.267   8.497   2.691  0.1956 -0.9048  0.6121
  504MOL0     C66417   3.335   8.404   2.790 -0.3425  0.2018 -0.4129
  504MOL0     C66418   3.258   8.412   2.922  0.5172 -0.1597 -0.0837
  504MOL0     C66419   3.129   8.330   2.928  0.3144 -0.1517  0.3241
  504MOL0     O66420   3.059   8.374   3.046 -0.3789 -0.9352 -0.0789
  504MOL0     C66421   2.940   8.332   3.086  0.5725  0.2991  0.8272
  504MOL0     C66422   2.902   8.360   3.220  0.4809  0.1113 -0.4505
  504MOL0     C66423   2.769   8.337   3.258  0.0737  0.5221 -0.1518
  504MOL0     C66424   2.678   8.260   3.177  0.3950  0.6497  0.8147
  504MOL0     C66425   2.540   8.221   3.219  0.9904 -0.0753 -0.1212
  504MOL0     O66426   2.485   8.302   3.318 -0.1599  0.5987 -0.2649
  504MOL0     C66427   2.346   8.286   3.346 -0.1698  0.5611 -0.1488
  504MOL0     C66428   2.253   8.226   3.264  0.2909 -0.7129 -0.2562
  504MOL0     C66429   2.115   8.213   3.306 -0.5913 -0.1953 -0.8332
  504MOL0     C66430   2.075   8.261   3.430  0.4992  0.8772 -0.0978
  504MOL0     O66431   1.940   8.257   3.459  0.2643 -0.5441 -0.3101
  504MOL0     C66432   1.869   8.384   3.457 -0.5529 -0.7721  0.6654
  504MOL0     C66433   1.833   8.411   3.313  0.1359 -0.7101 -0.8736
  504MOL0     C66434   1.784   8.555   3.289 -0.6738 -0.6051  0.8607
  504MOL0     C66435   1.656   8.597   3.372 -0.7356  0.0759 -0.8146
  504MOL0     C66436   1.560   8.675   3.296  0.5155 -0.2240  0.1101
  504MOL0     C66437   1.619   8.803   3.242 -0.2548 -0.4364 -0.3146
  504MOL0     C66438   1.637   8.907   3.354 -0.1998 -0.6706  0.1238
  504MOL0     C66439   1.648   9.048   3.312 -0.4458 -0.6163 -0.1110
  504MOL0    Cl66440   1.808   9.081   3.227  0.3440  0.0341 -0.0571
  504MOL0     C66441   2.168   8.326   3.511  0.9377  0.3605  0.3666
  504MOL0     C66442   2.300   8.338   3.471 -0.4443 -0.4653 -0.3126
  504MOL0     O66443   2.486   8.125   3.169  0.0302 -0.3799  0.1156
  504MOL0     C66444   2.718   8.231   3.048 -0.5313 -1.1139 -0.4209
  504MOL0     C66445   2.841   8.268   3.002  0.4608  0.9035 -0.0589
  504MOL0     N66446   3.330   8.396   2.473 -0.2899  0.6697  0.6544
  504MOL0     N66447   3.395   8.434   2.361 -1.1689 -0.6940 -0.5076
  504MOL0     C66448   4.703   8.569   2.358 -0.9328  0.3142 -0.8448
  504MOL0     C66449   4.820   8.487   2.382  0.0717  0.6492 -0.3988
  504MOL0     C66450   5.142   8.157   2.244  0.2459 -0.2731 -1.0041
  504MOL0     C66451   5.238   8.245   2.309  0.8244 -0.6445 -0.1258
  504MOL0     C66452   5.377   8.217   2.307  0.0329  0.7888  0.0621
  504MOL0     C66453   5.418   8.101   2.236 -0.0297  0.1701 -0.0695
  504MOL0     O66454   5.552   8.076   2.241  0.3824 -0.2976  0.1810
  504MOL0     C66455   5.617   7.982   2.155 -0.0237 -0.8705  0.0586
  504MOL0     C66456   5.718   7.891   2.216  0.7916  0.1085  0.8810
  504MOL0     C66457   5.839   7.980   2.241 -0.4044 -0.1550  0.2914
  504MOL0     C66458   5.956   7.912   2.318  0.7801 -0.0444  0.0667
  504MOL0     C66459   6.094   7.964   2.301  0.6199 -0.2143 -0.3140
  504MOL0     C66460   6.210   7.991   2.284 -0.1754 -0.0491 -0.4025
  504MOL0     C66461   5.326   8.010   2.174  0.2831  0.4251  0.1206
  504MOL0     C66462   5.184   8.039   2.183 -0.3100  0.5169  0.1925
  504MOL0     H66463   4.803   8.313   2.089  2.5800  1.2918 -0.2776
  504MOL0     H66464   4.584   8.428   2.077 -1.4866 -0.6990  1.3018
  504MOL0     H66465   4.368   8.509   2.146  0.4351  0.4147 -0.7684
  504MOL0     H66466   4.473   8.624   2.059 -2.0022  1.6695 -0.5900
  504MOL0     H66467   4.242   8.704   2.047 -0.3807 -0.6302  0.0577
  504MOL0     H66468   4.330   8.799   2.165  1.4796 -0.3918 -0.5970
  504MOL0     H66469   4.222   8.646   2.352 -0.6245 -0.7509  0.0584
  504MOL0     H66470   4.171   8.534   2.229  0.8311 -0.6906  1.5850
  504MOL0     H66471   4.053   8.818   2.267 -1.0868 -1.0221  1.5680
  504MOL0     H66472   4.026   8.717   2.122 -1.0318  0.7836  0.2917
  504MOL0     H66473   3.925   8.681   2.404 -3.1388 -0.8000 -0.4582
  504MOL0     H66474   3.957   8.536   2.310 -0.5992  0.1985 -0.9463
  504MOL0     H66475   3.780   8.597   2.141 -0.7510 -1.2312  1.3810
  504MOL0     H66476   3.765   8.755   2.230 -2.6795 -0.4205  1.3998
  504MOL0     H66477   3.716   8.486   2.361  1.0021 -0.1342 -0.3454
  504MOL0     H66478   3.695   8.644   2.441  0.3305 -0.0969 -0.1149
  504MOL0     H66479   3.531   8.557   2.194 -1.3807  1.3466 -0.4097
  504MOL0     H66480   3.527   8.714   2.274  0.1905  0.0844  1.1592
  504MOL0     H66481   3.461   8.676   2.571 -0.9504  2.4815 -1.9812
  504MOL0     H66482   3.165   8.465   2.669  0.1117 -0.4117  0.2846
  504MOL0     H66483   3.257   8.597   2.733 -1.1824 -1.8358  2.6695
  504MOL0     H66484   3.439   8.438   2.795  0.3756 -1.9617  0.7129
  504MOL0     H66485   3.335   8.302   2.751 -0.2584  1.0022 -2.6542
  504MOL0     H66486   3.331   8.368   2.991  0.0376 -0.7173  0.0676
  504MOL0     H66487   3.235   8.513   2.960 -1.5257 -1.2374  1.7900
  504MOL0     H66488   3.145   8.223   2.918  1.8734  0.0097  0.7904
  504MOL0     H66489   3.066   8.352   2.841 -2.8989 -1.9658  2.0379
  504MOL0     H66490   2.968   8.418   3.283 -0.1222 -1.5948  1.8997
  504MOL0     H66491   2.737   8.377   3.354  2.5915  0.6805  0.6857
  504MOL0     H66492   2.266   8.184   3.165 -2.3064 -3.0536  0.2985
  504MOL0     H66493   2.043   8.169   3.236  1.1777 -0.7019 -2.4295
  504MOL0     H66494   1.926   8.467   3.500 -1.6247 -0.4565  1.5029
  504MOL0     H66495   1.775   8.375   3.512 -0.5646  1.6374  1.1098
  504MOL0     H66496   1.758   8.338   3.280  1.6817 -3.8937  2.0569
  504MOL0     H66497   1.924   8.394   3.255  2.0961  3.1800  0.7192
  504MOL0     H66498   1.765   8.569   3.182 -0.1010  2.5149  1.0990
  504MOL0     H66499   1.867   8.622   3.311  2.4823 -2.1318 -4.6359
  504MOL0     H66500   1.619   8.503   3.413 -0.5397  0.6699  0.8034
  504MOL0     H66501   1.684   8.654   3.461 -3.2289  1.9721 -1.1253
  504MOL0     H66502   1.464   8.696   3.343  0.7692  1.9368 -0.2544
  504MOL0     H66503   1.540   8.618   3.205  3.2862 -2.7958  0.9078
  504MOL0     H66504   1.547   8.831   3.164  1.7690 -0.3701 -2.2472
  504MOL0     H66505   1.713   8.791   3.186 -0.0745 -1.7597  0.2226
  504MOL0     H66506   1.544   8.908   3.411 -0.3073 -0.2878 -0.0558
  504MOL0     H66507   1.721   8.880   3.419  1.3021  0.9805 -1.0103
  504MOL0     H66508   1.663   9.119   3.393 -1.0845  0.0510 -0.5560
  504MOL0     H66509   1.571   9.084   3.242  0.4992 -0.5114 -1.1220
  504MOL0     H66510   2.134   8.377   3.600  0.7819  0.4113  0.2770
  504MOL0     H66511   2.366   8.402   3.528  0.8742  0.1635 -2.4515
  504MOL0     H66512   2.648   8.180   2.983 -0.5110  2.7528 -3.9208
  504MOL0     H66513   2.865   8.254   2.897  2.9691 -0.2672  0.5943
  504MOL0     H66514   4.667   8.623   2.445 -0.5568 -0.7867  0.0157
  504MOL0     H66515   4.883   8.498   2.470 -0.6303  2.6282 -0.0889
  504MOL0     H66516   5.201   8.335   2.359 -4.0655 -0.0326 -4.0046
  504MOL0     H66517   5.458   8.280   2.342  0.1081  0.8759 -0.2613
  504MOL0     H66518   5.665   8.039   2.074  0.0781 -0.4277  0.4273
  504MOL0     H66519   5.545   7.917   2.104 -1.3425  2.3303 -2.6066
  504MOL0     H66520   5.668   7.844   2.301  0.1041 -1.7911 -0.5062
  504MOL0     H66521   5.738   7.812   2.144 -0.6857  1.4600 -1.1607
  504MOL0     H66522   5.819   8.068   2.303  1.9956  0.3979  0.3853
  504MOL0     H66523   5.859   8.007   2.137 -1.1351 -1.8047 -0.3012
  504MOL0     H66524   5.937   7.918   2.426  0.7054  1.7782 -0.0240
  504MOL0     H66525   5.968   7.809   2.284  0.7059 -1.3862  3.6091
  504MOL0     H66526   6.316   8.002   2.279  0.0088 -0.8651  1.2426
  504MOL0     H66527   5.337   7.916   2.120  1.1994  0.8846 -0.5119
  504MOL0     H66528   5.115   7.971   2.134  0.5055  0.2961 -0.6759
  505MOL0     O66529   4.690   4.308   4.583 -0.1798 -0.4304  0.4389
  505MOL0     C66530   4.768   4.333   4.677  0.6484 -0.4518  0.3077
  505MOL0     O66531   4.739   4.332   4.813 -0.1082 -0.1021  0.6325
  505MOL0     C66532   4.625   4.280   4.863  0.1323 -0.3318 -0.7770
  505MOL0     C66533   4.642   4.176   4.954  1.1414 -0.2046  0.1219
  505MOL0     C66534   4.532   4.116   5.005 -0.5108 -0.3041  0.4611
  505MOL0     C66535   4.406   4.168   4.987 -0.2339 -0.2073 -0.8692
  505MOL0     O66536   4.304   4.097   5.035  0.4675 -0.2155 -0.3754
  505MOL0     C66537   4.205   4.063   4.927 -1.0370  0.0631 -0.5310
  505MOL0     C66538   4.052   4.076   4.968 -0.4166 -0.4985  0.1159
  505MOL0     C66539   4.027   4.229   4.993 -0.3996 -0.0001  0.8541
  505MOL0     C66540   3.878   4.267   5.014 -0.0461 -0.2076 -0.2778
  505MOL0     C66541   3.850   4.418   5.014  0.5179 -0.6132 -0.8313
  505MOL0     C66542   3.699   4.445   5.042  0.2651 -0.4992 -0.6963
  505MOL0     C66543   3.672   4.595   5.072 -0.6734 -0.0106  0.1266
  505MOL0     C66544   3.526   4.623   5.109 -0.4077  1.4223  0.3010
  505MOL0     N66545   3.507   4.759   5.151 -0.2534 -0.1193 -0.0561
  505MOL0     C66546   3.442   4.804   5.263 -0.0153  0.7009 -0.0067
  505MOL0     C66547   3.444   4.942   5.241 -0.9235 -0.5831 -1.2131
  505MOL0     C66548   3.386   5.051   5.319 -1.1230  0.8358  0.0947
  505MOL0     C66549   3.263   5.113   5.257 -0.2813  0.0747  0.6563
  505MOL0     C66550   3.204   5.235   5.338 -0.5293  1.3481 -0.4924
  505MOL0     C66551   3.095   5.310   5.270  0.1003 -0.2716  0.5654
  505MOL0     O66552   3.028   5.412   5.350 -0.5926 -0.1849 -0.2012
  505MOL0     C66553   2.914   5.368   5.415  0.3044  0.3139  0.9397
  505MOL0     C66554   2.845   5.470   5.474  0.0394  0.1474 -0.2244
  505MOL0     C66555   2.743   5.449   5.575 -0.2718 -0.1471  0.1068
  505MOL0     C66556   2.697   5.316   5.607 -0.6882  0.2631  0.5941
  505MOL0     C66557   2.577   5.285   5.691  0.5327 -0.2564  0.4627
  505MOL0     O66558   2.483   5.382   5.694  0.1090  0.6617  0.4530
  505MOL0     C66559   2.371   5.369   5.779 -0.8439  0.5483  0.4749
  505MOL0     C66560   2.363   5.303   5.904 -0.4365  0.4572 -0.2299
  505MOL0     C66561   2.249   5.313   5.982  0.7618 -0.1975 -0.6068
  505MOL0     C66562   2.144   5.387   5.939  0.2913 -0.6787 -0.2581
  505MOL0     O66563   2.044   5.407   6.030  0.4249 -0.3354  0.3420
  505MOL0     C66564   1.908   5.412   5.980  0.0342  0.5716  0.3760
  505MOL0     C66565   1.840   5.545   6.003  0.2262  0.5059 -0.7122
  505MOL0     C66566   1.809   5.551   6.153 -0.1120 -0.0625 -0.4335
  505MOL0     C66567   1.679   5.483   6.203  0.6405 -0.1814 -0.8368
  505MOL0     C66568   1.548   5.512   6.127 -0.0395  0.2529  0.1358
  505MOL0     C66569   1.429   5.446   6.189  0.2433 -0.2329 -0.2793
  505MOL0     C66570   1.296   5.469   6.121  0.2156  0.0567  0.9821
  505MOL0     C66571   1.183   5.437   6.221 -0.9936 -0.5348 -0.2563
  505MOL0    Cl66572   1.032   5.399   6.136  0.2190 -0.1125 -0.7189
  505MOL0     C66573   2.146   5.453   5.812  0.5264 -0.2822  0.2085
  505MOL0     C66574   2.265   5.447   5.740  0.6102 -0.2325  0.3908
  505MOL0     O66575   2.567   5.175   5.736  0.1339  0.6365 -0.2353
  505MOL0     C66576   2.767   5.214   5.545 -0.8044  0.3618 -0.5656
  505MOL0     C66577   2.879   5.234   5.454 -0.1214 -0.3976 -0.0054
  505MOL0     N66578   3.508   4.968   5.127 -0.3300  0.3926  0.1534
  505MOL0     N66579   3.535   4.859   5.066 -0.1774  0.6855 -0.1312
  505MOL0     C66580   4.386   4.285   4.909 -0.0390  0.7218  1.0340
  505MOL0     C66581   4.503   4.336   4.841 -0.2593 -0.3195  1.0414
  505MOL0     C66582   4.907   4.353   4.636 -0.6945 -0.1041 -0.2629
  505MOL0     C66583   4.950   4.354   4.498  0.2373 -0.2165 -0.1506
  505MOL0     C66584   5.087   4.361   4.463  0.6683 -0.2969  0.5761
  505MOL0     C66585   5.182   4.364   4.566  0.7302  0.1493 -0.5260
  505MOL0     O66586   5.309   4.371   4.525  0.0699 -1.4143  0.6077
  505MOL0     C66587   5.418   4.392   4.622 -0.5735 -0.8393  0.2997
  505MOL0     C66588   5.540   4.429   4.539 -0.9475 -0.2253 -0.3675
  505MOL0     C66589   5.636   4.506   4.628 -0.6101  0.7696  0.5823
  505MOL0     C66590   5.777   4.516   4.558  0.5095  0.5951 -0.2612
  505MOL0     C66591   5.869   4.610   4.635  0.1234 -0.2652 -0.5986
  505MOL0     C66592   5.929   4.690   4.701 -0.5617 -0.0502  0.1564
  505MOL0     C66593   5.142   4.378   4.699  0.5020 -0.4596  0.9115
  505MOL0     C66594   5.003   4.375   4.730 -0.2066  0.0478 -0.3015
  505MOL0     H66595   4.746   4.153   4.974  1.7482  1.2891 -1.1562
  505MOL0     H66596   4.537   4.022   5.060 -1.2923  1.1315  3.1629
  505MOL0     H66597   4.229   3.959   4.901 -0.7713  0.5834 -2.5581
  505MOL0     H66598   4.230   4.115   4.834  1.7062  2.1269  1.2191
  505MOL0     H66599   4.024   4.004   5.045  0.2283 -1.2574 -0.3485
  505MOL0     H66600   3.995   4.051   4.878  2.0704  1.6008 -2.2049
  505MOL0     H66601   4.054   4.279   4.900 -5.6041  0.1401 -0.9296
  505MOL0     H66602   4.089   4.272   5.072  0.5359  1.4561 -0.6100
  505MOL0     H66603   3.818   4.227   4.931 -0.0907  0.0901 -0.3913
  505MOL0     H66604   3.856   4.234   5.116  3.2420  1.1150  0.9715
  505MOL0     H66605   3.881   4.460   4.918  1.5483 -2.8327 -1.5350
  505MOL0     H66606   3.916   4.460   5.091 -0.6739  0.8914 -0.5908
  505MOL0     H66607   3.673   4.391   5.134 -2.2344  1.9880  0.1781
  505MOL0     H66608   3.639   4.408   4.958 -2.9926  2.7384 -0.0171
  505MOL0     H66609   3.729   4.622   5.161  0.8819  0.0216 -0.8310
  505MOL0     H66610   3.713   4.648   4.985  3.3181 -3.9646 -0.7839
  505MOL0     H66611   3.509   4.561   5.198  0.0049 -0.3824 -0.8255
  505MOL0     H66612   3.460   4.591   5.028 -1.4368  0.8423  1.3323
  505MOL0     H66613   3.392   4.738   5.333  1.6122  0.4652  1.0036
  505MOL0     H66614   3.468   5.124   5.320 -0.5342  0.1986  1.9138
  505MOL0     H66615   3.371   5.027   5.424 -2.8615 -1.3861 -0.6058
  505MOL0     H66616   3.184   5.038   5.244 -0.0605 -0.1770  0.7618
  505MOL0     H66617   3.293   5.152   5.159  2.4141 -0.9166  0.9900
  505MOL0     H66618   3.162   5.199   5.432  0.9635  0.3539 -0.1802
  505MOL0     H66619   3.279   5.309   5.368  2.0487 -1.9364  1.8937
  505MOL0     H66620   3.031   5.232   5.228  1.5548 -1.2947  0.1885
  505MOL0     H66621   3.131   5.371   5.186 -4.3925  0.4283 -1.1524
  505MOL0     H66622   2.865   5.570   5.437  1.6420 -0.1638 -0.2441
  505MOL0     H66623   2.701   5.540   5.616  0.8782  0.5363 -0.1965
  505MOL0     H66624   2.445   5.239   5.935 -1.3052 -0.6532 -0.1500
  505MOL0     H66625   2.242   5.258   6.075 -0.6687 -0.4909 -0.8734
  505MOL0     H66626   1.847   5.334   6.027 -2.1315  2.9557  1.8033
  505MOL0     H66627   1.920   5.398   5.873  1.6747 -1.3042  0.7471
  505MOL0     H66628   1.748   5.557   5.944  0.4311 -5.2787 -2.8238
  505MOL0     H66629   1.909   5.626   5.976  1.1023  0.3029  0.8018
  505MOL0     H66630   1.806   5.656   6.184  1.8326 -0.5390  1.6139
  505MOL0     H66631   1.891   5.508   6.211 -0.2343 -0.1726 -0.3411
  505MOL0     H66632   1.689   5.377   6.231 -1.0860 -0.5453 -1.4719
  505MOL0     H66633   1.664   5.526   6.303  1.9424  1.3867 -1.2732
  505MOL0     H66634   1.557   5.468   6.028 -1.0887  1.9894 -0.7770
  505MOL0     H66635   1.539   5.621   6.120 -3.4485  0.1524  1.2724
  505MOL0     H66636   1.418   5.494   6.286 -4.5012 -0.5366 -0.4253
  505MOL0     H66637   1.449   5.339   6.195  1.4637  0.0682  1.8660
  505MOL0     H66638   1.284   5.567   6.075 -1.8039  0.1648  1.6715
  505MOL0     H66639   1.297   5.398   6.037 -2.7112  1.4134 -0.3260
  505MOL0     H66640   1.177   5.521   6.290 -1.3304  0.5921 -1.6097
  505MOL0     H66641   1.210   5.347   6.278  0.3809  0.0498  0.0469
  505MOL0     H66642   2.063   5.518   5.785  1.6903  2.2334  2.2397
  505MOL0     H66643   2.266   5.497   5.644  1.6156  0.4903  0.7535
  505MOL0     H66644   2.743   5.108   5.550  2.1890 -0.5699 -2.9958
  505MOL0     H66645   2.941   5.152   5.419 -1.1364 -1.4529  0.5663
  505MOL0     H66646   4.290   4.333   4.891 -0.1243 -0.0042 -0.6646
  505MOL0     H66647   4.496   4.419   4.771  1.6781 -1.5310 -0.7216
  505MOL0     H66648   4.876   4.356   4.419 -0.8792  3.8578  0.7738
  505MOL0     H66649   5.127   4.368   4.363 -0.4171 -0.6158  0.0940
  505MOL0     H66650   5.442   4.290   4.653  3.8992 -2.0899 -5.5902
  505MOL0     H66651   5.397   4.446   4.715  1.4728  1.3871 -0.4199
  505MOL0     H66652   5.581   4.335   4.503 -1.5117 -0.5219 -0.2380
  505MOL0     H66653   5.514   4.494   4.455  2.8599  0.9227 -0.8838
  505MOL0     H66654   5.645   4.443   4.717 -1.4939 -2.0064 -1.1495
  505MOL0     H66655   5.603   4.607   4.654 -2.1435  1.1688 -2.3692
  505MOL0     H66656   5.832   4.423   4.545  0.1373  0.6645 -2.8205
  505MOL0     H66657   5.763   4.542   4.453 -0.0473  1.7789  0.0915
  505MOL0     H66658   5.985   4.759   4.760 -2.6001  1.3565  0.5566
  505MOL0     H66659   5.205   4.402   4.784 -1.3888  1.1590  1.9438
  505MOL0     H66660   4.981   4.384   4.836 -0.6506  1.4079 -0.4924
  506MOL0     O66661   0.096   1.110  10.564  0.7799 -0.5017  1.0519
  506MOL0     C66662   0.112   1.186  10.465  0.7648 -0.8041 -0.4427
  506MOL0     O66663   0.013   1.246  10.394  0.1779 -0.6289 -1.4613
  506MOL0     C66664  -0.113   1.196  10.409  0.1033  0.4955 -1.5305
  506MOL0     C66665  -0.138   1.054  10.387 -0.1104  0.2265  0.5185
  506MOL0     C66666  -0.269   1.011  10.389  0.1569  0.6952  0.4020
  506MOL0     C66667  -0.374   1.094  10.424 -0.4970 -0.2610  0.8562
  506MOL0     O66668  -0.497   1.041  10.409 -0.1805 -0.1761  0.7130
  506MOL0     C66669  -0.618   1.109  10.441  0.1566  0.5807  0.0679
  506MOL0     C66670  -0.628   1.134  10.592  0.2355  0.5690  0.1343
  506MOL0     C66671  -0.742   1.227  10.631 -0.1949  0.5585 -0.5305
  506MOL0     C66672  -0.886   1.186  10.607 -0.2194  0.3682  0.3128
  506MOL0     C66673  -0.981   1.278  10.683  0.4710 -0.7815 -0.2526
  506MOL0     C66674  -1.122   1.233  10.662  0.5601  1.0989 -0.1136
  506MOL0     C66675  -1.229   1.334  10.699  0.1217  0.2712 -1.0349
  506MOL0     C66676  -1.349   1.248  10.754  0.2247  0.8819  0.2699
  506MOL0     N66677  -1.454   1.335  10.802  0.1772  0.2878  0.3699
  506MOL0     C66678  -1.546   1.402  10.727 -0.1833  0.3593  0.0644
  506MOL0     C66679  -1.645   1.418  10.810  1.0143 -1.2173 -0.5425
  506MOL0     C66680  -1.773   1.480  10.771 -0.1821 -0.8805  0.5855
  506MOL0     C66681  -1.874   1.369  10.739 -0.0576  0.3341 -0.8487
  506MOL0     C66682  -2.013   1.385  10.811  0.0231 -0.1311 -0.0863
  506MOL0     C66683  -2.069   1.523  10.773  0.6586 -0.0368  0.0315
  506MOL0     O66684  -2.087   1.552  10.640  0.5826 -0.0530 -0.1512
  506MOL0     C66685  -2.198   1.496  10.576 -0.6016 -0.5373 -0.3040
  506MOL0     C66686  -2.297   1.416  10.633 -0.2070  0.2420 -0.4238
  506MOL0     C66687  -2.406   1.382  10.563  0.3705  0.0531 -0.4338
  506MOL0     C66688  -2.413   1.407  10.425  0.1787 -0.4143 -0.8673
  506MOL0     C66689  -2.523   1.367  10.353  0.8109 -0.1714  0.4052
  506MOL0     O66690  -2.615   1.293  10.420  0.5487  0.0646 -0.1566
  506MOL0     C66691  -2.724   1.250  10.350 -0.1005 -0.2152 -0.5297
  506MOL0     C66692  -2.809   1.335  10.272  0.2732  0.8059  0.5625
  506MOL0     C66693  -2.913   1.279  10.201  0.0572 -0.0727 -1.2351
  506MOL0     C66694  -2.948   1.153  10.219 -0.4439 -0.0914  0.9411
  506MOL0     O66695  -3.051   1.099  10.137  0.2733 -0.1997  0.0931
  506MOL0     C66696  -3.155   1.014  10.198  0.1793 -0.0924  0.5464
  506MOL0     C66697  -3.266   1.018  10.092 -0.0850  0.1406  0.8036
  506MOL0     C66698  -3.227   0.916   9.980  1.4584 -0.0504  0.1622
  506MOL0     C66699  -3.303   0.946   9.854  0.2459  0.6220  0.8353
  506MOL0     C66700  -3.281   0.836   9.751  0.8077 -0.5804  0.2727
  506MOL0     C66701  -3.404   0.835   9.659 -0.1554 -0.3409 -0.0801
  506MOL0     C66702  -3.404   0.714   9.565 -0.0467  0.0189  0.1394
  506MOL0     C66703  -3.497   0.713   9.436 -0.2947  0.2674 -0.3218
  506MOL0    Cl66704  -3.652   0.798   9.485 -0.3058  0.1017 -0.1483
  506MOL0     C66705  -2.865   1.063  10.284  0.7315 -0.5365 -0.2742
  506MOL0     C66706  -2.752   1.112  10.355  0.0264  0.2747 -0.4004
  506MOL0     O66707  -2.528   1.399  10.233 -0.4125 -1.5749  0.5343
  506MOL0     C66708  -2.311   1.480  10.363 -0.8828 -0.2629 -0.1535
  506MOL0     C66709  -2.201   1.526  10.440  0.4403  0.5456 -0.5946
  506MOL0     N66710  -1.618   1.377  10.934  0.0334 -0.1366  0.3161
  506MOL0     N66711  -1.499   1.333  10.932 -0.4036  0.0530  0.5258
  506MOL0     C66712  -0.344   1.233  10.445  0.9747 -0.4012  0.5408
  506MOL0     C66713  -0.215   1.276  10.435  0.8043 -1.2414 -0.7532
  506MOL0     C66714   0.258   1.202  10.437  0.1950 -0.3501  0.3043
  506MOL0     C66715   0.369   1.132  10.510  0.5512  0.5491  0.4710
  506MOL0     C66716   0.494   1.159  10.482 -0.0943  0.3958 -0.0347
  506MOL0     C66717   0.529   1.257  10.383 -0.5387  0.9198  0.0062
  506MOL0     O66718   0.658   1.287  10.386 -0.0033  0.1866 -0.2524
  506MOL0     C66719   0.720   1.357  10.272 -0.0053 -0.0589  0.4644
  506MOL0     C66720   0.870   1.375  10.301 -0.3520 -0.4732  0.8541
  506MOL0     C66721   0.944   1.429  10.173  0.2411 -0.1462  0.3581
  506MOL0     C66722   1.093   1.430  10.205  0.2150  0.9780  0.3262
  506MOL0     C66723   1.168   1.491  10.090  0.6966 -0.0961 -0.1645
  506MOL0     C66724   1.228   1.527   9.995 -0.3744 -0.2018 -0.3113
  506MOL0     C66725   0.427   1.307  10.300 -0.3185 -0.0915 -0.6285
  506MOL0     C66726   0.299   1.282  10.329 -0.1081  0.0391 -1.1813
  506MOL0     H66727  -0.059   0.983  10.364  1.2857  1.8858 -0.0666
  506MOL0     H66728  -0.303   0.915  10.351  1.1782  1.0848 -1.6148
  506MOL0     H66729  -0.700   1.052  10.395  0.5401  0.7009 -0.7751
  506MOL0     H66730  -0.619   1.205  10.388 -0.1742  0.4304 -0.2039
  506MOL0     H66731  -0.538   1.188  10.624  1.5142 -1.6420  0.4578
  506MOL0     H66732  -0.625   1.035  10.639 -0.9028  0.6879  0.4767
  506MOL0     H66733  -0.736   1.321  10.576 -1.9063  0.2828 -1.2402
  506MOL0     H66734  -0.719   1.244  10.736 -2.9222  1.4012 -0.0129
  506MOL0     H66735  -0.903   1.181  10.499  2.6691 -0.4659 -0.1686
  506MOL0     H66736  -0.897   1.087  10.653 -1.2695  0.8053  1.0367
  506MOL0     H66737  -0.963   1.379  10.643 -1.0468 -0.2512  0.3361
  506MOL0     H66738  -0.959   1.287  10.790 -0.5132 -1.4102  0.0082
  506MOL0     H66739  -1.141   1.144  10.722  1.8357  0.1166 -1.1394
  506MOL0     H66740  -1.143   1.201  10.560 -1.7230 -2.7049  1.3649
  506MOL0     H66741  -1.202   1.401  10.781 -1.6715 -0.3768  0.1428
  506MOL0     H66742  -1.253   1.398  10.614  0.9595  1.2147 -0.5792
  506MOL0     H66743  -1.317   1.197  10.846  0.3318  3.2350  1.6083
  506MOL0     H66744  -1.377   1.182  10.671  2.9707 -0.6716  0.4344
  506MOL0     H66745  -1.526   1.426  10.623  2.1815 -0.8732  0.1526
  506MOL0     H66746  -1.765   1.540  10.680 -1.7719 -1.0391  0.3113
  506MOL0     H66747  -1.803   1.546  10.853 -0.3866 -1.3120  0.8622
  506MOL0     H66748  -1.840   1.269  10.766  1.3890  1.4143  1.7550
  506MOL0     H66749  -1.891   1.361  10.631 -1.3495 -1.9479 -0.5231
  506MOL0     H66750  -2.086   1.321  10.763 -0.9462  0.4086  0.6319
  506MOL0     H66751  -1.999   1.352  10.914 -1.7655 -0.8292 -0.0440
  506MOL0     H66752  -2.001   1.595  10.820  0.6839 -1.0733  1.6556
  506MOL0     H66753  -2.160   1.538  10.831  0.9836 -1.2099  0.8816
  506MOL0     H66754  -2.308   1.394  10.739 -3.4753  0.1743 -0.6738
  506MOL0     H66755  -2.487   1.323  10.605  0.2331  1.7153  1.8333
  506MOL0     H66756  -2.772   1.437  10.260  1.9142  0.3662  1.6186
  506MOL0     H66757  -2.974   1.345  10.140 -0.0551  0.0155 -1.0281
  506MOL0     H66758  -3.199   1.060  10.286 -0.1249  3.5082 -1.2961
  506MOL0     H66759  -3.129   0.909  10.214  2.3710  0.4815  1.0765
  506MOL0     H66760  -3.285   1.114  10.044 -0.8900 -1.3846 -2.2137
  506MOL0     H66761  -3.364   0.993  10.132 -0.3372 -0.7188 -0.3025
  506MOL0     H66762  -3.270   0.826  10.024  2.2004 -1.2994 -1.5672
  506MOL0     H66763  -3.120   0.907   9.965  1.4407 -1.7152  0.8281
  506MOL0     H66764  -3.407   0.970   9.875  0.5315  2.2388  0.5750
  506MOL0     H66765  -3.256   1.036   9.812 -1.7016  0.9261 -0.8544
  506MOL0     H66766  -3.277   0.738   9.799  0.1960 -0.7616 -0.0301
  506MOL0     H66767  -3.190   0.862   9.695  0.0101  2.7547  0.3527
  506MOL0     H66768  -3.402   0.925   9.597 -0.6884 -0.6404 -0.5358
  506MOL0     H66769  -3.495   0.835   9.720 -0.0912 -2.5940  0.0861
  506MOL0     H66770  -3.304   0.694   9.527 -0.5951 -2.6060 -0.1195
  506MOL0     H66771  -3.427   0.631   9.632  1.9451 -2.2734 -1.8425
  506MOL0     H66772  -3.515   0.611   9.403 -0.7088 -0.0290  0.8004
  506MOL0     H66773  -3.448   0.764   9.351 -0.8331  1.1369 -0.1220
  506MOL0     H66774  -2.885   0.958  10.305  0.6635 -0.0081  2.8263
  506MOL0     H66775  -2.681   1.053  10.413 -2.0985 -0.7830  1.3051
  506MOL0     H66776  -2.313   1.521  10.263 -0.7636  0.7996  0.2627
  506MOL0     H66777  -2.136   1.598  10.391  1.4986 -0.8202 -1.2791
  506MOL0     H66778  -0.424   1.303  10.466  1.3766 -0.2567  1.6237
  506MOL0     H66779  -0.189   1.379  10.460 -0.8904 -0.3504 -2.3459
  506MOL0     H66780   0.355   1.075  10.602 -0.0674  1.3619  0.9023
  506MOL0     H66781   0.578   1.110  10.531 -0.6437  0.1491  0.6776
  506MOL0     H66782   0.673   1.452  10.244 -4.4147 -1.7692  1.2926
  506MOL0     H66783   0.716   1.286  10.189  0.0046  1.8086 -1.2152
  506MOL0     H66784   0.885   1.440  10.388 -0.0522  0.2058  0.3102
  506MOL0     H66785   0.901   1.273  10.322  1.6898  0.2234  1.4854
  506MOL0     H66786   0.901   1.524  10.144  1.3919 -0.6037 -3.2765
  506MOL0     H66787   0.927   1.356  10.093  3.5072 -2.8534  1.8302
  506MOL0     H66788   1.123   1.479  10.298  1.4592  0.3305  0.2863
  506MOL0     H66789   1.120   1.325  10.210 -1.8218  0.4588  1.5346
  506MOL0     H66790   1.280   1.555   9.906  1.6602 -0.1796  0.8165
  506MOL0     H66791   0.449   1.382  10.225 -0.1629 -1.9730 -2.5383
  506MOL0     H66792   0.214   1.324  10.276 -2.5239  0.6837  2.7773
  507MOL0     O66793   8.213  10.272   9.038  0.2168  0.4399  0.4094
  507MOL0     C66794   8.281  10.187   8.982  0.0623 -0.1636 -0.0925
  507MOL0     O66795   8.228  10.085   8.905  0.2202  0.0669  0.3531
  507MOL0     C66796   8.104  10.033   8.935  0.2050 -0.3954 -0.5726
  507MOL0     C66797   8.093   9.906   9.003 -0.2955  0.1628  1.0115
  507MOL0     C66798   7.966   9.858   9.035  0.5753  0.9100 -0.3386
  507MOL0     C66799   7.852   9.933   9.015 -0.4519  0.2409 -0.8083
  507MOL0     O66800   7.721   9.894   9.052 -1.1237 -0.3863  0.4968
  507MOL0     C66801   7.712   9.786   9.150 -0.3256  0.1998  0.2933
  507MOL0     C66802   7.583   9.812   9.224  0.2715  0.6890  0.0614
  507MOL0     C66803   7.455   9.837   9.143 -0.4036 -0.5632 -0.8707
  507MOL0     C66804   7.328   9.799   9.220  0.4095 -0.1881  0.0931
  507MOL0     C66805   7.206   9.852   9.150 -0.4566  0.3581  0.1415
  507MOL0     C66806   7.090   9.753   9.154 -0.5361  0.3733  0.5578
  507MOL0     C66807   7.065   9.672   9.027 -1.0506  0.6685  0.2337
  507MOL0     C66808   6.917   9.651   9.007 -0.1896  0.6927 -0.2830
  507MOL0     N66809   6.855   9.560   9.109 -0.9737  0.7319 -0.3968
  507MOL0     C66810   6.894   9.430   9.117 -0.6397  0.0726  0.3648
  507MOL0     C66811   6.851   9.398   9.245  0.0790 -0.3031  0.4056
  507MOL0     C66812   6.874   9.267   9.316 -0.0959 -0.1181 -0.6209
  507MOL0     C66813   7.029   9.245   9.336 -0.1712 -0.0273  0.1418
  507MOL0     C66814   7.079   9.347   9.442 -0.2065 -0.1321 -0.2356
  507MOL0     C66815   7.232   9.350   9.433 -0.0716 -0.3400  0.4173
  507MOL0     O66816   7.279   9.400   9.301  0.4445  0.1646 -0.4185
  507MOL0     C66817   7.412   9.409   9.277 -0.1662 -0.6691  1.0700
  507MOL0     C66818   7.514   9.401   9.376  0.3091 -0.0109 -0.2599
  507MOL0     C66819   7.646   9.422   9.331 -0.6381 -0.4943 -0.2650
  507MOL0     C66820   7.681   9.441   9.197 -1.2697 -0.2074 -0.6522
  507MOL0     C66821   7.825   9.464   9.157  0.3297  0.6031 -0.4823
  507MOL0     O66822   7.910   9.512   9.262 -0.5025  0.4037 -0.0477
  507MOL0     C66823   8.044   9.534   9.228 -0.4693  0.3192  0.4588
  507MOL0     C66824   8.105   9.653   9.261 -0.0448 -0.8399  0.6053
  507MOL0     C66825   8.236   9.681   9.232 -0.4020 -0.3531 -0.5164
  507MOL0     C66826   8.312   9.588   9.159  0.3519  0.6370 -0.4163
  507MOL0     O66827   8.437   9.619   9.106  0.3810  0.3609 -0.4757
  507MOL0     C66828   8.489   9.543   8.997 -1.2917  0.2033  0.6838
  507MOL0     C66829   8.609   9.616   8.936  0.1142  0.3155  0.1460
  507MOL0     C66830   8.567   9.749   8.867  0.2694  0.4077  0.0209
  507MOL0     C66831   8.513   9.715   8.731  0.5175 -0.2192 -0.2285
  507MOL0     C66832   8.479   9.832   8.644  0.6113 -0.1135  0.7259
  507MOL0     C66833   8.462   9.797   8.498 -0.1454  0.4908  0.8638
  507MOL0     C66834   8.413   9.925   8.426  0.0127 -0.0290  0.0577
  507MOL0     C66835   8.421   9.931   8.271 -0.5058  0.3912  0.8699
  507MOL0    Cl66836   8.381  10.098   8.228 -0.1087 -0.3732  0.2172
  507MOL0     C66837   8.255   9.461   9.139  0.2190  0.2155 -0.4630
  507MOL0     C66838   8.121   9.430   9.172 -0.2777 -0.2985 -0.5370
  507MOL0     O66839   7.851   9.458   9.036  0.4133  0.2484  0.6119
  507MOL0     C66840   7.582   9.448   9.100 -0.7317  0.2358  0.1750
  507MOL0     C66841   7.451   9.433   9.139  0.7400  0.1710 -0.2315
  507MOL0     N66842   6.780   9.507   9.299  0.9703 -0.3650  0.3716
  507MOL0     N66843   6.782   9.608   9.217  0.5474 -0.2486 -0.2575
  507MOL0     C66844   7.860  10.055   8.939  0.9668  0.1847  0.0792
  507MOL0     C66845   7.984  10.105   8.905 -0.4629 -0.4239  0.2434
  507MOL0     C66846   8.425  10.218   8.977  0.6067 -1.0428  0.6651
  507MOL0     C66847   8.513  10.131   8.911 -0.2609 -0.1823 -0.4398
  507MOL0     C66848   8.644  10.169   8.898 -0.5325 -0.2476 -1.0393
  507MOL0     C66849   8.700  10.294   8.941 -0.2985 -0.3436 -0.6997
  507MOL0     O66850   8.832  10.330   8.939  0.5205 -0.1473 -0.0329
  507MOL0     C66851   8.937  10.237   8.927  0.1097  1.3504 -0.1057
  507MOL0     C66852   8.983  10.188   9.067  0.8393  0.3813  0.3304
  507MOL0     C66853   9.038  10.298   9.153 -0.6409  0.6588  0.3625
  507MOL0     C66854   9.081  10.244   9.285 -0.1403  0.1522 -0.4365
  507MOL0     C66855   9.125  10.359   9.370 -0.5627  0.5700 -0.2692
  507MOL0     C66856   9.188  10.435   9.445  0.6847 -0.1666 -0.7614
  507MOL0     C66857   8.610  10.371   9.020  0.0227 -0.6375 -0.3839
  507MOL0     C66858   8.476  10.336   9.032  0.4041  0.4068 -1.0109
  507MOL0     H66859   8.174   9.838   9.028  0.1260  0.2586 -0.0449
  507MOL0     H66860   7.965   9.757   9.073  3.2567  1.3274  1.0681
  507MOL0     H66861   7.786   9.783   9.231 -2.4337 -2.0300  2.3307
  507MOL0     H66862   7.700   9.690   9.099  0.5512 -0.7251  1.7578
  507MOL0     H66863   7.586   9.899   9.290 -4.4733  1.0350  0.1757
  507MOL0     H66864   7.567   9.726   9.290 -0.1311  1.2064  0.6541
  507MOL0     H66865   7.454   9.781   9.049 -0.4528  1.4038 -2.1133
  507MOL0     H66866   7.466   9.943   9.115  0.8134 -0.5404 -0.3748
  507MOL0     H66867   7.324   9.692   9.244 -0.8457 -0.0915  0.3811
  507MOL0     H66868   7.337   9.849   9.316  0.5386 -1.3138  0.6900
  507MOL0     H66869   7.225   9.899   9.053 -3.9641  2.3886  0.2416
  507MOL0     H66870   7.163   9.940   9.199 -1.2505  0.1549 -0.1757
  507MOL0     H66871   7.001   9.812   9.177 -0.5922 -0.8405  4.1777
  507MOL0     H66872   7.092   9.681   9.237 -0.1815 -1.9573 -1.3513
  507MOL0     H66873   7.103   9.723   8.938  2.7605 -0.2424  1.1704
  507MOL0     H66874   7.123   9.580   9.026  0.1942  1.3308  3.0738
  507MOL0     H66875   6.907   9.608   8.907  1.5629  1.4940 -0.8394
  507MOL0     H66876   6.874   9.751   9.011  1.0102  1.2808 -1.4465
  507MOL0     H66877   6.956   9.371   9.050  0.2957 -0.6108  1.7765
  507MOL0     H66878   6.834   9.189   9.251  0.3292 -0.0831 -0.9330
  507MOL0     H66879   6.814   9.263   9.407  0.2536 -2.0575 -0.4461
  507MOL0     H66880   7.077   9.251   9.239 -1.8585  0.1173 -0.7229
  507MOL0     H66881   7.056   9.144   9.368 -0.5216 -0.2237 -0.1738
  507MOL0     H66882   7.057   9.445   9.399 -1.1495  0.1072  0.7400
  507MOL0     H66883   7.045   9.343   9.546 -0.5445  0.4260 -0.3226
  507MOL0     H66884   7.268   9.250   9.461 -2.3987 -0.6091  2.9452
  507MOL0     H66885   7.268   9.417   9.511  0.4669  1.2836 -1.1629
  507MOL0     H66886   7.494   9.384   9.481 -0.9630  1.8545 -0.1503
  507MOL0     H66887   7.722   9.428   9.408 -0.6124 -0.0426 -0.3251
  507MOL0     H66888   8.051   9.725   9.321  1.2187  1.7354 -1.1603
  507MOL0     H66889   8.269   9.779   9.266  0.1792 -0.5212 -0.5951
  507MOL0     H66890   8.414   9.516   8.922  0.0913 -1.5546 -0.1225
  507MOL0     H66891   8.522   9.444   9.029 -1.8171  0.7094  3.0010
  507MOL0     H66892   8.661   9.549   8.867  0.5106  0.5889  0.1748
  507MOL0     H66893   8.686   9.635   9.011  1.3089  0.4140 -1.0682
  507MOL0     H66894   8.654   9.814   8.858  1.2668 -0.7950  0.5312
  507MOL0     H66895   8.495   9.818   8.911 -0.9168  2.0061 -3.9654
  507MOL0     H66896   8.584   9.646   8.685  0.5732  0.5512 -1.3328
  507MOL0     H66897   8.421   9.655   8.732  3.6280 -5.7565 -1.2668
  507MOL0     H66898   8.553   9.912   8.653  1.2991 -0.9836  4.2071
  507MOL0     H66899   8.381   9.874   8.672 -0.1908 -1.5295  0.1641
  507MOL0     H66900   8.379   9.726   8.494 -1.8093  2.3774 -0.5270
  507MOL0     H66901   8.555   9.761   8.452 -0.1677  0.9188  0.4709
  507MOL0     H66902   8.313   9.952   8.463  0.5378  2.0906  0.0213
  507MOL0     H66903   8.477  10.006   8.461  0.4702  0.1956 -1.2748
  507MOL0     H66904   8.344   9.862   8.235 -1.1880  2.6691 -2.4257
  507MOL0     H66905   8.521   9.903   8.238 -0.5826 -0.4878  1.3654
  507MOL0     H66906   8.314   9.381   9.096  2.3196  1.2453  0.3893
  507MOL0     H66907   8.094   9.325   9.162  0.9516 -0.6448 -0.3828
  507MOL0     H66908   7.610   9.467   8.997  0.1216 -1.9113 -0.0387
  507MOL0     H66909   7.367   9.435   9.070  0.2183  0.2963  0.3945
  507MOL0     H66910   7.763  10.101   8.920  2.1399  3.0291  0.5031
  507MOL0     H66911   7.991  10.195   8.846  0.5180 -1.0747 -0.6689
  507MOL0     H66912   8.486  10.038   8.861 -0.8637  1.3532 -3.1583
  507MOL0     H66913   8.715  10.104   8.849 -0.1566  0.6491 -1.7182
  507MOL0     H66914   9.029  10.284   8.889  1.7666 -0.2254  1.7633
  507MOL0     H66915   8.927  10.155   8.855  2.4817 -0.6735  1.6903
  507MOL0     H66916   8.901  10.132   9.112  0.4805  1.5887  1.2285
  507MOL0     H66917   9.057  10.109   9.057  0.1277 -0.2040 -0.4375
  507MOL0     H66918   8.962  10.376   9.165 -1.0174  0.4714 -0.7304
  507MOL0     H66919   9.127  10.344   9.109  1.4444 -1.2884  2.2866
  507MOL0     H66920   9.001  10.187   9.333  0.3656 -1.6970 -1.6441
  507MOL0     H66921   9.167  10.176   9.286 -1.6999 -1.9434 -0.6969
  507MOL0     H66922   9.229  10.511   9.509 -2.5575 -0.8006  2.3891
  507MOL0     H66923   8.644  10.466   9.059  1.2628 -1.1079 -0.2782
  507MOL0     H66924   8.412  10.410   9.077 -0.3378 -0.6597 -0.2724
  508MOL0     O66925   2.686   7.973   4.482  0.2209 -0.5098 -0.1032
  508MOL0     C66926   2.736   8.002   4.374 -0.0103  0.0338  0.6199
  508MOL0     O66927   2.671   7.999   4.255  0.1638  0.6249  0.4069
  508MOL0     C66928   2.541   7.978   4.227  0.1955  0.1445 -0.1512
  508MOL0     C66929   2.507   7.912   4.107 -0.0064  0.2769  0.0387
  508MOL0     C66930   2.379   7.883   4.079 -0.1880 -0.0779  0.1324
  508MOL0     C66931   2.276   7.927   4.171  0.4685  0.1500 -1.0866
  508MOL0     O66932   2.148   7.894   4.123 -0.7167 -0.4651 -0.5293
  508MOL0     C66933   2.041   7.982   4.158  0.9208  0.0977  0.0938
  508MOL0     C66934   1.925   7.958   4.061  0.6336 -0.0872  0.0176
  508MOL0     C66935   1.816   8.060   4.088  0.5517  0.3529  0.9931
  508MOL0     C66936   1.708   8.015   3.992 -0.7757 -0.0014 -0.3118
  508MOL0     C66937   1.585   8.111   3.983  0.1671  0.0768 -0.1004
  508MOL0     C66938   1.507   8.138   4.117  0.3759  0.3022  0.4500
  508MOL0     C66939   1.358   8.156   4.091  0.2301  1.2722 -0.0519
  508MOL0     C66940   1.323   8.285   4.024 -0.1266 -0.6243 -0.9949
  508MOL0     N66941   1.202   8.272   3.944  0.4662  0.3165 -0.7504
  508MOL0     C66942   1.176   8.354   3.840  0.4887  0.3697 -0.5754
  508MOL0     C66943   1.076   8.281   3.779  0.2580 -0.6234  0.3806
  508MOL0     C66944   1.011   8.326   3.650 -0.3438  1.0899 -0.0010
  508MOL0     C66945   0.893   8.233   3.610  0.4807  0.2930  0.9451
  508MOL0     C66946   0.839   8.268   3.470 -0.3581 -0.5905 -0.4238
  508MOL0     C66947   0.710   8.190   3.432 -0.3556 -0.7435 -0.6688
  508MOL0     O66948   0.618   8.238   3.525  0.4275 -0.5399  0.2110
  508MOL0     C66949   0.484   8.213   3.500 -0.7961 -0.1549 -0.0692
  508MOL0     C66950   0.436   8.098   3.454 -0.6303 -0.5816  0.3102
  508MOL0     C66951   0.305   8.064   3.426  0.8543 -0.1335 -1.2090
  508MOL0     C66952   0.208   8.166   3.439 -1.0693  0.3275  0.3957
  508MOL0     C66953   0.077   8.148   3.385  0.6914  0.2593  0.2182
  508MOL0     O66954   0.065   8.034   3.305 -0.4626  0.1484 -0.0111
  508MOL0     C66955  -0.052   7.996   3.250 -0.1758 -0.0988  0.5119
  508MOL0     C66956  -0.046   7.934   3.123 -0.3389 -0.6198 -0.5291
  508MOL0     C66957  -0.163   7.899   3.054 -0.6927  0.5914 -0.2809
  508MOL0     C66958  -0.290   7.919   3.123  0.1778  1.0864 -0.6004
  508MOL0     O66959  -0.402   7.912   3.051 -0.2363 -0.3488 -0.1470
  508MOL0     C66960  -0.420   7.779   2.995  0.9530 -0.8116 -0.5245
  508MOL0     C66961  -0.543   7.721   3.065 -0.0827 -0.3673 -0.4451
  508MOL0     C66962  -0.669   7.793   3.041  0.0763 -0.9559 -0.2748
  508MOL0     C66963  -0.780   7.722   3.118 -0.0135 -0.0231  0.1108
  508MOL0     C66964  -0.913   7.793   3.103  0.1440 -0.1416  0.2552
  508MOL0     C66965  -1.012   7.764   3.216 -0.3337  0.1581  0.2062
  508MOL0     C66966  -1.039   7.611   3.245 -0.1939  0.1627 -0.8680
  508MOL0     C66967  -1.069   7.533   3.115 -0.4178  0.9110 -0.2898
  508MOL0    Cl66968  -1.116   7.376   3.164  0.1547  0.0449 -0.3040
  508MOL0     C66969  -0.292   7.979   3.247  0.4674  0.2306 -0.2083
  508MOL0     C66970  -0.178   8.015   3.315  0.1255 -0.7681 -0.1535
  508MOL0     O66971  -0.012   8.232   3.410 -0.4841  0.3658  0.1659
  508MOL0     C66972   0.246   8.288   3.485 -0.9539 -0.3891 -0.3257
  508MOL0     C66973   0.382   8.305   3.516 -0.5865  0.6718 -0.8557
  508MOL0     N66974   1.044   8.170   3.845  0.6595  0.7909  0.3221
  508MOL0     N66975   1.111   8.177   3.954 -0.1043  0.5159  0.4472
  508MOL0     C66976   2.307   8.001   4.286  0.6012  1.0858  0.1753
  508MOL0     C66977   2.443   8.032   4.309 -0.5023 -0.3599 -0.8989
  508MOL0     C66978   2.880   8.050   4.378  0.5750  0.4365  1.0790
  508MOL0     C66979   2.942   8.084   4.256  0.3288  1.2505  0.0937
  508MOL0     C66980   3.072   8.121   4.259 -0.2775  0.5177  0.1978
  508MOL0     C66981   3.143   8.142   4.376  0.6642  1.2588 -0.0149
  508MOL0     O66982   3.276   8.167   4.368 -0.0810 -0.7563  0.6788
  508MOL0     C66983   3.364   8.154   4.482 -0.6032  0.1663 -0.0467
  508MOL0     C66984   3.501   8.193   4.435  0.1766  0.2700  0.3106
  508MOL0     C66985   3.512   8.345   4.432 -0.2774 -0.3015 -0.4508
  508MOL0     C66986   3.644   8.376   4.371  0.2717  0.1289  0.2963
  508MOL0     C66987   3.646   8.524   4.377 -0.6388  0.7059  0.1684
  508MOL0     C66988   3.673   8.636   4.370 -0.6218  0.1523  1.1623
  508MOL0     C66989   3.082   8.115   4.501 -1.0396  0.0894 -0.5077
  508MOL0     C66990   2.948   8.070   4.493  0.2485  0.2650 -0.5464
  508MOL0     H66991   2.580   7.867   4.041  0.2786  1.4590 -0.4758
  508MOL0     H66992   2.357   7.832   3.986 -1.7789  2.5338 -1.0356
  508MOL0     H66993   2.073   8.087   4.155 -0.1262  0.4045 -1.1342
  508MOL0     H66994   2.015   7.959   4.261  2.3761 -3.1774 -0.1499
  508MOL0     H66995   1.884   7.857   4.076 -0.2576  0.4961  1.8720
  508MOL0     H66996   1.965   7.967   3.960 -0.0862  2.3801 -0.0974
  508MOL0     H66997   1.853   8.162   4.077  0.6377  0.2836  0.5914
  508MOL0     H66998   1.778   8.049   4.189 -2.1483 -0.7016 -0.0505
  508MOL0     H66999   1.749   8.008   3.891 -1.3512  0.8484 -0.6129
  508MOL0     H67000   1.675   7.917   4.030  2.5416  0.0384  3.2934
  508MOL0     H67001   1.513   8.069   3.913  1.2935 -2.7860  0.3060
  508MOL0     H67002   1.622   8.206   3.942 -2.2920  1.1541  0.0277
  508MOL0     H67003   1.545   8.226   4.170 -1.3189  0.6578  1.1416
  508MOL0     H67004   1.525   8.051   4.180  0.1067 -1.3480 -1.6382
  508MOL0     H67005   1.316   8.069   4.040 -1.0685 -0.7433  4.0637
  508MOL0     H67006   1.306   8.164   4.187 -1.6955  2.3685 -1.1145
  508MOL0     H67007   1.407   8.310   3.958 -1.3026  1.0476 -1.8974
  508MOL0     H67008   1.304   8.363   4.099 -0.5082 -1.5921 -0.0511
  508MOL0     H67009   1.230   8.437   3.795  0.6572 -0.0439 -1.1524
  508MOL0     H67010   1.082   8.318   3.567 -1.8337  2.8811 -1.5620
  508MOL0     H67011   0.982   8.431   3.663  0.5723  1.2561  0.7848
  508MOL0     H67012   0.815   8.248   3.685  0.3371  3.6607  0.2711
  508MOL0     H67013   0.923   8.128   3.620 -2.4257 -0.5422  1.9829
  508MOL0     H67014   0.816   8.375   3.463 -2.2022 -1.0014 -1.1696
  508MOL0     H67015   0.913   8.254   3.390  1.4152  2.4540  0.4819
  508MOL0     H67016   0.716   8.083   3.453  1.2933 -0.9646 -2.0207
  508MOL0     H67017   0.674   8.212   3.331 -2.5201  0.4482  0.2997
  508MOL0     H67018   0.502   8.014   3.434 -1.6402 -2.0286  2.6553
  508MOL0     H67019   0.273   7.965   3.397  2.2973 -1.0870  0.3032
  508MOL0     H67020   0.045   7.938   3.064 -0.3937  0.4326 -0.5602
  508MOL0     H67021  -0.160   7.855   2.955  0.0017 -1.5168  0.6132
  508MOL0     H67022  -0.336   7.710   3.006  1.8263 -0.0932 -2.1756
  508MOL0     H67023  -0.445   7.790   2.889 -2.4801 -0.7054  0.1764
  508MOL0     H67024  -0.532   7.713   3.174 -2.8278  0.1864 -0.0639
  508MOL0     H67025  -0.559   7.619   3.029  0.4419 -0.7471  0.3504
  508MOL0     H67026  -0.687   7.794   2.933 -1.4623 -0.6779 -0.0389
  508MOL0     H67027  -0.654   7.895   3.079 -0.2136 -0.0238 -2.5448
  508MOL0     H67028  -0.786   7.616   3.089 -0.8638 -0.6833  2.4471
  508MOL0     H67029  -0.757   7.723   3.225 -0.8528 -2.3697  0.3659
  508MOL0     H67030  -0.950   7.767   3.003 -0.7510  1.3128  0.1770
  508MOL0     H67031  -0.890   7.898   3.086  2.5617 -1.0361 -3.1008
  508MOL0     H67032  -1.107   7.810   3.188  0.9876  1.3960 -2.7232
  508MOL0     H67033  -0.980   7.809   3.310 -0.7451  1.6716 -0.3602
  508MOL0     H67034  -0.958   7.566   3.303 -0.7613 -1.5133 -1.3240
  508MOL0     H67035  -1.119   7.594   3.318  0.5707 -2.0333 -0.4874
  508MOL0     H67036  -0.980   7.520   3.053  1.7430 -1.0984  2.9215
  508MOL0     H67037  -1.145   7.578   3.050  2.7909  2.8390 -3.0148
  508MOL0     H67038  -0.384   8.000   3.301  0.8031  0.8129  0.1610
  508MOL0     H67039  -0.196   8.066   3.409 -3.0531 -2.3938  0.2518
  508MOL0     H67040   0.176   8.365   3.516  1.6699  1.1898  2.2395
  508MOL0     H67041   0.402   8.404   3.557 -1.7284  0.2057  0.9406
  508MOL0     H67042   2.228   8.030   4.354  0.4169  1.5512 -0.2299
  508MOL0     H67043   2.472   8.095   4.392  1.5898 -2.2866 -0.0715
  508MOL0     H67044   2.894   8.077   4.159 -0.9895 -0.0647  0.7877
  508MOL0     H67045   3.120   8.140   4.163 -1.3228  2.1292 -0.0428
  508MOL0     H67046   3.361   8.053   4.523 -2.4426  1.0742  2.2797
  508MOL0     H67047   3.335   8.216   4.568 -0.3676 -0.0722  0.2062
  508MOL0     H67048   3.570   8.153   4.510  1.4059  2.2235  0.3072
  508MOL0     H67049   3.523   8.146   4.338 -2.2093 -0.1095 -0.1075
  508MOL0     H67050   3.508   8.373   4.538 -0.8606 -0.4483 -0.4303
  508MOL0     H67051   3.433   8.389   4.371 -1.8700 -1.5437  0.6182
  508MOL0     H67052   3.723   8.329   4.430  0.9328  1.2064  0.3066
  508MOL0     H67053   3.658   8.357   4.264  0.3071  1.5788  0.0236
  508MOL0     H67054   3.693   8.738   4.348 -0.2611  0.2679  1.9852
  508MOL0     H67055   3.138   8.111   4.594  1.5836 -0.2308 -1.9829
  508MOL0     H67056   2.909   8.051   4.593  2.1631 -0.4232  0.1212
  509MOL0     O67057   3.249   1.488   9.184  0.0471 -0.3140  0.3628
  509MOL0     C67058   3.237   1.597   9.129  0.5125  0.3529  0.5483
  509MOL0     O67059   3.126   1.653   9.089  0.8667 -0.4039  0.7704
  509MOL0     C67060   3.005   1.580   9.101 -0.9348 -0.6928  0.4236
  509MOL0     C67061   2.888   1.659   9.135  0.1907 -0.1173  0.1355
  509MOL0     C67062   2.768   1.592   9.159 -0.1727  0.5224  0.4052
  509MOL0     C67063   2.746   1.462   9.124 -0.3479  0.5255 -1.6323
  509MOL0     O67064   2.618   1.418   9.151 -0.0110  0.0210  0.3311
  509MOL0     C67065   2.579   1.299   9.076 -0.0178 -0.1136 -0.8140
  509MOL0     C67066   2.419   1.279   9.083 -0.3099 -0.6487 -0.0759
  509MOL0     C67067   2.353   1.391   9.003  0.0856 -0.6590 -0.4098
  509MOL0     C67068   2.199   1.375   8.995 -0.0031 -0.6451  0.0566
  509MOL0     C67069   2.128   1.486   8.912 -0.4828  0.2172  1.0153
  509MOL0     C67070   2.145   1.476   8.760 -0.4712 -0.4096 -0.7155
  509MOL0     C67071   2.030   1.392   8.695 -0.0270  0.1754 -1.4750
  509MOL0     C67072   1.990   1.448   8.563 -0.2548  0.4295  0.2753
  509MOL0     N67073   2.116   1.457   8.483 -0.5779 -0.0827 -0.0768
  509MOL0     C67074   2.165   1.566   8.423 -0.1169 -0.7446 -0.2740
  509MOL0     C67075   2.264   1.537   8.337 -0.6251  0.0386  0.1525
  509MOL0     C67076   2.311   1.629   8.226 -0.2095  0.5636 -0.0601
  509MOL0     C67077   2.366   1.759   8.268  0.0529  0.3226 -0.4805
  509MOL0     C67078   2.515   1.737   8.312  0.4031  0.0339  0.0511
  509MOL0     C67079   2.595   1.867   8.323 -0.4950 -1.0968 -0.5700
  509MOL0     O67080   2.734   1.826   8.345  0.4422  0.1570  0.5713
  509MOL0     C67081   2.834   1.907   8.381  0.3970 -0.6639  0.2916
  509MOL0     C67082   2.973   1.870   8.377  0.0452 -0.0173  0.9475
  509MOL0     C67083   3.081   1.962   8.384 -0.4373  0.4241 -0.9554
  509MOL0     C67084   3.053   2.096   8.411 -0.4699  1.0314  0.4976
  509MOL0     C67085   3.154   2.206   8.428 -0.1404  0.0382  1.1476
  509MOL0     O67086   3.104   2.332   8.452 -0.0596 -0.1262 -0.2930
  509MOL0     C67087   3.202   2.426   8.468 -0.1368 -0.8722 -0.2354
  509MOL0     C67088   3.289   2.426   8.582  0.0762 -0.1353 -0.0110
  509MOL0     C67089   3.378   2.533   8.606  0.7908  0.1988  1.0522
  509MOL0     C67090   3.359   2.656   8.525 -0.1895  0.9126  0.7199
  509MOL0     O67091   3.454   2.746   8.557  0.1499  0.0682  0.1118
  509MOL0     C67092   3.433   2.881   8.527 -0.3998 -0.6290  0.6886
  509MOL0     C67093   3.511   2.973   8.620  0.5321  0.0397 -0.1951
  509MOL0     C67094   3.649   2.924   8.656 -0.0048  0.5581  0.1400
  509MOL0     C67095   3.721   3.013   8.760  0.4830  0.2220  0.3227
  509MOL0     C67096   3.855   2.933   8.790 -0.2358  1.0184 -0.1517
  509MOL0     C67097   3.936   3.007   8.896  0.0902  0.5354 -1.1943
  509MOL0     C67098   4.077   2.952   8.914  0.3674 -0.1279 -0.1001
  509MOL0     C67099   4.165   3.034   9.007 -0.4099 -0.5178  0.3679
  509MOL0    Cl67100   4.204   3.195   8.932 -0.4278  0.4377 -0.0895
  509MOL0     C67101   3.280   2.649   8.408 -0.6261  0.9317 -0.2040
  509MOL0     C67102   3.199   2.531   8.380 -0.0127 -0.2623  0.5974
  509MOL0     O67103   3.270   2.176   8.425 -1.0243  0.0806 -0.1200
  509MOL0     C67104   2.919   2.134   8.429 -0.2486 -0.5434 -0.0983
  509MOL0     C67105   2.812   2.044   8.414  0.7273  0.4069  0.0510
  509MOL0     N67106   2.280   1.397   8.351  0.3652 -0.1978  0.2562
  509MOL0     N67107   2.189   1.358   8.434 -0.5704  0.7087 -0.1500
  509MOL0     C67108   2.857   1.379   9.105  0.2871  0.4558  0.4169
  509MOL0     C67109   2.984   1.441   9.102 -0.1697  0.5078 -0.3312
  509MOL0     C67110   3.361   1.678   9.114  0.6692  0.2521  0.4274
  509MOL0     C67111   3.479   1.636   9.074 -0.3386  0.6683 -0.2075
  509MOL0     C67112   3.593   1.719   9.061 -1.3082 -0.5585 -0.6128
  509MOL0     C67113   3.585   1.856   9.094 -0.0017  0.4928 -0.3879
  509MOL0     O67114   3.687   1.951   9.079  0.2688  0.3206  0.0161
  509MOL0     C67115   3.815   1.907   9.028 -0.7813 -0.1666  0.0899
  509MOL0     C67116   3.909   2.033   9.032  0.0161 -0.1997 -0.3847
  509MOL0     C67117   4.029   2.011   8.938  0.8236 -0.7403 -0.5540
  509MOL0     C67118   4.128   2.132   8.922  0.0275 -0.0708 -0.1136
  509MOL0     C67119   4.212   2.144   9.047 -0.1297 -0.6733  0.7437
  509MOL0     C67120   4.284   2.160   9.147  0.2566  0.1683  0.3385
  509MOL0     C67121   3.458   1.898   9.145 -0.0540 -0.4790  0.0272
  509MOL0     C67122   3.346   1.816   9.153 -1.3444  0.8505 -0.1930
  509MOL0     H67123   2.899   1.765   9.153 -1.4014 -0.0289  0.6714
  509MOL0     H67124   2.686   1.648   9.202 -1.1536  2.8929 -3.8795
  509MOL0     H67125   2.617   1.206   9.120  0.3127  0.4071  0.0356
  509MOL0     H67126   2.602   1.291   8.969 -1.7988 -1.5875 -1.1250
  509MOL0     H67127   2.388   1.284   9.187  2.0797  0.6001  0.6425
  509MOL0     H67128   2.385   1.182   9.045  0.0289 -0.1001 -1.9218
  509MOL0     H67129   2.393   1.399   8.902  2.4282  0.1201  0.4963
  509MOL0     H67130   2.383   1.483   9.054  2.9910 -1.7481  0.0536
  509MOL0     H67131   2.182   1.272   8.962  1.9678 -1.5925  1.7855
  509MOL0     H67132   2.160   1.383   9.097 -4.0723 -1.3953 -1.2627
  509MOL0     H67133   2.173   1.580   8.945  0.2361  0.2979 -0.1305
  509MOL0     H67134   2.023   1.492   8.941 -0.4476 -0.9612  1.4131
  509MOL0     H67135   2.243   1.432   8.737  0.7852  1.1802  1.2696
  509MOL0     H67136   2.149   1.577   8.718 -0.6409  0.1222  0.4990
  509MOL0     H67137   2.065   1.289   8.698 -1.1637 -0.3375 -3.5536
  509MOL0     H67138   1.945   1.398   8.764  1.5456 -0.0547  0.5358
  509MOL0     H67139   1.946   1.548   8.561  2.6607  1.8347 -1.7652
  509MOL0     H67140   1.925   1.372   8.520  1.6502 -1.8889  1.2630
  509MOL0     H67141   2.111   1.660   8.424 -0.6629 -1.0493 -0.5603
  509MOL0     H67142   2.222   1.644   8.165 -0.2985 -0.4624 -0.2053
  509MOL0     H67143   2.389   1.578   8.169  2.8425  1.3960  2.9692
  509MOL0     H67144   2.304   1.811   8.342  1.6076 -0.9577  1.8276
  509MOL0     H67145   2.374   1.822   8.178  2.3986 -5.0334 -4.5684
  509MOL0     H67146   2.508   1.684   8.408 -2.9742  0.7916  0.3483
  509MOL0     H67147   2.557   1.671   8.236 -3.9008 -1.7549 -1.0943
  509MOL0     H67148   2.556   1.931   8.402 -2.1322 -0.9369 -1.4679
  509MOL0     H67149   2.599   1.928   8.232 -3.4893 -1.0582 -0.7485
  509MOL0     H67150   2.991   1.766   8.353 -0.4410  0.1302 -0.0980
  509MOL0     H67151   3.185   1.931   8.372 -0.8058 -1.2982 -0.0420
  509MOL0     H67152   3.269   2.349   8.656 -0.5255  0.2959  0.2835
  509MOL0     H67153   3.431   2.527   8.700  1.5075  1.5878  0.7760
  509MOL0     H67154   3.326   2.905   8.530 -0.0259  1.7218 -1.2579
  509MOL0     H67155   3.464   2.903   8.425 -1.3819  0.7991  0.6675
  509MOL0     H67156   3.455   2.966   8.713  0.0532 -1.1078 -0.5559
  509MOL0     H67157   3.515   3.073   8.576  0.0531 -0.6938 -2.0002
  509MOL0     H67158   3.706   2.915   8.563  0.6479 -0.6532  0.6272
  509MOL0     H67159   3.647   2.819   8.688 -0.9871  0.6160  0.3044
  509MOL0     H67160   3.740   3.112   8.718 -0.9317  1.2136  1.8812
  509MOL0     H67161   3.652   3.025   8.845 -0.2596  0.7909 -0.3440
  509MOL0     H67162   3.905   2.919   8.694  0.0970 -1.3259  0.3177
  509MOL0     H67163   3.853   2.835   8.837  0.3811  0.2513 -1.6668
  509MOL0     H67164   3.891   3.005   8.995  2.7591  1.0793  0.1057
  509MOL0     H67165   3.937   3.112   8.866  0.1025  0.6588 -0.7700
  509MOL0     H67166   4.064   2.860   8.973  0.4255  0.7351  1.3011
  509MOL0     H67167   4.116   2.916   8.818  1.3481 -1.4660  0.7644
  509MOL0     H67168   4.261   2.982   9.017  0.3420  1.0888  1.9398
  509MOL0     H67169   4.117   3.049   9.104 -0.4672 -0.2110  0.2906
  509MOL0     H67170   3.277   2.735   8.342 -1.1884  1.0717  0.0004
  509MOL0     H67171   3.138   2.528   8.289 -0.0071 -1.0713  0.6185
  509MOL0     H67172   2.890   2.238   8.438 -0.8197 -0.8817  3.1442
  509MOL0     H67173   2.709   2.079   8.412 -0.8993 -3.5279  2.4015
  509MOL0     H67174   2.845   1.271   9.112  1.9908  0.2879  1.1905
  509MOL0     H67175   3.067   1.372   9.119  2.0135  2.9331 -0.4412
  509MOL0     H67176   3.482   1.535   9.034  1.6733  0.8658 -0.6238
  509MOL0     H67177   3.680   1.670   9.017 -2.0706 -1.7513 -0.8273
  509MOL0     H67178   3.802   1.872   8.926 -1.0206  0.8200 -0.2314
  509MOL0     H67179   3.862   1.826   9.084 -0.8431 -0.2517  0.0177
  509MOL0     H67180   3.854   2.124   9.008 -0.9860 -0.3879  1.0911
  509MOL0     H67181   3.942   2.046   9.135 -1.5456  3.0872 -0.1790
  509MOL0     H67182   3.995   1.984   8.838  2.3460 -2.2318 -0.7210
  509MOL0     H67183   4.088   1.924   8.969  2.0884 -0.2594 -1.5421
  509MOL0     H67184   4.188   2.123   8.831 -2.6034  0.4725 -2.0411
  509MOL0     H67185   4.068   2.221   8.902 -0.1288  0.0312  0.7797
  509MOL0     H67186   4.347   2.168   9.234  0.8904 -0.7565 -0.0226
  509MOL0     H67187   3.447   2.002   9.175 -0.3050 -0.0078 -1.5641
  509MOL0     H67188   3.246   1.855   9.171 -1.4163  1.8326 -2.4091
  510MOL0     O67189   9.467   5.769   9.183 -0.2845 -0.1355  0.2325
  510MOL0     C67190   9.452   5.809   9.298  0.4537  0.4287 -0.2123
  510MOL0     O67191   9.334   5.814   9.358 -0.3373  0.4011 -0.4181
  510MOL0     C67192   9.216   5.774   9.313 -0.7871 -0.3760  0.9424
  510MOL0     C67193   9.194   5.658   9.239  0.3533 -0.0291  0.5344
  510MOL0     C67194   9.057   5.620   9.211  0.4212  0.0794  0.1531
  510MOL0     C67195   8.945   5.701   9.250 -0.0903 -0.1405 -0.2525
  510MOL0     O67196   8.819   5.648   9.232 -0.1771  0.2285 -1.4379
  510MOL0     C67197   8.710   5.682   9.322  0.4947  0.4680  0.6057
  510MOL0     C67198   8.576   5.619   9.287 -0.1415  0.0460 -0.3165
  510MOL0     C67199   8.500   5.675   9.165  0.2160 -0.3235 -0.1238
  510MOL0     C67200   8.465   5.827   9.174 -0.2247  0.4760 -0.0547
  510MOL0     C67201   8.374   5.885   9.062  0.3123  0.8728 -0.0411
  510MOL0     C67202   8.241   5.804   9.044 -0.1542 -0.0484  0.5294
  510MOL0     C67203   8.139   5.883   8.962  0.1315 -0.2921 -0.2747
  510MOL0     C67204   8.190   5.902   8.820 -0.4470  0.9135 -0.6651
  510MOL0     N67205   8.075   5.947   8.734  0.1732 -0.7707 -0.2113
  510MOL0     C67206   8.011   6.074   8.727 -0.3547  0.0110  0.2545
  510MOL0     C67207   7.908   6.055   8.634 -0.3966 -0.3005  0.2580
  510MOL0     C67208   7.820   6.175   8.600  0.5698 -0.6734  0.2355
  510MOL0     C67209   7.689   6.167   8.674  0.0843  0.0392 -0.5296
  510MOL0     C67210   7.620   6.033   8.652 -0.7417 -0.2545 -0.5963
  510MOL0     C67211   7.467   6.045   8.665 -0.6613 -0.2425 -0.3533
  510MOL0     O67212   7.415   6.136   8.563 -0.3175 -0.0953  0.1523
  510MOL0     C67213   7.283   6.153   8.556  0.0754 -0.1317  0.0111
  510MOL0     C67214   7.246   6.260   8.468 -0.0562  0.2786  0.4767
  510MOL0     C67215   7.117   6.298   8.446  0.4050  0.8643 -0.5048
  510MOL0     C67216   7.006   6.237   8.510  0.1857 -0.3069 -0.8395
  510MOL0     C67217   6.863   6.280   8.479  0.6314 -0.0370  0.2308
  510MOL0     O67218   6.773   6.184   8.526 -0.2829 -0.2241 -0.7086
  510MOL0     C67219   6.644   6.189   8.488  0.8678  0.0147 -0.2665
  510MOL0     C67220   6.564   6.308   8.460  0.5218 -0.6423  0.4458
  510MOL0     C67221   6.422   6.299   8.438  0.4726  0.2652  0.5281
  510MOL0     C67222   6.357   6.184   8.419  0.2242  0.6183 -0.0674
  510MOL0     O67223   6.221   6.183   8.386 -0.6099 -0.8489  0.3371
  510MOL0     C67224   6.148   6.065   8.379 -0.3200  0.1675 -0.3185
  510MOL0     C67225   6.005   6.101   8.396  0.6773  0.3296  0.4292
  510MOL0     C67226   5.932   5.972   8.441  0.3653 -0.1718 -0.6681
  510MOL0     C67227   5.785   5.991   8.442  0.1713 -0.6292  0.3540
  510MOL0     C67228   5.718   5.864   8.471 -0.7579  0.5792  0.3509
  510MOL0     C67229   5.568   5.867   8.434  0.1800  0.0229  0.2195
  510MOL0     C67230   5.545   5.847   8.280  0.2259  0.1392 -0.0520
  510MOL0     C67231   5.398   5.861   8.239  0.1857  0.2559 -0.2650
  510MOL0    Cl67232   5.308   5.714   8.305 -0.0417  0.2384 -0.5439
  510MOL0     C67233   6.430   6.067   8.450 -0.9874  0.4687  0.3213
  510MOL0     C67234   6.569   6.058   8.485 -0.2753 -0.0182  0.1900
  510MOL0     O67235   6.836   6.389   8.421 -0.5786  0.0120 -0.2800
  510MOL0     C67236   7.035   6.129   8.610 -0.0311 -0.4107  0.3164
  510MOL0     C67237   7.171   6.091   8.624 -0.5053 -0.4204  0.1946
  510MOL0     N67238   7.906   5.920   8.596  0.5103  0.0139 -0.3928
  510MOL0     N67239   8.008   5.866   8.655  0.3025 -0.6718  0.1342
  510MOL0     C67240   8.975   5.819   9.311  0.4580 -0.1593 -0.2182
  510MOL0     C67241   9.107   5.858   9.339  0.2352  0.3460  0.6832
  510MOL0     C67242   9.570   5.880   9.350  0.0742  1.1774  0.0804
  510MOL0     C67243   9.561   5.942   9.475 -0.8053  0.4948  0.0202
  510MOL0     C67244   9.669   6.002   9.541 -0.0337 -0.4635  0.3965
  510MOL0     C67245   9.795   5.997   9.483  0.4029  0.6141 -1.1383
  510MOL0     O67246   9.908   6.028   9.564  0.3902 -0.4487  0.2963
  510MOL0     C67247   9.982   6.145   9.518 -0.1719  0.0778  0.4803
  510MOL0     C67248  10.130   6.105   9.493  0.2185  0.9981 -0.1858
  510MOL0     C67249  10.195   6.222   9.414  0.3209  0.2322 -0.0686
  510MOL0     C67250  10.334   6.178   9.353 -0.7350 -0.2447  0.6269
  510MOL0     C67251  10.392   6.287   9.274  0.6215  0.3849  0.1543
  510MOL0     C67252  10.445   6.370   9.201 -0.3465 -0.1457 -0.1977
  510MOL0     C67253   9.811   5.925   9.367  0.1366 -0.2553  0.6686
  510MOL0     C67254   9.699   5.873   9.295  0.3143  0.0779 -0.3064
  510MOL0     H67255   9.260   5.572   9.230 -0.1309 -0.3563  0.0305
  510MOL0     H67256   9.040   5.522   9.168 -0.9759 -0.4899  1.8650
  510MOL0     H67257   8.689   5.788   9.340  0.6660  1.3907 -3.7088
  510MOL0     H67258   8.736   5.635   9.417  1.7242 -0.1964 -0.0391
  510MOL0     H67259   8.509   5.637   9.371  1.7404  1.2353  1.0030
  510MOL0     H67260   8.593   5.511   9.281  2.3837  0.3080  0.9502
  510MOL0     H67261   8.410   5.613   9.156  0.8492 -1.2258 -0.3640
  510MOL0     H67262   8.551   5.660   9.069  0.2216 -1.3975  0.0275
  510MOL0     H67263   8.408   5.843   9.266  1.4676 -4.8170  2.3226
  510MOL0     H67264   8.559   5.883   9.174 -0.0108  0.1293 -0.4499
  510MOL0     H67265   8.434   5.882   8.970  1.3643 -0.2657  0.6523
  510MOL0     H67266   8.359   5.992   9.076 -2.0111  0.6187 -0.2808
  510MOL0     H67267   8.192   5.777   9.139 -3.6002  0.7467 -0.8765
  510MOL0     H67268   8.266   5.707   9.000 -1.7351 -0.8753  1.3572
  510MOL0     H67269   8.054   5.816   8.947  1.6633 -2.3997  0.0257
  510MOL0     H67270   8.116   5.972   9.020 -0.0009 -0.0194 -0.7428
  510MOL0     H67271   8.217   5.799   8.795 -0.6163  0.0425  2.4283
  510MOL0     H67272   8.278   5.967   8.813 -0.1780  0.6181 -0.0709
  510MOL0     H67273   8.051   6.170   8.758  1.3017 -0.5016 -0.1982
  510MOL0     H67274   7.805   6.179   8.492 -1.0569  1.3482  0.4668
  510MOL0     H67275   7.874   6.265   8.632  0.0454 -1.1338  2.6857
  510MOL0     H67276   7.626   6.254   8.655 -1.5929 -0.8882  0.5535
  510MOL0     H67277   7.713   6.173   8.781  3.4801 -0.9740 -1.1087
  510MOL0     H67278   7.638   5.998   8.550  1.2811  1.4174 -0.8936
  510MOL0     H67279   7.658   5.964   8.728  0.5676  1.8510  0.7861
  510MOL0     H67280   7.442   6.076   8.767  1.8704  2.7548 -0.4732
  510MOL0     H67281   7.416   5.949   8.651  0.0669 -0.8036  0.7128
  510MOL0     H67282   7.322   6.309   8.407  0.6286 -2.4908 -1.0572
  510MOL0     H67283   7.106   6.383   8.379 -1.7890  2.6329  1.8584
  510MOL0     H67284   6.604   6.409   8.452 -0.8337 -0.1909 -1.1002
  510MOL0     H67285   6.369   6.391   8.414  0.7915  0.2250 -0.3449
  510MOL0     H67286   6.183   6.008   8.465 -0.0769 -0.3488 -0.7510
  510MOL0     H67287   6.159   6.014   8.283 -2.5232  1.0571 -1.1096
  510MOL0     H67288   5.970   6.132   8.297  2.6329  1.9312  0.1766
  510MOL0     H67289   5.992   6.190   8.458  2.2693  2.4676 -2.1204
  510MOL0     H67290   5.972   5.956   8.542  2.0156  3.4250 -0.5767
  510MOL0     H67291   5.960   5.890   8.374 -0.1905 -0.8638 -0.0682
  510MOL0     H67292   5.747   6.067   8.511  0.9128  0.2624 -0.1902
  510MOL0     H67293   5.750   6.029   8.345  1.5768  0.7040  0.3284
  510MOL0     H67294   5.725   5.853   8.580 -1.9386 -1.8525  0.2342
  510MOL0     H67295   5.754   5.777   8.415 -3.9267  1.9536 -4.4046
  510MOL0     H67296   5.520   5.959   8.469 -0.6127 -0.9788  1.9007
  510MOL0     H67297   5.532   5.772   8.475  1.3689 -0.4109  0.3141
  510MOL0     H67298   5.600   5.929   8.232  0.6850  0.0555  0.3218
  510MOL0     H67299   5.587   5.751   8.249 -2.5185 -0.8803 -0.8953
  510MOL0     H67300   5.393   5.881   8.132  2.2044  2.6935 -0.0024
  510MOL0     H67301   5.363   5.951   8.290  0.2939  1.9620 -2.9750
  510MOL0     H67302   6.375   5.974   8.436 -0.5198  0.3001 -0.4691
  510MOL0     H67303   6.619   5.963   8.501 -0.5646 -0.3098 -0.5930
  510MOL0     H67304   6.956   6.074   8.659  2.0382 -1.9073  2.1187
  510MOL0     H67305   7.192   6.015   8.698  1.2956 -0.8679 -0.7166
  510MOL0     H67306   8.893   5.885   9.336  1.2135 -0.3863  3.4657
  510MOL0     H67307   9.125   5.955   9.385  0.4002 -0.1095  1.6007
  510MOL0     H67308   9.464   5.944   9.523 -0.7542  0.3097  0.1313
  510MOL0     H67309   9.649   6.047   9.637 -1.0326  2.0006 -0.8726
  510MOL0     H67310   9.980   6.228   9.589  0.9195  0.0231  0.5906
  510MOL0     H67311   9.941   6.187   9.426 -1.5280  0.0751  1.0695
  510MOL0     H67312  10.175   6.093   9.592  0.8844  0.6555 -0.5228
  510MOL0     H67313  10.132   6.012   9.436 -1.2124  0.8656 -0.0410
  510MOL0     H67314  10.199   6.305   9.484 -1.5614 -1.3380  2.0600
  510MOL0     H67315  10.124   6.259   9.340  0.5577  1.1552  0.1607
  510MOL0     H67316  10.405   6.150   9.432 -2.1404 -0.6126  1.8081
  510MOL0     H67317  10.311   6.085   9.301 -0.4530 -0.7559  1.4005
  510MOL0     H67318  10.489   6.449   9.143 -1.0417 -0.8623 -1.7688
  510MOL0     H67319   9.906   5.893   9.325 -0.7302 -1.4392 -0.4775
  510MOL0     H67320   9.720   5.820   9.202  0.7520  0.8045 -0.6319
  511MOL0     O67321   0.610   7.120   4.813  0.0311  1.0862 -0.2536
  511MOL0     C67322   0.631   7.064   4.921  0.6440  0.1099  1.3312
  511MOL0     O67323   0.524   7.008   5.000  0.2015 -0.2331  0.4503
  511MOL0     C67324   0.386   7.023   4.971 -0.3739 -0.4086 -0.5976
  511MOL0     C67325   0.308   6.978   5.079  0.0115  0.6231  0.8773
  511MOL0     C67326   0.168   6.980   5.071  0.9531  0.2481 -0.2009
  511MOL0     C67327   0.098   7.036   4.965 -0.3731 -0.3438  0.2204
  511MOL0     O67328  -0.035   7.037   4.949  0.4034 -0.5461 -0.4105
  511MOL0     C67329  -0.126   6.990   5.056  0.8005  0.2346  0.1827
  511MOL0     C67330  -0.265   6.972   5.005  0.4231 -0.9112 -0.1448
  511MOL0     C67331  -0.370   6.950   5.115 -0.4147 -0.8346 -0.1175
  511MOL0     C67332  -0.513   6.917   5.063 -0.5425  0.0540  0.4432
  511MOL0     C67333  -0.620   6.926   5.161 -0.0876 -0.5026  0.6160
  511MOL0     C67334  -0.635   7.066   5.210  0.4236 -0.4218  0.0185
  511MOL0     C67335  -0.758   7.075   5.304  1.0740 -0.0155  0.4979
  511MOL0     C67336  -0.775   7.218   5.350 -0.1984 -0.8780  0.7008
  511MOL0     N67337  -0.894   7.232   5.433 -0.9016 -0.2795  0.0366
  511MOL0     C67338  -0.913   7.342   5.516 -0.1687 -0.7459 -0.2668
  511MOL0     C67339  -1.048   7.352   5.541  0.1547 -0.4176  0.1831
  511MOL0     C67340  -1.120   7.456   5.628  0.1691 -0.3111  0.3441
  511MOL0     C67341  -1.264   7.493   5.575 -0.7877 -0.5959 -0.1342
  511MOL0     C67342  -1.252   7.552   5.436 -0.2116 -0.1888 -0.2817
  511MOL0     C67343  -1.373   7.621   5.384 -0.0115  0.1485  0.7174
  511MOL0     O67344  -1.482   7.533   5.416 -0.3943  0.4029  0.0257
  511MOL0     C67345  -1.597   7.559   5.343 -0.0903  0.5109  0.0434
  511MOL0     C67346  -1.689   7.456   5.331 -0.1813  0.1911  0.1853
  511MOL0     C67347  -1.812   7.472   5.264  0.2156  0.4501 -0.4362
  511MOL0     C67348  -1.842   7.594   5.194 -0.5139 -0.1375  0.3446
  511MOL0     C67349  -1.976   7.610   5.137 -0.0827  0.1436  0.3932
  511MOL0     O67350  -2.008   7.736   5.101 -0.7861  0.1896  0.3862
  511MOL0     C67351  -2.127   7.767   5.044  0.0697 -0.2758 -0.3531
  511MOL0     C67352  -2.192   7.685   4.949  0.1632  0.2775  0.3607
  511MOL0     C67353  -2.319   7.723   4.905 -0.0505  1.2061  0.8613
  511MOL0     C67354  -2.387   7.839   4.946 -0.1520  0.4899  0.9082
  511MOL0     O67355  -2.516   7.873   4.909  0.1703 -0.2605  0.3081
  511MOL0     C67356  -2.592   7.768   4.843 -0.2393 -0.5395  0.8224
  511MOL0     C67357  -2.747   7.800   4.847  0.3932  0.4891 -0.5227
  511MOL0     C67358  -2.825   7.694   4.757 -0.0995 -0.2206  0.2617
  511MOL0     C67359  -2.965   7.753   4.733  0.9784  0.7257  0.4615
  511MOL0     C67360  -3.050   7.659   4.642  0.3085  0.5488 -0.0728
  511MOL0     C67361  -3.178   7.719   4.591  0.4195 -0.6587 -0.1885
  511MOL0     C67362  -3.267   7.607   4.528 -0.4852 -0.6645 -0.3887
  511MOL0     C67363  -3.367   7.645   4.420 -0.3120  0.2151 -0.2492
  511MOL0    Cl67364  -3.276   7.738   4.294 -0.4663 -0.2628 -0.0223
  511MOL0     C67365  -2.307   7.928   5.025  0.4761 -0.1488  0.6104
  511MOL0     C67366  -2.180   7.894   5.070 -0.6486 -0.1027  0.6692
  511MOL0     O67367  -2.044   7.513   5.113  0.1502 -0.1635  0.0762
  511MOL0     C67368  -1.747   7.699   5.203  0.4920 -0.0766  0.7340
  511MOL0     C67369  -1.623   7.678   5.274 -1.1397 -0.0212  0.0511
  511MOL0     N67370  -1.106   7.255   5.464 -0.3313  0.3182 -0.3221
  511MOL0     N67371  -1.020   7.192   5.396 -0.3268 -0.5428  0.1871
  511MOL0     C67372   0.180   7.091   4.864  0.4134 -0.3757  0.7205
  511MOL0     C67373   0.320   7.082   4.859  0.3145  0.4487 -0.7242
  511MOL0     C67374   0.767   7.039   4.963  0.1636 -0.4071  0.5864
  511MOL0     C67375   0.799   6.949   5.064  0.8452 -0.9101 -0.6051
  511MOL0     C67376   0.929   6.915   5.081 -0.3090 -0.1521  0.7743
  511MOL0     C67377   1.036   6.969   5.005  0.3488  1.2441 -0.0950
  511MOL0     O67378   1.166   6.919   5.030  1.0147  0.2250 -0.0373
  511MOL0     C67379   1.278   6.965   4.964 -0.4184 -0.2951  0.1282
  511MOL0     C67380   1.387   7.014   5.067  0.0733  0.0803  0.4459
  511MOL0     C67381   1.528   7.014   4.996  0.6902 -1.6162  0.1655
  511MOL0     C67382   1.629   7.083   5.079 -1.2301  0.0225 -0.7067
  511MOL0     C67383   1.766   7.073   5.033 -0.2532  0.2520 -0.3187
  511MOL0     C67384   1.878   7.073   4.998  0.8294 -0.2754 -0.3692
  511MOL0     C67385   0.996   7.070   4.914 -0.0536 -0.1021 -1.0405
  511MOL0     C67386   0.865   7.110   4.894  0.0335  0.5625 -0.5635
  511MOL0     H67387   0.358   6.947   5.170 -1.0916 -0.3843  1.1560
  511MOL0     H67388   0.111   6.937   5.153 -2.1477  1.5618 -1.5066
  511MOL0     H67389  -0.115   7.061   5.139 -1.6967  0.6688  0.2455
  511MOL0     H67390  -0.106   6.887   5.087  1.0778  0.1176 -0.3734
  511MOL0     H67391  -0.259   6.888   4.936  2.4503 -0.4925 -0.5439
  511MOL0     H67392  -0.285   7.065   4.951 -1.7818 -1.4566 -0.3435
  511MOL0     H67393  -0.368   7.033   5.186 -0.3522  0.7366 -1.8640
  511MOL0     H67394  -0.340   6.859   5.167  0.4063 -0.5573 -0.0969
  511MOL0     H67395  -0.555   6.976   4.981 -3.6074 -0.6997  1.3481
  511MOL0     H67396  -0.514   6.819   5.014  0.2591 -0.6801  1.8334
  511MOL0     H67397  -0.597   6.865   5.249  1.1254 -1.2581 -0.1869
  511MOL0     H67398  -0.712   6.887   5.117 -0.0085 -2.7890  2.2548
  511MOL0     H67399  -0.643   7.136   5.126  0.2428  2.6349  2.3803
  511MOL0     H67400  -0.551   7.098   5.272 -0.0489  1.1437 -0.1001
  511MOL0     H67401  -0.844   7.044   5.245  0.1115  2.5560  0.4220
  511MOL0     H67402  -0.746   7.002   5.385  1.2824 -1.8365 -1.0889
  511MOL0     H67403  -0.790   7.289   5.269  1.8807 -0.0107  1.0103
  511MOL0     H67404  -0.682   7.243   5.402  0.0400  1.6663 -0.8100
  511MOL0     H67405  -0.831   7.399   5.557 -1.0086  0.7236 -0.5487
  511MOL0     H67406  -1.067   7.551   5.639 -0.8309  0.6397 -2.3115
  511MOL0     H67407  -1.139   7.408   5.724 -0.6559 -1.1415 -0.2127
  511MOL0     H67408  -1.301   7.562   5.652  2.2991  2.6138 -1.2943
  511MOL0     H67409  -1.344   7.417   5.567 -4.1222  2.5201  0.8948
  511MOL0     H67410  -1.186   7.638   5.451 -0.8745  0.5091 -1.2506
  511MOL0     H67411  -1.207   7.479   5.367 -2.5109 -2.3118  0.3251
  511MOL0     H67412  -1.370   7.618   5.274 -1.7722 -0.1457  0.6592
  511MOL0     H67413  -1.383   7.717   5.434 -2.5693 -0.2133  1.0044
  511MOL0     H67414  -1.670   7.368   5.391 -1.0297 -0.2610 -0.1927
  511MOL0     H67415  -1.881   7.388   5.257 -0.3142  0.9570 -1.6695
  511MOL0     H67416  -2.152   7.592   4.909 -0.3893 -0.9130  2.4436
  511MOL0     H67417  -2.363   7.650   4.838 -2.4074  1.7824  1.6765
  511MOL0     H67418  -2.580   7.676   4.900  0.0408 -0.1304  1.4443
  511MOL0     H67419  -2.548   7.751   4.744 -1.2224 -0.8068  0.4237
  511MOL0     H67420  -2.758   7.902   4.808 -0.5178  0.2558 -0.9065
  511MOL0     H67421  -2.783   7.800   4.951  0.8119  1.4410 -0.3732
  511MOL0     H67422  -2.832   7.595   4.802 -0.6474 -0.4540 -0.3196
  511MOL0     H67423  -2.774   7.688   4.660  2.3543  2.8261  1.2245
  511MOL0     H67424  -3.017   7.780   4.825 -1.9616 -0.6814 -0.6704
  511MOL0     H67425  -2.954   7.845   4.675 -1.6461 -1.3374 -3.8834
  511MOL0     H67426  -3.076   7.575   4.707  0.4832  0.9556  0.5363
  511MOL0     H67427  -2.984   7.627   4.561 -1.8963 -2.4576 -0.8499
  511MOL0     H67428  -3.152   7.793   4.515  0.1136 -1.2512 -0.8779
  511MOL0     H67429  -3.222   7.769   4.678 -0.2197  0.7114 -1.2739
  511MOL0     H67430  -3.205   7.529   4.484 -0.7942 -0.5167 -1.0877
  511MOL0     H67431  -3.315   7.555   4.612  0.9738 -0.0501  0.8958
  511MOL0     H67432  -3.454   7.698   4.461 -0.0881  0.2714  0.1636
  511MOL0     H67433  -3.412   7.555   4.378  1.8229 -0.7615 -0.5476
  511MOL0     H67434  -2.347   8.022   5.062 -3.5341 -2.1673  2.0493
  511MOL0     H67435  -2.126   7.958   5.139 -1.2657 -0.2815  1.3312
  511MOL0     H67436  -1.778   7.794   5.162 -0.8758 -0.1221  1.6051
  511MOL0     H67437  -1.563   7.768   5.280 -0.7009 -0.3542  0.7147
  511MOL0     H67438   0.139   7.132   4.773 -0.5395 -0.0978  1.2571
  511MOL0     H67439   0.384   7.125   4.783  1.2092 -2.3845 -1.7287
  511MOL0     H67440   0.724   6.904   5.128  2.0145 -1.3296  0.5170
  511MOL0     H67441   0.955   6.850   5.165  2.7676 -1.0404 -0.6978
  511MOL0     H67442   1.261   7.039   4.886  0.2900 -0.9946 -0.7034
  511MOL0     H67443   1.314   6.875   4.913  1.4406  0.4926 -0.0226
  511MOL0     H67444   1.368   7.118   5.096 -1.7064 -0.0332 -0.2364
  511MOL0     H67445   1.395   6.971   5.168  0.8517  0.3927  0.5303
  511MOL0     H67446   1.520   7.073   4.904 -4.1580  0.3231  1.4876
  511MOL0     H67447   1.565   6.918   4.960  0.1165 -0.7696 -3.0115
  511MOL0     H67448   1.613   7.190   5.094 -0.1089  0.0016  0.9444
  511MOL0     H67449   1.626   7.027   5.173 -1.2356 -0.3275 -0.9136
  511MOL0     H67450   1.970   7.084   4.944  0.5429  2.1452 -0.4716
  511MOL0     H67451   1.073   7.126   4.861  0.7289  1.5590  1.6490
  511MOL0     H67452   0.837   7.184   4.820 -2.0512 -1.4756 -1.9438
  512MOL0     O67453   7.178   0.566   4.763 -0.0039 -0.2445  0.5280
  512MOL0     C67454   7.077   0.616   4.821 -0.4737 -0.5199 -0.1497
  512MOL0     O67455   7.080   0.724   4.899 -0.7068  0.3794  0.1829
  512MOL0     C67456   7.198   0.791   4.921 -0.9750 -1.0413  0.5763
  512MOL0     C67457   7.244   0.810   5.051 -0.1844 -0.8692 -0.1388
  512MOL0     C67458   7.363   0.882   5.079  0.4390  0.6622 -0.7501
  512MOL0     C67459   7.430   0.954   4.975 -0.1922  0.1934 -0.1696
  512MOL0     O67460   7.551   1.021   4.996 -0.0458  0.6444  0.2997
  512MOL0     C67461   7.617   0.995   5.118  0.0371  1.0210 -0.2646
  512MOL0     C67462   7.758   1.045   5.128 -0.7265  0.4838  0.2541
  512MOL0     C67463   7.798   1.018   5.278 -0.1347 -0.0477  0.7538
  512MOL0     C67464   7.948   1.055   5.304 -0.2228  0.5674 -0.1662
  512MOL0     C67465   7.975   1.207   5.329 -0.0684 -0.3906 -0.0332
  512MOL0     C67466   8.130   1.230   5.357  0.0515  0.6509  0.0683
  512MOL0     C67467   8.161   1.374   5.387 -0.4360 -1.5960 -0.6975
  512MOL0     C67468   8.238   1.403   5.517 -0.1485  0.1563  0.3829
  512MOL0     N67469   8.166   1.346   5.635 -0.0569  0.7021 -0.2232
  512MOL0     C67470   8.027   1.364   5.663 -0.2544 -0.3041  0.4985
  512MOL0     C67471   7.998   1.271   5.754 -0.8396  1.2469 -0.4258
  512MOL0     C67472   7.864   1.245   5.811  0.3503  0.0728 -0.1613
  512MOL0     C67473   7.845   1.298   5.951 -0.9427 -0.3205 -1.0084
  512MOL0     C67474   7.693   1.300   5.977 -0.2316 -0.1897 -0.2379
  512MOL0     C67475   7.653   1.366   6.103 -0.4275  0.7496 -0.3216
  512MOL0     O67476   7.628   1.507   6.060 -0.2632  0.1675  0.4034
  512MOL0     C67477   7.506   1.560   6.045  0.2018 -0.4067 -0.2947
  512MOL0     C67478   7.382   1.497   6.073  0.3172  0.3041  0.5656
  512MOL0     C67479   7.258   1.556   6.040 -0.1957 -0.7858  0.7899
  512MOL0     C67480   7.259   1.685   5.978 -0.6026  0.1519  0.3513
  512MOL0     C67481   7.133   1.752   5.951 -0.3989  0.1189 -0.4588
  512MOL0     O67482   7.021   1.712   6.013  0.1243 -0.5698  0.5726
  512MOL0     C67483   6.905   1.751   5.954  0.4338  0.0489  0.4438
  512MOL0     C67484   6.831   1.656   5.884  0.3356  0.4166 -0.0683
  512MOL0     C67485   6.705   1.681   5.840  0.2475 -0.6338  0.3671
  512MOL0     C67486   6.651   1.808   5.849  0.2683  0.5336 -0.5191
  512MOL0     O67487   6.528   1.839   5.801  0.1964 -0.4417 -0.3833
  512MOL0     C67488   6.423   1.747   5.810  0.8971  0.7500  0.8408
  512MOL0     C67489   6.285   1.820   5.786 -0.4073  0.0712  0.2500
  512MOL0     C67490   6.166   1.735   5.794  0.2494  0.1242 -0.1306
  512MOL0     C67491   6.044   1.812   5.797  0.5847 -0.1033 -0.2181
  512MOL0     C67492   5.918   1.714   5.769  0.3939 -0.1332  1.1636
  512MOL0     C67493   5.787   1.795   5.771  0.8371  0.8882  0.0901
  512MOL0     C67494   5.672   1.696   5.743  0.5664  0.2598  0.4459
  512MOL0     C67495   5.533   1.758   5.756 -0.0548  0.3874 -0.1210
  512MOL0    Cl67496   5.493   1.789   5.921  0.0651  0.3239  0.1260
  512MOL0     C67497   6.726   1.911   5.906 -0.8777  0.3448  0.1549
  512MOL0     C67498   6.854   1.878   5.955 -0.0478 -0.6427  0.7736
  512MOL0     O67499   7.140   1.847   5.869  0.4167 -0.5832  0.4667
  512MOL0     C67500   7.386   1.751   5.954  0.4917  0.4479 -0.1063
  512MOL0     C67501   7.504   1.685   5.993 -0.7153 -0.0243 -0.5118
  512MOL0     N67502   8.113   1.205   5.782  0.3603  0.4114  0.0969
  512MOL0     N67503   8.217   1.255   5.718 -0.3337  0.3741  0.6060
  512MOL0     C67504   7.373   0.947   4.844  0.5752 -0.4098 -0.6587
  512MOL0     C67505   7.263   0.868   4.824  0.2870  0.3878 -0.8440
  512MOL0     C67506   6.956   0.543   4.817  0.1193  0.0967 -0.5925
  512MOL0     C67507   6.840   0.586   4.890 -1.0499  0.0419 -0.7771
  512MOL0     C67508   6.722   0.512   4.878 -0.2105 -0.2638 -1.0057
  512MOL0     C67509   6.706   0.405   4.798  0.1189  0.0933  0.3260
  512MOL0     O67510   6.574   0.359   4.783 -0.2036 -0.3888  0.2022
  512MOL0     C67511   6.536   0.268   4.671  0.1740 -0.4489  0.4112
  512MOL0     C67512   6.388   0.235   4.700  1.0485 -0.4659  0.1518
  512MOL0     C67513   6.361   0.179   4.840 -0.0892 -0.8124  0.6620
  512MOL0     C67514   6.224   0.123   4.877  0.3319  0.2869  0.9107
  512MOL0     C67515   6.185  -0.003   4.826 -1.0795 -0.1502 -0.4467
  512MOL0     C67516   6.146  -0.113   4.794 -0.8195 -0.6247 -0.4911
  512MOL0     C67517   6.813   0.353   4.736  0.7121 -0.3382  0.1273
  512MOL0     C67518   6.940   0.417   4.750  0.6598 -0.1244  0.1208
  512MOL0     H67519   7.188   0.755   5.125 -0.7262 -0.3348 -0.1462
  512MOL0     H67520   7.402   0.881   5.181 -1.0545 -0.1395 -0.1648
  512MOL0     H67521   7.634   0.888   5.135  0.5838  1.3451  1.3440
  512MOL0     H67522   7.551   1.040   5.193  2.4537  1.5081  1.7153
  512MOL0     H67523   7.751   1.153   5.116 -0.9299  0.2514 -2.1617
  512MOL0     H67524   7.829   0.995   5.061  1.2194  1.4484  1.4744
  512MOL0     H67525   7.796   0.910   5.294  1.0860 -0.9042 -3.5709
  512MOL0     H67526   7.734   1.082   5.341  0.8600  2.0601 -0.2776
  512MOL0     H67527   7.984   0.994   5.387 -4.6470 -1.6080  0.4509
  512MOL0     H67528   8.008   1.012   5.223  0.6591  0.6827  0.4120
  512MOL0     H67529   7.915   1.232   5.417  0.8132 -0.8105  0.7114
  512MOL0     H67530   7.948   1.272   5.245  0.5118  2.1427  1.6452
  512MOL0     H67531   8.197   1.194   5.278  0.8117  2.2421 -0.0407
  512MOL0     H67532   8.158   1.162   5.438  0.8148 -0.8825 -1.4154
  512MOL0     H67533   8.228   1.416   5.311 -0.3685 -0.9939 -0.3137
  512MOL0     H67534   8.068   1.431   5.379  1.0090  0.6416 -3.3396
  512MOL0     H67535   8.248   1.511   5.526 -3.0331  0.7620 -1.9847
  512MOL0     H67536   8.336   1.355   5.515 -1.2129 -2.1924 -1.1060
  512MOL0     H67537   7.960   1.439   5.623  0.6812 -0.0468 -0.6459
  512MOL0     H67538   7.861   1.135   5.811 -0.8913  0.0946 -0.8981
  512MOL0     H67539   7.792   1.282   5.737  1.0954 -0.2963 -1.1101
  512MOL0     H67540   7.886   1.399   5.955 -1.5637  0.0317 -2.7352
  512MOL0     H67541   7.886   1.231   6.027 -0.9241  0.9641  0.1698
  512MOL0     H67542   7.633   1.346   5.898 -2.9903 -3.6473 -0.3836
  512MOL0     H67543   7.661   1.196   5.986  0.5424 -0.5078 -1.0234
  512MOL0     H67544   7.733   1.373   6.177  0.4209 -0.5253 -1.0730
  512MOL0     H67545   7.563   1.324   6.148 -1.2069  3.3170  0.6811
  512MOL0     H67546   7.376   1.398   6.118 -3.5815 -0.4229 -1.1369
  512MOL0     H67547   7.170   1.505   6.079 -2.5773  1.0316 -1.8042
  512MOL0     H67548   6.875   1.561   5.854 -1.6637  0.5832 -4.0475
  512MOL0     H67549   6.648   1.598   5.798 -1.4310  1.1236 -0.9703
  512MOL0     H67550   6.416   1.679   5.895 -1.7930 -2.0075 -1.3664
  512MOL0     H67551   6.430   1.683   5.721 -2.3663  2.4945 -0.8458
  512MOL0     H67552   6.286   1.874   5.691 -2.9928 -1.3889 -0.7065
  512MOL0     H67553   6.276   1.887   5.872 -0.0576 -0.6052  0.8277
  512MOL0     H67554   6.170   1.675   5.886 -2.6584 -1.8808 -1.1783
  512MOL0     H67555   6.168   1.670   5.706  1.4033 -0.3438  0.2129
  512MOL0     H67556   6.022   1.861   5.892 -2.5679 -0.2589 -0.7630
  512MOL0     H67557   6.043   1.892   5.723 -0.4646  2.1758  2.0769
  512MOL0     H67558   5.922   1.622   5.828 -0.9154 -2.4413 -2.0175
  512MOL0     H67559   5.919   1.667   5.670 -1.6498 -0.4744  1.2537
  512MOL0     H67560   5.787   1.878   5.699 -1.6193  2.2444  1.4985
  512MOL0     H67561   5.782   1.834   5.873  6.4713 -1.6799  1.7492
  512MOL0     H67562   5.688   1.662   5.641 -0.0318  1.4008 -0.0407
  512MOL0     H67563   5.674   1.615   5.817 -1.3419 -1.0530 -0.8513
  512MOL0     H67564   5.457   1.696   5.707  1.3622 -2.0505  0.6203
  512MOL0     H67565   5.543   1.855   5.706  0.3501  1.2436  1.5535
  512MOL0     H67566   6.685   2.012   5.911 -0.5563  0.4332  1.2406
  512MOL0     H67567   6.901   1.968   5.994 -0.5270  0.6528 -1.4815
  512MOL0     H67568   7.384   1.852   5.914 -0.6155  0.0925 -1.0197
  512MOL0     H67569   7.594   1.743   5.976 -0.0729 -0.7542  0.2920
  512MOL0     H67570   7.412   1.005   4.762 -4.6816  2.4682 -1.5293
  512MOL0     H67571   7.217   0.853   4.727 -2.9209 -1.6731  0.8038
  512MOL0     H67572   6.841   0.666   4.963 -1.9559 -1.0894  0.5405
  512MOL0     H67573   6.635   0.548   4.932 -0.1509 -1.8278  0.1798
  512MOL0     H67574   6.596   0.177   4.677  1.2617  0.1795 -0.5923
  512MOL0     H67575   6.552   0.323   4.578 -0.0061  0.5788  0.9640
  512MOL0     H67576   6.334   0.330   4.696 -0.7163 -1.2599  2.7421
  512MOL0     H67577   6.348   0.165   4.626  0.8428 -1.2953  1.0370
  512MOL0     H67578   6.371   0.258   4.915  0.2155  0.7458 -0.9311
  512MOL0     H67579   6.439   0.109   4.870  1.5066  1.6926  2.7767
  512MOL0     H67580   6.204   0.126   4.984  0.7226  0.6459  0.9762
  512MOL0     H67581   6.156   0.194   4.829 -0.6830 -2.0896 -1.4457
  512MOL0     H67582   6.092  -0.198   4.757 -2.4755 -1.6418  3.6434
  512MOL0     H67583   6.803   0.264   4.675 -0.3970 -1.6525  2.0983
  512MOL0     H67584   7.027   0.367   4.709  0.0246 -0.0797 -1.3508
  513MOL0     O67585   8.217   6.532   9.557 -0.2353  0.6960 -0.3025
  513MOL0     C67586   8.264   6.642   9.545 -0.0880  0.1741  0.2795
  513MOL0     O67587   8.202   6.755   9.588 -0.1326  0.6020  0.6115
  513MOL0     C67588   8.068   6.743   9.622 -0.0063  0.5121 -0.0919
  513MOL0     C67589   7.974   6.698   9.531 -0.1156  0.6507  0.0081
  513MOL0     C67590   7.841   6.689   9.569  0.7744 -0.0112 -0.0350
  513MOL0     C67591   7.799   6.706   9.706  0.4657  0.3178  0.3766
  513MOL0     O67592   7.672   6.694   9.757 -0.4368  0.0499 -0.0607
  513MOL0     C67593   7.565   6.672   9.661 -1.0593 -1.2121 -0.1229
  513MOL0     C67594   7.429   6.694   9.726  1.4613 -0.8329 -0.2979
  513MOL0     C67595   7.395   6.590   9.834  0.2530 -0.4928 -0.8043
  513MOL0     C67596   7.245   6.586   9.873  0.6919  0.3592 -0.5376
  513MOL0     C67597   7.142   6.581   9.757 -0.2887 -0.0388  0.4529
  513MOL0     C67598   7.001   6.554   9.814 -0.1648 -1.2842  0.0328
  513MOL0     C67599   6.909   6.517   9.689  0.1579 -1.0887  0.2516
  513MOL0     C67600   6.769   6.463   9.725 -0.3930  0.2600 -0.5621
  513MOL0     N67601   6.694   6.404   9.612 -1.3465  0.0146  0.3759
  513MOL0     C67602   6.576   6.457   9.561 -0.6132 -0.1771 -0.0736
  513MOL0     C67603   6.518   6.355   9.501 -0.3432  0.3577  0.7879
  513MOL0     C67604   6.381   6.376   9.438 -0.1145 -0.4100 -1.5515
  513MOL0     C67605   6.274   6.411   9.551  0.6024 -0.2203  0.0922
  513MOL0     C67606   6.258   6.302   9.666 -0.4695 -0.4530  0.0536
  513MOL0     C67607   6.115   6.287   9.704 -0.1658 -0.4295  0.2710
  513MOL0     O67608   6.086   6.395   9.793  0.2355 -0.2962 -0.0945
  513MOL0     C67609   5.970   6.394   9.866 -0.6585  0.0558 -0.2856
  513MOL0     C67610   5.982   6.433   9.997 -1.0775 -0.6526 -0.1163
  513MOL0     C67611   5.869   6.439  10.076  0.2024 -0.0713 -0.6375
  513MOL0     C67612   5.743   6.428  10.023  0.4837  0.2848 -0.0970
  513MOL0     C67613   5.628   6.427  10.119  0.1254 -0.3736  0.1383
  513MOL0     O67614   5.504   6.409  10.056 -0.2303  0.4577 -0.8836
  513MOL0     C67615   5.381   6.422  10.102  0.5435 -0.1787 -0.0705
  513MOL0     C67616   5.337   6.444  10.236 -0.8665  0.3039  0.2615
  513MOL0     C67617   5.197   6.439  10.258  0.0756  0.4210 -0.9162
  513MOL0     C67618   5.098   6.422  10.164  0.6107  0.5163  0.6281
  513MOL0     O67619   4.965   6.425  10.193 -0.5381  0.6184 -0.0936
  513MOL0     C67620   4.921   6.431  10.327 -0.4063 -0.0485 -0.1116
  513MOL0     C67621   4.780   6.375  10.341 -0.1513  0.3812  0.0073
  513MOL0     C67622   4.685   6.436  10.230 -0.5833 -1.0335  0.2422
  513MOL0     C67623   4.538   6.426  10.276 -0.1651  0.3998  0.8370
  513MOL0     C67624   4.448   6.526  10.204 -0.6753 -0.2546  0.4762
  513MOL0     C67625   4.437   6.493  10.054 -0.6371 -0.1761  0.1983
  513MOL0     C67626   4.358   6.592   9.968  0.1717 -0.9626  0.2685
  513MOL0     C67627   4.203   6.575   9.968 -0.3695 -0.0704 -0.3518
  513MOL0    Cl67628   4.148   6.630  10.129 -0.4065 -0.3606  0.2161
  513MOL0     C67629   5.139   6.393  10.030 -0.0030  0.8990 -0.3193
  513MOL0     C67630   5.282   6.402  10.003 -0.1421  0.3710  0.0708
  513MOL0     O67631   5.647   6.434  10.238 -0.2477 -0.3544  0.4042
  513MOL0     C67632   5.728   6.389   9.887 -0.0176 -0.2811 -0.0306
  513MOL0     C67633   5.839   6.365   9.810  0.2132 -0.6677  0.7713
  513MOL0     N67634   6.581   6.235   9.531  0.5742 -0.1490  0.0850
  513MOL0     N67635   6.690   6.266   9.593 -0.1481 -0.5924 -0.3103
  513MOL0     C67636   7.899   6.741   9.793  1.4511  0.5979 -0.0987
  513MOL0     C67637   8.029   6.763   9.753 -0.9118 -0.0545  0.4133
  513MOL0     C67638   8.406   6.650   9.506 -0.3293  0.2023 -0.3315
  513MOL0     C67639   8.455   6.776   9.456 -0.1732 -0.0938  0.2622
  513MOL0     C67640   8.589   6.788   9.422 -0.1896  0.9923  0.8240
  513MOL0     C67641   8.670   6.674   9.422  0.0580 -0.5029  0.0316
  513MOL0     O67642   8.805   6.676   9.391 -0.2310 -1.0004 -0.4646
  513MOL0     C67643   8.866   6.801   9.398 -0.3644  0.3674  0.0357
  513MOL0     C67644   9.017   6.775   9.397  0.3129 -0.6474 -0.6675
  513MOL0     C67645   9.051   6.693   9.526 -0.3863 -0.1547  0.4859
  513MOL0     C67646   9.204   6.670   9.525  0.1095 -0.4329 -0.5640
  513MOL0     C67647   9.287   6.790   9.518 -0.5992  0.4470 -0.6205
  513MOL0     C67648   9.356   6.896   9.522  0.1231  0.8667  0.4601
  513MOL0     C67649   8.612   6.552   9.459  0.1513  0.2100 -0.4666
  513MOL0     C67650   8.489   6.535   9.507 -0.1628  0.6212 -0.3063
  513MOL0     H67651   8.006   6.678   9.429 -1.8367  2.0993 -0.8726
  513MOL0     H67652   7.774   6.671   9.486 -0.7829  0.3165  1.0951
  513MOL0     H67653   7.585   6.568   9.637  1.7367 -1.0693  1.2370
  513MOL0     H67654   7.575   6.716   9.561 -2.6855 -3.5945 -1.4301
  513MOL0     H67655   7.350   6.695   9.651  0.0731  2.4418  0.9924
  513MOL0     H67656   7.438   6.796   9.766 -0.0346 -0.2788 -1.3110
  513MOL0     H67657   7.458   6.600   9.922  0.9655  1.3729 -1.4590
  513MOL0     H67658   7.415   6.497   9.780  1.3958 -0.6903 -0.0747
  513MOL0     H67659   7.238   6.496   9.935  0.0280 -0.1949 -1.3997
  513MOL0     H67660   7.234   6.676   9.934  1.0282 -0.6990  1.1356
  513MOL0     H67661   7.175   6.503   9.688  2.1449  1.0424  0.2955
  513MOL0     H67662   7.135   6.675   9.702 -2.6654  0.4679  1.4804
  513MOL0     H67663   6.963   6.643   9.864  1.0159 -1.5412  1.4689
  513MOL0     H67664   7.013   6.473   9.886  1.4218 -1.8319 -0.7993
  513MOL0     H67665   6.915   6.595   9.613  1.0676 -1.1872  0.2060
  513MOL0     H67666   6.960   6.429   9.649 -0.8385 -1.1792 -0.8546
  513MOL0     H67667   6.719   6.537   9.788 -2.2402 -0.5060 -1.0634
  513MOL0     H67668   6.778   6.373   9.787 -3.3715 -0.2791 -0.7574
  513MOL0     H67669   6.543   6.560   9.560  2.4262  0.9325 -1.7122
  513MOL0     H67670   6.339   6.287   9.389 -1.5800 -0.5126 -0.2033
  513MOL0     H67671   6.390   6.455   9.363  0.7020  2.0281  0.9650
  513MOL0     H67672   6.183   6.433   9.494  3.4237  2.5876 -3.8885
  513MOL0     H67673   6.303   6.509   9.591 -1.1527  1.4870 -2.5112
  513MOL0     H67674   6.306   6.212   9.627  0.5175 -0.6115  1.5632
  513MOL0     H67675   6.318   6.342   9.748  1.9552 -1.8879 -0.9295
  513MOL0     H67676   6.119   6.202   9.773 -1.3428  0.7705  1.9064
  513MOL0     H67677   6.038   6.275   9.627 -0.7427  3.0037  0.1615
  513MOL0     H67678   6.081   6.429  10.042 -0.2549 -3.9369 -1.8594
  513MOL0     H67679   5.875   6.469  10.180  3.1426  0.5811 -0.9228
  513MOL0     H67680   5.399   6.471  10.321 -2.4574  2.7236  0.7420
  513MOL0     H67681   5.165   6.452  10.361 -0.4370 -0.5912 -0.9350
  513MOL0     H67682   4.934   6.532  10.367  0.9525 -0.5084  0.6765
  513MOL0     H67683   4.982   6.374  10.398  1.2967  2.2412  0.4095
  513MOL0     H67684   4.749   6.397  10.444  2.8177 -3.0053  1.8140
  513MOL0     H67685   4.782   6.268  10.322 -2.4614  0.5703 -1.7959
  513MOL0     H67686   4.712   6.385  10.137 -0.5663 -3.7251  1.6223
  513MOL0     H67687   4.710   6.543  10.224 -1.1206 -0.9647 -1.2075
  513MOL0     H67688   4.502   6.323  10.265  0.1611 -0.1332  3.8793
  513MOL0     H67689   4.531   6.449  10.383  0.6174  0.3469  0.9031
  513MOL0     H67690   4.489   6.625  10.228 -1.7602  0.3741 -0.1909
  513MOL0     H67691   4.348   6.527  10.249 -0.7439  0.2088  0.3116
  513MOL0     H67692   4.398   6.395  10.027 -0.1185  0.3814 -3.0013
  513MOL0     H67693   4.541   6.497  10.019 -1.0707 -1.2511 -1.2664
  513MOL0     H67694   4.378   6.697   9.992 -2.0982 -1.0066  2.8295
  513MOL0     H67695   4.409   6.578   9.872 -0.5700 -0.0074 -0.2899
  513MOL0     H67696   4.178   6.470   9.952  1.7876 -0.7581  0.3595
  513MOL0     H67697   4.151   6.633   9.892 -0.1007  0.1475 -0.3715
  513MOL0     H67698   5.063   6.376   9.955 -1.0097  2.2649  0.3453
  513MOL0     H67699   5.308   6.377   9.901 -2.6702  1.6965 -0.9527
  513MOL0     H67700   5.627   6.359   9.857 -0.8968  0.8759  1.6297
  513MOL0     H67701   5.830   6.338   9.706 -0.3416 -0.5434  0.7825
  513MOL0     H67702   7.874   6.748   9.899  0.3294  2.6435 -0.4396
  513MOL0     H67703   8.096   6.764   9.838 -3.4112 -0.3699  2.4954
  513MOL0     H67704   8.401   6.868   9.439 -0.9656 -0.6436 -0.2624
  513MOL0     H67705   8.612   6.887   9.384 -3.2514  2.6268  2.7733
  513MOL0     H67706   8.826   6.855   9.484 -2.6547  0.3777 -0.9818
  513MOL0     H67707   8.847   6.858   9.307 -1.9916 -0.3260 -0.0786
  513MOL0     H67708   9.049   6.725   9.305 -0.8109 -1.3876 -0.6845
  513MOL0     H67709   9.065   6.873   9.407 -1.7014  0.3781 -0.4199
  513MOL0     H67710   8.996   6.599   9.520 -0.8086  0.1052  0.3004
  513MOL0     H67711   9.012   6.736   9.619 -1.6320  0.4600 -0.2899
  513MOL0     H67712   9.230   6.611   9.613  1.6883  1.2870  0.2122
  513MOL0     H67713   9.222   6.614   9.432 -0.8072  0.3391 -1.2333
  513MOL0     H67714   9.421   6.981   9.526  1.1186  0.0821  1.8506
  513MOL0     H67715   8.668   6.460   9.463 -0.2513 -0.0534 -0.8486
  513MOL0     H67716   8.447   6.440   9.535  1.8576 -0.4297 -0.6696
  514MOL0     O67717   7.847   2.174   9.585  0.3425  0.4760  0.1832
  514MOL0     C67718   7.848   2.188   9.463 -0.2850 -0.1521  0.0526
  514MOL0     O67719   7.742   2.228   9.383  0.1375  0.3474 -0.8643
  514MOL0     C67720   7.626   2.229   9.451 -0.0277  0.2388 -0.3690
  514MOL0     C67721   7.554   2.111   9.467 -0.1367  0.6285  0.2014
  514MOL0     C67722   7.430   2.110   9.534  1.1750  0.4883  0.5914
  514MOL0     C67723   7.371   2.233   9.576 -0.1036 -0.8709  0.3086
  514MOL0     O67724   7.258   2.245   9.652 -0.4027 -0.5268  0.0062
  514MOL0     C67725   7.161   2.328   9.594 -0.1276  0.0394  0.2480
  514MOL0     C67726   7.019   2.304   9.641 -0.8478 -0.4414 -0.8735
  514MOL0     C67727   6.927   2.403   9.572 -0.3402  0.6320 -0.6301
  514MOL0     C67728   6.782   2.360   9.567  0.7085  0.2937  0.0742
  514MOL0     C67729   6.696   2.480   9.516  0.3687 -0.1755 -0.8504
  514MOL0     C67730   6.724   2.521   9.370  0.1206  0.1647 -0.0356
  514MOL0     C67731   6.614   2.620   9.311  0.1170 -0.7106 -0.7992
  514MOL0     C67732   6.594   2.622   9.154  0.0315  0.9693 -0.5320
  514MOL0     N67733   6.702   2.690   9.085  0.1814  0.0122  0.1204
  514MOL0     C67734   6.804   2.633   9.025 -0.5073 -0.2898  0.5477
  514MOL0     C67735   6.884   2.741   8.976  0.1729 -0.2234 -0.4391
  514MOL0     C67736   7.016   2.728   8.903  0.4143  0.3992 -0.9305
  514MOL0     C67737   7.001   2.769   8.766 -0.3241 -0.0486  0.5127
  514MOL0     C67738   6.975   2.918   8.751  0.0858  0.5342 -0.5072
  514MOL0     C67739   6.994   2.970   8.606 -0.7525  0.7101 -0.2599
  514MOL0     O67740   7.123   2.962   8.554  0.2576  0.4674  0.8079
  514MOL0     C67741   7.162   3.031   8.444 -0.3724 -0.1670  0.6145
  514MOL0     C67742   7.080   3.103   8.358  0.4122 -0.3191  0.7122
  514MOL0     C67743   7.122   3.142   8.235 -0.3288 -0.7540  0.1411
  514MOL0     C67744   7.247   3.125   8.187 -0.1898  0.2013 -0.7323
  514MOL0     C67745   7.308   3.169   8.057 -0.2784 -0.4314 -0.0591
  514MOL0     O67746   7.425   3.119   8.019  0.4458 -0.1097  0.4716
  514MOL0     C67747   7.478   3.172   7.901 -0.8752 -0.2140  0.0005
  514MOL0     C67748   7.596   3.251   7.904 -0.0255 -0.1686 -0.6880
  514MOL0     C67749   7.638   3.324   7.789  0.5887  0.4233  0.2203
  514MOL0     C67750   7.570   3.310   7.667 -0.3749  1.0562  0.1446
  514MOL0     O67751   7.600   3.360   7.545 -0.4008 -0.6611 -0.1616
  514MOL0     C67752   7.678   3.485   7.539  0.5940 -0.3564  0.1902
  514MOL0     C67753   7.611   3.569   7.431 -0.0503  1.0568  0.2684
  514MOL0     C67754   7.674   3.708   7.436  0.0723  1.2246 -1.0861
  514MOL0     C67755   7.599   3.805   7.338 -0.5231  0.1216 -0.4421
  514MOL0     C67756   7.492   3.886   7.418 -0.0581  0.3308  0.9044
  514MOL0     C67757   7.434   3.991   7.328  0.3923 -0.9607 -0.4691
  514MOL0     C67758   7.322   4.059   7.405 -0.3511  0.7006  0.7423
  514MOL0     C67759   7.269   4.197   7.349  0.2285 -0.4445 -0.7118
  514MOL0    Cl67760   7.150   4.163   7.216 -0.1044  0.1366  0.2242
  514MOL0     C67761   7.457   3.224   7.665 -0.0197 -0.1713  0.5509
  514MOL0     C67762   7.413   3.157   7.776  0.0124 -0.8087  0.1790
  514MOL0     O67763   7.234   3.248   7.995 -0.3071 -0.5318 -0.5853
  514MOL0     C67764   7.330   3.051   8.272 -0.6214 -0.4815 -0.1646
  514MOL0     C67765   7.287   3.003   8.405 -0.4551 -0.3117  0.1641
  514MOL0     N67766   6.812   2.855   9.021 -0.6066 -0.2035  0.1204
  514MOL0     N67767   6.707   2.828   9.082 -0.4722  0.0837 -1.1365
  514MOL0     C67768   7.442   2.344   9.548  0.4826 -0.4672 -0.2158
  514MOL0     C67769   7.567   2.347   9.489 -1.0665 -0.3187 -0.0978
  514MOL0     C67770   7.979   2.169   9.386  0.0460  0.0059 -0.7771
  514MOL0     C67771   7.980   2.141   9.249 -0.4032 -0.1974  0.3659
  514MOL0     C67772   8.100   2.126   9.184 -0.1600  0.7226  0.4673
  514MOL0     C67773   8.220   2.161   9.246  0.4113  0.4913 -0.7075
  514MOL0     O67774   8.333   2.136   9.170  0.0809 -0.0261 -0.4377
  514MOL0     C67775   8.335   2.196   9.043 -0.5710 -0.2257  1.2762
  514MOL0     C67776   8.476   2.245   9.016  0.2822 -0.9287 -0.6863
  514MOL0     C67777   8.569   2.127   8.980 -0.6723  0.3656 -0.4848
  514MOL0     C67778   8.705   2.171   8.922  0.7055  0.7742  0.7345
  514MOL0     C67779   8.796   2.060   8.891  0.2874  0.2438  0.1521
  514MOL0     C67780   8.862   1.958   8.872  1.0464 -0.6187 -0.0380
  514MOL0     C67781   8.221   2.169   9.384 -0.0778 -0.0192 -0.3274
  514MOL0     C67782   8.100   2.182   9.452  0.4406  0.2063  0.1676
  514MOL0     H67783   7.598   2.016   9.438  2.2351  2.4421 -2.7012
  514MOL0     H67784   7.376   2.018   9.554  1.1840  0.2408 -0.4506
  514MOL0     H67785   7.169   2.319   9.485  0.4036 -0.6160  0.3362
  514MOL0     H67786   7.184   2.432   9.615  1.5871  0.3894 -2.8386
  514MOL0     H67787   7.019   2.320   9.749  0.3610 -3.6527 -0.2966
  514MOL0     H67788   6.994   2.199   9.627 -0.7203 -0.3747 -1.6368
  514MOL0     H67789   6.956   2.423   9.469 -0.7001  0.6771 -0.7239
  514MOL0     H67790   6.931   2.488   9.640 -0.8773 -1.4717  2.2594
  514MOL0     H67791   6.768   2.278   9.496 -2.7125  2.4150 -2.0180
  514MOL0     H67792   6.742   2.317   9.659 -0.0406  1.7994  0.4899
  514MOL0     H67793   6.712   2.565   9.583 -1.2242  0.6472 -1.4658
  514MOL0     H67794   6.594   2.444   9.523 -0.2243  0.6673 -3.7273
  514MOL0     H67795   6.721   2.433   9.306 -0.1568 -0.7727  1.2247
  514MOL0     H67796   6.823   2.566   9.366  2.4143 -4.2583  1.2495
  514MOL0     H67797   6.512   2.596   9.343  0.0260  1.4142  0.6684
  514MOL0     H67798   6.635   2.719   9.352  0.4051 -0.2181 -2.0825
  514MOL0     H67799   6.504   2.678   9.130 -2.5856 -1.0463  3.4168
  514MOL0     H67800   6.594   2.521   9.112  1.4362 -0.0243  1.6520
  514MOL0     H67801   6.829   2.528   9.014  0.5170 -0.1667  1.5074
  514MOL0     H67802   7.055   2.626   8.907 -1.1166 -0.2926  4.1945
  514MOL0     H67803   7.086   2.791   8.960  0.5298 -1.8995  1.6682
  514MOL0     H67804   6.928   2.710   8.710  2.5461 -2.2008 -1.2737
  514MOL0     H67805   7.097   2.752   8.716  0.3236 -0.1827  1.7620
  514MOL0     H67806   6.871   2.932   8.782 -0.0829  1.3638 -1.3997
  514MOL0     H67807   7.044   2.978   8.811  0.7485 -3.1103  2.7566
  514MOL0     H67808   6.971   3.077   8.604 -0.9623  0.6610 -0.7747
  514MOL0     H67809   6.925   2.925   8.534  0.4232 -2.5460  0.4758
  514MOL0     H67810   6.979   3.133   8.383  0.3122  0.8416 -0.9571
  514MOL0     H67811   7.065   3.205   8.167  1.9382 -2.4316 -3.6353
  514MOL0     H67812   7.647   3.267   7.998 -0.9209 -1.2086  0.0010
  514MOL0     H67813   7.724   3.389   7.800  0.5221  0.1776  2.7603
  514MOL0     H67814   7.782   3.470   7.508  0.4420 -0.3888 -0.3193
  514MOL0     H67815   7.680   3.537   7.635 -0.0732 -2.4028  1.3706
  514MOL0     H67816   7.505   3.577   7.456 -0.0573  0.2731  0.5101
  514MOL0     H67817   7.625   3.528   7.330 -3.5732 -1.3061  0.5648
  514MOL0     H67818   7.777   3.701   7.401 -0.1572  0.2512 -1.6006
  514MOL0     H67819   7.685   3.742   7.539  3.6759 -3.0438  0.2343
  514MOL0     H67820   7.674   3.879   7.308 -2.6626  2.7742  0.3423
  514MOL0     H67821   7.560   3.765   7.244  1.7121  3.4441 -3.0301
  514MOL0     H67822   7.545   3.942   7.495  3.0488  1.8330 -2.0427
  514MOL0     H67823   7.415   3.820   7.459 -1.4924  0.7075 -1.0258
  514MOL0     H67824   7.389   3.941   7.241  1.1278 -1.5782 -0.5086
  514MOL0     H67825   7.510   4.060   7.292  2.1056 -1.7913  1.4271
  514MOL0     H67826   7.241   3.988   7.422 -2.2660  1.7029 -3.1262
  514MOL0     H67827   7.361   4.086   7.504 -0.7691 -1.1932  1.4594
  514MOL0     H67828   7.356   4.254   7.318 -0.9831  0.1973 -3.1736
  514MOL0     H67829   7.218   4.243   7.434 -0.5432  1.2313 -2.0333
  514MOL0     H67830   7.418   3.193   7.569 -0.1830 -1.8780  1.1414
  514MOL0     H67831   7.329   3.089   7.770 -0.1179 -0.5442 -1.4107
  514MOL0     H67832   7.428   3.019   8.237 -0.4676 -1.0101  0.7326
  514MOL0     H67833   7.352   2.945   8.470 -1.4368 -0.8351  0.7090
  514MOL0     H67834   7.406   2.437   9.589  0.6314 -2.0656  4.0063
  514MOL0     H67835   7.616   2.443   9.475  2.9291 -2.1580 -0.0623
  514MOL0     H67836   7.890   2.139   9.190 -0.9914  0.7142  1.1962
  514MOL0     H67837   8.093   2.108   9.077  0.9869  0.8961  0.3435
  514MOL0     H67838   8.268   2.282   9.035 -1.7891 -1.2324 -0.0324
  514MOL0     H67839   8.307   2.136   8.956  0.9437  1.3140 -0.3823
  514MOL0     H67840   8.470   2.308   8.927  1.0842 -0.6058 -0.5211
  514MOL0     H67841   8.492   2.307   9.105 -0.7624  1.2470 -1.9350
  514MOL0     H67842   8.514   2.059   8.915 -2.1704  2.7088 -1.8237
  514MOL0     H67843   8.583   2.077   9.076  0.2143 -1.1624 -1.3545
  514MOL0     H67844   8.690   2.222   8.827  0.7315  1.0505  0.8743
  514MOL0     H67845   8.753   2.243   8.990  0.0302  0.5522  1.4642
  514MOL0     H67846   8.910   1.865   8.852 -0.5430 -1.9058  1.7205
  514MOL0     H67847   8.310   2.172   9.446  0.7586 -3.4697 -1.1842
  514MOL0     H67848   8.092   2.191   9.560 -1.6536 -0.5450  0.1082
  515MOL0     O67849   6.788   4.900  11.120 -0.1376 -0.3556  0.0034
  515MOL0     C67850   6.745   4.788  11.142  0.1507  0.7027  0.0275
  515MOL0     O67851   6.622   4.746  11.183 -0.6815  0.1213 -0.2436
  515MOL0     C67852   6.523   4.840  11.171 -0.0650  0.2040 -0.5261
  515MOL0     C67853   6.504   4.935  11.068  0.3822 -0.3806  0.2521
  515MOL0     C67854   6.400   5.026  11.065  1.0030  0.4301  0.9335
  515MOL0     C67855   6.317   5.031  11.177  0.6473  0.3033 -0.5424
  515MOL0     O67856   6.228   5.132  11.202 -0.3450  0.2816 -0.1962
  515MOL0     C67857   6.290   5.262  11.181  0.3233 -0.5062 -0.5137
  515MOL0     C67858   6.203   5.358  11.107  0.4964  0.0282  0.0247
  515MOL0     C67859   6.067   5.383  11.168 -0.1040 -0.3570  0.0616
  515MOL0     C67860   5.967   5.438  11.072  0.4190 -0.4905  0.1821
  515MOL0     C67861   5.839   5.476  11.150  0.1088  0.1371  0.0127
  515MOL0     C67862   5.726   5.503  11.051  0.7879 -0.9547 -0.1564
  515MOL0     C67863   5.607   5.555  11.130 -0.6464 -0.0424 -0.0549
  515MOL0     C67864   5.508   5.633  11.043  0.4358 -0.1249  0.4499
  515MOL0     N67865   5.388   5.667  11.130  0.3454 -0.1699 -0.2102
  515MOL0     C67866   5.280   5.590  11.158  0.2920  0.4590 -0.0782
  515MOL0     C67867   5.207   5.660  11.249  0.1961 -0.0413 -0.5309
  515MOL0     C67868   5.075   5.615  11.317 -0.6913 -0.3786  0.3787
  515MOL0     C67869   4.953   5.587  11.231  0.5962 -0.2943  0.3339
  515MOL0     C67870   4.912   5.707  11.150  0.3621 -0.0065 -1.4283
  515MOL0     C67871   4.771   5.686  11.087 -0.8348 -0.0169  0.2187
  515MOL0     O67872   4.772   5.558  11.016  0.4395 -0.4918  0.3243
  515MOL0     C67873   4.652   5.508  10.975 -0.1549 -0.2113 -0.6667
  515MOL0     C67874   4.660   5.385  10.907  0.2009 -0.2390 -0.7478
  515MOL0     C67875   4.546   5.335  10.841  0.3220 -0.5487 -0.2399
  515MOL0     C67876   4.415   5.394  10.854 -0.3957  0.6259  0.2370
  515MOL0     C67877   4.301   5.344  10.783 -0.0035 -0.1610  0.1219
  515MOL0     O67878   4.212   5.432  10.731  0.4187 -0.2025 -0.9070
  515MOL0     C67879   4.114   5.404  10.648  0.0978  1.2281 -0.4012
  515MOL0     C67880   3.988   5.460  10.665 -1.3320 -0.1229  0.9671
  515MOL0     C67881   3.888   5.420  10.584  0.1294  0.4198  0.0649
  515MOL0     C67882   3.899   5.322  10.483 -0.2939  0.5141 -0.2022
  515MOL0     O67883   3.794   5.276  10.403 -0.5673  0.0329 -0.6171
  515MOL0     C67884   3.685   5.364  10.395 -0.0243 -0.2950  0.0495
  515MOL0     C67885   3.608   5.327  10.269  0.5081 -0.5180  0.2012
  515MOL0     C67886   3.534   5.453  10.205  0.4975 -0.2603  0.5089
  515MOL0     C67887   3.467   5.421  10.072  0.1216  0.1968 -0.5472
  515MOL0     C67888   3.370   5.534  10.038 -0.7333  0.2306  0.4586
  515MOL0     C67889   3.451   5.666  10.007  0.6549 -0.5523  0.2856
  515MOL0     C67890   3.385   5.784   9.928  0.0148  0.5175 -0.2532
  515MOL0     C67891   3.253   5.837  10.001 -1.1506 -0.2612  0.2875
  515MOL0    Cl67892   3.305   5.943  10.143  0.1308 -0.3784 -0.8521
  515MOL0     C67893   4.032   5.275  10.457 -0.3170 -0.5570 -0.1679
  515MOL0     C67894   4.140   5.317  10.544  0.7140 -0.6508 -0.3086
  515MOL0     O67895   4.299   5.222  10.761 -0.0697 -0.2447  0.1994
  515MOL0     C67896   4.413   5.521  10.918  0.5469 -0.5071 -0.0807
  515MOL0     C67897   4.532   5.580  10.969 -0.4898 -0.3528 -0.9531
  515MOL0     N67898   5.269   5.780  11.276  0.2647 -0.1609  0.6281
  515MOL0     N67899   5.377   5.786  11.195 -0.2088  0.7822  0.2490
  515MOL0     C67900   6.331   4.939  11.284  0.1837 -1.3112  0.3299
  515MOL0     C67901   6.424   4.834  11.282  0.0076 -0.0246  1.0610
  515MOL0     C67902   6.849   4.686  11.131 -0.0951 -0.0223  0.2349
  515MOL0     C67903   6.972   4.703  11.062  0.7127  0.0453  0.2317
  515MOL0     C67904   7.065   4.600  11.048 -0.2083 -0.2079  0.6090
  515MOL0     C67905   7.034   4.473  11.103 -0.4547  0.3269  0.2134
  515MOL0     O67906   7.129   4.369  11.097  0.0165  0.0183 -0.3142
  515MOL0     C67907   7.132   4.278  11.206 -0.6087 -0.4194 -0.9794
  515MOL0     C67908   7.274   4.215  11.221 -0.4785  0.0787  0.1149
  515MOL0     C67909   7.336   4.163  11.097 -0.1815 -0.9119  0.5751
  515MOL0     C67910   7.452   4.064  11.111  0.3727 -0.2045  0.2082
  515MOL0     C67911   7.568   4.114  11.192 -0.9548 -0.2564  0.5407
  515MOL0     C67912   7.657   4.152  11.265  0.0766 -0.7575 -0.4785
  515MOL0     C67913   6.919   4.458  11.180  0.5839  1.3319  0.3172
  515MOL0     C67914   6.825   4.558  11.186 -0.2990 -0.0697  0.5791
  515MOL0     H67915   6.560   4.939  10.975 -1.5413 -0.3163 -0.9569
  515MOL0     H67916   6.375   5.109  10.999 -3.0953 -0.4842  1.0588
  515MOL0     H67917   6.392   5.260  11.142  0.7060  3.5009 -0.1080
  515MOL0     H67918   6.306   5.295  11.284 -1.3637 -4.4179  1.1843
  515MOL0     H67919   6.196   5.317  11.006  0.0662  2.5495 -1.0248
  515MOL0     H67920   6.258   5.451  11.095  0.9519 -0.4730 -2.1889
  515MOL0     H67921   6.079   5.455  11.250  0.0479 -0.6543  0.3009
  515MOL0     H67922   6.031   5.291  11.214  1.4978 -0.9090  0.3030
  515MOL0     H67923   6.014   5.523  11.022  2.7615 -1.9285 -0.1794
  515MOL0     H67924   5.954   5.361  10.994 -1.3317  0.6406 -0.7059
  515MOL0     H67925   5.865   5.559  11.217  0.6873  1.5513 -1.8966
  515MOL0     H67926   5.802   5.395  11.214  2.1643 -0.9400 -0.0678
  515MOL0     H67927   5.698   5.416  10.991 -2.5630  1.0614 -1.7733
  515MOL0     H67928   5.761   5.579  10.982 -2.1103  2.6027  1.9260
  515MOL0     H67929   5.558   5.470  11.178  1.0124 -1.7669 -1.3169
  515MOL0     H67930   5.632   5.630  11.206  1.3079  2.0981 -2.6053
  515MOL0     H67931   5.483   5.569  10.959 -2.5712  0.9095  0.4499
  515MOL0     H67932   5.557   5.724  11.008  1.4906 -0.1180  1.8651
  515MOL0     H67933   5.249   5.487  11.145  0.0378  0.5166  0.0629
  515MOL0     H67934   5.042   5.693  11.387  0.3762  0.0179  0.4688
  515MOL0     H67935   5.101   5.529  11.380  0.1374 -1.3508 -1.2344
  515MOL0     H67936   4.881   5.556  11.307 -0.0941 -3.3322 -1.4143
  515MOL0     H67937   4.954   5.494  11.174 -3.3407 -0.7223  0.6587
  515MOL0     H67938   4.919   5.803  11.202  1.2213 -0.4730 -0.6449
  515MOL0     H67939   4.980   5.720  11.065  0.2954 -0.3963 -1.5442
  515MOL0     H67940   4.746   5.760  11.010  1.7358  0.6982 -0.0428
  515MOL0     H67941   4.688   5.684  11.159 -0.1664  0.5462  1.0326
  515MOL0     H67942   4.761   5.346  10.914 -0.3539 -1.5223  0.9000
  515MOL0     H67943   4.549   5.250  10.774  0.0613  0.5562 -1.6978
  515MOL0     H67944   3.966   5.538  10.737 -0.5638  2.1892 -1.1583
  515MOL0     H67945   3.788   5.449  10.617 -0.8900 -2.2804 -0.3489
  515MOL0     H67946   3.711   5.471  10.389 -1.1011 -0.1056 -1.5833
  515MOL0     H67947   3.622   5.361  10.485 -2.2328 -0.4771 -1.4269
  515MOL0     H67948   3.533   5.253  10.299  0.0922  0.3708  1.4513
  515MOL0     H67949   3.667   5.281  10.190 -2.8094  0.9798 -3.4938
  515MOL0     H67950   3.616   5.525  10.195 -1.4313  2.3966  2.4922
  515MOL0     H67951   3.459   5.497  10.270  1.0593  3.6861 -1.2288
  515MOL0     H67952   3.554   5.421  10.006  2.8979 -1.5132  2.7732
  515MOL0     H67953   3.423   5.321  10.062  1.3352 -0.2458 -1.9063
  515MOL0     H67954   3.300   5.554  10.120 -1.2235 -2.0423  0.6690
  515MOL0     H67955   3.326   5.515   9.940  1.3195  2.2864 -0.9484
  515MOL0     H67956   3.545   5.642   9.956 -0.4735  0.1709 -2.2585
  515MOL0     H67957   3.488   5.712  10.100  1.6134 -0.7692  0.0244
  515MOL0     H67958   3.460   5.862   9.914  2.7072 -1.7971  0.3989
  515MOL0     H67959   3.365   5.751   9.825  2.8476 -1.5186 -0.2578
  515MOL0     H67960   3.193   5.753  10.037 -3.3292  0.4745 -1.4228
  515MOL0     H67961   3.195   5.900   9.933 -0.8476 -1.2078 -0.8844
  515MOL0     H67962   4.057   5.223  10.365  0.1943  0.9277 -0.9076
  515MOL0     H67963   4.239   5.273  10.531 -0.0374 -1.9853 -1.7832
  515MOL0     H67964   4.325   5.585  10.922  1.9964  1.5620  0.9224
  515MOL0     H67965   4.533   5.680  11.011  0.2049 -1.7023  2.6452
  515MOL0     H67966   6.280   4.956  11.378  1.4173  0.1680  0.7805
  515MOL0     H67967   6.449   4.770  11.366 -1.4410 -2.1565 -0.0189
  515MOL0     H67968   6.986   4.801  11.018 -1.3803  0.8271  1.1887
  515MOL0     H67969   7.162   4.606  11.000  1.0423 -0.6517  2.9179
  515MOL0     H67970   7.059   4.198  11.187 -1.2240  0.2451 -1.4290
  515MOL0     H67971   7.110   4.338  11.295 -3.0260  0.1661 -1.9164
  515MOL0     H67972   7.341   4.289  11.265 -1.2844  0.5986  0.4876
  515MOL0     H67973   7.254   4.138  11.296  2.0736  0.7653  1.6021
  515MOL0     H67974   7.372   4.260  11.060 -2.9850  0.1189  0.3062
  515MOL0     H67975   7.260   4.121  11.030  1.0032 -3.3686  0.6726
  515MOL0     H67976   7.409   3.973  11.154 -0.5539  0.2767  0.3229
  515MOL0     H67977   7.469   4.039  11.006 -0.1450  0.1423  0.0402
  515MOL0     H67978   7.735   4.196  11.324 -1.4684 -0.1531  1.2009
  515MOL0     H67979   6.887   4.368  11.231  1.4530  1.0749  0.4297
  515MOL0     H67980   6.733   4.547  11.244 -1.0846  0.7267 -0.4638
  516MOL0     O67981   1.437   7.449   1.029  0.4302  0.1462 -0.7385
  516MOL0     C67982   1.538   7.420   0.964  0.1109  0.0754  0.4952
  516MOL0     O67983   1.534   7.338   0.851 -0.2789 -0.6199 -0.2283
  516MOL0     C67984   1.426   7.265   0.809 -0.5013 -0.4294 -0.1893
  516MOL0     C67985   1.414   7.248   0.673 -0.7830  1.6324 -0.7143
  516MOL0     C67986   1.300   7.185   0.617 -0.1244 -0.5461  0.7637
  516MOL0     C67987   1.200   7.131   0.697 -0.7365  0.3859 -0.3690
  516MOL0     O67988   1.090   7.065   0.659 -0.1184  0.0341  0.7699
  516MOL0     C67989   1.069   7.029   0.517 -0.4042 -0.0625 -0.6345
  516MOL0     C67990   0.967   6.912   0.509 -0.5181  0.1068  0.3412
  516MOL0     C67991   0.816   6.958   0.518 -0.7829  0.0601 -0.3782
  516MOL0     C67992   0.732   6.830   0.507 -0.0004  0.1608  0.0231
  516MOL0     C67993   0.575   6.846   0.519  0.6418  0.4289  0.8040
  516MOL0     C67994   0.528   6.935   0.636 -0.0090 -0.1156 -0.1375
  516MOL0     C67995   0.380   6.969   0.636 -1.0897 -0.4368  0.4194
  516MOL0     C67996   0.306   6.875   0.723 -0.9201 -0.1511 -0.2990
  516MOL0     N67997   0.205   6.798   0.650 -0.0678 -0.9397  0.0221
  516MOL0     C67998   0.088   6.847   0.591 -0.2505 -0.1833 -0.4605
  516MOL0     C67999   0.025   6.741   0.539  0.8603 -0.4020 -0.6842
  516MOL0     C68000  -0.101   6.754   0.473  0.3648 -0.4352  0.2355
  516MOL0     C68001  -0.222   6.796   0.551 -0.1666 -0.0810 -0.6496
  516MOL0     C68002  -0.292   6.675   0.606 -0.7823  0.0738  0.9992
  516MOL0     C68003  -0.413   6.706   0.696 -0.6154  0.1799  0.5443
  516MOL0     O68004  -0.507   6.781   0.623 -0.1669  0.2246  0.2894
  516MOL0     C68005  -0.639   6.778   0.667 -0.0355 -0.1365  0.1892
  516MOL0     C68006  -0.724   6.824   0.567  0.3735  0.2859 -0.3113
  516MOL0     C68007  -0.862   6.825   0.585  0.5846  0.6167 -0.0339
  516MOL0     C68008  -0.919   6.781   0.701 -0.5840 -0.1270 -0.0630
  516MOL0     C68009  -1.070   6.781   0.728  0.4022 -0.2162 -0.0196
  516MOL0     O68010  -1.153   6.836   0.633 -0.0742 -0.3377  0.0487
  516MOL0     C68011  -1.286   6.815   0.633 -0.0567  0.1712 -0.0123
  516MOL0     C68012  -1.368   6.922   0.588  0.7330  0.1465  0.6310
  516MOL0     C68013  -1.508   6.920   0.591 -0.2344  0.2966 -0.2913
  516MOL0     C68014  -1.577   6.802   0.629 -0.7600 -1.2893 -0.6610
  516MOL0     O68015  -1.710   6.780   0.633  0.3543 -0.4963 -0.0483
  516MOL0     C68016  -1.796   6.896   0.657  0.0662  0.0843 -0.4861
  516MOL0     C68017  -1.941   6.848   0.660 -0.0411 -0.3447  0.3751
  516MOL0     C68018  -2.033   6.960   0.703 -0.1025 -0.5335  0.1826
  516MOL0     C68019  -2.173   6.899   0.728  0.4562  1.3860  0.1309
  516MOL0     C68020  -2.291   6.981   0.785  0.6519 -0.2316 -0.9735
  516MOL0     C68021  -2.264   7.012   0.932 -0.6647 -0.4356 -0.6032
  516MOL0     C68022  -2.311   6.903   1.024 -0.8285  1.0653 -0.3540
  516MOL0     C68023  -2.256   6.910   1.160  0.0116  1.0126  0.0962
  516MOL0    Cl68024  -2.330   7.052   1.240  0.1440 -0.0360 -0.3541
  516MOL0     C68025  -1.495   6.700   0.672 -0.2309 -0.0702  0.1741
  516MOL0     C68026  -1.354   6.707   0.681  0.3844 -0.4138  0.6348
  516MOL0     O68027  -1.114   6.722   0.829  0.1061  0.0995  0.6492
  516MOL0     C68028  -0.828   6.736   0.801  0.1888  0.0637  0.0508
  516MOL0     C68029  -0.689   6.732   0.790 -0.5436  0.2779  0.1360
  516MOL0     N68030   0.090   6.628   0.586  0.3484 -0.2151 -0.2568
  516MOL0     N68031   0.196   6.666   0.655 -0.3831  0.0295 -0.9087
  516MOL0     C68032   1.213   7.149   0.828  0.3018 -0.3742 -0.9958
  516MOL0     C68033   1.327   7.206   0.892  0.7165 -0.3649  0.2901
  516MOL0     C68034   1.665   7.496   0.995  0.1506  0.2680 -0.0138
  516MOL0     C68035   1.674   7.577   1.113 -0.1466  0.0598  0.7707
  516MOL0     C68036   1.793   7.635   1.149 -0.2836  0.2513 -0.1937
  516MOL0     C68037   1.907   7.620   1.069  0.3013  0.8408  0.1944
  516MOL0     O68038   2.028   7.678   1.098  1.2007 -0.3259 -0.2716
  516MOL0     C68039   2.035   7.766   1.211 -0.1117  0.3860 -0.0522
  516MOL0     C68040   2.180   7.819   1.219 -0.3944 -0.7693  0.1271
  516MOL0     C68041   2.193   7.902   1.347 -0.0750  0.1312 -0.0890
  516MOL0     C68042   2.298   8.012   1.315  0.8862  0.2902 -0.3738
  516MOL0     C68043   2.315   8.098   1.431  0.4504  0.3897 -0.0732
  516MOL0     C68044   2.327   8.183   1.517 -0.2176 -0.7048 -0.3263
  516MOL0     C68045   1.897   7.542   0.951  0.9959 -0.3434  0.0216
  516MOL0     C68046   1.779   7.482   0.919  0.6159 -0.4496  0.3135
  516MOL0     H68047   1.488   7.289   0.605  1.7224 -1.6810 -0.2550
  516MOL0     H68048   1.288   7.178   0.509 -3.3410  1.8159  0.8089
  516MOL0     H68049   1.164   7.003   0.470 -0.5912 -2.9778  0.4062
  516MOL0     H68050   1.037   7.116   0.458  0.6604  1.4256  0.8802
  516MOL0     H68051   0.989   6.856   0.601 -1.7642  0.6441  0.9983
  516MOL0     H68052   0.982   6.846   0.423 -2.4114 -2.3331  1.7330
  516MOL0     H68053   0.800   7.030   0.437  0.0478  1.1512  0.3999
  516MOL0     H68054   0.800   7.019   0.607  0.6042 -1.2615  0.8401
  516MOL0     H68055   0.744   6.786   0.408 -4.9078 -3.2818  0.5597
  516MOL0     H68056   0.763   6.757   0.583 -1.3713 -1.5705 -1.0032
  516MOL0     H68057   0.530   6.747   0.532 -0.0271  0.6167  0.0238
  516MOL0     H68058   0.518   6.884   0.433 -1.3046  0.0547  1.8593
  516MOL0     H68059   0.569   7.036   0.634  1.1061 -0.5589 -1.2372
  516MOL0     H68060   0.564   6.885   0.726  0.0689  1.0733  0.5138
  516MOL0     H68061   0.344   7.069   0.665 -3.5367 -0.8719 -0.8261
  516MOL0     H68062   0.351   6.954   0.532  0.7751 -2.5928  0.1264
  516MOL0     H68063   0.247   6.937   0.791 -0.2349  2.0023 -1.5862
  516MOL0     H68064   0.366   6.802   0.779  0.1471  1.8908  1.3558
  516MOL0     H68065   0.052   6.950   0.591  0.6997  0.1670 -0.1141
  516MOL0     H68066  -0.130   6.654   0.439 -4.5004  0.9157 -0.3479
  516MOL0     H68067  -0.086   6.814   0.382 -1.9262 -0.0513  0.0574
  516MOL0     H68068  -0.294   6.849   0.488 -1.5145 -2.6062 -1.3783
  516MOL0     H68069  -0.184   6.866   0.626  0.0930 -0.4648 -0.4236
  516MOL0     H68070  -0.324   6.625   0.513  0.3078  2.1780 -0.5906
  516MOL0     H68071  -0.222   6.612   0.661 -1.3260 -2.9349 -1.4259
  516MOL0     H68072  -0.384   6.777   0.774  0.4344  1.1658 -0.7131
  516MOL0     H68073  -0.455   6.614   0.738  1.8933 -0.0043  2.9296
  516MOL0     H68074  -0.678   6.853   0.473  0.7685 -2.8039 -1.1703
  516MOL0     H68075  -0.916   6.843   0.493 -0.5826 -2.0068  0.0324
  516MOL0     H68076  -1.324   7.008   0.540  2.8361 -1.6963 -0.9760
  516MOL0     H68077  -1.555   7.004   0.539 -0.0934  0.0419 -0.8353
  516MOL0     H68078  -1.794   6.972   0.579 -0.6258  0.6644  0.0463
  516MOL0     H68079  -1.762   6.945   0.749 -1.4120 -2.9213  1.8351
  516MOL0     H68080  -1.948   6.766   0.732 -1.3662  0.5271  1.2884
  516MOL0     H68081  -1.971   6.811   0.561  0.2204 -2.4775  1.0434
  516MOL0     H68082  -2.028   7.040   0.629  1.1991  1.9998  2.8124
  516MOL0     H68083  -1.986   6.995   0.796 -0.3358 -3.8453  1.6779
  516MOL0     H68084  -2.203   6.853   0.633  2.6610 -0.7851  0.4028
  516MOL0     H68085  -2.170   6.817   0.801 -0.5862  2.1743  1.1040
  516MOL0     H68086  -2.384   6.923   0.787 -0.8635  2.0161 -2.2246
  516MOL0     H68087  -2.309   7.076   0.735 -3.4806  0.0837  0.7031
  516MOL0     H68088  -2.322   7.099   0.965 -0.0965 -0.3331  0.1391
  516MOL0     H68089  -2.159   7.038   0.951 -0.6715 -1.0734  0.3646
  516MOL0     H68090  -2.419   6.917   1.030 -1.0410 -0.7491  0.3880
  516MOL0     H68091  -2.288   6.807   0.978 -0.7015  0.2920  1.2562
  516MOL0     H68092  -2.147   6.906   1.159  0.0370 -3.2545  0.3300
  516MOL0     H68093  -2.296   6.820   1.209 -0.5177  1.2596  0.1193
  516MOL0     H68094  -1.549   6.606   0.680  0.8406 -0.7259 -0.0815
  516MOL0     H68095  -1.298   6.620   0.715  1.2673 -0.4793 -0.8860
  516MOL0     H68096  -0.861   6.705   0.900  0.9181  1.6826  0.8390
  516MOL0     H68097  -0.632   6.689   0.872 -0.0598  2.4421  0.9872
  516MOL0     H68098   1.125   7.132   0.888  2.8687 -1.4173  2.7916
  516MOL0     H68099   1.321   7.210   1.000 -2.8052 -0.5747  0.2219
  516MOL0     H68100   1.594   7.586   1.186 -2.0250  0.6887 -1.2830
  516MOL0     H68101   1.808   7.680   1.247  0.4693  0.4912 -0.4075
  516MOL0     H68102   2.023   7.709   1.304 -0.7545  1.4230  0.5308
  516MOL0     H68103   1.967   7.852   1.219 -1.9447 -1.1725  3.8294
  516MOL0     H68104   2.245   7.731   1.208  2.2536  1.1781 -1.0178
  516MOL0     H68105   2.202   7.872   1.126  0.5877 -0.7705  0.3447
  516MOL0     H68106   2.226   7.839   1.430  1.1328 -0.1942 -0.7887
  516MOL0     H68107   2.095   7.950   1.358  0.2725  0.8377 -0.0488
  516MOL0     H68108   2.397   7.971   1.293  0.0311 -2.7404  0.8864
  516MOL0     H68109   2.259   8.066   1.228 -2.1530 -0.5719  0.3148
  516MOL0     H68110   2.337   8.262   1.589  0.4605 -0.5937 -0.5278
  516MOL0     H68111   1.986   7.524   0.892  2.2971  0.0532  1.7698
  516MOL0     H68112   1.771   7.425   0.827 -0.3323 -1.9677  1.2960
  517MOL0     O68113   3.235   4.264   3.878 -0.4308  0.2817  0.3930
  517MOL0     C68114   3.269   4.380   3.844  0.3119 -0.3286  0.5327
  517MOL0     O68115   3.179   4.476   3.802  0.1814  0.2508  0.4692
  517MOL0     C68116   3.044   4.466   3.793  0.8403  1.2663 -0.1204
  517MOL0     C68117   2.975   4.348   3.777  0.1243  0.8327 -0.2296
  517MOL0     C68118   2.831   4.349   3.782 -0.7714 -0.6524 -0.4208
  517MOL0     C68119   2.761   4.471   3.802 -0.4081  0.2269  0.1859
  517MOL0     O68120   2.625   4.465   3.815  0.5680 -0.6459 -0.1079
  517MOL0     C68121   2.535   4.552   3.752 -1.2432  0.2096 -0.4776
  517MOL0     C68122   2.398   4.486   3.732 -0.6649  0.5224  0.0322
  517MOL0     C68123   2.335   4.461   3.868 -0.3450  0.0322  0.3566
  517MOL0     C68124   2.187   4.459   3.871 -0.0713  0.2825  0.6043
  517MOL0     C68125   2.107   4.372   3.778 -1.3703 -0.3632  0.1987
  517MOL0     C68126   1.963   4.336   3.830 -0.5060 -0.1856  0.1880
  517MOL0     C68127   1.868   4.449   3.798  0.3364 -0.5740 -0.2457
  517MOL0     C68128   1.738   4.425   3.864  0.3726 -0.3236 -0.5818
  517MOL0     N68129   1.628   4.509   3.801  0.1958  0.1488 -0.3620
  517MOL0     C68130   1.507   4.465   3.767  0.0704  0.1602  0.0719
  517MOL0     C68131   1.446   4.574   3.712 -0.4379  0.5635  0.3102
  517MOL0     C68132   1.311   4.588   3.657  0.2900 -0.3000 -0.3511
  517MOL0     C68133   1.281   4.470   3.562  0.0054 -0.1954 -0.1686
  517MOL0     C68134   1.165   4.484   3.471 -0.6148  0.0954  0.0208
  517MOL0     C68135   1.043   4.416   3.520  1.0286 -0.4499 -0.2623
  517MOL0     O68136   0.998   4.495   3.635  0.5437 -0.0891  0.5166
  517MOL0     C68137   0.916   4.429   3.715 -0.0517 -0.4671 -0.1236
  517MOL0     C68138   0.795   4.485   3.738 -0.0080 -0.4960 -0.2927
  517MOL0     C68139   0.703   4.443   3.826 -0.1140 -0.6641  0.6153
  517MOL0     C68140   0.743   4.336   3.907 -0.3943  0.6001 -0.5230
  517MOL0     C68141   0.648   4.284   4.014  0.0946  0.1974 -0.2517
  517MOL0     O68142   0.531   4.352   4.029 -0.2286 -0.4591 -0.5932
  517MOL0     C68143   0.436   4.314   4.117 -0.4735  0.5997 -0.3558
  517MOL0     C68144   0.438   4.211   4.204  0.4262 -0.6332  0.1135
  517MOL0     C68145   0.328   4.209   4.297  0.2553  1.2041 -0.2075
  517MOL0     C68146   0.221   4.305   4.301 -0.3496 -0.0926  0.2942
  517MOL0     O68147   0.117   4.288   4.391 -0.0740 -0.2634 -0.0700
  517MOL0     C68148   0.009   4.387   4.389  0.1352 -0.2161  0.4215
  517MOL0     C68149  -0.067   4.359   4.504  0.5457 -0.2996  0.0336
  517MOL0     C68150  -0.179   4.464   4.541  0.4619  0.7397  0.1755
  517MOL0     C68151  -0.266   4.407   4.658  0.3546  0.3821 -0.9566
  517MOL0     C68152  -0.366   4.512   4.677 -0.7124  0.3329 -0.3575
  517MOL0     C68153  -0.461   4.463   4.786 -0.2045  0.0388  0.0059
  517MOL0     C68154  -0.568   4.366   4.737  0.2041 -0.0819 -0.3313
  517MOL0     C68155  -0.650   4.307   4.856 -0.3521  0.0115 -0.6217
  517MOL0    Cl68156  -0.781   4.205   4.803  0.2906 -0.0518 -0.2579
  517MOL0     C68157   0.222   4.408   4.205 -0.3721  0.1422  0.3366
  517MOL0     C68158   0.330   4.409   4.115 -0.1356  0.2984 -0.4600
  517MOL0     O68159   0.692   4.188   4.080 -0.0258  0.6774  0.5172
  517MOL0     C68160   0.863   4.271   3.884  0.0457  0.2089  0.5326
  517MOL0     C68161   0.948   4.318   3.783 -0.0428  0.1802 -0.3274
  517MOL0     N68162   1.531   4.681   3.721 -0.6967  0.0182  0.2748
  517MOL0     N68163   1.636   4.647   3.779 -1.0311 -0.4141  0.5284
  517MOL0     C68164   2.837   4.584   3.790  0.4823  0.0666  0.4854
  517MOL0     C68165   2.974   4.586   3.787 -0.1336  0.1377 -0.4425
  517MOL0     C68166   3.418   4.408   3.842 -0.0611  0.1056 -0.2633
  517MOL0     C68167   3.474   4.525   3.784 -0.1260 -0.6702  0.5318
  517MOL0     C68168   3.611   4.539   3.773  0.2135  0.2897  0.2597
  517MOL0     C68169   3.701   4.438   3.821  0.7879  0.0995  0.0596
  517MOL0     O68170   3.839   4.442   3.810 -0.7998  0.2386 -0.4083
  517MOL0     C68171   3.894   4.567   3.752 -0.3495  0.2819 -0.2974
  517MOL0     C68172   3.900   4.558   3.594  0.2313 -0.0864 -0.1183
  517MOL0     C68173   3.914   4.704   3.530 -0.0673 -0.2156 -0.7631
  517MOL0     C68174   4.056   4.763   3.566  0.2863 -0.5614 -0.5188
  517MOL0     C68175   4.174   4.724   3.488 -0.3142  0.0549  0.6077
  517MOL0     C68176   4.272   4.701   3.422 -0.0318 -0.7398 -0.1879
  517MOL0     C68177   3.651   4.318   3.870  0.1642  0.0152 -0.7917
  517MOL0     C68178   3.510   4.302   3.880 -0.1905 -0.7797 -0.3289
  517MOL0     H68179   3.026   4.253   3.765 -0.0214  0.8946 -1.4645
  517MOL0     H68180   2.778   4.254   3.778 -3.0889  0.4844  1.2483
  517MOL0     H68181   2.581   4.571   3.654  1.6506  1.0884  0.9357
  517MOL0     H68182   2.530   4.646   3.809 -0.2242 -1.2830  2.2628
  517MOL0     H68183   2.409   4.391   3.680  0.8201  1.1685 -0.8848
  517MOL0     H68184   2.336   4.564   3.686 -0.7176  2.1263  2.6197
  517MOL0     H68185   2.364   4.541   3.937  1.6971 -1.1677  0.9578
  517MOL0     H68186   2.376   4.366   3.903 -0.3782 -0.8021 -1.7401
  517MOL0     H68187   2.159   4.426   3.972  0.0741 -0.3277  0.4450
  517MOL0     H68188   2.158   4.561   3.842 -0.8222 -0.4058 -1.2085
  517MOL0     H68189   2.158   4.276   3.767 -3.3211 -1.6002  1.3125
  517MOL0     H68190   2.110   4.423   3.681 -0.1864  1.5849  1.1972
  517MOL0     H68191   1.964   4.316   3.938  0.8420  0.4091  0.3074
  517MOL0     H68192   1.933   4.242   3.783  3.3264 -0.8885 -1.2005
  517MOL0     H68193   1.905   4.545   3.835  0.7266 -0.6202 -0.5062
  517MOL0     H68194   1.858   4.465   3.690  2.4459 -0.2006 -0.4407
  517MOL0     H68195   1.753   4.446   3.970  0.6609 -0.4117 -0.6053
  517MOL0     H68196   1.716   4.319   3.847  1.1495 -0.2755 -2.0554
  517MOL0     H68197   1.475   4.362   3.780  0.2124  0.2453  1.2108
  517MOL0     H68198   1.306   4.679   3.596 -0.0278 -1.2145 -1.7166
  517MOL0     H68199   1.240   4.597   3.741 -2.8641  2.5421 -2.9932
  517MOL0     H68200   1.282   4.379   3.623 -0.5827  1.0537  1.7998
  517MOL0     H68201   1.369   4.458   3.498 -0.1895 -5.1323  0.0793
  517MOL0     H68202   1.140   4.589   3.455  1.8019  0.3779 -2.6639
  517MOL0     H68203   1.191   4.437   3.376 -3.3654  1.7223 -1.6670
  517MOL0     H68204   1.047   4.308   3.536 -1.7875 -0.9098 -1.9431
  517MOL0     H68205   0.973   4.429   3.437 -1.3862 -1.9840  1.3988
  517MOL0     H68206   0.774   4.578   3.687 -0.6729  0.0162  0.8971
  517MOL0     H68207   0.606   4.491   3.833 -0.2966 -0.9954  0.4277
  517MOL0     H68208   0.511   4.131   4.205  0.8446 -0.2591  0.6972
  517MOL0     H68209   0.336   4.131   4.372 -1.8914 -0.3986 -1.5521
  517MOL0     H68210  -0.049   4.370   4.298  1.8174 -0.7615 -0.5925
  517MOL0     H68211   0.041   4.492   4.391  0.5682 -0.3468  1.8931
  517MOL0     H68212   0.009   4.355   4.583  0.0541 -0.4809  0.5108
  517MOL0     H68213  -0.109   4.259   4.493  0.3287 -0.5055  2.3191
  517MOL0     H68214  -0.239   4.486   4.453  2.1451  0.4613 -1.0845
  517MOL0     H68215  -0.126   4.554   4.573  2.2227 -1.3523  3.8522
  517MOL0     H68216  -0.322   4.316   4.633 -1.8744  1.8139 -1.3708
  517MOL0     H68217  -0.205   4.397   4.748  0.8377 -0.5513 -1.3640
  517MOL0     H68218  -0.424   4.536   4.588 -0.7289 -0.6436 -0.6183
  517MOL0     H68219  -0.306   4.598   4.710  0.5160 -0.0213 -1.5980
  517MOL0     H68220  -0.514   4.555   4.812  0.7687  0.6272 -0.0559
  517MOL0     H68221  -0.411   4.432   4.878 -0.1849  2.1088  0.7455
  517MOL0     H68222  -0.625   4.431   4.670 -2.1688 -0.6777  0.9881
  517MOL0     H68223  -0.530   4.283   4.678 -2.7051 -0.0283 -2.5305
  517MOL0     H68224  -0.687   4.386   4.922  1.6224 -1.3423  2.3271
  517MOL0     H68225  -0.585   4.243   4.917 -0.4717 -1.7344 -2.2288
  517MOL0     H68226   0.148   4.485   4.190  0.4242  0.3639 -3.3204
  517MOL0     H68227   0.333   4.477   4.030  0.1844 -0.8207 -1.3752
  517MOL0     H68228   0.903   4.193   3.948  0.7534  1.2591  1.4113
  517MOL0     H68229   1.040   4.265   3.763  0.8506  0.0288  3.4081
  517MOL0     H68230   2.786   4.680   3.787  0.3455  0.0523  1.8002
  517MOL0     H68231   3.032   4.677   3.776 -3.4106  2.3994 -0.6902
  517MOL0     H68232   3.414   4.607   3.747  0.3940 -0.7490 -0.5129
  517MOL0     H68233   3.652   4.626   3.722 -0.8479 -0.9257 -2.8700
  517MOL0     H68234   3.995   4.582   3.790 -1.0740  0.4593  1.7160
  517MOL0     H68235   3.838   4.653   3.790 -1.7997 -1.4034  1.6403
  517MOL0     H68236   3.977   4.487   3.563 -0.2687 -0.4244 -0.6033
  517MOL0     H68237   3.802   4.518   3.568 -1.5426  2.4464  2.1505
  517MOL0     H68238   3.842   4.775   3.571 -1.1308 -2.4044  1.4659
  517MOL0     H68239   3.903   4.695   3.421  2.0888 -1.6614 -0.9224
  517MOL0     H68240   4.039   4.869   3.545  1.0257 -0.7191 -1.9903
  517MOL0     H68241   4.083   4.748   3.671  1.1066 -0.0803 -0.6557
  517MOL0     H68242   4.352   4.657   3.366 -0.3780  0.1692 -1.4498
  517MOL0     H68243   3.718   4.244   3.912  0.0516  1.1161  1.4875
  517MOL0     H68244   3.466   4.213   3.923  0.7832 -1.0270  0.1848
  518MOL0     O68245  10.721   4.156   2.816  1.1993 -0.4895  0.4748
  518MOL0     C68246  10.750   4.066   2.891  0.5164  0.1971 -0.6003
  518MOL0     O68247  10.667   3.969   2.936  0.1139 -0.5069 -0.3077
  518MOL0     C68248  10.540   3.954   2.893 -0.3325  0.1026  0.7373
  518MOL0     C68249  10.445   4.056   2.901  0.4064  0.1326  0.0858
  518MOL0     C68250  10.314   4.030   2.861  0.3442  0.6612 -0.1323
  518MOL0     C68251  10.274   3.908   2.813  0.7576  0.5434 -0.2158
  518MOL0     O68252  10.153   3.862   2.780  0.1220  0.2885  0.4489
  518MOL0     C68253  10.068   3.944   2.709 -0.8601 -0.1965  0.4443
  518MOL0     C68254   9.935   3.873   2.686  0.5235 -0.3526 -0.9531
  518MOL0     C68255   9.835   3.941   2.589  0.2269 -0.5816  0.4374
  518MOL0     C68256   9.724   3.842   2.541  0.2332  0.2002 -0.6242
  518MOL0     C68257   9.621   3.901   2.454 -0.0890  0.2616  0.3978
  518MOL0     C68258   9.669   4.004   2.350 -0.4244 -0.3272 -0.4137
  518MOL0     C68259   9.539   4.060   2.273 -0.3137 -0.1029  0.4673
  518MOL0     C68260   9.468   3.971   2.168 -0.1418 -0.0256 -0.0889
  518MOL0     N68261   9.349   4.036   2.114  0.1311 -0.4098 -0.0550
  518MOL0     C68262   9.363   4.150   2.034  0.9089  0.6036  0.2610
  518MOL0     C68263   9.231   4.188   2.019  0.4686 -0.2871 -0.0900
  518MOL0     C68264   9.173   4.304   1.943 -0.6262 -0.5173 -0.8281
  518MOL0     C68265   9.157   4.271   1.793  0.3105  0.4418 -1.0305
  518MOL0     C68266   9.112   4.398   1.725 -0.2352  0.2178  0.2220
  518MOL0     C68267   8.965   4.452   1.753  0.1540 -0.4629 -0.6160
  518MOL0     O68268   8.947   4.582   1.682 -0.3585 -0.3137 -0.0433
  518MOL0     C68269   8.848   4.565   1.591 -0.6178 -0.4459  0.8273
  518MOL0     C68270   8.862   4.490   1.469  0.0940  0.4434  0.7462
  518MOL0     C68271   8.751   4.488   1.390 -0.1406  0.6374  0.5150
  518MOL0     C68272   8.625   4.556   1.434 -0.0677  0.6296  0.6697
  518MOL0     C68273   8.511   4.555   1.355 -0.3247 -1.1900 -0.0334
  518MOL0     O68274   8.400   4.636   1.388 -0.3717  0.4144 -0.3292
  518MOL0     C68275   8.301   4.621   1.300 -0.4078  0.3408  0.5466
  518MOL0     C68276   8.280   4.728   1.208 -0.0822 -0.4055 -0.8018
  518MOL0     C68277   8.175   4.733   1.114 -0.2341 -0.1016 -0.5821
  518MOL0     C68278   8.088   4.624   1.112  0.0209  0.4272  0.4960
  518MOL0     O68279   7.969   4.626   1.038 -0.0581  0.2084  0.4504
  518MOL0     C68280   7.973   4.715   0.926 -0.0812 -0.7762 -0.6004
  518MOL0     C68281   7.844   4.688   0.850 -0.5359  0.1632 -0.4696
  518MOL0     C68282   7.840   4.767   0.718 -0.5015  0.3216 -0.0882
  518MOL0     C68283   7.780   4.909   0.729 -0.2952  0.3735  0.1131
  518MOL0     C68284   7.748   4.973   0.593 -0.6332 -0.7662 -0.3433
  518MOL0     C68285   7.868   5.059   0.543  0.2740 -0.1989 -0.0184
  518MOL0     C68286   7.854   5.131   0.405  0.2852  0.0888  0.4584
  518MOL0     C68287   7.851   5.034   0.285 -0.0236  0.9873 -0.4305
  518MOL0    Cl68288   7.688   4.960   0.269 -0.1706 -0.0615  0.5275
  518MOL0     C68289   8.110   4.519   1.199 -0.5352 -0.2110  0.4924
  518MOL0     C68290   8.213   4.513   1.298  0.3521  0.0202  0.1833
  518MOL0     O68291   8.511   4.486   1.256 -0.2782  0.6872  0.3699
  518MOL0     C68292   8.616   4.634   1.552 -0.4863  0.9441 -0.1180
  518MOL0     C68293   8.738   4.632   1.624  0.7179  0.0938  0.3200
  518MOL0     N68294   9.157   4.086   2.080  0.3733 -0.0444  1.3011
  518MOL0     N68295   9.229   3.990   2.130  0.4741 -0.4566 -0.0329
  518MOL0     C68296  10.375   3.815   2.786 -0.8565  0.3926 -0.6174
  518MOL0     C68297  10.507   3.835   2.832 -0.5963  0.3277 -0.1580
  518MOL0     C68298  10.890   4.046   2.928  0.5194 -0.0878  0.2729
  518MOL0     C68299  10.934   3.941   3.016 -0.5979  0.3996 -0.6999
  518MOL0     C68300  11.072   3.930   3.048  0.0980  0.6438  0.6531
  518MOL0     C68301  11.165   4.021   2.992  0.8637  0.0965 -0.9322
  518MOL0     O68302  11.299   4.023   3.014 -0.2471  1.7843 -0.0335
  518MOL0     C68303  11.354   3.932   3.116  1.5043 -1.0118 -0.2142
  518MOL0     C68304  11.507   3.938   3.127 -0.1270 -0.7237 -0.5600
  518MOL0     C68305  11.556   3.870   3.251  0.6587  0.7942 -1.0769
  518MOL0     C68306  11.708   3.865   3.256 -0.2237  0.3693  0.3715
  518MOL0     C68307  11.768   3.805   3.133  0.8404  0.5225 -0.4292
  518MOL0     C68308  11.804   3.752   3.029  0.0493  0.1357  0.3046
  518MOL0     C68309  11.119   4.117   2.904  0.2008  0.2189  0.0913
  518MOL0     C68310  10.987   4.137   2.878 -0.2942 -0.0195  1.3379
  518MOL0     H68311  10.456   4.157   2.938 -0.8627  0.7866 -1.2229
  518MOL0     H68312  10.241   4.110   2.874  1.7010  2.6697 -3.5227
  518MOL0     H68313  10.110   3.965   2.610  0.7530  1.4574  1.4066
  518MOL0     H68314  10.055   4.044   2.750  1.1070  0.0359  0.6051
  518MOL0     H68315   9.886   3.864   2.783 -0.7413  2.1553 -1.2612
  518MOL0     H68316   9.942   3.768   2.657 -3.4375 -0.9584 -0.3097
  518MOL0     H68317   9.888   3.977   2.500 -1.8389  2.5939  0.3273
  518MOL0     H68318   9.780   4.024   2.635 -0.7516 -0.7814 -0.3394
  518MOL0     H68319   9.784   3.762   2.497  3.5918  2.7042 -1.0037
  518MOL0     H68320   9.672   3.803   2.629  1.6894  1.0432  0.6577
  518MOL0     H68321   9.537   3.944   2.509 -0.8469 -2.5378  1.5989
  518MOL0     H68322   9.574   3.818   2.400 -1.0645 -1.0489  3.0714
  518MOL0     H68323   9.752   3.972   2.287 -0.0160  0.1691 -0.1336
  518MOL0     H68324   9.699   4.096   2.401 -4.0998  0.3308  0.9090
  518MOL0     H68325   9.468   4.093   2.349 -1.1863 -0.2500 -0.2675
  518MOL0     H68326   9.578   4.147   2.219 -0.0718 -1.1896 -1.1838
  518MOL0     H68327   9.430   3.880   2.213 -1.2199 -0.4865 -1.8279
  518MOL0     H68328   9.534   3.955   2.082  1.5196 -1.0233  1.3215
  518MOL0     H68329   9.454   4.198   2.001  0.2945  1.3497 -0.3956
  518MOL0     H68330   9.237   4.392   1.948 -1.0513 -0.2506  0.3344
  518MOL0     H68331   9.074   4.333   1.979 -0.5380  0.7525 -1.5562
  518MOL0     H68332   9.076   4.199   1.785  0.6497 -0.2350  0.9227
  518MOL0     H68333   9.254   4.227   1.767  0.0886 -3.1212  3.0320
  518MOL0     H68334   9.191   4.473   1.732  2.1453 -1.9290 -1.6102
  518MOL0     H68335   9.113   4.372   1.618  1.4345  2.5765 -0.4107
  518MOL0     H68336   8.955   4.476   1.859 -0.6369 -0.0779 -0.7615
  518MOL0     H68337   8.889   4.378   1.728 -0.2095 -0.6907  1.0476
  518MOL0     H68338   8.954   4.441   1.437  1.1652  1.5515  1.9963
  518MOL0     H68339   8.754   4.435   1.295  1.0559 -0.7109  1.2631
  518MOL0     H68340   8.351   4.808   1.224 -2.2839  1.5936 -0.5663
  518MOL0     H68341   8.163   4.824   1.055  0.5352 -1.3241 -2.7221
  518MOL0     H68342   8.055   4.720   0.854 -0.2130  1.6876 -0.6866
  518MOL0     H68343   7.970   4.818   0.963  0.2397 -0.9523 -0.0761
  518MOL0     H68344   7.749   4.706   0.902  0.6313  2.8662  0.9510
  518MOL0     H68345   7.841   4.583   0.821  3.4541  0.1054 -1.2139
  518MOL0     H68346   7.782   4.704   0.650 -1.8452  1.6782 -0.2639
  518MOL0     H68347   7.943   4.775   0.683 -0.1226  1.4056  1.1618
  518MOL0     H68348   7.689   4.907   0.790  1.5212  1.0114  3.0727
  518MOL0     H68349   7.836   4.977   0.795  0.4485  0.6457 -0.7807
  518MOL0     H68350   7.665   5.043   0.603  0.7895  0.9032  0.4279
  518MOL0     H68351   7.722   4.893   0.523  0.8783 -2.0144  0.4288
  518MOL0     H68352   7.970   5.021   0.538  0.6672  0.8616 -3.7732
  518MOL0     H68353   7.865   5.144   0.612 -1.4217 -0.0571 -0.2074
  518MOL0     H68354   7.762   5.190   0.400 -0.1288 -0.6681 -2.5166
  518MOL0     H68355   7.944   5.187   0.378  2.8564 -3.2725  1.3701
  518MOL0     H68356   7.918   4.952   0.313 -2.6397 -0.2439  2.8889
  518MOL0     H68357   7.865   5.077   0.185 -2.1197  1.2385 -0.6448
  518MOL0     H68358   8.033   4.443   1.201 -2.7877  1.9179  0.0110
  518MOL0     H68359   8.222   4.429   1.367 -1.1383 -1.6748 -1.5774
  518MOL0     H68360   8.523   4.680   1.584 -1.1629 -0.6923  0.4158
  518MOL0     H68361   8.741   4.690   1.716 -0.2621  1.9205 -0.7344
  518MOL0     H68362  10.352   3.721   2.737 -0.6620  0.7419 -1.4073
  518MOL0     H68363  10.583   3.759   2.823 -0.0187  0.5242  2.3361
  518MOL0     H68364  10.867   3.863   3.050  0.4277  0.0235  0.5118
  518MOL0     H68365  11.115   3.853   3.112  1.5469  0.4929 -0.4752
  518MOL0     H68366  11.314   3.831   3.104 -1.6401  0.1571 -0.5772
  518MOL0     H68367  11.305   3.967   3.207  1.2481 -1.8602 -0.0196
  518MOL0     H68368  11.557   3.903   3.036  0.5947 -3.2992  0.7156
  518MOL0     H68369  11.545   4.036   3.153  2.4799 -2.1142  1.3007
  518MOL0     H68370  11.510   3.771   3.254  1.4888  0.3984 -1.1018
  518MOL0     H68371  11.521   3.926   3.338  1.3714  0.5849 -0.6485
  518MOL0     H68372  11.759   3.958   3.282  0.3947  0.4052 -0.8592
  518MOL0     H68373  11.741   3.790   3.328  1.6253 -2.8253 -3.4202
  518MOL0     H68374  11.848   3.711   2.940 -1.0834 -2.5400  0.8716
  518MOL0     H68375  11.191   4.184   2.859 -0.7859  1.1164 -0.1790
  518MOL0     H68376  10.959   4.216   2.809  0.3890 -0.2481  0.7858
  519MOL0     O68377   5.530   8.340   5.070 -0.0407 -0.0732 -0.3970
  519MOL0     C68378   5.589   8.388   5.165 -0.6607  0.4573 -0.1303
  519MOL0     O68379   5.537   8.412   5.288 -0.4926  0.0842 -0.1998
  519MOL0     C68380   5.413   8.367   5.323 -0.5252  0.1413  0.1239
  519MOL0     C68381   5.409   8.248   5.396  0.7468  0.0107 -0.0174
  519MOL0     C68382   5.277   8.188   5.412  0.5000 -0.6667 -0.4198
  519MOL0     C68383   5.154   8.254   5.375  0.5557  0.1151 -0.3276
  519MOL0     O68384   5.039   8.183   5.397  0.3221 -0.0022 -0.8597
  519MOL0     C68385   4.931   8.210   5.309  0.4666 -0.5352  0.6539
  519MOL0     C68386   4.801   8.135   5.320 -0.2672  0.6707 -0.3357
  519MOL0     C68387   4.692   8.162   5.220 -0.3823  0.0189 -0.1292
  519MOL0     C68388   4.552   8.108   5.251 -0.6007  0.0159  0.0185
  519MOL0     C68389   4.467   8.121   5.128  0.2210  0.4456  0.2885
  519MOL0     C68390   4.318   8.097   5.158  0.1580 -0.6757 -0.4490
  519MOL0     C68391   4.230   8.113   5.031 -0.0404 -0.2856 -0.7839
  519MOL0     C68392   4.084   8.113   5.064 -0.2695  0.3303  0.4728
  519MOL0     N68393   4.003   8.184   4.964  0.2093 -0.1506  0.1096
  519MOL0     C68394   4.009   8.317   4.916  0.1019 -0.5950 -0.6934
  519MOL0     C68395   3.934   8.321   4.809 -0.2998  0.2306  0.1148
  519MOL0     C68396   3.897   8.449   4.731  0.4152 -0.0726  0.4964
  519MOL0     C68397   4.003   8.490   4.638 -0.8927  0.3805 -0.0720
  519MOL0     C68398   4.027   8.398   4.526 -0.7205  0.0204  0.0198
  519MOL0     C68399   4.025   8.478   4.387  0.1759  1.0757 -1.0024
  519MOL0     O68400   4.134   8.576   4.392  0.5477  0.3891  0.1594
  519MOL0     C68401   4.267   8.534   4.367 -0.5577 -1.4281 -0.6707
  519MOL0     C68402   4.382   8.617   4.377  0.1763 -0.1984  0.8253
  519MOL0     C68403   4.510   8.581   4.346 -0.0985  1.0490  0.0330
  519MOL0     C68404   4.534   8.452   4.298 -0.2688  0.0946  0.5713
  519MOL0     C68405   4.676   8.405   4.275  0.5217 -0.8541  0.8502
  519MOL0     O68406   4.693   8.284   4.210 -0.5636  0.4706  0.1557
  519MOL0     C68407   4.813   8.219   4.186 -0.8616 -0.6658  0.2078
  519MOL0     C68408   4.802   8.110   4.105 -0.1201 -0.0923  0.7392
  519MOL0     C68409   4.908   8.017   4.110  1.0456  0.0205 -0.0936
  519MOL0     C68410   5.013   8.025   4.203  0.7640  0.3903 -0.7241
  519MOL0     O68411   5.111   7.932   4.211  0.0765  0.5141 -0.1326
  519MOL0     C68412   5.132   7.836   4.102 -0.5488 -0.3178  0.7716
  519MOL0     C68413   5.281   7.787   4.108  0.4167  0.5021  0.0662
  519MOL0     C68414   5.394   7.889   4.075  0.4230 -0.5639 -0.0167
  519MOL0     C68415   5.361   7.975   3.953  0.3419 -0.3029 -0.6263
  519MOL0     C68416   5.470   8.073   3.922  0.5590 -0.0092  0.3661
  519MOL0     C68417   5.446   8.174   3.809  0.2894 -0.4386  0.2016
  519MOL0     C68418   5.572   8.259   3.773  0.6173  0.8313  0.6963
  519MOL0     C68419   5.544   8.336   3.645 -0.6725 -0.0605  0.2899
  519MOL0    Cl68420   5.409   8.457   3.660  0.0701  0.1370  0.2071
  519MOL0     C68421   5.019   8.141   4.284  0.1888  0.9839  0.5360
  519MOL0     C68422   4.925   8.237   4.274  0.6339 -0.6411  0.0504
  519MOL0     O68423   4.765   8.481   4.308 -0.6171 -0.2638  0.7612
  519MOL0     C68424   4.424   8.363   4.285 -0.1328  0.5048 -0.1069
  519MOL0     C68425   4.292   8.402   4.320 -0.2939 -0.1606  0.0832
  519MOL0     N68426   3.879   8.199   4.784  0.1204 -0.5854 -0.3217
  519MOL0     N68427   3.909   8.124   4.886 -0.1474 -0.0282  0.3198
  519MOL0     C68428   5.172   8.383   5.315  0.0484 -0.1902  0.2325
  519MOL0     C68429   5.298   8.437   5.286  0.4373 -0.2677 -0.6008
  519MOL0     C68430   5.725   8.443   5.144  0.8634 -0.1188  0.5796
  519MOL0     C68431   5.796   8.504   5.245  0.2592  0.4889 -0.1400
  519MOL0     C68432   5.917   8.565   5.218 -0.1900 -0.0333  0.5439
  519MOL0     C68433   5.975   8.552   5.086  0.7849  0.6113  0.1767
  519MOL0     O68434   6.106   8.582   5.062 -0.0112  0.7489 -0.5331
  519MOL0     C68435   6.206   8.502   5.117  0.0283  0.7503 -0.1656
  519MOL0     C68436   6.270   8.572   5.236 -0.6424  0.5871 -0.1745
  519MOL0     C68437   6.302   8.721   5.196  0.4350 -0.1611  0.5788
  519MOL0     C68438   6.396   8.776   5.295 -0.2364 -0.7313 -0.3935
  519MOL0     C68439   6.535   8.720   5.299 -0.2510  0.2840  0.4712
  519MOL0     C68440   6.652   8.677   5.307  1.0517 -0.2427 -0.7800
  519MOL0     C68441   5.901   8.491   4.986 -0.2729 -0.2939 -0.7370
  519MOL0     C68442   5.773   8.439   5.012 -0.0734 -0.0364  0.3414
  519MOL0     H68443   5.507   8.208   5.420  0.3027 -1.1056 -0.0115
  519MOL0     H68444   5.258   8.092   5.457 -0.2904 -1.2333 -1.9013
  519MOL0     H68445   4.967   8.188   5.208  2.2701 -2.2804  1.6040
  519MOL0     H68446   4.898   8.314   5.309 -0.9818 -0.9274 -1.7551
  519MOL0     H68447   4.770   8.162   5.421  1.9981  0.0913  0.5968
  519MOL0     H68448   4.834   8.031   5.313 -1.6968  0.1987 -0.3681
  519MOL0     H68449   4.719   8.125   5.121  0.5977  2.9133 -1.0651
  519MOL0     H68450   4.686   8.271   5.212  0.2765  0.1969  1.4464
  519MOL0     H68451   4.561   8.005   5.286  3.5825  1.2721  3.6631
  519MOL0     H68452   4.496   8.155   5.333  0.9583 -0.3740  1.3591
  519MOL0     H68453   4.492   8.049   5.049  1.3684 -0.0801  1.0895
  519MOL0     H68454   4.481   8.219   5.082 -1.0297  0.9353  0.9422
  519MOL0     H68455   4.278   8.172   5.226 -1.9013  0.1053 -2.3970
  519MOL0     H68456   4.298   7.993   5.188 -0.1163  0.2275  2.8389
  519MOL0     H68457   4.256   8.213   4.994 -2.2559  0.6366 -0.0077
  519MOL0     H68458   4.255   8.036   4.957  0.5493 -2.7672  1.8217
  519MOL0     H68459   4.077   8.177   5.152  2.4156 -0.8932  1.7000
  519MOL0     H68460   4.034   8.019   5.090 -2.2886  2.1811  4.0327
  519MOL0     H68461   4.055   8.409   4.952  1.2442 -0.9554 -1.1794
  519MOL0     H68462   3.873   8.523   4.809 -3.9512 -0.8355  0.1598
  519MOL0     H68463   3.805   8.441   4.672  1.6943 -0.3585 -1.5087
  519MOL0     H68464   4.092   8.503   4.701 -0.8382 -1.4199  0.2734
  519MOL0     H68465   3.986   8.590   4.599 -0.3414  1.3239  1.9456
  519MOL0     H68466   4.120   8.343   4.542 -0.2837  1.2503  1.9348
  519MOL0     H68467   3.938   8.335   4.521 -0.4830 -0.2237 -1.7471
  519MOL0     H68468   3.927   8.528   4.381 -0.4807 -0.2301 -1.6899
  519MOL0     H68469   4.031   8.409   4.303  0.1174  0.5430 -0.5742
  519MOL0     H68470   4.371   8.718   4.413  0.5623  0.2200 -0.2077
  519MOL0     H68471   4.587   8.657   4.346 -0.0245  0.9729 -0.6277
  519MOL0     H68472   4.719   8.091   4.037  0.8354  2.5360 -1.3315
  519MOL0     H68473   4.894   7.927   4.050 -1.5821  0.1735  0.2090
  519MOL0     H68474   5.112   7.887   4.007 -1.3507  0.8839  1.5609
  519MOL0     H68475   5.065   7.749   4.100 -0.7644 -0.1821 -2.1155
  519MOL0     H68476   5.283   7.708   4.032  0.3407  0.9930 -0.4577
  519MOL0     H68477   5.301   7.729   4.198  1.0850 -0.6274 -0.7916
  519MOL0     H68478   5.493   7.843   4.060  1.6313  2.5953 -3.0140
  519MOL0     H68479   5.407   7.947   4.167  1.1104 -0.6724 -0.0340
  519MOL0     H68480   5.335   7.923   3.861 -0.5118  2.1439 -1.8503
  519MOL0     H68481   5.277   8.037   3.986  1.4214  1.5141 -1.1700
  519MOL0     H68482   5.556   8.017   3.884 -0.2275 -1.2601  0.3736
  519MOL0     H68483   5.496   8.124   4.015  0.1672  0.9161 -0.0116
  519MOL0     H68484   5.358   8.235   3.831 -0.6700 -1.0445 -1.7128
  519MOL0     H68485   5.412   8.120   3.720 -0.2572  1.5943 -0.8930
  519MOL0     H68486   5.593   8.326   3.856  2.4083  2.3928 -0.9256
  519MOL0     H68487   5.653   8.187   3.761 -1.6074 -2.3235  2.8715
  519MOL0     H68488   5.516   8.271   3.562 -1.1959  1.6858 -0.9570
  519MOL0     H68489   5.635   8.384   3.606 -1.0179 -1.1275 -1.9925
  519MOL0     H68490   5.097   8.138   4.360 -0.6620 -1.0073  1.4135
  519MOL0     H68491   4.947   8.321   4.338  4.1782 -0.6884 -0.8848
  519MOL0     H68492   4.455   8.265   4.250  2.2064  1.2390 -0.2548
  519MOL0     H68493   4.209   8.332   4.308  0.5739 -1.1705 -0.1700
  519MOL0     H68494   5.090   8.451   5.292  0.3935 -0.4343 -2.0114
  519MOL0     H68495   5.288   8.530   5.231 -1.8031 -1.5720 -2.6130
  519MOL0     H68496   5.754   8.486   5.344 -0.4523  0.5607 -0.4208
  519MOL0     H68497   5.978   8.598   5.302 -1.0330  0.3202  1.0206
  519MOL0     H68498   6.277   8.488   5.035 -1.1633  2.5195 -1.5526
  519MOL0     H68499   6.158   8.411   5.154 -2.6089  2.5528  1.1582
  519MOL0     H68500   6.216   8.558   5.330  3.8568 -3.5858  2.2904
  519MOL0     H68501   6.357   8.510   5.261 -0.1915  1.8137  1.4729
  519MOL0     H68502   6.208   8.776   5.191 -0.1673 -1.1226  1.1723
  519MOL0     H68503   6.361   8.733   5.104  0.5749 -1.4337  0.4927
  519MOL0     H68504   6.409   8.882   5.270 -0.3444 -0.9169 -1.2529
  519MOL0     H68505   6.350   8.769   5.394 -0.6269 -1.5389 -0.6293
  519MOL0     H68506   6.748   8.632   5.297  1.3393  0.7234 -2.9417
  519MOL0     H68507   5.952   8.482   4.890 -1.9646  0.2334 -1.7250
  519MOL0     H68508   5.735   8.391   4.923 -0.8367  3.9438 -1.6900
  520MOL0     O68509   2.719   1.595   3.315 -0.3307 -0.4735 -0.3173
  520MOL0     C68510   2.735   1.663   3.420  1.1284 -0.2166  0.1808
  520MOL0     O68511   2.819   1.759   3.446  0.1840 -0.2712 -0.4687
  520MOL0     C68512   2.907   1.791   3.339  0.5686 -0.1696 -0.0560
  520MOL0     C68513   3.042   1.762   3.352 -0.1571  0.0065 -0.2342
  520MOL0     C68514   3.131   1.797   3.253 -0.7314  0.0212 -1.2334
  520MOL0     C68515   3.096   1.872   3.145  0.1753  0.4262  0.5229
  520MOL0     O68516   3.187   1.946   3.075 -0.1429 -0.1466 -0.1423
  520MOL0     C68517   3.195   1.900   2.940  0.3988 -0.5074  0.3413
  520MOL0     C68518   3.140   2.003   2.847  0.2707 -0.0482 -0.2277
  520MOL0     C68519   3.203   2.134   2.859  0.0308 -0.1327 -0.3069
  520MOL0     C68520   3.170   2.205   2.727  0.1404 -0.4346  0.1080
  520MOL0     C68521   3.211   2.351   2.729 -0.5468  0.3334  0.4787
  520MOL0     C68522   3.160   2.461   2.831 -0.4434 -0.1141 -0.1792
  520MOL0     C68523   3.005   2.459   2.851 -0.5893  0.1748  0.2741
  520MOL0     C68524   2.916   2.499   2.728  0.0033 -0.0557  0.4154
  520MOL0     N68525   2.777   2.501   2.766 -0.1850  0.2437 -0.5592
  520MOL0     C68526   2.673   2.436   2.694 -0.0697 -0.8327 -0.0203
  520MOL0     C68527   2.560   2.464   2.768 -0.5556  0.5663  0.8048
  520MOL0     C68528   2.417   2.428   2.720 -0.7545  0.7070 -0.1905
  520MOL0     C68529   2.325   2.372   2.833  0.2371  0.4272 -0.0224
  520MOL0     C68530   2.176   2.367   2.796  0.5912  0.7266 -0.7374
  520MOL0     C68531   2.083   2.308   2.888  0.4624 -0.2749  0.3678
  520MOL0     O68532   2.097   2.368   3.019 -0.1319 -0.1268 -0.3096
  520MOL0     C68533   1.995   2.336   3.105  0.3597  0.1780  0.4456
  520MOL0     C68534   2.011   2.357   3.237  0.2286 -0.2904  0.1364
  520MOL0     C68535   1.922   2.308   3.332 -0.6923 -0.3545 -0.0374
  520MOL0     C68536   1.805   2.243   3.298 -0.4101 -0.1939 -0.4217
  520MOL0     C68537   1.715   2.186   3.394  0.3556 -0.2711 -0.3679
  520MOL0     O68538   1.747   2.199   3.530 -0.1738 -0.1453 -0.2096
  520MOL0     C68539   1.644   2.165   3.615 -0.3448 -0.3472  0.0393
  520MOL0     C68540   1.671   2.075   3.718 -0.0450  0.2973  0.7043
  520MOL0     C68541   1.579   2.053   3.820  0.4019  0.1224 -0.1174
  520MOL0     C68542   1.456   2.124   3.823 -1.1006  0.7108  0.1623
  520MOL0     O68543   1.369   2.111   3.927 -0.5576 -0.1653 -0.3380
  520MOL0     C68544   1.422   2.125   4.060  0.0124  0.5738 -0.2855
  520MOL0     C68545   1.305   2.155   4.150  0.8825 -0.3803 -0.3137
  520MOL0     C68546   1.189   2.051   4.153  0.0683  0.9743 -0.3131
  520MOL0     C68547   1.082   2.097   4.261  0.8983 -0.1778 -0.0058
  520MOL0     C68548   1.013   1.971   4.316 -0.2102 -0.5800  0.4068
  520MOL0     C68549   0.887   2.011   4.408 -0.3412  0.2463 -0.3486
  520MOL0     C68550   0.762   2.023   4.332 -0.7548 -0.2148  0.2655
  520MOL0     C68551   0.658   2.108   4.410 -0.3809  0.0463 -0.9205
  520MOL0    Cl68552   0.624   2.033   4.567 -0.0087  0.0552  0.0979
  520MOL0     C68553   1.432   2.213   3.721 -1.0752 -0.6073 -0.6050
  520MOL0     C68554   1.528   2.242   3.619  0.7782 -0.2367 -0.4562
  520MOL0     O68555   1.609   2.136   3.353  0.8653  0.4004 -0.6443
  520MOL0     C68556   1.788   2.220   3.166 -1.0242 -0.1102  0.0236
  520MOL0     C68557   1.876   2.267   3.068 -0.4540 -0.4871 -0.2687
  520MOL0     N68558   2.601   2.531   2.885 -0.3949  0.2961 -0.2418
  520MOL0     N68559   2.730   2.552   2.882 -0.4495  0.4461  0.0106
  520MOL0     C68560   2.965   1.903   3.138 -0.0146 -0.7478  0.3420
  520MOL0     C68561   2.867   1.856   3.221  0.3421 -0.3535  0.5163
  520MOL0     C68562   2.631   1.640   3.519  0.4054 -0.5816 -0.6255
  520MOL0     C68563   2.498   1.606   3.491  0.3603 -0.3109  0.2040
  520MOL0     C68564   2.408   1.588   3.595  0.2721  0.1979 -0.1202
  520MOL0     C68565   2.443   1.602   3.729 -1.4442  0.1209 -0.5715
  520MOL0     O68566   2.364   1.556   3.832  0.1462 -0.0677  0.0952
  520MOL0     C68567   2.220   1.576   3.808  0.2390 -0.6230  0.4897
  520MOL0     C68568   2.151   1.578   3.943  0.4976  0.4805  0.1948
  520MOL0     C68569   2.126   1.719   3.998 -0.2990  0.0674 -0.1949
  520MOL0     C68570   2.257   1.796   4.013  0.0828 -1.0695  0.2607
  520MOL0     C68571   2.329   1.748   4.133  0.9975  0.5286 -0.8598
  520MOL0     C68572   2.381   1.714   4.237 -0.9297  0.7244  1.0228
  520MOL0     C68573   2.574   1.640   3.761 -1.0210 -0.9938  0.2816
  520MOL0     C68574   2.664   1.666   3.657 -0.1282  0.2699 -1.3896
  520MOL0     H68575   3.085   1.713   3.439  1.9651 -0.0085 -1.2194
  520MOL0     H68576   3.236   1.778   3.274 -1.0746 -0.8215 -0.1922
  520MOL0     H68577   3.153   1.803   2.914 -1.7964  1.5900 -5.6143
  520MOL0     H68578   3.301   1.893   2.912 -0.0371 -0.4465 -1.3766
  520MOL0     H68579   3.033   2.012   2.866  0.6480  2.2721  1.1305
  520MOL0     H68580   3.149   1.965   2.745  3.8761  2.0791 -0.8804
  520MOL0     H68581   3.312   2.132   2.869  0.0129  0.4795  0.0733
  520MOL0     H68582   3.165   2.197   2.941 -0.4107  0.4760 -0.9703
  520MOL0     H68583   3.225   2.152   2.649 -0.3957 -1.3107  0.3142
  520MOL0     H68584   3.064   2.190   2.703  0.5928 -4.1072 -0.1139
  520MOL0     H68585   3.182   2.383   2.628  1.1507 -1.8427 -0.7977
  520MOL0     H68586   3.320   2.364   2.736 -0.2747  0.6124 -2.7127
  520MOL0     H68587   3.180   2.564   2.801  0.9569 -0.0565  0.8196
  520MOL0     H68588   3.207   2.451   2.930  1.8014 -1.0896 -1.2740
  520MOL0     H68589   2.977   2.359   2.883  0.9321  0.5224  2.9976
  520MOL0     H68590   2.982   2.535   2.926  1.2438 -0.6933  1.8095
  520MOL0     H68591   2.938   2.432   2.644  1.4106  5.3318 -4.1414
  520MOL0     H68592   2.939   2.602   2.700  0.0508 -1.2187 -4.9065
  520MOL0     H68593   2.676   2.391   2.595  1.5300 -0.9763  0.0686
  520MOL0     H68594   2.422   2.349   2.644 -0.4205 -2.5065  2.9172
  520MOL0     H68595   2.381   2.517   2.668  0.6272  1.5971  0.3490
  520MOL0     H68596   2.334   2.445   2.915  1.3949 -0.4476  0.6568
  520MOL0     H68597   2.359   2.273   2.865 -1.5708 -0.8720 -1.8742
  520MOL0     H68598   2.132   2.462   2.764 -0.5979  0.0471 -1.1884
  520MOL0     H68599   2.181   2.298   2.712  1.5757  1.2490 -1.1244
  520MOL0     H68600   2.081   2.199   2.901  0.6295 -0.2334  0.7397
  520MOL0     H68601   1.992   2.336   2.834 -0.0809 -0.3285  1.2425
  520MOL0     H68602   2.085   2.425   3.280 -0.3901  1.1635 -1.0378
  520MOL0     H68603   1.932   2.316   3.440 -1.5369 -0.1745  0.0302
  520MOL0     H68604   1.766   2.022   3.712  0.2036  0.7661 -5.4851
  520MOL0     H68605   1.600   1.986   3.903 -1.0138 -0.1530  0.0561
  520MOL0     H68606   1.494   2.207   4.070  1.3854 -0.7278  1.0641
  520MOL0     H68607   1.461   2.025   4.083 -0.7907 -0.0163 -1.3537
  520MOL0     H68608   1.268   2.257   4.132  0.5825  0.0474  2.3685
  520MOL0     H68609   1.356   2.160   4.247 -0.4440 -1.4537  0.4615
  520MOL0     H68610   1.228   1.950   4.170  0.9026  1.5913  1.8009
  520MOL0     H68611   1.133   2.046   4.059 -1.2232  2.4166  0.3376
  520MOL0     H68612   1.117   2.152   4.349 -3.9732  3.1738  0.2637
  520MOL0     H68613   1.016   2.170   4.213  2.7657  1.4727 -0.1976
  520MOL0     H68614   1.087   1.917   4.375 -0.2574  0.2843  1.2945
  520MOL0     H68615   0.986   1.905   4.234  1.6222 -1.8947  0.7981
  520MOL0     H68616   0.911   2.103   4.461  1.1482 -0.1896 -0.2128
  520MOL0     H68617   0.892   1.938   4.489  0.9524 -0.1028 -0.7084
  520MOL0     H68618   0.784   2.065   4.233  0.2888 -0.0279  0.5620
  520MOL0     H68619   0.727   1.920   4.323 -0.7790 -0.2007  0.1981
  520MOL0     H68620   0.562   2.097   4.360  0.2393  0.4849 -2.2644
  520MOL0     H68621   0.679   2.213   4.435 -1.3993 -0.4423  2.5265
  520MOL0     H68622   1.333   2.257   3.716 -1.8949 -2.2421  0.5032
  520MOL0     H68623   1.510   2.319   3.545 -0.1964  0.5825  0.6074
  520MOL0     H68624   1.701   2.160   3.140 -0.0412 -1.6001  0.0856
  520MOL0     H68625   1.838   2.255   2.967 -4.9582 -1.3120  1.2776
  520MOL0     H68626   2.934   1.964   3.053  0.5436 -0.5974  0.2384
  520MOL0     H68627   2.762   1.882   3.209  0.6405  1.6673  1.8279
  520MOL0     H68628   2.465   1.589   3.389  0.0318 -0.4524  0.3334
  520MOL0     H68629   2.315   1.561   3.546  1.4275  0.7968 -2.8114
  520MOL0     H68630   2.174   1.494   3.752 -1.7637  0.7295  0.0264
  520MOL0     H68631   2.195   1.667   3.752 -1.0022 -1.7225 -0.8098
  520MOL0     H68632   2.048   1.542   3.932  0.9815 -0.6658 -0.8116
  520MOL0     H68633   2.196   1.515   4.019  0.1230 -1.4636 -1.1099
  520MOL0     H68634   2.068   1.718   4.091  2.3305 -0.6670  1.5807
  520MOL0     H68635   2.079   1.779   3.920  0.7663 -0.2352 -1.0947
  520MOL0     H68636   2.311   1.788   3.919  0.8582  1.2991  0.4468
  520MOL0     H68637   2.230   1.902   4.017 -0.3614 -1.2051  1.2417
  520MOL0     H68638   2.410   1.688   4.337 -0.7464  1.6572  1.2249
  520MOL0     H68639   2.598   1.663   3.864 -1.9210  0.0235  0.2770
  520MOL0     H68640   2.764   1.702   3.679  0.5815 -2.0905 -0.3933
  521MOL0     O68641   7.203   2.007   3.365 -0.1719  0.4591 -0.1944
  521MOL0     C68642   7.208   1.965   3.476  0.8237  0.6839 -0.4165
  521MOL0     O68643   7.098   1.907   3.546  0.0124  0.2212 -0.1128
  521MOL0     C68644   6.977   1.913   3.479 -0.3676 -0.4383  0.6685
  521MOL0     C68645   6.960   1.833   3.367  0.0379  0.6051 -0.7614
  521MOL0     C68646   6.824   1.819   3.306 -0.2412  0.5499  0.1279
  521MOL0     C68647   6.716   1.896   3.352  0.4741  0.2270 -0.4859
  521MOL0     O68648   6.579   1.895   3.312 -0.9693  0.4767 -0.5545
  521MOL0     C68649   6.543   1.786   3.233 -0.6744  0.6753 -0.0569
  521MOL0     C68650   6.395   1.811   3.191 -0.6008 -0.5992 -0.4076
  521MOL0     C68651   6.303   1.830   3.310  0.0603  0.5151  0.1836
  521MOL0     C68652   6.153   1.829   3.268  0.5080  0.3661  0.4603
  521MOL0     C68653   6.058   1.876   3.369  0.2849 -1.6035  0.7182
  521MOL0     C68654   6.034   1.765   3.466  0.0254 -0.0370 -0.2255
  521MOL0     C68655   5.944   1.801   3.582 -0.2541 -0.1099  0.3924
  521MOL0     C68656   5.805   1.846   3.540  0.0255 -0.7671  0.7849
  521MOL0     N68657   5.719   1.742   3.485 -0.3407  0.6866  0.3139
  521MOL0     C68658   5.700   1.615   3.546  0.2570 -0.3873  0.7837
  521MOL0     C68659   5.602   1.565   3.457 -0.0290  0.3766 -0.2226
  521MOL0     C68660   5.547   1.424   3.455  0.4228 -0.0862  0.1793
  521MOL0     C68661   5.393   1.410   3.447 -0.3919  0.1426  0.2371
  521MOL0     C68662   5.348   1.266   3.428 -0.4981 -0.1591  0.6013
  521MOL0     C68663   5.195   1.241   3.419 -0.7693  0.2152  0.3493
  521MOL0     O68664   5.137   1.330   3.321  0.3667 -0.0475 -0.1042
  521MOL0     C68665   4.998   1.334   3.332  0.1475 -0.1593  0.7641
  521MOL0     C68666   4.938   1.322   3.210  0.6318 -0.5380 -0.2262
  521MOL0     C68667   4.805   1.304   3.189  0.3705  0.1577 -0.0910
  521MOL0     C68668   4.720   1.323   3.302 -0.2401 -0.4594 -0.0163
  521MOL0     C68669   4.572   1.301   3.289 -0.0017  0.2657 -0.4247
  521MOL0     O68670   4.500   1.330   3.414 -0.0595 -0.4101  0.0561
  521MOL0     C68671   4.368   1.308   3.412  0.2325  0.9060  0.1610
  521MOL0     C68672   4.278   1.410   3.392 -0.1877  0.5822  0.0861
  521MOL0     C68673   4.137   1.385   3.397 -0.4569  0.1471 -0.3188
  521MOL0     C68674   4.082   1.260   3.420 -0.2478 -0.5921  0.6260
  521MOL0     O68675   3.951   1.222   3.418 -0.0453 -0.0493  0.7341
  521MOL0     C68676   3.868   1.286   3.521  0.3971 -0.0289 -0.5553
  521MOL0     C68677   3.719   1.228   3.535 -0.5789 -0.1918  0.1705
  521MOL0     C68678   3.739   1.081   3.556  0.1751  1.2875  0.5236
  521MOL0     C68679   3.611   1.008   3.608 -0.0516  0.1229  0.1806
  521MOL0     C68680   3.513   1.013   3.489  0.0671 -0.4060 -0.9533
  521MOL0     C68681   3.367   1.010   3.551 -0.6431 -0.2405  0.5002
  521MOL0     C68682   3.251   1.025   3.460  0.2000  0.4359 -0.2635
  521MOL0     C68683   3.114   1.014   3.546  0.1386 -0.9559  0.0403
  521MOL0    Cl68684   2.965   1.023   3.460  0.4904  0.4232 -0.1415
  521MOL0     C68685   4.181   1.159   3.447  0.1339  0.6964 -0.0782
  521MOL0     C68686   4.320   1.182   3.449  0.4460  0.3646  0.6299
  521MOL0     O68687   4.527   1.255   3.184  0.7186 -0.6514 -0.0398
  521MOL0     C68688   4.779   1.354   3.428 -0.1277 -0.0438 -0.6399
  521MOL0     C68689   4.916   1.349   3.444 -0.2544  0.7750 -0.0884
  521MOL0     N68690   5.573   1.662   3.362  0.4110 -0.3354 -0.4024
  521MOL0     N68691   5.634   1.771   3.378  0.2005 -0.4097 -0.0122
  521MOL0     C68692   6.740   1.987   3.457 -0.6163 -0.1304 -0.6117
  521MOL0     C68693   6.869   1.991   3.519  0.1296 -0.2322  0.3700
  521MOL0     C68694   7.336   1.976   3.550 -0.0902  0.4568  0.1761
  521MOL0     C68695   7.444   2.044   3.497  0.2112 -0.1799 -0.3282
  521MOL0     C68696   7.563   2.074   3.568 -0.3232  0.3479  0.5417
  521MOL0     C68697   7.580   2.015   3.693  0.7127 -0.2905 -0.5094
  521MOL0     O68698   7.690   2.046   3.769 -0.3149  0.0846  0.0261
  521MOL0     C68699   7.785   2.141   3.715 -1.0624  0.6086  0.4426
  521MOL0     C68700   7.898   2.191   3.800  0.1106  0.0668 -0.3371
  521MOL0     C68701   7.987   2.293   3.735  0.4469 -0.6630 -0.5088
  521MOL0     C68702   8.097   2.346   3.831 -0.5551  0.2107  0.6922
  521MOL0     C68703   8.220   2.271   3.856 -0.3585 -0.1642 -0.3935
  521MOL0     C68704   8.327   2.222   3.876 -0.9854 -0.0933 -0.0424
  521MOL0     C68705   7.470   1.951   3.749 -0.2742 -0.5817 -0.9232
  521MOL0     C68706   7.355   1.927   3.679  0.6113  0.0423  0.7238
  521MOL0     H68707   7.030   1.759   3.326 -2.3843 -2.1833 -0.2005
  521MOL0     H68708   6.805   1.747   3.226  0.2001 -0.7477  1.1520
  521MOL0     H68709   6.547   1.697   3.296  3.1559  0.6822 -0.0258
  521MOL0     H68710   6.604   1.759   3.147 -0.6324 -1.0332  0.4769
  521MOL0     H68711   6.357   1.733   3.124  3.3517 -2.0268 -1.2547
  521MOL0     H68712   6.389   1.904   3.135 -2.1853 -1.1436 -1.1995
  521MOL0     H68713   6.316   1.930   3.353  2.1526  0.8419 -1.0671
  521MOL0     H68714   6.324   1.755   3.387 -4.9900 -0.2121  1.1643
  521MOL0     H68715   6.158   1.904   3.189 -0.5109 -1.6660 -1.6258
  521MOL0     H68716   6.122   1.740   3.213  1.8882  0.9478 -1.3740
  521MOL0     H68717   5.966   1.903   3.318  0.2464  0.3711  1.7444
  521MOL0     H68718   6.094   1.966   3.420  1.0636 -2.7180  2.2066
  521MOL0     H68719   6.129   1.731   3.508  0.5658  0.4858 -0.9961
  521MOL0     H68720   5.976   1.688   3.413 -0.3911  0.2107 -0.1319
  521MOL0     H68721   5.927   1.707   3.635  0.1609 -1.2587 -1.4457
  521MOL0     H68722   5.988   1.881   3.643 -1.5173 -0.0215  1.2312
  521MOL0     H68723   5.818   1.927   3.467 -1.2037 -0.8220  0.4939
  521MOL0     H68724   5.750   1.888   3.625  2.0721  3.2753  0.3928
  521MOL0     H68725   5.744   1.564   3.631 -0.6222  0.6507  1.8926
  521MOL0     H68726   5.569   1.368   3.547 -4.2156  0.8710  2.1572
  521MOL0     H68727   5.586   1.385   3.361  1.3284 -0.4036  0.6795
  521MOL0     H68728   5.375   1.464   3.353  1.0808 -0.2069 -0.2690
  521MOL0     H68729   5.343   1.463   3.528 -0.0055  1.6104 -0.4502
  521MOL0     H68730   5.392   1.225   3.336  1.2696  1.2696  0.7474
  521MOL0     H68731   5.394   1.213   3.512  0.5068  0.5399  0.5097
  521MOL0     H68732   5.158   1.241   3.522 -0.4489  0.4107  0.4649
  521MOL0     H68733   5.181   1.137   3.386  2.0378 -0.9545  2.4580
  521MOL0     H68734   4.996   1.307   3.119  2.0275 -0.4173  0.6127
  521MOL0     H68735   4.754   1.277   3.097 -0.8439  0.6727  0.4021
  521MOL0     H68736   4.308   1.513   3.376 -0.4274  0.2690 -2.8609
  521MOL0     H68737   4.069   1.462   3.362 -1.0179 -0.4568 -0.5770
  521MOL0     H68738   3.854   1.393   3.510  4.4658  0.9046  1.4148
  521MOL0     H68739   3.921   1.260   3.614  0.1326 -3.1194 -1.1422
  521MOL0     H68740   3.663   1.254   3.445  2.6324  2.7739 -1.1826
  521MOL0     H68741   3.671   1.280   3.619  0.2868 -0.2802  0.7250
  521MOL0     H68742   3.807   1.062   3.640  0.6448 -1.3545 -0.3796
  521MOL0     H68743   3.785   1.040   3.466  2.9232  1.1436  1.8944
  521MOL0     H68744   3.625   0.904   3.638 -1.3814 -0.1102  0.0599
  521MOL0     H68745   3.563   1.061   3.690 -1.9836 -1.9816  0.5035
  521MOL0     H68746   3.520   0.925   3.424  0.4733  0.8692 -2.7262
  521MOL0     H68747   3.534   1.102   3.429  3.3208  0.5067  1.2714
  521MOL0     H68748   3.358   1.094   3.620  1.3076  1.8447 -1.6118
  521MOL0     H68749   3.354   0.916   3.606 -1.3577 -0.4049  0.0662
  521MOL0     H68750   3.255   1.128   3.421  2.6694  0.3496 -0.3858
  521MOL0     H68751   3.267   0.951   3.381  5.3767 -0.1145  0.9688
  521MOL0     H68752   3.116   1.090   3.623 -0.6284 -0.2947 -0.5703
  521MOL0     H68753   3.104   0.918   3.598 -0.8390 -0.2587  1.1871
  521MOL0     H68754   4.142   1.063   3.478  1.4889 -0.0019 -0.4789
  521MOL0     H68755   4.380   1.101   3.489 -0.2360 -0.6959 -0.4295
  521MOL0     H68756   4.724   1.372   3.519  0.4619 -1.7133  0.0962
  521MOL0     H68757   4.954   1.358   3.545  1.0176 -2.2605 -0.1691
  521MOL0     H68758   6.661   2.054   3.489 -0.1314 -0.1976  0.7973
  521MOL0     H68759   6.890   2.052   3.606 -0.8171 -1.6172  1.6307
  521MOL0     H68760   7.440   2.092   3.399  3.2556  0.1215 -0.4054
  521MOL0     H68761   7.628   2.141   3.512 -0.4957  0.4422  0.4541
  521MOL0     H68762   7.732   2.230   3.679 -0.1867  0.2698 -1.8380
  521MOL0     H68763   7.830   2.094   3.628 -0.5073  3.0249 -0.6663
  521MOL0     H68764   7.855   2.235   3.890  0.2408 -1.7181  0.6379
  521MOL0     H68765   7.964   2.113   3.839  0.3503 -0.1617 -1.1838
  521MOL0     H68766   7.918   2.371   3.700 -0.7992  0.5614  3.9647
  521MOL0     H68767   8.025   2.244   3.645 -2.8599 -0.5838 -2.0909
  521MOL0     H68768   8.125   2.446   3.798  0.0285 -0.8191 -2.2060
  521MOL0     H68769   8.045   2.347   3.928 -0.5284  1.6430  0.7065
  521MOL0     H68770   8.417   2.164   3.878 -1.4046 -0.9508 -2.7085
  521MOL0     H68771   7.483   1.907   3.847 -1.4842 -1.9250 -1.3410
  521MOL0     H68772   7.276   1.874   3.732 -0.9289  0.2330 -1.2756
  522MOL0     O68773   3.771   9.983  10.452 -0.4490 -0.3341 -0.4671
  522MOL0     C68774   3.869   9.997  10.526  0.1500  0.1845  0.1084
  522MOL0     O68775   3.887   9.941  10.656  0.0980 -0.1212 -0.2697
  522MOL0     C68776   3.779   9.883  10.726 -0.1198 -0.2250 -0.0879
  522MOL0     C68777   3.640   9.919  10.702 -0.3962 -0.3635  0.3465
  522MOL0     C68778   3.540   9.858  10.780 -0.2176 -0.6939  0.1216
  522MOL0     C68779   3.569   9.769  10.879 -0.2666  0.0525 -0.1919
  522MOL0     O68780   3.476   9.714  10.967 -0.3094  0.1919 -0.3473
  522MOL0     C68781   3.373   9.800  11.006  0.4444  0.4271  0.2169
  522MOL0     C68782   3.292   9.739  11.117  0.0433 -0.5241  0.5697
  522MOL0     C68783   3.182   9.842  11.159 -0.9849 -0.3252 -0.7556
  522MOL0     C68784   3.085   9.789  11.270  0.1559 -0.1470 -0.5839
  522MOL0     C68785   3.003   9.667  11.235 -0.0238  0.5584 -0.0182
  522MOL0     C68786   2.925   9.612  11.352  0.2678 -0.4459 -0.8282
  522MOL0     C68787   2.819   9.516  11.295 -0.2489  0.2396 -0.0675
  522MOL0     C68788   2.782   9.386  11.377  0.0187  0.0460  0.3090
  522MOL0     N68789   2.675   9.406  11.468 -0.3716 -0.1513  0.0274
  522MOL0     C68790   2.686   9.418  11.605 -0.4559 -0.4562  0.5864
  522MOL0     C68791   2.560   9.403  11.646  0.0491 -0.1888 -0.2325
  522MOL0     C68792   2.528   9.414  11.790  0.7644  0.0026 -0.3236
  522MOL0     C68793   2.373   9.396  11.811  0.0198  0.1404  0.5546
  522MOL0     C68794   2.346   9.407  11.959 -0.8997  0.3082 -0.1039
  522MOL0     C68795   2.222   9.323  11.993  0.5734 -0.8776 -0.2899
  522MOL0     O68796   2.099   9.371  11.940  0.2296  0.2703  0.2545
  522MOL0     C68797   1.982   9.346  12.011  0.2899  0.7052  0.0039
  522MOL0     C68798   1.871   9.388  11.941  0.4488 -0.5136  0.2590
  522MOL0     C68799   1.744   9.355  11.988 -0.3516 -0.5662 -0.0886
  522MOL0     C68800   1.725   9.278  12.104 -0.7293 -1.0579  0.6334
  522MOL0     C68801   1.596   9.248  12.157 -0.2095 -0.9315  0.2104
  522MOL0     O68802   1.495   9.282  12.077 -0.2446 -0.0589 -0.1132
  522MOL0     C68803   1.363   9.273  12.112  0.1755  0.4723  0.0150
  522MOL0     C68804   1.312   9.314  12.238 -0.0608 -1.2814  0.2148
  522MOL0     C68805   1.169   9.330  12.257 -0.1662 -0.6168  0.2871
  522MOL0     C68806   1.079   9.300  12.156  0.1861 -0.0868 -0.2232
  522MOL0     O68807   0.946   9.324  12.163 -0.1386  0.4614 -0.6810
  522MOL0     C68808   0.904   9.384  12.280  0.0194  0.0977  0.2011
  522MOL0     C68809   0.752   9.401  12.275 -0.1471  0.5291  0.7994
  522MOL0     C68810   0.678   9.261  12.277  0.0343 -0.5480 -0.0946
  522MOL0     C68811   0.525   9.296  12.264 -0.4605  0.1123 -0.2590
  522MOL0     C68812   0.451   9.168  12.322 -0.5789 -0.1143 -0.2759
  522MOL0     C68813   0.305   9.203  12.314  0.2657  0.5268  0.1125
  522MOL0     C68814   0.211   9.079  12.299 -0.6735  0.4516  0.0580
  522MOL0     C68815   0.076   9.117  12.357 -0.8309 -0.0570  0.0228
  522MOL0    Cl68816  -0.025   8.967  12.359  0.4824  0.1021 -0.8226
  522MOL0     C68817   1.133   9.263  12.029 -0.8226  0.1425 -1.0679
  522MOL0     C68818   1.271   9.255  12.010  0.5800 -0.2572  0.6033
  522MOL0     O68819   1.593   9.214  12.276  0.0935  0.2231 -1.1661
  522MOL0     C68820   1.838   9.236  12.175  0.6807  0.0275 -0.1346
  522MOL0     C68821   1.962   9.273  12.132 -0.3101  0.4385  0.0963
  522MOL0     N68822   2.471   9.401  11.534  0.4924  0.1438 -0.5251
  522MOL0     N68823   2.545   9.400  11.432  0.1111 -0.5506  0.2384
  522MOL0     C68824   3.701   9.723  10.895  1.2585 -0.4887  0.4662
  522MOL0     C68825   3.801   9.780  10.820  0.0853 -0.4382 -0.5906
  522MOL0     C68826   3.996  10.053  10.480 -0.2806 -0.2182  0.1383
  522MOL0     C68827   4.114  10.025  10.548 -0.0438 -0.4158  0.3987
  522MOL0     C68828   4.238  10.076  10.514  1.0588  0.4834 -0.8002
  522MOL0     C68829   4.239  10.177  10.419  0.1718  0.0402 -0.3312
  522MOL0     O68830   4.354  10.244  10.381 -0.7314  0.1438  0.1660
  522MOL0     C68831   4.474  10.206  10.455 -0.2279 -0.0734 -0.6048
  522MOL0     C68832   4.591  10.286  10.385  0.7206  0.3813 -0.0992
  522MOL0     C68833   4.724  10.228  10.429  0.5540 -0.3154  0.0180
  522MOL0     C68834   4.833  10.230  10.323 -0.5884  0.2170  0.3279
  522MOL0     C68835   4.919  10.121  10.354 -0.0744  0.6562  0.4897
  522MOL0     C68836   4.993  10.023  10.371 -0.0145 -0.6119 -0.2389
  522MOL0     C68837   4.120  10.214  10.350 -0.0105 -0.2704 -0.0546
  522MOL0     C68838   4.003  10.149  10.381  0.4724  0.0731  0.5353
  522MOL0     H68839   3.619  10.002  10.635  0.8177 -2.4359 -2.8361
  522MOL0     H68840   3.440   9.893  10.758  0.5616  0.0132 -2.7347
  522MOL0     H68841   3.304   9.819  10.924  0.5579 -0.1600 -0.0142
  522MOL0     H68842   3.406   9.898  11.044  0.9058  1.0106 -1.5704
  522MOL0     H68843   3.353   9.711  11.203 -0.5414 -0.9596  0.8576
  522MOL0     H68844   3.243   9.650  11.075 -0.8355 -0.3923  1.2724
  522MOL0     H68845   3.124   9.864  11.069  0.2977  1.7356 -1.1612
  522MOL0     H68846   3.228   9.932  11.201 -3.9770  1.6905 -1.5091
  522MOL0     H68847   3.140   9.767  11.363 -1.4943  0.0714  0.4831
  522MOL0     H68848   3.009   9.864  11.291  0.6426 -0.3383  2.2887
  522MOL0     H68849   3.068   9.585  11.205 -3.4023 -1.4782 -2.4318
  522MOL0     H68850   2.946   9.682  11.143  2.6919 -0.0591 -1.9126
  522MOL0     H68851   2.872   9.695  11.399  2.7960  1.8087 -1.7035
  522MOL0     H68852   2.987   9.578  11.435 -0.7543 -0.1116  0.1082
  522MOL0     H68853   2.728   9.573  11.272  0.1993  1.0295  0.1038
  522MOL0     H68854   2.854   9.471  11.202 -1.7034 -1.6998  0.2498
  522MOL0     H68855   2.872   9.348  11.426  0.0926  0.1288  0.2384
  522MOL0     H68856   2.749   9.304  11.312 -0.8880  0.4904  0.1855
  522MOL0     H68857   2.774   9.423  11.669 -0.8539 -2.5707  1.4010
  522MOL0     H68858   2.562   9.515  11.812  0.1656  1.0832 -3.7937
  522MOL0     H68859   2.596   9.352  11.849  0.5301  2.4694  2.8386
  522MOL0     H68860   2.340   9.298  11.775 -1.6544  1.4936 -1.8432
  522MOL0     H68861   2.311   9.468  11.758 -0.0952 -0.3489  0.0206
  522MOL0     H68862   2.418   9.365  12.029 -2.2017 -0.3059  0.9184
  522MOL0     H68863   2.332   9.510  11.992  1.0107 -0.3558  3.1616
  522MOL0     H68864   2.215   9.317  12.102  0.2209 -0.7833 -0.3064
  522MOL0     H68865   2.235   9.217  11.968  0.2064 -1.6915  2.5874
  522MOL0     H68866   1.883   9.444  11.849 -0.0891 -1.2161 -0.2436
  522MOL0     H68867   1.669   9.390  11.918  0.4485 -1.0436 -1.2279
  522MOL0     H68868   1.372   9.346  12.323 -3.6085  1.6842  1.8974
  522MOL0     H68869   1.146   9.374  12.354 -0.0575  1.7841 -0.7081
  522MOL0     H68870   0.952   9.481  12.290 -0.2383  0.6158 -2.6183
  522MOL0     H68871   0.917   9.323  12.370  1.2309  0.9452  0.6203
  522MOL0     H68872   0.719   9.455  12.185 -1.0965  0.7586  1.2648
  522MOL0     H68873   0.711   9.453  12.362 -0.6708 -0.4354  1.1356
  522MOL0     H68874   0.689   9.205  12.370 -0.3812 -0.0559  0.2598
  522MOL0     H68875   0.717   9.190  12.203  0.0039 -0.6164 -0.0454
  522MOL0     H68876   0.507   9.383  12.328  4.9895  1.9653 -0.7551
  522MOL0     H68877   0.498   9.330  12.164  0.6909 -0.7075 -0.8719
  522MOL0     H68878   0.478   9.161  12.427 -2.2599  3.6686  0.5569
  522MOL0     H68879   0.471   9.072  12.273  0.3052  0.8107 -1.8059
  522MOL0     H68880   0.277   9.267  12.230 -2.3849  0.4756  0.8660
  522MOL0     H68881   0.274   9.252  12.407 -2.6016 -0.9655  0.0658
  522MOL0     H68882   0.209   9.040  12.197  2.6162 -0.2448  0.1248
  522MOL0     H68883   0.250   9.005  12.371  1.5665  1.6801  0.2135
  522MOL0     H68884   0.022   9.190  12.296  1.6111  2.4137  0.6259
  522MOL0     H68885   0.091   9.161  12.456  0.1798 -2.3017  0.9589
  522MOL0     H68886   1.069   9.257  11.942 -1.1635  0.2380 -0.8275
  522MOL0     H68887   1.304   9.232  11.909  0.6441  2.1641  0.0046
  522MOL0     H68888   1.827   9.169  12.260  0.2191 -0.9361 -0.9394
  522MOL0     H68889   2.042   9.227  12.188  0.3765 -0.5764 -1.6623
  522MOL0     H68890   3.731   9.654  10.973  1.9954 -1.3551 -0.5582
  522MOL0     H68891   3.900   9.747  10.847 -0.2567 -0.0469  1.2588
  522MOL0     H68892   4.114   9.955  10.631  0.8478 -3.2122 -1.8271
  522MOL0     H68893   4.320  10.046  10.578  0.7921  3.1065  0.9231
  522MOL0     H68894   4.487  10.098  10.460 -0.8517 -0.1033  0.8933
  522MOL0     H68895   4.473  10.236  10.560  2.7927 -2.2619  0.1633
  522MOL0     H68896   4.581  10.273  10.277  0.4876 -2.8711  0.2226
  522MOL0     H68897   4.585  10.391  10.414 -0.6551 -0.1686  1.8366
  522MOL0     H68898   4.694  10.129  10.463 -4.5967  1.5856  2.0666
  522MOL0     H68899   4.765  10.278  10.517  0.8234 -0.8384  0.1910
  522MOL0     H68900   4.798  10.235  10.219 -0.4765  0.1679  0.2873
  522MOL0     H68901   4.896  10.319  10.335 -0.4154  0.3046 -1.0845
  522MOL0     H68902   5.056   9.938  10.386 -0.9736 -0.9744  2.1968
  522MOL0     H68903   4.124  10.303  10.288 -0.5878 -1.6865 -2.2154
  522MOL0     H68904   3.919  10.183  10.322  2.3735 -1.1793 -3.1983
  523MOL0     O68905   6.258   9.001   6.618  0.0927  0.4179 -0.0644
  523MOL0     C68906   6.265   9.092   6.543 -0.6622  0.5246 -0.5043
  523MOL0     O68907   6.176   9.118   6.437 -0.9820  0.8313 -0.2286
  523MOL0     C68908   6.060   9.042   6.451  0.1705  0.7737  0.2248
  523MOL0     C68909   6.034   8.909   6.411  0.2349  0.6978  0.6025
  523MOL0     C68910   5.906   8.857   6.432  0.1273  0.0282 -0.3977
  523MOL0     C68911   5.800   8.936   6.483 -0.3859 -1.1104  0.3857
  523MOL0     O68912   5.671   8.896   6.480  0.0366  0.4429 -0.1790
  523MOL0     C68913   5.611   8.797   6.399  0.0711  0.0561  0.5178
  523MOL0     C68914   5.459   8.834   6.399  0.1870 -0.5033 -0.5562
  523MOL0     C68915   5.366   8.727   6.454  0.9433 -0.0220  0.3839
  523MOL0     C68916   5.213   8.772   6.453 -0.8649  0.2820 -0.3675
  523MOL0     C68917   5.123   8.662   6.486  0.0112  0.1239 -0.6552
  523MOL0     C68918   4.982   8.715   6.474  0.3415 -0.1643  0.0651
  523MOL0     C68919   4.869   8.610   6.481 -0.1718  0.6844 -0.4688
  523MOL0     C68920   4.736   8.674   6.502 -0.2671 -0.1444  0.5094
  523MOL0     N68921   4.624   8.576   6.490  0.2355 -0.3141 -0.2189
  523MOL0     C68922   4.493   8.612   6.453 -0.0732  0.0566  1.0347
  523MOL0     C68923   4.414   8.509   6.490 -0.8295 -0.4742  0.0958
  523MOL0     C68924   4.264   8.506   6.479  0.7661  0.0054 -0.3953
  523MOL0     C68925   4.185   8.377   6.513 -0.5093 -0.2246  0.3027
  523MOL0     C68926   4.038   8.413   6.530 -0.1491 -0.3103  0.9037
  523MOL0     C68927   3.934   8.296   6.552 -0.0227  0.3892  0.4069
  523MOL0     O68928   3.912   8.294   6.695  0.2254  0.4244 -0.0085
  523MOL0     C68929   3.812   8.207   6.737 -0.5627  0.0385 -0.8722
  523MOL0     C68930   3.735   8.121   6.657 -0.2958  0.0075  1.1389
  523MOL0     C68931   3.638   8.039   6.725  0.5568  0.9601  1.1454
  523MOL0     C68932   3.609   8.047   6.859  0.3964  0.2853  0.2945
  523MOL0     C68933   3.493   7.969   6.923  0.2004 -0.1657 -0.0092
  523MOL0     O68934   3.467   7.985   7.056 -0.2297 -0.8087 -0.0867
  523MOL0     C68935   3.358   7.947   7.121 -0.6200  0.5061 -1.2378
  523MOL0     C68936   3.361   7.963   7.264  0.2225  0.2880  0.2543
  523MOL0     C68937   3.251   7.937   7.341  0.2711  0.6431 -0.0926
  523MOL0     C68938   3.132   7.896   7.280 -0.2378  0.2532  0.1577
  523MOL0     O68939   3.024   7.877   7.364  0.7107 -0.0229 -0.0884
  523MOL0     C68940   2.892   7.840   7.311  0.2292 -0.2017 -0.1240
  523MOL0     C68941   2.831   7.958   7.244 -0.5013 -0.8034  0.8497
  523MOL0     C68942   2.718   7.920   7.148 -0.1334 -0.2891 -0.0466
  523MOL0     C68943   2.624   8.030   7.098 -0.0605  0.3879 -0.1997
  523MOL0     C68944   2.545   7.987   6.976  0.2503  0.2859  0.0861
  523MOL0     C68945   2.427   8.084   6.953  0.6659  0.1529  0.1335
  523MOL0     C68946   2.327   8.024   6.844  0.5004 -0.0205 -0.3960
  523MOL0     C68947   2.231   8.139   6.802  0.5210 -0.9552  0.0039
  523MOL0    Cl68948   2.325   8.228   6.689  0.2066  0.0167 -0.4743
  523MOL0     C68949   3.125   7.866   7.150 -1.3070  0.3872  0.8023
  523MOL0     C68950   3.236   7.895   7.068  0.0063 -0.9950  0.4076
  523MOL0     O68951   3.449   7.880   6.856  0.8506 -0.1727  0.4556
  523MOL0     C68952   3.688   8.128   6.934 -0.5112 -0.1653 -0.1918
  523MOL0     C68953   3.786   8.207   6.878 -0.4243  0.4556  0.1707
  523MOL0     N68954   4.497   8.405   6.527 -0.2542  0.0719 -0.2197
  523MOL0     N68955   4.625   8.449   6.533  0.7047  1.0518 -0.1765
  523MOL0     C68956   5.821   9.070   6.524 -0.2215  0.3079  0.0566
  523MOL0     C68957   5.947   9.116   6.504 -0.2781 -0.6825 -0.5100
  523MOL0     C68958   6.391   9.162   6.538 -0.8551 -0.0632 -0.5391
  523MOL0     C68959   6.417   9.273   6.460 -0.1991  0.4766 -0.0707
  523MOL0     C68960   6.540   9.346   6.466 -0.5364  0.0924 -0.5161
  523MOL0     C68961   6.636   9.313   6.565 -0.5956 -0.5849 -0.1050
  523MOL0     O68962   6.751   9.386   6.595 -0.2599 -0.1073  0.7394
  523MOL0     C68963   6.829   9.446   6.485  0.0592  0.0713  0.2297
  523MOL0     C68964   6.867   9.586   6.523 -0.2898 -0.1810  0.8304
  523MOL0     C68965   6.967   9.599   6.640  0.5913  1.0803 -0.0199
  523MOL0     C68966   7.110   9.559   6.618 -0.8256 -0.3930 -0.6597
  523MOL0     C68967   7.186   9.638   6.511 -0.3574 -0.6691  0.8263
  523MOL0     C68968   7.241   9.680   6.407 -1.1867 -0.5576  0.7558
  523MOL0     C68969   6.607   9.205   6.649 -0.2166 -0.2768  0.0163
  523MOL0     C68970   6.493   9.130   6.631  0.8131  0.2409  0.5059
  523MOL0     H68971   6.113   8.860   6.355 -0.4013  1.7146 -1.2556
  523MOL0     H68972   5.891   8.757   6.393  2.2093 -1.0204  1.3250
  523MOL0     H68973   5.631   8.697   6.439 -0.5579  0.4539  1.8690
  523MOL0     H68974   5.644   8.814   6.296 -1.5632 -0.4581 -0.1123
  523MOL0     H68975   5.434   8.860   6.296  3.3047  2.4025 -0.7719
  523MOL0     H68976   5.440   8.928   6.452  0.9196 -0.5109 -0.2652
  523MOL0     H68977   5.402   8.695   6.552  2.2638  1.3901  0.3960
  523MOL0     H68978   5.367   8.645   6.381  0.0126  0.0457  0.2773
  523MOL0     H68979   5.206   8.851   6.529 -0.6186  0.3232 -0.3869
  523MOL0     H68980   5.198   8.816   6.354  2.0794  1.6159 -0.3312
  523MOL0     H68981   5.124   8.638   6.593 -1.1159  2.3257 -0.0921
  523MOL0     H68982   5.124   8.585   6.408 -1.7768  0.5807 -1.1851
  523MOL0     H68983   4.967   8.772   6.382 -0.2342 -1.2875 -0.5448
  523MOL0     H68984   4.982   8.798   6.546 -2.0926 -1.0169  1.1374
  523MOL0     H68985   4.858   8.568   6.381 -3.6027  2.3873 -0.9366
  523MOL0     H68986   4.888   8.529   6.553 -1.6892 -1.4159 -2.2952
  523MOL0     H68987   4.713   8.749   6.425  0.6118  0.9109  1.2546
  523MOL0     H68988   4.722   8.722   6.599 -1.5966 -2.6792  1.6604
  523MOL0     H68989   4.458   8.705   6.408  1.2597 -0.3377 -0.9360
  523MOL0     H68990   4.238   8.534   6.377  0.3276  1.9284  0.2023
  523MOL0     H68991   4.226   8.586   6.543 -1.1450 -0.4406 -0.9052
  523MOL0     H68992   4.213   8.325   6.606  3.4778 -1.5347 -1.3812
  523MOL0     H68993   4.212   8.306   6.434  1.8074  2.4353 -1.5058
  523MOL0     H68994   4.020   8.491   6.605  2.3919  1.2701 -0.0165
  523MOL0     H68995   4.013   8.446   6.429  0.0760 -2.2760  0.1541
  523MOL0     H68996   3.970   8.196   6.528  2.3213  1.7988 -2.7492
  523MOL0     H68997   3.843   8.324   6.498  0.0151 -1.0846 -0.4745
  523MOL0     H68998   3.757   8.113   6.551  2.7310 -0.2637  1.7007
  523MOL0     H68999   3.576   7.971   6.668 -0.0398  1.5405  1.0818
  523MOL0     H69000   3.453   7.992   7.312 -0.1048  2.0106 -0.1003
  523MOL0     H69001   3.257   7.945   7.450 -1.0700 -0.2461  0.0606
  523MOL0     H69002   2.827   7.808   7.393  1.3865  1.1691  1.3932
  523MOL0     H69003   2.912   7.758   7.241  2.6339  1.4560 -1.5106
  523MOL0     H69004   2.896   8.020   7.183 -1.4698 -0.0182  0.5822
  523MOL0     H69005   2.787   8.016   7.325  2.3171 -1.0277  2.6654
  523MOL0     H69006   2.658   7.841   7.195 -1.5116  0.1215 -1.0792
  523MOL0     H69007   2.771   7.881   7.061  0.2498  0.0201  0.0450
  523MOL0     H69008   2.555   8.050   7.181 -0.7353 -0.4685 -0.5348
  523MOL0     H69009   2.680   8.117   7.064  1.1003 -0.1839  0.2276
  523MOL0     H69010   2.500   7.891   7.000 -3.2721  1.3998 -1.4208
  523MOL0     H69011   2.613   7.975   6.892  1.5596 -4.9224  1.5526
  523MOL0     H69012   2.476   8.174   6.913  0.1307  0.9719  1.2582
  523MOL0     H69013   2.375   8.102   7.047 -0.4812 -0.1730 -0.4197
  523MOL0     H69014   2.380   7.981   6.759 -0.1265  0.6592 -1.1464
  523MOL0     H69015   2.263   7.951   6.895  0.8828  0.2536  0.5071
  523MOL0     H69016   2.208   8.199   6.891 -0.8637 -1.6220  0.1258
  523MOL0     H69017   2.145   8.093   6.753  0.4601 -0.9989  0.1490
  523MOL0     H69018   3.045   7.818   7.094  1.4320 -2.9385 -0.6323
  523MOL0     H69019   3.228   7.867   6.964  1.1693  1.5235 -0.4497
  523MOL0     H69020   3.672   8.144   7.040  0.7300 -0.3979  0.0488
  523MOL0     H69021   3.860   8.263   6.934 -0.7086  0.4938  0.5122
  523MOL0     H69022   5.749   9.138   6.568 -0.7924  1.7950 -2.9071
  523MOL0     H69023   5.978   9.212   6.546  2.2911 -2.3514  1.7457
  523MOL0     H69024   6.350   9.317   6.387  2.7842  4.6977 -0.6931
  523MOL0     H69025   6.555   9.424   6.392 -2.7475  0.5759 -0.5144
  523MOL0     H69026   6.778   9.454   6.388 -0.6984  1.4567  0.7185
  523MOL0     H69027   6.910   9.378   6.457 -0.0457 -0.6927  1.6998
  523MOL0     H69028   6.892   9.653   6.441 -6.1239  2.9728  1.0786
  523MOL0     H69029   6.773   9.638   6.544 -0.6453 -0.6137  0.3451
  523MOL0     H69030   6.918   9.546   6.723  1.2262 -1.3610 -1.1055
  523MOL0     H69031   6.970   9.697   6.688  1.8167 -0.2503  2.8784
  523MOL0     H69032   7.157   9.579   6.715 -4.0236  3.2255  0.3757
  523MOL0     H69033   7.113   9.451   6.603 -0.6053 -0.6081  0.7354
  523MOL0     H69034   7.290   9.706   6.316 -2.2797  1.2346  0.6247
  523MOL0     H69035   6.666   9.185   6.738  0.4072 -0.0984 -0.3459
  523MOL0     H69036   6.467   9.050   6.700 -1.5508  0.5895  0.1000
  524MOL0     O69037   4.558   5.744   4.872 -0.0831  0.1253  0.3589
  524MOL0     C69038   4.633   5.756   4.968  0.7095  1.1172 -0.0579
  524MOL0     O69039   4.604   5.822   5.089 -0.4651  0.5482 -0.1951
  524MOL0     C69040   4.475   5.862   5.111 -0.3238 -0.9535 -0.1083
  524MOL0     C69041   4.363   5.773   5.119 -0.0988 -0.0679 -0.0131
  524MOL0     C69042   4.236   5.834   5.124  0.3189 -0.6919  0.0088
  524MOL0     C69043   4.216   5.973   5.128 -0.0304 -0.0862  0.0513
  524MOL0     O69044   4.089   6.023   5.121  0.4472 -0.3007  0.3560
  524MOL0     C69045   4.064   6.158   5.119  0.0113  0.4360 -0.8606
  524MOL0     C69046   3.915   6.187   5.096  0.6394  0.3868 -0.1915
  524MOL0     C69047   3.885   6.317   5.025  0.0908  0.0740  0.5825
  524MOL0     C69048   3.738   6.357   5.058 -0.4684 -0.1572 -0.2479
  524MOL0     C69049   3.685   6.460   4.956  0.4874 -0.4716 -0.2510
  524MOL0     C69050   3.753   6.596   4.945  0.4751 -0.0877 -0.2656
  524MOL0     C69051   3.769   6.665   5.082 -0.3040 -0.3158  1.0921
  524MOL0     C69052   3.785   6.809   5.063 -0.8612 -0.0830 -0.0968
  524MOL0     N69053   3.820   6.874   5.191 -0.7115 -0.0145 -0.3508
  524MOL0     C69054   3.938   6.853   5.257 -0.3111 -0.0901 -0.1829
  524MOL0     C69055   3.934   6.921   5.377 -0.2698 -0.4694  0.2581
  524MOL0     C69056   4.037   6.918   5.481 -0.1776  0.2445  0.7404
  524MOL0     C69057   4.148   7.036   5.467  0.2276 -0.4891  0.6446
  524MOL0     C69058   4.199   7.063   5.320  0.3816 -0.2511 -0.4318
  524MOL0     C69059   4.320   7.154   5.308 -0.1205  0.1115 -0.7281
  524MOL0     O69060   4.396   7.126   5.186  0.1030  0.1873 -0.1192
  524MOL0     C69061   4.526   7.161   5.173 -0.5303 -0.2506  0.0216
  524MOL0     C69062   4.601   7.076   5.092  0.7162  0.5575 -0.0821
  524MOL0     C69063   4.740   7.095   5.074  1.0485 -0.3171 -1.1688
  524MOL0     C69064   4.802   7.207   5.131  0.4526 -0.6737 -0.2596
  524MOL0     C69065   4.940   7.244   5.112  0.1829  0.4035  0.0499
  524MOL0     O69066   5.011   7.321   5.202 -0.2109  0.0758 -0.1544
  524MOL0     C69067   5.146   7.317   5.196 -0.1476 -1.4099 -0.2084
  524MOL0     C69068   5.211   7.194   5.206 -0.2596 -0.8899 -0.0315
  524MOL0     C69069   5.350   7.190   5.210 -0.5807 -0.8477 -0.1911
  524MOL0     C69070   5.425   7.306   5.222 -0.4604  0.0026  0.1431
  524MOL0     O69071   5.557   7.282   5.211  0.5108  0.4450 -0.6596
  524MOL0     C69072   5.640   7.379   5.272  0.2067  0.3119  0.4325
  524MOL0     C69073   5.785   7.331   5.242  0.1393 -0.0050 -0.2718
  524MOL0     C69074   5.881   7.410   5.326 -0.2401 -0.4133 -0.2713
  524MOL0     C69075   6.027   7.380   5.288 -0.2270 -0.0674  0.2112
  524MOL0     C69076   6.118   7.449   5.388 -1.1937 -0.0110 -0.1833
  524MOL0     C69077   6.166   7.593   5.345  0.4482 -1.2911 -0.2472
  524MOL0     C69078   6.268   7.669   5.437 -0.4640 -0.1435 -0.2787
  524MOL0     C69079   6.354   7.774   5.371  0.3680 -0.9953  0.7400
  524MOL0    Cl69080   6.464   7.812   5.500  0.0841 -0.4555 -0.3482
  524MOL0     C69081   5.361   7.442   5.219  0.5158 -0.6023 -0.9890
  524MOL0     C69082   5.216   7.444   5.201 -0.3100 -0.4308 -0.1527
  524MOL0     O69083   4.996   7.180   5.021  0.7828 -0.1742 -0.1649
  524MOL0     C69084   4.722   7.296   5.212 -0.2405  1.0995  1.0960
  524MOL0     C69085   4.588   7.277   5.220 -0.4578 -0.2745 -0.8690
  524MOL0     N69086   3.805   6.976   5.387  0.9776  0.5291 -0.1165
  524MOL0     N69087   3.738   6.950   5.272 -0.3573  0.3461 -0.0043
  524MOL0     C69088   4.327   6.054   5.109 -0.0331  0.7231 -0.1138
  524MOL0     C69089   4.454   6.001   5.104  0.9152 -0.8177 -0.1124
  524MOL0     C69090   4.773   5.716   4.948 -0.5133  0.5475  0.0854
  524MOL0     C69091   4.813   5.673   4.816  0.0285 -0.2647 -0.9188
  524MOL0     C69092   4.948   5.646   4.789 -0.1863 -0.2842 -0.5682
  524MOL0     C69093   5.048   5.659   4.888  0.1420 -0.0031 -0.0091
  524MOL0     O69094   5.182   5.627   4.873  0.1890  0.4447 -0.1590
  524MOL0     C69095   5.230   5.577   4.746  0.8914  0.4237 -0.0840
  524MOL0     C69096   5.379   5.585   4.749  0.0300 -1.1168  0.4659
  524MOL0     C69097   5.428   5.729   4.774  0.3270 -0.0331  0.1151
  524MOL0     C69098   5.576   5.732   4.761 -0.8586 -0.8465 -0.0201
  524MOL0     C69099   5.627   5.867   4.801  0.9198  0.4994 -0.9730
  524MOL0     C69100   5.647   5.989   4.809  0.0585  0.4637  0.4622
  524MOL0     C69101   5.008   5.703   5.006  0.7646 -0.1080 -0.9824
  524MOL0     C69102   4.878   5.730   5.042  0.2068  1.1066  0.3152
  524MOL0     H69103   4.378   5.667   5.131  1.3648  0.2667  1.5392
  524MOL0     H69104   4.150   5.774   5.151 -1.9823  2.8833  1.3812
  524MOL0     H69105   4.121   6.209   5.041 -1.2399  3.0642 -0.2013
  524MOL0     H69106   4.096   6.194   5.218 -1.0670 -0.6065 -0.1129
  524MOL0     H69107   3.870   6.177   5.194  1.3330 -2.2222 -0.0651
  524MOL0     H69108   3.887   6.102   5.033  0.9862  1.0230 -1.2292
  524MOL0     H69109   3.883   6.295   4.918 -0.2381  0.3695  0.5250
  524MOL0     H69110   3.962   6.394   5.036  0.6662 -0.4448  0.2790
  524MOL0     H69111   3.675   6.268   5.049 -2.9744  1.3943  0.8349
  524MOL0     H69112   3.732   6.394   5.160 -1.4192  3.3960 -1.4707
  524MOL0     H69113   3.584   6.473   4.997  0.4039 -1.1211 -0.2452
  524MOL0     H69114   3.676   6.430   4.851  1.4917 -0.9024 -0.2209
  524MOL0     H69115   3.677   6.649   4.885 -0.5141  0.5174  1.4365
  524MOL0     H69116   3.846   6.599   4.887  0.7032  2.1214  0.1283
  524MOL0     H69117   3.676   6.662   5.140 -1.5040  0.6350 -0.7049
  524MOL0     H69118   3.851   6.624   5.142 -2.4318 -1.6771  3.2496
  524MOL0     H69119   3.692   6.852   5.027 -0.1616  1.7101  0.1577
  524MOL0     H69120   3.865   6.822   4.990 -0.9806 -2.7134 -0.8155
  524MOL0     H69121   4.021   6.789   5.229 -1.2899 -2.1460  1.3208
  524MOL0     H69122   4.084   6.820   5.486  0.7344  0.6878  1.1285
  524MOL0     H69123   3.983   6.933   5.575  0.3691 -0.6254  1.1977
  524MOL0     H69124   4.227   7.029   5.542 -2.0540  1.4770  3.4711
  524MOL0     H69125   4.093   7.124   5.502  2.3104  0.9915  0.3502
  524MOL0     H69126   4.230   6.967   5.278 -1.2812 -1.3842  0.8447
  524MOL0     H69127   4.116   7.103   5.261 -0.2249 -0.8758 -0.0134
  524MOL0     H69128   4.384   7.135   5.395 -0.3572  1.3744 -0.2519
  524MOL0     H69129   4.285   7.257   5.305 -0.8974 -0.0982 -5.1478
  524MOL0     H69130   4.548   7.003   5.032  0.1322 -0.3972  1.5454
  524MOL0     H69131   4.791   7.018   5.018 -0.2197 -0.8095 -1.7027
  524MOL0     H69132   5.150   7.104   5.199 -2.1354  0.3883 -1.0488
  524MOL0     H69133   5.393   7.091   5.223  0.7033 -0.1291  1.2648
  524MOL0     H69134   5.615   7.396   5.378 -1.7723  2.0174 -0.2289
  524MOL0     H69135   5.619   7.475   5.224  0.9069 -0.1783 -0.8855
  524MOL0     H69136   5.794   7.360   5.137  0.2563  3.3080  0.5413
  524MOL0     H69137   5.788   7.222   5.252 -1.6321 -0.1711 -1.2456
  524MOL0     H69138   5.866   7.389   5.432  0.9544  2.9860  0.6936
  524MOL0     H69139   5.867   7.518   5.317  1.2379 -0.3745 -3.3751
  524MOL0     H69140   6.044   7.272   5.298 -0.2906  0.1127  3.0961
  524MOL0     H69141   6.050   7.414   5.186 -1.9929 -0.0622 -0.2124
  524MOL0     H69142   6.208   7.392   5.415 -1.8101 -0.6190  0.6176
  524MOL0     H69143   6.071   7.473   5.483  0.1330  1.5116  0.1311
  524MOL0     H69144   6.076   7.653   5.329  1.4093  0.1070 -0.5765
  524MOL0     H69145   6.212   7.591   5.246 -1.2103  0.3549 -1.1045
  524MOL0     H69146   6.212   7.724   5.513 -2.2390 -1.6137 -0.4614
  524MOL0     H69147   6.333   7.608   5.500  0.2079  1.2227  0.4170
  524MOL0     H69148   6.297   7.864   5.347  0.9721 -0.3777  1.5616
  524MOL0     H69149   6.416   7.755   5.283  0.2289  0.0609  0.4072
  524MOL0     H69150   5.412   7.538   5.216 -0.3741 -0.1468 -2.4735
  524MOL0     H69151   5.159   7.536   5.202  0.0238 -0.2008 -1.1029
  524MOL0     H69152   4.765   7.379   5.267  0.8835  2.1646 -1.2461
  524MOL0     H69153   4.529   7.344   5.282  1.0174  2.5003 -2.2640
  524MOL0     H69154   4.320   6.162   5.106  0.5677  0.7923  0.5076
  524MOL0     H69155   4.540   6.068   5.103 -0.9598  1.7850  0.2308
  524MOL0     H69156   4.738   5.656   4.740 -1.6574 -1.7583  0.9805
  524MOL0     H69157   4.968   5.606   4.690  1.9561 -0.2295 -0.1995
  524MOL0     H69158   5.201   5.643   4.664  1.8025  2.0099  0.8172
  524MOL0     H69159   5.198   5.474   4.726  2.9131 -0.3409  0.3720
  524MOL0     H69160   5.426   5.518   4.822  3.1343  3.4924  3.1646
  524MOL0     H69161   5.409   5.556   4.648 -0.2440  0.0844  0.0256
  524MOL0     H69162   5.408   5.764   4.876  0.4676  1.5836 -0.3808
  524MOL0     H69163   5.375   5.796   4.706  0.9873  0.4440  0.0555
  524MOL0     H69164   5.635   5.651   4.806 -0.1932 -2.2185 -3.1196
  524MOL0     H69165   5.603   5.729   4.655  1.2860 -0.5511  0.4596
  524MOL0     H69166   5.672   6.093   4.797  0.2758  0.1885 -1.8759
  524MOL0     H69167   5.089   5.712   5.077  2.0398  0.0375 -2.4058
  524MOL0     H69168   4.868   5.737   5.150 -0.6520 -3.9265  0.8003
  525MOL0     O69169   5.221   4.073   8.301 -0.1244  0.3911  0.4340
  525MOL0     C69170   5.319   4.003   8.326  0.8425 -0.2463 -0.2099
  525MOL0     O69171   5.324   3.907   8.411  0.1603  0.2170 -0.0618
  525MOL0     C69172   5.204   3.879   8.470 -0.2534  0.7364 -0.7446
  525MOL0     C69173   5.106   3.804   8.398  0.3374 -0.1329  0.2409
  525MOL0     C69174   4.972   3.786   8.445  0.0445  0.3691 -0.4981
  525MOL0     C69175   4.940   3.823   8.577 -0.4222  0.6024 -0.2233
  525MOL0     O69176   4.824   3.798   8.646  0.1797  0.4251 -0.1246
  525MOL0     C69177   4.708   3.736   8.585 -0.5507 -0.1265 -0.1211
  525MOL0     C69178   4.616   3.691   8.694  0.1229  0.0839  0.7725
  525MOL0     C69179   4.483   3.653   8.629 -0.3315 -0.4058 -0.8780
  525MOL0     C69180   4.392   3.576   8.720 -0.0656  0.0372  0.3657
  525MOL0     C69181   4.266   3.549   8.634 -0.0614  0.2310  0.8965
  525MOL0     C69182   4.188   3.425   8.682 -0.4822  0.1891 -0.1835
  525MOL0     C69183   4.064   3.419   8.609 -0.0340 -0.3093 -0.3352
  525MOL0     C69184   3.974   3.304   8.652  0.1548 -0.5077 -0.5211
  525MOL0     N69185   3.836   3.352   8.622 -0.2998 -0.9163  0.6803
  525MOL0     C69186   3.779   3.340   8.506  0.2383  0.3565  0.1509
  525MOL0     C69187   3.680   3.432   8.506  0.4374  0.8580 -0.7581
  525MOL0     C69188   3.577   3.461   8.402  0.6344 -0.2633 -0.3051
  525MOL0     C69189   3.481   3.346   8.359 -0.8149  0.3779 -0.2210
  525MOL0     C69190   3.553   3.239   8.262  0.0688  0.6722 -0.1288
  525MOL0     C69191   3.458   3.155   8.174  0.3414  0.1841  0.3328
  525MOL0     O69192   3.344   3.114   8.252  0.0940  0.2982  0.4756
  525MOL0     C69193   3.232   3.067   8.189  0.3813 -0.0025 -0.1704
  525MOL0     C69194   3.122   3.039   8.259  0.4721  0.5550  0.0211
  525MOL0     C69195   3.004   2.987   8.204 -0.7764 -0.2010 -0.2463
  525MOL0     C69196   3.002   2.940   8.068 -0.9185 -0.1429  0.4259
  525MOL0     C69197   2.888   2.874   8.003 -0.3848 -0.3960  0.1588
  525MOL0     O69198   2.792   2.822   8.086  0.4523  0.1895 -0.8953
  525MOL0     C69199   2.681   2.761   8.041  0.0309  0.1693 -0.1821
  525MOL0     C69200   2.685   2.670   7.937 -0.0571 -0.0580  0.1064
  525MOL0     C69201   2.567   2.604   7.898  0.3827 -0.7444 -0.4272
  525MOL0     C69202   2.443   2.617   7.963  0.0671  0.3921  1.3694
  525MOL0     O69203   2.329   2.550   7.923 -0.0277 -0.0970 -1.5218
  525MOL0     C69204   2.290   2.568   7.785  0.0846 -0.3532  0.6275
  525MOL0     C69205   2.199   2.450   7.751 -0.1368 -0.7868  0.5426
  525MOL0     C69206   2.130   2.480   7.621 -0.8900  0.9867  0.0449
  525MOL0     C69207   2.009   2.390   7.591  0.6911  0.6048 -0.8571
  525MOL0     C69208   2.024   2.234   7.613 -0.2571  0.1396 -0.9921
  525MOL0     C69209   1.913   2.159   7.545  0.1681 -0.0044 -0.3978
  525MOL0     C69210   1.948   2.001   7.547 -0.3470 -0.3631  0.3391
  525MOL0     C69211   1.847   1.918   7.467  0.0158  0.3590  0.5930
  525MOL0    Cl69212   1.678   1.956   7.530  0.0578 -0.1051  0.1506
  525MOL0     C69213   2.442   2.707   8.065 -1.0403  0.0001 -0.6451
  525MOL0     C69214   2.558   2.772   8.112 -0.4061  0.2778 -1.0163
  525MOL0     O69215   2.880   2.860   7.881  0.5297  0.0021 -0.0930
  525MOL0     C69216   3.122   2.955   8.000 -0.2867 -0.4428 -0.3685
  525MOL0     C69217   3.231   3.019   8.063 -0.4725  0.5496  0.2752
  525MOL0     N69218   3.664   3.476   8.634 -0.5102  0.5624 -0.3374
  525MOL0     N69219   3.762   3.434   8.703  0.0663  0.3543 -0.0083
  525MOL0     C69220   5.040   3.892   8.648  0.0394  0.1538  0.4917
  525MOL0     C69221   5.161   3.930   8.592 -0.4225  0.4356  0.5899
  525MOL0     C69222   5.444   4.018   8.242 -0.7785 -0.4521  1.2384
  525MOL0     C69223   5.538   3.923   8.240  0.4166  0.6324 -0.4030
  525MOL0     C69224   5.649   3.911   8.157  0.8132 -0.1100  0.2772
  525MOL0     C69225   5.666   4.024   8.073  0.0584  0.6030 -0.1943
  525MOL0     O69226   5.771   4.035   7.984  0.4566 -0.5996  0.1042
  525MOL0     C69227   5.866   3.933   7.977  0.1221  1.0157 -0.2580
  525MOL0     C69228   5.962   3.966   7.861  0.0617 -0.8770 -0.2303
  525MOL0     C69229   6.073   4.080   7.905  0.0814 -0.3462 -0.8500
  525MOL0     C69230   6.203   4.086   7.825 -1.0951 -0.5233 -0.1451
  525MOL0     C69231   6.193   4.068   7.681 -0.4689  0.1039 -0.6748
  525MOL0     C69232   6.181   4.065   7.567 -0.5535 -0.5583 -0.4448
  525MOL0     C69233   5.576   4.136   8.077  0.6811 -0.0213 -0.9227
  525MOL0     C69234   5.460   4.127   8.161 -0.7019 -0.7590  0.6902
  525MOL0     H69235   5.126   3.767   8.298  2.1755 -1.7771  1.1621
  525MOL0     H69236   4.897   3.734   8.386 -1.0647  1.5343 -0.1317
  525MOL0     H69237   4.731   3.646   8.529 -1.2049 -1.5542  1.7948
  525MOL0     H69238   4.666   3.809   8.516  1.7669 -0.2855 -1.8270
  525MOL0     H69239   4.599   3.778   8.758  0.2734  0.3764  0.4206
  525MOL0     H69240   4.667   3.619   8.758  0.7003 -0.8083 -0.6331
  525MOL0     H69241   4.514   3.589   8.545 -0.6846 -1.8965  0.0791
  525MOL0     H69242   4.429   3.743   8.600 -0.0716 -0.3536 -1.2125
  525MOL0     H69243   4.433   3.486   8.766 -0.2877  0.2483  0.9826
  525MOL0     H69244   4.347   3.629   8.805 -1.2362 -0.8160  0.3018
  525MOL0     H69245   4.294   3.526   8.531 -0.4902  1.9043  0.3850
  525MOL0     H69246   4.204   3.639   8.630 -2.0930 -1.1472 -1.4211
  525MOL0     H69247   4.174   3.439   8.789  1.9554 -2.3847  0.6052
  525MOL0     H69248   4.241   3.329   8.680 -3.2196 -1.4489 -2.4085
  525MOL0     H69249   4.018   3.519   8.613  0.2368 -0.1228 -1.4799
  525MOL0     H69250   4.094   3.395   8.507  1.9793 -3.3084  0.8600
  525MOL0     H69251   3.984   3.285   8.760 -0.8736  0.0436 -0.3059
  525MOL0     H69252   3.984   3.206   8.606  0.1443  0.2484 -2.2040
  525MOL0     H69253   3.805   3.275   8.423 -1.8175  0.6665 -0.7963
  525MOL0     H69254   3.622   3.507   8.314  2.9271 -0.4688  0.7001
  525MOL0     H69255   3.504   3.532   8.443 -0.0518  0.5423 -2.7311
  525MOL0     H69256   3.389   3.392   8.322 -0.7474  1.8754  1.3458
  525MOL0     H69257   3.445   3.292   8.447  1.0806  0.4912  0.6839
  525MOL0     H69258   3.620   3.298   8.200 -2.0859  1.2546 -2.0319
  525MOL0     H69259   3.606   3.172   8.331  0.2450  2.8879  2.0333
  525MOL0     H69260   3.510   3.072   8.126  0.5575  0.2032  0.5326
  525MOL0     H69261   3.434   3.225   8.094  1.6223 -0.2350 -0.4374
  525MOL0     H69262   3.129   3.074   8.362  1.2599  0.1240  0.1246
  525MOL0     H69263   2.916   2.982   8.266 -0.0556  1.9138  1.0487
  525MOL0     H69264   2.772   2.633   7.884  2.0882  1.3613  2.4001
  525MOL0     H69265   2.566   2.539   7.811 -5.0836  0.8473 -1.9806
  525MOL0     H69266   2.368   2.586   7.711  1.4158 -1.0356  1.8214
  525MOL0     H69267   2.217   2.650   7.784 -1.5334 -1.6273 -3.0040
  525MOL0     H69268   2.122   2.449   7.829 -0.6416 -0.9511  0.0533
  525MOL0     H69269   2.254   2.355   7.754 -0.5574 -1.0238  0.8895
  525MOL0     H69270   2.199   2.462   7.538 -0.6812  0.7142  0.2749
  525MOL0     H69271   2.097   2.584   7.615 -1.1793  0.8443 -1.1653
  525MOL0     H69272   1.923   2.424   7.649  0.6299 -1.1334  0.1367
  525MOL0     H69273   1.973   2.410   7.489 -0.4134  4.1322  0.0720
  525MOL0     H69274   2.027   2.207   7.718 -0.9299  3.0856 -0.1114
  525MOL0     H69275   2.119   2.198   7.572 -0.7267 -1.3928 -0.7765
  525MOL0     H69276   1.905   2.194   7.442 -0.2316  1.5813  0.1604
  525MOL0     H69277   1.821   2.178   7.599  0.1864 -1.5010  0.2280
  525MOL0     H69278   2.052   1.979   7.520 -0.4168 -0.7779  0.3989
  525MOL0     H69279   1.935   1.960   7.647 -3.1092 -0.4714  0.0241
  525MOL0     H69280   1.871   1.811   7.468  0.2636  0.3929 -0.5999
  525MOL0     H69281   1.861   1.939   7.361 -1.2865  1.1446  0.5492
  525MOL0     H69282   2.349   2.734   8.115 -1.2280  2.6228 -2.2048
  525MOL0     H69283   2.546   2.841   8.195  0.5144  0.6296 -1.1678
  525MOL0     H69284   3.123   2.905   7.904 -0.8014  1.2029 -1.2848
  525MOL0     H69285   3.326   3.022   8.009 -0.5902  1.6225  0.1079
  525MOL0     H69286   5.007   3.926   8.745 -1.3812  0.7702 -0.1772
  525MOL0     H69287   5.229   3.999   8.640  2.3954 -2.1028  0.5611
  525MOL0     H69288   5.519   3.830   8.293 -1.6832  0.5941 -1.1355
  525MOL0     H69289   5.704   3.818   8.152 -1.5604 -1.5858 -0.2601
  525MOL0     H69290   5.819   3.838   7.953  2.8857 -0.5080 -0.0717
  525MOL0     H69291   5.921   3.933   8.071 -1.1144  0.7875  0.4764
  525MOL0     H69292   6.017   3.879   7.825 -1.1717 -1.8164  0.0881
  525MOL0     H69293   5.906   3.995   7.772 -0.4906 -4.7220 -1.3186
  525MOL0     H69294   6.105   4.064   8.008 -2.0706 -2.5444 -0.4301
  525MOL0     H69295   6.027   4.179   7.895  0.6745 -0.1353 -1.6462
  525MOL0     H69296   6.276   4.164   7.845  2.4241 -4.0958  2.5348
  525MOL0     H69297   6.250   3.993   7.859  0.1405  0.7136  1.6967
  525MOL0     H69298   6.149   4.060   7.465 -3.3921  0.2875  0.3165
  525MOL0     H69299   5.590   4.226   8.018 -0.8764 -0.4598 -2.0308
  525MOL0     H69300   5.377   4.196   8.153 -1.5368 -1.7213  0.8009
  526MOL0     O69301   3.362   2.654   2.646 -0.6083  0.1311  0.0429
  526MOL0     C69302   3.419   2.743   2.582  0.1684 -0.3092 -0.5867
  526MOL0     O69303   3.356   2.855   2.538 -0.3814  0.6430  0.3231
  526MOL0     C69304   3.216   2.867   2.556 -0.0993 -0.4163 -0.3016
  526MOL0     C69305   3.143   2.846   2.676 -1.0478 -0.4695  0.7622
  526MOL0     C69306   3.006   2.841   2.676 -0.4024 -0.0190 -0.9098
  526MOL0     C69307   2.928   2.875   2.562 -0.4116 -0.3722 -0.2772
  526MOL0     O69308   2.791   2.872   2.558  0.1548  0.5538  0.2232
  526MOL0     C69309   2.712   2.883   2.677 -0.1457  0.1173  0.1011
  526MOL0     C69310   2.568   2.874   2.639  0.4764 -0.5396  0.0104
  526MOL0     C69311   2.488   2.873   2.770  0.2375 -0.0841  0.1409
  526MOL0     C69312   2.339   2.913   2.748 -0.3841  0.6286  0.1055
  526MOL0     C69313   2.238   2.840   2.830 -0.6502  0.0987  0.4907
  526MOL0     C69314   2.243   2.860   2.980  0.8604  0.5575 -0.1995
  526MOL0     C69315   2.110   2.809   3.040 -0.5430 -1.0601  0.1156
  526MOL0     C69316   2.079   2.665   3.004  0.1607 -0.3968  0.0546
  526MOL0     N69317   1.971   2.647   2.914  0.3525 -0.6462  0.4729
  526MOL0     C69318   1.846   2.603   2.952 -0.3588  0.0514 -0.6327
  526MOL0     C69319   1.769   2.613   2.840  0.3339 -0.0709 -0.3991
  526MOL0     C69320   1.635   2.543   2.823  0.0907 -0.1942  0.4485
  526MOL0     C69321   1.523   2.594   2.922 -0.4701 -0.5268  0.5816
  526MOL0     C69322   1.393   2.590   2.843 -0.1163 -0.8929  0.0815
  526MOL0     C69323   1.283   2.633   2.942 -1.0232  0.0052  0.0960
  526MOL0     O69324   1.308   2.762   2.985  0.0790 -0.3471 -0.2956
  526MOL0     C69325   1.202   2.818   3.063 -0.0951 -0.9040 -0.2565
  526MOL0     C69326   1.130   2.741   3.153  0.2870 -0.9190 -1.1957
  526MOL0     C69327   1.032   2.803   3.238 -0.5328 -0.7459 -0.2865
  526MOL0     C69328   0.992   2.937   3.215 -0.1648  0.4456  0.0874
  526MOL0     C69329   0.884   2.997   3.295  0.2482  0.6033  0.2184
  526MOL0     O69330   0.843   2.921   3.402 -0.0534 -0.3347  0.0573
  526MOL0     C69331   0.724   2.967   3.461 -0.3185  0.1269 -0.5340
  526MOL0     C69332   0.607   2.887   3.468  0.1252 -0.1519  0.1128
  526MOL0     C69333   0.492   2.925   3.537  0.3209 -0.6401  0.3641
  526MOL0     C69334   0.483   3.046   3.604  0.2183  0.3204 -0.4268
  526MOL0     O69335   0.362   3.060   3.670 -0.4309  0.0271  1.2560
  526MOL0     C69336   0.356   3.185   3.733  0.1301  0.0756 -0.2538
  526MOL0     C69337   0.231   3.185   3.832  0.2313  0.8331  0.7573
  526MOL0     C69338   0.091   3.175   3.769  0.8433  1.1763 -0.0824
  526MOL0     C69339  -0.029   3.182   3.866 -0.0464 -0.0583 -0.4285
  526MOL0     C69340  -0.161   3.169   3.806  0.3992 -0.1079  0.1683
  526MOL0     C69341  -0.274   3.228   3.897  0.1620  0.3352 -0.9119
  526MOL0     C69342  -0.414   3.200   3.847  0.2146  0.8676 -0.1573
  526MOL0     C69343  -0.517   3.206   3.965  0.1930 -0.0967  0.0916
  526MOL0    Cl69344  -0.547   3.047   4.029 -0.4096  0.2187 -0.2316
  526MOL0     C69345   0.599   3.127   3.607 -0.3232 -0.0402  0.1778
  526MOL0     C69346   0.720   3.089   3.537  0.0009 -0.0266 -0.1493
  526MOL0     O69347   0.837   3.107   3.264 -0.7036  0.3592  0.6867
  526MOL0     C69348   1.063   3.013   3.122  0.4411 -0.9238 -0.1663
  526MOL0     C69349   1.176   2.962   3.056  0.9660 -0.5496 -0.5325
  526MOL0     N69350   1.844   2.661   2.731 -0.2539 -0.3189 -0.1560
  526MOL0     N69351   1.961   2.675   2.779  0.6033 -0.3775  0.2446
  526MOL0     C69352   3.002   2.917   2.447  0.9137 -0.0682 -0.2408
  526MOL0     C69353   3.140   2.914   2.447  0.9089 -0.6313 -0.7168
  526MOL0     C69354   3.563   2.736   2.559 -0.4596 -0.1510 -0.2113
  526MOL0     C69355   3.638   2.855   2.521 -0.4119 -0.7275 -0.0887
  526MOL0     C69356   3.778   2.856   2.509 -0.1471 -0.0897  1.1155
  526MOL0     C69357   3.850   2.739   2.526 -0.0083  0.7690  0.2981
  526MOL0     O69358   3.984   2.753   2.504  0.1772 -0.6885  0.4681
  526MOL0     C69359   4.066   2.648   2.544  0.7446 -0.3300 -0.0870
  526MOL0     C69360   4.222   2.677   2.531 -0.0780  0.2623  0.7200
  526MOL0     C69361   4.272   2.697   2.386 -0.2081  0.6401  0.0793
  526MOL0     C69362   4.428   2.711   2.374  0.1550 -0.6108 -0.7361
  526MOL0     C69363   4.510   2.583   2.395  0.7453 -0.5817  0.2059
  526MOL0     C69364   4.587   2.495   2.412 -0.3101 -0.7978 -0.9505
  526MOL0     C69365   3.775   2.620   2.548 -0.4898  0.2850  0.3465
  526MOL0     C69366   3.633   2.618   2.573 -0.4875 -0.2548 -0.0253
  526MOL0     H69367   3.196   2.835   2.770 -1.1802 -0.3263  0.8543
  526MOL0     H69368   2.959   2.831   2.773  1.8686  0.2705  0.2843
  526MOL0     H69369   2.741   2.980   2.718 -1.5634  0.8544 -0.5574
  526MOL0     H69370   2.723   2.809   2.757 -3.0740 -0.1834  0.3470
  526MOL0     H69371   2.541   2.783   2.584  0.1642  0.6661 -1.9288
  526MOL0     H69372   2.536   2.963   2.583  0.9815 -0.2060  0.2465
  526MOL0     H69373   2.541   2.937   2.841  1.6233 -1.1818  0.1587
  526MOL0     H69374   2.491   2.773   2.815  0.4287  0.9439  2.5897
  526MOL0     H69375   2.324   3.019   2.768 -0.4871  0.4329  1.1556
  526MOL0     H69376   2.310   2.887   2.646 -0.6496 -0.6651  0.4882
  526MOL0     H69377   2.255   2.734   2.811  0.7103  0.6122 -1.4233
  526MOL0     H69378   2.142   2.874   2.791  0.8164  2.5296 -1.2929
  526MOL0     H69379   2.248   2.966   3.007 -0.0978  0.1891  1.5670
  526MOL0     H69380   2.330   2.810   3.025  0.0408 -2.8424 -2.0033
  526MOL0     H69381   2.121   2.828   3.147  1.5858  0.1895 -0.2666
  526MOL0     H69382   2.025   2.868   3.004  0.7015 -0.9464 -2.9984
  526MOL0     H69383   2.047   2.615   3.096  1.9702  1.4653  1.7895
  526MOL0     H69384   2.168   2.614   2.967  0.9412  0.8558  0.1445
  526MOL0     H69385   1.818   2.578   3.054  0.7110  2.2934  0.2756
  526MOL0     H69386   1.655   2.437   2.843  3.0319  0.0319 -0.7649
  526MOL0     H69387   1.613   2.556   2.717  0.1740 -1.2964  0.2825
  526MOL0     H69388   1.552   2.699   2.940 -0.7548  0.2576 -2.9118
  526MOL0     H69389   1.530   2.528   3.009  1.9509 -2.8799 -1.2485
  526MOL0     H69390   1.395   2.665   2.763 -2.3308  0.5630  1.2855
  526MOL0     H69391   1.377   2.485   2.814 -0.1508 -0.8352 -0.1139
  526MOL0     H69392   1.285   2.548   3.011 -1.2805  0.4060  0.6049
  526MOL0     H69393   1.184   2.630   2.897 -1.5094  0.4541  1.1039
  526MOL0     H69394   1.141   2.634   3.159 -1.9362 -1.1187  1.8414
  526MOL0     H69395   0.983   2.741   3.313 -2.2539 -0.0370 -0.7671
  526MOL0     H69396   0.621   2.793   3.415 -2.3363  0.9611 -2.7445
  526MOL0     H69397   0.415   2.848   3.539  0.5304 -0.8404  0.7923
  526MOL0     H69398   0.341   3.264   3.659 -1.4467 -1.2539 -1.4238
  526MOL0     H69399   0.439   3.215   3.798 -0.7243 -2.2510  2.1024
  526MOL0     H69400   0.242   3.287   3.871 -0.1927  1.2282 -0.1188
  526MOL0     H69401   0.234   3.104   3.906 -0.8166  0.4302  0.3873
  526MOL0     H69402   0.093   3.078   3.719  1.8951  0.5027  1.1812
  526MOL0     H69403   0.082   3.260   3.701  0.1324 -0.0411 -1.5708
  526MOL0     H69404  -0.013   3.109   3.947 -0.8779 -1.0415 -1.1301
  526MOL0     H69405  -0.014   3.281   3.908 -0.4576 -1.0368  2.2392
  526MOL0     H69406  -0.176   3.061   3.799  1.8070 -0.4641  2.0673
  526MOL0     H69407  -0.168   3.207   3.704 -0.4038 -0.8640 -0.0723
  526MOL0     H69408  -0.271   3.336   3.915 -2.8191  0.2546  0.7021
  526MOL0     H69409  -0.255   3.179   3.992 -1.1495 -0.9249 -1.2709
  526MOL0     H69410  -0.443   3.273   3.772  1.5883  1.8803  0.2518
  526MOL0     H69411  -0.432   3.101   3.804 -1.3636  0.0534  2.2184
  526MOL0     H69412  -0.612   3.249   3.931  0.0433 -2.0461 -2.2540
  526MOL0     H69413  -0.477   3.267   4.047 -1.2782 -0.7573  1.3725
  526MOL0     H69414   0.595   3.219   3.665  2.1443 -0.3037  0.8818
  526MOL0     H69415   0.813   3.146   3.536 -1.0178  1.7704  1.7553
  526MOL0     H69416   1.040   3.119   3.129  1.1438 -0.8917  2.7867
  526MOL0     H69417   1.239   3.025   2.993 -1.4892  1.2359 -1.3857
  526MOL0     H69418   2.939   2.958   2.369 -0.7387 -3.2780 -0.7555
  526MOL0     H69419   3.186   2.946   2.354  1.3118 -2.2241 -1.1008
  526MOL0     H69420   3.579   2.944   2.504  0.7189  0.3545  1.3597
  526MOL0     H69421   3.842   2.941   2.488  1.7363 -0.9843  2.8725
  526MOL0     H69422   4.038   2.557   2.490  1.3446 -3.3155  4.1337
  526MOL0     H69423   4.055   2.623   2.650  2.1014  0.9715  0.3809
  526MOL0     H69424   4.246   2.773   2.579  1.6569 -0.6696  1.8179
  526MOL0     H69425   4.284   2.598   2.575  1.6701 -0.0681 -2.0814
  526MOL0     H69426   4.225   2.789   2.349  1.1334  1.3609  0.0770
  526MOL0     H69427   4.233   2.618   2.322  0.1296  2.0580 -1.9959
  526MOL0     H69428   4.454   2.750   2.275  2.1246 -0.7511 -0.2941
  526MOL0     H69429   4.456   2.763   2.466  0.5473 -2.8756  0.4984
  526MOL0     H69430   4.662   2.427   2.445  1.2890  0.8362 -1.0834
  526MOL0     H69431   3.827   2.525   2.552 -1.2472 -0.1575 -0.2659
  526MOL0     H69432   3.589   2.520   2.591  0.2696 -0.9654 -1.7293
  527MOL0     O69433   9.117   3.535  10.835 -0.1433  0.0006 -0.2279
  527MOL0     C69434   9.104   3.412  10.826 -0.2453  1.5028  0.4412
  527MOL0     O69435   9.021   3.335  10.752 -0.0366 -0.1831 -1.0391
  527MOL0     C69436   8.924   3.392  10.680  0.6466  0.4207 -0.1844
  527MOL0     C69437   8.912   3.342  10.552  0.6996  0.3822 -0.8982
  527MOL0     C69438   8.815   3.405  10.468 -0.5785  0.2943  0.7385
  527MOL0     C69439   8.727   3.496  10.526 -0.4226 -0.2234  0.2767
  527MOL0     O69440   8.617   3.532  10.448 -0.9438 -0.3227  0.1797
  527MOL0     C69441   8.524   3.427  10.415 -0.2848 -0.5086  0.3289
  527MOL0     C69442   8.467   3.506  10.303 -0.6462 -0.0161 -0.4309
  527MOL0     C69443   8.338   3.448  10.245 -0.2009  0.1028 -0.0654
  527MOL0     C69444   8.309   3.502  10.105  0.3235  0.0293  0.4234
  527MOL0     C69445   8.164   3.465  10.056 -0.0011 -0.3284  0.2366
  527MOL0     C69446   8.145   3.503   9.905 -0.8790  0.6643 -0.2944
  527MOL0     C69447   8.007   3.457   9.855  0.1389 -0.4537 -0.6731
  527MOL0     C69448   8.011   3.482   9.700  0.5250  0.5127 -0.1385
  527MOL0     N69449   7.878   3.432   9.658  0.6327  0.0568  0.1282
  527MOL0     C69450   7.768   3.505   9.645  0.1187 -0.2451  0.8387
  527MOL0     C69451   7.672   3.415   9.601 -0.2268  0.1848 -0.0339
  527MOL0     C69452   7.535   3.455   9.578  0.2716  0.4294  0.2660
  527MOL0     C69453   7.460   3.466   9.709  0.3453 -0.5583 -0.2797
  527MOL0     C69454   7.309   3.441   9.701 -0.0378  0.2430  0.5021
  527MOL0     C69455   7.238   3.522   9.589  0.0731 -0.6326 -0.3394
  527MOL0     O69456   7.221   3.658   9.632 -0.5596 -0.2032  0.3506
  527MOL0     C69457   7.107   3.693   9.695  0.0171  0.0160  1.0457
  527MOL0     C69458   7.084   3.836   9.714 -1.0155  0.4560 -0.1211
  527MOL0     C69459   6.968   3.881   9.775 -0.0327  0.7974  0.2176
  527MOL0     C69460   6.869   3.791   9.812 -0.2435 -0.5715 -0.6113
  527MOL0     C69461   6.745   3.842   9.887 -0.0996 -0.6236  0.1974
  527MOL0     O69462   6.669   3.744   9.929  0.0088 -0.0749 -0.0519
  527MOL0     C69463   6.573   3.754  10.031 -0.8350  0.1583 -0.1979
  527MOL0     C69464   6.576   3.836  10.141 -0.1468 -0.4218 -0.4807
  527MOL0     C69465   6.471   3.835  10.232 -0.0198  0.7250  0.0075
  527MOL0     C69466   6.372   3.739  10.225  0.5027 -0.4813 -0.5938
  527MOL0     O69467   6.277   3.756  10.320  0.2977  0.4078  0.0021
  527MOL0     C69468   6.179   3.650  10.339  0.4057  0.5752 -0.7477
  527MOL0     C69469   6.074   3.688  10.444 -0.8374 -0.4478 -0.1773
  527MOL0     C69470   6.045   3.555  10.526 -0.1119  0.1237  0.0441
  527MOL0     C69471   5.902   3.556  10.579 -0.4083  0.4059 -0.6610
  527MOL0     C69472   5.892   3.439  10.686 -0.1539  0.1218  0.2436
  527MOL0     C69473   5.960   3.482  10.818  0.5880  0.1186  0.4840
  527MOL0     C69474   5.951   3.363  10.923  0.0131  0.0900  0.8960
  527MOL0     C69475   5.941   3.419  11.065  0.3434 -0.6901  0.2724
  527MOL0    Cl69476   5.784   3.501  11.105  0.1481  0.2770 -0.0318
  527MOL0     C69477   6.374   3.639  10.123 -0.7916  0.5026 -0.0843
  527MOL0     C69478   6.472   3.653  10.024 -0.0161  0.2216  0.0218
  527MOL0     O69479   6.733   3.962   9.920 -0.6831 -0.3538 -0.2769
  527MOL0     C69480   6.893   3.654   9.799 -0.4657  0.2457  0.5157
  527MOL0     C69481   7.005   3.602   9.734  0.5153 -0.4480 -0.5822
  527MOL0     N69482   7.725   3.287   9.611  0.4113 -0.8453  0.6157
  527MOL0     N69483   7.851   3.300   9.644  0.3212  0.2740 -0.3598
  527MOL0     C69484   8.740   3.534  10.657 -0.3146  0.1686 -0.0498
  527MOL0     C69485   8.840   3.489  10.735  0.1339  0.6625 -0.4757
  527MOL0     C69486   9.186   3.327  10.918 -0.0396 -0.2579 -0.0917
  527MOL0     C69487   9.308   3.380  10.964  0.3714  0.0531  0.5647
  527MOL0     C69488   9.393   3.298  11.044  0.2969  0.4057  0.3868
  527MOL0     C69489   9.372   3.164  11.073  0.6821  0.3119  0.8449
  527MOL0     O69490   9.454   3.103  11.159  0.3059  0.5795  0.4430
  527MOL0     C69491   9.437   2.964  11.183  0.4351 -0.3665 -0.5232
  527MOL0     C69492   9.565   2.902  11.246  0.2388  0.1255 -0.7143
  527MOL0     C69493   9.645   3.003  11.335  0.6437  0.0432  0.5145
  527MOL0     C69494   9.566   3.083  11.440  0.5415  0.6378  0.3541
  527MOL0     C69495   9.496   2.993  11.541 -0.0169 -0.3014 -1.4330
  527MOL0     C69496   9.449   2.918  11.624 -0.6402 -0.3873 -0.0242
  527MOL0     C69497   9.243   3.111  11.029  0.6036  0.4128 -0.5163
  527MOL0     C69498   9.156   3.191  10.952  0.0506 -0.3175  0.6142
  527MOL0     H69499   8.969   3.264  10.501 -1.2928  0.0123 -2.7254
  527MOL0     H69500   8.814   3.373  10.364 -0.6850  0.1808  0.7740
  527MOL0     H69501   8.447   3.417  10.492 -1.2460 -1.0588 -0.6786
  527MOL0     H69502   8.581   3.336  10.394  1.7670  0.8168 -0.1632
  527MOL0     H69503   8.541   3.503  10.222 -0.1081  0.5902  0.0326
  527MOL0     H69504   8.444   3.610  10.327 -0.2889  0.2136 -1.0588
  527MOL0     H69505   8.258   3.446  10.320  0.8991 -0.8302  1.1272
  527MOL0     H69506   8.358   3.342  10.228 -2.5740 -0.1913 -1.4807
  527MOL0     H69507   8.320   3.611  10.108 -1.6095  0.3639 -1.5895
  527MOL0     H69508   8.376   3.463  10.028  0.3940 -0.6248  0.8074
  527MOL0     H69509   8.084   3.507  10.119 -0.0786  0.8449 -0.6083
  527MOL0     H69510   8.150   3.357  10.069  1.2581 -1.0176 -3.2420
  527MOL0     H69511   8.221   3.446   9.850 -0.8178  0.5034 -0.0468
  527MOL0     H69512   8.169   3.609   9.897  0.7237  0.6687  2.8965
  527MOL0     H69513   7.993   3.350   9.875 -1.0127 -0.0042  1.1696
  527MOL0     H69514   7.924   3.512   9.898 -0.9122 -1.1217 -1.7642
  527MOL0     H69515   8.095   3.418   9.673 -0.3958 -0.9962  0.4377
  527MOL0     H69516   8.022   3.586   9.671  2.3512 -0.1111 -1.9093
  527MOL0     H69517   7.768   3.613   9.645  2.9546 -0.1608  1.1402
  527MOL0     H69518   7.497   3.373   9.516 -2.2562  1.8514 -0.1703
  527MOL0     H69519   7.526   3.549   9.523 -0.0173  1.0143  1.2924
  527MOL0     H69520   7.470   3.567   9.749 -3.5961  0.2648 -0.9245
  527MOL0     H69521   7.498   3.389   9.776 -1.0495 -1.0816 -0.0710
  527MOL0     H69522   7.289   3.334   9.689  3.3495 -0.5252  0.7534
  527MOL0     H69523   7.258   3.475   9.792  0.5922 -1.5445  1.5643
  527MOL0     H69524   7.150   3.478   9.542  0.5612 -1.6837 -0.3028
  527MOL0     H69525   7.299   3.521   9.498 -3.0365  0.2850 -2.5855
  527MOL0     H69526   7.154   3.912   9.684 -2.9044  1.9600 -0.9149
  527MOL0     H69527   6.948   3.986   9.791 -3.1708  0.3006  0.2031
  527MOL0     H69528   6.649   3.916  10.151  0.5945 -1.2275  0.7947
  527MOL0     H69529   6.457   3.913  10.306  1.1498  0.4332  0.5736
  527MOL0     H69530   6.227   3.561  10.382 -2.8089  0.6750  3.8535
  527MOL0     H69531   6.134   3.617  10.245  1.4331 -1.1307 -0.6819
  527MOL0     H69532   5.996   3.741  10.389  1.9075  2.2987 -1.7380
  527MOL0     H69533   6.122   3.764  10.507 -2.0677 -1.4835  2.1358
  527MOL0     H69534   6.117   3.554  10.608 -2.0634  4.1852  2.1766
  527MOL0     H69535   6.052   3.468  10.461  1.8930  1.2331 -1.3086
  527MOL0     H69536   5.886   3.652  10.630 -1.4637  0.3211 -0.8098
  527MOL0     H69537   5.825   3.545  10.502 -0.1202  0.9869 -1.0358
  527MOL0     H69538   5.933   3.348  10.641  0.2746  0.8836 -0.9734
  527MOL0     H69539   5.786   3.422  10.707 -1.0211  2.3301 -1.7899
  527MOL0     H69540   5.920   3.572  10.865 -0.2926 -0.1063  0.1851
  527MOL0     H69541   6.065   3.506  10.796 -0.2746  3.0484 -0.8835
  527MOL0     H69542   5.858   3.310  10.904 -1.8584  3.8648 -1.8824
  527MOL0     H69543   6.022   3.280  10.924 -0.7556 -0.5731  1.2326
  527MOL0     H69544   6.017   3.495  11.087 -1.3886  1.1513  0.2002
  527MOL0     H69545   5.954   3.340  11.139  0.0566 -0.9024  0.0932
  527MOL0     H69546   6.311   3.550  10.124  0.6436 -0.5505  1.6620
  527MOL0     H69547   6.486   3.584   9.941 -0.1594  1.4198 -1.0264
  527MOL0     H69548   6.829   3.587   9.855  0.1989 -0.8969 -0.0675
  527MOL0     H69549   7.006   3.497   9.708  1.7548 -0.0539 -2.2802
  527MOL0     H69550   8.658   3.597  10.691 -0.1011  0.3079  0.2058
  527MOL0     H69551   8.851   3.525  10.836 -0.8686  0.7195 -0.3761
  527MOL0     H69552   9.348   3.478  10.941  0.4342 -0.2170 -0.5542
  527MOL0     H69553   9.477   3.354  11.085 -1.1372  1.3107  2.3138
  527MOL0     H69554   9.413   2.916  11.088 -1.7240 -0.3021 -0.0712
  527MOL0     H69555   9.353   2.951  11.252  1.6173  0.3468  1.1372
  527MOL0     H69556   9.530   2.817  11.305  1.1811  1.5177  2.0482
  527MOL0     H69557   9.638   2.877  11.169 -0.5829  1.5084 -2.0080
  527MOL0     H69558   9.693   3.077  11.270  0.0302 -1.5391 -1.8344
  527MOL0     H69559   9.730   2.944  11.372  2.1395  1.6960 -0.1054
  527MOL0     H69560   9.638   3.152  11.485 -1.2279  1.6686  1.7693
  527MOL0     H69561   9.485   3.141  11.393 -0.4574 -1.2248 -0.3375
  527MOL0     H69562   9.426   2.844  11.698  2.4258 -0.0912  1.3824
  527MOL0     H69563   9.222   3.009  11.058  0.3721  0.1434 -1.5681
  527MOL0     H69564   9.058   3.158  10.917 -0.7825  3.3020 -1.0127
  528MOL0     O69565  10.458   6.169   3.372 -0.1496 -0.0213 -0.2526
  528MOL0     C69566  10.548   6.109   3.316  0.1440  0.6163 -0.4664
  528MOL0     O69567  10.536   6.007   3.225 -0.5918 -0.5270  0.4451
  528MOL0     C69568  10.410   5.999   3.166 -0.5257 -0.4020 -0.2611
  528MOL0     C69569  10.379   6.050   3.041 -0.1604 -0.1307 -0.1259
  528MOL0     C69570  10.257   6.049   2.972  1.1804  0.5089  0.2337
  528MOL0     C69571  10.146   6.000   3.047  0.1415  0.6090 -0.0544
  528MOL0     O69572  10.017   5.996   2.990 -0.6106  0.1047  0.1994
  528MOL0     C69573   9.906   5.942   3.063  0.6266  0.2819 -0.1746
  528MOL0     C69574   9.781   5.965   2.975  0.0401  0.0377 -0.1332
  528MOL0     C69575   9.646   5.909   3.028  0.4171 -0.1882  0.2009
  528MOL0     C69576   9.537   5.919   2.921  0.8224  0.1622 -0.5863
  528MOL0     C69577   9.406   5.888   2.970  0.1032  0.6062  0.0668
  528MOL0     C69578   9.305   5.899   2.854 -0.3960 -0.5165  0.3859
  528MOL0     C69579   9.172   5.844   2.916 -0.1984  0.8665  0.4865
  528MOL0     C69580   9.058   5.848   2.802  0.0037 -0.0134  0.5186
  528MOL0     N69581   8.927   5.814   2.856  0.2832  0.2455 -0.2544
  528MOL0     C69582   8.808   5.880   2.835 -0.4637 -0.5955  0.1530
  528MOL0     C69583   8.729   5.799   2.898  0.4677  0.5180  0.0659
  528MOL0     C69584   8.593   5.838   2.928  0.0970 -0.9376 -0.2785
  528MOL0     C69585   8.492   5.723   2.908  0.2026  0.2434 -0.6483
  528MOL0     C69586   8.358   5.770   2.977  0.2860  0.0830  0.1908
  528MOL0     C69587   8.238   5.697   2.916  0.2740  0.5312  0.6616
  528MOL0     O69588   8.120   5.704   2.991 -0.3075  0.4609  0.0550
  528MOL0     C69589   8.019   5.617   2.984 -0.1423 -0.2825  0.9730
  528MOL0     C69590   7.914   5.634   3.071 -0.2081  0.4406 -0.1320
  528MOL0     C69591   7.816   5.542   3.065 -0.2510  0.6062 -0.5613
  528MOL0     C69592   7.814   5.432   2.967 -0.5058  0.2347 -0.1254
  528MOL0     C69593   7.698   5.335   2.963  1.0786  0.1071 -0.3129
  528MOL0     O69594   7.590   5.380   3.037 -0.0101 -0.1588 -0.5499
  528MOL0     C69595   7.474   5.309   3.061  0.0450 -0.5034  0.6107
  528MOL0     C69596   7.356   5.388   3.075  0.0106  0.4632  0.0215
  528MOL0     C69597   7.233   5.324   3.099 -0.3544  0.3790  0.1099
  528MOL0     C69598   7.223   5.182   3.085  0.5145 -0.6886  0.4312
  528MOL0     O69599   7.095   5.134   3.098  0.7582 -0.2536  0.0361
  528MOL0     C69600   7.082   4.988   3.128  0.4020  0.2423  0.3969
  528MOL0     C69601   6.931   4.959   3.141  0.2522 -0.1814  0.0618
  528MOL0     C69602   6.858   4.946   3.006 -0.3624 -0.2952 -0.1704
  528MOL0     C69603   6.707   4.974   3.019 -0.7860 -0.5843 -0.2625
  528MOL0     C69604   6.637   4.920   2.899  0.3539  0.0823  0.3147
  528MOL0     C69605   6.489   4.975   2.899  0.0209 -0.0811  0.2667
  528MOL0     C69606   6.407   4.895   2.802 -0.4654  0.3011  0.2655
  528MOL0     C69607   6.264   4.934   2.801  0.4937  0.7442 -0.1931
  528MOL0    Cl69608   6.242   5.080   2.708 -0.0750  0.4401  0.6196
  528MOL0     C69609   7.341   5.109   3.056  0.0059  0.3308  0.7124
  528MOL0     C69610   7.469   5.167   3.051  1.4393  0.1644  0.1172
  528MOL0     O69611   7.710   5.235   2.888 -0.1330  0.6494 -0.1623
  528MOL0     C69612   7.919   5.422   2.874  0.1863  0.4824 -0.4582
  528MOL0     C69613   8.020   5.521   2.875 -0.6310 -0.9248  0.0295
  528MOL0     N69614   8.788   5.687   2.957 -0.6564  0.3940 -0.0738
  528MOL0     N69615   8.915   5.702   2.930 -0.2535 -0.5405 -0.0753
  528MOL0     C69616  10.170   5.948   3.176 -0.3254  0.1561 -0.1987
  528MOL0     C69617  10.297   5.942   3.235 -0.2788  1.0545 -0.0740
  528MOL0     C69618  10.682   6.164   3.336 -0.1034 -1.2107 -0.4694
  528MOL0     C69619  10.701   6.283   3.399  0.6258 -0.7528  0.2692
  528MOL0     C69620  10.822   6.342   3.409  1.1357 -0.6645 -0.2586
  528MOL0     C69621  10.932   6.281   3.356  0.4563 -0.5586 -0.1855
  528MOL0     O69622  11.047   6.357   3.363 -0.1090  0.7995 -0.1017
  528MOL0     C69623  11.160   6.300   3.292 -0.2509 -0.5698 -0.5358
  528MOL0     C69624  11.275   6.397   3.297  0.5424  0.4443  0.9530
  528MOL0     C69625  11.319   6.421   3.440  0.0454  0.3715 -1.0749
  528MOL0     C69626  11.426   6.534   3.448 -0.6685  0.3832 -0.2749
  528MOL0     C69627  11.549   6.504   3.375 -0.1103  0.1594 -0.2417
  528MOL0     C69628  11.646   6.478   3.305 -0.0006  0.1510 -0.4329
  528MOL0     C69629  10.923   6.162   3.291 -0.2526 -0.5671 -0.0357
  528MOL0     C69630  10.794   6.104   3.287 -0.3745  0.4344  0.3000
  528MOL0     H69631  10.455   6.109   2.991 -2.2656  1.3304 -1.7664
  528MOL0     H69632  10.237   6.093   2.875  0.7571  0.6017  0.3618
  528MOL0     H69633   9.896   5.994   3.158  4.8234 -0.4454  0.8433
  528MOL0     H69634   9.913   5.834   3.076 -2.4898  0.1292  1.0273
  528MOL0     H69635   9.808   5.912   2.883 -0.9589  1.0452 -1.0317
  528MOL0     H69636   9.766   6.072   2.954 -0.6901  0.0307  0.3124
  528MOL0     H69637   9.625   5.967   3.119  1.2883  2.5149 -1.2168
  528MOL0     H69638   9.663   5.806   3.060 -2.1321 -0.4762  0.8084
  528MOL0     H69639   9.532   6.018   2.875 -2.2355 -0.1575 -1.1601
  528MOL0     H69640   9.563   5.851   2.838  0.7786  2.3441 -2.4821
  528MOL0     H69641   9.384   5.945   3.060  1.2037 -2.7475  2.6837
  528MOL0     H69642   9.411   5.782   2.998 -0.3417  0.3014 -0.9630
  528MOL0     H69643   9.337   5.832   2.774 -0.2005  1.2408 -1.0583
  528MOL0     H69644   9.304   6.001   2.814  0.4695 -1.2552 -1.6633
  528MOL0     H69645   9.179   5.737   2.939 -0.3395  0.0039 -2.8995
  528MOL0     H69646   9.148   5.915   2.995  2.2889  2.7828 -0.3693
  528MOL0     H69647   9.078   5.780   2.718  0.9257  0.4713  0.3347
  528MOL0     H69648   9.056   5.952   2.769  1.6743  0.4491  1.7432
  528MOL0     H69649   8.779   5.974   2.790 -1.8576 -1.6282 -1.2268
  528MOL0     H69650   8.553   5.921   2.869  0.9469 -0.7358 -0.5891
  528MOL0     H69651   8.612   5.858   3.034 -0.0276 -3.8542  0.3886
  528MOL0     H69652   8.525   5.639   2.969 -2.2291 -0.3941 -0.0912
  528MOL0     H69653   8.473   5.702   2.803 -0.7930  4.2975 -1.4571
  528MOL0     H69654   8.368   5.757   3.085 -2.0902  0.3780  0.4999
  528MOL0     H69655   8.339   5.878   2.974 -3.0027 -0.4113 -0.1294
  528MOL0     H69656   8.263   5.593   2.896 -1.3972  0.4154 -1.1346
  528MOL0     H69657   8.210   5.744   2.821 -0.7875 -0.7362  0.3329
  528MOL0     H69658   7.895   5.721   3.133 -0.7248 -0.8327  1.6000
  528MOL0     H69659   7.739   5.564   3.138  2.4492  3.7936  1.6217
  528MOL0     H69660   7.363   5.497   3.074 -1.6322  0.6563  2.0808
  528MOL0     H69661   7.148   5.387   3.122  0.9071  1.8510  1.0003
  528MOL0     H69662   7.117   4.973   3.230 -3.8135  0.6801  2.0995
  528MOL0     H69663   7.120   4.927   3.045  0.4576  1.6499 -0.6560
  528MOL0     H69664   6.891   5.035   3.209  3.2851  0.2925  1.5037
  528MOL0     H69665   6.922   4.863   3.193 -0.3178 -0.5047 -0.6203
  528MOL0     H69666   6.897   4.863   2.948  1.0093 -0.1597  0.5154
  528MOL0     H69667   6.894   5.031   2.948 -0.6591 -1.3615 -1.9729
  528MOL0     H69668   6.653   4.944   3.109 -0.6177 -2.1197 -0.6322
  528MOL0     H69669   6.698   5.083   3.015  1.4878 -0.3538 -0.3101
  528MOL0     H69670   6.638   4.812   2.914  0.6083  0.0648  0.1732
  528MOL0     H69671   6.694   4.943   2.809  1.7191  2.5665  1.6793
  528MOL0     H69672   6.487   5.079   2.864 -0.8877 -0.3737 -0.5920
  528MOL0     H69673   6.447   4.973   3.000 -0.9556  2.2154 -0.0213
  528MOL0     H69674   6.447   4.908   2.701 -2.5357 -3.3180 -1.2136
  528MOL0     H69675   6.420   4.787   2.816  1.8909 -0.2796 -4.3383
  528MOL0     H69676   6.224   4.937   2.903 -2.1372 -2.4204 -0.9545
  528MOL0     H69677   6.201   4.855   2.759 -0.4989  0.9677  0.8252
  528MOL0     H69678   7.333   5.002   3.038 -2.1912  0.4958  0.3841
  528MOL0     H69679   7.560   5.113   3.028  1.5676  1.3532 -2.6443
  528MOL0     H69680   7.911   5.351   2.792  1.6065  2.3861 -2.3844
  528MOL0     H69681   8.095   5.502   2.798  0.3858  0.4072  0.6376
  528MOL0     H69682  10.088   5.901   3.229 -0.6550  1.6169  0.6448
  528MOL0     H69683  10.294   5.911   3.339 -0.1108  0.8560 -0.1277
  528MOL0     H69684  10.618   6.342   3.438  0.7832 -1.0800  1.1281
  528MOL0     H69685  10.833   6.440   3.455  1.5981 -0.9288  0.2077
  528MOL0     H69686  11.132   6.290   3.187 -0.8546 -0.5954 -0.3767
  528MOL0     H69687  11.194   6.203   3.329  1.5251  0.6511  1.2255
  528MOL0     H69688  11.360   6.348   3.249  0.0326  0.2071  0.2731
  528MOL0     H69689  11.251   6.490   3.244  0.6880 -0.5365 -0.9211
  528MOL0     H69690  11.359   6.328   3.481 -1.3165  0.7827  1.3655
  528MOL0     H69691  11.231   6.459   3.492  1.9259  0.8151  2.0576
  528MOL0     H69692  11.378   6.623   3.407  0.7505  2.2048  1.7672
  528MOL0     H69693  11.457   6.548   3.552  1.2613  0.9479 -0.8860
  528MOL0     H69694  11.724   6.452   3.236  0.0856 -2.1226  0.4357
  528MOL0     H69695  11.009   6.102   3.261  2.1040  2.6038 -0.0999
  528MOL0     H69696  10.783   6.007   3.238  1.1777  1.0777 -1.4694
  529MOL0     O69697   5.467   6.798   5.252 -0.3054  0.4037  0.3045
  529MOL0     C69698   5.575   6.798   5.317 -0.3343  0.4072  1.0539
  529MOL0     O69699   5.595   6.740   5.438  0.0850  0.4677 -0.4052
  529MOL0     C69700   5.483   6.713   5.507  0.5022  0.6735 -1.2880
  529MOL0     C69701   5.453   6.577   5.526 -0.9784 -0.0887  0.3683
  529MOL0     C69702   5.343   6.538   5.600 -0.6308  0.3143 -0.7581
  529MOL0     C69703   5.246   6.625   5.658  0.1553 -0.0134  0.7932
  529MOL0     O69704   5.125   6.605   5.723  0.3108  0.3755  0.7006
  529MOL0     C69705   5.082   6.470   5.741 -0.7557  0.1365 -0.2368
  529MOL0     C69706   4.981   6.430   5.633 -0.1821  0.6490 -0.6917
  529MOL0     C69707   4.856   6.524   5.659 -0.5670  0.0906 -0.1618
  529MOL0     C69708   4.752   6.493   5.546  0.2053  0.0395 -0.1871
  529MOL0     C69709   4.668   6.616   5.514 -0.5651 -0.2871  0.0829
  529MOL0     C69710   4.689   6.659   5.363  0.6658 -0.9687 -0.2699
  529MOL0     C69711   4.616   6.797   5.339 -0.6529  0.8181  0.0116
  529MOL0     C69712   4.471   6.805   5.378  0.1900  0.3004 -0.3309
  529MOL0     N69713   4.402   6.716   5.288 -0.0443  0.3991  0.5085
  529MOL0     C69714   4.353   6.740   5.161  0.9092 -0.0363 -0.4395
  529MOL0     C69715   4.264   6.645   5.141 -0.7439  0.0186 -0.2974
  529MOL0     C69716   4.189   6.609   5.020  0.6694  0.3406  0.7177
  529MOL0     C69717   4.251   6.499   4.934 -0.4601 -0.2628  0.1186
  529MOL0     C69718   4.352   6.567   4.834  0.0878 -0.0396 -0.1825
  529MOL0     C69719   4.294   6.594   4.696 -0.2771  0.2177  0.8314
  529MOL0     O69720   4.211   6.710   4.712 -0.1489  0.9779 -0.1635
  529MOL0     C69721   4.114   6.734   4.621 -0.8725  0.2298  0.1112
  529MOL0     C69722   4.001   6.807   4.656 -0.0920 -0.3533  0.4630
  529MOL0     C69723   3.897   6.823   4.565 -0.2385  0.2884 -0.5435
  529MOL0     C69724   3.913   6.776   4.436  1.0428 -0.5841  0.2487
  529MOL0     C69725   3.796   6.801   4.338 -0.1570  0.7684  0.0322
  529MOL0     O69726   3.818   6.742   4.214  0.6899  0.6739 -0.3761
  529MOL0     C69727   3.730   6.763   4.112  0.1701 -0.3513 -0.7854
  529MOL0     C69728   3.785   6.794   3.987 -0.9941 -0.3820 -0.0096
  529MOL0     C69729   3.699   6.818   3.875  0.8967 -0.7958  0.0253
  529MOL0     C69730   3.562   6.798   3.877  0.3704  0.4348 -0.7359
  529MOL0     O69731   3.488   6.789   3.769  0.9013 -0.0976  0.1235
  529MOL0     C69732   3.416   6.913   3.750  0.2458 -0.1517  0.4770
  529MOL0     C69733   3.357   6.920   3.610 -0.5466  0.4244 -0.0203
  529MOL0     C69734   3.471   6.910   3.502  0.1432 -0.0455 -0.1486
  529MOL0     C69735   3.562   7.047   3.506  0.3754 -0.3799 -0.1056
  529MOL0     C69736   3.649   7.054   3.383  0.5448  0.4423  0.5044
  529MOL0     C69737   3.725   6.920   3.366 -0.0292  0.0026 -0.2484
  529MOL0     C69738   3.828   6.927   3.251  0.9725 -0.0362  0.5112
  529MOL0     C69739   3.927   7.040   3.273  0.2265 -0.5760 -0.3452
  529MOL0    Cl69740   4.028   7.053   3.136  0.3069 -0.3868 -0.0361
  529MOL0     C69741   3.509   6.759   4.002 -0.0194 -0.0871 -0.6031
  529MOL0     C69742   3.590   6.749   4.121  0.0327  0.7135 -0.6805
  529MOL0     O69743   3.707   6.876   4.362  0.2542 -0.4475  0.0597
  529MOL0     C69744   4.035   6.712   4.391  0.6933  0.5256 -0.5439
  529MOL0     C69745   4.133   6.695   4.489 -0.4085  0.1284  0.2813
  529MOL0     N69746   4.269   6.559   5.253 -0.5170 -0.0278  0.3301
  529MOL0     N69747   4.347   6.606   5.340 -0.1876 -0.0926 -0.1465
  529MOL0     C69748   5.267   6.764   5.622 -0.1989  0.0393 -0.0659
  529MOL0     C69749   5.390   6.803   5.555 -0.1312 -0.1269  0.3774
  529MOL0     C69750   5.691   6.860   5.246  0.0570  0.2098 -0.0004
  529MOL0     C69751   5.816   6.860   5.295  0.3181 -0.2683 -0.1841
  529MOL0     C69752   5.917   6.930   5.223 -0.2077  0.4008 -0.7337
  529MOL0     C69753   5.896   6.996   5.103 -0.3145  0.4846 -0.1600
  529MOL0     O69754   6.004   7.040   5.030  0.4642 -0.6107 -0.3018
  529MOL0     C69755   5.990   7.104   4.893 -0.0602 -0.1055 -0.6206
  529MOL0     C69756   6.126   7.154   4.853  0.3327  0.6538 -0.4873
  529MOL0     C69757   6.166   7.267   4.946  0.3510  0.1036  0.6725
  529MOL0     C69758   6.288   7.340   4.888 -0.3115  0.3485  0.9738
  529MOL0     C69759   6.414   7.261   4.883  0.4885 -0.7293  0.7349
  529MOL0     C69760   6.502   7.182   4.879 -0.1884  0.8738 -0.3288
  529MOL0     C69761   5.764   7.000   5.058  0.1316  0.2516  1.5473
  529MOL0     C69762   5.668   6.926   5.125  0.0906  0.2010  0.0590
  529MOL0     H69763   5.526   6.511   5.482 -1.9150 -0.6049 -0.4323
  529MOL0     H69764   5.335   6.431   5.616  1.1389  0.5289  2.4430
  529MOL0     H69765   5.029   6.463   5.836  0.6642  1.2102  0.6827
  529MOL0     H69766   5.171   6.408   5.759  0.5887  2.1701  0.5315
  529MOL0     H69767   4.974   6.322   5.652  0.6376  0.7599  0.3011
  529MOL0     H69768   5.022   6.453   5.534  2.4806  2.3173  0.6833
  529MOL0     H69769   4.908   6.620   5.652  3.1280 -1.4921  2.5261
  529MOL0     H69770   4.819   6.527   5.762  2.1541 -0.4445  0.9146
  529MOL0     H69771   4.802   6.467   5.452  2.0480 -1.5955  1.1765
  529MOL0     H69772   4.692   6.405   5.569 -0.8050  0.2517 -1.8500
  529MOL0     H69773   4.690   6.702   5.578 -0.4150  0.2380 -0.6611
  529MOL0     H69774   4.565   6.584   5.535 -0.9785 -0.5409 -2.0170
  529MOL0     H69775   4.650   6.579   5.299 -2.3384  0.3766 -0.2645
  529MOL0     H69776   4.793   6.672   5.330  0.0945 -0.0897 -1.8235
  529MOL0     H69777   4.670   6.875   5.394 -1.8403  2.6518 -1.3058
  529MOL0     H69778   4.631   6.823   5.234  1.2105 -1.1470 -0.2867
  529MOL0     H69779   4.428   6.905   5.365 -1.5893 -0.2129  1.1183
  529MOL0     H69780   4.458   6.779   5.483 -0.1032  0.1062 -0.4121
  529MOL0     H69781   4.386   6.816   5.090  1.3645  0.2559  0.0757
  529MOL0     H69782   4.184   6.701   4.961  0.8031  0.4543  0.8838
  529MOL0     H69783   4.085   6.584   5.043 -0.8871  0.7654 -4.5524
  529MOL0     H69784   4.168   6.464   4.872 -0.1377 -1.2090  0.2071
  529MOL0     H69785   4.296   6.416   4.989 -0.3303  0.2439  0.7884
  529MOL0     H69786   4.398   6.655   4.881  2.2449 -0.3747 -1.5234
  529MOL0     H69787   4.430   6.494   4.813 -3.0043 -2.7331 -3.5407
  529MOL0     H69788   4.239   6.507   4.658 -0.3093  1.5925 -2.5358
  529MOL0     H69789   4.377   6.622   4.631  1.0755  0.6924  2.6780
  529MOL0     H69790   3.980   6.850   4.753  0.3316  2.5635 -0.6319
  529MOL0     H69791   3.809   6.874   4.604 -1.8059 -3.6093  1.6226
  529MOL0     H69792   3.888   6.826   3.971 -1.4263 -0.2054 -3.0748
  529MOL0     H69793   3.741   6.840   3.778 -0.1929 -0.7862 -0.4594
  529MOL0     H69794   3.478   7.001   3.764 -1.7730  1.4235 -0.0386
  529MOL0     H69795   3.333   6.910   3.821  1.5137 -2.1564  1.9983
  529MOL0     H69796   3.298   7.010   3.591  0.1233  1.0224  0.6880
  529MOL0     H69797   3.286   6.838   3.596  0.4248 -0.2909 -0.9277
  529MOL0     H69798   3.430   6.913   3.401  0.0109  1.7116 -0.0775
  529MOL0     H69799   3.535   6.822   3.515  0.7001  0.0786 -1.8333
  529MOL0     H69800   3.493   7.132   3.510  0.1000 -0.4408 -2.2094
  529MOL0     H69801   3.632   7.039   3.590 -1.5205  0.1349  1.6071
  529MOL0     H69802   3.720   7.135   3.406  1.5626 -0.3199  0.1515
  529MOL0     H69803   3.584   7.065   3.296 -2.1213 -1.5618  2.0735
  529MOL0     H69804   3.653   6.841   3.340  1.8410 -1.9428  0.1239
  529MOL0     H69805   3.776   6.898   3.460 -0.2222  1.0267  0.1043
  529MOL0     H69806   3.879   6.831   3.244 -2.5038 -1.8788 -3.4823
  529MOL0     H69807   3.770   6.943   3.160  0.3273 -0.1608  0.8930
  529MOL0     H69808   3.997   7.015   3.353 -1.0256 -0.3973  0.8443
  529MOL0     H69809   3.884   7.140   3.282 -0.2750 -0.8630  0.5974
  529MOL0     H69810   3.408   6.718   4.001 -0.6680  1.1907  2.2907
  529MOL0     H69811   3.553   6.705   4.212  2.6236 -1.2128 -0.4324
  529MOL0     H69812   4.064   6.680   4.291 -0.5573 -4.3086  0.3614
  529MOL0     H69813   4.224   6.647   4.454 -1.8516 -1.2770 -1.8125
  529MOL0     H69814   5.192   6.837   5.653 -1.1377 -0.4753 -1.0785
  529MOL0     H69815   5.398   6.909   5.535  0.9649 -0.6307 -2.4805
  529MOL0     H69816   5.839   6.816   5.391  1.5634 -1.8623 -1.1492
  529MOL0     H69817   6.018   6.927   5.263 -1.3537 -0.7861  2.4446
  529MOL0     H69818   5.917   7.185   4.893 -1.0824 -0.9305  1.6067
  529MOL0     H69819   5.957   7.029   4.820  0.9401  1.6157 -2.9615
  529MOL0     H69820   6.205   7.078   4.862 -0.1371  0.1311 -0.7889
  529MOL0     H69821   6.121   7.190   4.750 -1.9518  1.7219 -0.0693
  529MOL0     H69822   6.183   7.228   5.046  1.0602  1.0494  0.9308
  529MOL0     H69823   6.083   7.337   4.960 -0.6205 -0.4948 -1.5472
  529MOL0     H69824   6.269   7.381   4.789 -1.0482  1.3654  1.5226
  529MOL0     H69825   6.297   7.429   4.950  0.9879  1.5565 -0.8562
  529MOL0     H69826   6.576   7.105   4.881 -0.3233  0.7369 -0.5314
  529MOL0     H69827   5.738   7.058   4.971  3.0701  0.8855  0.9850
  529MOL0     H69828   5.568   6.929   5.082  2.2187  0.1332 -5.8622
  530MOL0     O69829   8.368   6.829   2.595 -0.0224 -0.0383 -0.0945
  530MOL0     C69830   8.369   6.954   2.606  0.3391 -0.5011 -0.0537
  530MOL0     O69831   8.261   7.032   2.648  0.0860 -0.4166 -0.3061
  530MOL0     C69832   8.143   6.966   2.697 -0.5327  0.1736 -0.3884
  530MOL0     C69833   8.136   6.858   2.788 -0.8822  0.4115 -0.5296
  530MOL0     C69834   8.015   6.808   2.835 -0.8305 -0.6533  0.1744
  530MOL0     C69835   7.902   6.878   2.808  0.6228 -0.3605  0.1946
  530MOL0     O69836   7.784   6.812   2.834 -0.0922 -0.1538 -0.6544
  530MOL0     C69837   7.696   6.896   2.915 -0.0761  0.8882  0.2580
  530MOL0     C69838   7.607   6.796   3.000 -0.0473  0.1377  0.2843
  530MOL0     C69839   7.680   6.744   3.123  0.7221  0.0006 -0.6885
  530MOL0     C69840   7.590   6.691   3.233  0.2293  0.5988 -0.5012
  530MOL0     C69841   7.505   6.567   3.194  0.1124 -1.5977 -1.2366
  530MOL0     C69842   7.442   6.521   3.320 -0.6602  0.0874 -0.3089
  530MOL0     C69843   7.356   6.393   3.294  0.2342  0.1536  0.2783
  530MOL0     C69844   7.216   6.429   3.252 -0.4278  0.3955 -0.2216
  530MOL0     N69845   7.126   6.318   3.293 -0.3936 -0.8669 -0.4739
  530MOL0     C69846   7.096   6.290   3.430 -0.7230  0.0596 -0.2335
  530MOL0     C69847   7.043   6.168   3.425 -0.2195 -1.2124 -0.4112
  530MOL0     C69848   6.975   6.110   3.543  0.1016 -0.2490 -0.3693
  530MOL0     C69849   6.942   5.958   3.514 -0.2946 -0.6015  0.4129
  530MOL0     C69850   6.887   5.882   3.632  0.0200 -0.0263 -0.3992
  530MOL0     C69851   6.744   5.931   3.656 -0.0343 -0.2798 -0.5546
  530MOL0     O69852   6.700   5.872   3.775 -0.3338  0.0743  0.6467
  530MOL0     C69853   6.564   5.886   3.786  0.6054 -0.6228  0.2668
  530MOL0     C69854   6.507   5.805   3.883  0.9847  0.8878  0.5370
  530MOL0     C69855   6.368   5.793   3.903 -0.1486  0.3120 -0.1967
  530MOL0     C69856   6.282   5.871   3.833 -0.1661 -0.6924  0.5465
  530MOL0     C69857   6.141   5.875   3.862  0.2530  0.4582 -0.4093
  530MOL0     O69858   6.064   5.972   3.805  0.4271 -0.2600  0.1088
  530MOL0     C69859   5.924   5.982   3.830 -0.2480 -0.2134 -0.9221
  530MOL0     C69860   5.847   6.005   3.721 -0.0873  0.4609  0.6178
  530MOL0     C69861   5.706   6.008   3.735 -0.1244  0.3963  0.1156
  530MOL0     C69862   5.642   5.987   3.857  0.3030  1.0858  0.6184
  530MOL0     O69863   5.506   5.989   3.884 -0.7013  0.2642 -1.2268
  530MOL0     C69864   5.421   6.075   3.803 -0.2627  0.3109 -0.0683
  530MOL0     C69865   5.283   6.069   3.871  1.0202 -0.3052  0.0267
  530MOL0     C69866   5.207   5.933   3.885 -0.3252 -0.0152 -0.4405
  530MOL0     C69867   5.055   5.961   3.877 -0.1028  0.2144 -0.2788
  530MOL0     C69868   4.962   5.842   3.918  1.1784  0.0568 -0.5938
  530MOL0     C69869   4.962   5.799   4.070  0.0067 -0.9175 -0.6505
  530MOL0     C69870   4.858   5.695   4.098 -0.0850  0.3501  0.1185
  530MOL0     C69871   4.892   5.612   4.229  0.1066  0.1214 -0.2040
  530MOL0    Cl69872   5.034   5.527   4.206 -0.0123 -0.0293  0.0645
  530MOL0     C69873   5.733   5.974   3.965  0.8130  0.5009  0.9045
  530MOL0     C69874   5.867   5.980   3.953 -0.8284 -0.0345 -0.7695
  530MOL0     O69875   6.100   5.791   3.936 -0.5947 -0.4960  0.0270
  530MOL0     C69876   6.339   5.974   3.752 -0.6198  0.5741  0.3064
  530MOL0     C69877   6.474   5.983   3.725  0.0226  0.1559  0.3741
  530MOL0     N69878   7.068   6.123   3.291  0.9099  0.9629  0.0078
  530MOL0     N69879   7.110   6.208   3.218 -0.0989 -0.8026  0.2141
  530MOL0     C69880   7.898   6.995   2.729 -0.1931 -0.6419 -0.0435
  530MOL0     C69881   8.022   7.040   2.683  0.7815 -0.7681  0.4356
  530MOL0     C69882   8.495   7.034   2.577  0.4066 -0.2204 -0.2960
  530MOL0     C69883   8.485   7.172   2.556  0.3966 -0.0326 -0.2802
  530MOL0     C69884   8.595   7.256   2.534  0.6711 -1.4998  0.7896
  530MOL0     C69885   8.722   7.204   2.519  0.4630 -0.0270 -0.3540
  530MOL0     O69886   8.833   7.279   2.486  0.6309 -0.1273 -0.7374
  530MOL0     C69887   8.830   7.420   2.514  0.3233 -0.0228  0.7163
  530MOL0     C69888   8.811   7.461   2.658 -0.3904 -0.2126  0.3416
  530MOL0     C69889   8.897   7.384   2.765 -0.0822  0.3069 -0.2957
  530MOL0     C69890   8.846   7.406   2.907 -0.0535  0.6671  0.2102
  530MOL0     C69891   8.815   7.548   2.925  0.6888  0.1382 -0.2282
  530MOL0     C69892   8.773   7.667   2.933  0.8255  0.5947 -0.4335
  530MOL0     C69893   8.734   7.068   2.526 -0.0043 -0.9239 -0.3391
  530MOL0     C69894   8.623   6.982   2.548  0.6737  0.5925 -0.8151
  530MOL0     H69895   8.220   6.794   2.811 -0.3434  1.6156  1.0182
  530MOL0     H69896   8.023   6.721   2.900 -2.7610  0.9793  2.7637
  530MOL0     H69897   7.638   6.959   2.847  0.7025  1.2504 -0.0869
  530MOL0     H69898   7.752   6.966   2.977  3.8359 -2.4880  0.9926
  530MOL0     H69899   7.557   6.716   2.943  2.0112 -1.1611  0.1978
  530MOL0     H69900   7.531   6.864   3.040  0.1414 -1.2245  3.1868
  530MOL0     H69901   7.741   6.827   3.161  2.1241 -0.2206 -2.3542
  530MOL0     H69902   7.748   6.665   3.090  2.5047  1.2289 -0.0947
  530MOL0     H69903   7.658   6.677   3.317  1.5055  1.5855 -1.3251
  530MOL0     H69904   7.508   6.757   3.262 -1.2337 -1.5279  0.4736
  530MOL0     H69905   7.579   6.498   3.152  3.6468  0.9581  0.3056
  530MOL0     H69906   7.429   6.600   3.121  1.3381  2.4695 -0.8942
  530MOL0     H69907   7.378   6.598   3.363  0.5379  1.3534 -0.7452
  530MOL0     H69908   7.522   6.486   3.386 -2.4038 -3.8044  0.0518
  530MOL0     H69909   7.406   6.325   3.225 -0.9951 -2.9389  2.1958
  530MOL0     H69910   7.361   6.336   3.388  2.4227  3.1921  2.1990
  530MOL0     H69911   7.207   6.449   3.145  1.6596 -1.0385 -0.7279
  530MOL0     H69912   7.188   6.522   3.301 -0.0177 -0.6299  2.0940
  530MOL0     H69913   7.101   6.350   3.520  1.3966  0.1782 -0.3832
  530MOL0     H69914   6.880   6.161   3.563  0.0825  1.0680 -3.4342
  530MOL0     H69915   7.028   6.119   3.638 -1.1266  3.5412  0.1395
  530MOL0     H69916   7.038   5.916   3.482 -0.6178 -1.2774  0.3144
  530MOL0     H69917   6.877   5.942   3.427  0.7089  0.9550 -0.6728
  530MOL0     H69918   6.887   5.774   3.612 -0.2067 -0.2258  0.6002
  530MOL0     H69919   6.947   5.895   3.722 -0.1702 -0.4270 -0.2116
  530MOL0     H69920   6.683   5.893   3.573 -2.1654  0.7378  0.4660
  530MOL0     H69921   6.735   6.040   3.655  1.3536 -0.0748  1.8422
  530MOL0     H69922   6.569   5.739   3.942 -1.3117 -0.9958  0.9740
  530MOL0     H69923   6.326   5.731   3.981  0.8311 -1.4286 -0.9935
  530MOL0     H69924   5.885   6.031   3.622 -3.9591  3.2969 -0.3766
  530MOL0     H69925   5.652   6.039   3.646  3.8318  0.7363 -2.4392
  530MOL0     H69926   5.412   6.032   3.703  2.7388 -1.2219  0.2087
  530MOL0     H69927   5.454   6.179   3.811 -1.5119  0.7237  0.0923
  530MOL0     H69928   5.215   6.137   3.817 -0.7505 -0.9587  1.3328
  530MOL0     H69929   5.283   6.109   3.973 -2.3776 -0.7142  0.3307
  530MOL0     H69930   5.237   5.891   3.982  4.4664 -0.5976 -1.8744
  530MOL0     H69931   5.231   5.862   3.805 -1.1376  1.1185 -1.7257
  530MOL0     H69932   5.028   6.037   3.950 -0.7021 -1.0280  0.8324
  530MOL0     H69933   5.036   6.004   3.778  3.8474 -1.0610 -1.7968
  530MOL0     H69934   4.981   5.754   3.855  0.1067  0.1645 -1.0949
  530MOL0     H69935   4.858   5.864   3.893  0.4741 -1.7352  0.5342
  530MOL0     H69936   4.939   5.886   4.132 -1.7284 -0.4975 -1.8022
  530MOL0     H69937   5.062   5.758   4.083 -0.5444 -2.8397 -1.9843
  530MOL0     H69938   4.779   5.763   4.133  3.7119  4.4231  1.6655
  530MOL0     H69939   4.829   5.633   4.013 -0.5596 -0.1425  0.6251
  530MOL0     H69940   4.809   5.543   4.245  1.6632 -1.1912  2.8927
  530MOL0     H69941   4.894   5.670   4.322 -0.1142 -2.5686  1.5781
  530MOL0     H69942   5.686   5.962   4.062  0.2006  0.6300  0.6243
  530MOL0     H69943   5.931   5.969   4.040 -0.4510 -2.7534 -1.3102
  530MOL0     H69944   6.274   6.053   3.717  1.0743  0.6800 -3.0068
  530MOL0     H69945   6.509   6.062   3.660 -1.3476  0.4841  0.0012
  530MOL0     H69946   7.803   7.045   2.717  0.7781  1.6317  1.0379
  530MOL0     H69947   8.032   7.136   2.634  4.2110 -1.3510 -0.2162
  530MOL0     H69948   8.390   7.222   2.571  0.5087  0.6897 -1.7614
  530MOL0     H69949   8.573   7.362   2.535 -0.6249 -1.5712 -3.2903
  530MOL0     H69950   8.760   7.461   2.441  2.3323  0.0089 -1.3205
  530MOL0     H69951   8.923   7.462   2.474 -0.7458 -0.5075 -2.5757
  530MOL0     H69952   8.840   7.567   2.659 -0.6446 -0.1266  2.1194
  530MOL0     H69953   8.707   7.438   2.682 -0.6105 -0.2384 -0.5940
  530MOL0     H69954   8.995   7.427   2.741 -0.7150  1.7933 -0.3215
  530MOL0     H69955   8.898   7.276   2.744  3.9946  0.5146 -2.2408
  530MOL0     H69956   8.760   7.342   2.931  0.8878  0.1341  2.4301
  530MOL0     H69957   8.912   7.372   2.987 -0.7366  0.4688  0.7011
  530MOL0     H69958   8.729   7.765   2.936  0.3414  0.3650  0.1773
  530MOL0     H69959   8.833   7.024   2.519  0.7856  0.4828  1.2382
  530MOL0     H69960   8.638   6.875   2.543  0.3684  0.5823 -1.7954
  531MOL0     O69961   5.809   5.666   7.550  0.1104 -0.8525 -0.3792
  531MOL0     C69962   5.870   5.759   7.504  0.3616 -0.6226  0.9297
  531MOL0     O69963   5.819   5.847   7.411  0.5041 -0.3493  0.0300
  531MOL0     C69964   5.693   5.858   7.368  0.7380 -0.2323 -0.4483
  531MOL0     C69965   5.671   5.942   7.255 -0.0713  0.4419  0.5907
  531MOL0     C69966   5.536   5.972   7.210 -0.2875 -0.4459  0.2554
  531MOL0     C69967   5.422   5.935   7.285 -0.2024  0.5024 -0.3836
  531MOL0     O69968   5.305   5.975   7.240 -0.1677  0.2108  0.0094
  531MOL0     C69969   5.260   6.090   7.300  0.5485 -0.3196  0.3903
  531MOL0     C69970   5.114   6.125   7.241  0.4415 -0.0724  0.4236
  531MOL0     C69971   5.045   6.246   7.294 -0.2736 -0.2114  0.0942
  531MOL0     C69972   4.892   6.252   7.273  0.4456 -0.2956 -1.0229
  531MOL0     C69973   4.824   6.367   7.349 -0.3192 -0.1229  0.1064
  531MOL0     C69974   4.895   6.496   7.337  0.0139 -0.5424  0.6576
  531MOL0     C69975   4.822   6.607   7.422 -0.4585  0.2301 -0.5382
  531MOL0     C69976   4.678   6.646   7.379 -0.4327  0.1497  0.1813
  531MOL0     N69977   4.564   6.575   7.444  0.7708  0.0922  0.5427
  531MOL0     C69978   4.523   6.577   7.573 -0.5005  0.0855 -0.0228
  531MOL0     C69979   4.414   6.508   7.585  0.1240  0.4000  0.8538
  531MOL0     C69980   4.333   6.488   7.707 -0.3356  0.5835  0.2335
  531MOL0     C69981   4.183   6.518   7.680  0.4664  0.4978 -0.8671
  531MOL0     C69982   4.108   6.441   7.793 -0.2304 -0.4129  0.3594
  531MOL0     C69983   3.953   6.448   7.763 -0.5629  0.6530 -0.5293
  531MOL0     O69984   3.888   6.422   7.891  0.2491 -0.1227  0.1122
  531MOL0     C69985   3.755   6.384   7.896 -0.4004  0.4874  0.4397
  531MOL0     C69986   3.665   6.372   7.789 -0.2073 -0.4006  0.2958
  531MOL0     C69987   3.534   6.345   7.811 -0.0624  0.3237 -0.5455
  531MOL0     C69988   3.486   6.324   7.938 -0.4097 -0.6779  0.3977
  531MOL0     C69989   3.337   6.300   7.960 -0.6899  0.2016 -0.4806
  531MOL0     O69990   3.298   6.267   8.080  0.4602  0.5527  0.4068
  531MOL0     C69991   3.165   6.244   8.100 -0.0639  0.3158  0.2951
  531MOL0     C69992   3.135   6.131   8.173 -0.1467 -0.4953  0.4238
  531MOL0     C69993   3.000   6.099   8.200  0.6130  0.2593  0.6690
  531MOL0     C69994   2.892   6.184   8.161 -0.0984 -0.1010  0.2377
  531MOL0     O69995   2.750   6.170   8.191 -0.5948  0.4295 -0.5701
  531MOL0     C69996   2.712   6.069   8.274 -0.0088  0.5367  0.7533
  531MOL0     C69997   2.555   6.067   8.277 -0.6428 -0.1984  0.9877
  531MOL0     C69998   2.500   5.933   8.331 -0.2754  0.2017  0.7232
  531MOL0     C69999   2.349   5.937   8.339  0.5411 -0.4090 -0.9006
  531MOL0     C70000   2.285   5.800   8.332  0.2606  0.6164  0.3410
  531MOL0     C70001   2.271   5.745   8.476  0.1679 -0.3168  0.2702
  531MOL0     C70002   2.174   5.621   8.478 -0.3978 -0.9828 -0.1804
  531MOL0     C70003   2.024   5.659   8.450  0.7713  0.3358 -0.4233
  531MOL0    Cl70004   1.912   5.528   8.462 -0.3228 -0.1050 -0.1194
  531MOL0     C70005   2.930   6.296   8.080 -0.2652 -0.4326 -0.2331
  531MOL0     C70006   3.061   6.326   8.050  0.3549 -0.3034  0.3992
  531MOL0     O70007   3.267   6.283   7.859 -0.2519 -0.8939 -0.4028
  531MOL0     C70008   3.578   6.334   8.046 -0.2461  0.2812 -0.6833
  531MOL0     C70009   3.712   6.367   8.021 -0.7726 -0.0133 -0.3496
  531MOL0     N70010   4.381   6.463   7.456  0.9107 -0.2155  0.4462
  531MOL0     N70011   4.472   6.501   7.375  0.1153  0.3732  0.4396
  531MOL0     C70012   5.445   5.846   7.397 -0.6008 -0.6666 -0.5141
  531MOL0     C70013   5.575   5.816   7.441 -0.5053  0.2143  0.3534
  531MOL0     C70014   6.003   5.787   7.554 -1.2345 -0.5301 -0.5004
  531MOL0     C70015   6.070   5.903   7.510 -0.5242  0.0706  0.2247
  531MOL0     C70016   6.199   5.927   7.546  1.1064  0.2969 -0.4765
  531MOL0     C70017   6.270   5.846   7.636 -0.5136  0.0926 -0.0595
  531MOL0     O70018   6.409   5.861   7.660 -0.7636 -0.6425 -0.0847
  531MOL0     C70019   6.482   5.778   7.752 -0.2256 -0.1377  0.2920
  531MOL0     C70020   6.608   5.845   7.790  0.4875  0.0789  0.0220
  531MOL0     C70021   6.697   5.877   7.664  0.3794 -0.3430 -0.5473
  531MOL0     C70022   6.848   5.880   7.707 -0.0191  0.2364  0.3106
  531MOL0     C70023   6.934   5.948   7.605  0.0758  0.1357 -0.3383
  531MOL0     C70024   7.022   6.001   7.536 -1.0298  0.2054 -0.5427
  531MOL0     C70025   6.204   5.730   7.685 -0.3376  0.2621 -0.1916
  531MOL0     C70026   6.067   5.704   7.651 -0.9203  0.2814 -0.0748
  531MOL0     H70027   5.746   5.971   7.182  0.0873  0.0097  0.5777
  531MOL0     H70028   5.527   6.036   7.123  4.3811  2.3334  1.4672
  531MOL0     H70029   5.323   6.172   7.264 -1.6090  0.1638 -2.5791
  531MOL0     H70030   5.263   6.088   7.410 -0.5456 -1.2274  0.4213
  531MOL0     H70031   5.052   6.039   7.267  3.1245 -1.3810  3.0074
  531MOL0     H70032   5.110   6.124   7.132 -0.7069 -1.1455  0.4605
  531MOL0     H70033   5.089   6.335   7.247  1.5310 -0.0196  1.9852
  531MOL0     H70034   5.064   6.237   7.402 -2.9256  0.9235  0.7314
  531MOL0     H70035   4.873   6.289   7.172 -1.1161  1.9908  0.0045
  531MOL0     H70036   4.833   6.161   7.289 -0.6699  0.6063  0.2177
  531MOL0     H70037   4.815   6.348   7.457  0.3704 -0.8749  0.0384
  531MOL0     H70038   4.729   6.372   7.295 -0.1964 -1.5889 -0.2679
  531MOL0     H70039   4.897   6.530   7.233  1.8023 -0.3820  0.7089
  531MOL0     H70040   4.999   6.497   7.370 -0.1251 -2.3157  1.2798
  531MOL0     H70041   4.839   6.586   7.529  1.1875 -0.1556 -0.8414
  531MOL0     H70042   4.881   6.697   7.403 -1.0270  0.2525 -2.3820
  531MOL0     H70043   4.661   6.641   7.271  0.5071 -0.6249  0.0494
  531MOL0     H70044   4.678   6.751   7.410  2.7613  0.9462 -2.0241
  531MOL0     H70045   4.570   6.638   7.651 -1.1802 -0.4509  0.8268
  531MOL0     H70046   4.358   6.555   7.790  0.1367 -2.0143  2.3369
  531MOL0     H70047   4.355   6.385   7.735  1.1972 -0.1304 -3.1060
  531MOL0     H70048   4.145   6.489   7.581 -1.4383  1.5439 -0.4809
  531MOL0     H70049   4.180   6.627   7.680 -0.7672  0.4985  0.8304
  531MOL0     H70050   4.141   6.337   7.799  0.7827 -0.1945 -0.9481
  531MOL0     H70051   4.123   6.494   7.888  1.0256 -1.2787  0.6675
  531MOL0     H70052   3.929   6.365   7.696 -0.0948 -1.6431  1.9951
  531MOL0     H70053   3.919   6.539   7.712  1.5465  0.7510 -1.9119
  531MOL0     H70054   3.708   6.399   7.693 -0.5023  0.0909  0.2938
  531MOL0     H70055   3.463   6.354   7.729  2.8683  1.6676 -3.1353
  531MOL0     H70056   3.221   6.079   8.213  0.6826 -0.4936 -1.2800
  531MOL0     H70057   2.968   6.018   8.264 -2.2955  1.6496  1.1582
  531MOL0     H70058   2.745   6.074   8.378 -0.2859  2.0796  0.7824
  531MOL0     H70059   2.731   5.970   8.230 -3.3904  0.6680 -1.3957
  531MOL0     H70060   2.519   6.073   8.174  1.4856 -2.3705  0.0328
  531MOL0     H70061   2.529   6.151   8.342  3.0935  1.2954  0.8357
  531MOL0     H70062   2.545   5.900   8.425 -2.4283  1.5549  2.3259
  531MOL0     H70063   2.536   5.859   8.259 -1.3518 -0.0652  0.4384
  531MOL0     H70064   2.325   5.994   8.429  0.1248  0.2607 -1.4262
  531MOL0     H70065   2.307   5.993   8.255 -0.0786  1.8434  0.8360
  531MOL0     H70066   2.356   5.735   8.281  0.6307  0.9415  0.4367
  531MOL0     H70067   2.194   5.791   8.274  2.3000 -2.4056 -2.8086
  531MOL0     H70068   2.237   5.822   8.545  1.6637  0.7603 -0.1493
  531MOL0     H70069   2.372   5.712   8.502 -0.0817 -0.3071  1.2962
  531MOL0     H70070   2.210   5.544   8.410  3.2977  0.3454  0.0553
  531MOL0     H70071   2.187   5.575   8.577 -1.9535 -2.1686 -0.4968
  531MOL0     H70072   2.011   5.706   8.353 -1.2887 -2.0178 -1.3990
  531MOL0     H70073   2.003   5.732   8.528 -1.5941 -0.6549 -0.0328
  531MOL0     H70074   2.851   6.356   8.038  0.0052 -1.3656 -2.2068
  531MOL0     H70075   3.089   6.420   8.004  1.3157  1.8580  4.8136
  531MOL0     H70076   3.549   6.317   8.150  0.5715 -1.8558 -0.7563
  531MOL0     H70077   3.775   6.365   8.109 -0.8256 -0.3135 -0.3182
  531MOL0     H70078   5.369   5.817   7.468  0.0640  1.2851  1.0790
  531MOL0     H70079   5.591   5.754   7.529  3.8108 -0.2764 -0.5279
  531MOL0     H70080   6.041   5.978   7.437 -3.2633 -2.8272 -1.9029
  531MOL0     H70081   6.245   6.016   7.504  0.2092  1.8072  1.5545
  531MOL0     H70082   6.505   5.683   7.703 -1.1642 -0.1149 -0.2029
  531MOL0     H70083   6.420   5.755   7.839 -0.3528 -0.4726  0.1127
  531MOL0     H70084   6.597   5.933   7.854  1.7616  1.0388 -1.0082
  531MOL0     H70085   6.665   5.768   7.842  1.0734 -0.8679 -1.9241
  531MOL0     H70086   6.671   5.975   7.621  1.9554 -0.2559 -1.3812
  531MOL0     H70087   6.667   5.804   7.588  1.3692 -0.4122 -0.8809
  531MOL0     H70088   6.850   5.925   7.806 -0.8924 -0.9727  0.9000
  531MOL0     H70089   6.873   5.774   7.712 -2.4812 -0.5601 -1.9699
  531MOL0     H70090   7.104   6.037   7.478  1.5159 -1.5463  1.7552
  531MOL0     H70091   6.247   5.657   7.753  1.7049  1.9808  0.4558
  531MOL0     H70092   6.026   5.616   7.700 -2.0966  0.6714 -0.3294
  532MOL0     O70093   7.127   0.630   9.748  0.0403 -0.4081 -0.4255
  532MOL0     C70094   7.159   0.567   9.646  0.1174  0.3119  0.7388
  532MOL0     O70095   7.068   0.536   9.550  0.2591 -0.4062  0.2744
  532MOL0     C70096   6.936   0.582   9.559  0.3266 -0.2121 -0.4674
  532MOL0     C70097   6.903   0.708   9.501  0.1205  0.2843  0.3730
  532MOL0     C70098   6.768   0.749   9.510  0.3573  0.6088  0.3207
  532MOL0     C70099   6.667   0.665   9.557 -0.9904  0.0297 -0.4847
  532MOL0     O70100   6.541   0.704   9.532 -0.1436 -0.3037 -0.0198
  532MOL0     C70101   6.441   0.603   9.537  0.1405  0.4106 -0.2363
  532MOL0     C70102   6.345   0.635   9.424  0.5661  0.6911  0.1168
  532MOL0     C70103   6.221   0.543   9.399 -0.7952  0.3995 -0.1647
  532MOL0     C70104   6.115   0.560   9.506 -0.4746 -0.2610 -0.2423
  532MOL0     C70105   5.980   0.473   9.506 -0.2015  0.2957  0.0847
  532MOL0     C70106   5.866   0.549   9.580 -0.0095 -0.3132 -0.5710
  532MOL0     C70107   5.739   0.456   9.578 -0.1069 -0.6590 -0.2966
  532MOL0     C70108   5.619   0.526   9.639 -0.0926 -0.3999  0.0886
  532MOL0     N70109   5.505   0.433   9.659  1.1248  1.2269 -0.4415
  532MOL0     C70110   5.432   0.361   9.566 -0.7687 -0.4612  0.3269
  532MOL0     C70111   5.326   0.301   9.640 -0.6783 -0.7495  0.7860
  532MOL0     C70112   5.226   0.208   9.588 -0.0292  0.5010  0.3615
  532MOL0     C70113   5.298   0.080   9.563  0.5119  0.6512 -0.8846
  532MOL0     C70114   5.198  -0.032   9.528  0.0049 -1.0093  0.1291
  532MOL0     C70115   5.260  -0.162   9.484  0.0599 -0.3873  0.1010
  532MOL0     O70116   5.170  -0.279   9.496 -0.1995 -0.2576 -0.6054
  532MOL0     C70117   5.082  -0.295   9.393 -0.0625 -0.0020 -0.6042
  532MOL0     C70118   5.073  -0.217   9.277 -0.1819 -0.6645 -0.6264
  532MOL0     C70119   4.982  -0.229   9.175  0.3528  0.3461  0.2062
  532MOL0     C70120   4.897  -0.341   9.190  0.2459  0.1996 -0.2430
  532MOL0     C70121   4.795  -0.366   9.084 -0.3111 -0.5517 -0.4224
  532MOL0     O70122   4.728  -0.485   9.090  0.1491 -0.1756  0.8996
  532MOL0     C70123   4.641  -0.523   8.999 -0.0936 -0.2632  0.0633
  532MOL0     C70124   4.649  -0.657   8.952 -0.2876  0.3759  0.1129
  532MOL0     C70125   4.558  -0.696   8.854  0.1310  0.0269  0.5022
  532MOL0     C70126   4.454  -0.611   8.803  0.6556  0.5791  0.4356
  532MOL0     O70127   4.354  -0.653   8.717  0.3381 -0.2703  0.2956
  532MOL0     C70128   4.344  -0.776   8.651  0.4579  0.9127  0.8149
  532MOL0     C70129   4.452  -0.767   8.542 -0.2921  0.3174 -0.1010
  532MOL0     C70130   4.485  -0.906   8.486  0.7416  1.3448 -0.3920
  532MOL0     C70131   4.628  -0.908   8.439 -0.5764  0.5106  1.1887
  532MOL0     C70132   4.667  -1.044   8.374  0.3139  0.2547  0.3021
  532MOL0     C70133   4.804  -1.037   8.319  0.0439  0.8889 -0.1797
  532MOL0     C70134   4.851  -1.177   8.266 -0.8669  0.4253 -0.1063
  532MOL0     C70135   4.776  -1.205   8.135  0.5085 -0.1459  0.4079
  532MOL0    Cl70136   4.869  -1.343   8.059  0.1238 -0.1765 -0.0428
  532MOL0     C70137   4.437  -0.483   8.864 -1.6202  0.5223  0.3592
  532MOL0     C70138   4.533  -0.442   8.964  0.3395  0.3060  0.3089
  532MOL0     O70139   4.786  -0.279   8.993  0.1972 -0.0317 -0.3895
  532MOL0     C70140   4.895  -0.423   9.304 -0.4739  0.8780 -0.0008
  532MOL0     C70141   4.997  -0.402   9.400 -1.0533  0.0475  0.2164
  532MOL0     N70142   5.341   0.333   9.766 -0.7569 -0.0004 -0.0725
  532MOL0     N70143   5.440   0.413   9.781  0.4652 -0.2906  0.0909
  532MOL0     C70144   6.706   0.550   9.627  0.2355  0.3643 -0.0214
  532MOL0     C70145   6.836   0.513   9.633  0.9114  0.2084  0.0093
  532MOL0     C70146   7.298   0.519   9.623  0.0758 -0.5306 -0.1897
  532MOL0     C70147   7.335   0.471   9.502  0.0544  0.8537 -0.1532
  532MOL0     C70148   7.457   0.409   9.483  0.3684  0.5159  0.8973
  532MOL0     C70149   7.546   0.397   9.591 -0.5964  0.5954 -0.4012
  532MOL0     O70150   7.675   0.347   9.579  0.2467 -0.4388 -0.3464
  532MOL0     C70151   7.714   0.261   9.472 -0.0357  0.3725 -0.4023
  532MOL0     C70152   7.791   0.157   9.555  0.2551 -0.5322  0.4461
  532MOL0     C70153   7.924   0.212   9.626  0.1360 -0.1144  0.7736
  532MOL0     C70154   8.017   0.097   9.667  0.3097 -0.2670  0.8334
  532MOL0     C70155   8.070   0.043   9.547  0.1378  0.6618  0.3638
  532MOL0     C70156   8.118   0.002   9.440 -0.2135  0.0511 -0.2731
  532MOL0     C70157   7.511   0.451   9.719  0.3674  0.2756 -0.5178
  532MOL0     C70158   7.386   0.507   9.729  0.3800 -0.3408 -0.0335
  532MOL0     H70159   6.976   0.771   9.452  0.0622  1.5361  1.8015
  532MOL0     H70160   6.743   0.851   9.480  2.6913  1.4231  0.9287
  532MOL0     H70161   6.392   0.586   9.633  2.9898  1.4037  1.4952
  532MOL0     H70162   6.483   0.508   9.502 -2.2701  0.2230 -3.0833
  532MOL0     H70163   6.415   0.619   9.342  0.0475 -1.3754  0.0247
  532MOL0     H70164   6.313   0.739   9.436 -1.8599 -0.1488  1.6665
  532MOL0     H70165   6.261   0.442   9.403  0.5972  0.9175 -0.1596
  532MOL0     H70166   6.180   0.543   9.298 -2.9874 -2.1926  0.6224
  532MOL0     H70167   6.164   0.559   9.604  0.0338 -1.2170 -0.4953
  532MOL0     H70168   6.074   0.661   9.491  0.6066  0.3691  0.8486
  532MOL0     H70169   6.002   0.385   9.568  1.0437 -0.1269 -0.9014
  532MOL0     H70170   5.951   0.449   9.403 -0.2770  1.6929 -0.2349
  532MOL0     H70171   5.844   0.635   9.516  1.0066 -1.3412 -2.4113
  532MOL0     H70172   5.897   0.577   9.680  1.1295 -0.9473 -0.7328
  532MOL0     H70173   5.713   0.440   9.473 -2.2475 -1.2236  0.2819
  532MOL0     H70174   5.770   0.363   9.625  0.1276  0.8275  2.7119
  532MOL0     H70175   5.579   0.605   9.575 -4.2237 -2.5337 -0.2883
  532MOL0     H70176   5.655   0.563   9.735  3.2300 -1.1321 -0.7091
  532MOL0     H70177   5.453   0.351   9.460 -0.7490  1.2209  0.1442
  532MOL0     H70178   5.170   0.245   9.501 -2.1489 -0.0670  1.4209
  532MOL0     H70179   5.144   0.198   9.659 -0.2582  0.8939  0.1624
  532MOL0     H70180   5.368   0.053   9.643  1.4735 -0.9761 -2.2115
  532MOL0     H70181   5.353   0.100   9.471  1.3478  2.2922 -0.0720
  532MOL0     H70182   5.131  -0.043   9.614  1.7709 -0.0737  1.7143
  532MOL0     H70183   5.137  -0.003   9.443  0.1307 -5.0942 -1.5901
  532MOL0     H70184   5.346  -0.181   9.550  1.0648  1.4608 -0.5832
  532MOL0     H70185   5.305  -0.147   9.386 -0.3687 -0.7842 -0.1595
  532MOL0     H70186   5.142  -0.135   9.257 -2.0954  1.0846 -0.4267
  532MOL0     H70187   4.991  -0.150   9.100  1.0469  1.9842  1.9351
  532MOL0     H70188   4.715  -0.736   8.986 -0.0855 -2.0222 -4.9436
  532MOL0     H70189   4.558  -0.795   8.809  1.4792 -0.1619  0.8949
  532MOL0     H70190   4.246  -0.782   8.603  0.7125  0.3471  0.3717
  532MOL0     H70191   4.370  -0.860   8.716 -1.5258 -2.1588 -2.0747
  532MOL0     H70192   4.539  -0.730   8.597 -0.4961 -0.4995  0.7819
  532MOL0     H70193   4.412  -0.704   8.461 -1.8360  0.3670  0.6560
  532MOL0     H70194   4.414  -0.930   8.406  1.3486 -0.1109 -0.5383
  532MOL0     H70195   4.483  -0.989   8.558  1.2517  3.2234  1.8981
  532MOL0     H70196   4.652  -0.831   8.366  2.2373 -0.0689  1.3957
  532MOL0     H70197   4.686  -0.895   8.531 -1.5886 -0.7689  2.0491
  532MOL0     H70198   4.596  -1.069   8.294 -0.9966  2.2067  0.7874
  532MOL0     H70199   4.661  -1.115   8.457 -4.6256  0.8311  0.7342
  532MOL0     H70200   4.871  -1.010   8.401 -0.4798 -1.6471  1.2150
  532MOL0     H70201   4.814  -0.979   8.228  0.1309  0.1909 -0.6262
  532MOL0     H70202   4.953  -1.157   8.232 -0.7203  1.4080  0.8704
  532MOL0     H70203   4.847  -1.257   8.340  1.9584  1.4971  1.3942
  532MOL0     H70204   4.775  -1.122   8.064 -0.0541  1.3963  2.1570
  532MOL0     H70205   4.673  -1.236   8.154  0.6034  0.2773  1.7173
  532MOL0     H70206   4.363  -0.411   8.829 -1.0852  0.1320 -1.7192
  532MOL0     H70207   4.529  -0.342   9.006 -0.2226  0.9410 -1.1921
  532MOL0     H70208   4.818  -0.496   9.327 -2.8723  2.4754 -2.4117
  532MOL0     H70209   5.003  -0.477   9.478 -2.2335  0.9848  1.2394
  532MOL0     H70210   6.633   0.494   9.685  0.0113  0.8162  0.1413
  532MOL0     H70211   6.866   0.422   9.684  2.0817 -1.1204 -2.8075
  532MOL0     H70212   7.275   0.460   9.412  3.1168  0.2042 -2.2748
  532MOL0     H70213   7.497   0.381   9.386  2.1592  0.7608  1.5269
  532MOL0     H70214   7.772   0.320   9.400 -0.4256  1.1985 -0.0552
  532MOL0     H70215   7.622   0.213   9.438 -0.2744 -0.2088  0.9750
  532MOL0     H70216   7.733   0.104   9.632 -1.7924 -2.1361 -2.0072
  532MOL0     H70217   7.817   0.078   9.483  0.1518 -0.8942  0.8007
  532MOL0     H70218   7.892   0.274   9.711  0.5757 -0.0028  0.8621
  532MOL0     H70219   7.982   0.276   9.560 -0.4024 -2.0985 -1.7937
  532MOL0     H70220   8.093   0.126   9.739 -1.3122 -0.2939  2.6342
  532MOL0     H70221   7.959   0.018   9.714 -0.7554  0.4051  0.6976
  532MOL0     H70222   8.163  -0.041   9.353  0.4899 -1.0794  0.6249
  532MOL0     H70223   7.590   0.452   9.794 -0.3268 -0.6823  0.2519
  532MOL0     H70224   7.357   0.546   9.826  0.0104 -0.3825 -0.1277
  533MOL0     O70225   5.427   7.541   0.259  0.1280  0.0845  0.5445
  533MOL0     C70226   5.480   7.444   0.202  0.9549  0.2862 -0.0348
  533MOL0     O70227   5.418   7.360   0.125  0.3943  0.2279  0.4601
  533MOL0     C70228   5.286   7.387   0.084  0.1790  0.0398 -0.1836
  533MOL0     C70229   5.235   7.505   0.045  0.6900  0.1517 -0.2680
  533MOL0     C70230   5.102   7.517   0.006  0.2545  0.0029 -0.4599
  533MOL0     C70231   5.023   7.413  -0.006  1.0194  0.1203 -0.0136
  533MOL0     O70232   4.889   7.415  -0.041  0.0124 -0.4323 -0.8596
  533MOL0     C70233   4.830   7.551  -0.073  0.8165  0.1275  1.0788
  533MOL0     C70234   4.693   7.523  -0.130  0.7965  0.5957  0.4924
  533MOL0     C70235   4.624   7.661  -0.146 -0.7184  0.0779 -0.2062
  533MOL0     C70236   4.487   7.643  -0.200  0.0691 -0.1590  0.0881
  533MOL0     C70237   4.409   7.774  -0.186  0.0311  0.5774  0.5143
  533MOL0     C70238   4.283   7.790  -0.280 -0.4342 -0.5504 -0.5972
  533MOL0     C70239   4.180   7.678  -0.277 -0.1545 -0.2723 -0.1515
  533MOL0     C70240   4.080   7.702  -0.390 -0.3463  0.4026 -0.5422
  533MOL0     N70241   3.972   7.607  -0.389 -0.2928 -0.1322  0.2712
  533MOL0     C70242   3.872   7.589  -0.293 -0.0020  0.2901  0.6066
  533MOL0     C70243   3.804   7.475  -0.332  0.3191  0.1684 -0.6281
  533MOL0     C70244   3.693   7.408  -0.261 -0.6396  0.8243 -0.1666
  533MOL0     C70245   3.641   7.282  -0.325  0.3733  0.8240  0.0408
  533MOL0     C70246   3.540   7.216  -0.224  0.6579 -0.2801 -0.6382
  533MOL0     C70247   3.477   7.092  -0.286  0.4958  0.2083  0.0722
  533MOL0     O70248   3.413   7.116  -0.418  0.2585 -0.6990  0.2440
  533MOL0     C70249   3.343   7.020  -0.483  0.0074  0.4635  0.6963
  533MOL0     C70250   3.316   7.028  -0.622 -0.2134  0.1319 -0.2354
  533MOL0     C70251   3.231   6.929  -0.676  0.0915 -0.2767 -0.3491
  533MOL0     C70252   3.191   6.817  -0.602 -0.2504 -1.4466 -0.5933
  533MOL0     C70253   3.086   6.722  -0.653  0.0927  0.3413  0.4178
  533MOL0     O70254   3.051   6.622  -0.563 -0.1029 -0.1863  0.3441
  533MOL0     C70255   2.952   6.528  -0.595 -0.4422 -0.2289  0.3875
  533MOL0     C70256   2.983   6.394  -0.571 -0.8314 -0.6555  0.2337
  533MOL0     C70257   2.871   6.302  -0.571  0.4029 -0.1134  0.0825
  533MOL0     C70258   2.741   6.338  -0.604  0.1990 -0.0438 -0.5520
  533MOL0     O70259   2.633   6.262  -0.589 -0.0467 -0.1068 -0.8124
  533MOL0     C70260   2.612   6.208  -0.451  0.1711  0.1781 -0.3493
  533MOL0     C70261   2.536   6.080  -0.443 -0.2115 -0.5365 -0.7358
  533MOL0     C70262   2.614   5.965  -0.499  0.4382  0.0753  1.2251
  533MOL0     C70263   2.529   5.836  -0.499 -0.0845 -0.1308  0.4209
  533MOL0     C70264   2.601   5.715  -0.560  0.1437  0.5577 -0.3845
  533MOL0     C70265   2.598   5.716  -0.711 -0.5883  0.1147 -0.9069
  533MOL0     C70266   2.701   5.615  -0.766 -0.3666 -0.9353 -0.7662
  533MOL0     C70267   2.692   5.598  -0.917 -0.9502 -0.6592  1.0316
  533MOL0    Cl70268   2.544   5.508  -0.947 -0.0315 -0.3240  0.3720
  533MOL0     C70269   2.716   6.473  -0.633  0.1383  0.3530 -0.0363
  533MOL0     C70270   2.820   6.565  -0.637  0.2669  0.2187 -0.4396
  533MOL0     O70271   3.051   6.731  -0.771  0.2262 -0.5779 -0.1899
  533MOL0     C70272   3.215   6.816  -0.464 -0.3345  0.2351  0.9355
  533MOL0     C70273   3.289   6.913  -0.409  0.9570  1.0846  0.8772
  533MOL0     N70274   3.862   7.436  -0.454  0.2419 -0.0883 -0.7018
  533MOL0     N70275   3.970   7.500  -0.477  0.4138 -0.1189 -0.0710
  533MOL0     C70276   5.068   7.286   0.040  0.1772 -0.3525 -0.4356
  533MOL0     C70277   5.201   7.280   0.087  0.2003  0.3987 -0.4238
  533MOL0     C70278   5.626   7.419   0.217 -0.0185  0.1121  0.7153
  533MOL0     C70279   5.676   7.309   0.147 -0.2505 -0.1346  0.4672
  533MOL0     C70280   5.810   7.275   0.146  0.1785 -0.0860  0.6218
  533MOL0     C70281   5.901   7.342   0.233 -0.6094 -0.4534 -0.2801
  533MOL0     O70282   6.018   7.277   0.252 -0.3878 -0.0398  0.1204
  533MOL0     C70283   6.132   7.335   0.316  0.4967 -0.1202  0.1131
  533MOL0     C70284   6.189   7.452   0.229  0.2585 -0.1870  0.2923
  533MOL0     C70285   6.311   7.503   0.309  0.1923  0.4239 -0.3746
  533MOL0     C70286   6.367   7.629   0.256 -0.3084  1.0206  0.6165
  533MOL0     C70287   6.476   7.665   0.350  0.2324 -0.2684 -0.1694
  533MOL0     C70288   6.568   7.675   0.422 -0.4309 -0.3054  1.2535
  533MOL0     C70289   5.844   7.450   0.316  0.3223  0.4972  0.0039
  533MOL0     C70290   5.714   7.495   0.295  0.5552  0.1529  0.8039
  533MOL0     H70291   5.295   7.595   0.052 -0.7331  1.1270 -0.2100
  533MOL0     H70292   5.061   7.616  -0.014 -1.2510 -0.1684  1.4486
  533MOL0     H70293   4.893   7.605  -0.145  0.7149  0.1307  0.9935
  533MOL0     H70294   4.830   7.619   0.013  3.8041  0.4715  0.9070
  533MOL0     H70295   4.641   7.454  -0.064  0.6788 -0.8716 -1.0680
  533MOL0     H70296   4.701   7.482  -0.231  2.3921  0.1675  0.7671
  533MOL0     H70297   4.680   7.739  -0.197 -1.2786  0.3082 -0.4812
  533MOL0     H70298   4.605   7.698  -0.044  1.2039  0.8138 -0.0782
  533MOL0     H70299   4.494   7.622  -0.307  0.3341 -1.7474  0.3821
  533MOL0     H70300   4.423   7.572  -0.146  0.1086 -0.0385  0.2977
  533MOL0     H70301   4.480   7.854  -0.211  0.4188  0.5113  1.3734
  533MOL0     H70302   4.375   7.790  -0.084  2.1841 -2.0854  1.7559
  533MOL0     H70303   4.323   7.811  -0.380  0.4492  0.2433 -0.0975
  533MOL0     H70304   4.230   7.879  -0.245 -1.7100 -1.5457  0.0878
  533MOL0     H70305   4.235   7.583  -0.278  4.1384  1.9640  0.1323
  533MOL0     H70306   4.126   7.690  -0.183 -0.0570 -0.4764 -0.0689
  533MOL0     H70307   4.127   7.713  -0.488  0.4307 -0.4514 -0.2921
  533MOL0     H70308   4.031   7.792  -0.353 -3.8767 -2.2592  1.9644
  533MOL0     H70309   3.863   7.641  -0.198  2.4098 -0.0600  1.0951
  533MOL0     H70310   3.614   7.480  -0.240 -0.5644  0.0718  3.5285
  533MOL0     H70311   3.733   7.381  -0.162 -1.6719 -3.1709 -0.6455
  533MOL0     H70312   3.724   7.212  -0.338 -0.2309  0.2971 -1.2457
  533MOL0     H70313   3.597   7.314  -0.420 -1.4870 -0.3936  0.4400
  533MOL0     H70314   3.576   7.194  -0.123  0.2756 -0.7843 -0.6073
  533MOL0     H70315   3.455   7.281  -0.202  0.8825  0.6047 -2.2607
  533MOL0     H70316   3.408   7.059  -0.208 -1.2623 -1.3015 -1.9964
  533MOL0     H70317   3.558   7.019  -0.300 -0.2008 -0.2429 -1.8020
  533MOL0     H70318   3.355   7.110  -0.682  1.4631 -1.7262 -1.8267
  533MOL0     H70319   3.210   6.944  -0.781  2.6905 -3.5319 -1.5143
  533MOL0     H70320   3.083   6.369  -0.535 -0.2190  0.6769 -0.5114
  533MOL0     H70321   2.891   6.199  -0.544  0.8988  0.2466  1.1287
  533MOL0     H70322   2.551   6.288  -0.410  0.2496  1.6578 -2.8835
  533MOL0     H70323   2.700   6.201  -0.387 -1.0020 -0.5652  1.2423
  533MOL0     H70324   2.443   6.093  -0.498  0.8699  1.2156 -2.2658
  533MOL0     H70325   2.490   6.054  -0.347 -0.6728  0.7276 -0.5960
  533MOL0     H70326   2.700   5.945  -0.435 -0.2857 -2.4245  1.4916
  533MOL0     H70327   2.654   5.986  -0.598  1.1659 -0.1966  1.4588
  533MOL0     H70328   2.503   5.811  -0.396  0.8114  1.6776  1.1351
  533MOL0     H70329   2.433   5.853  -0.550 -0.7788  0.4250  1.8510
  533MOL0     H70330   2.557   5.619  -0.528  0.9636  0.5324  0.7248
  533MOL0     H70331   2.700   5.711  -0.513 -0.3728  0.5238  0.7413
  533MOL0     H70332   2.631   5.812  -0.753  4.4629 -1.2995 -0.8455
  533MOL0     H70333   2.497   5.681  -0.737 -1.7058 -1.9710  4.8453
  533MOL0     H70334   2.800   5.657  -0.744 -0.6421 -0.4230 -0.4822
  533MOL0     H70335   2.701   5.517  -0.719 -1.3774 -0.7788 -0.4173
  533MOL0     H70336   2.779   5.543  -0.957 -0.1607  1.5362 -0.4752
  533MOL0     H70337   2.692   5.690  -0.976 -2.4603  0.1075  2.1605
  533MOL0     H70338   2.613   6.503  -0.648  0.4228  2.5913  1.9843
  533MOL0     H70339   2.804   6.672  -0.648  0.2006  0.0403 -2.2193
  533MOL0     H70340   3.171   6.743  -0.396  0.2230 -1.5006 -0.4866
  533MOL0     H70341   3.299   6.904  -0.301 -1.6258  3.1536  1.3972
  533MOL0     H70342   4.996   7.205   0.037 -2.7244  2.0754 -0.9006
  533MOL0     H70343   5.231   7.183   0.126 -2.6960  0.1995  1.6671
  533MOL0     H70344   5.609   7.236   0.104  1.8758 -3.0037  1.6772
  533MOL0     H70345   5.835   7.193   0.079 -1.9231  0.4322 -0.9107
  533MOL0     H70346   6.211   7.260   0.326  2.6042  1.8030 -1.0930
  533MOL0     H70347   6.105   7.355   0.420 -2.8167 -1.9167 -0.2509
  533MOL0     H70348   6.223   7.421   0.129  0.5280 -1.2301  0.7010
  533MOL0     H70349   6.113   7.531   0.232 -1.5180 -1.7711 -1.1016
  533MOL0     H70350   6.398   7.436   0.312  2.0214  2.5494 -2.2823
  533MOL0     H70351   6.279   7.520   0.412 -0.8351 -0.1708 -0.5913
  533MOL0     H70352   6.402   7.617   0.153 -1.6970  2.6099 -0.0765
  533MOL0     H70353   6.291   7.707   0.254  0.8694  2.2090 -1.4096
  533MOL0     H70354   6.642   7.670   0.500  2.5605  1.7694 -1.2096
  533MOL0     H70355   5.895   7.495   0.400 -0.9644  0.5133  0.8095
  533MOL0     H70356   5.673   7.584   0.341 -2.0779 -0.5629  0.0078
  534MOL0     O70357   7.374  10.799   1.004  0.3736 -0.3480 -0.3475
  534MOL0     C70358   7.413  10.813   0.885 -0.6672 -0.0074 -0.4222
  534MOL0     O70359   7.333  10.854   0.781 -0.6013  0.0528  0.7594
  534MOL0     C70360   7.195  10.851   0.791  0.3173 -0.7685 -0.6035
  534MOL0     C70361   7.120  10.831   0.676 -0.8003  0.4643 -0.7438
  534MOL0     C70362   6.978  10.835   0.677  0.3293  0.7224  0.5974
  534MOL0     C70363   6.907  10.877   0.787  0.2683 -0.0704  0.0157
  534MOL0     O70364   6.768  10.885   0.794  0.0948 -0.3792 -0.7452
  534MOL0     C70365   6.686  10.796   0.721  0.0312 -0.0272  0.2621
  534MOL0     C70366   6.637  10.875   0.604  0.0986  0.3694 -0.3481
  534MOL0     C70367   6.504  10.817   0.551 -0.2071 -0.6646  0.6554
  534MOL0     C70368   6.485  10.889   0.413  0.4022  0.1903 -1.6381
  534MOL0     C70369   6.350  10.866   0.344 -0.2439 -0.7222  0.4740
  534MOL0     C70370   6.226  10.867   0.440 -0.5587 -0.0807 -0.0279
  534MOL0     C70371   6.090  10.869   0.373  0.3963  0.5888  0.4533
  534MOL0     C70372   6.045  10.726   0.321 -0.7389  0.2568 -0.3166
  534MOL0     N70373   5.899  10.721   0.292  1.2513  0.1721  0.2658
  534MOL0     C70374   5.793  10.729   0.378 -0.1476 -0.3382 -0.6081
  534MOL0     C70375   5.686  10.690   0.311 -0.1495  0.5729  0.1921
  534MOL0     C70376   5.540  10.684   0.350 -0.4681 -0.7678  1.1273
  534MOL0     C70377   5.490  10.544   0.360  0.3287  0.8184  0.0517
  534MOL0     C70378   5.341  10.547   0.394 -0.1000  0.0570 -0.0099
  534MOL0     C70379   5.299  10.403   0.435  0.1089 -0.2315 -0.0293
  534MOL0     O70380   5.255  10.394   0.576 -0.2325  0.1575  0.2971
  534MOL0     C70381   5.117  10.380   0.603 -0.9899  0.5217  0.5917
  534MOL0     C70382   5.063  10.257   0.646  0.5520  0.5026  0.5031
  534MOL0     C70383   4.929  10.267   0.678 -0.1525  0.6761 -0.0818
  534MOL0     C70384   4.844  10.378   0.663 -0.1714  0.8463  0.4764
  534MOL0     C70385   4.704  10.373   0.708 -0.4157  0.3332  0.5996
  534MOL0     O70386   4.662  10.256   0.773  0.1885 -0.3731  0.2829
  534MOL0     C70387   4.546  10.269   0.843  1.2116 -0.6300 -0.7613
  534MOL0     C70388   4.562  10.273   0.978 -0.3212 -0.4830 -0.6852
  534MOL0     C70389   4.445  10.293   1.059  0.2865  0.0179  0.7431
  534MOL0     C70390   4.321  10.302   0.998 -0.3236 -0.6324  0.0960
  534MOL0     O70391   4.202  10.307   1.067 -0.2139 -0.2201  0.4153
  534MOL0     C70392   4.209  10.356   1.200 -0.2979  0.6097  0.4151
  534MOL0     C70393   4.102  10.469   1.215  0.1441 -0.3022 -0.0300
  534MOL0     C70394   4.143  10.575   1.311  0.1355  0.0171 -0.6623
  534MOL0     C70395   4.026  10.660   1.378 -0.2703 -0.7647  0.3144
  534MOL0     C70396   4.082  10.789   1.440 -0.0911  0.2112  0.4923
  534MOL0     C70397   3.980  10.882   1.499 -0.1247  0.0812 -0.3739
  534MOL0     C70398   4.040  11.000   1.579 -0.6188 -0.0090  0.7472
  534MOL0     C70399   3.938  11.104   1.624 -0.8237 -0.3390 -0.2463
  534MOL0    Cl70400   3.833  11.171   1.491 -0.2892  0.7289 -0.1282
  534MOL0     C70401   4.309  10.301   0.858  0.3922 -0.6662 -0.8899
  534MOL0     C70402   4.422  10.276   0.781 -0.5300 -0.9421  0.0381
  534MOL0     O70403   4.635  10.469   0.684  0.1564 -0.2771 -0.1253
  534MOL0     C70404   4.903  10.498   0.613 -0.0554 -0.2700 -0.6460
  534MOL0     C70405   5.043  10.495   0.589 -0.8044 -0.8682  0.6974
  534MOL0     N70406   5.724  10.644   0.187 -0.0391 -0.3518  0.7704
  534MOL0     N70407   5.853  10.664   0.177  0.1654  0.2996  0.7137
  534MOL0     C70408   6.976  10.906   0.904  1.2032  0.5060  0.1463
  534MOL0     C70409   7.122  10.892   0.904  0.5782 -0.0848 -0.2818
  534MOL0     C70410   7.561  10.812   0.871 -0.6604  0.3159 -0.3898
  534MOL0     C70411   7.645  10.777   0.985 -0.4150  0.0471 -0.4627
  534MOL0     C70412   7.784  10.795   0.978  0.6090  0.8377 -0.5557
  534MOL0     C70413   7.840  10.827   0.851 -0.4775  0.5331  0.3511
  534MOL0     O70414   7.978  10.826   0.849  0.1323 -0.2723 -0.4505
  534MOL0     C70415   8.041  10.849   0.723  0.1258 -0.2002 -0.1554
  534MOL0     C70416   8.188  10.812   0.729 -0.2635  0.0723 -0.1856
  534MOL0     C70417   8.260  10.905   0.832  0.5093  0.4834 -0.0410
  534MOL0     C70418   8.399  10.859   0.866 -0.3738  0.7702 -0.0897
  534MOL0     C70419   8.474  10.955   0.949  0.5200 -0.5516  0.0319
  534MOL0     C70420   8.535  11.020   1.026 -0.0681 -0.0674 -0.1624
  534MOL0     C70421   7.759  10.858   0.740  0.1283 -0.1669 -0.0327
  534MOL0     C70422   7.622  10.850   0.748  0.0109 -0.3100  0.7027
  534MOL0     H70423   7.177  10.806   0.587 -2.9737 -1.6100 -1.6467
  534MOL0     H70424   6.931  10.807   0.583  3.2806 -0.9613 -0.4970
  534MOL0     H70425   6.600  10.782   0.787  0.4337  0.5890  0.9244
  534MOL0     H70426   6.740  10.702   0.706  1.8932  1.0332  0.0417
  534MOL0     H70427   6.710  10.874   0.523 -0.4917  1.0291 -0.9059
  534MOL0     H70428   6.611  10.974   0.643  1.1248 -0.4135  2.6028
  534MOL0     H70429   6.419  10.844   0.615  0.0869  0.5344  0.5682
  534MOL0     H70430   6.499  10.710   0.530 -0.2658 -0.3255 -1.2564
  534MOL0     H70431   6.512  10.994   0.425 -1.2508  0.4281  0.9071
  534MOL0     H70432   6.560  10.849   0.345  2.0740  0.1742  0.1241
  534MOL0     H70433   6.338  10.771   0.292  1.1968  0.2338 -1.7589
  534MOL0     H70434   6.337  10.938   0.263  0.3230  0.5503  1.4804
  534MOL0     H70435   6.230  10.952   0.509 -0.7154 -0.0570 -0.0478
  534MOL0     H70436   6.227  10.784   0.511 -1.4056  0.8001  1.0482
  534MOL0     H70437   6.009  10.900   0.439 -2.4208 -1.2721 -1.8517
  534MOL0     H70438   6.095  10.932   0.284  0.0677 -2.2581 -1.7527
  534MOL0     H70439   6.083  10.662   0.401 -1.9258  0.2802  0.2837
  534MOL0     H70440   6.096  10.695   0.229  0.5973 -0.4109  0.6279
  534MOL0     H70441   5.790  10.777   0.475  0.5045 -1.9415  0.2393
  534MOL0     H70442   5.477  10.742   0.283 -1.1215 -1.6516  0.9661
  534MOL0     H70443   5.537  10.740   0.444 -0.2497 -0.8959  1.2117
  534MOL0     H70444   5.545  10.496   0.442  0.4167 -1.4376 -1.2345
  534MOL0     H70445   5.502  10.484   0.270  2.8556 -1.2514  1.6334
  534MOL0     H70446   5.310  10.617   0.472 -0.1913 -2.2303  2.1516
  534MOL0     H70447   5.282  10.568   0.304 -0.2781 -2.2216 -0.4975
  534MOL0     H70448   5.374  10.324   0.431 -2.1336 -2.4582 -0.7684
  534MOL0     H70449   5.223  10.364   0.366  0.4108 -0.0492 -0.4724
  534MOL0     H70450   5.117  10.163   0.650  2.0175  1.3698  1.5559
  534MOL0     H70451   4.900  10.175   0.728 -1.0819  0.4347 -1.0101
  534MOL0     H70452   4.659  10.264   1.026  0.8101  4.5136 -1.4938
  534MOL0     H70453   4.464  10.284   1.166  0.8512  0.5332  0.6923
  534MOL0     H70454   4.304  10.406   1.223 -1.6530  1.9186  3.7750
  534MOL0     H70455   4.190  10.286   1.282 -1.0823 -0.9926 -1.0503
  534MOL0     H70456   4.003  10.433   1.244  0.5576 -1.4525  0.0064
  534MOL0     H70457   4.092  10.521   1.120  2.6299  1.4697  0.5854
  534MOL0     H70458   4.197  10.644   1.246  0.5576  0.5324  0.2151
  534MOL0     H70459   4.228  10.541   1.371  0.5079  0.5919 -0.8626
  534MOL0     H70460   3.946  10.684   1.308 -1.5846 -1.5408  1.4960
  534MOL0     H70461   3.977  10.599   1.455  0.1011 -0.5664  0.7149
  534MOL0     H70462   4.144  10.847   1.371 -0.0386  1.5011  1.5827
  534MOL0     H70463   4.159  10.754   1.509  1.1582  0.4616 -0.7220
  534MOL0     H70464   3.920  10.817   1.564  3.8164 -2.7029  0.8705
  534MOL0     H70465   3.925  10.920   1.413 -1.0515  2.2327  1.0568
  534MOL0     H70466   4.093  10.960   1.666  0.1291 -1.1051 -0.1617
  534MOL0     H70467   4.118  11.056   1.526 -0.4270 -0.8897  0.0650
  534MOL0     H70468   3.981  11.189   1.678 -2.2256 -1.3747  2.6964
  534MOL0     H70469   3.872  11.057   1.697  2.0535  1.4557  3.8877
  534MOL0     H70470   4.220  10.306   0.796  1.2436  1.3333 -2.0550
  534MOL0     H70471   4.416  10.256   0.675 -0.6274 -0.2615 -0.0882
  534MOL0     H70472   4.842  10.588   0.611 -0.7646 -0.6874  0.7256
  534MOL0     H70473   5.089  10.591   0.569  3.2753 -2.8717 -0.6209
  534MOL0     H70474   6.919  10.944   0.988 -0.7995  2.6003 -2.0504
  534MOL0     H70475   7.178  10.906   0.996  2.4011  2.5917 -1.6780
  534MOL0     H70476   7.614  10.746   1.084  3.4469 -1.1121  0.5641
  534MOL0     H70477   7.847  10.776   1.065  1.1727 -0.1039 -1.1522
  534MOL0     H70478   8.037  10.958   0.713  1.0993  0.0507  1.6950
  534MOL0     H70479   8.002  10.802   0.632  2.7510  0.9645 -1.9921
  534MOL0     H70480   8.197  10.704   0.745 -2.0076 -0.0447  0.2422
  534MOL0     H70481   8.221  10.841   0.629 -1.4926 -3.0188 -1.6226
  534MOL0     H70482   8.206  10.909   0.926  0.8843 -0.0960  0.2104
  534MOL0     H70483   8.265  11.008   0.796  3.0729  0.5152  0.2358
  534MOL0     H70484   8.383  10.762   0.914 -0.5579  0.3844 -0.9179
  534MOL0     H70485   8.459  10.839   0.777  1.4231  2.6703  0.5927
  534MOL0     H70486   8.587  11.089   1.090 -1.0891  0.3277  0.2583
  534MOL0     H70487   7.806  10.880   0.645  0.6831 -4.4007 -0.9306
  534MOL0     H70488   7.556  10.870   0.664  0.1771  1.0601  0.8807
  535MOL0     O70489   6.078   3.854   3.868  0.0157 -0.2700 -0.2522
  535MOL0     C70490   6.103   3.791   3.971 -0.1022 -0.2895 -0.1542
  535MOL0     O70491   6.050   3.672   4.009 -1.1680 -0.4916 -0.2818
  535MOL0     C70492   5.947   3.619   3.937 -0.5183  1.7060 -0.1656
  535MOL0     C70493   5.840   3.691   3.891 -0.1667 -0.5671  0.7492
  535MOL0     C70494   5.728   3.621   3.842 -0.2746 -0.4009  0.8034
  535MOL0     C70495   5.726   3.480   3.836 -1.1778  0.1603  0.2163
  535MOL0     O70496   5.611   3.410   3.786  0.5731 -0.0124  0.1340
  535MOL0     C70497   5.617   3.273   3.750  0.3150 -0.4020  0.6302
  535MOL0     C70498   5.547   3.182   3.851  0.2510 -0.3617  0.4559
  535MOL0     C70499   5.458   3.082   3.784 -0.0061 -0.0044  0.0919
  535MOL0     C70500   5.390   2.997   3.889  0.5820  0.3067  0.1806
  535MOL0     C70501   5.334   2.861   3.839  0.3298 -0.5632 -0.2080
  535MOL0     C70502   5.208   2.882   3.745 -0.4133 -0.8380 -0.0061
  535MOL0     C70503   5.130   2.750   3.717  0.8680  0.1185 -0.1522
  535MOL0     C70504   5.211   2.633   3.672 -0.1978 -0.7296 -0.2722
  535MOL0     N70505   5.258   2.654   3.530 -0.3438  0.1365  0.6065
  535MOL0     C70506   5.184   2.614   3.418  0.3689 -0.3641 -0.0182
  535MOL0     C70507   5.247   2.672   3.309 -0.8020  0.2688 -0.8172
  535MOL0     C70508   5.207   2.646   3.174 -0.0083 -0.5791  0.7741
  535MOL0     C70509   5.209   2.499   3.134 -0.1230  0.1501  0.5671
  535MOL0     C70510   5.108   2.470   3.012 -0.0313  0.1182 -0.2853
  535MOL0     C70511   5.083   2.318   2.986  0.1626  0.4883  0.0757
  535MOL0     O70512   5.038   2.270   3.114 -0.6446  0.7904 -0.3228
  535MOL0     C70513   4.907   2.268   3.143  0.2256  0.1526  0.6971
  535MOL0     C70514   4.805   2.283   3.049  0.8942  0.0613 -0.5911
  535MOL0     C70515   4.676   2.286   3.095 -0.1321 -0.6915 -0.0795
  535MOL0     C70516   4.642   2.256   3.227  0.1380  0.2959  0.0266
  535MOL0     C70517   4.499   2.265   3.261 -0.0686  0.3107 -0.0798
  535MOL0     O70518   4.411   2.334   3.178 -0.2556 -0.6664  0.0488
  535MOL0     C70519   4.280   2.335   3.204 -0.1482  0.1135 -0.4438
  535MOL0     C70520   4.221   2.459   3.239  0.5194 -0.2283 -0.4977
  535MOL0     C70521   4.093   2.460   3.279  0.5849 -0.9738  0.1428
  535MOL0     C70522   4.021   2.344   3.277  0.0642  0.3924  0.4417
  535MOL0     O70523   3.891   2.331   3.314  0.0481  0.2549  0.2400
  535MOL0     C70524   3.851   2.421   3.415  0.3483  0.1894 -0.4052
  535MOL0     C70525   3.708   2.386   3.459  0.0332  0.2332 -0.1712
  535MOL0     C70526   3.666   2.472   3.577  0.2938  0.2225 -0.3877
  535MOL0     C70527   3.539   2.416   3.628  0.4728 -0.4443  0.6096
  535MOL0     C70528   3.486   2.483   3.758  0.4486  0.3241 -0.1945
  535MOL0     C70529   3.424   2.624   3.751  0.3838  0.5734 -0.4411
  535MOL0     C70530   3.349   2.648   3.626 -0.3620 -0.8483 -0.0792
  535MOL0     C70531   3.254   2.769   3.647 -0.2055 -0.2448  0.0758
  535MOL0    Cl70532   3.356   2.898   3.700 -0.1494 -0.5075  0.1754
  535MOL0     C70533   4.073   2.225   3.235 -0.6715 -0.3254  0.3790
  535MOL0     C70534   4.209   2.215   3.197  0.0356 -0.6098  0.6947
  535MOL0     O70535   4.462   2.206   3.359 -0.3476  0.6831  0.2686
  535MOL0     C70536   4.753   2.221   3.314 -0.0610 -0.4384 -0.9656
  535MOL0     C70537   4.879   2.232   3.271  0.2926  0.3995 -0.2555
  535MOL0     N70538   5.349   2.743   3.355 -0.4068  0.5270 -0.6859
  535MOL0     N70539   5.360   2.733   3.487  0.3142  0.1590 -0.2319
  535MOL0     C70540   5.840   3.408   3.879 -0.4102 -0.1639  0.4935
  535MOL0     C70541   5.942   3.482   3.933 -0.4155  0.4176 -0.3633
  535MOL0     C70542   6.204   3.857   4.063  0.2326 -0.2607  0.8177
  535MOL0     C70543   6.235   3.791   4.185 -0.0568 -0.0809  0.1047
  535MOL0     C70544   6.346   3.833   4.256  0.7193  0.0600 -0.7547
  535MOL0     C70545   6.423   3.946   4.217 -0.1512  0.4308 -0.5282
  535MOL0     O70546   6.529   4.009   4.282  0.1704  0.4542 -0.8040
  535MOL0     C70547   6.565   3.943   4.403 -0.1052 -0.5284 -0.9482
  535MOL0     C70548   6.681   4.000   4.478 -0.0691 -0.1238  0.7708
  535MOL0     C70549   6.650   4.126   4.557 -0.4595 -0.4238  0.3525
  535MOL0     C70550   6.780   4.184   4.603  0.4980  0.6211  0.5824
  535MOL0     C70551   6.849   4.089   4.699 -0.2259  0.0812  0.1948
  535MOL0     C70552   6.916   4.016   4.775  0.2110  0.2214  0.2971
  535MOL0     C70553   6.382   4.013   4.100  0.2546  0.1185 -0.0228
  535MOL0     C70554   6.279   3.967   4.028  0.6098 -0.4970  0.0863
  535MOL0     H70555   5.836   3.798   3.906  1.4185 -0.2342 -0.8911
  535MOL0     H70556   5.641   3.674   3.804 -0.1624 -1.7994 -1.5986
  535MOL0     H70557   5.717   3.236   3.723  0.4366  1.4470 -1.8062
  535MOL0     H70558   5.563   3.261   3.656 -1.7814 -0.1581  1.7377
  535MOL0     H70559   5.482   3.249   3.910 -0.3046 -0.9079  0.4766
  535MOL0     H70560   5.613   3.132   3.922 -2.2334 -0.6294  2.7318
  535MOL0     H70561   5.523   3.033   3.710 -2.2495  2.6792 -4.0936
  535MOL0     H70562   5.375   3.128   3.729 -0.3754 -2.1035 -1.2532
  535MOL0     H70563   5.463   2.973   3.968  0.2312  1.4077  0.8685
  535MOL0     H70564   5.320   3.064   3.940  0.9106 -0.5118  1.7705
  535MOL0     H70565   5.314   2.799   3.927  2.8726  1.2624  1.7970
  535MOL0     H70566   5.410   2.819   3.772 -0.2282  1.9650 -2.6479
  535MOL0     H70567   5.231   2.922   3.646 -0.5203  0.8070  0.6186
  535MOL0     H70568   5.141   2.951   3.796 -0.0519 -0.9346  0.6215
  535MOL0     H70569   5.081   2.711   3.807 -3.4423 -0.3322 -2.4210
  535MOL0     H70570   5.046   2.768   3.649 -0.4360  0.8224  1.5699
  535MOL0     H70571   5.145   2.546   3.676 -0.0797 -1.0489 -3.0163
  535MOL0     H70572   5.298   2.606   3.732  0.6266  3.3501  0.7295
  535MOL0     H70573   5.097   2.551   3.404  1.1118 -1.2954 -0.6110
  535MOL0     H70574   5.261   2.704   3.099  0.3023 -0.9855  0.6857
  535MOL0     H70575   5.104   2.683   3.167 -0.1744 -0.5454  2.6660
  535MOL0     H70576   5.175   2.441   3.220 -2.4117 -0.5831 -0.7279
  535MOL0     H70577   5.306   2.464   3.099  0.7206  1.4753  1.5028
  535MOL0     H70578   5.008   2.513   3.015 -0.2963  0.0962 -4.2488
  535MOL0     H70579   5.163   2.515   2.929  1.4734 -0.1660  0.5078
  535MOL0     H70580   5.177   2.268   2.961  1.6445  2.5769  1.1625
  535MOL0     H70581   5.018   2.308   2.898  0.3412 -0.1250  0.0089
  535MOL0     H70582   4.827   2.294   2.943 -0.3918 -1.0443 -0.9973
  535MOL0     H70583   4.594   2.306   3.025 -1.1362 -1.3332  0.8786
  535MOL0     H70584   4.285   2.546   3.240  0.4102 -0.1194  1.2070
  535MOL0     H70585   4.045   2.550   3.313 -1.1710 -1.4310 -1.0104
  535MOL0     H70586   3.846   2.522   3.374  1.6224  0.0935 -0.8453
  535MOL0     H70587   3.914   2.418   3.505  0.3905  0.6242 -0.4174
  535MOL0     H70588   3.724   2.281   3.485  1.2473  0.3760 -0.2909
  535MOL0     H70589   3.628   2.395   3.385 -3.9096  0.7147  3.7231
  535MOL0     H70590   3.650   2.576   3.547 -2.7580  0.7897  2.5600
  535MOL0     H70591   3.744   2.470   3.654  0.9716  0.1309 -1.0621
  535MOL0     H70592   3.457   2.422   3.555 -1.2390  0.8775  2.5091
  535MOL0     H70593   3.568   2.312   3.645  0.4698 -0.3701  1.0715
  535MOL0     H70594   3.565   2.490   3.833  0.0301 -1.1482  0.4258
  535MOL0     H70595   3.406   2.414   3.788 -2.6881  3.2372 -1.1697
  535MOL0     H70596   3.515   2.685   3.758  2.4728 -2.2854 -0.7549
  535MOL0     H70597   3.367   2.641   3.843 -0.2643  1.3637 -0.9758
  535MOL0     H70598   3.421   2.677   3.549 -0.6300  3.6521  1.0820
  535MOL0     H70599   3.292   2.559   3.598  0.7281 -1.5196 -0.2037
  535MOL0     H70600   3.184   2.739   3.725 -1.0714  0.6753 -0.3237
  535MOL0     H70601   3.189   2.801   3.564 -3.8828  0.4833  2.9429
  535MOL0     H70602   4.003   2.142   3.235 -0.3515 -0.6299  1.7823
  535MOL0     H70603   4.248   2.118   3.167 -1.4092 -1.0055  0.0108
  535MOL0     H70604   4.728   2.183   3.412  0.4128 -1.0630 -1.0868
  535MOL0     H70605   4.958   2.218   3.344 -0.7832  1.5246  1.2030
  535MOL0     H70606   5.842   3.300   3.878 -0.9074 -0.1797 -0.6643
  535MOL0     H70607   6.020   3.434   3.991  0.8643  1.2163 -1.3680
  535MOL0     H70608   6.176   3.703   4.209  0.8311 -0.3683  1.2963
  535MOL0     H70609   6.361   3.783   4.351 -1.3619 -1.0292 -0.9429
  535MOL0     H70610   6.597   3.840   4.383  0.9362  0.0695 -2.5326
  535MOL0     H70611   6.489   3.941   4.482  0.9151 -1.9630  0.0688
  535MOL0     H70612   6.711   3.922   4.549 -2.6807  0.4801  2.7224
  535MOL0     H70613   6.755   4.026   4.403  0.0433 -1.0398  0.5564
  535MOL0     H70614   6.582   4.107   4.641  1.5360 -1.3013  1.8695
  535MOL0     H70615   6.604   4.203   4.495  1.0284  0.7411  0.6542
  535MOL0     H70616   6.854   4.212   4.528 -0.8969  1.3229 -0.5856
  535MOL0     H70617   6.745   4.267   4.666 -3.2501 -0.2854 -0.0883
  535MOL0     H70618   6.970   3.955   4.845 -3.3685 -1.7012  1.6648
  535MOL0     H70619   6.435   4.102   4.069  2.6217 -0.4234  2.1002
  535MOL0     H70620   6.251   4.020   3.937 -1.6028  1.0308  1.5497
  536MOL0     O70621   6.217   4.578   2.041  0.5487 -0.1224 -0.1940
  536MOL0     C70622   6.228   4.630   2.157 -0.2786 -0.2860 -0.4075
  536MOL0     O70623   6.339   4.638   2.230  0.1681 -0.0743 -0.1702
  536MOL0     C70624   6.468   4.618   2.183 -0.0686  0.1241 -0.4995
  536MOL0     C70625   6.517   4.667   2.060 -0.0962 -0.2428 -0.0297
  536MOL0     C70626   6.651   4.643   2.028  0.6483 -0.5784 -0.1971
  536MOL0     C70627   6.744   4.590   2.118 -0.4442  1.0494 -0.4729
  536MOL0     O70628   6.871   4.581   2.068  0.0970  0.4175 -0.0347
  536MOL0     C70629   6.958   4.487   2.135 -0.5052 -0.4701  0.3396
  536MOL0     C70630   7.101   4.502   2.070  0.7611  0.3643 -0.5599
  536MOL0     C70631   7.197   4.407   2.141  0.9347 -0.2240 -0.0986
  536MOL0     C70632   7.345   4.434   2.109 -0.5826 -0.0898  0.7923
  536MOL0     C70633   7.429   4.313   2.146  0.0009 -0.0741  0.0230
  536MOL0     C70634   7.559   4.306   2.058 -0.1309  0.5945 -0.5688
  536MOL0     C70635   7.675   4.216   2.125 -0.0415  0.6474  0.5730
  536MOL0     C70636   7.765   4.166   2.013 -0.3012 -0.8152  0.3018
  536MOL0     N70637   7.890   4.109   2.059  0.2826  0.7396  0.4138
  536MOL0     C70638   8.016   4.166   2.058 -0.0186 -0.3323  0.1928
  536MOL0     C70639   8.102   4.078   2.110  0.5656 -0.1170  0.0431
  536MOL0     C70640   8.257   4.106   2.120  0.3527  0.1075 -0.3220
  536MOL0     C70641   8.320   4.072   2.256  0.9123 -0.2019  0.1861
  536MOL0     C70642   8.286   4.157   2.380  0.3973  0.0428 -1.0418
  536MOL0     C70643   8.346   4.298   2.388 -0.2940  0.1699  0.6560
  536MOL0     O70644   8.315   4.378   2.267 -0.6511  0.4868  0.2402
  536MOL0     C70645   8.190   4.419   2.248  0.8892  0.3887 -0.2607
  536MOL0     C70646   8.079   4.407   2.332 -0.0974  0.7236 -0.3401
  536MOL0     C70647   7.959   4.463   2.302  0.5783  0.1447 -0.4372
  536MOL0     C70648   7.939   4.528   2.182 -0.4951 -0.8302  0.2160
  536MOL0     C70649   7.802   4.589   2.153  0.0639 -0.7200 -1.6976
  536MOL0     O70650   7.786   4.629   2.031 -0.2131  0.3821  0.7784
  536MOL0     C70651   7.667   4.682   1.978  0.4305 -0.6222  0.4148
  536MOL0     C70652   7.667   4.704   1.844 -0.1140  0.1432 -0.5308
  536MOL0     C70653   7.557   4.761   1.774 -0.4657 -0.2793  0.3942
  536MOL0     C70654   7.439   4.791   1.842  0.5798  0.0713 -0.0392
  536MOL0     O70655   7.344   4.857   1.764 -0.1448  0.4302 -0.7513
  536MOL0     C70656   7.232   4.906   1.835 -0.6170 -0.7507  0.7662
  536MOL0     C70657   7.134   4.985   1.745  1.0211 -0.1205 -0.5866
  536MOL0     C70658   7.188   5.127   1.714  0.0675  0.0767  0.8233
  536MOL0     C70659   7.081   5.219   1.647  0.0753 -0.4374  0.1651
  536MOL0     C70660   7.148   5.344   1.592 -0.0060 -0.8791  0.2726
  536MOL0     C70661   7.041   5.431   1.523 -0.2912 -0.5576  0.3122
  536MOL0     C70662   7.105   5.554   1.453 -0.5691  0.9751  0.0996
  536MOL0     C70663   7.004   5.661   1.420 -0.4370  0.2001 -0.4508
  536MOL0    Cl70664   7.100   5.780   1.338  0.4807  0.1732 -0.1791
  536MOL0     C70665   7.432   4.754   1.976 -0.8027 -1.1222 -0.1016
  536MOL0     C70666   7.543   4.714   2.045 -0.5642  0.7488  0.1785
  536MOL0     O70667   7.718   4.599   2.244 -0.0077  0.0363 -0.1188
  536MOL0     C70668   8.039   4.535   2.087  0.2440 -0.0259  0.5981
  536MOL0     C70669   8.165   4.476   2.121 -0.5324  0.4211  0.5175
  536MOL0     N70670   8.025   3.964   2.146 -0.2812 -0.5635 -0.3256
  536MOL0     N70671   7.913   3.980   2.106  0.3990 -0.0839 -0.5937
  536MOL0     C70672   6.698   4.555   2.244 -0.0318  0.3270  1.1293
  536MOL0     C70673   6.566   4.565   2.273  0.9122 -0.6173  0.3569
  536MOL0     C70674   6.119   4.701   2.220  0.0304 -0.6376 -0.3379
  536MOL0     C70675   6.128   4.793   2.321 -0.3526 -0.0035 -0.5474
  536MOL0     C70676   6.012   4.839   2.388  0.3391 -0.6069  0.5202
  536MOL0     C70677   5.882   4.806   2.343 -0.9199  0.3427  0.1679
  536MOL0     O70678   5.767   4.844   2.413  0.0361 -0.4259 -0.7545
  536MOL0     C70679   5.651   4.804   2.349  0.0971  0.0326  0.0777
  536MOL0     C70680   5.531   4.830   2.452 -0.8470  0.6630 -0.2112
  536MOL0     C70681   5.469   4.961   2.460 -0.0635  0.2164  0.5087
  536MOL0     C70682   5.560   5.078   2.497  0.4977 -0.1374  0.1594
  536MOL0     C70683   5.606   5.132   2.366  0.4021  0.2775 -0.2306
  536MOL0     C70684   5.643   5.184   2.265  0.3990  0.2280 -0.4818
  536MOL0     C70685   5.877   4.736   2.219  0.2448  0.0933 -0.3216
  536MOL0     C70686   5.988   4.676   2.165 -0.3840  0.2567 -0.2172
  536MOL0     H70687   6.453   4.720   1.991 -1.8615  2.4390  3.3151
  536MOL0     H70688   6.685   4.684   1.934 -1.3723  2.5227  0.2812
  536MOL0     H70689   6.928   4.382   2.125 -0.3726 -0.6813  1.8925
  536MOL0     H70690   6.972   4.519   2.239 -2.2159  1.1026  0.1369
  536MOL0     H70691   7.129   4.608   2.071 -0.9312  0.8444 -0.6977
  536MOL0     H70692   7.094   4.473   1.965 -5.0857  0.2222 -0.4444
  536MOL0     H70693   7.163   4.313   2.095 -0.4410  1.2548 -2.2626
  536MOL0     H70694   7.179   4.413   2.248 -2.7341 -2.2320 -0.4392
  536MOL0     H70695   7.357   4.458   2.003 -1.2391  0.4284  0.8240
  536MOL0     H70696   7.378   4.524   2.160 -0.7275  0.6267 -0.3277
  536MOL0     H70697   7.359   4.229   2.139  0.5601 -0.4216 -2.0505
  536MOL0     H70698   7.457   4.328   2.250 -0.9709  2.7743 -0.0346
  536MOL0     H70699   7.598   4.407   2.040 -0.2400  0.3355 -2.4024
  536MOL0     H70700   7.533   4.252   1.967 -0.0575 -0.2404 -0.1068
  536MOL0     H70701   7.726   4.279   2.199 -4.0848  1.9390  2.5566
  536MOL0     H70702   7.629   4.133   2.179  1.2232  0.0753  0.7995
  536MOL0     H70703   7.785   4.249   1.944  0.3495 -0.2369  1.1657
  536MOL0     H70704   7.711   4.096   1.948 -0.2914 -0.1780 -0.4029
  536MOL0     H70705   8.031   4.266   2.019 -1.4610 -0.8456 -1.8471
  536MOL0     H70706   8.281   4.210   2.096 -0.3449  0.2415 -0.4523
  536MOL0     H70707   8.312   4.047   2.046  0.2597  0.6930 -0.8610
  536MOL0     H70708   8.429   4.061   2.248  0.7591 -1.6279 -0.3216
  536MOL0     H70709   8.280   3.972   2.274  1.5929 -0.0259  3.1505
  536MOL0     H70710   8.177   4.168   2.386  0.2773 -0.2413 -2.4543
  536MOL0     H70711   8.325   4.096   2.462 -0.7251 -2.3414 -2.1941
  536MOL0     H70712   8.452   4.279   2.402 -0.5855 -1.3393  0.9576
  536MOL0     H70713   8.299   4.355   2.469 -1.9708  0.2881 -0.3397
  536MOL0     H70714   8.095   4.367   2.432 -1.7369 -1.3417 -0.8060
  536MOL0     H70715   7.878   4.460   2.375  2.1645 -3.3554  1.3966
  536MOL0     H70716   7.751   4.677   1.780 -1.2960  1.3298 -2.7153
  536MOL0     H70717   7.564   4.776   1.667 -2.5716  4.0445  0.6361
  536MOL0     H70718   7.260   4.960   1.926  1.1957  0.6661 -0.5511
  536MOL0     H70719   7.170   4.828   1.879 -0.0496 -0.6990  1.6649
  536MOL0     H70720   7.030   4.985   1.778  0.6736  3.3626 -1.3128
  536MOL0     H70721   7.132   4.944   1.644  0.3981  0.6309 -0.8827
  536MOL0     H70722   7.283   5.113   1.663 -0.1447  0.7011  0.2453
  536MOL0     H70723   7.217   5.179   1.805  1.9871  3.7121 -1.6661
  536MOL0     H70724   7.021   5.176   1.566 -1.5821  0.8045  0.6776
  536MOL0     H70725   7.005   5.241   1.722 -0.6262 -1.0430 -0.3639
  536MOL0     H70726   7.222   5.314   1.517  1.6297  1.8419  0.6645
  536MOL0     H70727   7.197   5.396   1.675 -0.1987 -0.3966  0.0876
  536MOL0     H70728   6.969   5.467   1.597  1.3304  0.8304  1.2705
  536MOL0     H70729   7.003   5.370   1.440  2.1148  2.6159 -3.4728
  536MOL0     H70730   7.180   5.584   1.527 -3.0555 -2.0269  4.2170
  536MOL0     H70731   7.159   5.520   1.364  1.5849  0.6152  1.4592
  536MOL0     H70732   6.969   5.711   1.510  2.5006 -0.2030  1.0678
  536MOL0     H70733   6.920   5.624   1.362 -1.3065  1.8327 -0.2762
  536MOL0     H70734   7.352   4.780   2.045  1.0473  1.7023  1.1769
  536MOL0     H70735   7.534   4.692   2.151 -0.2959 -0.6049 -0.0595
  536MOL0     H70736   8.009   4.572   1.989 -2.3265 -0.3061  1.2224
  536MOL0     H70737   8.239   4.457   2.044 -0.8537  0.3349  0.2288
  536MOL0     H70738   6.759   4.519   2.326  0.9635  0.9636  0.6912
  536MOL0     H70739   6.536   4.536   2.373  1.6989 -0.1543  0.7335
  536MOL0     H70740   6.229   4.813   2.354 -0.7595 -0.3833  0.9866
  536MOL0     H70741   6.020   4.905   2.474 -2.0232  0.4444  0.0108
  536MOL0     H70742   5.654   4.697   2.325  0.8812 -0.2775  1.4948
  536MOL0     H70743   5.632   4.855   2.253  1.4870 -0.7210 -0.6215
  536MOL0     H70744   5.450   4.764   2.419  1.6650 -2.3987 -0.7792
  536MOL0     H70745   5.575   4.795   2.546  2.3963 -2.9523 -2.7351
  536MOL0     H70746   5.395   4.955   2.539 -1.4046  0.1627 -0.7130
  536MOL0     H70747   5.412   4.982   2.369 -1.6011  0.7195  1.5599
  536MOL0     H70748   5.501   5.156   2.547 -0.7711 -0.7142 -0.3968
  536MOL0     H70749   5.631   5.032   2.566 -0.1332 -1.8947 -0.2956
  536MOL0     H70750   5.676   5.245   2.183  1.3377 -2.4051 -2.1684
  536MOL0     H70751   5.780   4.711   2.175  0.4944  0.3677 -1.0463
  536MOL0     H70752   5.981   4.622   2.072  0.7833 -3.1207  1.5010
  537MOL0     O70753   6.278   1.900   5.266  1.3484  0.2156 -0.5148
  537MOL0     C70754   6.342   1.847   5.357 -0.2013 -0.5907  0.1626
  537MOL0     O70755   6.309   1.736   5.424 -0.5390 -0.8096 -0.6666
  537MOL0     C70756   6.196   1.662   5.403 -0.4545 -0.0012 -0.2411
  537MOL0     C70757   6.199   1.524   5.418 -0.4577  0.2893  0.4680
  537MOL0     C70758   6.078   1.449   5.397  0.0124  0.1626 -0.9892
  537MOL0     C70759   5.954   1.510   5.386  0.7634  0.5327 -0.5896
  537MOL0     O70760   5.837   1.433   5.366 -0.0753  0.1989  0.4304
  537MOL0     C70761   5.735   1.489   5.282  0.3665 -0.2049 -0.5597
  537MOL0     C70762   5.621   1.561   5.358  0.3086  0.1503  0.3774
  537MOL0     C70763   5.506   1.583   5.265  0.4051 -0.7132 -0.0305
  537MOL0     C70764   5.417   1.680   5.346  0.8746 -0.7942 -0.0155
  537MOL0     C70765   5.298   1.736   5.278 -0.1824 -0.0421 -0.0033
  537MOL0     C70766   5.220   1.822   5.381  0.0949 -0.0132  0.1861
  537MOL0     C70767   5.074   1.856   5.342 -0.0308  0.2330  0.7539
  537MOL0     C70768   5.007   1.939   5.451  0.4256 -0.0453  1.4750
  537MOL0     N70769   4.866   1.951   5.421 -0.5223 -0.3016  0.7243
  537MOL0     C70770   4.778   1.853   5.391 -0.2841 -0.0653 -0.7645
  537MOL0     C70771   4.660   1.910   5.355 -0.0320 -0.1325 -0.3240
  537MOL0     C70772   4.530   1.837   5.338  0.0703  0.9609  0.2092
  537MOL0     C70773   4.439   1.923   5.245 -0.3287 -0.4102 -0.7543
  537MOL0     C70774   4.302   1.852   5.213  0.1957  0.0500  0.1296
  537MOL0     C70775   4.209   1.814   5.327 -0.8232 -0.2972 -0.3687
  537MOL0     O70776   4.170   1.930   5.398  0.1009  0.4808 -0.5549
  537MOL0     C70777   4.057   2.003   5.368 -0.6096 -0.1751 -0.1077
  537MOL0     C70778   4.058   2.117   5.445 -0.1271 -0.1082 -0.1495
  537MOL0     C70779   3.940   2.192   5.449  0.1782  0.5799  0.6640
  537MOL0     C70780   3.832   2.148   5.373 -0.1325 -0.8303 -0.1737
  537MOL0     C70781   3.704   2.219   5.390  0.8539  0.0556 -0.4910
  537MOL0     O70782   3.589   2.150   5.360 -0.3937 -0.0277 -0.5177
  537MOL0     C70783   3.475   2.199   5.396  0.5043 -0.4400  0.1486
  537MOL0     C70784   3.401   2.302   5.339 -0.2318 -0.5183 -0.2570
  537MOL0     C70785   3.274   2.344   5.385 -0.5133 -0.5782 -0.2737
  537MOL0     C70786   3.215   2.278   5.494  0.6176 -0.3825 -0.1447
  537MOL0     O70787   3.087   2.292   5.526  0.1442  0.2351 -0.6932
  537MOL0     C70788   3.050   2.289   5.666  0.2415 -0.3715 -0.3451
  537MOL0     C70789   2.902   2.320   5.682 -0.0172 -0.1226  0.5644
  537MOL0     C70790   2.857   2.354   5.830 -0.3326  0.3308  0.3226
  537MOL0     C70791   2.709   2.396   5.822 -0.2580 -0.1468  0.3251
  537MOL0     C70792   2.658   2.420   5.963 -0.2669  0.2764  0.5261
  537MOL0     C70793   2.527   2.493   5.966 -0.0495 -0.3284  1.1493
  537MOL0     C70794   2.483   2.485   6.113  0.2883  0.3340 -0.0952
  537MOL0     C70795   2.339   2.524   6.141  0.3823  0.4201 -0.2532
  537MOL0    Cl70796   2.311   2.692   6.088 -0.2187  0.3333 -0.1674
  537MOL0     C70797   3.290   2.176   5.553  0.4639 -0.2233  0.9846
  537MOL0     C70798   3.417   2.134   5.506  0.4323  0.4149  0.5860
  537MOL0     O70799   3.703   2.344   5.426 -0.0242 -0.4764 -0.1068
  537MOL0     C70800   3.838   2.040   5.290  0.4698  0.5320 -0.7658
  537MOL0     C70801   3.949   1.957   5.289  0.3590  0.5917 -0.1436
  537MOL0     N70802   4.674   2.045   5.374  0.3892 -0.3472  0.0404
  537MOL0     N70803   4.797   2.062   5.407 -0.0439  0.1054 -0.2018
  537MOL0     C70804   5.953   1.653   5.387  0.4978  0.4005 -0.1289
  537MOL0     C70805   6.070   1.722   5.391 -0.7128 -0.0430  0.8111
  537MOL0     C70806   6.480   1.903   5.374 -0.3716  0.4040  1.0285
  537MOL0     C70807   6.572   1.845   5.470  0.1551  0.4957  1.5056
  537MOL0     C70808   6.707   1.884   5.468  0.2842  0.5163  0.1359
  537MOL0     C70809   6.755   1.980   5.374 -0.3628  0.2358 -0.3130
  537MOL0     O70810   6.883   2.021   5.351 -0.3572  0.1460 -0.3275
  537MOL0     C70811   6.992   1.957   5.427  0.1857  0.7224  0.6614
  537MOL0     C70812   7.130   2.009   5.398 -0.7722 -0.0525  0.1908
  537MOL0     C70813   7.138   2.161   5.410 -0.6504  0.2010  0.2087
  537MOL0     C70814   7.281   2.208   5.429  0.3161 -0.2250 -0.1126
  537MOL0     C70815   7.290   2.351   5.405 -0.8555  0.1535 -0.6172
  537MOL0     C70816   7.305   2.466   5.380  0.1490  0.2185  0.5298
  537MOL0     C70817   6.669   2.036   5.279  0.3213  0.4369 -0.0605
  537MOL0     C70818   6.536   1.993   5.286 -0.1354  0.1889  0.2254
  537MOL0     H70819   6.292   1.470   5.424 -0.9367 -0.7638 -1.0459
  537MOL0     H70820   6.082   1.341   5.385  0.0352 -0.1999  1.6678
  537MOL0     H70821   5.695   1.399   5.234 -0.5625 -0.8068  1.2327
  537MOL0     H70822   5.778   1.556   5.207  1.3583  1.5232  1.4352
  537MOL0     H70823   5.664   1.653   5.400 -1.8028  0.3512  2.2965
  537MOL0     H70824   5.582   1.502   5.442 -0.6892 -0.1669 -0.2997
  537MOL0     H70825   5.442   1.495   5.249 -0.0454 -0.8089  2.0244
  537MOL0     H70826   5.538   1.626   5.170  0.6327  0.7480  0.6934
  537MOL0     H70827   5.391   1.622   5.435 -0.2941 -0.3869 -0.0675
  537MOL0     H70828   5.477   1.767   5.374  2.3794 -2.0470  0.8311
  537MOL0     H70829   5.238   1.654   5.236 -1.5223  0.5436  0.7046
  537MOL0     H70830   5.312   1.808   5.196 -0.7498  2.2901  1.8557
  537MOL0     H70831   5.274   1.915   5.400 -0.5079  0.1639  1.0939
  537MOL0     H70832   5.217   1.782   5.483  1.0180  1.2753  0.7443
  537MOL0     H70833   5.077   1.903   5.243  1.3496 -2.8520 -0.8277
  537MOL0     H70834   5.026   1.759   5.324 -3.5382  1.9290  0.0969
  537MOL0     H70835   5.052   2.038   5.460  1.1921 -0.2522  0.1962
  537MOL0     H70836   5.009   1.884   5.546  1.1331  0.2415  1.6370
  537MOL0     H70837   4.803   1.748   5.389  1.3273  0.2482  0.6827
  537MOL0     H70838   4.477   1.830   5.434 -1.1499  2.5261 -0.3026
  537MOL0     H70839   4.535   1.738   5.293 -2.6307  1.2601 -0.9577
  537MOL0     H70840   4.491   1.951   5.153  1.1587 -1.7943 -0.3714
  537MOL0     H70841   4.409   2.012   5.302 -0.5227 -1.6718  1.1933
  537MOL0     H70842   4.237   1.913   5.150 -0.9980 -1.2545  0.0384
  537MOL0     H70843   4.332   1.762   5.157  0.0578  0.2054 -0.1981
  537MOL0     H70844   4.267   1.750   5.395  1.2620  2.6861  0.9026
  537MOL0     H70845   4.123   1.755   5.294  1.4640 -4.0738 -0.0748
  537MOL0     H70846   4.137   2.137   5.517  0.5215  0.1981 -0.9297
  537MOL0     H70847   3.928   2.283   5.506  0.7732  1.7850 -1.0698
  537MOL0     H70848   3.431   2.359   5.252 -1.0687  1.9143  0.9556
  537MOL0     H70849   3.226   2.429   5.338  0.5249  0.2094  0.0569
  537MOL0     H70850   3.097   2.372   5.719  4.5537 -1.4511 -2.0012
  537MOL0     H70851   3.074   2.192   5.711  1.0732  0.2618  0.6269
  537MOL0     H70852   2.847   2.233   5.646  0.2191  0.0426 -0.2114
  537MOL0     H70853   2.869   2.400   5.616 -0.1106  0.4701  1.3085
  537MOL0     H70854   2.921   2.429   5.878  1.1967 -0.8326  0.1500
  537MOL0     H70855   2.873   2.263   5.888 -1.5864 -1.2300 -1.6503
  537MOL0     H70856   2.702   2.485   5.759  1.6672 -0.3422 -0.2179
  537MOL0     H70857   2.640   2.319   5.786 -0.2887 -0.0583  0.1963
  537MOL0     H70858   2.722   2.488   6.021 -4.0986  1.2187  4.1757
  537MOL0     H70859   2.651   2.328   6.022 -4.4281  3.0174  5.1440
  537MOL0     H70860   2.455   2.443   5.901 -0.2891 -0.8012  1.7737
  537MOL0     H70861   2.531   2.597   5.931 -1.8165 -0.9083 -1.1017
  537MOL0     H70862   2.501   2.385   6.151  1.6052  1.0019  1.1113
  537MOL0     H70863   2.549   2.561   6.155  2.8242 -2.3081  1.0423
  537MOL0     H70864   2.319   2.528   6.248  0.7672  1.8375 -0.2175
  537MOL0     H70865   2.273   2.455   6.088 -1.5006  1.8829  0.0976
  537MOL0     H70866   3.270   2.102   5.630  1.1343 -1.8500 -0.3447
  537MOL0     H70867   3.467   2.054   5.560  0.9851  0.4300  0.1001
  537MOL0     H70868   3.761   2.014   5.219  1.6021 -2.3645 -1.0872
  537MOL0     H70869   3.954   1.867   5.228 -3.1911  1.3869 -1.8838
  537MOL0     H70870   5.861   1.711   5.380  0.5727  0.3366 -2.8472
  537MOL0     H70871   6.072   1.830   5.401  3.4390  0.0896  0.1182
  537MOL0     H70872   6.548   1.769   5.544  0.4252 -1.2783 -0.1574
  537MOL0     H70873   6.780   1.840   5.535 -1.6336 -1.6170  0.9592
  537MOL0     H70874   6.982   1.851   5.402  0.1964  1.0139 -0.6261
  537MOL0     H70875   6.973   1.968   5.534 -1.0929  2.3485  0.3007
  537MOL0     H70876   7.195   1.962   5.472  0.4283 -0.2392 -0.9519
  537MOL0     H70877   7.168   1.963   5.306  1.4822 -2.1017  1.9949
  537MOL0     H70878   7.082   2.199   5.496  1.3743  1.0613  1.2243
  537MOL0     H70879   7.103   2.207   5.318 -0.4036  4.2483  1.9078
  537MOL0     H70880   7.321   2.199   5.530 -4.7117  1.5468  2.3473
  537MOL0     H70881   7.345   2.153   5.359 -0.8516 -2.1332  0.2465
  537MOL0     H70882   7.323   2.568   5.353 -0.2853  0.7402  2.0963
  537MOL0     H70883   6.700   2.098   5.196 -1.0427 -1.0396 -1.7294
  537MOL0     H70884   6.465   2.052   5.229  1.6135  2.7369  0.4757
  538MOL0     O70885   4.298   3.059   2.341  0.1834 -0.0816 -0.6687
  538MOL0     C70886   4.244   3.074   2.442  0.1165 -0.0277 -0.1802
  538MOL0     O70887   4.109   3.092   2.454 -0.8423 -0.5785 -0.2070
  538MOL0     C70888   4.026   3.113   2.342 -0.9779 -0.6557  0.1212
  538MOL0     C70889   3.933   3.220   2.350 -0.4793  0.2092  0.3247
  538MOL0     C70890   3.850   3.259   2.240  0.5623  0.3890  0.1448
  538MOL0     C70891   3.849   3.181   2.125 -0.9432 -0.2413  0.4831
  538MOL0     O70892   3.786   3.219   2.008 -0.0370  0.3956 -0.6622
  538MOL0     C70893   3.649   3.240   2.022 -0.2348 -0.5397 -0.6624
  538MOL0     C70894   3.568   3.117   1.988  0.2825 -0.4438 -0.2947
  538MOL0     C70895   3.424   3.158   1.993 -0.1482 -0.1655  0.3163
  538MOL0     C70896   3.328   3.043   1.944  1.1704 -0.4151  0.1496
  538MOL0     C70897   3.187   3.083   1.955  0.2734  0.7768  0.6401
  538MOL0     C70898   3.087   2.962   1.936 -0.4118 -0.1014 -0.0526
  538MOL0     C70899   3.061   2.885   2.061 -0.3475  0.5669  0.4990
  538MOL0     C70900   2.947   2.776   2.038  0.3383 -0.3081 -0.4049
  538MOL0     N70901   2.811   2.834   2.036  0.1800  0.3142  1.1025
  538MOL0     C70902   2.739   2.874   2.147 -0.3025 -0.0555  0.3353
  538MOL0     C70903   2.637   2.961   2.106  0.0960  0.3206 -0.8201
  538MOL0     C70904   2.536   3.020   2.205 -0.8595  0.4855 -0.1580
  538MOL0     C70905   2.397   2.977   2.174  0.3072 -0.6162  0.0684
  538MOL0     C70906   2.320   2.947   2.299 -0.2932 -0.0166 -0.3364
  538MOL0     C70907   2.168   2.924   2.251 -0.5777  0.1336  0.2707
  538MOL0     O70908   2.083   2.900   2.362  0.1004  0.1737 -0.2998
  538MOL0     C70909   1.960   2.843   2.331  0.2554 -0.2884 -0.0140
  538MOL0     C70910   1.895   2.843   2.208  0.2577 -0.5797 -0.1501
  538MOL0     C70911   1.759   2.804   2.188  0.3604  0.0398  0.1443
  538MOL0     C70912   1.690   2.744   2.295  0.2493  0.2743 -0.0567
  538MOL0     C70913   1.563   2.681   2.277  0.2003  0.6442  0.4609
  538MOL0     O70914   1.474   2.676   2.382 -0.0247 -0.0027 -0.1484
  538MOL0     C70915   1.372   2.593   2.363 -0.4858 -0.3695 -0.7054
  538MOL0     C70916   1.376   2.467   2.425 -0.4038  0.2057  0.0449
  538MOL0     C70917   1.270   2.372   2.416 -0.0841 -0.9684  0.4389
  538MOL0     C70918   1.163   2.401   2.327 -0.1265  0.8930 -0.0115
  538MOL0     O70919   1.063   2.307   2.300 -0.2348 -0.1989  0.1548
  538MOL0     C70920   1.057   2.190   2.386  0.8345  0.1928 -0.7213
  538MOL0     C70921   0.931   2.113   2.352 -0.2547  0.0216 -0.5317
  538MOL0     C70922   0.794   2.189   2.376  0.1751  0.0963  0.0894
  538MOL0     C70923   0.679   2.102   2.335 -0.1518  0.2023 -0.7515
  538MOL0     C70924   0.545   2.158   2.387  0.6394 -0.6046 -0.5925
  538MOL0     C70925   0.500   2.267   2.295  0.1043  0.4683 -0.9919
  538MOL0     C70926   0.349   2.285   2.288  0.0674 -0.5008 -0.6003
  538MOL0     C70927   0.308   2.394   2.179  0.2454  0.1490 -0.6228
  538MOL0    Cl70928   0.221   2.535   2.264 -0.0331  0.2843 -0.2923
  538MOL0     C70929   1.165   2.528   2.260 -0.3640  0.6276 -0.3642
  538MOL0     C70930   1.265   2.629   2.280  0.2972  0.5629  0.2677
  538MOL0     O70931   1.547   2.626   2.168 -0.2134  0.2828 -0.0263
  538MOL0     C70932   1.761   2.738   2.414  0.0032 -0.3678 -0.1117
  538MOL0     C70933   1.889   2.791   2.432  0.1108  0.2580 -0.8549
  538MOL0     N70934   2.638   2.957   1.968  0.3111 -0.6559  0.1003
  538MOL0     N70935   2.739   2.889   1.922  0.2562 -0.2816 -0.1787
  538MOL0     C70936   3.930   3.065   2.130  0.3132  0.2834  0.1794
  538MOL0     C70937   4.013   3.031   2.235  0.4598 -1.1304 -0.0021
  538MOL0     C70938   4.328   3.068   2.565  0.5422 -0.6893 -0.0332
  538MOL0     C70939   4.471   3.051   2.570 -0.0724 -0.3640  1.1453
  538MOL0     C70940   4.541   3.028   2.687 -0.8253 -0.3104  1.1790
  538MOL0     C70941   4.485   3.061   2.811  0.0391  0.0752 -0.7518
  538MOL0     O70942   4.565   3.052   2.921 -0.0611  0.0506 -0.8087
  538MOL0     C70943   4.515   3.101   3.044 -0.0340 -0.1112 -0.0728
  538MOL0     C70944   4.614   3.109   3.160 -0.3309  0.4656  0.1210
  538MOL0     C70945   4.755   3.165   3.120 -0.4349  0.2966  0.6781
  538MOL0     C70946   4.815   3.242   3.231 -0.0928  0.2609  0.5226
  538MOL0     C70947   4.949   3.295   3.205 -0.0933  0.1743 -0.0527
  538MOL0     C70948   5.050   3.351   3.169 -0.1923  0.2009  0.1241
  538MOL0     C70949   4.351   3.089   2.812  0.6842 -0.3016 -0.2933
  538MOL0     C70950   4.277   3.091   2.694  0.6689  0.3651  0.3071
  538MOL0     H70951   3.932   3.291   2.432  0.7790  0.7457 -0.0929
  538MOL0     H70952   3.777   3.338   2.253 -0.8221 -0.6943 -0.6878
  538MOL0     H70953   3.624   3.327   1.960 -3.2850  0.2760  1.4857
  538MOL0     H70954   3.635   3.268   2.126  1.7966 -0.8010 -0.2797
  538MOL0     H70955   3.596   3.049   2.069 -0.1793  0.7780  0.9239
  538MOL0     H70956   3.590   3.085   1.885  1.7746 -0.6741  0.0632
  538MOL0     H70957   3.404   3.242   1.925 -0.4450 -1.1855 -0.8811
  538MOL0     H70958   3.400   3.184   2.097 -1.2565  0.9708 -0.1863
  538MOL0     H70959   3.344   3.007   1.842  2.7586 -0.0461  0.2365
  538MOL0     H70960   3.335   2.961   2.016 -1.8606 -1.4274 -0.6041
  538MOL0     H70961   3.178   3.154   1.873 -0.8898 -0.2659 -0.1592
  538MOL0     H70962   3.174   3.140   2.048  1.2862 -0.7386  1.7708
  538MOL0     H70963   3.130   2.893   1.863  0.9156  0.6663 -0.0242
  538MOL0     H70964   2.993   2.997   1.891  0.4735 -1.5274 -3.3231
  538MOL0     H70965   3.155   2.842   2.096  1.0829  2.3430 -0.9327
  538MOL0     H70966   3.019   2.957   2.133 -0.9676  1.1779 -0.4496
  538MOL0     H70967   2.959   2.703   2.119  1.9764 -0.7911 -1.0497
  538MOL0     H70968   2.962   2.733   1.939 -0.9307  2.3255 -1.8405
  538MOL0     H70969   2.764   2.860   2.252 -1.7546  1.5201  0.9438
  538MOL0     H70970   2.546   3.128   2.219 -1.6498  0.8283 -1.9286
  538MOL0     H70971   2.571   2.982   2.301  3.6419 -1.0622 -2.1416
  538MOL0     H70972   2.399   2.887   2.112  3.4105 -1.2579  0.9137
  538MOL0     H70973   2.349   3.054   2.113  1.5870  1.0934  1.1076
  538MOL0     H70974   2.357   2.857   2.349 -2.4802 -0.7602  0.0328
  538MOL0     H70975   2.330   3.027   2.372  1.6109 -1.9983  1.7504
  538MOL0     H70976   2.169   2.836   2.185  0.4160  0.7894 -0.6114
  538MOL0     H70977   2.144   3.010   2.188  1.9094  1.5624  1.1554
  538MOL0     H70978   1.947   2.889   2.125  2.7562 -0.7113  1.2473
  538MOL0     H70979   1.715   2.813   2.090  3.2984  0.6900 -1.2341
  538MOL0     H70980   1.455   2.451   2.498 -1.6234 -0.5262  1.2551
  538MOL0     H70981   1.277   2.284   2.478 -0.9157 -1.6151 -0.3514
  538MOL0     H70982   1.045   2.220   2.490  0.2945  1.5607 -1.1456
  538MOL0     H70983   1.152   2.135   2.381 -0.6669 -2.4568 -2.9492
  538MOL0     H70984   0.936   2.020   2.408  0.7424 -0.3312 -1.1815
  538MOL0     H70985   0.925   2.085   2.246  2.1627 -0.4524 -0.5896
  538MOL0     H70986   0.789   2.281   2.317 -3.8481 -0.2621 -0.3829
  538MOL0     H70987   0.795   2.213   2.482  1.1978 -1.5790  0.5015
  538MOL0     H70988   0.671   2.090   2.227 -1.0068  1.5981 -0.8719
  538MOL0     H70989   0.685   2.000   2.372  2.2166  0.3509 -0.5906
  538MOL0     H70990   0.548   2.187   2.493 -1.5691  0.7758 -0.8564
  538MOL0     H70991   0.470   2.078   2.380 -2.8880  2.4740 -0.8188
  538MOL0     H70992   0.542   2.257   2.195  2.0823 -2.8028  0.0191
  538MOL0     H70993   0.550   2.356   2.335  1.7234 -0.9589  0.3262
  538MOL0     H70994   0.304   2.192   2.253 -0.9413 -0.5499  0.7689
  538MOL0     H70995   0.309   2.321   2.383  0.3601  0.2186 -0.7371
  538MOL0     H70996   0.234   2.336   2.124  0.9436  0.4650 -1.9528
  538MOL0     H70997   0.388   2.420   2.108 -1.2029  1.9799 -1.6914
  538MOL0     H70998   1.082   2.558   2.196 -1.1323 -0.2837  0.1806
  538MOL0     H70999   1.254   2.720   2.222 -0.2398  0.5197  0.2998
  538MOL0     H71000   1.716   2.689   2.499 -0.9788 -1.3866 -1.1858
  538MOL0     H71001   1.925   2.813   2.532  0.7231  1.9381 -1.3965
  538MOL0     H71002   3.921   3.001   2.042 -2.1640  3.3980 -2.0991
  538MOL0     H71003   4.073   2.940   2.234  1.8220 -0.2865  1.0210
  538MOL0     H71004   4.523   3.047   2.475  0.8897  1.5857  1.5386
  538MOL0     H71005   4.645   3.003   2.668 -0.5923  2.4646 -2.2336
  538MOL0     H71006   4.439   3.029   3.075  0.6441 -0.8526 -0.0961
  538MOL0     H71007   4.475   3.203   3.033  2.8922  1.4840  2.3796
  538MOL0     H71008   4.575   3.178   3.234  4.7861  0.5547  3.1871
  538MOL0     H71009   4.631   3.005   3.190  0.2522  0.2143 -1.0125
  538MOL0     H71010   4.745   3.233   3.035 -1.9316  0.3366  0.8554
  538MOL0     H71011   4.821   3.084   3.088  3.8016  3.1098  1.5907
  538MOL0     H71012   4.761   3.337   3.229 -2.0930 -0.7720 -2.7421
  538MOL0     H71013   4.814   3.183   3.324 -3.6462  0.4017  0.7297
  538MOL0     H71014   5.135   3.409   3.139 -0.4888  0.7581  0.3417
  538MOL0     H71015   4.290   3.103   2.902 -0.8643  1.6439 -1.5529
  538MOL0     H71016   4.171   3.112   2.701  0.1370 -2.3855  2.7878
  539MOL0     O71017   6.821   9.775  11.186 -0.0019  0.5091 -0.9341
  539MOL0     C71018   6.930   9.815  11.153 -0.2489 -0.2962  0.4529
  539MOL0     O71019   6.975   9.832  11.026  0.3520 -0.0451  1.0125
  539MOL0     C71020   6.891   9.783  10.923  0.4340 -0.3869 -0.0442
  539MOL0     C71021   6.878   9.645  10.906  0.4114  0.3944  0.3505
  539MOL0     C71022   6.775   9.591  10.834  0.6635 -0.6421  0.8253
  539MOL0     C71023   6.687   9.681  10.766  0.9977 -0.0476  0.8636
  539MOL0     O71024   6.584   9.630  10.694 -0.5277  0.4337  0.4174
  539MOL0     C71025   6.448   9.678  10.728 -0.7969  0.1251  0.7437
  539MOL0     C71026   6.348   9.643  10.610  0.4340  0.2445 -0.3540
  539MOL0     C71027   6.290   9.501  10.627  0.3084  0.8972 -0.0496
  539MOL0     C71028   6.203   9.462  10.513  0.0704  0.2152  0.2187
  539MOL0     C71029   6.054   9.443  10.552 -0.1856 -0.7919  0.4521
  539MOL0     C71030   6.036   9.320  10.635  0.3178  0.5933  0.5757
  539MOL0     C71031   5.891   9.292  10.655  0.3303 -0.4898 -0.1233
  539MOL0     C71032   5.870   9.136  10.664  0.2565  0.4197 -0.1024
  539MOL0     N71033   5.888   9.091  10.802 -0.0672 -0.3430 -0.2869
  539MOL0     C71034   5.794   9.105  10.894 -0.3102  0.0981 -0.7749
  539MOL0     C71035   5.847   9.058  11.009  0.1570  0.2127 -0.5774
  539MOL0     C71036   5.777   9.051  11.149 -0.1762  0.2796  0.2670
  539MOL0     C71037   5.634   8.994  11.148 -0.2210 -0.3194  0.4190
  539MOL0     C71038   5.545   9.101  11.197 -0.1082  0.0912  0.5716
  539MOL0     C71039   5.404   9.044  11.207  0.0708 -0.1561 -0.4958
  539MOL0     O71040   5.319   9.132  11.127  0.0544 -0.0117  0.0313
  539MOL0     C71041   5.182   9.126  11.152  0.5856  0.4605 -0.6021
  539MOL0     C71042   5.119   9.032  11.238 -0.0877 -0.3154  0.5815
  539MOL0     C71043   4.975   9.043  11.265 -0.2492  0.1004  0.0974
  539MOL0     C71044   4.890   9.136  11.213 -0.0939  0.0680 -0.3558
  539MOL0     C71045   4.745   9.129  11.205  0.1384  0.1607  0.5510
  539MOL0     O71046   4.656   9.225  11.163  0.2256  0.1223  0.8335
  539MOL0     C71047   4.519   9.199  11.172  0.5648 -0.1929 -0.9017
  539MOL0     C71048   4.462   9.172  11.292  0.0979 -0.7865  0.3107
  539MOL0     C71049   4.326   9.154  11.312  1.1208  0.0583 -0.4012
  539MOL0     C71050   4.243   9.166  11.206 -0.0528  0.3748 -0.4968
  539MOL0     O71051   4.119   9.111  11.225  0.7572 -0.5623  0.2608
  539MOL0     C71052   4.019   9.141  11.123 -0.1445 -0.1247  0.2275
  539MOL0     C71053   3.879   9.107  11.179  0.2017 -0.9149 -0.4829
  539MOL0     C71054   3.881   8.967  11.246 -0.5550 -0.1631 -0.9988
  539MOL0     C71055   3.746   8.922  11.292 -0.1792 -0.4906 -0.9334
  539MOL0     C71056   3.764   8.815  11.406 -0.7681 -0.3115  0.1545
  539MOL0     C71057   3.640   8.736  11.428 -0.3105  0.0168 -0.7743
  539MOL0     C71058   3.519   8.826  11.468  0.4719 -1.1404  0.0764
  539MOL0     C71059   3.426   8.760  11.566 -0.0978  0.6517  0.6999
  539MOL0    Cl71060   3.336   8.887  11.637  0.4238  0.1781  0.4016
  539MOL0     C71061   4.299   9.209  11.092 -0.6692 -0.5616  0.8239
  539MOL0     C71062   4.433   9.231  11.071 -0.5612  0.5551 -0.6265
  539MOL0     O71063   4.716   9.013  11.243 -0.5737 -0.1308  0.0498
  539MOL0     C71064   4.959   9.239  11.145 -0.1649  0.3523 -0.2447
  539MOL0     C71065   5.098   9.243  11.116  0.3272 -0.0277  0.2278
  539MOL0     N71066   5.969   9.001  10.975  0.7540  0.1352  0.3463
  539MOL0     N71067   5.997   9.026  10.859 -0.3913  0.3788  0.2718
  539MOL0     C71068   6.705   9.819  10.776  0.1462  0.2483  0.3111
  539MOL0     C71069   6.804   9.871  10.852 -0.1406  0.7430  0.3625
  539MOL0     C71070   7.028   9.855  11.261  0.8125  0.1834  0.3265
  539MOL0     C71071   6.986   9.890  11.385  0.4220  0.2438 -0.0697
  539MOL0     C71072   7.087   9.934  11.477  0.1665 -0.1302  0.1975
  539MOL0     C71073   7.224   9.951  11.440 -0.5488 -0.9749  0.4756
  539MOL0     O71074   7.326  10.000  11.523 -0.7400 -0.1772  0.8949
  539MOL0     C71075   7.291  10.037  11.655 -0.6774  0.1685 -0.7478
  539MOL0     C71076   7.421  10.083  11.737  0.8641  0.2906  1.2681
  539MOL0     C71077   7.511   9.958  11.747  0.2959 -0.7568 -0.5091
  539MOL0     C71078   7.629   9.994  11.832 -0.1769 -0.4726 -0.6590
  539MOL0     C71079   7.598  10.027  11.975 -0.0652 -0.0192  0.0970
  539MOL0     C71080   7.568  10.057  12.089  0.0298 -0.0034 -0.1104
  539MOL0     C71081   7.261   9.916  11.309 -0.3071 -0.6491 -0.6241
  539MOL0     C71082   7.163   9.880  11.221 -0.3395  0.2967 -0.0579
  539MOL0     H71083   6.937   9.566  10.951 -0.4435 -0.7220 -0.4204
  539MOL0     H71084   6.769   9.484  10.816  1.2275 -0.8367  1.7310
  539MOL0     H71085   6.445   9.787  10.734  0.4616  0.3198 -1.3241
  539MOL0     H71086   6.418   9.635  10.824 -0.6570  1.1167  1.2487
  539MOL0     H71087   6.398   9.638  10.513  1.2079 -3.2234  0.0919
  539MOL0     H71088   6.262   9.709  10.605  0.5745  0.7132  1.9744
  539MOL0     H71089   6.231   9.491  10.719 -2.1001 -0.1305 -1.6219
  539MOL0     H71090   6.378   9.436  10.628 -0.4087 -0.1531  2.3376
  539MOL0     H71091   6.196   9.536  10.433 -0.6687  3.6040  3.1598
  539MOL0     H71092   6.244   9.365  10.482  0.4176 -0.7371  3.2999
  539MOL0     H71093   5.996   9.444  10.460 -2.1150  1.3403  1.6023
  539MOL0     H71094   6.023   9.531  10.609  0.5299  0.3294 -0.8387
  539MOL0     H71095   6.082   9.319  10.734 -2.0811 -0.1677  1.7395
  539MOL0     H71096   6.093   9.240  10.587  0.3101 -0.6605  2.5572
  539MOL0     H71097   5.854   9.329  10.751 -2.6514 -1.0214 -0.9634
  539MOL0     H71098   5.829   9.333  10.575  0.2004 -1.4780 -0.5536
  539MOL0     H71099   5.948   9.088  10.604  1.3103  0.6841  1.0252
  539MOL0     H71100   5.768   9.112  10.632  0.3525 -1.3894  0.8206
  539MOL0     H71101   5.701   9.158  10.875 -1.1467 -0.8199  0.5973
  539MOL0     H71102   5.771   9.154  11.186  0.8068 -0.1474  1.7038
  539MOL0     H71103   5.844   8.999  11.218 -2.6383 -0.7546  2.0353
  539MOL0     H71104   5.638   8.905  11.212  2.1777 -1.9724 -1.8125
  539MOL0     H71105   5.602   8.969  11.046 -1.2189  3.5427 -0.3671
  539MOL0     H71106   5.578   9.133  11.297  1.7425  1.8808 -0.5448
  539MOL0     H71107   5.551   9.190  11.134 -0.3019  0.3638  0.9301
  539MOL0     H71108   5.379   9.044  11.313 -3.2918 -0.3720 -1.1893
  539MOL0     H71109   5.389   8.948  11.157 -3.8072  0.6057 -1.1278
  539MOL0     H71110   5.174   8.946  11.274  1.0053 -0.5492 -1.4684
  539MOL0     H71111   4.931   8.961  11.321  0.1007 -0.2997 -0.2011
  539MOL0     H71112   4.527   9.139  11.373  0.1724 -1.7144 -0.1120
  539MOL0     H71113   4.291   9.113  11.406 -3.4242  2.2985 -0.8826
  539MOL0     H71114   4.040   9.084  11.032  1.4838  1.1368 -0.2440
  539MOL0     H71115   4.029   9.243  11.085  4.1583 -1.2625 -2.4992
  539MOL0     H71116   3.809   9.107  11.095  1.3291  5.2609 -1.9323
  539MOL0     H71117   3.842   9.181  11.251 -1.3653 -0.7580 -1.4008
  539MOL0     H71118   3.949   8.968  11.332 -3.4797 -0.2202  1.4764
  539MOL0     H71119   3.923   8.902  11.169  2.2561  2.8160 -2.2099
  539MOL0     H71120   3.698   9.009  11.337 -0.0171 -0.5193 -0.6992
  539MOL0     H71121   3.690   8.884  11.206  0.2923  2.2089 -2.5304
  539MOL0     H71122   3.785   8.863  11.502 -0.3136  0.6966 -0.4304
  539MOL0     H71123   3.853   8.758  11.379 -0.1262  0.3195  0.8710
  539MOL0     H71124   3.660   8.678  11.519 -0.4675  0.1105 -0.6796
  539MOL0     H71125   3.618   8.669  11.345  1.2242 -1.5623  0.0356
  539MOL0     H71126   3.555   8.921  11.511  0.5977 -2.0759  2.1607
  539MOL0     H71127   3.464   8.847  11.376  2.3074 -1.0360 -1.0314
  539MOL0     H71128   3.484   8.723  11.652  1.6874  0.2272 -0.6134
  539MOL0     H71129   3.368   8.678  11.523  0.9277 -0.0131  0.5321
  539MOL0     H71130   4.237   9.239  11.008  0.4834  3.1827  1.1514
  539MOL0     H71131   4.467   9.257  10.971  1.4336 -1.4399 -0.5544
  539MOL0     H71132   4.899   9.319  11.103 -1.1229  0.3853  1.1184
  539MOL0     H71133   5.143   9.326  11.062 -0.5827  1.0779  1.1216
  539MOL0     H71134   6.644   9.895  10.728 -0.2304 -0.4775 -0.3887
  539MOL0     H71135   6.812   9.978  10.862 -0.5413  0.7661  0.4714
  539MOL0     H71136   6.884   9.868  11.416 -0.2102  0.8018 -1.6670
  539MOL0     H71137   7.054   9.957  11.578  1.6719  0.5191  0.5647
  539MOL0     H71138   7.241   9.958  11.712  0.8625  0.7801  1.6071
  539MOL0     H71139   7.230  10.129  11.654 -0.6016  0.2634  0.6521
  539MOL0     H71140   7.469  10.174  11.701 -0.3513  0.1376 -0.8862
  539MOL0     H71141   7.391  10.096  11.842 -0.4519  0.3112  0.9136
  539MOL0     H71142   7.550   9.939  11.647  2.7493 -2.0615  0.6076
  539MOL0     H71143   7.457   9.867  11.778 -0.7903  0.2660  0.7340
  539MOL0     H71144   7.699   9.910  11.832 -0.1809 -0.4739 -1.2310
  539MOL0     H71145   7.688  10.074  11.787 -2.3005  0.5327 -1.7979
  539MOL0     H71146   7.539  10.068  12.191  0.8881 -0.0844  0.1464
  539MOL0     H71147   7.366   9.932  11.288  0.8318 -0.5564  3.9797
  539MOL0     H71148   7.198   9.844  11.125  0.6881  2.4408 -0.5682
  540MOL0     O71149   9.316   9.276   7.214  0.0160  0.0615 -0.4872
  540MOL0     C71150   9.400   9.353   7.249 -0.0474  0.0856 -0.2741
  540MOL0     O71151   9.370   9.477   7.297 -0.0488 -0.1750 -0.0014
  540MOL0     C71152   9.243   9.531   7.285 -0.2114  0.5524  0.2548
  540MOL0     C71153   9.177   9.546   7.167 -1.1609  0.2696  0.0435
  540MOL0     C71154   9.062   9.626   7.153  1.0009 -0.0502 -0.0262
  540MOL0     C71155   9.004   9.681   7.269  0.6201  0.7598  0.2851
  540MOL0     O71156   8.889   9.764   7.263 -0.4480  0.3425 -0.0516
  540MOL0     C71157   8.805   9.766   7.148  0.5501 -0.1591  0.8386
  540MOL0     C71158   8.693   9.862   7.173 -0.1909 -0.2405 -0.2806
  540MOL0     C71159   8.605   9.874   7.046  0.3622  0.2707 -0.4983
  540MOL0     C71160   8.484   9.963   7.067 -0.6809 -0.0354 -0.2921
  540MOL0     C71161   8.387   9.947   6.955 -0.4894  0.6377  0.3527
  540MOL0     C71162   8.246  10.029   6.978 -0.1654 -0.0608 -0.4527
  540MOL0     C71163   8.151  10.014   6.866  0.5903 -0.1529  0.6453
  540MOL0     C71164   8.025  10.101   6.903  0.4005 -0.3995  0.5441
  540MOL0     N71165   7.925  10.083   6.793  0.1553  0.0140  0.6887
  540MOL0     C71166   7.834   9.985   6.766  0.1455 -0.4322 -0.6919
  540MOL0     C71167   7.752  10.036   6.669 -0.1416  0.4191 -0.0542
  540MOL0     C71168   7.664   9.944   6.587  1.2313  0.0812  0.7304
  540MOL0     C71169   7.596  10.039   6.489 -0.3603  0.0086 -0.7862
  540MOL0     C71170   7.487   9.968   6.412  0.4641  0.1277  0.3301
  540MOL0     C71171   7.398  10.072   6.354  0.3713  0.0635  0.0675
  540MOL0     O71172   7.280  10.016   6.298  0.3351 -0.3016  0.0940
  540MOL0     C71173   7.166   9.985   6.368  0.7662 -1.1321  0.7446
  540MOL0     C71174   7.052   9.942   6.293  0.2274  0.4709 -0.6604
  540MOL0     C71175   6.926   9.909   6.360 -0.1245 -0.7169 -0.0329
  540MOL0     C71176   6.917   9.943   6.497  0.3233  1.3006  0.5698
  540MOL0     C71177   6.783   9.931   6.555 -0.2621  0.0744 -0.2840
  540MOL0     O71178   6.676   9.884   6.485 -0.1892  0.5630 -0.2120
  540MOL0     C71179   6.561   9.849   6.559  0.4630 -0.4831 -0.0675
  540MOL0     C71180   6.493   9.730   6.519  0.3205  0.4052 -0.5048
  540MOL0     C71181   6.372   9.703   6.588  0.4535  0.4645  0.1184
  540MOL0     C71182   6.318   9.782   6.682 -0.3107 -0.2286 -0.5440
  540MOL0     O71183   6.203   9.738   6.739  0.8119  0.1653 -0.6886
  540MOL0     C71184   6.144   9.817   6.843  0.3491 -0.0088 -0.7504
  540MOL0     C71185   6.006   9.765   6.883 -0.1017 -0.5742 -0.0703
  540MOL0     C71186   5.947   9.837   7.006 -0.7669  0.0699  0.3189
  540MOL0     C71187   5.801   9.825   7.037  1.2393  0.0923  0.4095
  540MOL0     C71188   5.709   9.900   6.924 -0.8832 -0.4734 -0.2165
  540MOL0     C71189   5.556   9.897   6.962  0.7775  0.3072  0.4898
  540MOL0     C71190   5.530   9.993   7.084 -0.8448  0.3395 -0.0903
  540MOL0     C71191   5.429   9.920   7.156 -0.1884 -0.1646 -0.7883
  540MOL0    Cl71192   5.378  10.040   7.272  0.1649  0.1163 -0.1885
  540MOL0     C71193   6.382   9.899   6.715  0.0312 -0.2834 -0.0192
  540MOL0     C71194   6.498   9.934   6.655 -0.8591  0.5785  0.0859
  540MOL0     O71195   6.781   9.952   6.677  0.5801 -0.5415 -0.2545
  540MOL0     C71196   7.029   9.996   6.570 -0.0247  0.5695  0.2986
  540MOL0     C71197   7.152  10.017   6.506 -0.4862  0.4550 -0.4934
  540MOL0     N71198   7.790  10.164   6.636  0.2344  0.2279  0.0007
  540MOL0     N71199   7.895  10.188   6.708 -0.1494 -0.2067  0.2724
  540MOL0     C71200   9.068   9.671   7.394  0.1383 -0.6722  0.4765
  540MOL0     C71201   9.192   9.604   7.395  0.2076 -0.3934  0.2864
  540MOL0     C71202   9.547   9.316   7.243  0.4519  0.4509 -0.1989
  540MOL0     C71203   9.572   9.183   7.209 -0.8444  0.1199 -0.2443
  540MOL0     C71204   9.708   9.147   7.207  0.5388 -0.1301 -0.1806
  540MOL0     C71205   9.813   9.236   7.223 -0.6430 -0.1734  0.1053
  540MOL0     O71206   9.941   9.190   7.232  0.0123 -0.1207 -0.2825
  540MOL0     C71207  10.054   9.284   7.251  0.1314  0.3219  0.3753
  540MOL0     C71208  10.178   9.210   7.212 -0.6387  0.2240  0.7082
  540MOL0     C71209  10.156   9.132   7.081  0.2775  0.3100 -0.1422
  540MOL0     C71210  10.291   9.093   7.025  0.1247 -0.4668 -0.5171
  540MOL0     C71211  10.278   9.041   6.884  0.4078 -0.9755  0.1272
  540MOL0     C71212  10.280   9.005   6.767 -0.4278 -0.4393  0.6954
  540MOL0     C71213   9.783   9.373   7.259  0.6397  0.0681 -0.3205
  540MOL0     C71214   9.652   9.410   7.264 -0.0288 -0.1952  0.4745
  540MOL0     H71215   9.220   9.502   7.078 -2.2871 -2.3307  0.7019
  540MOL0     H71216   9.023   9.634   7.052 -2.7460  0.0498  1.2649
  540MOL0     H71217   8.756   9.668   7.144 -2.1740  0.9496  3.3474
  540MOL0     H71218   8.854   9.793   7.054  0.2389 -1.9649  0.1056
  540MOL0     H71219   8.728   9.962   7.200  0.4399 -0.7553  0.9017
  540MOL0     H71220   8.629   9.833   7.257  0.4408  1.3534  0.8129
  540MOL0     H71221   8.564   9.772   7.047 -1.0787  0.7422  2.4357
  540MOL0     H71222   8.654   9.901   6.952  1.8611 -1.1303 -0.1696
  540MOL0     H71223   8.430   9.936   7.158  2.3505 -1.6158  1.2187
  540MOL0     H71224   8.512  10.068   7.076 -0.1382 -0.3625  3.9331
  540MOL0     H71225   8.369   9.842   6.933 -0.8716  0.8361 -0.3037
  540MOL0     H71226   8.425   9.993   6.863  1.3785 -3.0548 -0.9103
  540MOL0     H71227   8.268  10.136   6.986 -0.1855 -0.0200 -0.9015
  540MOL0     H71228   8.194   9.994   7.068 -0.8786 -0.1554 -0.8955
  540MOL0     H71229   8.193  10.047   6.770 -0.0667 -0.8356  0.0996
  540MOL0     H71230   8.123   9.908   6.862  0.8649 -0.2447  1.1486
  540MOL0     H71231   8.055  10.206   6.905  0.5546 -0.4544  1.1157
  540MOL0     H71232   7.979  10.075   6.999 -2.9185  0.4778 -0.6437
  540MOL0     H71233   7.843   9.889   6.815  1.8106  0.0672  0.0443
  540MOL0     H71234   7.586   9.900   6.650  2.0842  0.1517  1.8539
  540MOL0     H71235   7.712   9.854   6.548 -1.0407 -0.2343 -1.6350
  540MOL0     H71236   7.663  10.084   6.415 -0.9917  0.3593 -1.1610
  540MOL0     H71237   7.551  10.127   6.537  2.5401  2.0729 -1.5852
  540MOL0     H71238   7.535   9.902   6.340  1.9593 -0.6425  1.9510
  540MOL0     H71239   7.426   9.912   6.482 -1.9834  2.4877  0.2453
  540MOL0     H71240   7.457  10.118   6.275 -0.3971 -0.9811 -1.1469
  540MOL0     H71241   7.373  10.160   6.414 -0.4523 -1.2022  1.6626
  540MOL0     H71242   7.060   9.923   6.186 -1.5976  2.0094 -1.1299
  540MOL0     H71243   6.844   9.875   6.298  0.2455 -3.4136  0.8463
  540MOL0     H71244   6.534   9.670   6.439 -1.5505 -1.5487 -0.0603
  540MOL0     H71245   6.317   9.609   6.577 -2.5901  1.7137  3.0270
  540MOL0     H71246   6.118   9.914   6.799 -0.7159  1.1950  2.2914
  540MOL0     H71247   6.204   9.815   6.934  1.4545 -3.6873 -1.4176
  540MOL0     H71248   6.012   9.657   6.901  0.5161 -0.3270  1.3303
  540MOL0     H71249   5.937   9.788   6.801 -3.6619 -2.3302  2.1724
  540MOL0     H71250   5.966   9.945   6.997  0.5479 -0.0872  0.9990
  540MOL0     H71251   6.008   9.807   7.091 -1.7656 -0.4515  0.8771
  540MOL0     H71252   5.771   9.720   7.048  1.2291 -0.2055 -1.8722
  540MOL0     H71253   5.792   9.872   7.135  1.0187 -0.4699  0.6640
  540MOL0     H71254   5.720   9.841   6.833  0.0236  3.4073 -2.8604
  540MOL0     H71255   5.737  10.002   6.896 -3.3339  0.9309  1.9495
  540MOL0     H71256   5.522   9.794   6.970 -0.0389  0.5889  0.7369
  540MOL0     H71257   5.492   9.941   6.885  0.6172  0.0754  0.4921
  540MOL0     H71258   5.620  10.008   7.145 -1.0864 -0.3536  0.4365
  540MOL0     H71259   5.486  10.086   7.045  0.6509  2.0868  2.1082
  540MOL0     H71260   5.466   9.832   7.209 -2.2308 -1.4309 -1.3445
  540MOL0     H71261   5.341   9.904   7.094 -2.6970  2.0026  1.9185
  540MOL0     H71262   6.341   9.968   6.788 -0.8913  0.4375 -1.1820
  540MOL0     H71263   6.534  10.034   6.677  0.7316 -0.0135  0.2497
  540MOL0     H71264   7.013  10.028   6.672  0.6429  0.3692  0.4671
  540MOL0     H71265   7.230  10.066   6.563 -0.4267  2.2452 -2.0328
  540MOL0     H71266   9.021   9.721   7.478  0.0558 -0.7714  0.4887
  540MOL0     H71267   9.255   9.610   7.483 -2.0902 -0.1606  2.0278
  540MOL0     H71268   9.502   9.102   7.191 -1.5900  0.8390 -0.6494
  540MOL0     H71269   9.742   9.045   7.196 -2.2302 -1.1602  0.1324
  540MOL0     H71270  10.053   9.327   7.352 -1.1326 -3.1616  2.0142
  540MOL0     H71271  10.041   9.360   7.174 -0.2376 -2.4193 -2.4810
  540MOL0     H71272  10.268   9.270   7.201 -0.2657 -0.4149  0.1717
  540MOL0     H71273  10.201   9.136   7.289 -1.6766 -0.7290  0.1441
  540MOL0     H71274  10.103   9.202   7.016 -0.8111  0.7163  1.1399
  540MOL0     H71275  10.098   9.047   7.118  0.9731  1.0800  3.0654
  540MOL0     H71276  10.360   9.178   7.025  0.6200 -0.8652 -0.6950
  540MOL0     H71277  10.325   9.006   7.082 -0.8510  0.0664  0.9613
  540MOL0     H71278  10.275   8.983   6.663 -2.5913  0.2140  0.6046
  540MOL0     H71279   9.847   9.459   7.271 -3.7284  3.8152 -1.2342
  540MOL0     H71280   9.620   9.514   7.275  1.2068  0.2427  0.0780
  541MOL0     O71281   5.842   5.088   4.645 -0.2462  0.3453  0.0284
  541MOL0     C71282   5.917   5.056   4.551 -0.0454  0.2793 -0.0970
  541MOL0     O71283   5.872   5.016   4.418 -0.1736 -0.3956 -0.4663
  541MOL0     C71284   5.755   4.947   4.389 -0.8213  0.0703 -0.2222
  541MOL0     C71285   5.646   4.910   4.472 -0.2606 -0.2045  0.0586
  541MOL0     C71286   5.526   4.854   4.420  0.1704 -0.2150 -0.2431
  541MOL0     C71287   5.529   4.809   4.288 -0.0023 -0.0250 -0.3639
  541MOL0     O71288   5.426   4.746   4.230 -0.4841  0.5305 -0.6691
  541MOL0     C71289   5.296   4.822   4.243  0.4882  0.3371  0.1228
  541MOL0     C71290   5.205   4.733   4.327 -0.3388  0.5622 -0.5772
  541MOL0     C71291   5.079   4.797   4.366  0.5826  0.0516  0.5171
  541MOL0     C71292   4.976   4.698   4.423 -1.1591 -0.1644 -0.6593
  541MOL0     C71293   4.849   4.778   4.443 -0.0861 -0.0903  0.0314
  541MOL0     C71294   4.745   4.675   4.486  0.2800 -0.4167  0.2095
  541MOL0     C71295   4.616   4.739   4.546  0.1210 -0.5056  0.4884
  541MOL0     C71296   4.571   4.869   4.468 -0.6457 -0.0297 -0.3119
  541MOL0     N71297   4.436   4.919   4.508 -0.0033 -0.0187  0.2452
  541MOL0     C71298   4.308   4.864   4.496 -0.0742 -0.3817  0.5395
  541MOL0     C71299   4.227   4.947   4.558  0.4377  0.6183 -0.1142
  541MOL0     C71300   4.077   4.918   4.579  0.6953  0.0778  0.7382
  541MOL0     C71301   4.003   5.049   4.627 -0.1268 -0.2542  0.2400
  541MOL0     C71302   3.993   5.152   4.516 -0.0099 -0.2039 -0.5291
  541MOL0     C71303   3.889   5.258   4.562 -0.5069 -0.5668  0.5610
  541MOL0     O71304   3.766   5.200   4.604 -0.4839  0.4273  0.0800
  541MOL0     C71305   3.681   5.271   4.684 -0.6353 -0.0831 -1.0618
  541MOL0     C71306   3.694   5.409   4.717  0.1077 -0.3633 -0.0693
  541MOL0     C71307   3.599   5.464   4.805  0.3998 -0.0836 -0.5505
  541MOL0     C71308   3.504   5.385   4.873 -0.0745  0.0828  0.3924
  541MOL0     C71309   3.404   5.448   4.962 -0.1455 -0.2565  0.1892
  541MOL0     O71310   3.400   5.584   4.968  0.7772 -1.2657  0.1795
  541MOL0     C71311   3.309   5.647   5.049 -0.9458 -0.8790 -0.0990
  541MOL0     C71312   3.248   5.756   4.985  0.1560 -0.9058 -0.0923
  541MOL0     C71313   3.131   5.814   5.045 -0.1531  0.1416 -0.0872
  541MOL0     C71314   3.087   5.771   5.168  0.5113 -0.1684  0.0652
  541MOL0     O71315   2.985   5.838   5.233  0.4741 -0.2873  0.2286
  541MOL0     C71316   3.023   5.917   5.342  0.0434 -0.3653 -0.2719
  541MOL0     C71317   2.906   5.984   5.413  0.4876  0.3230  0.7000
  541MOL0     C71318   2.777   5.891   5.427 -0.4838 -0.0869  0.3763
  541MOL0     C71319   2.673   5.962   5.500 -0.0198 -0.3489 -0.5887
  541MOL0     C71320   2.550   5.866   5.519  0.3980  0.0547  1.1176
  541MOL0     C71321   2.454   5.936   5.613 -0.5647 -0.6154  0.2934
  541MOL0     C71322   2.327   5.847   5.635 -0.9162 -0.2854  0.3798
  541MOL0     C71323   2.201   5.919   5.679 -0.2076 -0.0212  0.5803
  541MOL0    Cl71324   2.247   6.012   5.825 -0.0561  0.6027 -0.3521
  541MOL0     C71325   3.162   5.685   5.240 -0.4006  0.5879 -0.1958
  541MOL0     C71326   3.267   5.618   5.179  0.2726  0.1548 -0.3183
  541MOL0     O71327   3.336   5.382   5.035 -0.2760  0.8171  0.0111
  541MOL0     C71328   3.503   5.246   4.850 -0.6024  0.5070 -0.3561
  541MOL0     C71329   3.585   5.190   4.744  0.4647 -0.2074 -0.0277
  541MOL0     N71330   4.300   5.044   4.631 -0.2362 -0.2033  0.0011
  541MOL0     N71331   4.423   5.028   4.592 -0.0898  0.3384 -0.0215
  541MOL0     C71332   5.635   4.833   4.210 -0.2634 -0.0758 -0.0424
  541MOL0     C71333   5.746   4.903   4.258 -0.4372 -0.8270 -0.0587
  541MOL0     C71334   6.061   5.079   4.568  0.8473  0.4827 -1.1649
  541MOL0     C71335   6.110   5.183   4.649  0.9977 -0.1843 -0.1691
  541MOL0     C71336   6.241   5.208   4.671  0.3231  0.2946  0.8630
  541MOL0     C71337   6.339   5.120   4.613  0.5863 -0.3272 -0.4600
  541MOL0     O71338   6.474   5.129   4.628 -0.1735  0.1500 -0.6194
  541MOL0     C71339   6.516   5.225   4.722  0.0345 -0.3330 -0.0430
  541MOL0     C71340   6.666   5.235   4.729 -0.5175  0.1183 -1.0150
  541MOL0     C71341   6.710   5.360   4.806  0.8082  0.3409 -0.0053
  541MOL0     C71342   6.862   5.392   4.773  0.5689  0.4637 -0.9903
  541MOL0     C71343   6.899   5.509   4.850 -0.0434 -0.9569  0.1020
  541MOL0     C71344   6.924   5.618   4.913  0.4619  0.3389 -0.6704
  541MOL0     C71345   6.296   5.012   4.540  0.2973  0.1894  0.9770
  541MOL0     C71346   6.153   4.989   4.517  0.0321  0.2783 -0.9657
  541MOL0     H71347   5.656   4.943   4.575  3.8832  0.7842 -0.4862
  541MOL0     H71348   5.439   4.839   4.484  0.0980 -0.0904 -0.3120
  541MOL0     H71349   5.247   4.838   4.147 -1.4650 -1.4573  0.7272
  541MOL0     H71350   5.314   4.920   4.287  1.2926  0.2897 -0.0903
  541MOL0     H71351   5.269   4.699   4.409 -0.2159  0.8901 -0.5375
  541MOL0     H71352   5.175   4.650   4.262 -1.4644  1.8188 -1.7282
  541MOL0     H71353   5.030   4.845   4.281  1.1352  1.1107  0.7831
  541MOL0     H71354   5.096   4.879   4.437 -3.4721 -0.3677  2.2373
  541MOL0     H71355   4.948   4.616   4.355 -1.2826 -0.7749  0.1214
  541MOL0     H71356   5.010   4.653   4.517 -1.4022  2.7119  0.8976
  541MOL0     H71357   4.828   4.822   4.345  0.4697 -0.2017 -0.1428
  541MOL0     H71358   4.865   4.856   4.517  2.3390 -1.8653  1.5495
  541MOL0     H71359   4.791   4.597   4.547  0.2210  0.4109  1.3417
  541MOL0     H71360   4.712   4.620   4.398 -0.0520 -1.4592  0.9763
  541MOL0     H71361   4.532   4.672   4.526 -0.7574  1.4549 -3.1222
  541MOL0     H71362   4.630   4.764   4.652 -1.0881  2.3303  0.0550
  541MOL0     H71363   4.560   4.843   4.362  0.4887 -3.1875  0.2187
  541MOL0     H71364   4.648   4.944   4.490  0.4151 -1.2956  0.4374
  541MOL0     H71365   4.268   4.778   4.444  2.0237 -1.0956 -0.0033
  541MOL0     H71366   4.055   4.847   4.658 -1.5408 -1.0664 -0.8244
  541MOL0     H71367   4.042   4.872   4.486  1.7548 -0.7328  0.7164
  541MOL0     H71368   4.064   5.079   4.713  0.4784 -3.0865  0.9250
  541MOL0     H71369   3.903   5.027   4.665 -1.0489  0.5108 -1.6293
  541MOL0     H71370   4.090   5.198   4.499  0.5055 -0.6845  0.9205
  541MOL0     H71371   3.978   5.118   4.414  0.9868  0.9226 -1.0706
  541MOL0     H71372   3.886   5.329   4.479 -1.6796  2.1632  2.7712
  541MOL0     H71373   3.929   5.313   4.647  2.0578 -1.1668 -0.1840
  541MOL0     H71374   3.775   5.476   4.689  0.8636  0.3756  3.4155
  541MOL0     H71375   3.597   5.572   4.818 -0.0107 -0.3172  1.7000
  541MOL0     H71376   3.269   5.787   4.883  0.8470  0.5696  0.4637
  541MOL0     H71377   3.085   5.889   4.981  0.0642  0.7370  0.4505
  541MOL0     H71378   3.092   5.995   5.308  0.9086 -1.6601 -1.5841
  541MOL0     H71379   3.079   5.858   5.415  1.4437  0.9916 -0.1930
  541MOL0     H71380   2.878   6.070   5.353 -1.7973 -0.2473  0.8711
  541MOL0     H71381   2.919   6.027   5.513  1.4050 -0.5245  0.9705
  541MOL0     H71382   2.800   5.800   5.484 -1.0328 -0.0548  0.6544
  541MOL0     H71383   2.742   5.859   5.329 -0.9548 -0.1287  0.5554
  541MOL0     H71384   2.712   5.985   5.600 -1.2117 -0.4705 -0.0775
  541MOL0     H71385   2.644   6.056   5.453 -0.6688 -0.6525 -0.8063
  541MOL0     H71386   2.585   5.768   5.551 -0.1058 -0.7181 -0.5931
  541MOL0     H71387   2.497   5.851   5.424 -0.2035  0.7981  1.3182
  541MOL0     H71388   2.431   6.036   5.574  2.6614  0.5918  1.1892
  541MOL0     H71389   2.503   5.948   5.710  1.3312 -2.8689 -0.3033
  541MOL0     H71390   2.309   5.797   5.540 -0.7542  0.4654 -0.0479
  541MOL0     H71391   2.359   5.781   5.717  4.6394  0.3453 -0.9159
  541MOL0     H71392   2.119   5.848   5.692 -0.9202  0.3300 -1.5771
  541MOL0     H71393   2.170   5.993   5.604  0.8732  1.9433  1.9924
  541MOL0     H71394   3.135   5.647   5.338 -2.6947 -3.6845 -2.2069
  541MOL0     H71395   3.321   5.544   5.237  0.0229 -0.0987 -0.4076
  541MOL0     H71396   3.437   5.181   4.905  1.1179  0.0497  1.2839
  541MOL0     H71397   3.575   5.087   4.713  0.2952 -0.6007  1.2537
  541MOL0     H71398   5.625   4.805   4.106 -2.8747 -1.8770  0.5961
  541MOL0     H71399   5.815   4.933   4.179 -2.1442  1.0489 -0.9427
  541MOL0     H71400   6.043   5.251   4.701 -0.7532 -3.0595  1.5987
  541MOL0     H71401   6.269   5.296   4.728  1.9175 -0.8084  1.8676
  541MOL0     H71402   6.468   5.213   4.819 -1.7635 -0.8503 -0.9639
  541MOL0     H71403   6.487   5.323   4.682  1.9012 -0.4299 -1.8021
  541MOL0     H71404   6.699   5.145   4.782 -0.4182  0.4543 -0.4998
  541MOL0     H71405   6.699   5.230   4.625  0.6656 -0.5165 -0.6238
  541MOL0     H71406   6.698   5.347   4.914  2.7117 -3.0792 -0.0786
  541MOL0     H71407   6.652   5.449   4.778  1.2130  0.7192  0.3572
  541MOL0     H71408   6.924   5.307   4.802  1.1243  1.2916  0.3803
  541MOL0     H71409   6.870   5.412   4.666 -1.0373  2.6742 -0.7556
  541MOL0     H71410   6.959   5.713   4.950  0.9246 -0.0608 -0.0513
  541MOL0     H71411   6.357   4.952   4.473 -1.1920 -0.9107  0.5635
  541MOL0     H71412   6.124   4.902   4.459  2.0098  0.0807 -1.7464
  542MOL0     O71413   2.206   6.710   8.494  0.8013 -0.4746 -0.1220
  542MOL0     C71414   2.267   6.641   8.577  0.3281  0.1910  0.3006
  542MOL0     O71415   2.204   6.538   8.652  0.5289  0.7482 -0.0299
  542MOL0     C71416   2.073   6.530   8.663  0.0516 -0.9187 -0.3470
  542MOL0     C71417   2.029   6.515   8.798 -0.3150  0.1918  0.1827
  542MOL0     C71418   1.889   6.492   8.829 -0.3275 -0.0856  0.7664
  542MOL0     C71419   1.796   6.494   8.726 -1.0574 -0.5759  0.2566
  542MOL0     O71420   1.670   6.468   8.770 -0.3103  0.4046  0.0886
  542MOL0     C71421   1.557   6.488   8.690  0.3112  0.1280  0.2264
  542MOL0     C71422   1.427   6.480   8.772  0.2687 -0.0239  0.1315
  542MOL0     C71423   1.311   6.480   8.674  0.6295 -0.4294 -0.1968
  542MOL0     C71424   1.175   6.500   8.745 -0.1021 -0.1918  0.3789
  542MOL0     C71425   1.053   6.482   8.641  0.3235  0.1373  1.1815
  542MOL0     C71426   0.933   6.529   8.709 -0.8030 -0.4203 -0.4536
  542MOL0     C71427   0.798   6.502   8.647 -0.2809 -0.6449  0.5573
  542MOL0     C71428   0.782   6.565   8.512 -0.3776  0.2015 -0.7283
  542MOL0     N71429   0.652   6.513   8.449 -0.3410 -0.1933  0.0997
  542MOL0     C71430   0.530   6.564   8.481  0.2658 -1.0856  0.1051
  542MOL0     C71431   0.444   6.466   8.446  0.7288  0.0861 -0.8666
  542MOL0     C71432   0.295   6.468   8.461 -0.4279 -0.2974  1.0545
  542MOL0     C71433   0.214   6.453   8.335  0.8577  1.3178 -0.1560
  542MOL0     C71434   0.234   6.562   8.239 -0.2328 -0.1620  0.7172
  542MOL0     C71435   0.359   6.560   8.152 -0.1299  0.1634  0.6477
  542MOL0     O71436   0.332   6.635   8.033 -0.2029  0.2667 -0.3234
  542MOL0     C71437   0.446   6.676   7.960 -0.4806  0.2316 -0.5805
  542MOL0     C71438   0.419   6.766   7.853 -0.4131  0.6635  0.1745
  542MOL0     C71439   0.521   6.802   7.766 -0.3886  0.8080 -0.2345
  542MOL0     C71440   0.653   6.750   7.783  0.3587  0.1546 -0.1555
  542MOL0     C71441   0.753   6.775   7.679 -0.3542 -1.2339 -0.0023
  542MOL0     O71442   0.746   6.895   7.603 -0.9394 -0.0823 -0.1850
  542MOL0     C71443   0.822   6.929   7.492 -0.3082  0.1848 -0.3671
  542MOL0     C71444   0.822   7.066   7.457 -0.4915 -0.1818  0.0970
  542MOL0     C71445   0.891   7.107   7.341  0.2857  0.2901  0.4775
  542MOL0     C71446   0.970   7.010   7.268 -0.0199 -0.0896 -0.0431
  542MOL0     O71447   1.033   7.054   7.156 -0.3781  0.1908 -0.2804
  542MOL0     C71448   1.140   6.974   7.106  0.5178 -0.2788 -0.4416
  542MOL0     C71449   1.216   7.072   7.009  0.1057 -0.2011 -0.6593
  542MOL0     C71450   1.366   7.044   7.000  0.3566 -0.0779  0.4669
  542MOL0     C71451   1.426   7.145   6.899 -0.6776 -0.3884  0.8827
  542MOL0     C71452   1.576   7.127   6.864  0.5944  0.2281 -0.7734
  542MOL0     C71453   1.677   7.225   6.939  0.6850  0.8205  0.9051
  542MOL0     C71454   1.689   7.197   7.086  0.0772  0.4510 -0.1623
  542MOL0     C71455   1.779   7.305   7.143 -0.7811 -0.3198  0.3203
  542MOL0    Cl71456   1.837   7.247   7.296  0.2369  0.1944 -0.2088
  542MOL0     C71457   0.977   6.882   7.321  0.0764 -0.1839  0.4696
  542MOL0     C71458   0.897   6.838   7.423 -0.4751 -0.0787 -0.0363
  542MOL0     O71459   0.844   6.690   7.671  0.1880 -0.0692  0.0202
  542MOL0     C71460   0.672   6.665   7.893 -0.6909 -0.0360  0.3664
  542MOL0     C71461   0.574   6.634   7.986  0.2972  0.4662 -0.6821
  542MOL0     N71462   0.519   6.371   8.383  0.3847  0.0835  0.6952
  542MOL0     N71463   0.640   6.400   8.387  0.0541 -0.6685  0.2919
  542MOL0     C71464   1.833   6.511   8.593 -0.8191  0.7648 -0.7658
  542MOL0     C71465   1.973   6.524   8.558  0.1844 -1.2726  0.3142
  542MOL0     C71466   2.409   6.684   8.600  0.0720  1.0164 -0.3294
  542MOL0     C71467   2.459   6.814   8.576 -0.0768 -0.4691  1.0268
  542MOL0     C71468   2.595   6.845   8.602 -0.4414 -0.6668 -0.3538
  542MOL0     C71469   2.676   6.765   8.674  1.3428 -0.4215  0.1380
  542MOL0     O71470   2.799   6.815   8.702  0.0441 -0.1311  0.3776
  542MOL0     C71471   2.862   6.782   8.832  0.0790 -0.3996 -0.2479
  542MOL0     C71472   2.882   6.904   8.933  0.0263  0.5875  1.1514
  542MOL0     C71473   2.886   6.865   9.086  0.2289  0.7882 -0.3999
  542MOL0     C71474   3.015   6.787   9.120 -0.6820 -0.6250 -0.4038
  542MOL0     C71475   3.138   6.859   9.099 -0.5635 -0.4774 -0.0622
  542MOL0     C71476   3.245   6.911   9.071 -0.5020 -0.3752 -0.9942
  542MOL0     C71477   2.629   6.633   8.706  0.2280 -0.2140  0.3325
  542MOL0     C71478   2.500   6.586   8.652  0.1805  0.0707 -0.3190
  542MOL0     H71479   2.101   6.519   8.879  0.3057 -1.0017 -0.2929
  542MOL0     H71480   1.844   6.474   8.926 -0.6485 -3.1879  0.1510
  542MOL0     H71481   1.561   6.407   8.617 -0.0185  0.8778 -0.6449
  542MOL0     H71482   1.570   6.585   8.641  1.2131 -0.1233 -0.0456
  542MOL0     H71483   1.421   6.569   8.835  4.2493  0.9418 -0.5772
  542MOL0     H71484   1.421   6.389   8.833  0.7955  0.6405  1.1956
  542MOL0     H71485   1.305   6.394   8.607 -0.9295  0.9709 -2.0106
  542MOL0     H71486   1.317   6.560   8.599  3.5434  0.3909  0.8030
  542MOL0     H71487   1.188   6.417   8.815 -0.7996 -0.2429  0.4547
  542MOL0     H71488   1.166   6.592   8.803  0.3788 -0.4444  0.8592
  542MOL0     H71489   1.049   6.379   8.605  1.7118  1.3704 -3.0661
  542MOL0     H71490   1.065   6.539   8.548 -2.5818  1.2760  1.3932
  542MOL0     H71491   0.935   6.636   8.731 -0.0415 -0.3662 -0.7188
  542MOL0     H71492   0.927   6.475   8.804 -0.2887  2.5357  1.3889
  542MOL0     H71493   0.807   6.394   8.637  0.5147 -0.6857  1.5531
  542MOL0     H71494   0.716   6.528   8.716 -1.3966 -1.8929 -0.2458
  542MOL0     H71495   0.864   6.548   8.441  1.3190  0.2018  1.1349
  542MOL0     H71496   0.778   6.674   8.526 -0.1804  0.0200  0.8647
  542MOL0     H71497   0.517   6.658   8.534  0.0664 -2.0288  1.7996
  542MOL0     H71498   0.272   6.564   8.508  2.1618  1.1980 -0.4384
  542MOL0     H71499   0.269   6.385   8.527  0.3025 -2.2079 -0.9211
  542MOL0     H71500   0.107   6.451   8.357  0.8057 -1.0860 -0.3797
  542MOL0     H71501   0.242   6.359   8.286 -0.6021  0.8903 -0.2023
  542MOL0     H71502   0.149   6.564   8.169  0.1205 -0.5279  0.2745
  542MOL0     H71503   0.225   6.652   8.301  2.1164  0.1844  0.6496
  542MOL0     H71504   0.396   6.462   8.121 -1.2889  0.9168 -3.8758
  542MOL0     H71505   0.436   6.610   8.211  0.1841  2.2051 -1.3708
  542MOL0     H71506   0.314   6.788   7.837 -0.1277  3.0738  1.1412
  542MOL0     H71507   0.493   6.851   7.673  0.8826  2.7390  0.3488
  542MOL0     H71508   0.779   7.141   7.524  2.5590 -0.6394  2.8279
  542MOL0     H71509   0.897   7.211   7.310 -0.5075  0.2150  0.0317
  542MOL0     H71510   1.099   6.885   7.057 -0.9241 -0.5783  1.1808
  542MOL0     H71511   1.204   6.949   7.192 -0.0501  0.0333  0.0854
  542MOL0     H71512   1.201   7.172   7.051 -2.2243 -1.3082  1.3755
  542MOL0     H71513   1.158   7.071   6.917  2.4201  1.7349 -2.2927
  542MOL0     H71514   1.380   6.942   6.964 -1.4580 -0.3608  0.4311
  542MOL0     H71515   1.414   7.038   7.098  2.3596 -3.5160 -0.5422
  542MOL0     H71516   1.373   7.126   6.806 -1.8979  1.6808  1.0937
  542MOL0     H71517   1.397   7.245   6.931  2.1742 -0.2756  3.6575
  542MOL0     H71518   1.598   7.147   6.759  1.1721  0.3726 -0.6260
  542MOL0     H71519   1.603   7.023   6.887  2.2384  0.9143  0.6943
  542MOL0     H71520   1.649   7.326   6.908  1.4351  1.3237  1.7926
  542MOL0     H71521   1.778   7.208   6.901 -0.3086  0.4562 -1.8275
  542MOL0     H71522   1.588   7.213   7.124  1.0468  4.0853  1.3212
  542MOL0     H71523   1.723   7.094   7.103 -3.2656 -0.4244  2.2128
  542MOL0     H71524   1.731   7.403   7.146 -0.1207  0.0517 -0.7273
  542MOL0     H71525   1.869   7.326   7.085 -1.8457 -0.0956 -1.3454
  542MOL0     H71526   1.035   6.808   7.265  0.3031  1.1223 -1.0952
  542MOL0     H71527   0.896   6.732   7.446 -0.0242  0.1681  1.2230
  542MOL0     H71528   0.765   6.612   7.909 -0.1343 -0.2042 -2.7756
  542MOL0     H71529   0.607   6.564   8.062  0.6644  0.7378 -0.5876
  542MOL0     H71530   1.759   6.508   8.514 -1.9627 -0.7550  0.3159
  542MOL0     H71531   2.016   6.534   8.459 -0.4904  1.9270  0.2424
  542MOL0     H71532   2.407   6.891   8.521  1.1296 -2.2501 -3.0357
  542MOL0     H71533   2.624   6.948   8.581 -1.1275 -0.3190  0.3560
  542MOL0     H71534   2.961   6.743   8.805  0.1651 -1.6583  1.7352
  542MOL0     H71535   2.807   6.706   8.888  0.9565 -0.9006 -0.0554
  542MOL0     H71536   2.971   6.961   8.909  0.2941 -0.5613 -0.7819
  542MOL0     H71537   2.797   6.971   8.921  1.5559  2.6264  1.2798
  542MOL0     H71538   2.803   6.802   9.119  1.6209 -0.5826  0.6853
  542MOL0     H71539   2.879   6.954   9.149  3.1400  1.3446 -0.7146
  542MOL0     H71540   3.013   6.744   9.220  0.2370  0.8300  0.2722
  542MOL0     H71541   3.023   6.697   9.058  3.5300 -0.0724 -0.9245
  542MOL0     H71542   3.346   6.946   9.062 -0.3768  1.0754  3.6011
  542MOL0     H71543   2.703   6.568   8.751 -0.7871 -0.4408  1.7738
  542MOL0     H71544   2.461   6.485   8.653  0.2524  0.0111  2.0436
  543MOL0     O71545   4.750  10.242   5.857  0.1991  0.6559 -0.7277
  543MOL0     C71546   4.752  10.227   5.734 -1.2041 -0.5744  0.4433
  543MOL0     O71547   4.648  10.237   5.647 -0.4829 -0.3839  0.0970
  543MOL0     C71548   4.518  10.237   5.691 -0.4083 -0.2505 -0.4985
  543MOL0     C71549   4.417  10.272   5.598 -0.3586 -0.2819 -0.6487
  543MOL0     C71550   4.275  10.250   5.616 -0.9450  0.6304 -1.2410
  543MOL0     C71551   4.242  10.199   5.745  0.1951  0.3038  0.8320
  543MOL0     O71552   4.105  10.189   5.786 -0.3758 -0.6021  0.6251
  543MOL0     C71553   4.039  10.068   5.838  1.2292  0.1269  0.3347
  543MOL0     C71554   4.040   9.960   5.726 -0.0048  0.1907  0.0691
  543MOL0     C71555   3.927   9.864   5.737 -0.6216  0.0509  0.0228
  543MOL0     C71556   3.943   9.770   5.618  0.2763 -0.4402 -0.9195
  543MOL0     C71557   3.890   9.631   5.667 -0.3899 -0.0891  0.1710
  543MOL0     C71558   3.878   9.538   5.542  0.3019 -0.4846  0.0297
  543MOL0     C71559   3.814   9.398   5.556  1.2607  1.2282 -0.6702
  543MOL0     C71560   3.659   9.413   5.589  0.8202  0.1670 -0.0027
  543MOL0     N71561   3.591   9.288   5.567 -0.4743 -0.1488  0.0457
  543MOL0     C71562   3.571   9.226   5.443  0.0740  0.6051 -0.0331
  543MOL0     C71563   3.494   9.118   5.488 -0.8411  0.5423  0.3080
  543MOL0     C71564   3.442   8.999   5.421  0.0970 -0.1375  0.1228
  543MOL0     C71565   3.292   8.993   5.403 -0.2173 -0.5369 -0.4614
  543MOL0     C71566   3.243   8.851   5.406  0.5689  0.9994  0.0389
  543MOL0     C71567   3.204   8.818   5.543  0.4692  1.4506 -0.6769
  543MOL0     O71568   3.149   8.679   5.542 -0.8632  0.4906  0.2392
  543MOL0     C71569   3.230   8.570   5.521 -0.0115 -0.5729  0.6450
  543MOL0     C71570   3.169   8.448   5.473 -0.1245 -0.4616 -1.3878
  543MOL0     C71571   3.246   8.335   5.446 -0.6933 -0.1301  0.4341
  543MOL0     C71572   3.392   8.345   5.436 -0.4449 -0.3367  0.0680
  543MOL0     C71573   3.467   8.225   5.400  0.3422  0.2507  0.1081
  543MOL0     O71574   3.591   8.257   5.351  0.2281 -0.2720 -0.0497
  543MOL0     C71575   3.665   8.154   5.304  0.3666  0.0300 -0.0228
  543MOL0     C71576   3.642   8.101   5.183  0.2942 -0.0756  0.0193
  543MOL0     C71577   3.716   7.997   5.135  0.1743  0.2272  0.3213
  543MOL0     C71578   3.817   7.942   5.212 -0.2357 -0.2947 -0.2954
  543MOL0     O71579   3.884   7.829   5.178  0.0164 -0.0625 -0.2662
  543MOL0     C71580   3.870   7.770   5.058 -0.1387  0.1234  0.3892
  543MOL0     C71581   3.953   7.642   5.058  0.2062 -0.4032 -0.6131
  543MOL0     C71582   4.106   7.661   5.060  0.5119 -0.0682 -0.0253
  543MOL0     C71583   4.158   7.519   5.086  0.1406 -0.1561 -0.2676
  543MOL0     C71584   4.152   7.422   4.965  0.3968 -0.4789 -0.9635
  543MOL0     C71585   4.228   7.292   4.974  0.7262  0.0448 -0.1560
  543MOL0     C71586   4.191   7.200   4.855  0.3509 -1.0056  0.6236
  543MOL0     C71587   4.253   7.060   4.869 -0.6146  0.1121 -0.1589
  543MOL0    Cl71588   4.152   6.978   4.990  0.1622  0.4349  0.0329
  543MOL0     C71589   3.843   7.995   5.339  0.1153 -0.2552 -0.4155
  543MOL0     C71590   3.763   8.097   5.391  0.0587  0.8900 -0.5635
  543MOL0     O71591   3.421   8.109   5.412  0.2118 -0.1965 -0.2752
  543MOL0     C71592   3.453   8.467   5.481 -0.1140  0.5610  0.2767
  543MOL0     C71593   3.370   8.574   5.523  0.7484  0.0032  0.0190
  543MOL0     N71594   3.479   9.116   5.620  0.0789  0.2132  0.0324
  543MOL0     N71595   3.540   9.218   5.672  0.0102  0.1159  0.1091
  543MOL0     C71596   4.341  10.160   5.833  0.5174  0.1471  0.0744
  543MOL0     C71597   4.475  10.186   5.811 -0.6647  1.8025 -0.7478
  543MOL0     C71598   4.882  10.210   5.669 -0.1135  0.0511  0.3581
  543MOL0     C71599   4.894  10.179   5.533 -0.6025 -0.3046 -0.6023
  543MOL0     C71600   5.020  10.171   5.464 -0.0997  0.0778 -0.3292
  543MOL0     C71601   5.141  10.197   5.525 -0.5963  0.2777 -0.1898
  543MOL0     O71602   5.269  10.185   5.463 -0.3984 -0.1474  0.3524
  543MOL0     C71603   5.281  10.180   5.316  0.7523 -0.7139 -1.2417
  543MOL0     C71604   5.424  10.137   5.290  0.4969  0.8360  0.0140
  543MOL0     C71605   5.513  10.263   5.300  0.6769 -1.3799  0.4517
  543MOL0     C71606   5.649  10.237   5.249 -0.3038  0.1490  1.2746
  543MOL0     C71607   5.721  10.360   5.236  0.5068 -0.7329 -0.7187
  543MOL0     C71608   5.779  10.461   5.230  0.0400  0.1755  0.8186
  543MOL0     C71609   5.128  10.237   5.657  0.3969 -0.5246  0.5961
  543MOL0     C71610   5.004  10.247   5.729  0.2942 -0.0037 -0.1647
  543MOL0     H71611   4.446  10.303   5.498 -0.2028  0.5022 -0.3695
  543MOL0     H71612   4.203  10.271   5.538 -3.4812  0.8941  1.0151
  543MOL0     H71613   3.935  10.085   5.868  0.5933 -2.3399 -0.2476
  543MOL0     H71614   4.083  10.021   5.926 -2.3623 -0.6427  1.8757
  543MOL0     H71615   4.133   9.904   5.737  0.5769  1.1764  0.2749
  543MOL0     H71616   4.022  10.013   5.632  0.0635  1.3231  0.6857
  543MOL0     H71617   3.825   9.905   5.735 -0.5012  0.8950  4.0443
  543MOL0     H71618   3.942   9.811   5.832 -0.0957  2.0962  1.1307
  543MOL0     H71619   3.876   9.813   5.543  0.9667  2.1526 -0.1415
  543MOL0     H71620   4.044   9.763   5.576  0.6521  1.4990 -0.4096
  543MOL0     H71621   3.798   9.648   5.724  1.2176  0.8288  2.6310
  543MOL0     H71622   3.965   9.587   5.734  2.6961  2.1684 -1.5335
  543MOL0     H71623   3.981   9.530   5.506 -0.5638 -0.6370 -2.5550
  543MOL0     H71624   3.833   9.597   5.462  2.6855  0.5352 -0.6573
  543MOL0     H71625   3.828   9.333   5.469 -2.6184  0.1706 -0.7184
  543MOL0     H71626   3.854   9.333   5.635 -0.5065  0.6457 -0.2048
  543MOL0     H71627   3.618   9.486   5.519  1.5393 -0.8966 -1.6096
  543MOL0     H71628   3.645   9.455   5.689 -0.1974 -0.3519  0.0846
  543MOL0     H71629   3.588   9.252   5.340  0.7932  0.2632 -0.0052
  543MOL0     H71630   3.490   8.910   5.464  1.1114 -1.0976 -2.7386
  543MOL0     H71631   3.495   8.996   5.325  2.1942  0.2355  1.2237
  543MOL0     H71632   3.263   9.058   5.320  0.2103  2.8902  1.8851
  543MOL0     H71633   3.243   9.041   5.489  0.9774 -1.3102  0.6920
  543MOL0     H71634   3.146   8.850   5.355 -0.6942  0.1024  2.2668
  543MOL0     H71635   3.319   8.790   5.357  1.3591  1.9008  0.1137
  543MOL0     H71636   3.124   8.881   5.583 -1.2046 -1.3120  0.6278
  543MOL0     H71637   3.287   8.820   5.614 -0.7497 -2.1872  1.1052
  543MOL0     H71638   3.062   8.429   5.475 -0.6408  2.2135 -0.4531
  543MOL0     H71639   3.198   8.242   5.419  0.7065 -1.3938  2.0640
  543MOL0     H71640   3.568   8.148   5.118 -0.8492 -0.2986  1.1299
  543MOL0     H71641   3.683   7.958   5.039 -0.7866  1.7092  0.0256
  543MOL0     H71642   3.903   7.844   4.984 -0.0021 -1.3315 -1.0646
  543MOL0     H71643   3.768   7.739   5.033  0.1303 -1.3651  1.0378
  543MOL0     H71644   3.914   7.576   4.980 -4.4700  1.6374 -0.3521
  543MOL0     H71645   3.927   7.603   5.157 -0.7752 -1.5373 -1.2760
  543MOL0     H71646   4.133   7.735   5.135  2.3273  0.4515 -1.1378
  543MOL0     H71647   4.148   7.689   4.963  0.1665  0.4174 -0.0400
  543MOL0     H71648   4.261   7.524   5.121  0.3303 -2.4357 -0.3533
  543MOL0     H71649   4.095   7.482   5.168  0.5714  0.3907  0.3188
  543MOL0     H71650   4.196   7.482   4.885  1.7416  1.0244  0.8297
  543MOL0     H71651   4.047   7.410   4.937 -0.5014  0.4462  1.7597
  543MOL0     H71652   4.205   7.240   5.067  1.0760  0.1492 -0.0123
  543MOL0     H71653   4.335   7.314   4.966  1.0794 -1.4569  0.1627
  543MOL0     H71654   4.083   7.192   4.840  0.1727  1.4295  0.1494
  543MOL0     H71655   4.229   7.243   4.761 -2.0275  2.5405  1.0925
  543MOL0     H71656   4.356   7.061   4.905  0.0110 -1.4559 -1.7982
  543MOL0     H71657   4.243   7.011   4.772  2.7826  0.6556 -0.9157
  543MOL0     H71658   3.916   7.945   5.402  0.8811 -0.1707 -1.2249
  543MOL0     H71659   3.774   8.141   5.490 -1.8508 -1.9822  1.0701
  543MOL0     H71660   3.561   8.472   5.481 -0.1046  0.3987 -0.0198
  543MOL0     H71661   3.425   8.664   5.550  0.4575  0.9480 -2.3292
  543MOL0     H71662   4.307  10.107   5.922 -1.7325  1.3621 -0.0084
  543MOL0     H71663   4.540  10.155   5.893  0.3095  1.0112 -1.7877
  543MOL0     H71664   4.803  10.161   5.477 -0.5316 -4.3355  0.2519
  543MOL0     H71665   5.015  10.146   5.359 -0.6576 -3.4629  0.4076
  543MOL0     H71666   5.259  10.274   5.266 -2.3407 -0.8498 -0.3862
  543MOL0     H71667   5.207  10.111   5.273 -1.8679  0.5397  0.9336
  543MOL0     H71668   5.456  10.064   5.365  1.0292 -1.3380 -2.2220
  543MOL0     H71669   5.425  10.092   5.191  1.3647  0.2130  0.2926
  543MOL0     H71670   5.529  10.288   5.405 -0.5118  1.9308 -0.0289
  543MOL0     H71671   5.464  10.339   5.238  3.8011  0.8015  0.4832
  543MOL0     H71672   5.714  10.177   5.313  2.3694 -0.0602 -1.4147
  543MOL0     H71673   5.642  10.191   5.149 -0.0396  1.0724  0.8191
  543MOL0     H71674   5.830  10.554   5.242  0.0007  0.2661  0.2889
  543MOL0     H71675   5.220  10.252   5.712  0.7529  2.2457 -0.5509
  543MOL0     H71676   5.012  10.298   5.825 -0.6778  0.6392 -0.4121
  544MOL0     O71677   0.469   1.001   8.061  0.1684 -0.6890  0.3810
  544MOL0     C71678   0.480   1.124   8.047 -0.5144 -0.0289 -0.2150
  544MOL0     O71679   0.385   1.207   7.999  0.2929 -0.1536  0.4149
  544MOL0     C71680   0.262   1.162   7.971  0.3021 -0.3628  0.3901
  544MOL0     C71681   0.235   1.046   7.893 -0.1551  0.5083 -0.9433
  544MOL0     C71682   0.105   1.017   7.852  0.2722 -0.1463 -0.8059
  544MOL0     C71683   0.001   1.104   7.896  0.7433 -0.1576 -0.0444
  544MOL0     O71684  -0.134   1.084   7.867  0.1932  0.0192  0.0196
  544MOL0     C71685  -0.162   1.051   7.724  0.7037  0.1806  0.2173
  544MOL0     C71686  -0.254   1.161   7.656 -1.0084 -0.0449 -0.9616
  544MOL0     C71687  -0.364   1.204   7.751 -0.5546  0.2931  0.5281
  544MOL0     C71688  -0.487   1.248   7.681 -0.5942  0.0885  0.8286
  544MOL0     C71689  -0.615   1.233   7.766  0.2089  0.0924  0.8362
  544MOL0     C71690  -0.745   1.243   7.679  0.5780  0.9544 -0.1033
  544MOL0     C71691  -0.852   1.345   7.750  0.3977 -0.4618  0.7322
  544MOL0     C71692  -0.887   1.308   7.892 -0.2549 -0.5198 -0.1766
  544MOL0     N71693  -0.969   1.411   7.951  0.1252  0.0534  0.0014
  544MOL0     C71694  -0.945   1.485   8.061  0.4235  0.0240 -0.3694
  544MOL0     C71695  -1.046   1.574   8.067  0.2534  0.8610 -0.0842
  544MOL0     C71696  -1.055   1.691   8.154  0.0901  0.1985 -0.4671
  544MOL0     C71697  -1.012   1.816   8.069 -0.5059 -1.1325  0.0718
  544MOL0     C71698  -0.990   1.941   8.160 -0.3475 -0.4514 -0.2168
  544MOL0     C71699  -0.954   2.066   8.080  0.2600 -0.1327 -0.0094
  544MOL0     O71700  -1.052   2.097   7.980 -0.5250  0.3618 -0.0491
  544MOL0     C71701  -1.164   2.154   8.038 -0.4916  0.8249 -0.6034
  544MOL0     C71702  -1.161   2.282   8.080 -0.1976 -0.6720  0.1911
  544MOL0     C71703  -1.267   2.335   8.144  0.1072  0.4587 -0.2419
  544MOL0     C71704  -1.383   2.264   8.172  0.5457 -0.2455  1.1454
  544MOL0     C71705  -1.490   2.334   8.234 -0.4124  0.2149  0.2465
  544MOL0     O71706  -1.612   2.305   8.182  0.1270  0.8342  0.1783
  544MOL0     C71707  -1.716   2.385   8.230  0.2153  0.6454 -0.1761
  544MOL0     C71708  -1.791   2.356   8.345 -0.1999  0.5786  0.5418
  544MOL0     C71709  -1.889   2.440   8.375  0.4486  0.1434 -0.5213
  544MOL0     C71710  -1.917   2.554   8.298  0.7135  0.3948 -0.4785
  544MOL0     O71711  -2.022   2.640   8.320 -0.8370 -0.5712 -0.0240
  544MOL0     C71712  -2.146   2.580   8.352  0.9141 -0.4338  0.5074
  544MOL0     C71713  -2.255   2.698   8.339  0.9817  0.6331 -0.6708
  544MOL0     C71714  -2.347   2.666   8.218 -0.5698  1.0282  0.0405
  544MOL0     C71715  -2.439   2.768   8.193  0.3085 -0.4091  0.5749
  544MOL0     C71716  -2.562   2.725   8.096 -0.0483 -0.0605 -0.2972
  544MOL0     C71717  -2.509   2.717   7.947 -0.0338 -0.7845 -0.4186
  544MOL0     C71718  -2.613   2.666   7.852  0.1130 -0.0339  0.1517
  544MOL0     C71719  -2.672   2.528   7.904  0.4775  0.1891  0.7440
  544MOL0    Cl71720  -2.779   2.462   7.770 -0.1309 -0.0357 -0.3723
  544MOL0     C71721  -1.824   2.596   8.212  0.1268 -0.3797  0.2746
  544MOL0     C71722  -1.729   2.505   8.165 -1.3832  1.0140  0.1117
  544MOL0     O71723  -1.463   2.424   8.314 -0.1748 -0.2075  0.0068
  544MOL0     C71724  -1.395   2.137   8.123  0.4678 -0.6338 -0.1631
  544MOL0     C71725  -1.284   2.080   8.053 -0.6850  0.0930  0.0898
  544MOL0     N71726  -1.143   1.544   7.977 -0.2045 -0.9612  0.3704
  544MOL0     N71727  -1.092   1.447   7.907 -0.0642  0.1828 -0.1211
  544MOL0     C71728   0.034   1.220   7.975 -0.3590  0.3836 -1.1521
  544MOL0     C71729   0.162   1.248   8.012  0.0087  0.1173  0.6999
  544MOL0     C71730   0.612   1.176   8.091  0.1526  0.5041  0.2937
  544MOL0     C71731   0.717   1.087   8.127 -0.5171 -0.6619  0.0787
  544MOL0     C71732   0.839   1.138   8.155 -0.9071 -0.1571  0.0130
  544MOL0     C71733   0.866   1.279   8.152  0.1724  0.5036 -1.8429
  544MOL0     O71734   0.993   1.341   8.181 -0.3125  0.1418  0.1346
  544MOL0     C71735   1.092   1.268   8.259 -0.1891  0.3862  0.8307
  544MOL0     C71736   1.180   1.171   8.179  0.0805 -0.5629  0.3452
  544MOL0     C71737   1.275   1.254   8.084  0.6968  0.2219 -0.6020
  544MOL0     C71738   1.331   1.169   7.974  0.8637  0.2237  0.2974
  544MOL0     C71739   1.332   1.236   7.846  0.1335 -1.4385 -0.3046
  544MOL0     C71740   1.336   1.294   7.739  0.0724  0.7185  1.1945
  544MOL0     C71741   0.765   1.361   8.108 -0.4438 -0.3524  0.8842
  544MOL0     C71742   0.634   1.311   8.080 -0.2741 -0.0767 -0.1824
  544MOL0     H71743   0.304   0.967   7.865 -0.3314 -0.5896  1.4851
  544MOL0     H71744   0.078   0.926   7.800  1.8002 -1.8793  1.2749
  544MOL0     H71745  -0.204   0.950   7.713  1.0226  0.2238 -1.8468
  544MOL0     H71746  -0.076   1.037   7.659 -1.6960 -0.3034 -3.1381
  544MOL0     H71747  -0.283   1.121   7.559  1.8911  0.9960 -2.3751
  544MOL0     H71748  -0.200   1.252   7.629 -1.0223  0.4813  0.6456
  544MOL0     H71749  -0.321   1.283   7.813  2.0028 -0.2372 -0.4312
  544MOL0     H71750  -0.385   1.121   7.819  0.1828  1.9557  2.9234
  544MOL0     H71751  -0.470   1.351   7.649  0.2380  0.0848  1.2274
  544MOL0     H71752  -0.501   1.185   7.593 -0.2375 -1.3683  1.7751
  544MOL0     H71753  -0.610   1.324   7.826  1.2689  0.5873  0.0422
  544MOL0     H71754  -0.617   1.135   7.816  0.7421  1.3391  3.4518
  544MOL0     H71755  -0.787   1.145   7.656 -1.2091  2.3054 -3.1881
  544MOL0     H71756  -0.711   1.285   7.584 -2.1546 -0.0016 -1.6247
  544MOL0     H71757  -0.807   1.444   7.738 -0.4159 -0.2722 -0.9479
  544MOL0     H71758  -0.939   1.358   7.685  1.3832  2.8981 -0.1072
  544MOL0     H71759  -0.801   1.306   7.960 -0.8610 -1.2310  0.5934
  544MOL0     H71760  -0.944   1.215   7.891 -3.0948  1.1110 -0.3852
  544MOL0     H71761  -0.854   1.490   8.120 -0.4430 -1.1227  1.1347
  544MOL0     H71762  -0.980   1.670   8.231  0.3200 -0.9118 -0.9811
  544MOL0     H71763  -1.153   1.703   8.203 -0.5081 -0.1909 -1.5409
  544MOL0     H71764  -1.084   1.841   7.991  1.7637  1.5781 -1.3575
  544MOL0     H71765  -0.923   1.782   8.015 -1.0390 -2.1158 -0.1931
  544MOL0     H71766  -1.082   1.951   8.219  1.9244  0.0283  3.6304
  544MOL0     H71767  -0.913   1.926   8.236  0.0392 -1.7796 -0.8509
  544MOL0     H71768  -0.858   2.054   8.029 -1.0040 -1.1794 -2.2594
  544MOL0     H71769  -0.938   2.149   8.150 -0.9225 -1.1921  1.6036
  544MOL0     H71770  -1.067   2.332   8.057 -1.0728  0.9092 -0.0867
  544MOL0     H71771  -1.259   2.441   8.163  0.0571  0.5442 -0.6984
  544MOL0     H71772  -1.769   2.264   8.398 -0.3709  0.6625  0.7634
  544MOL0     H71773  -1.943   2.405   8.462  1.7183 -2.1220 -0.5521
  544MOL0     H71774  -2.150   2.544   8.455 -1.4524  0.2732  0.7293
  544MOL0     H71775  -2.171   2.502   8.279  3.1507 -1.4717  0.7797
  544MOL0     H71776  -2.215   2.799   8.321  1.3615  0.4709 -0.7383
  544MOL0     H71777  -2.316   2.697   8.430  0.8429 -1.6440 -0.7429
  544MOL0     H71778  -2.403   2.582   8.260  1.4286  0.2444  1.2597
  544MOL0     H71779  -2.284   2.634   8.135 -0.5124 -0.7274  0.7270
  544MOL0     H71780  -2.483   2.784   8.292  2.1307 -1.0130  1.5118
  544MOL0     H71781  -2.389   2.856   8.151 -1.2517 -0.4421 -1.5506
  544MOL0     H71782  -2.643   2.799   8.097  1.7812  2.1263 -2.4486
  544MOL0     H71783  -2.596   2.629   8.137 -1.8567 -0.4809 -2.5976
  544MOL0     H71784  -2.422   2.651   7.951 -0.0039 -0.9443 -2.7253
  544MOL0     H71785  -2.476   2.815   7.913 -1.9448 -0.1602 -0.6350
  544MOL0     H71786  -2.694   2.738   7.840  1.3046  1.3528  0.0709
  544MOL0     H71787  -2.567   2.654   7.753 -0.1247 -3.3083  0.3373
  544MOL0     H71788  -2.733   2.535   7.995  0.5788  1.4718  0.7286
  544MOL0     H71789  -2.585   2.462   7.905  2.0451  1.7855 -4.1102
  544MOL0     H71790  -1.831   2.694   8.166  1.1267  0.6905  2.2605
  544MOL0     H71791  -1.668   2.524   8.078 -1.1945 -3.7728 -1.0790
  544MOL0     H71792  -1.488   2.085   8.140 -0.1767 -0.4719 -2.7057
  544MOL0     H71793  -1.288   1.978   8.018  2.8701 -0.6877  1.5236
  544MOL0     H71794  -0.053   1.275   8.010 -1.9223 -2.2008 -0.7101
  544MOL0     H71795   0.192   1.345   8.049  1.9612  0.1579 -0.8547
  544MOL0     H71796   0.695   0.980   8.125 -1.2728 -0.5316  0.6896
  544MOL0     H71797   0.920   1.070   8.177  1.5358  1.9627 -1.7686
  544MOL0     H71798   1.026   1.208   8.322 -1.0066  0.9881  0.5660
  544MOL0     H71799   1.147   1.338   8.324  0.6804 -0.6652  1.2599
  544MOL0     H71800   1.241   1.112   8.248  1.3986 -0.7746 -0.9424
  544MOL0     H71801   1.118   1.112   8.111  0.9374 -2.7320  1.3531
  544MOL0     H71802   1.354   1.302   8.143 -0.8645 -0.6894  2.3791
  544MOL0     H71803   1.209   1.332   8.045 -2.1190 -0.7661  1.8300
  544MOL0     H71804   1.437   1.149   7.994  0.6096 -2.0105 -0.3040
  544MOL0     H71805   1.276   1.075   7.960 -0.3830  1.1144 -0.9845
  544MOL0     H71806   1.356   1.355   7.654  1.6197 -1.8248 -0.3805
  544MOL0     H71807   0.785   1.467   8.113 -1.0282 -0.1362 -0.8549
  544MOL0     H71808   0.552   1.374   8.046  0.4106 -0.6353 -3.1358
  545MOL0     O71809   7.946   9.441   2.643 -0.8191 -0.1276  0.4791
  545MOL0     C71810   7.983   9.409   2.755 -0.1541  0.1939 -0.0393
  545MOL0     O71811   7.901   9.413   2.864  0.1386 -0.0442 -0.2122
  545MOL0     C71812   7.766   9.441   2.868 -0.2834 -0.2017 -0.8219
  545MOL0     C71813   7.678   9.429   2.765  0.4440  0.7502 -0.6958
  545MOL0     C71814   7.547   9.478   2.778 -0.1521 -0.0930  0.2300
  545MOL0     C71815   7.507   9.534   2.900  0.2607 -0.5891 -0.2565
  545MOL0     O71816   7.376   9.584   2.924  0.4289  0.4418 -0.4127
  545MOL0     C71817   7.288   9.543   2.824 -0.2770 -0.6354 -0.4156
  545MOL0     C71818   7.157   9.602   2.872  0.3077  0.4950 -0.2040
  545MOL0     C71819   7.039   9.554   2.789 -1.2829  0.5824 -0.2932
  545MOL0     C71820   6.905   9.619   2.834 -0.0204  0.6218  0.5385
  545MOL0     C71821   6.792   9.546   2.762  0.0276 -0.2630 -1.3178
  545MOL0     C71822   6.659   9.614   2.777 -1.1207  0.1324 -0.3222
  545MOL0     C71823   6.596   9.599   2.919 -0.1326  0.6823  0.6695
  545MOL0     C71824   6.459   9.669   2.919 -0.0845 -0.1285 -0.0467
  545MOL0     N71825   6.409   9.648   3.061  0.2872  0.1456  0.3699
  545MOL0     C71826   6.385   9.528   3.116  0.4330  0.5852 -0.4426
  545MOL0     C71827   6.358   9.551   3.248 -1.3449  0.4616  0.7498
  545MOL0     C71828   6.326   9.431   3.346  0.0425  0.7560  0.5007
  545MOL0     C71829   6.174   9.453   3.374  0.6327  0.4353 -0.4112
  545MOL0     C71830   6.076   9.397   3.279 -0.2275 -0.1915  0.2570
  545MOL0     C71831   5.940   9.372   3.348 -0.3292  0.4709  0.7500
  545MOL0     O71832   5.891   9.493   3.381  0.1933  0.0435  0.2420
  545MOL0     C71833   5.776   9.491   3.455 -0.5072  0.6928 -0.4016
  545MOL0     C71834   5.660   9.418   3.434  0.0603  0.9446  1.4218
  545MOL0     C71835   5.547   9.426   3.511  0.4548 -0.8241 -0.1325
  545MOL0     C71836   5.551   9.516   3.624 -0.6031 -0.3761  0.3251
  545MOL0     C71837   5.438   9.522   3.718 -0.7687 -0.0654 -0.1956
  545MOL0     O71838   5.336   9.432   3.707 -0.5542  0.0778  0.0060
  545MOL0     C71839   5.222   9.454   3.770  0.2509  0.5026 -0.3723
  545MOL0     C71840   5.171   9.580   3.802 -0.4980  0.5974 -0.0863
  545MOL0     C71841   5.047   9.601   3.854 -0.3768 -0.2316  0.7002
  545MOL0     C71842   4.953   9.494   3.881 -0.1065 -0.2570  0.5799
  545MOL0     O71843   4.821   9.496   3.928  0.0863 -0.4089 -0.2962
  545MOL0     C71844   4.761   9.618   3.949 -0.1465 -0.4705 -0.1735
  545MOL0     C71845   4.624   9.610   4.011  0.3739  0.1196  0.1268
  545MOL0     C71846   4.565   9.753   4.022 -0.4656 -0.0425 -0.5022
  545MOL0     C71847   4.419   9.729   4.054  0.1908 -0.3806 -0.5431
  545MOL0     C71848   4.341   9.854   4.083  0.8007  0.7371  0.2754
  545MOL0     C71849   4.356   9.978   3.994 -0.5364  0.4538 -0.4186
  545MOL0     C71850   4.230  10.067   4.010 -0.2251  0.1573 -0.9828
  545MOL0     C71851   4.251  10.198   3.946  0.1985  0.7437 -0.4662
  545MOL0    Cl71852   4.099  10.254   3.880  0.0047  0.0186  0.5362
  545MOL0     C71853   5.005   9.367   3.844 -0.3618 -0.0234 -0.1013
  545MOL0     C71854   5.131   9.346   3.798 -0.7186 -0.7659  0.1791
  545MOL0     O71855   5.452   9.592   3.811 -0.1109  0.5157  0.4774
  545MOL0     C71856   5.670   9.588   3.650  0.0790 -0.3245  0.3435
  545MOL0     C71857   5.777   9.580   3.566 -0.6095  0.9720  0.1169
  545MOL0     N71858   6.374   9.689   3.269 -0.3041  0.2252 -0.2688
  545MOL0     N71859   6.401   9.743   3.160  0.3215 -0.7417 -0.0668
  545MOL0     C71860   7.592   9.531   3.011  0.2166  0.6972  0.0113
  545MOL0     C71861   7.729   9.492   2.992  0.0051  0.0977  0.3563
  545MOL0     C71862   8.131   9.387   2.774  0.3886  0.2108 -0.3355
  545MOL0     C71863   8.168   9.349   2.903 -0.4697 -0.4766  0.2136
  545MOL0     C71864   8.302   9.327   2.939 -0.2760 -0.2111  0.7728
  545MOL0     C71865   8.403   9.351   2.845  0.1978  0.0775  0.2562
  545MOL0     O71866   8.536   9.345   2.874 -0.2545  0.0563 -0.1983
  545MOL0     C71867   8.573   9.266   2.989  0.2323 -1.2193 -0.5945
  545MOL0     C71868   8.715   9.229   2.961 -0.0064 -0.3531 -0.9756
  545MOL0     C71869   8.762   9.138   3.082  0.7527 -0.1957 -0.0181
  545MOL0     C71870   8.883   9.038   3.054  0.1937 -0.1574  0.0977
  545MOL0     C71871   8.850   8.915   2.978  1.1085 -0.2186 -0.0723
  545MOL0     C71872   8.815   8.808   2.931  0.1976  0.0968  0.4410
  545MOL0     C71873   8.366   9.396   2.718  0.6277 -0.4199 -0.2536
  545MOL0     C71874   8.232   9.408   2.686  1.1078 -0.6094  0.6872
  545MOL0     H71875   7.714   9.384   2.673  0.3653 -1.8898  0.4799
  545MOL0     H71876   7.491   9.482   2.685 -1.3021  0.0197  0.8970
  545MOL0     H71877   7.285   9.433   2.826  0.6419 -0.6662  0.7525
  545MOL0     H71878   7.314   9.582   2.726 -2.1971 -1.2293 -1.2164
  545MOL0     H71879   7.168   9.711   2.875  4.2728  0.2752 -0.7987
  545MOL0     H71880   7.149   9.575   2.978 -0.5822 -0.3031 -0.4639
  545MOL0     H71881   7.023   9.448   2.812  0.8276  0.6611  2.0044
  545MOL0     H71882   7.059   9.570   2.683 -0.6998 -0.5771 -0.3761
  545MOL0     H71883   6.887   9.607   2.942 -3.2436 -0.1561  0.0166
  545MOL0     H71884   6.900   9.725   2.811 -1.1615  0.2967 -0.8644
  545MOL0     H71885   6.797   9.447   2.808  2.5956 -0.7390 -2.3978
  545MOL0     H71886   6.802   9.540   2.653 -1.8082 -0.2114 -1.5136
  545MOL0     H71887   6.588   9.571   2.706  0.4180  1.7051 -2.9254
  545MOL0     H71888   6.666   9.722   2.763 -0.0584 -0.1590 -2.3724
  545MOL0     H71889   6.577   9.495   2.943  0.6677  0.7109  1.4995
  545MOL0     H71890   6.657   9.628   3.005 -0.5039 -1.7273  1.8235
  545MOL0     H71891   6.394   9.626   2.843  1.7072  0.2561 -1.9126
  545MOL0     H71892   6.469   9.774   2.890  2.9264  0.1847  1.6620
  545MOL0     H71893   6.373   9.431   3.069  0.0740 -0.3452  1.4790
  545MOL0     H71894   6.384   9.440   3.438  1.7050  2.3004 -0.6105
  545MOL0     H71895   6.343   9.331   3.306  0.9896  0.5554  1.3822
  545MOL0     H71896   6.142   9.552   3.407 -2.0961 -0.4646 -0.0604
  545MOL0     H71897   6.165   9.389   3.462  0.7793  0.3534 -0.4552
  545MOL0     H71898   6.072   9.461   3.190 -0.6733  0.4569  0.7297
  545MOL0     H71899   6.118   9.302   3.247  1.3196  0.1010  1.3334
  545MOL0     H71900   5.959   9.305   3.432  0.6385  1.5919  1.4536
  545MOL0     H71901   5.869   9.322   3.281 -1.1739  1.7667  0.6447
  545MOL0     H71902   5.663   9.350   3.350  1.8093 -0.0013  2.1933
  545MOL0     H71903   5.456   9.370   3.491  0.4626 -0.8502 -0.0960
  545MOL0     H71904   5.243   9.661   3.798  2.5201 -1.8176  1.1361
  545MOL0     H71905   5.021   9.699   3.894  0.2361 -0.1480  0.8949
  545MOL0     H71906   4.753   9.671   3.854  1.4560 -0.5484 -0.3769
  545MOL0     H71907   4.832   9.680   4.006  0.8205  0.4785 -2.2871
  545MOL0     H71908   4.638   9.543   4.097  3.2151 -2.1291 -1.8984
  545MOL0     H71909   4.567   9.552   3.938  0.5044 -0.0195  0.1347
  545MOL0     H71910   4.575   9.805   3.926  2.0499  2.2008  0.8575
  545MOL0     H71911   4.619   9.818   4.091 -1.7955  0.6417 -0.0712
  545MOL0     H71912   4.366   9.669   3.980  3.4893 -2.8257 -1.1684
  545MOL0     H71913   4.423   9.669   4.145  3.3840 -0.3415 -0.5213
  545MOL0     H71914   4.370   9.894   4.181  0.4526  2.5436 -0.3116
  545MOL0     H71915   4.234   9.831   4.080  0.6647  1.1590  1.2077
  545MOL0     H71916   4.356   9.939   3.892 -1.6232  2.6508 -1.3306
  545MOL0     H71917   4.451  10.027   4.014  0.4742 -2.0615  1.3795
  545MOL0     H71918   4.143  10.011   3.974 -1.5297  0.8852  0.8680
  545MOL0     H71919   4.219  10.092   4.116  2.1464 -2.7850  0.0849
  545MOL0     H71920   4.326  10.183   3.867  1.5855 -2.1237  1.2540
  545MOL0     H71921   4.298  10.264   4.020 -0.8957 -2.9521  3.9516
  545MOL0     H71922   4.943   9.285   3.877  0.5196 -0.3115  0.9175
  545MOL0     H71923   5.154   9.246   3.762  0.6292 -0.5182  0.3083
  545MOL0     H71924   5.683   9.642   3.742  0.2921 -2.0459  1.3651
  545MOL0     H71925   5.871   9.626   3.594  0.0631  0.1974 -0.7987
  545MOL0     H71926   7.551   9.562   3.106 -0.2275  1.0421 -0.2910
  545MOL0     H71927   7.801   9.504   3.072 -0.6963  0.8742  0.8914
  545MOL0     H71928   8.089   9.340   2.977 -1.0919 -0.9024 -0.4844
  545MOL0     H71929   8.329   9.292   3.038 -3.7263 -0.9997  1.5396
  545MOL0     H71930   8.522   9.170   2.978 -0.8991 -0.4560 -2.5028
  545MOL0     H71931   8.541   9.307   3.085 -3.0074 -3.9125 -0.3184
  545MOL0     H71932   8.724   9.163   2.874  3.5481 -1.9511  0.4121
  545MOL0     H71933   8.776   9.319   2.950  0.1055 -0.4490 -1.1433
  545MOL0     H71934   8.670   9.090   3.118 -1.0534  0.9085 -2.7656
  545MOL0     H71935   8.790   9.214   3.156  0.1539 -1.7707  1.9001
  545MOL0     H71936   8.965   9.094   3.009 -0.2701  2.0797  1.8348
  545MOL0     H71937   8.919   9.014   3.155  2.2094  1.7161 -0.0924
  545MOL0     H71938   8.772   8.727   2.876  0.1263 -0.3081  1.0866
  545MOL0     H71939   8.431   9.412   2.633  1.0533  1.5859  0.3861
  545MOL0     H71940   8.211   9.429   2.581 -0.9859  0.2366  1.2191
  546MOL0     O71941   7.820   8.415   1.931 -0.1021  0.2167  0.1292
  546MOL0     C71942   7.859   8.304   1.959  0.2381 -0.4719 -0.5995
  546MOL0     O71943   7.794   8.188   1.912  0.2841  0.5808 -0.6638
  546MOL0     C71944   7.684   8.190   1.830  0.8841  0.0963  0.2849
  546MOL0     C71945   7.584   8.287   1.828  0.4144 -0.2922 -0.0296
  546MOL0     C71946   7.473   8.268   1.746  0.6669 -0.0230 -0.1472
  546MOL0     C71947   7.466   8.157   1.654  0.5400  0.4037  0.0061
  546MOL0     O71948   7.376   8.147   1.558  0.8512 -0.2285 -0.0914
  546MOL0     C71949   7.272   8.248   1.545 -0.7608 -0.1265 -0.2229
  546MOL0     C71950   7.166   8.212   1.646 -0.8581  0.3620 -0.1712
  546MOL0     C71951   7.035   8.295   1.644  0.2000  1.1318  0.6343
  546MOL0     C71952   6.976   8.311   1.500  0.8723  1.0465  0.2427
  546MOL0     C71953   6.848   8.388   1.482 -0.1500  0.1709  0.3109
  546MOL0     C71954   6.727   8.315   1.539 -0.1311  0.5643  0.0492
  546MOL0     C71955   6.600   8.388   1.501 -0.0400 -0.3354  0.4601
  546MOL0     C71956   6.563   8.390   1.350  0.3055  0.6458  0.2008
  546MOL0     N71957   6.450   8.475   1.315  0.5244 -0.7111 -0.6945
  546MOL0     C71958   6.444   8.613   1.301 -0.1511 -0.9756 -0.1138
  546MOL0     C71959   6.324   8.637   1.233 -0.8399  0.1207  0.0734
  546MOL0     C71960   6.267   8.761   1.172  0.3706  2.0606 -0.4853
  546MOL0     C71961   6.243   8.848   1.288  0.3015  0.0249  0.0015
  546MOL0     C71962   6.201   8.991   1.253  0.3969 -0.4416  0.7930
  546MOL0     C71963   6.058   8.998   1.192  0.5116  0.8734  0.7133
  546MOL0     O71964   5.974   8.921   1.290 -0.6604  0.5166  0.8312
  546MOL0     C71965   5.834   8.932   1.260  0.0669 -0.4992  0.3587
  546MOL0     C71966   5.777   8.986   1.152 -0.7366  0.0057  0.1223
  546MOL0     C71967   5.636   8.993   1.134 -0.2741  1.3027  0.2023
  546MOL0     C71968   5.554   8.926   1.223 -0.0698  0.3916 -0.3668
  546MOL0     C71969   5.404   8.914   1.194  0.2001 -0.3372  0.1586
  546MOL0     O71970   5.353   8.979   1.085  0.0016 -0.4721  0.4026
  546MOL0     C71971   5.221   8.962   1.048 -0.1548  0.1438  0.5153
  546MOL0     C71972   5.198   8.883   0.936 -0.0622 -0.1684  0.0738
  546MOL0     C71973   5.072   8.866   0.873  0.3118  0.1740 -0.0990
  546MOL0     C71974   4.967   8.940   0.928 -0.1560 -0.3287 -0.1547
  546MOL0     O71975   4.844   8.938   0.866 -0.0588  0.1761  0.4493
  546MOL0     C71976   4.738   8.896   0.952  0.3322 -0.0223  0.8219
  546MOL0     C71977   4.602   8.942   0.878 -0.0344  0.6464 -0.1123
  546MOL0     C71978   4.483   8.848   0.909  0.6674  0.3184 -0.9665
  546MOL0     C71979   4.359   8.918   0.868 -0.4507 -0.7003 -0.3173
  546MOL0     C71980   4.231   8.832   0.886 -0.0160 -0.6811  0.2350
  546MOL0     C71981   4.105   8.915   0.902  0.2021  0.2021  0.1733
  546MOL0     C71982   3.981   8.824   0.909  0.1866 -0.3342  0.3427
  546MOL0     C71983   3.851   8.905   0.919 -0.8281  0.5213 -0.0613
  546MOL0    Cl71984   3.716   8.792   0.884  0.3213  0.1062  0.1026
  546MOL0     C71985   4.993   9.031   1.034  0.3965 -0.7489  0.2258
  546MOL0     C71986   5.114   9.045   1.097 -0.4455  0.3953  0.4757
  546MOL0     O71987   5.341   8.833   1.265 -0.0043 -0.6520  0.2853
  546MOL0     C71988   5.612   8.867   1.339  0.8226 -0.3282 -0.3037
  546MOL0     C71989   5.748   8.877   1.357 -0.2531  0.1471  0.0691
  546MOL0     N71990   6.259   8.512   1.218 -0.2163 -0.6101  0.0250
  546MOL0     N71991   6.340   8.422   1.252  0.0816  0.5771 -0.4145
  546MOL0     C71992   7.580   8.075   1.653  0.7339  0.6310  0.1184
  546MOL0     C71993   7.674   8.084   1.749 -0.3472  0.8354 -0.5943
  546MOL0     C71994   7.985   8.287   2.034 -0.2672 -1.4828  0.7649
  546MOL0     C71995   8.048   8.159   2.052  0.9512 -0.7698  0.0572
  546MOL0     C71996   8.168   8.145   2.116 -0.4088  0.0348 -0.5764
  546MOL0     C71997   8.236   8.260   2.146 -0.4277  0.6047  0.5003
  546MOL0     O71998   8.367   8.224   2.189 -0.2952  0.1303  0.4070
  546MOL0     C71999   8.467   8.323   2.210 -0.0017  0.1330  0.4631
  546MOL0     C72000   8.574   8.262   2.290  0.0467  0.1877 -0.5285
  546MOL0     C72001   8.710   8.273   2.224  0.0735 -0.3276 -0.0129
  546MOL0     C72002   8.731   8.169   2.101 -0.0596  0.5517  0.1973
  546MOL0     C72003   8.868   8.195   2.045 -0.5344  0.2064 -0.4822
  546MOL0     C72004   8.970   8.213   1.986  0.0577  0.5475 -0.1441
  546MOL0     C72005   8.193   8.392   2.124  0.0799  0.6378  0.2532
  546MOL0     C72006   8.056   8.400   2.080 -0.2806  0.6143 -0.6633
  546MOL0     H72007   7.583   8.370   1.898 -1.0152  0.1484 -0.5221
  546MOL0     H72008   7.402   8.350   1.758  0.0607 -0.7398  1.4933
  546MOL0     H72009   7.233   8.240   1.443 -0.8436 -0.3764 -0.1721
  546MOL0     H72010   7.303   8.353   1.552 -0.8607 -0.1626  0.9102
  546MOL0     H72011   7.204   8.218   1.748  0.2477  3.6875 -0.6723
  546MOL0     H72012   7.135   8.107   1.635 -1.5628  0.2325  2.4284
  546MOL0     H72013   7.043   8.388   1.701  1.2960  0.9933  0.7261
  546MOL0     H72014   6.955   8.240   1.695  1.3042 -2.2667 -1.0108
  546MOL0     H72015   7.043   8.379   1.446  0.3203  0.9904 -0.5200
  546MOL0     H72016   6.977   8.209   1.461  0.9536  0.8977  0.6192
  546MOL0     H72017   6.826   8.409   1.376  1.1014 -3.4075 -0.8080
  546MOL0     H72018   6.861   8.488   1.524 -0.4097  0.8116 -1.0700
  546MOL0     H72019   6.747   8.318   1.647 -0.3040 -0.3281  0.1097
  546MOL0     H72020   6.726   8.213   1.500  2.2215  0.7574 -0.6800
  546MOL0     H72021   6.518   8.347   1.561  1.6782  2.2991  5.1370
  546MOL0     H72022   6.619   8.492   1.530  1.5129 -0.8008  1.2203
  546MOL0     H72023   6.549   8.289   1.310 -0.3279  0.9020 -0.2412
  546MOL0     H72024   6.651   8.426   1.294  0.9705 -1.0825  0.0740
  546MOL0     H72025   6.510   8.693   1.335 -0.4800 -0.2867 -1.0425
  546MOL0     H72026   6.172   8.739   1.122  0.7208  1.0400 -0.7373
  546MOL0     H72027   6.346   8.810   1.114  1.1409  1.9527  0.4543
  546MOL0     H72028   6.340   8.865   1.337  0.8723  0.4948 -1.2340
  546MOL0     H72029   6.172   8.805   1.359 -1.2104  3.2393  0.6289
  546MOL0     H72030   6.205   9.051   1.344 -3.6918  3.5315 -1.2343
  546MOL0     H72031   6.278   9.031   1.187  1.2858 -2.8880  0.2204
  546MOL0     H72032   6.048   8.937   1.102  0.9574  0.8389  0.6879
  546MOL0     H72033   6.025   9.102   1.179  1.2547  1.0526  0.2194
  546MOL0     H72034   5.840   9.026   1.073 -0.6391  1.8140  1.0540
  546MOL0     H72035   5.596   9.041   1.045  0.5824  1.4570 -0.1173
  546MOL0     H72036   5.277   8.828   0.887  0.9121 -0.9443  2.4097
  546MOL0     H72037   5.046   8.802   0.789 -0.2575  2.3701 -1.7151
  546MOL0     H72038   4.730   8.939   1.052 -0.5159 -1.1722  1.2799
  546MOL0     H72039   4.728   8.789   0.972 -0.4204 -0.2761 -0.7175
  546MOL0     H72040   4.616   8.941   0.770 -2.6127  1.9182 -0.5265
  546MOL0     H72041   4.574   9.043   0.907 -1.8859 -0.1399  1.0253
  546MOL0     H72042   4.475   8.833   1.017 -1.7065 -2.6267 -1.4139
  546MOL0     H72043   4.501   8.750   0.863 -2.4199 -1.2470  0.8331
  546MOL0     H72044   4.357   9.014   0.922  0.1027 -0.3615 -0.8827
  546MOL0     H72045   4.360   8.941   0.761  1.1728 -0.1226 -0.2031
  546MOL0     H72046   4.241   8.772   0.977 -0.5124 -1.7969 -0.4287
  546MOL0     H72047   4.231   8.756   0.807 -0.6675 -0.5611  0.1166
  546MOL0     H72048   4.090   8.975   0.812  3.1113 -0.8480 -1.1374
  546MOL0     H72049   4.124   8.976   0.990  0.7766  1.9169 -1.0916
  546MOL0     H72050   3.967   8.747   0.833 -0.7763 -1.5416  1.6821
  546MOL0     H72051   3.992   8.780   1.009 -1.2801  0.4911  0.9015
  546MOL0     H72052   3.847   8.981   0.841  0.4706  0.3051 -0.3457
  546MOL0     H72053   3.837   8.961   1.012 -0.7696  0.7602 -0.1977
  546MOL0     H72054   4.917   9.087   1.087  2.0384  2.3484 -0.4945
  546MOL0     H72055   5.138   9.108   1.182  2.1979  0.6323 -0.3636
  546MOL0     H72056   5.545   8.814   1.406 -0.3851  2.6137  1.0078
  546MOL0     H72057   5.787   8.828   1.445 -0.3608  2.3313  1.4265
  546MOL0     H72058   7.587   7.984   1.595 -0.2501  0.2017  0.6653
  546MOL0     H72059   7.751   8.009   1.764 -0.9427  0.9465  4.9100
  546MOL0     H72060   7.992   8.071   2.023  0.6854 -0.6924  0.3242
  546MOL0     H72061   8.205   8.043   2.126 -2.9722 -0.9845 -0.6662
  546MOL0     H72062   8.433   8.420   2.247  1.1701  0.8785 -0.3541
  546MOL0     H72063   8.503   8.339   2.108  0.9895 -3.2057  0.1531
  546MOL0     H72064   8.581   8.321   2.381  1.1134  0.1758 -0.5854
  546MOL0     H72065   8.542   8.159   2.310 -2.4448  1.0601  0.3249
  546MOL0     H72066   8.785   8.251   2.300 -1.8570 -0.4832  1.9752
  546MOL0     H72067   8.725   8.377   2.192 -0.8941  0.2563  1.2922
  546MOL0     H72068   8.742   8.068   2.141 -1.3198  0.5093  0.4744
  546MOL0     H72069   8.655   8.182   2.024  1.1629  2.4495 -0.7585
  546MOL0     H72070   9.060   8.238   1.935  0.6079  0.2717  0.6728
  546MOL0     H72071   8.257   8.479   2.138 -1.5853  2.4033 -2.1789
  546MOL0     H72072   8.006   8.496   2.080  0.5510  1.0625 -1.4978
  547MOL0     O72073  10.274  10.117   0.114 -0.0952  0.1360  0.2141
  547MOL0     C72074  10.351  10.054   0.185  0.2912 -1.5740 -0.3122
  547MOL0     O72075  10.351   9.915   0.200  0.0585 -0.9788 -0.2313
  547MOL0     C72076  10.250   9.845   0.127  0.2622 -1.2316  1.1679
  547MOL0     C72077  10.284   9.778   0.009  0.8757  0.5786 -0.0877
  547MOL0     C72078  10.190   9.707  -0.060 -0.4952 -0.3150  0.4367
  547MOL0     C72079  10.053   9.697  -0.004  0.3507 -0.1743 -0.1618
  547MOL0     O72080   9.944   9.654  -0.083  1.0495  0.0178  0.3880
  547MOL0     C72081   9.963   9.642  -0.227 -0.3659  0.2643 -1.4010
  547MOL0     C72082   9.966   9.777  -0.294  0.0919 -0.5379 -0.3679
  547MOL0     C72083   9.929   9.770  -0.435 -0.3578  0.6028  0.5584
  547MOL0     C72084   9.934   9.915  -0.485 -0.1406 -0.1188  0.2031
  547MOL0     C72085   9.861   9.933  -0.618 -0.2097 -0.0803  0.7215
  547MOL0     C72086   9.896   9.849  -0.738  0.4458 -0.6844  0.7228
  547MOL0     C72087   9.794   9.885  -0.853 -0.0206 -0.3781  0.2833
  547MOL0     C72088   9.862   9.849  -0.985 -0.1825 -0.3810 -0.1984
  547MOL0     N72089   9.794   9.896  -1.106 -0.5142 -0.5941  0.0636
  547MOL0     C72090   9.715  10.010  -1.114  0.7470  0.6452 -0.5866
  547MOL0     C72091   9.653   9.994  -1.236 -0.1091  1.3854  0.3354
  547MOL0     C72092   9.532  10.071  -1.278  0.4100 -0.2285 -0.3620
  547MOL0     C72093   9.593  10.199  -1.331 -0.5130  0.2705  0.7152
  547MOL0     C72094   9.708  10.188  -1.433  0.2014  0.0784 -0.1463
  547MOL0     C72095   9.663  10.128  -1.560  0.7336 -0.2318  0.1987
  547MOL0     O72096   9.588  10.224  -1.633  0.3561  0.2600 -0.4182
  547MOL0     C72097   9.561  10.197  -1.763 -0.2499 -0.0232  0.7521
  547MOL0     C72098   9.580  10.071  -1.817 -0.2777  0.4110  0.7050
  547MOL0     C72099   9.543  10.040  -1.950  0.6063  0.4673  0.7584
  547MOL0     C72100   9.487  10.137  -2.025 -0.1580 -0.2603  1.3295
  547MOL0     C72101   9.436  10.110  -2.165 -0.2901  0.9118  0.0337
  547MOL0     O72102   9.367  10.221  -2.210 -0.0263 -0.5501  0.3979
  547MOL0     C72103   9.319  10.233  -2.336 -0.0279 -0.2932 -0.2496
  547MOL0     C72104   9.336  10.356  -2.393  0.4731 -0.2330 -0.8477
  547MOL0     C72105   9.280  10.387  -2.523 -0.8125  0.5188  0.2863
  547MOL0     C72106   9.197  10.300  -2.586  0.5191 -0.6155  0.7220
  547MOL0     O72107   9.129  10.335  -2.704 -0.2314  0.4479 -0.2662
  547MOL0     C72108   9.072  10.468  -2.725  0.4013 -0.7218  0.7896
  547MOL0     C72109   8.933  10.446  -2.785 -0.5689 -0.4351  0.2999
  547MOL0     C72110   8.854  10.354  -2.687  0.1785 -0.2948  0.0748
  547MOL0     C72111   8.709  10.353  -2.742  0.0700 -0.4808  1.2213
  547MOL0     C72112   8.611  10.304  -2.635  0.1860  1.1680  0.2741
  547MOL0     C72113   8.477  10.297  -2.701  0.8636 -0.1366 -0.6121
  547MOL0     C72114   8.357  10.265  -2.614  0.4470 -0.1118 -0.2263
  547MOL0     C72115   8.233  10.259  -2.704  0.2272 -0.3493 -0.1613
  547MOL0    Cl72116   8.138  10.119  -2.664  0.1959  0.0787 -0.1546
  547MOL0     C72117   9.192  10.175  -2.528 -0.7052 -0.2665  0.6753
  547MOL0     C72118   9.241  10.146  -2.400  0.2281 -0.4404  0.4177
  547MOL0     O72119   9.471  10.014  -2.228  0.4982  0.1208 -0.5493
  547MOL0     C72120   9.465  10.265  -1.962  0.1618  0.4315  0.5107
  547MOL0     C72121   9.504  10.298  -1.833 -0.3622  0.1266  0.0175
  547MOL0     N72122   9.699   9.873  -1.298  0.0915  0.1311  0.0809
  547MOL0     N72123   9.787   9.819  -1.216  0.4291 -0.0024 -0.0891
  547MOL0     C72124  10.022   9.759   0.116 -0.1870  0.3014 -0.6790
  547MOL0     C72125  10.122   9.826   0.186  0.7355 -0.3281 -0.5756
  547MOL0     C72126  10.453  10.126   0.264 -0.1946  0.0854 -0.0821
  547MOL0     C72127  10.523  10.067   0.373  0.4534 -0.2530  0.2335
  547MOL0     C72128  10.612  10.158   0.439  1.4740  0.1371 -0.4871
  547MOL0     C72129  10.658  10.275   0.390 -0.2360 -0.7428  0.2889
  547MOL0     O72130  10.762  10.333   0.458 -0.1712 -0.3113  0.1403
  547MOL0     C72131  10.893  10.277   0.434 -0.2668  0.1413  0.7900
  547MOL0     C72132  10.988  10.392   0.466  0.6461  0.4075 -0.0316
  547MOL0     C72133  11.130  10.344   0.469 -0.1072 -0.5146  0.0837
  547MOL0     C72134  11.211  10.471   0.461 -0.0292 -0.9580 -0.8562
  547MOL0     C72135  11.355  10.450   0.494  0.5178 -1.0199 -0.4484
  547MOL0     C72136  11.474  10.427   0.512 -0.0061 -0.1721 -0.4720
  547MOL0     C72137  10.593  10.325   0.277 -0.0706  0.1809 -0.3323
  547MOL0     C72138  10.483  10.260   0.225  0.0313 -0.1094  0.5942
  547MOL0     H72139  10.382   9.771  -0.037  0.9808 -1.1797  0.3579
  547MOL0     H72140  10.210   9.644  -0.146 -2.3765 -0.8803  0.3503
  547MOL0     H72141   9.874   9.601  -0.275  0.8166 -1.2451 -2.4196
  547MOL0     H72142  10.053   9.584  -0.251 -0.7126  0.4439 -3.2943
  547MOL0     H72143  10.068   9.815  -0.288 -0.2265  0.8349 -2.4067
  547MOL0     H72144   9.896   9.839  -0.238 -1.7618 -1.2829 -1.7145
  547MOL0     H72145   9.831   9.727  -0.457  1.4689 -2.8331 -1.8488
  547MOL0     H72146  10.007   9.715  -0.487 -1.7358  0.8349 -1.9063
  547MOL0     H72147   9.887   9.981  -0.411  0.0367 -2.2004  2.2954
  547MOL0     H72148  10.037   9.950  -0.499 -0.4532  0.5590 -0.4411
  547MOL0     H72149   9.885  10.036  -0.647 -0.1437  0.2920  2.0272
  547MOL0     H72150   9.758   9.908  -0.594 -0.5973  1.5062  0.7892
  547MOL0     H72151   9.886   9.744  -0.711 -1.3631 -0.7876 -0.2000
  547MOL0     H72152   9.999   9.875  -0.764  0.6846 -0.4731  1.8200
  547MOL0     H72153   9.696   9.838  -0.846 -0.8917  1.2986 -0.2616
  547MOL0     H72154   9.779   9.992  -0.844 -1.0646 -0.5714  0.9474
  547MOL0     H72155   9.876   9.740  -0.993 -2.4993 -0.5736 -4.5731
  547MOL0     H72156   9.957   9.902  -0.979 -1.4952  2.2564 -1.3786
  547MOL0     H72157   9.695  10.085  -1.039  0.9146  0.5454 -0.4414
  547MOL0     H72158   9.464  10.090  -1.194 -0.8794  2.1978 -1.8315
  547MOL0     H72159   9.480  10.008  -1.350 -0.8108 -0.8719  1.0421
  547MOL0     H72160   9.626  10.261  -1.247 -0.3963  0.6898  0.3624
  547MOL0     H72161   9.504  10.245  -1.376 -0.5990 -1.7393 -1.3040
  547MOL0     H72162   9.744  10.290  -1.451 -0.2890  0.6936  2.0524
  547MOL0     H72163   9.788  10.127  -1.390 -0.0675 -0.0086  0.2372
  547MOL0     H72164   9.601  10.040  -1.538 -0.3227  0.6544  0.8666
  547MOL0     H72165   9.750  10.104  -1.621 -0.5028 -2.8512 -0.6780
  547MOL0     H72166   9.618   9.987  -1.759 -0.5148  2.0028  3.3139
  547MOL0     H72167   9.555   9.941  -1.992 -1.4668  0.8733 -0.9914
  547MOL0     H72168   9.397  10.429  -2.341 -0.1560 -0.0713 -0.3239
  547MOL0     H72169   9.298  10.479  -2.577 -0.3212 -0.1365 -0.7264
  547MOL0     H72170   9.128  10.527  -2.798 -0.9017 -0.7048 -0.2563
  547MOL0     H72171   9.053  10.519  -2.630  2.2181 -2.6058  2.2485
  547MOL0     H72172   8.945  10.401  -2.883  0.8837 -3.0616  1.5994
  547MOL0     H72173   8.889  10.547  -2.793  2.7419  1.0601 -0.7449
  547MOL0     H72174   8.860  10.395  -2.586  1.5272  1.2781 -0.5895
  547MOL0     H72175   8.893  10.252  -2.683 -0.6622 -0.5799  2.1484
  547MOL0     H72176   8.687  10.459  -2.758  2.4041 -0.0480  0.4552
  547MOL0     H72177   8.704  10.286  -2.829 -0.3015 -0.9112  1.5703
  547MOL0     H72178   8.612  10.369  -2.548  1.3524 -0.5827  1.6451
  547MOL0     H72179   8.644  10.207  -2.595 -3.0555 -1.9161 -3.6341
  547MOL0     H72180   8.481  10.234  -2.790 -0.1417 -1.4888  0.2529
  547MOL0     H72181   8.460  10.399  -2.737  1.7445  0.5079  0.7226
  547MOL0     H72182   8.369  10.166  -2.568  0.3194  0.0566  0.1710
  547MOL0     H72183   8.337  10.344  -2.541  0.9258 -0.1842 -0.0175
  547MOL0     H72184   8.259  10.247  -2.810  1.3632 -0.4437  0.1183
  547MOL0     H72185   8.172  10.350  -2.696  1.0652  0.3949 -1.8305
  547MOL0     H72186   9.129  10.100  -2.574  0.4675 -2.2998  2.2274
  547MOL0     H72187   9.238  10.050  -2.349  0.1044  0.2001  1.6449
  547MOL0     H72188   9.421  10.334  -2.034  0.0699 -1.0919 -0.9574
  547MOL0     H72189   9.479  10.393  -1.787  1.6663 -0.4926  2.6190
  547MOL0     H72190   9.922   9.738   0.151  1.7300 -5.4064  2.6521
  547MOL0     H72191  10.097   9.881   0.276 -1.6185 -0.2059 -1.2287
  547MOL0     H72192  10.481   9.971   0.398 -0.9974 -0.3576 -2.2940
  547MOL0     H72193  10.652  10.120   0.533 -1.0516 -1.7905 -0.0456
  547MOL0     H72194  10.906  10.248   0.329 -1.8205 -2.9438  1.3296
  547MOL0     H72195  10.911  10.190   0.498 -2.7664  0.5873  2.2618
  547MOL0     H72196  10.984  10.477   0.398  1.1505  2.7058  2.6294
  547MOL0     H72197  10.976  10.440   0.564  0.2984  2.6211 -1.0919
  547MOL0     H72198  11.146  10.289   0.376  0.0596  0.7787 -0.6636
  547MOL0     H72199  11.142  10.280   0.557 -2.7371 -0.9617  0.2222
  547MOL0     H72200  11.205  10.509   0.358 -0.5465  0.0479 -0.4694
  547MOL0     H72201  11.178  10.558   0.518 -1.3159  0.4011 -3.4741
  547MOL0     H72202  11.574  10.394   0.533 -0.4606 -0.3070  1.7522
  547MOL0     H72203  10.633  10.420   0.243 -1.9171  0.7393 -1.0526
  547MOL0     H72204  10.430  10.314   0.148  0.0331  1.6071  1.7373
  548MOL0     O72205   5.261   0.357  10.306 -0.0555  0.1500 -0.3261
  548MOL0     C72206   5.358   0.367  10.382  0.5194  0.0933 -0.0981
  548MOL0     O72207   5.359   0.367  10.517  0.4694  0.4812  0.5569
  548MOL0     C72208   5.243   0.358  10.578  0.2106 -0.1904 -0.1986
  548MOL0     C72209   5.232   0.469  10.668  1.3862  0.0995  0.3262
  548MOL0     C72210   5.112   0.482  10.742 -0.4953  0.0707 -0.1430
  548MOL0     C72211   5.002   0.399  10.715 -0.2635 -0.6340 -0.4148
  548MOL0     O72212   4.879   0.422  10.778 -0.1792 -0.2646  0.2778
  548MOL0     C72213   4.762   0.340  10.750  0.3133  0.9198  0.1602
  548MOL0     C72214   4.640   0.385  10.822 -0.4545 -0.2227  0.5616
  548MOL0     C72215   4.517   0.294  10.788 -0.1922 -0.2670  0.2798
  548MOL0     C72216   4.394   0.322  10.868 -0.3634 -0.6989 -0.0660
  548MOL0     C72217   4.284   0.215  10.853  1.0741 -0.2378  0.0874
  548MOL0     C72218   4.154   0.249  10.935  0.0718  0.1849  0.2341
  548MOL0     C72219   4.088   0.386  10.893  0.7827 -0.5394 -0.4513
  548MOL0     C72220   3.980   0.421  10.994  0.2769  0.1722 -0.5045
  548MOL0     N72221   3.854   0.350  10.965  0.0266 -0.3845  0.4064
  548MOL0     C72222   3.774   0.363  10.851 -0.1939 -0.5760  0.2671
  548MOL0     C72223   3.654   0.313  10.893  0.0952  0.9330 -0.0692
  548MOL0     C72224   3.538   0.300  10.803 -0.6690 -0.0705  0.2521
  548MOL0     C72225   3.496   0.451  10.768  0.3013  0.0417 -0.2058
  548MOL0     C72226   3.467   0.543  10.884 -0.2516 -0.4094  0.7795
  548MOL0     C72227   3.337   0.531  10.957 -0.0065  0.1562 -0.0568
  548MOL0     O72228   3.272   0.664  10.958 -0.1730 -0.1763 -0.0658
  548MOL0     C72229   3.141   0.670  11.005 -1.9296 -0.5208 -0.4343
  548MOL0     C72230   3.061   0.559  11.039  1.0217 -0.5581  0.4357
  548MOL0     C72231   2.934   0.586  11.090  0.1113 -0.0758  0.6646
  548MOL0     C72232   2.871   0.706  11.095 -1.2682 -0.2016  0.2729
  548MOL0     C72233   2.723   0.716  11.130 -0.0556  0.7331 -0.0909
  548MOL0     O72234   2.659   0.841  11.118  0.0237  0.5811 -0.3603
  548MOL0     C72235   2.523   0.861  11.151 -0.0127 -0.0931 -0.3169
  548MOL0     C72236   2.464   0.799  11.263 -0.9813 -0.6422  0.4254
  548MOL0     C72237   2.329   0.824  11.287  0.8652 -0.4075 -0.0392
  548MOL0     C72238   2.245   0.895  11.203 -0.1218  0.5268 -0.1050
  548MOL0     O72239   2.113   0.909  11.241  0.0284  0.4295 -0.0889
  548MOL0     C72240   2.041   1.034  11.208  0.7267 -0.1253  0.1233
  548MOL0     C72241   1.894   1.035  11.240 -0.4635  0.2054 -0.1236
  548MOL0     C72242   1.864   1.025  11.385 -0.7443  0.4176 -0.2047
  548MOL0     C72243   1.723   0.965  11.401  0.1664  0.5280 -0.0631
  548MOL0     C72244   1.659   1.031  11.526  0.6610  0.5088  0.1544
  548MOL0     C72245   1.537   0.948  11.563 -0.0521 -0.0440 -0.3188
  548MOL0     C72246   1.420   0.986  11.470  0.1195 -0.0291 -1.2087
  548MOL0     C72247   1.289   0.921  11.525  0.7608 -0.6828 -0.1426
  548MOL0    Cl72248   1.274   0.759  11.473 -1.1744  0.5367  0.2305
  548MOL0     C72249   2.311   0.963  11.099  0.0489  0.8964  0.9081
  548MOL0     C72250   2.459   0.952  11.074  0.7879  0.5918  0.1438
  548MOL0     O72251   2.664   0.611  11.148  0.2173 -0.3876 -0.0685
  548MOL0     C72252   2.952   0.820  11.078 -0.1663  0.2507 -0.1383
  548MOL0     C72253   3.087   0.801  11.023 -0.3740  0.6443 -0.9799
  548MOL0     N72254   3.652   0.300  11.031  0.1445  0.5195  0.0979
  548MOL0     N72255   3.770   0.319  11.074 -0.7602  0.1842  1.2279
  548MOL0     C72256   5.014   0.307  10.614 -0.6769 -0.6963 -0.3183
  548MOL0     C72257   5.133   0.276  10.554  0.1141  0.1263 -0.0435
  548MOL0     C72258   5.485   0.369  10.310 -0.2595 -0.4001  0.4119
  548MOL0     C72259   5.604   0.408  10.380  0.1052 -0.2010  0.0963
  548MOL0     C72260   5.730   0.419  10.319 -0.1341  0.0683  1.0741
  548MOL0     C72261   5.733   0.399  10.174  0.0951 -0.5532  0.4878
  548MOL0     O72262   5.849   0.412  10.102  0.0321 -0.2425  0.0251
  548MOL0     C72263   5.948   0.509  10.149  0.4708 -0.0536 -0.0126
  548MOL0     C72264   6.061   0.518  10.042 -0.3022 -0.0925 -0.3665
  548MOL0     C72265   6.132   0.388  10.015 -0.1005  0.1055  0.4759
  548MOL0     C72266   6.255   0.413   9.923 -0.8528 -0.0203 -0.5059
  548MOL0     C72267   6.356   0.480  10.006  0.0601  0.3077 -0.2554
  548MOL0     C72268   6.440   0.533  10.075 -0.3980  0.3079 -0.4978
  548MOL0     C72269   5.622   0.344  10.111 -0.3736 -0.4207  0.4579
  548MOL0     C72270   5.497   0.331  10.172  0.2510  0.0972  0.9992
  548MOL0     H72271   5.318   0.533  10.682  2.9265 -1.9926  0.9958
  548MOL0     H72272   5.094   0.562  10.812  1.7609  1.1817 -0.7360
  548MOL0     H72273   4.772   0.234  10.777 -1.0518  1.3511  2.5778
  548MOL0     H72274   4.734   0.352  10.645 -1.6515  4.2710  0.9274
  548MOL0     H72275   4.608   0.489  10.805 -0.5111 -0.2389  0.5675
  548MOL0     H72276   4.661   0.380  10.929  2.8305  0.4011  0.0403
  548MOL0     H72277   4.543   0.188  10.794 -2.1206 -0.8780 -0.9862
  548MOL0     H72278   4.500   0.324  10.685  2.3231  1.5783  0.3140
  548MOL0     H72279   4.413   0.323  10.976 -4.0209  1.8821  0.7375
  548MOL0     H72280   4.358   0.421  10.839  0.8634 -0.3934 -0.6373
  548MOL0     H72281   4.333   0.125  10.892 -0.4379 -0.4803  1.5279
  548MOL0     H72282   4.269   0.209  10.745  0.7829  3.9296 -0.2472
  548MOL0     H72283   4.186   0.255  11.040 -1.0265  3.1705  0.4870
  548MOL0     H72284   4.080   0.172  10.915  1.4389 -1.2086  0.3373
  548MOL0     H72285   4.153   0.474  10.886 -0.2557  0.1702 -1.4980
  548MOL0     H72286   4.049   0.380  10.791  1.0870  0.0963 -0.6082
  548MOL0     H72287   3.977   0.530  10.990  0.7558  0.1650 -1.1696
  548MOL0     H72288   4.004   0.413  11.100 -0.0088  2.7280 -0.1788
  548MOL0     H72289   3.795   0.382  10.746  0.1613 -2.8611 -0.1365
  548MOL0     H72290   3.453   0.247  10.846 -2.4193 -0.0599 -2.8911
  548MOL0     H72291   3.574   0.250  10.713  1.5434 -0.3929  1.2376
  548MOL0     H72292   3.409   0.458  10.702  0.7332  3.0647 -0.5777
  548MOL0     H72293   3.586   0.492  10.722 -0.0446  0.0390 -0.9009
  548MOL0     H72294   3.557   0.544  10.946 -0.5404  0.0407  1.1977
  548MOL0     H72295   3.476   0.648  10.853  3.2472 -0.3495  1.5372
  548MOL0     H72296   3.366   0.500  11.058 -0.5447  1.2171  0.4447
  548MOL0     H72297   3.272   0.456  10.911  2.0497 -0.5930 -1.8960
  548MOL0     H72298   3.103   0.458  11.044  0.7909 -0.6589  0.3332
  548MOL0     H72299   2.874   0.498  11.108  0.8032 -1.8043 -4.1358
  548MOL0     H72300   2.523   0.736  11.329  0.2359  0.4052  0.3697
  548MOL0     H72301   2.285   0.761  11.364  1.7889 -0.7843  0.1830
  548MOL0     H72302   2.057   1.043  11.100  1.9204 -0.2715  0.2649
  548MOL0     H72303   2.088   1.119  11.259 -1.5028  0.3202  1.5381
  548MOL0     H72304   1.855   0.944  11.193 -1.0797  0.2376  0.3122
  548MOL0     H72305   1.841   1.118  11.193 -0.7505 -0.1912 -0.5063
  548MOL0     H72306   1.878   1.125  11.429  0.1300  0.2769 -0.1429
  548MOL0     H72307   1.935   0.948  11.415 -0.5251 -0.8731 -3.6754
  548MOL0     H72308   1.658   0.986  11.316 -1.7845  0.9872  1.4702
  548MOL0     H72309   1.722   0.858  11.425 -1.4133  0.7315  0.9234
  548MOL0     H72310   1.623   1.130  11.498  1.0810  0.7174  0.3471
  548MOL0     H72311   1.734   1.027  11.605  1.2849 -0.0535 -0.4438
  548MOL0     H72312   1.509   0.973  11.666  0.1174 -3.9913  0.8414
  548MOL0     H72313   1.567   0.843  11.558 -1.3096 -0.4722  0.4123
  548MOL0     H72314   1.399   1.093  11.473 -1.1086 -0.2848  0.6432
  548MOL0     H72315   1.448   0.969  11.366  2.4318  2.6616 -1.1794
  548MOL0     H72316   1.200   0.981  11.500  0.7007  0.5597  2.6978
  548MOL0     H72317   1.282   0.923  11.634 -0.3262 -2.8176 -0.1331
  548MOL0     H72318   2.263   1.027  11.025  2.4489 -0.5300 -2.1196
  548MOL0     H72319   2.506   1.003  10.991 -0.5185 -0.5564 -1.3690
  548MOL0     H72320   2.920   0.923  11.091  0.1207  0.6288 -2.1587
  548MOL0     H72321   3.152   0.885  11.001  0.1549  0.8924  1.2660
  548MOL0     H72322   4.930   0.245  10.584 -2.0501  0.0068  1.8501
  548MOL0     H72323   5.144   0.202  10.476 -1.6911 -0.8452  0.5710
  548MOL0     H72324   5.598   0.424  10.487 -0.9558  1.3468 -0.1633
  548MOL0     H72325   5.812   0.435  10.387 -0.6867 -1.3014  2.1156
  548MOL0     H72326   5.994   0.497  10.247  0.8781  2.5120  0.1713
  548MOL0     H72327   5.893   0.603  10.155 -0.2179 -0.5235  1.2186
  548MOL0     H72328   6.012   0.553   9.951 -0.3229  0.5683 -0.1097
  548MOL0     H72329   6.128   0.598  10.076  0.2073 -1.4005  1.8771
  548MOL0     H72330   6.074   0.309   9.966  1.6908  0.0999 -1.8406
  548MOL0     H72331   6.166   0.341  10.107  1.2372 -1.2503 -0.6459
  548MOL0     H72332   6.300   0.320   9.887 -0.2318  0.5680 -1.2884
  548MOL0     H72333   6.236   0.463   9.827  1.8687  0.9155 -0.6702
  548MOL0     H72334   6.512   0.588  10.132  0.6068 -0.4799 -0.9807
  548MOL0     H72335   5.647   0.315  10.009  1.3515 -1.0407  1.0132
  548MOL0     H72336   5.413   0.291  10.115  1.6615  0.2591 -1.3115
  549MOL0     O72337  10.848   4.370   5.745 -0.1972  0.6856 -0.1173
  549MOL0     C72338  10.859   4.445   5.650 -0.3035 -1.1059  0.6902
  549MOL0     O72339  10.759   4.533   5.604 -0.2565  0.9608  0.1135
  549MOL0     C72340  10.640   4.538   5.675  0.1267  0.1302  0.8415
  549MOL0     C72341  10.587   4.657   5.731  0.7269 -0.5416 -0.5873
  549MOL0     C72342  10.459   4.664   5.785 -0.3022  0.4200 -0.0154
  549MOL0     C72343  10.378   4.548   5.784 -0.8760  0.7054 -0.3757
  549MOL0     O72344  10.256   4.571   5.833 -0.3107  0.0445  0.1175
  549MOL0     C72345  10.219   4.477   5.931 -0.9888 -0.1497  0.8879
  549MOL0     C72346  10.107   4.530   6.010 -0.6420  0.3881  0.4273
  549MOL0     C72347   9.985   4.572   5.921  1.4506 -0.6264 -0.1434
  549MOL0     C72348   9.860   4.571   6.011  0.4985 -0.4729  0.2108
  549MOL0     C72349   9.855   4.683   6.114  0.3301 -0.0259  0.3601
  549MOL0     C72350   9.810   4.825   6.058  0.2030  0.3577  0.7418
  549MOL0     C72351   9.808   4.906   6.180  0.6110 -0.3856 -0.6074
  549MOL0     C72352   9.770   5.061   6.157 -0.4599 -0.0085 -0.4943
  549MOL0     N72353   9.625   5.073   6.161  0.6727 -0.0938 -0.1786
  549MOL0     C72354   9.562   5.130   6.272  0.4132 -0.0638  0.0478
  549MOL0     C72355   9.430   5.132   6.238  0.9852  0.8812  0.7570
  549MOL0     C72356   9.322   5.199   6.309  0.0662 -0.2958 -0.0849
  549MOL0     C72357   9.349   5.353   6.319  0.2176  0.0472 -0.0350
  549MOL0     C72358   9.254   5.439   6.408 -0.0166  0.3244 -0.4336
  549MOL0     C72359   9.112   5.464   6.349  0.1188  0.0322 -0.0315
  549MOL0     O72360   9.059   5.341   6.301  0.5515  0.2247 -0.6566
  549MOL0     C72361   8.962   5.336   6.204  0.5106 -0.4053 -0.4009
  549MOL0     C72362   8.864   5.435   6.197 -0.3437 -0.4598  0.0033
  549MOL0     C72363   8.770   5.435   6.097  0.6260  1.0660  0.3060
  549MOL0     C72364   8.758   5.327   6.004 -1.0321 -0.5282 -0.1327
  549MOL0     C72365   8.648   5.315   5.907  0.4838  0.5385 -0.3801
  549MOL0     O72366   8.538   5.403   5.924 -0.5399 -0.2315 -0.2002
  549MOL0     C72367   8.432   5.424   5.834 -0.2254  0.6262  0.6483
  549MOL0     C72368   8.413   5.368   5.708  0.1075  0.1491 -0.8113
  549MOL0     C72369   8.310   5.406   5.635  0.1030  0.0407 -0.2864
  549MOL0     C72370   8.216   5.508   5.670 -0.0458  0.4914  0.2129
  549MOL0     O72371   8.108   5.545   5.596 -0.1037 -0.0438  0.4330
  549MOL0     C72372   8.077   5.484   5.471 -0.0688  0.2130 -0.3035
  549MOL0     C72373   8.026   5.589   5.374  0.2614  0.0367 -0.1694
  549MOL0     C72374   7.895   5.656   5.402 -0.2748 -0.0448 -0.3786
  549MOL0     C72375   7.769   5.580   5.359 -0.6142  0.4006  0.2428
  549MOL0     C72376   7.642   5.657   5.403 -0.4846 -0.1704 -0.3201
  549MOL0     C72377   7.542   5.560   5.468  0.4910 -0.3869 -0.1260
  549MOL0     C72378   7.486   5.469   5.366  0.1182 -0.1754  0.2771
  549MOL0     C72379   7.348   5.422   5.411 -0.5859 -0.0839 -0.2617
  549MOL0    Cl72380   7.255   5.324   5.292 -0.5626  0.3632 -0.1951
  549MOL0     C72381   8.232   5.560   5.796  0.2776 -0.4708  0.8311
  549MOL0     C72382   8.345   5.523   5.870  0.1314  0.1650 -0.1261
  549MOL0     O72383   8.662   5.234   5.819  0.3014 -0.0252  0.4313
  549MOL0     C72384   8.859   5.229   6.012  0.1988 -0.9968 -0.1220
  549MOL0     C72385   8.961   5.237   6.113  0.8480  0.1725  0.8581
  549MOL0     N72386   9.415   5.052   6.122 -0.3323  0.3908 -0.0909
  549MOL0     N72387   9.532   5.034   6.071 -0.0258 -0.2446 -0.2784
  549MOL0     C72388  10.436   4.424   5.726  0.7848 -0.2119  0.9350
  549MOL0     C72389  10.562   4.428   5.666  0.1351  0.2458  0.7210
  549MOL0     C72390  10.986   4.438   5.569 -0.6029 -0.0773  0.1598
  549MOL0     C72391  11.084   4.339   5.598 -0.5287  0.4043 -0.9966
  549MOL0     C72392  11.198   4.325   5.529  0.2056 -1.0160 -0.4699
  549MOL0     C72393  11.222   4.405   5.417  0.0449  0.3833  0.5834
  549MOL0     O72394  11.339   4.386   5.346 -0.4146 -0.3050  0.4225
  549MOL0     C72395  11.407   4.502   5.301  0.4127  0.7707  0.4788
  549MOL0     C72396  11.469   4.493   5.160  0.1816 -0.0746 -0.3771
  549MOL0     C72397  11.539   4.622   5.124  0.3906 -0.4270 -0.0869
  549MOL0     C72398  11.666   4.640   5.207  0.7940 -0.3264  0.4458
  549MOL0     C72399  11.778   4.703   5.133  0.3119  0.3907  0.1364
  549MOL0     C72400  11.872   4.739   5.066 -0.8128 -0.3572  0.0239
  549MOL0     C72401  11.122   4.501   5.377  0.1331  0.2672 -0.2192
  549MOL0     C72402  11.012   4.525   5.456 -0.7902  0.2070  0.5990
  549MOL0     H72403  10.633   4.755   5.725  0.6057 -0.2520  2.0827
  549MOL0     H72404  10.420   4.759   5.820 -0.8419  0.3741 -0.4788
  549MOL0     H72405  10.307   4.447   5.989 -0.1461 -0.2091 -0.3676
  549MOL0     H72406  10.188   4.387   5.877 -0.9940  2.1676 -3.4352
  549MOL0     H72407  10.152   4.609   6.071  2.6193 -0.7626 -0.2832
  549MOL0     H72408  10.063   4.455   6.076 -3.3744  1.3750 -0.1229
  549MOL0     H72409   9.970   4.500   5.840 -2.3039  1.7492 -1.8050
  549MOL0     H72410   9.996   4.673   5.880  0.6056 -0.9865 -1.2877
  549MOL0     H72411   9.764   4.570   5.959  1.1940  0.5922 -1.1570
  549MOL0     H72412   9.855   4.486   6.080  0.1268 -2.3286 -1.9804
  549MOL0     H72413   9.953   4.700   6.160  2.3462  0.6209 -3.7574
  549MOL0     H72414   9.784   4.650   6.190  0.9000 -0.4694  0.7081
  549MOL0     H72415   9.713   4.817   6.008 -0.0757 -0.5245  1.4017
  549MOL0     H72416   9.884   4.870   5.990 -0.8626  0.2039 -0.5537
  549MOL0     H72417   9.751   4.864   6.263  2.0136 -1.2374 -0.0427
  549MOL0     H72418   9.908   4.899   6.222  1.1367  0.4419 -1.6716
  549MOL0     H72419   9.819   5.101   6.068  2.5878  0.8873  1.4296
  549MOL0     H72420   9.816   5.116   6.240 -0.7352  1.0180 -1.0092
  549MOL0     H72421   9.599   5.164   6.368 -0.3720  0.5364  0.1430
  549MOL0     H72422   9.305   5.148   6.404 -1.0621  0.7417  0.2895
  549MOL0     H72423   9.236   5.180   6.243  1.8294  1.2104 -3.0265
  549MOL0     H72424   9.338   5.396   6.219 -1.6397  0.6833  0.4005
  549MOL0     H72425   9.452   5.369   6.353  0.0344  1.6231 -0.1104
  549MOL0     H72426   9.243   5.387   6.503 -0.8809 -1.4074 -1.4232
  549MOL0     H72427   9.310   5.531   6.428  0.8434  0.5102 -3.2133
  549MOL0     H72428   9.111   5.536   6.266 -2.3596  0.2462  0.1165
  549MOL0     H72429   9.056   5.506   6.432  1.3758 -0.0922  0.9060
  549MOL0     H72430   8.856   5.508   6.277 -0.0888 -0.4671  0.0349
  549MOL0     H72431   8.692   5.510   6.096  0.9350  1.4049  1.0358
  549MOL0     H72432   8.488   5.297   5.673  1.3221  2.4143 -3.1109
  549MOL0     H72433   8.319   5.348   5.544  0.5819 -0.6459  0.1873
  549MOL0     H72434   7.999   5.409   5.485  1.4602 -1.1623  1.3180
  549MOL0     H72435   8.156   5.429   5.419 -1.3881 -2.1778  0.0908
  549MOL0     H72436   8.016   5.539   5.277  4.0221  0.0763 -0.7337
  549MOL0     H72437   8.109   5.659   5.360  2.0815 -2.0874 -0.5911
  549MOL0     H72438   7.888   5.752   5.350 -2.5270  0.2388  0.3431
  549MOL0     H72439   7.892   5.671   5.511 -0.2857 -0.6012 -0.2984
  549MOL0     H72440   7.770   5.589   5.250  0.9084  2.3379  0.3537
  549MOL0     H72441   7.771   5.474   5.386  1.2214  0.4291  0.3823
  549MOL0     H72442   7.594   5.712   5.322  0.3859 -2.1663 -2.3021
  549MOL0     H72443   7.674   5.738   5.470 -0.4994  1.6743 -2.4458
  549MOL0     H72444   7.466   5.627   5.508 -1.3415 -0.9575 -2.3879
  549MOL0     H72445   7.592   5.499   5.543  0.1507 -0.5420 -0.0237
  549MOL0     H72446   7.480   5.519   5.269  2.8817  2.2158  1.1958
  549MOL0     H72447   7.550   5.382   5.347  0.2640  0.3644 -2.0308
  549MOL0     H72448   7.286   5.502   5.451  0.7065  1.6606 -1.5828
  549MOL0     H72449   7.379   5.349   5.487  0.3007 -0.9881 -1.4509
  549MOL0     H72450   8.157   5.632   5.829  3.7308  3.3976  1.0043
  549MOL0     H72451   8.349   5.575   5.965 -1.7194 -0.2240  0.2037
  549MOL0     H72452   8.840   5.142   5.950 -3.2202 -0.6403  0.2424
  549MOL0     H72453   9.043   5.167   6.113  1.6325  0.7308 -3.7790
  549MOL0     H72454  10.394   4.324   5.736  1.3420 -0.4319  1.1397
  549MOL0     H72455  10.605   4.334   5.635  0.6421  0.5221  0.5706
  549MOL0     H72456  11.053   4.270   5.676 -0.9303  1.4663 -0.1861
  549MOL0     H72457  11.260   4.241   5.559  2.1918  0.1397 -1.1249
  549MOL0     H72458  11.490   4.509   5.371 -0.8224 -0.6663  2.1941
  549MOL0     H72459  11.340   4.589   5.307  0.8967  1.3734 -1.8623
  549MOL0     H72460  11.531   4.403   5.153  1.0335  0.6123 -2.0965
  549MOL0     H72461  11.384   4.492   5.092  0.2369 -0.6335 -0.4463
  549MOL0     H72462  11.473   4.709   5.134 -0.4293 -0.9895 -0.4433
  549MOL0     H72463  11.574   4.623   5.020  1.3911  0.9128  0.2461
  549MOL0     H72464  11.646   4.718   5.282  2.0113  3.4511 -2.7748
  549MOL0     H72465  11.706   4.550   5.255  1.0026  0.0984  1.0908
  549MOL0     H72466  11.948   4.781   5.004  0.2582 -0.3837  1.2843
  549MOL0     H72467  11.147   4.562   5.291  0.8730  3.2960  1.9751
  549MOL0     H72468  10.935   4.599   5.434 -2.7096 -0.7970  3.3166
  550MOL0     O72469   4.536   3.484   0.224  0.3611  0.0693 -0.5846
  550MOL0     C72470   4.592   3.378   0.267 -0.3870 -0.5033 -0.2046
  550MOL0     O72471   4.539   3.293   0.358 -0.0749 -0.0385  0.1283
  550MOL0     C72472   4.416   3.314   0.406  0.6365 -0.0030 -0.3445
  550MOL0     C72473   4.304   3.323   0.323  0.2314  0.6100  0.3140
  550MOL0     C72474   4.181   3.353   0.379  0.9437  0.0151 -0.5613
  550MOL0     C72475   4.167   3.370   0.517  0.7300 -0.2265  0.1594
  550MOL0     O72476   4.041   3.403   0.571 -0.5625  0.6094 -0.3337
  550MOL0     C72477   3.924   3.423   0.492 -0.3539 -1.1343 -0.0886
  550MOL0     C72478   3.819   3.473   0.589 -0.7574  0.1734  0.6504
  550MOL0     C72479   3.723   3.364   0.633 -1.3184 -0.9545 -0.2340
  550MOL0     C72480   3.624   3.411   0.739  0.3933  0.4598  0.3266
  550MOL0     C72481   3.516   3.309   0.769 -0.2060  0.2097  0.3617
  550MOL0     C72482   3.562   3.199   0.863  0.1175 -0.1044 -0.4731
  550MOL0     C72483   3.482   3.065   0.852  0.1434  0.4138  0.0895
  550MOL0     C72484   3.335   3.075   0.839 -1.1997 -0.4615  0.2821
  550MOL0     N72485   3.269   3.152   0.950 -0.0164 -0.3064  0.1852
  550MOL0     C72486   3.199   3.088   1.054  1.0714 -0.5546  0.2526
  550MOL0     C72487   3.142   3.190   1.128 -0.0468 -0.7921  0.9274
  550MOL0     C72488   3.060   3.190   1.249  0.0993  0.0139 -0.2782
  550MOL0     C72489   3.059   3.322   1.328 -0.4180  0.2556  0.1658
  550MOL0     C72490   3.199   3.379   1.369  0.2834  0.0002 -0.4890
  550MOL0     C72491   3.202   3.514   1.441  0.4306 -0.5694  1.0206
  550MOL0     O72492   3.334   3.541   1.483 -0.4143 -0.7503 -0.4360
  550MOL0     C72493   3.360   3.550   1.620 -0.4372 -0.6155 -0.1016
  550MOL0     C72494   3.283   3.494   1.727 -0.1687 -0.1559  0.6038
  550MOL0     C72495   3.322   3.514   1.863 -0.8622  0.4423  0.5437
  550MOL0     C72496   3.434   3.586   1.898 -0.5861 -0.5247 -0.2812
  550MOL0     C72497   3.481   3.600   2.030  0.2243  0.3085 -0.9385
  550MOL0     O72498   3.460   3.494   2.116  0.8208 -0.0229 -0.0129
  550MOL0     C72499   3.504   3.491   2.248  0.2481  0.8096  0.0772
  550MOL0     C72500   3.593   3.581   2.311  0.5068  0.4051  0.1017
  550MOL0     C72501   3.646   3.548   2.435  0.8361 -0.2899 -0.5775
  550MOL0     C72502   3.593   3.435   2.511  0.1528 -1.1433 -0.4319
  550MOL0     O72503   3.632   3.401   2.635 -0.5247 -0.0795  0.5822
  550MOL0     C72504   3.758   3.427   2.689  0.1704 -0.3858 -0.5430
  550MOL0     C72505   3.755   3.374   2.834 -0.1548 -1.0932  0.8638
  550MOL0     C72506   3.660   3.455   2.925 -0.4294  0.3699  0.1332
  550MOL0     C72507   3.661   3.385   3.056  0.1838  0.0958 -1.3259
  550MOL0     C72508   3.612   3.468   3.173 -0.0486  0.1346 -0.9303
  550MOL0     C72509   3.708   3.573   3.232  0.6378 -0.6670 -0.0597
  550MOL0     C72510   3.632   3.658   3.351 -0.7408 -0.7992 -0.1634
  550MOL0     C72511   3.625   3.567   3.475 -0.4367 -0.1584 -0.1263
  550MOL0    Cl72512   3.780   3.580   3.548 -0.1222 -0.1167 -0.2560
  550MOL0     C72513   3.496   3.359   2.451  0.4257  0.3008 -0.1998
  550MOL0     C72514   3.457   3.383   2.318 -0.4340  0.4206 -0.5104
  550MOL0     O72515   3.543   3.703   2.059  0.9518  0.3450  0.1069
  550MOL0     C72516   3.511   3.634   1.796  0.7018  0.9972 -0.4861
  550MOL0     C72517   3.476   3.614   1.662 -0.2176  0.1195 -0.1655
  550MOL0     N72518   3.166   3.310   1.054  0.7768 -0.5537 -1.3031
  550MOL0     N72519   3.238   3.285   0.947 -0.1954 -0.2268  0.3084
  550MOL0     C72520   4.275   3.352   0.599 -1.2296  1.2771 -0.0924
  550MOL0     C72521   4.400   3.327   0.542 -0.6342  0.1782 -0.1761
  550MOL0     C72522   4.723   3.347   0.211  0.1138  0.5679  0.2785
  550MOL0     C72523   4.795   3.450   0.151  0.8165  0.2648  0.6741
  550MOL0     C72524   4.928   3.429   0.111  0.1600  0.2095  0.1621
  550MOL0     C72525   4.999   3.309   0.122 -0.6757 -0.1311  0.0098
  550MOL0     O72526   5.131   3.310   0.081 -0.4467  0.1328 -0.0515
  550MOL0     C72527   5.215   3.194   0.097 -0.4074 -0.0238 -0.1472
  550MOL0     C72528   5.355   3.220   0.041  0.2411 -0.0459  0.1186
  550MOL0     C72529   5.341   3.281  -0.099  0.7850 -0.3109 -0.0174
  550MOL0     C72530   5.491   3.312  -0.143 -0.2227 -0.4155 -0.6273
  550MOL0     C72531   5.498   3.386  -0.275  0.3374  0.2574  0.0737
  550MOL0     C72532   5.499   3.423  -0.389  0.4067 -0.3416 -0.0576
  550MOL0     C72533   4.931   3.209   0.189 -0.0358  0.1833 -0.2410
  550MOL0     C72534   4.794   3.224   0.228 -0.3748 -0.4828 -1.3663
  550MOL0     H72535   4.322   3.304   0.217  1.2801  3.2263 -0.0462
  550MOL0     H72536   4.106   3.366   0.302  0.0821  1.2027  0.4187
  550MOL0     H72537   3.897   3.330   0.442  0.3232 -2.1659  1.4174
  550MOL0     H72538   3.945   3.506   0.423  2.0241  0.6404  2.5278
  550MOL0     H72539   3.757   3.542   0.530 -0.1694 -0.0599 -0.2642
  550MOL0     H72540   3.869   3.522   0.673 -0.2341  1.9102 -0.6148
  550MOL0     H72541   3.782   3.280   0.672  0.4468  0.8089  1.0989
  550MOL0     H72542   3.668   3.330   0.545 -1.1006  1.5442 -1.4142
  550MOL0     H72543   3.665   3.428   0.839 -0.6718 -1.2282  1.1078
  550MOL0     H72544   3.569   3.495   0.696  1.5222 -0.5466 -3.4662
  550MOL0     H72545   3.484   3.269   0.672  1.6702  0.0348 -0.2321
  550MOL0     H72546   3.443   3.373   0.819 -0.4138  0.0921  0.2100
  550MOL0     H72547   3.556   3.240   0.964  2.7105  1.2020 -0.7677
  550MOL0     H72548   3.669   3.181   0.849 -0.4245 -1.3593 -3.9252
  550MOL0     H72549   3.525   3.014   0.764  1.3998 -0.5840  1.2406
  550MOL0     H72550   3.510   3.004   0.938 -1.1037 -1.0753 -0.5116
  550MOL0     H72551   3.287   2.977   0.835 -0.1981 -0.9794  0.6133
  550MOL0     H72552   3.316   3.120   0.741  1.1120 -2.4519 -1.1832
  550MOL0     H72553   3.198   2.983   1.081  1.0689 -0.7808 -0.6255
  550MOL0     H72554   3.094   3.104   1.309 -1.6989  0.9425  2.2612
  550MOL0     H72555   2.960   3.166   1.212 -0.1552 -1.5288  1.2413
  550MOL0     H72556   2.997   3.307   1.417 -2.0285 -2.8293 -1.3383
  550MOL0     H72557   3.010   3.397   1.264 -1.3883 -1.5714 -1.3145
  550MOL0     H72558   3.250   3.307   1.434 -0.3180  0.6494  0.7155
  550MOL0     H72559   3.256   3.399   1.278  1.1820 -1.0420 -0.1849
  550MOL0     H72560   3.131   3.499   1.523  0.7327 -1.9189  1.0707
  550MOL0     H72561   3.175   3.596   1.375 -1.6983  0.2867  2.8377
  550MOL0     H72562   3.201   3.425   1.711 -0.1597 -0.4097  1.5779
  550MOL0     H72563   3.270   3.453   1.936  2.0168 -0.5380  1.9406
  550MOL0     H72564   3.650   3.660   2.264  0.9769  0.7177  1.1814
  550MOL0     H72565   3.708   3.626   2.477 -0.1982 -0.8869  2.2595
  550MOL0     H72566   3.779   3.535   2.693  4.9626 -1.0889 -1.1572
  550MOL0     H72567   3.827   3.367   2.629 -1.8812 -1.1155 -2.3005
  550MOL0     H72568   3.854   3.372   2.881  0.3632 -0.0282 -0.1242
  550MOL0     H72569   3.709   3.274   2.834 -3.2000  0.1545  2.7816
  550MOL0     H72570   3.558   3.466   2.886 -0.6008  0.6941  0.6586
  550MOL0     H72571   3.716   3.549   2.932  1.8525 -1.0254  1.6279
  550MOL0     H72572   3.608   3.289   3.052  0.4200 -0.0657 -0.7148
  550MOL0     H72573   3.762   3.358   3.086 -1.3037 -2.6830  1.9135
  550MOL0     H72574   3.587   3.392   3.247 -5.2612  0.0799 -2.2988
  550MOL0     H72575   3.518   3.516   3.145 -0.0915  0.2256 -0.6323
  550MOL0     H72576   3.737   3.647   3.157  1.5346 -1.0296 -0.0898
  550MOL0     H72577   3.802   3.524   3.260  2.0947  1.3381 -1.2176
  550MOL0     H72578   3.693   3.748   3.365  0.2462 -1.9257  4.3825
  550MOL0     H72579   3.529   3.689   3.329 -1.1271 -1.2932  0.8849
  550MOL0     H72580   3.600   3.463   3.454 -0.0195 -1.2632  3.9514
  550MOL0     H72581   3.541   3.584   3.543 -1.4493 -1.6932 -0.9308
  550MOL0     H72582   3.457   3.278   2.511  0.7782  0.3234  0.0644
  550MOL0     H72583   3.398   3.311   2.262  1.9467  0.2756 -3.0205
  550MOL0     H72584   3.600   3.696   1.806  1.1018  0.7478 -2.2079
  550MOL0     H72585   3.534   3.662   1.583  1.4563  1.7660  1.9469
  550MOL0     H72586   4.253   3.359   0.705 -3.4045  3.0824 -0.5888
  550MOL0     H72587   4.492   3.307   0.597 -1.1807 -2.2472 -0.0453
  550MOL0     H72588   4.758   3.549   0.125  3.6298  0.9221 -1.3853
  550MOL0     H72589   4.984   3.517   0.081  1.3248 -0.3764  0.5463
  550MOL0     H72590   5.172   3.110   0.043 -0.8540 -0.5779  1.0276
  550MOL0     H72591   5.222   3.168   0.203  0.8747  2.2020  0.3925
  550MOL0     H72592   5.415   3.284   0.106  0.8769 -1.6663  1.2089
  550MOL0     H72593   5.408   3.124   0.035  0.9481  0.3993 -1.1072
  550MOL0     H72594   5.289   3.376  -0.114 -2.1277 -1.9374 -0.8212
  550MOL0     H72595   5.286   3.215  -0.166 -0.3739 -0.4742  1.0599
  550MOL0     H72596   5.548   3.374  -0.074  0.2305 -1.9024  0.3678
  550MOL0     H72597   5.554   3.223  -0.149  0.6882  0.0371  1.3260
  550MOL0     H72598   5.495   3.463  -0.488 -3.0314 -0.7677 -0.2320
  550MOL0     H72599   4.977   3.114   0.215  0.8078 -0.0380 -2.3370
  550MOL0     H72600   4.745   3.140   0.276  1.7569 -0.6083  0.8110
  551MOL0     O72601   6.086   2.359   7.842  0.2765 -0.4871 -0.2767
  551MOL0     C72602   6.066   2.482   7.831  0.4137 -1.0942  0.0980
  551MOL0     O72603   5.944   2.540   7.797  0.0538 -0.0910 -0.5041
  551MOL0     C72604   5.835   2.457   7.763  0.4536 -0.0714 -0.2569
  551MOL0     C72605   5.826   2.324   7.727  0.0162  0.5267  0.1972
  551MOL0     C72606   5.704   2.258   7.707  0.4812 -0.2216 -0.2206
  551MOL0     C72607   5.582   2.318   7.715 -0.3213 -0.2387  0.7484
  551MOL0     O72608   5.474   2.243   7.684 -0.5840 -0.1235 -0.0321
  551MOL0     C72609   5.346   2.304   7.672  0.4317 -0.3272  0.8510
  551MOL0     C72610   5.261   2.307   7.801  0.4632  0.7430  0.1684
  551MOL0     C72611   5.279   2.439   7.885  0.1382 -0.7509 -0.2279
  551MOL0     C72612   5.181   2.468   8.006 -0.4267 -1.0080  0.0305
  551MOL0     C72613   5.036   2.473   7.960 -0.1803 -0.3514  0.2981
  551MOL0     C72614   5.004   2.573   7.850  0.0359  0.1205  0.5406
  551MOL0     C72615   4.852   2.583   7.845 -0.0119 -0.2195  0.1892
  551MOL0     C72616   4.795   2.656   7.728 -0.2860 -0.5589  0.2120
  551MOL0     N72617   4.851   2.792   7.722  0.1023  0.0861  0.1932
  551MOL0     C72618   4.797   2.897   7.776 -0.5040 -0.4095 -0.5654
  551MOL0     C72619   4.881   2.997   7.746  0.3276 -0.1996 -0.7865
  551MOL0     C72620   4.871   3.146   7.785 -0.3747 -0.4336 -0.4424
  551MOL0     C72621   4.828   3.224   7.657 -0.6685 -0.0023  0.2009
  551MOL0     C72622   4.835   3.370   7.697  0.2923  0.3017  0.3634
  551MOL0     C72623   4.792   3.459   7.580 -0.2906 -0.3617  0.3092
  551MOL0     O72624   4.838   3.591   7.611  0.1665  0.8193 -0.4050
  551MOL0     C72625   4.958   3.633   7.589 -0.3436  0.1129  0.8942
  551MOL0     C72626   5.070   3.542   7.568 -0.1339 -0.3595  0.1357
  551MOL0     C72627   5.194   3.602   7.550 -0.2393 -0.1650  0.5485
  551MOL0     C72628   5.213   3.743   7.540  0.2925  0.1059 -0.1305
  551MOL0     C72629   5.342   3.796   7.512  0.3956  0.3113  0.3252
  551MOL0     O72630   5.365   3.928   7.547  0.2604 -0.3132  0.1636
  551MOL0     C72631   5.488   3.985   7.539  0.2856  0.5134 -0.5748
  551MOL0     C72632   5.544   4.034   7.659 -0.2835 -0.4346  0.6208
  551MOL0     C72633   5.663   4.115   7.653  0.5905 -0.2561 -0.3814
  551MOL0     C72634   5.722   4.143   7.529 -0.3406  0.3076  0.3721
  551MOL0     O72635   5.826   4.229   7.519  0.0690 -0.2422  0.3475
  551MOL0     C72636   5.835   4.330   7.614 -0.9777 -1.3658 -0.5645
  551MOL0     C72637   5.922   4.446   7.556  0.9299  0.5733  0.2426
  551MOL0     C72638   6.072   4.429   7.578 -0.5841  0.0670 -0.8349
  551MOL0     C72639   6.157   4.543   7.533  1.0620 -0.8480  0.9689
  551MOL0     C72640   6.309   4.521   7.538  0.7367 -0.5024 -0.3397
  551MOL0     C72641   6.366   4.497   7.676  0.3021  0.7968 -0.6631
  551MOL0     C72642   6.522   4.508   7.691  0.1226  0.0527 -0.5625
  551MOL0     C72643   6.568   4.410   7.803 -0.4181 -0.5561  0.4616
  551MOL0    Cl72644   6.744   4.396   7.770 -0.3500  0.5354  0.7337
  551MOL0     C72645   5.670   4.089   7.411 -0.2204  0.6346 -0.0637
  551MOL0     C72646   5.555   4.014   7.423 -0.2326  0.7265  0.4627
  551MOL0     O72647   5.424   3.724   7.461 -0.1708 -0.4789  0.9489
  551MOL0     C72648   5.102   3.830   7.560 -0.3064  0.6733  0.0055
  551MOL0     C72649   4.976   3.773   7.585  0.3708 -1.0484 -0.0312
  551MOL0     N72650   4.990   2.947   7.683 -0.2058  0.6608  0.0221
  551MOL0     N72651   4.959   2.827   7.650 -0.4226 -1.3423  0.0184
  551MOL0     C72652   5.591   2.455   7.745  0.6020  0.2294 -0.6928
  551MOL0     C72653   5.708   2.523   7.778 -0.2183 -0.2655  1.0159
  551MOL0     C72654   6.186   2.565   7.849 -0.6538 -0.8831 -0.9883
  551MOL0     C72655   6.316   2.517   7.836 -0.0230  0.3620  0.2092
  551MOL0     C72656   6.432   2.599   7.828 -1.2952  0.1420 -0.7508
  551MOL0     C72657   6.415   2.738   7.847 -0.1731 -0.0605  0.1414
  551MOL0     O72658   6.522   2.825   7.869 -0.5637 -0.1025  0.1969
  551MOL0     C72659   6.652   2.775   7.879 -0.4664  0.2741 -0.5254
  551MOL0     C72660   6.754   2.894   7.889  1.0701  0.3153 -0.1379
  551MOL0     C72661   6.894   2.852   7.854  0.3491  0.1745  0.7588
  551MOL0     C72662   6.998   2.956   7.887 -0.1827 -0.2678 -0.5247
  551MOL0     C72663   6.997   3.069   7.796 -0.4239 -0.4718 -0.5837
  551MOL0     C72664   7.004   3.168   7.727  0.3174  0.6396  0.8415
  551MOL0     C72665   6.287   2.787   7.854 -0.3905  0.5963 -0.9655
  551MOL0     C72666   6.172   2.704   7.864 -0.3182  0.0048  0.1884
  551MOL0     H72667   5.918   2.274   7.699  0.2987  1.6437 -0.9486
  551MOL0     H72668   5.715   2.153   7.680 -2.3252 -0.6504 -0.0270
  551MOL0     H72669   5.288   2.233   7.612  2.8451 -1.3633 -0.4287
  551MOL0     H72670   5.363   2.401   7.624  2.9568 -1.3076 -0.4509
  551MOL0     H72671   5.291   2.221   7.862  0.9106  0.4181 -0.5066
  551MOL0     H72672   5.155   2.298   7.777  0.4019 -0.6372  0.8721
  551MOL0     H72673   5.282   2.521   7.813  3.7417 -1.5888 -1.2334
  551MOL0     H72674   5.381   2.430   7.922 -0.0423 -0.1937  0.4321
  551MOL0     H72675   5.184   2.392   8.084 -3.0635 -0.3503  0.8596
  551MOL0     H72676   5.220   2.557   8.056  2.4256 -0.3418 -3.0058
  551MOL0     H72677   4.982   2.486   8.054  2.6963 -2.1289  2.3718
  551MOL0     H72678   5.011   2.378   7.912  0.1585 -0.2984  0.0081
  551MOL0     H72679   5.040   2.548   7.749 -0.6582  1.4406 -0.0562
  551MOL0     H72680   5.041   2.673   7.875 -1.1531  0.9950 -0.9866
  551MOL0     H72681   4.813   2.481   7.843  1.3578 -0.7564 -0.8286
  551MOL0     H72682   4.801   2.614   7.937  1.0875 -4.1572  2.3676
  551MOL0     H72683   4.687   2.666   7.733 -0.3133 -1.0423  0.8564
  551MOL0     H72684   4.816   2.601   7.635  0.6354 -1.1214  0.7284
  551MOL0     H72685   4.706   2.917   7.832 -1.1381 -1.0879 -1.3208
  551MOL0     H72686   4.973   3.173   7.814 -0.0355 -1.3062 -0.7653
  551MOL0     H72687   4.809   3.157   7.874 -0.0143 -0.1132 -0.2332
  551MOL0     H72688   4.726   3.190   7.634 -0.0161 -1.4345 -0.6949
  551MOL0     H72689   4.904   3.192   7.585  1.9542  0.0138  2.7976
  551MOL0     H72690   4.771   3.382   7.785 -0.7458 -1.6627 -0.0583
  551MOL0     H72691   4.932   3.405   7.733  0.4622  0.2885 -0.0786
  551MOL0     H72692   4.683   3.468   7.569 -0.4663  0.9513  2.4689
  551MOL0     H72693   4.829   3.412   7.489 -2.7914 -4.5508  1.1984
  551MOL0     H72694   5.063   3.434   7.571  1.8976 -0.5490 -0.0817
  551MOL0     H72695   5.281   3.538   7.546 -0.8068 -0.8911 -2.1664
  551MOL0     H72696   5.489   4.008   7.750 -1.4434  0.6057  0.2542
  551MOL0     H72697   5.704   4.146   7.749 -1.8000 -0.0371  0.6487
  551MOL0     H72698   5.891   4.298   7.703  2.2501 -0.0517 -1.9579
  551MOL0     H72699   5.740   4.380   7.634  1.0045  2.1391  0.9219
  551MOL0     H72700   5.883   4.539   7.598  0.6944  0.0844  1.1461
  551MOL0     H72701   5.901   4.440   7.449 -2.6554  0.4172  0.8231
  551MOL0     H72702   6.106   4.335   7.533 -1.0604 -0.7508  0.4476
  551MOL0     H72703   6.090   4.421   7.686  0.8085  0.1632 -1.0465
  551MOL0     H72704   6.136   4.557   7.427  0.9409  1.5337  1.2546
  551MOL0     H72705   6.124   4.635   7.583  1.8993 -0.1348  0.2466
  551MOL0     H72706   6.357   4.609   7.493  1.1099 -0.2213  0.6019
  551MOL0     H72707   6.344   4.437   7.477 -0.6905 -0.9075 -0.6370
  551MOL0     H72708   6.337   4.397   7.708  0.7463  0.6003 -0.8695
  551MOL0     H72709   6.326   4.579   7.737  4.1579  1.0434  1.8348
  551MOL0     H72710   6.572   4.482   7.598  2.4908 -0.4583  0.7758
  551MOL0     H72711   6.537   4.614   7.714 -0.9576 -0.0956  1.0264
  551MOL0     H72712   6.532   4.308   7.787  0.5118 -0.5150 -2.5161
  551MOL0     H72713   6.542   4.451   7.900 -1.2180 -2.7298  1.2373
  551MOL0     H72714   5.714   4.109   7.314  0.0793  2.2883  0.3864
  551MOL0     H72715   5.494   3.984   7.338 -2.4550 -1.5281  2.6583
  551MOL0     H72716   5.114   3.937   7.565  0.9750  0.7662 -3.0766
  551MOL0     H72717   4.889   3.837   7.599  1.8863  1.3806 -1.0293
  551MOL0     H72718   5.499   2.512   7.758 -1.4938 -2.9491 -0.4333
  551MOL0     H72719   5.708   2.626   7.813 -0.4924  0.0386  0.1476
  551MOL0     H72720   6.330   2.411   7.818 -1.7134  0.1977 -0.3200
  551MOL0     H72721   6.530   2.552   7.825 -0.0205  2.5687 -0.4091
  551MOL0     H72722   6.673   2.718   7.788 -0.1461  0.8058 -0.7915
  551MOL0     H72723   6.658   2.709   7.966 -2.3136  2.0301  1.0179
  551MOL0     H72724   6.725   2.980   7.827 -0.2734  0.9503  1.3216
  551MOL0     H72725   6.734   2.937   7.987 -2.6394  1.9882 -1.4189
  551MOL0     H72726   6.902   2.818   7.750  0.7215 -1.6328  1.3513
  551MOL0     H72727   6.922   2.766   7.915  2.0079  0.5882  0.6327
  551MOL0     H72728   6.974   2.994   7.987 -2.8506  1.0037 -1.5441
  551MOL0     H72729   7.096   2.908   7.889  0.4616  1.0309  0.7900
  551MOL0     H72730   7.018   3.254   7.665  2.2035  0.8740  1.5249
  551MOL0     H72731   6.261   2.891   7.870 -0.5161  0.7254 -1.9282
  551MOL0     H72732   6.083   2.764   7.877  1.2114  2.3283  0.4701
  552MOL0     O72733   7.652   3.351   3.189 -0.1944  0.5030 -0.4760
  552MOL0     C72734   7.651   3.382   3.305  0.2229 -0.0594  0.0019
  552MOL0     O72735   7.548   3.353   3.388  0.1310  0.0210  0.7250
  552MOL0     C72736   7.454   3.250   3.361  0.3192  0.1149 -0.4276
  552MOL0     C72737   7.424   3.181   3.239  0.1612 -0.9242 -0.3628
  552MOL0     C72738   7.324   3.087   3.227 -0.3217  0.5294  0.1773
  552MOL0     C72739   7.258   3.046   3.341 -0.5170 -0.1642 -1.0289
  552MOL0     O72740   7.178   2.934   3.336  0.1798 -0.0343  0.1514
  552MOL0     C72741   7.082   2.905   3.435  0.9077  0.4035  0.2475
  552MOL0     C72742   6.989   2.791   3.384 -0.4133 -0.3296  0.6841
  552MOL0     C72743   6.914   2.735   3.505  0.3898  0.5556 -0.2541
  552MOL0     C72744   6.829   2.613   3.477  0.6129  0.5909 -0.1493
  552MOL0     C72745   6.792   2.525   3.604 -0.2714 -0.2333  0.7555
  552MOL0     C72746   6.721   2.393   3.571  0.4153  0.5237 -0.2734
  552MOL0     C72747   6.601   2.395   3.474  0.0937  0.1767 -0.0146
  552MOL0     C72748   6.482   2.480   3.532  0.1555 -0.1573 -0.6054
  552MOL0     N72749   6.417   2.407   3.646 -0.4279 -0.7983  0.8905
  552MOL0     C72750   6.315   2.309   3.644 -0.4115 -0.4917 -0.4046
  552MOL0     C72751   6.294   2.247   3.756 -0.0838  0.0209 -0.6039
  552MOL0     C72752   6.193   2.144   3.787  0.8761  0.0672 -0.2757
  552MOL0     C72753   6.046   2.202   3.817 -0.7307 -0.4655  1.0140
  552MOL0     C72754   5.967   2.192   3.684  0.4692  0.3343 -0.1151
  552MOL0     C72755   5.824   2.215   3.713  0.8275 -0.7886 -0.5867
  552MOL0     O72756   5.738   2.168   3.610 -1.4751  0.3317 -0.4215
  552MOL0     C72757   5.604   2.181   3.614  1.0387 -0.0694  0.0531
  552MOL0     C72758   5.531   2.153   3.502  0.2267 -0.4879 -0.0245
  552MOL0     C72759   5.394   2.162   3.503  0.5728 -0.4440  0.4404
  552MOL0     C72760   5.329   2.207   3.613 -0.3467  0.3292  0.4348
  552MOL0     C72761   5.184   2.218   3.613 -0.1202 -0.1862  0.6370
  552MOL0     O72762   5.121   2.175   3.730 -0.3901  0.6115 -0.3390
  552MOL0     C72763   4.994   2.201   3.747  0.9641  0.4905  0.8823
  552MOL0     C72764   4.953   2.315   3.816  1.0455 -0.0334 -0.1706
  552MOL0     C72765   4.814   2.350   3.818 -0.5577  0.6286 -0.2196
  552MOL0     C72766   4.717   2.275   3.759  0.1828  0.5125  0.3601
  552MOL0     O72767   4.595   2.325   3.786  0.0909  0.0164 -0.1880
  552MOL0     C72768   4.485   2.242   3.764  1.0616 -0.6384  0.0543
  552MOL0     C72769   4.370   2.274   3.859  0.3382  0.0587 -0.1838
  552MOL0     C72770   4.238   2.205   3.816 -0.0938 -0.6326 -0.2842
  552MOL0     C72771   4.120   2.256   3.897 -0.7417 -0.1079  0.0147
  552MOL0     C72772   3.999   2.185   3.851 -0.3368 -0.0658 -0.4268
  552MOL0     C72773   3.874   2.194   3.937  0.2419  0.1142 -0.5846
  552MOL0     C72774   3.748   2.143   3.865 -0.4115 -0.1873  0.9659
  552MOL0     C72775   3.616   2.152   3.953  0.0541 -0.8974  0.4144
  552MOL0    Cl72776   3.467   2.128   3.855 -0.1001  0.5262 -0.1374
  552MOL0     C72777   4.756   2.164   3.678 -0.3320 -0.4446 -0.5965
  552MOL0     C72778   4.893   2.134   3.674 -1.0746  0.3685  0.1955
  552MOL0     O72779   5.129   2.252   3.510 -0.3647 -0.1450 -0.1921
  552MOL0     C72780   5.402   2.242   3.727  0.4150 -0.1768 -0.8166
  552MOL0     C72781   5.539   2.230   3.730 -1.0729  0.4549 -0.0467
  552MOL0     N72782   6.389   2.314   3.838 -0.0205 -0.3272  0.0566
  552MOL0     N72783   6.460   2.399   3.777  0.2942 -0.1172 -0.0499
  552MOL0     C72784   7.281   3.113   3.463 -0.1565 -0.2231  0.2456
  552MOL0     C72785   7.366   3.220   3.463 -0.4472 -0.5791  0.3441
  552MOL0     C72786   7.765   3.464   3.361 -0.1227  0.6607 -0.2414
  552MOL0     C72787   7.771   3.472   3.505  1.1046  0.3173 -0.2169
  552MOL0     C72788   7.879   3.533   3.567  0.1373 -0.6715  0.5659
  552MOL0     C72789   7.974   3.609   3.488  0.5017  1.2360  0.1675
  552MOL0     O72790   8.064   3.699   3.538 -0.5184 -0.3881  0.1422
  552MOL0     C72791   8.136   3.654   3.652  0.0981  0.0539  0.2884
  552MOL0     C72792   8.274   3.722   3.664 -0.2858 -0.7834  0.0193
  552MOL0     C72793   8.356   3.676   3.549  0.2406 -0.0641 -0.3179
  552MOL0     C72794   8.506   3.685   3.578 -0.2804  0.3249 -0.4652
  552MOL0     C72795   8.579   3.596   3.486 -0.6112 -0.4393  0.5784
  552MOL0     C72796   8.644   3.525   3.414 -0.3563 -0.0559  0.3902
  552MOL0     C72797   7.965   3.597   3.351  0.0684 -0.1376  0.5467
  552MOL0     C72798   7.858   3.529   3.288 -0.1163 -1.0069 -0.6360
  552MOL0     H72799   7.468   3.221   3.148 -1.7406 -2.1175 -1.8797
  552MOL0     H72800   7.290   3.047   3.132  2.7649  0.0888 -0.8336
  552MOL0     H72801   7.022   2.996   3.446 -0.6916 -0.3906 -1.2332
  552MOL0     H72802   7.131   2.881   3.530  1.3877 -0.6952 -0.2663
  552MOL0     H72803   7.046   2.711   3.337 -0.1711  0.5764 -0.6011
  552MOL0     H72804   6.924   2.821   3.301 -0.3241 -1.8295  0.0374
  552MOL0     H72805   6.852   2.813   3.548  0.1239  0.3554 -0.2715
  552MOL0     H72806   6.986   2.696   3.578 -1.3215 -0.2982  1.0403
  552MOL0     H72807   6.729   2.643   3.444 -1.6049 -4.9104  0.5393
  552MOL0     H72808   6.877   2.554   3.399 -0.9802 -0.0479 -0.6920
  552MOL0     H72809   6.729   2.579   3.674 -1.8697 -3.3622  1.9482
  552MOL0     H72810   6.888   2.515   3.657  0.0044 -1.5530  0.0569
  552MOL0     H72811   6.694   2.348   3.667 -1.4291  0.8101 -0.6268
  552MOL0     H72812   6.800   2.335   3.521 -0.1365  0.9346 -1.6773
  552MOL0     H72813   6.634   2.427   3.374 -0.2486 -1.7711 -0.8025
  552MOL0     H72814   6.556   2.298   3.450  0.3626  0.2317 -0.7968
  552MOL0     H72815   6.403   2.493   3.458  0.2781 -1.1220 -0.9153
  552MOL0     H72816   6.506   2.579   3.573 -1.7619 -0.1203  0.5286
  552MOL0     H72817   6.274   2.275   3.549 -0.4551 -1.1650 -0.1538
  552MOL0     H72818   6.221   2.111   3.887  1.2741  0.6929 -0.1743
  552MOL0     H72819   6.187   2.068   3.708 -0.2430  1.0686 -1.2096
  552MOL0     H72820   6.053   2.308   3.844 -1.2266 -0.5171  1.3628
  552MOL0     H72821   6.001   2.141   3.897  0.8019 -0.8180  1.6340
  552MOL0     H72822   5.997   2.256   3.601  0.0026 -0.9374 -1.3064
  552MOL0     H72823   5.975   2.092   3.640 -2.0406  0.0724 -0.1295
  552MOL0     H72824   5.812   2.323   3.730 -1.5387 -1.0052 -0.5991
  552MOL0     H72825   5.794   2.170   3.808 -0.9780  3.1207  0.9502
  552MOL0     H72826   5.577   2.131   3.406 -0.8963 -1.6202 -0.3365
  552MOL0     H72827   5.348   2.155   3.405 -1.6889  0.5443  1.3582
  552MOL0     H72828   5.014   2.371   3.886  1.1415 -1.2201  0.7153
  552MOL0     H72829   4.786   2.436   3.878  1.4611  1.4449 -0.3696
  552MOL0     H72830   4.508   2.137   3.782 -0.0248 -0.5644  2.2830
  552MOL0     H72831   4.456   2.253   3.659 -2.1253 -2.1424  0.6652
  552MOL0     H72832   4.353   2.382   3.860  0.3060  0.0569  0.9984
  552MOL0     H72833   4.392   2.239   3.960 -1.4234 -0.0329  0.1915
  552MOL0     H72834   4.248   2.100   3.845  1.5828  0.5334  4.3891
  552MOL0     H72835   4.221   2.213   3.709  3.9594 -0.4811 -1.0632
  552MOL0     H72836   4.128   2.239   4.004 -1.0200 -0.6513 -0.0495
  552MOL0     H72837   4.105   2.363   3.878 -1.2605 -0.2793 -0.5728
  552MOL0     H72838   4.019   2.078   3.864 -0.7215 -0.4450 -2.4797
  552MOL0     H72839   3.976   2.195   3.744 -0.2546 -1.0705 -0.5493
  552MOL0     H72840   3.863   2.298   3.969  0.7732 -0.4800  1.7103
  552MOL0     H72841   3.894   2.133   4.025  0.0575 -0.3531 -0.8663
  552MOL0     H72842   3.733   2.208   3.779  0.0012 -0.8204  0.4015
  552MOL0     H72843   3.764   2.042   3.824 -0.7995  0.9262 -2.2009
  552MOL0     H72844   3.616   2.251   3.999  0.8485 -0.2509 -0.9076
  552MOL0     H72845   3.612   2.076   4.031 -0.3564 -0.5308  0.7610
  552MOL0     H72846   4.687   2.110   3.614 -0.4460 -1.2186  0.1514
  552MOL0     H72847   4.939   2.048   3.625  1.9458  0.4143  2.6613
  552MOL0     H72848   5.347   2.283   3.811 -0.6524 -0.4464 -1.3675
  552MOL0     H72849   5.592   2.256   3.821 -1.2317  1.5154 -0.2409
  552MOL0     H72850   7.218   3.096   3.550 -0.4913 -0.8215 -0.1039
  552MOL0     H72851   7.382   3.269   3.558  0.5376 -1.2309  0.5256
  552MOL0     H72852   7.706   3.417   3.574  0.1816  2.7983  1.0283
  552MOL0     H72853   7.887   3.525   3.675 -1.1802 -2.5839  0.5729
  552MOL0     H72854   8.142   3.545   3.646  0.8209  0.0326  1.2493
  552MOL0     H72855   8.068   3.679   3.735 -0.5718 -1.9448  0.3929
  552MOL0     H72856   8.255   3.829   3.650 -1.3460 -0.9557  0.0935
  552MOL0     H72857   8.326   3.706   3.759  4.0869  2.1481 -1.5725
  552MOL0     H72858   8.320   3.739   3.467  1.8100  1.2308 -0.0771
  552MOL0     H72859   8.327   3.573   3.528 -1.5664  0.7310 -2.0315
  552MOL0     H72860   8.539   3.789   3.573  0.4530  0.1008 -0.5131
  552MOL0     H72861   8.523   3.660   3.683  1.1769  0.8382 -0.5464
  552MOL0     H72862   8.706   3.458   3.359 -0.6245  0.3151 -0.3740
  552MOL0     H72863   8.038   3.653   3.293  1.4369 -1.4805  0.9262
  552MOL0     H72864   7.847   3.533   3.180 -0.3911  0.8611 -0.5705
  553MOL0     O72865   7.369   1.145   6.047 -0.1233 -0.9909  0.0649
  553MOL0     C72866   7.301   1.053   6.085  0.0318  0.1945  0.5921
  553MOL0     O72867   7.355   0.945   6.159  0.1482 -0.3134  0.6678
  553MOL0     C72868   7.488   0.939   6.190 -0.7128 -0.2760  0.5124
  553MOL0     C72869   7.559   1.038   6.272  0.6355 -0.5331  0.6889
  553MOL0     C72870   7.684   1.003   6.317 -0.0836 -0.7792 -0.4857
  553MOL0     C72871   7.753   0.880   6.282  0.8110 -0.8647  0.1353
  553MOL0     O72872   7.876   0.847   6.325 -0.0075 -0.0144  0.5341
  553MOL0     C72873   7.976   0.950   6.326 -0.9522 -0.5493  0.5084
  553MOL0     C72874   8.108   0.890   6.259 -0.0179  0.1697  0.5061
  553MOL0     C72875   8.082   0.829   6.116 -0.6831  0.4503 -0.5981
  553MOL0     C72876   8.041   0.930   6.004 -0.4907  0.0289  0.0174
  553MOL0     C72877   7.990   0.867   5.878 -0.4924  0.7458  0.0741
  553MOL0     C72878   7.844   0.816   5.881 -1.0155 -0.3970 -0.4632
  553MOL0     C72879   7.798   0.788   5.742 -0.3926  0.1100 -0.3521
  553MOL0     C72880   7.647   0.757   5.745 -1.2681 -0.8419 -0.2535
  553MOL0     N72881   7.589   0.757   5.610 -0.1307  0.2526  0.3545
  553MOL0     C72882   7.562   0.631   5.548 -0.4792 -0.0009 -0.5150
  553MOL0     C72883   7.509   0.671   5.430 -0.1357 -0.2915 -0.2680
  553MOL0     C72884   7.441   0.592   5.325 -0.0633  0.8395  0.4869
  553MOL0     C72885   7.297   0.587   5.362  0.3870 -0.4559 -0.2362
  553MOL0     C72886   7.221   0.477   5.266  0.2339 -0.2845 -0.5393
  553MOL0     C72887   7.083   0.455   5.315 -0.1556  0.2466  0.3222
  553MOL0     O72888   7.005   0.376   5.220  0.4678  0.1137 -0.6252
  553MOL0     C72889   6.881   0.326   5.249  0.1189  0.1421  0.2451
  553MOL0     C72890   6.801   0.280   5.143  0.1080  0.1993 -1.0652
  553MOL0     C72891   6.677   0.222   5.170 -0.0993 -0.4077 -0.4136
  553MOL0     C72892   6.621   0.211   5.303  0.0412  0.0133 -0.0099
  553MOL0     C72893   6.500   0.138   5.336  0.7139 -0.0369 -0.3664
  553MOL0     O72894   6.475   0.115   5.469  0.2806 -0.6135 -0.7778
  553MOL0     C72895   6.353   0.078   5.510 -0.0822  0.0623  0.2400
  553MOL0     C72896   6.226   0.141   5.474 -0.9296  1.2631  0.2581
  553MOL0     C72897   6.099   0.088   5.503 -0.4921  0.2470  0.3908
  553MOL0     C72898   6.095  -0.031   5.578 -0.6057  0.2472 -0.0441
  553MOL0     O72899   5.986  -0.101   5.612  0.5129  0.2093  0.3706
  553MOL0     C72900   5.856  -0.079   5.544  0.4186  0.4794  0.5917
  553MOL0     C72901   5.763  -0.195   5.588  0.2727 -0.0961 -0.9009
  553MOL0     C72902   5.800  -0.329   5.532 -0.9121 -0.3349  0.1324
  553MOL0     C72903   5.729  -0.443   5.606  0.4002  0.5414  0.0726
  553MOL0     C72904   5.819  -0.567   5.592  0.2151  0.6061 -0.3766
  553MOL0     C72905   5.761  -0.689   5.661 -0.6323 -0.4997 -0.2515
  553MOL0     C72906   5.851  -0.811   5.643 -0.6343  0.1473 -0.9372
  553MOL0     C72907   5.826  -0.934   5.731 -0.0744 -0.3677  1.0315
  553MOL0    Cl72908   5.666  -1.024   5.685 -0.4144 -0.1232  0.2316
  553MOL0     C72909   6.216  -0.084   5.615 -0.6253  0.4307 -0.3955
  553MOL0     C72910   6.340  -0.028   5.586  0.0198 -0.1962 -0.1179
  553MOL0     O72911   6.427   0.104   5.238  0.3031  0.0074  0.0880
  553MOL0     C72912   6.703   0.261   5.403  0.3932 -0.1564  0.3016
  553MOL0     C72913   6.823   0.319   5.377 -0.7122  0.9001 -0.3049
  553MOL0     N72914   7.509   0.815   5.424  0.6220 -0.3257  0.7235
  553MOL0     N72915   7.564   0.863   5.525  0.1971  1.3140 -0.2916
  553MOL0     C72916   7.687   0.795   6.198 -1.1475  0.4762 -0.3043
  553MOL0     C72917   7.560   0.827   6.155  0.3835  0.9759  0.7490
  553MOL0     C72918   7.162   1.052   6.028 -0.4090 -0.2214  0.9449
  553MOL0     C72919   7.061   0.961   6.078 -0.9151 -0.2743 -0.1495
  553MOL0     C72920   6.937   0.953   6.022 -0.4166  0.1710  0.3200
  553MOL0     C72921   6.894   1.034   5.916 -0.3810 -0.3936 -0.6488
  553MOL0     O72922   6.767   1.048   5.872  0.2672 -0.5806  0.0989
  553MOL0     C72923   6.667   0.980   5.940 -0.2431 -1.2046 -0.3918
  553MOL0     C72924   6.536   1.005   5.877  0.1953 -0.6251  0.6119
  553MOL0     C72925   6.417   0.950   5.965 -0.0547 -0.0229 -0.1335
  553MOL0     C72926   6.299   0.945   5.869 -0.6287  0.2039  0.3667
  553MOL0     C72927   6.178   0.911   5.945  0.0851 -0.6526  0.8437
  553MOL0     C72928   6.073   0.872   5.997 -0.3112  1.3688 -0.0826
  553MOL0     C72929   6.995   1.113   5.856  0.2964 -0.3782 -0.7915
  553MOL0     C72930   7.127   1.130   5.914  0.0598 -0.1148  0.2295
  553MOL0     H72931   7.500   1.125   6.300  2.1379  1.3389 -1.5324
  553MOL0     H72932   7.733   1.068   6.389 -1.4126 -0.8709  0.5428
  553MOL0     H72933   7.998   0.987   6.426 -3.2501  2.3615  0.0815
  553MOL0     H72934   7.945   1.041   6.273 -1.2093 -0.3706  0.9648
  553MOL0     H72935   8.151   0.814   6.325  1.8952  1.1796  0.4948
  553MOL0     H72936   8.179   0.973   6.261 -2.4516  2.4136  3.2248
  553MOL0     H72937   8.001   0.756   6.117  1.2365 -1.7832 -0.8495
  553MOL0     H72938   8.173   0.777   6.086 -0.2976 -0.5499  2.0337
  553MOL0     H72939   7.962   0.997   6.039  0.9561  0.9253  1.7634
  553MOL0     H72940   8.129   0.992   5.983  1.3251 -2.3891  0.1162
  553MOL0     H72941   8.054   0.779   5.864  0.9241  1.6862  0.4783
  553MOL0     H72942   8.003   0.928   5.789  1.3765  0.2364 -0.0394
  553MOL0     H72943   7.794   0.893   5.939  1.8409  1.7229 -0.5646
  553MOL0     H72944   7.842   0.725   5.940  2.1046  0.1471  0.6910
  553MOL0     H72945   7.811   0.875   5.677 -0.4920 -0.9323 -1.8297
  553MOL0     H72946   7.863   0.710   5.700  0.2927  0.0903  0.7093
  553MOL0     H72947   7.606   0.840   5.803  0.6987 -0.7613  1.1128
  553MOL0     H72948   7.626   0.664   5.798 -0.5536 -0.1265  1.3616
  553MOL0     H72949   7.585   0.533   5.588 -0.4051  0.2143 -0.0182
  553MOL0     H72950   7.487   0.494   5.316  0.1240  1.0688 -1.5932
  553MOL0     H72951   7.452   0.640   5.227 -0.5043 -1.9850 -1.0487
  553MOL0     H72952   7.249   0.685   5.354 -0.1103 -0.8315 -2.2453
  553MOL0     H72953   7.290   0.556   5.467 -0.6995  0.8995  0.1287
  553MOL0     H72954   7.221   0.507   5.161 -1.2485 -1.8615 -1.0271
  553MOL0     H72955   7.259   0.376   5.281  0.6523  0.0059  0.4282
  553MOL0     H72956   7.035   0.553   5.328 -2.0260 -0.6875  0.6627
  553MOL0     H72957   7.099   0.404   5.410  2.0026  0.3661  0.0834
  553MOL0     H72958   6.847   0.285   5.045  2.4901 -0.5418 -0.0519
  553MOL0     H72959   6.624   0.191   5.080 -0.9089  1.5237 -0.6559
  553MOL0     H72960   6.234   0.226   5.406 -0.3208 -0.0568 -1.3944
  553MOL0     H72961   6.012   0.139   5.463 -0.5348 -0.9208 -1.1031
  553MOL0     H72962   5.866  -0.082   5.436 -0.1399  2.6067  0.4404
  553MOL0     H72963   5.818   0.021   5.570 -1.8472  0.4038 -1.9958
  553MOL0     H72964   5.659  -0.172   5.564  0.1734 -0.5559 -0.9176
  553MOL0     H72965   5.762  -0.190   5.697 -2.4364 -0.2389 -0.8634
  553MOL0     H72966   5.907  -0.350   5.538 -1.1935 -1.7217  0.4515
  553MOL0     H72967   5.776  -0.335   5.425  0.9539  2.7106 -0.6140
  553MOL0     H72968   5.719  -0.433   5.714 -1.9397  2.2710 -0.2255
  553MOL0     H72969   5.630  -0.449   5.560 -0.3265  1.1981  1.5014
  553MOL0     H72970   5.915  -0.556   5.643 -1.4143 -0.8479  3.3160
  553MOL0     H72971   5.838  -0.586   5.485 -0.3189 -2.8914  0.0073
  553MOL0     H72972   5.656  -0.702   5.634 -0.0239  1.5772 -4.5720
  553MOL0     H72973   5.751  -0.661   5.767  3.3246 -2.0866  0.7191
  553MOL0     H72974   5.849  -0.842   5.539 -0.8628 -5.4088  0.4397
  553MOL0     H72975   5.954  -0.778   5.664 -0.3942 -0.3337 -1.3562
  553MOL0     H72976   5.834  -0.908   5.838  1.3142 -2.7309  1.5653
  553MOL0     H72977   5.911  -1.001   5.720  0.4815  0.1977  1.7384
  553MOL0     H72978   6.210  -0.180   5.666 -1.0762  0.3384 -0.6135
  553MOL0     H72979   6.432  -0.085   5.601  0.1444 -0.3428 -1.3336
  553MOL0     H72980   6.668   0.264   5.506 -0.6318 -1.1100  0.0048
  553MOL0     H72981   6.874   0.357   5.465 -3.9992  0.9437  1.7571
  553MOL0     H72982   7.731   0.704   6.160 -1.0834 -0.6863  2.3382
  553MOL0     H72983   7.502   0.752   6.103 -0.2575  0.5872  1.9906
  553MOL0     H72984   7.080   0.901   6.166  1.7361 -1.3855 -1.3604
  553MOL0     H72985   6.865   0.893   6.076 -0.6835 -0.9325 -1.2009
  553MOL0     H72986   6.662   1.017   6.043  3.5139  3.3387 -1.5349
  553MOL0     H72987   6.693   0.874   5.935 -0.2242 -1.2370  0.3047
  553MOL0     H72988   6.523   1.109   5.847  0.4772 -1.0567 -1.1215
  553MOL0     H72989   6.543   0.961   5.777  0.6668 -0.7295  0.6871
  553MOL0     H72990   6.404   1.012   6.055 -0.2157  0.1632 -0.2838
  553MOL0     H72991   6.440   0.850   6.003  0.0610  0.0182 -0.0947
  553MOL0     H72992   6.282   1.040   5.817 -1.1818  0.4913  1.0458
  553MOL0     H72993   6.314   0.878   5.784  0.8603  1.9862 -0.8800
  553MOL0     H72994   5.989   0.832   6.050  0.0431 -1.5420 -1.5084
  553MOL0     H72995   6.979   1.186   5.777  2.1276  2.2419  1.0912
  553MOL0     H72996   7.204   1.194   5.873  0.0611  0.9034  1.7320
  554MOL0     O72997   1.290   7.569   1.439 -0.6206  0.4467  0.3305
  554MOL0     C72998   1.352   7.664   1.387  0.3013 -0.8723  0.4337
  554MOL0     O72999   1.300   7.754   1.296 -0.4481  0.6546  0.1404
  554MOL0     C73000   1.175   7.734   1.244  0.0075  0.0579 -0.1748
  554MOL0     C73001   1.078   7.816   1.296 -0.0796 -0.3883  0.6192
  554MOL0     C73002   0.945   7.801   1.262  0.0876  0.0928 -1.2319
  554MOL0     C73003   0.912   7.718   1.160  0.3063  0.5114 -0.4177
  554MOL0     O73004   0.781   7.708   1.118  1.0207 -0.1434  0.3888
  554MOL0     C73005   0.686   7.699   1.219  0.5894 -0.1422 -0.0048
  554MOL0     C73006   0.567   7.638   1.155  1.1350 -0.0005  0.4599
  554MOL0     C73007   0.468   7.578   1.267  0.2784 -0.7642  0.7395
  554MOL0     C73008   0.530   7.452   1.318  0.2422 -0.4077  0.1186
  554MOL0     C73009   0.415   7.350   1.350 -0.0499 -0.0679 -0.4872
  554MOL0     C73010   0.309   7.409   1.447 -0.5304  1.1972 -0.3869
  554MOL0     C73011   0.192   7.313   1.494  0.6010 -0.4997 -0.3753
  554MOL0     C73012   0.103   7.261   1.376 -0.4199  0.0368  0.1159
  554MOL0     N73013  -0.024   7.210   1.421 -0.4138 -0.0374  0.2637
  554MOL0     C73014  -0.046   7.126   1.525  0.3767  0.4582  0.9798
  554MOL0     C73015  -0.176   7.092   1.516 -0.8295  0.3136 -1.0132
  554MOL0     C73016  -0.237   6.984   1.598  0.6413 -0.1211 -0.2395
  554MOL0     C73017  -0.396   6.991   1.595  0.3881 -0.4056  0.3356
  554MOL0     C73018  -0.460   6.900   1.694 -0.5908 -0.4590 -1.1653
  554MOL0     C73019  -0.602   6.867   1.648  0.6630  0.6500 -0.1665
  554MOL0     O73020  -0.686   6.985   1.642 -0.6163  0.4893 -0.6516
  554MOL0     C73021  -0.824   6.965   1.643 -0.2937  0.5206 -0.1517
  554MOL0     C73022  -0.877   6.841   1.593 -0.3491 -0.1835  0.0789
  554MOL0     C73023  -1.011   6.823   1.605 -0.2492 -0.1400  0.5754
  554MOL0     C73024  -1.102   6.924   1.641  0.5487  0.1670 -0.3586
  554MOL0     C73025  -1.244   6.899   1.649 -1.4046 -0.7805  0.1161
  554MOL0     O73026  -1.329   7.000   1.699  0.1227  0.4350  0.1981
  554MOL0     C73027  -1.463   6.997   1.659 -0.1763 -0.0263 -0.3325
  554MOL0     C73028  -1.556   7.047   1.754 -0.6423  0.5460  0.3418
  554MOL0     C73029  -1.686   7.056   1.715  0.2113 -1.0003 -0.2626
  554MOL0     C73030  -1.728   7.008   1.599 -0.0542  0.1962  0.2108
  554MOL0     O73031  -1.866   7.006   1.578 -0.3131  0.0992 -1.0466
  554MOL0     C73032  -1.912   7.073   1.464 -0.3296  0.2816 -0.3657
  554MOL0     C73033  -2.055   7.096   1.498 -0.1837  0.5474  0.4347
  554MOL0     C73034  -2.085   7.193   1.609  0.1182  0.9662 -0.1573
  554MOL0     C73035  -2.208   7.171   1.692 -0.0250 -0.4579 -1.0811
  554MOL0     C73036  -2.212   7.265   1.817 -0.1323 -0.2296 -0.4671
  554MOL0     C73037  -2.344   7.247   1.885  0.4509  0.0375  0.6789
  554MOL0     C73038  -2.335   7.335   2.008  0.3612 -0.3404 -0.8032
  554MOL0     C73039  -2.480   7.356   2.054 -0.0214 -0.3397 -0.0175
  554MOL0    Cl73040  -2.463   7.497   2.166  0.3607  0.2985  0.1148
  554MOL0     C73041  -1.642   6.947   1.509  0.2938  0.0471  0.1972
  554MOL0     C73042  -1.508   6.956   1.532 -0.1453  0.0044 -0.7662
  554MOL0     O73043  -1.279   6.791   1.611 -0.5182  0.6549 -0.2949
  554MOL0     C73044  -1.046   7.051   1.678  0.0918 -0.1965 -0.4359
  554MOL0     C73045  -0.907   7.074   1.675  0.2498  0.5109  0.3658
  554MOL0     N73046  -0.223   7.157   1.406 -0.4752 -0.0155  0.5483
  554MOL0     N73047  -0.131   7.228   1.349  0.1899 -0.0847  0.6619
  554MOL0     C73048   1.007   7.631   1.098  0.2278  0.5350  0.2845
  554MOL0     C73049   1.140   7.648   1.142 -0.4965 -0.1657  0.2718
  554MOL0     C73050   1.498   7.684   1.423 -0.3447 -0.1388 -0.1947
  554MOL0     C73051   1.567   7.804   1.385  0.0031  0.0743 -0.2988
  554MOL0     C73052   1.697   7.830   1.422  1.2738 -0.3484 -0.5694
  554MOL0     C73053   1.764   7.744   1.508  0.3186 -0.0423  0.7274
  554MOL0     O73054   1.893   7.775   1.536  0.7296  0.2786  0.4180
  554MOL0     C73055   1.986   7.684   1.604  0.5687  0.8010  0.0846
  554MOL0     C73056   1.987   7.724   1.752  0.4129 -0.1162  1.2666
  554MOL0     C73057   2.040   7.863   1.780  0.3109  0.1959 -0.3407
  554MOL0     C73058   2.176   7.902   1.717  0.2335  0.2430  0.0461
  554MOL0     C73059   2.244   8.000   1.811  0.6813  0.0876  0.6092
  554MOL0     C73060   2.297   8.078   1.879 -0.1391 -0.0960 -0.8435
  554MOL0     C73061   1.697   7.634   1.555 -0.5933  0.8075  0.1638
  554MOL0     C73062   1.567   7.605   1.509  0.4313  0.1357  0.2557
  554MOL0     H73063   1.111   7.895   1.362 -0.6306 -0.5879  1.1466
  554MOL0     H73064   0.875   7.867   1.312  1.8445  0.0383  1.5085
  554MOL0     H73065   0.660   7.801   1.251  0.2483 -0.3125  0.2658
  554MOL0     H73066   0.716   7.642   1.307 -1.5530  0.4829  1.2058
  554MOL0     H73067   0.586   7.559   1.081  2.0925 -1.2357  1.9437
  554MOL0     H73068   0.513   7.720   1.107  0.1369 -0.0268  1.5225
  554MOL0     H73069   0.371   7.563   1.218  1.1581 -0.1724 -1.3145
  554MOL0     H73070   0.448   7.633   1.359 -0.7619 -0.3634  0.2996
  554MOL0     H73071   0.591   7.405   1.241  1.1243  2.4787 -1.0565
  554MOL0     H73072   0.590   7.465   1.408 -1.3164  3.0267  0.8166
  554MOL0     H73073   0.456   7.259   1.395 -0.4462 -0.0632 -0.1113
  554MOL0     H73074   0.361   7.326   1.258 -0.8533 -1.0759  0.2276
  554MOL0     H73075   0.262   7.503   1.416 -1.5704  1.1254  0.9151
  554MOL0     H73076   0.371   7.423   1.536  2.1387 -1.1756 -1.6997
  554MOL0     H73077   0.231   7.225   1.547  0.9340  0.0377  0.2965
  554MOL0     H73078   0.125   7.370   1.559 -0.3233 -2.3126  0.3348
  554MOL0     H73079   0.161   7.178   1.333  1.1369 -1.1877  4.0425
  554MOL0     H73080   0.087   7.343   1.306  0.2496 -0.1339 -0.2473
  554MOL0     H73081   0.033   7.095   1.593 -0.6579 -0.0735  1.9678
  554MOL0     H73082  -0.199   7.014   1.696  0.3058  1.1902 -0.4898
  554MOL0     H73083  -0.209   6.883   1.565 -0.9371 -1.5137  2.3839
  554MOL0     H73084  -0.441   6.976   1.496 -0.8966  0.4124  0.7789
  554MOL0     H73085  -0.430   7.090   1.624 -2.6175 -0.1745 -3.1697
  554MOL0     H73086  -0.413   6.803   1.713 -0.3725 -0.3066 -0.9025
  554MOL0     H73087  -0.450   6.950   1.791  2.5956 -1.6065 -0.7887
  554MOL0     H73088  -0.644   6.799   1.723 -1.3895  0.0349 -1.7651
  554MOL0     H73089  -0.587   6.826   1.548 -0.1555 -3.5130  1.2231
  554MOL0     H73090  -0.823   6.760   1.546 -1.7683 -1.0572 -0.0942
  554MOL0     H73091  -1.050   6.734   1.556  1.5692  0.3310 -1.9739
  554MOL0     H73092  -1.511   7.071   1.849  2.0902 -2.2872 -0.0904
  554MOL0     H73093  -1.752   7.087   1.796  1.5080  2.0979 -0.2609
  554MOL0     H73094  -1.905   7.017   1.370 -2.0190 -0.1854 -0.2516
  554MOL0     H73095  -1.868   7.171   1.445 -1.1123  0.4858 -1.2051
  554MOL0     H73096  -2.096   6.998   1.523 -1.6357  1.7066  3.0837
  554MOL0     H73097  -2.116   7.128   1.413 -1.3808  0.5646  1.2696
  554MOL0     H73098  -2.104   7.289   1.560  1.9248  0.8947 -1.0618
  554MOL0     H73099  -1.992   7.207   1.665  1.0503 -0.7859 -1.1970
  554MOL0     H73100  -2.304   7.166   1.640 -0.8462 -2.2680  0.4928
  554MOL0     H73101  -2.196   7.068   1.726  0.4390  0.1355  0.6757
  554MOL0     H73102  -2.202   7.373   1.800  0.5735 -0.2323 -0.1133
  554MOL0     H73103  -2.122   7.239   1.872  1.2981 -1.0300 -3.0236
  554MOL0     H73104  -2.367   7.143   1.910 -0.2024 -0.9737 -3.3026
  554MOL0     H73105  -2.419   7.288   1.817 -2.5206  0.3764  3.9175
  554MOL0     H73106  -2.273   7.286   2.083  0.6487 -0.4192 -1.0914
  554MOL0     H73107  -2.284   7.429   1.984  0.0909  0.2888  0.9355
  554MOL0     H73108  -2.527   7.277   2.114  1.0489 -0.2187  1.0202
  554MOL0     H73109  -2.549   7.370   1.971 -2.5704 -1.4675  1.7727
  554MOL0     H73110  -1.684   6.891   1.426  0.4291 -1.6938  1.2699
  554MOL0     H73111  -1.442   6.926   1.451 -0.1837 -0.5434 -0.6006
  554MOL0     H73112  -1.115   7.127   1.713  1.1120  0.0937  0.9843
  554MOL0     H73113  -0.872   7.173   1.698 -0.3711  0.5656  1.1378
  554MOL0     H73114   0.962   7.556   1.034  0.4950 -0.2756  1.0245
  554MOL0     H73115   1.211   7.580   1.098 -0.1119  1.7704 -2.3549
  554MOL0     H73116   1.525   7.871   1.311 -0.5512 -1.2351 -1.2153
  554MOL0     H73117   1.740   7.920   1.378  0.2849  0.7648  0.6492
  554MOL0     H73118   2.086   7.689   1.560  1.3707  0.8669  1.8412
  554MOL0     H73119   1.960   7.578   1.594 -1.9049  1.4757 -1.8753
  554MOL0     H73120   1.882   7.713   1.781  0.1544 -0.2886  0.3100
  554MOL0     H73121   2.059   7.665   1.808  3.5701  2.1342 -0.1400
  554MOL0     H73122   2.052   7.856   1.888  0.9376 -1.5244 -0.4953
  554MOL0     H73123   1.968   7.937   1.743 -1.7530 -1.7418 -0.4606
  554MOL0     H73124   2.236   7.815   1.687  1.5887  0.9116  0.7474
  554MOL0     H73125   2.150   7.950   1.622 -0.7051 -0.5487 -0.1172
  554MOL0     H73126   2.346   8.149   1.943  1.5023  0.8021 -2.9840
  554MOL0     H73127   1.752   7.553   1.603 -1.3009  0.5757  0.5932
  554MOL0     H73128   1.510   7.520   1.545  0.1076 -0.3498 -1.3515
  555MOL0     O73129   3.348   4.312   6.170  0.0665 -0.2756 -0.3912
  555MOL0     C73130   3.449   4.297   6.244 -0.0939  0.0090 -0.1599
  555MOL0     O73131   3.435   4.253   6.371  0.6608  0.2330  0.4999
  555MOL0     C73132   3.320   4.209   6.427  0.8905  0.2002 -0.8149
  555MOL0     C73133   3.190   4.264   6.415 -0.0728  0.0981  0.3829
  555MOL0     C73134   3.082   4.219   6.495 -1.2616 -0.5595  0.3517
  555MOL0     C73135   3.108   4.116   6.585 -0.0701 -0.3151 -0.6380
  555MOL0     O73136   3.022   4.062   6.680  0.4948  0.1198 -0.7647
  555MOL0     C73137   2.900   4.127   6.698  0.1571  0.4023 -0.5766
  555MOL0     C73138   2.917   4.230   6.811 -0.8574  0.0890  0.6634
  555MOL0     C73139   2.792   4.261   6.888 -0.5236 -1.1187 -0.3799
  555MOL0     C73140   2.676   4.312   6.793 -0.1491 -0.3019  0.2776
  555MOL0     C73141   2.554   4.331   6.871 -0.1783  0.0784  0.6971
  555MOL0     C73142   2.440   4.373   6.775  0.7817 -0.1246 -0.2205
  555MOL0     C73143   2.301   4.352   6.840 -0.3577 -0.2472  0.2478
  555MOL0     C73144   2.188   4.362   6.735 -1.1957 -0.2524 -0.4087
  555MOL0     N73145   2.054   4.370   6.803 -0.0998 -0.1964  0.5526
  555MOL0     C73146   1.994   4.476   6.873 -0.4152  0.5361  1.0768
  555MOL0     C73147   1.870   4.431   6.902 -0.0471 -0.7333  0.2184
  555MOL0     C73148   1.762   4.510   6.961  0.4844  0.4175  0.1011
  555MOL0     C73149   1.635   4.419   6.992 -0.1474 -0.2803 -0.3331
  555MOL0     C73150   1.545   4.491   7.093  0.4221  0.6699  0.0531
  555MOL0     C73151   1.466   4.619   7.043 -0.0328 -0.5779  0.2405
  555MOL0     O73152   1.387   4.679   7.151 -0.0414 -0.3347  0.1674
  555MOL0     C73153   1.297   4.613   7.219  0.0749 -0.0677  0.4423
  555MOL0     C73154   1.219   4.519   7.154  0.3995  0.1581  0.1306
  555MOL0     C73155   1.108   4.469   7.221 -0.2848  0.5501 -0.6012
  555MOL0     C73156   1.094   4.499   7.358  0.0903 -0.0447  0.3600
  555MOL0     C73157   0.991   4.426   7.436 -0.9130 -0.4092 -0.1145
  555MOL0     O73158   0.913   4.333   7.376 -0.1552 -0.6019  0.7254
  555MOL0     C73159   0.819   4.277   7.450  1.0181 -0.9692 -0.1797
  555MOL0     C73160   0.853   4.200   7.565  0.0346 -0.0902 -0.1132
  555MOL0     C73161   0.742   4.144   7.645  0.2867 -1.4350 -0.1477
  555MOL0     C73162   0.607   4.148   7.596 -0.5663 -0.1360  0.4613
  555MOL0     O73163   0.492   4.089   7.643 -0.4062  0.5881  0.2001
  555MOL0     C73164   0.498   4.056   7.782  0.4634  0.6588  0.6084
  555MOL0     C73165   0.362   3.990   7.803 -0.2554  1.2764  0.3137
  555MOL0     C73166   0.250   4.091   7.770  1.2435 -0.6426  0.7406
  555MOL0     C73167   0.108   4.041   7.808 -0.0384  0.4428 -0.5968
  555MOL0     C73168  -0.005   4.121   7.739 -0.3659  0.8791 -0.3773
  555MOL0     C73169  -0.139   4.064   7.785 -0.6285  0.0815  0.0574
  555MOL0     C73170  -0.265   4.087   7.698 -0.0339 -0.6057  0.9841
  555MOL0     C73171  -0.395   4.024   7.754 -0.2955  0.0522 -0.3755
  555MOL0    Cl73172  -0.438   4.120   7.910 -0.0441  0.2437 -0.0914
  555MOL0     C73173   0.588   4.228   7.480 -0.4591  0.1208 -0.7573
  555MOL0     C73174   0.686   4.293   7.417  0.1832 -0.5904  0.7310
  555MOL0     O73175   0.976   4.452   7.554 -0.3363 -0.2852  0.0499
  555MOL0     C73176   1.177   4.592   7.422 -0.6636 -0.4632  0.1849
  555MOL0     C73177   1.272   4.653   7.349  0.4407 -0.4918 -0.5567
  555MOL0     N73178   1.862   4.299   6.866  0.3467  0.1183  0.2129
  555MOL0     N73179   1.958   4.270   6.793 -0.2872 -0.5830 -0.1830
  555MOL0     C73180   3.233   4.059   6.607  0.5350 -0.1119  0.7972
  555MOL0     C73181   3.336   4.107   6.521  1.1553 -0.8134 -0.0572
  555MOL0     C73182   3.581   4.325   6.192 -0.5849 -1.2992  0.1877
  555MOL0     C73183   3.694   4.265   6.254  0.3214  0.1779  0.2382
  555MOL0     C73184   3.817   4.287   6.213  0.2066  0.2284  0.1825
  555MOL0     C73185   3.840   4.379   6.103  0.4057  0.1646 -0.4249
  555MOL0     O73186   3.967   4.412   6.056  0.4171  1.1560 -0.6516
  555MOL0     C73187   4.088   4.365   6.123  0.6064 -0.2984  0.2684
  555MOL0     C73188   4.204   4.454   6.081  0.3249  0.2640 -0.5622
  555MOL0     C73189   4.348   4.417   6.127  0.0410  0.6078 -0.5982
  555MOL0     C73190   4.451   4.503   6.058 -0.2440  0.1120  0.2992
  555MOL0     C73191   4.581   4.466   6.095  0.3732  0.1955 -0.1120
  555MOL0     C73192   4.701   4.446   6.125 -0.7962 -0.1095 -0.4817
  555MOL0     C73193   3.732   4.432   6.031  1.0748 -0.8005 -0.4974
  555MOL0     C73194   3.602   4.403   6.077 -1.0376 -0.5593  0.1971
  555MOL0     H73195   3.168   4.353   6.357 -1.2932  0.4501  1.3545
  555MOL0     H73196   2.988   4.273   6.490 -0.2576  1.1722 -3.3964
  555MOL0     H73197   2.818   4.059   6.725  1.2764 -0.8394 -0.2127
  555MOL0     H73198   2.867   4.178   6.607 -0.3854 -0.4035 -0.8390
  555MOL0     H73199   2.954   4.321   6.763  0.2005 -1.6728 -2.1160
  555MOL0     H73200   2.991   4.188   6.881  0.5266 -1.5375 -1.6377
  555MOL0     H73201   2.814   4.332   6.969  0.2256 -0.5028 -1.1104
  555MOL0     H73202   2.759   4.164   6.928  2.5879 -1.5721  1.4428
  555MOL0     H73203   2.697   4.409   6.746  0.1922 -0.1080  0.8156
  555MOL0     H73204   2.672   4.229   6.721  0.4903  0.8223 -1.1270
  555MOL0     H73205   2.576   4.410   6.943  1.6483  0.1915  0.0690
  555MOL0     H73206   2.527   4.241   6.927 -0.0941  0.0137  0.6335
  555MOL0     H73207   2.443   4.306   6.688  0.1266 -1.5749  0.8342
  555MOL0     H73208   2.455   4.475   6.738 -0.3577  1.2464  2.7622
  555MOL0     H73209   2.305   4.251   6.882  1.8718 -0.0944  0.5487
  555MOL0     H73210   2.301   4.428   6.919  0.8574  0.3522 -0.2913
  555MOL0     H73211   2.208   4.281   6.665  3.5982  0.7083 -0.4746
  555MOL0     H73212   2.198   4.454   6.677 -0.7524 -0.1726 -0.2116
  555MOL0     H73213   2.025   4.579   6.886  0.9068  0.0586  1.8826
  555MOL0     H73214   1.731   4.584   6.887  0.7995 -0.2513 -0.7182
  555MOL0     H73215   1.792   4.545   7.060 -1.3996  1.4195  0.3637
  555MOL0     H73216   1.661   4.326   7.044 -0.3668  1.5776  3.4734
  555MOL0     H73217   1.580   4.399   6.900  0.2827 -1.0620 -0.4237
  555MOL0     H73218   1.472   4.416   7.124 -0.4816  1.0079 -1.1577
  555MOL0     H73219   1.609   4.500   7.181 -2.6210  0.8941  2.3771
  555MOL0     H73220   1.404   4.589   6.958 -0.7782 -0.5518  0.7550
  555MOL0     H73221   1.535   4.699   7.017 -0.0432  0.3049  2.6432
  555MOL0     H73222   1.206   4.485   7.051 -2.5209 -2.5906  1.2546
  555MOL0     H73223   1.038   4.401   7.173 -1.1954 -0.8940  2.5356
  555MOL0     H73224   0.958   4.179   7.581  0.7778  1.4569 -2.4442
  555MOL0     H73225   0.767   4.090   7.735  4.0012  0.6326  0.2428
  555MOL0     H73226   0.498   4.150   7.837 -0.2836  0.2563  1.3280
  555MOL0     H73227   0.582   3.995   7.816  0.2874 -0.7725 -1.3018
  555MOL0     H73228   0.360   3.954   7.906  1.7096  1.6377  0.5237
  555MOL0     H73229   0.349   3.899   7.743  1.9327  1.0170  0.1377
  555MOL0     H73230   0.246   4.116   7.664 -2.6081 -1.3187  0.6029
  555MOL0     H73231   0.263   4.188   7.819 -2.2291  0.3217  0.0168
  555MOL0     H73232   0.101   3.934   7.785  0.2546 -0.3187  2.3872
  555MOL0     H73233   0.092   4.049   7.916 -0.2252  1.1120 -0.6730
  555MOL0     H73234   0.014   4.115   7.631 -0.1770  0.8654 -0.3440
  555MOL0     H73235  -0.002   4.226   7.767  0.1069  0.9565 -0.6966
  555MOL0     H73236  -0.152   4.105   7.886 -0.0565 -3.6471  1.8136
  555MOL0     H73237  -0.119   3.957   7.790  0.6342  0.2976 -0.1245
  555MOL0     H73238  -0.283   4.194   7.691 -2.9970 -1.1019 -0.6083
  555MOL0     H73239  -0.236   4.056   7.597  2.2264  0.2413  1.3181
  555MOL0     H73240  -0.368   3.922   7.781  0.6315 -0.0250 -1.5064
  555MOL0     H73241  -0.478   4.015   7.684 -0.5438 -1.6158  0.0836
  555MOL0     H73242   0.488   4.245   7.441 -0.7807 -1.0159 -0.4783
  555MOL0     H73243   0.659   4.360   7.335  1.8363 -2.7103 -1.7069
  555MOL0     H73244   1.176   4.617   7.527  0.9305 -2.0685  0.6324
  555MOL0     H73245   1.328   4.734   7.395  0.0981 -0.0829 -0.8562
  555MOL0     H73246   3.243   3.985   6.685 -1.3887 -3.2464 -1.6590
  555MOL0     H73247   3.438   4.070   6.529  1.7161 -0.8457 -4.6533
  555MOL0     H73248   3.676   4.206   6.343 -2.3929  0.1607 -0.2281
  555MOL0     H73249   3.897   4.231   6.261  1.1406  0.6702 -0.8069
  555MOL0     H73250   4.112   4.258   6.113  0.5771 -0.4958  1.9674
  555MOL0     H73251   4.066   4.376   6.230 -0.7541 -1.1877  0.1073
  555MOL0     H73252   4.206   4.460   5.972 -2.5266 -0.8287 -0.7823
  555MOL0     H73253   4.163   4.549   6.116 -0.6512  1.2909 -4.1393
  555MOL0     H73254   4.354   4.308   6.117 -1.3051  0.4232  0.3270
  555MOL0     H73255   4.366   4.453   6.229 -0.0828  2.3998 -1.1698
  555MOL0     H73256   4.434   4.491   5.951  0.4600 -0.3836  0.2386
  555MOL0     H73257   4.429   4.605   6.091  0.6295  0.4956 -0.2576
  555MOL0     H73258   4.804   4.416   6.137 -0.6099  0.6753 -0.0220
  555MOL0     H73259   3.747   4.497   5.945  0.7000  0.9468  0.6934
  555MOL0     H73260   3.526   4.459   6.022  0.2378 -0.9490 -2.0976
  556MOL0     O73261  10.656   2.473  10.629  0.1819 -0.2478  0.1565
  556MOL0     C73262  10.680   2.536  10.728  1.0432  0.4312 -0.4610
  556MOL0     O73263  10.593   2.578  10.825  0.2960  0.0411 -0.1041
  556MOL0     C73264  10.456   2.545  10.801  0.0755 -0.5689  0.5117
  556MOL0     C73265  10.414   2.420  10.841  0.9315  0.2606 -0.0362
  556MOL0     C73266  10.276   2.376  10.830 -0.3067 -0.2205 -0.4518
  556MOL0     C73267  10.178   2.462  10.778 -0.5807 -0.3877  0.3599
  556MOL0     O73268  10.050   2.414  10.777  0.1057 -0.5560 -0.1220
  556MOL0     C73269  10.000   2.404  10.915 -0.0439  0.4727 -0.1790
  556MOL0     C73270   9.845   2.401  10.900 -0.7328  0.0994 -0.3456
  556MOL0     C73271   9.773   2.359  11.025 -0.0914  0.0850 -0.7371
  556MOL0     C73272   9.631   2.404  11.035  0.8577  0.0560 -0.0273
  556MOL0     C73273   9.547   2.338  11.143  0.0323 -0.8167  0.3059
  556MOL0     C73274   9.419   2.418  11.144 -0.2186 -0.2658  0.4047
  556MOL0     C73275   9.307   2.356  11.231  0.6388  0.2338 -0.5765
  556MOL0     C73276   9.161   2.416  11.201  0.0639 -0.7396  0.1331
  556MOL0     N73277   9.176   2.559  11.237  0.1534 -0.2647 -0.8073
  556MOL0     C73278   9.136   2.610  11.363  0.3358  0.5241  0.4269
  556MOL0     C73279   9.137   2.746  11.337  0.1345 -0.7450  0.9886
  556MOL0     C73280   9.119   2.850  11.442  0.4493  0.0846 -0.3295
  556MOL0     C73281   9.027   2.963  11.394  0.4443  0.1058  0.1154
  556MOL0     C73282   8.998   3.055  11.509  0.0749 -0.3564  0.6675
  556MOL0     C73283   8.888   3.159  11.472 -0.0601 -0.7863 -1.0531
  556MOL0     O73284   8.908   3.215  11.339  0.5514 -0.1187 -0.2336
  556MOL0     C73285   8.826   3.317  11.294  0.0778 -0.1169 -0.0883
  556MOL0     C73286   8.696   3.348  11.348 -0.0333  0.4736 -0.8429
  556MOL0     C73287   8.618   3.440  11.286  1.0301  0.4393 -0.1836
  556MOL0     C73288   8.668   3.511  11.178  0.8212  0.5013 -0.0655
  556MOL0     C73289   8.581   3.597  11.101 -0.6317 -0.6645 -0.0881
  556MOL0     O73290   8.635   3.646  10.985 -1.6155  0.4075 -0.3079
  556MOL0     C73291   8.569   3.734  10.896 -0.1315  0.0944 -0.6899
  556MOL0     C73292   8.643   3.845  10.845  0.4244 -0.0264  0.2845
  556MOL0     C73293   8.580   3.937  10.756  0.0379  0.2201 -0.0232
  556MOL0     C73294   8.451   3.908  10.704 -0.5980 -0.4657 -0.0927
  556MOL0     O73295   8.418   4.008  10.618 -0.5506  0.0020  0.0837
  556MOL0     C73296   8.302   3.993  10.539  0.0032 -0.2622 -0.2635
  556MOL0     C73297   8.289   4.120  10.453  0.4913  0.0183 -0.8336
  556MOL0     C73298   8.251   4.247  10.538 -0.2427 -0.3190  0.2212
  556MOL0     C73299   8.182   4.366  10.456 -0.0044 -1.2586 -0.4961
  556MOL0     C73300   8.284   4.461  10.385 -0.3934 -0.1354  0.9405
  556MOL0     C73301   8.212   4.586  10.338  0.0997 -0.3081 -0.9234
  556MOL0     C73302   8.290   4.666  10.232  0.0706  0.6344 -0.3678
  556MOL0     C73303   8.268   4.816  10.251  0.7454  0.4678 -0.3743
  556MOL0    Cl73304   8.136   4.876  10.162  0.7898  0.1411 -0.1377
  556MOL0     C73305   8.381   3.795  10.746  0.3436 -0.4186 -0.2848
  556MOL0     C73306   8.444   3.708  10.844  0.2612 -0.2989  0.3621
  556MOL0     O73307   8.470   3.616  11.141 -0.4473  0.0125 -0.2735
  556MOL0     C73308   8.803   3.497  11.138 -1.1754  0.2916  0.6134
  556MOL0     C73309   8.874   3.389  11.190 -0.5447 -0.4174 -0.4966
  556MOL0     N73310   9.175   2.767  11.202 -0.8644  0.3233 -0.1225
  556MOL0     N73311   9.193   2.661  11.143 -0.3987  0.5424 -0.3694
  556MOL0     C73312  10.219   2.580  10.728 -0.0366 -0.6422 -0.5119
  556MOL0     C73313  10.356   2.626  10.737  0.3568 -0.3580 -0.3149
  556MOL0     C73314  10.821   2.580  10.735  0.0862 -0.1624 -0.2658
  556MOL0     C73315  10.912   2.553  10.631  0.1945 -0.0897  0.0419
  556MOL0     C73316  11.043   2.599  10.637 -0.0616 -0.0188  0.0191
  556MOL0     C73317  11.090   2.669  10.752 -0.4265 -0.6881  0.3631
  556MOL0     O73318  11.211   2.748  10.752  0.3667 -0.1057 -0.2639
  556MOL0     C73319  11.314   2.696  10.671 -0.5886 -0.6841 -0.4859
  556MOL0     C73320  11.458   2.741  10.719  0.2104  0.5645  0.5289
  556MOL0     C73321  11.468   2.732  10.876  1.1186 -0.0042  0.2599
  556MOL0     C73322  11.453   2.591  10.941  0.0912  0.2528  0.4233
  556MOL0     C73323  11.525   2.481  10.879 -0.0250  0.0104 -0.1068
  556MOL0     C73324  11.591   2.391  10.829 -0.4743  0.1289 -0.0530
  556MOL0     C73325  10.998   2.688  10.857 -0.8305 -0.6926  0.5152
  556MOL0     C73326  10.862   2.652  10.848  0.8716  0.3176 -0.3034
  556MOL0     H73327  10.498   2.360  10.875  1.1601  1.0704  0.8782
  556MOL0     H73328  10.264   2.273  10.861  0.6780  0.0035  0.7601
  556MOL0     H73329  10.036   2.490  10.972  0.2288 -0.5855  1.3008
  556MOL0     H73330  10.036   2.309  10.956 -1.0825  0.5236  0.9005
  556MOL0     H73331   9.819   2.332  10.820 -1.4352 -1.6656  1.3262
  556MOL0     H73332   9.820   2.505  10.875 -2.3982  0.2047  1.4662
  556MOL0     H73333   9.828   2.399  11.111  1.9445 -0.7445 -1.5861
  556MOL0     H73334   9.785   2.251  11.038  0.3456  0.1122 -0.8793
  556MOL0     H73335   9.627   2.513  11.043  0.0894  0.2039 -1.8501
  556MOL0     H73336   9.573   2.395  10.943 -0.3303  1.2970  0.5727
  556MOL0     H73337   9.597   2.341  11.241 -0.7693  2.1246  0.7392
  556MOL0     H73338   9.533   2.232  11.120  1.2719 -0.5192 -2.1009
  556MOL0     H73339   9.374   2.415  11.044 -1.5788 -2.0329  1.0304
  556MOL0     H73340   9.427   2.523  11.174 -1.0539 -1.1104  4.1642
  556MOL0     H73341   9.305   2.247  11.221 -0.9787  0.1373  0.4410
  556MOL0     H73342   9.315   2.372  11.339 -1.3908  2.3244 -0.6495
  556MOL0     H73343   9.080   2.364  11.252 -1.2947 -2.5072 -3.4716
  556MOL0     H73344   9.139   2.413  11.094 -0.9117  2.9817  0.0825
  556MOL0     H73345   9.115   2.563  11.459  0.3414  1.6529  1.0031
  556MOL0     H73346   9.218   2.889  11.467 -0.4570  0.1738  3.9769
  556MOL0     H73347   9.083   2.806  11.536  0.1568  2.0129  0.5018
  556MOL0     H73348   8.934   2.914  11.364  0.8963 -1.8200  1.6778
  556MOL0     H73349   9.066   3.028  11.315  0.5621  0.5884  0.5681
  556MOL0     H73350   8.958   2.995  11.591 -1.2895 -2.3212 -1.3225
  556MOL0     H73351   9.092   3.103  11.538  0.6213 -1.9398  1.6031
  556MOL0     H73352   8.895   3.235  11.551  0.2793 -2.1258  0.2357
  556MOL0     H73353   8.792   3.109  11.482 -0.3224 -0.1079  0.0603
  556MOL0     H73354   8.657   3.298  11.436  0.1664 -1.6236 -1.8724
  556MOL0     H73355   8.514   3.451  11.314  0.1442 -1.5145 -2.3880
  556MOL0     H73356   8.743   3.862  10.883  0.7499 -0.9068 -0.1543
  556MOL0     H73357   8.639   4.023  10.725 -1.2536  0.9632 -0.4699
  556MOL0     H73358   8.214   3.984  10.603 -0.9435  0.4498 -1.4404
  556MOL0     H73359   8.305   3.897  10.487 -0.5939  0.0359 -0.8568
  556MOL0     H73360   8.210   4.100  10.380 -0.5609  0.3364  0.2067
  556MOL0     H73361   8.383   4.132  10.398  0.4937  0.4426 -0.7394
  556MOL0     H73362   8.337   4.292  10.586  0.6018 -3.0986  1.5438
  556MOL0     H73363   8.182   4.219  10.618 -0.2903 -2.0874 -0.3953
  556MOL0     H73364   8.104   4.337  10.385  0.7805  0.6849 -2.2309
  556MOL0     H73365   8.133   4.431  10.528  1.5586 -0.9927  0.3882
  556MOL0     H73366   8.329   4.406  10.302  3.7338  0.4474  2.5443
  556MOL0     H73367   8.365   4.485  10.455 -1.6681  0.3207  2.3159
  556MOL0     H73368   8.195   4.648  10.427 -0.5716 -0.2573 -1.0841
  556MOL0     H73369   8.119   4.554  10.291 -0.0835 -1.3286  0.0927
  556MOL0     H73370   8.398   4.651  10.237 -0.1983 -1.2292  1.2041
  556MOL0     H73371   8.258   4.637  10.131 -0.2165  0.6563 -0.2846
  556MOL0     H73372   8.353   4.874  10.215 -0.2016  3.2911  1.6244
  556MOL0     H73373   8.256   4.846  10.355 -3.2668 -0.9804 -0.2296
  556MOL0     H73374   8.281   3.776  10.708  0.0700 -2.4046  1.2601
  556MOL0     H73375   8.403   3.609  10.859  0.9572 -1.1143 -2.4673
  556MOL0     H73376   8.853   3.559  11.065 -0.7240  0.8042  1.3419
  556MOL0     H73377   8.968   3.364  11.143 -1.1621 -0.0588 -1.9804
  556MOL0     H73378  10.143   2.649  10.694  1.5905  1.2727 -0.5042
  556MOL0     H73379  10.388   2.722  10.698  0.1987 -0.5585 -0.9469
  556MOL0     H73380  10.876   2.486  10.554 -1.0249 -2.0768  2.2137
  556MOL0     H73381  11.103   2.574  10.550 -1.7993 -0.6472 -1.0525
  556MOL0     H73382  11.304   2.737  10.570  1.4657  3.1992  0.6862
  556MOL0     H73383  11.319   2.587  10.673 -1.3553 -0.8420 -3.1598
  556MOL0     H73384  11.539   2.682  10.676 -0.3892  0.2521 -0.1844
  556MOL0     H73385  11.474   2.846  10.692 -3.3594  1.3356  0.8529
  556MOL0     H73386  11.390   2.795  10.919  1.0564  1.8068 -2.2586
  556MOL0     H73387  11.563   2.771  10.914  1.7526 -2.4080  1.3345
  556MOL0     H73388  11.490   2.596  11.044  1.4071  0.7201 -0.0467
  556MOL0     H73389  11.349   2.560  10.950  0.8017 -2.3845  0.4224
  556MOL0     H73390  11.650   2.316  10.781  0.0555 -1.0914  2.3716
  556MOL0     H73391  11.029   2.743  10.945 -5.0514  1.3116  1.0263
  556MOL0     H73392  10.791   2.663  10.930  2.0353 -0.8412  0.9083
  557MOL0     O73393   8.377   9.096   6.155 -0.3828 -0.3192  0.2936
  557MOL0     C73394   8.401   8.995   6.218  0.1240  1.3233 -0.2155
  557MOL0     O73395   8.310   8.911   6.262  0.1938  0.3414 -0.2764
  557MOL0     C73396   8.192   8.893   6.201  0.7785 -0.7237 -0.0773
  557MOL0     C73397   8.122   8.968   6.106  0.3034 -0.6514  0.1905
  557MOL0     C73398   8.002   8.933   6.055  0.4684  0.3004 -0.8128
  557MOL0     C73399   7.952   8.807   6.086 -0.1393  0.4492 -0.5932
  557MOL0     O73400   7.840   8.757   6.028 -0.3015 -0.1942  0.7266
  557MOL0     C73401   7.792   8.819   5.908  0.0768  0.2055  0.2422
  557MOL0     C73402   7.687   8.731   5.845  0.3838  0.5828  0.2916
  557MOL0     C73403   7.717   8.586   5.823 -0.0203  0.1503  0.0544
  557MOL0     C73404   7.845   8.573   5.739 -0.6084  0.2020 -0.4898
  557MOL0     C73405   7.866   8.424   5.712  0.4747 -0.4921  0.7335
  557MOL0     C73406   7.804   8.383   5.577  0.0320  0.5816  1.3706
  557MOL0     C73407   7.670   8.319   5.582 -0.4824  0.3411 -0.2928
  557MOL0     C73408   7.651   8.255   5.447  0.3090  0.2695  0.0785
  557MOL0     N73409   7.507   8.217   5.423  1.1142 -0.1306  0.3858
  557MOL0     C73410   7.426   8.287   5.336 -0.1419 -0.4966 -0.0010
  557MOL0     C73411   7.306   8.226   5.326  0.1202 -0.6000 -0.8609
  557MOL0     C73412   7.179   8.274   5.259  0.3815  0.5816 -0.1225
  557MOL0     C73413   7.064   8.266   5.362 -0.2205  0.4664  0.0177
  557MOL0     C73414   6.979   8.144   5.348 -0.4882  0.1802  0.1621
  557MOL0     C73415   6.857   8.152   5.435  1.0796 -0.5938 -0.3989
  557MOL0     O73416   6.749   8.231   5.384  0.2395 -0.0983 -0.2599
  557MOL0     C73417   6.651   8.174   5.305  0.9139 -0.9131 -0.0542
  557MOL0     C73418   6.547   8.268   5.271 -0.0272  0.2954  0.4647
  557MOL0     C73419   6.443   8.228   5.192  0.7553  0.0585 -0.2526
  557MOL0     C73420   6.441   8.103   5.131  1.1779  0.8718 -0.2565
  557MOL0     C73421   6.319   8.050   5.063 -0.0328  0.7149 -0.0469
  557MOL0     O73422   6.321   7.928   4.999 -0.2956  0.8956 -0.0007
  557MOL0     C73423   6.203   7.861   4.981  0.1503  0.2260  0.3023
  557MOL0     C73424   6.091   7.867   5.057 -0.0091 -0.1260  0.3527
  557MOL0     C73425   5.988   7.774   5.029  0.0446  0.2092  0.2375
  557MOL0     C73426   6.004   7.670   4.935 -0.0380 -0.5921  0.0090
  557MOL0     O73427   5.910   7.578   4.909  0.4137  0.3730 -0.5983
  557MOL0     C73428   5.779   7.610   4.944 -0.3003  0.3277  1.0698
  557MOL0     C73429   5.703   7.486   4.888 -0.5972 -0.1066 -0.2471
  557MOL0     C73430   5.562   7.522   4.918  0.4930 -1.0281 -0.1283
  557MOL0     C73431   5.463   7.438   4.836  0.2980 -0.3199 -0.1718
  557MOL0     C73432   5.312   7.479   4.855 -0.6797 -0.2687 -0.5549
  557MOL0     C73433   5.199   7.379   4.823  0.4284  0.3203  0.1404
  557MOL0     C73434   5.072   7.446   4.760 -0.4248 -0.3697  0.0195
  557MOL0     C73435   5.023   7.559   4.844 -0.1500  0.0904  0.0942
  557MOL0    Cl73436   4.862   7.616   4.766  0.0332 -0.0965 -0.3406
  557MOL0     C73437   6.119   7.668   4.863 -0.2862  0.0772  0.0920
  557MOL0     C73438   6.215   7.769   4.882 -0.2619  0.4173  0.2038
  557MOL0     O73439   6.216   8.118   5.080 -0.7420  0.5456 -0.5457
  557MOL0     C73440   6.544   8.008   5.164  0.0839 -0.4571  0.3353
  557MOL0     C73441   6.650   8.047   5.254  0.3621  0.2351 -0.6957
  557MOL0     N73442   7.319   8.117   5.410  0.2331  0.2340  0.6874
  557MOL0     N73443   7.434   8.100   5.454  0.0221  0.6367 -0.1849
  557MOL0     C73444   8.018   8.727   6.176 -0.0862 -0.0192  0.4199
  557MOL0     C73445   8.132   8.775   6.240 -0.5418 -0.0401 -0.8570
  557MOL0     C73446   8.533   8.970   6.271  0.2758  0.1825 -0.0897
  557MOL0     C73447   8.637   9.065   6.258 -0.3598 -0.1681 -0.6257
  557MOL0     C73448   8.768   9.048   6.308 -0.0489 -0.8494 -0.8708
  557MOL0     C73449   8.797   8.929   6.369 -1.8252  0.2252  0.1638
  557MOL0     O73450   8.924   8.926   6.418  0.0429  0.0929  0.0178
  557MOL0     C73451   8.971   8.795   6.456 -0.3379  0.0300  0.1388
  557MOL0     C73452   9.126   8.800   6.466  0.1949  0.1734 -0.7588
  557MOL0     C73453   9.204   8.849   6.335  0.7621  0.6971  0.2479
  557MOL0     C73454   9.351   8.844   6.352  0.0839  0.2859 -0.2300
  557MOL0     C73455   9.425   8.875   6.235 -0.5382 -0.0147  0.0972
  557MOL0     C73456   9.504   8.898   6.146  1.1194  0.8769 -0.8363
  557MOL0     C73457   8.694   8.835   6.382  0.6602  0.7368  0.0220
  557MOL0     C73458   8.567   8.852   6.334 -0.0607 -0.0825  0.5275
  557MOL0     H73459   8.164   9.063   6.075  2.2232 -0.9741  1.5758
  557MOL0     H73460   7.943   9.004   5.997 -2.5723  0.1315  1.7681
  557MOL0     H73461   7.878   8.819   5.839 -1.7405  2.0911 -2.1848
  557MOL0     H73462   7.755   8.919   5.930  2.1000  0.9423  0.5409
  557MOL0     H73463   7.666   8.771   5.745  1.2336  0.9938  0.2672
  557MOL0     H73464   7.599   8.729   5.910 -0.7188 -1.0801 -1.1598
  557MOL0     H73465   7.635   8.535   5.771 -0.2994  3.1462 -2.7643
  557MOL0     H73466   7.724   8.538   5.921  0.1463 -2.1803 -1.0383
  557MOL0     H73467   7.841   8.632   5.647 -1.1792 -0.0482 -0.6248
  557MOL0     H73468   7.919   8.604   5.814 -1.8604 -0.2842  1.0038
  557MOL0     H73469   7.823   8.359   5.789 -2.4567 -0.2943 -0.5853
  557MOL0     H73470   7.974   8.408   5.704  0.9328  2.1153  0.5422
  557MOL0     H73471   7.861   8.298   5.538  0.1468  1.0958  0.3789
  557MOL0     H73472   7.803   8.461   5.500  0.0793  0.0916  0.8586
  557MOL0     H73473   7.669   8.246   5.663  0.7880  0.3468 -0.2479
  557MOL0     H73474   7.591   8.392   5.603  2.3605  4.2868 -1.9554
  557MOL0     H73475   7.723   8.176   5.425  0.2626  0.5359 -1.1125
  557MOL0     H73476   7.678   8.328   5.370 -1.0844 -0.3063 -0.9918
  557MOL0     H73477   7.464   8.369   5.276  1.6618 -1.1070  0.2545
  557MOL0     H73478   7.154   8.214   5.171 -1.1700  0.9599  0.0278
  557MOL0     H73479   7.196   8.380   5.238  0.3030  0.2505 -2.0989
  557MOL0     H73480   6.995   8.351   5.347  1.9824  2.4009  0.2326
  557MOL0     H73481   7.106   8.280   5.462 -1.0129  1.5088  0.2260
  557MOL0     H73482   6.954   8.134   5.242 -1.1725 -0.5512  0.3780
  557MOL0     H73483   7.040   8.063   5.389 -1.2986 -1.0548 -0.9883
  557MOL0     H73484   6.897   8.181   5.533 -3.3514 -0.8237  1.7491
  557MOL0     H73485   6.823   8.050   5.453 -1.3904  0.2124 -0.1476
  557MOL0     H73486   6.547   8.373   5.296  0.8520  0.4956 -0.3317
  557MOL0     H73487   6.366   8.304   5.181  0.5198 -0.0787  0.3715
  557MOL0     H73488   6.074   7.936   5.139 -1.8065 -2.1046  1.7653
  557MOL0     H73489   5.903   7.786   5.095  0.7459 -1.5479  1.5429
  557MOL0     H73490   5.743   7.705   4.902  1.0830  1.8498  3.0989
  557MOL0     H73491   5.766   7.609   5.053 -0.1311 -3.4561  1.1815
  557MOL0     H73492   5.742   7.393   4.929 -0.0720 -0.4750 -1.5394
  557MOL0     H73493   5.715   7.468   4.781  2.6011 -3.3415  0.4874
  557MOL0     H73494   5.544   7.626   4.890  1.0001 -0.9241 -0.0731
  557MOL0     H73495   5.546   7.518   5.027 -0.5237  3.1555  0.0327
  557MOL0     H73496   5.487   7.434   4.729  1.8938 -1.9186  0.2049
  557MOL0     H73497   5.477   7.336   4.873  1.7040 -0.3631 -0.7440
  557MOL0     H73498   5.304   7.570   4.796 -0.4039  1.9226  2.5156
  557MOL0     H73499   5.296   7.508   4.960 -0.0091 -0.5825 -0.3596
  557MOL0     H73500   5.184   7.317   4.912 -1.7164  2.6931  1.5529
  557MOL0     H73501   5.238   7.306   4.752  3.0513 -1.0707  2.7973
  557MOL0     H73502   5.097   7.473   4.657 -1.1170 -4.0508 -1.2870
  557MOL0     H73503   4.986   7.381   4.743 -2.5896  2.3541 -0.1480
  557MOL0     H73504   5.101   7.635   4.841 -0.3762  0.3094 -2.5986
  557MOL0     H73505   5.001   7.541   4.950  0.7370 -0.7440  0.1496
  557MOL0     H73506   6.139   7.599   4.781  0.9036  0.8624 -0.3058
  557MOL0     H73507   6.305   7.761   4.822  1.0128  1.3961  1.9248
  557MOL0     H73508   6.544   7.914   5.109  0.6263  0.0513 -0.5614
  557MOL0     H73509   6.732   7.977   5.263 -1.4595 -1.9725 -0.1293
  557MOL0     H73510   7.970   8.637   6.212 -1.0545  0.8633  1.4331
  557MOL0     H73511   8.187   8.718   6.314 -1.2812  1.8498  1.2613
  557MOL0     H73512   8.610   9.166   6.228  0.0008  0.5517  1.2981
  557MOL0     H73513   8.842   9.125   6.287 -3.6684  3.1324 -0.3856
  557MOL0     H73514   8.941   8.718   6.385 -1.4479  0.8703 -0.3180
  557MOL0     H73515   8.931   8.769   6.554 -0.6650 -1.0725 -0.2731
  557MOL0     H73516   9.139   8.873   6.546 -1.6525 -0.0277 -0.2387
  557MOL0     H73517   9.157   8.701   6.501  1.7692  1.3200  1.3173
  557MOL0     H73518   9.179   8.951   6.305  1.9996  1.0383  0.3279
  557MOL0     H73519   9.171   8.777   6.259  1.1096 -1.8673  2.3740
  557MOL0     H73520   9.378   8.911   6.434  0.2011 -2.5561  2.2027
  557MOL0     H73521   9.381   8.744   6.386  0.1531  0.1622 -0.6483
  557MOL0     H73522   9.576   8.925   6.072  0.3179  2.2409 -1.1649
  557MOL0     H73523   8.701   8.745   6.440  0.6701  0.5776 -0.2229
  557MOL0     H73524   8.506   8.764   6.350  0.8017 -0.3716  2.5934
  558MOL0     O73525   9.405   7.804   4.233  0.3320 -0.1896 -0.0158
  558MOL0     C73526   9.426   7.708   4.305  0.2137 -0.3205 -0.1917
  558MOL0     O73527   9.347   7.593   4.317  1.0000 -0.3837  0.1852
  558MOL0     C73528   9.249   7.572   4.220 -0.7249 -0.1023  1.4200
  558MOL0     C73529   9.254   7.465   4.130  0.2825  0.2050  0.1411
  558MOL0     C73530   9.149   7.438   4.040  0.6897  0.0980 -1.3122
  558MOL0     C73531   9.027   7.505   4.051 -0.4659 -0.2296 -0.4516
  558MOL0     O73532   8.922   7.471   3.966 -0.1931  0.0123 -0.3038
  558MOL0     C73533   8.815   7.563   3.945  0.0635 -0.3125  0.6345
  558MOL0     C73534   8.843   7.693   3.861 -0.4431  0.0148 -0.0793
  558MOL0     C73535   8.711   7.761   3.842 -0.6098 -0.9378  0.2999
  558MOL0     C73536   8.715   7.885   3.756 -0.6336 -1.3143 -0.4396
  558MOL0     C73537   8.758   7.861   3.610  1.1530 -0.1049 -0.1547
  558MOL0     C73538   8.707   7.976   3.519  0.4224  0.1008  0.8469
  558MOL0     C73539   8.814   8.085   3.518 -0.0936 -0.5822 -0.3074
  558MOL0     C73540   8.937   8.057   3.436  0.8703  0.5407 -0.7815
  558MOL0     N73541   9.010   8.179   3.390  0.8300 -0.6309 -0.0906
  558MOL0     C73542   8.987   8.251   3.282 -0.0280 -0.0660 -0.0781
  558MOL0     C73543   9.041   8.373   3.299 -0.7449  0.2093 -0.1296
  558MOL0     C73544   9.034   8.489   3.205 -0.1580  1.0235  0.3009
  558MOL0     C73545   9.134   8.600   3.223  0.0096 -1.0179  0.5873
  558MOL0     C73546   9.110   8.717   3.141  0.2373 -0.8242  0.3739
  558MOL0     C73547   9.231   8.819   3.172 -0.4428 -0.2560 -0.6108
  558MOL0     O73548   9.368   8.794   3.125  0.2722 -0.3376  0.0978
  558MOL0     C73549   9.473   8.846   3.198 -0.6113 -0.1065 -0.9231
  558MOL0     C73550   9.486   8.845   3.343 -0.6053  0.3270 -0.5276
  558MOL0     C73551   9.602   8.878   3.405 -0.1961 -1.1395  0.3085
  558MOL0     C73552   9.717   8.928   3.331 -0.3401  0.1050 -0.0506
  558MOL0     C73553   9.846   8.965   3.394 -0.7337 -0.0236  0.0564
  558MOL0     O73554   9.939   9.013   3.315 -0.1598  0.1337  0.1279
  558MOL0     C73555  10.040   9.086   3.361 -0.5651 -0.0671  0.4122
  558MOL0     C73556  10.084   9.203   3.292 -0.5088  0.0325  0.2860
  558MOL0     C73557  10.190   9.276   3.352  0.5418  0.4288  0.9636
  558MOL0     C73558  10.272   9.243   3.463  0.7319  0.2927  0.7215
  558MOL0     O73559  10.355   9.331   3.510 -0.4238 -0.4116 -0.2058
  558MOL0     C73560  10.455   9.296   3.599 -0.6351 -0.1243 -0.6467
  558MOL0     C73561  10.568   9.403   3.606  0.2616 -0.5030 -0.8750
  558MOL0     C73562  10.693   9.365   3.677 -0.6402  0.8755 -0.4818
  558MOL0     C73563  10.787   9.476   3.729  0.4003 -0.3034  0.3202
  558MOL0     C73564  10.864   9.436   3.865  0.0660  0.1810  0.1253
  558MOL0     C73565  11.005   9.377   3.837 -0.5487  0.5733 -0.9011
  558MOL0     C73566  11.072   9.339   3.961  0.6583 -0.1495 -0.0406
  558MOL0     C73567  11.199   9.265   3.927 -0.4071  0.4180  0.5421
  558MOL0    Cl73568  11.321   9.368   3.857 -0.1060 -0.2345 -0.1823
  558MOL0     C73569  10.227   9.120   3.522 -0.0258 -0.4493  0.0750
  558MOL0     C73570  10.120   9.044   3.471 -0.7650 -1.2114  0.3423
  558MOL0     O73571   9.839   8.981   3.520  0.4241  0.1672  0.5367
  558MOL0     C73572   9.704   8.921   3.196  0.1114 -0.0420  0.2462
  558MOL0     C73573   9.583   8.898   3.125 -0.6179 -0.1504 -0.5047
  558MOL0     N73574   9.088   8.379   3.432 -0.4648  0.0331 -0.2692
  558MOL0     N73575   9.064   8.260   3.486  0.2479 -0.4597 -0.2783
  558MOL0     C73576   9.014   7.606   4.148 -1.1979 -0.6363  0.0711
  558MOL0     C73577   9.126   7.635   4.229  0.7295  0.7332  0.6603
  558MOL0     C73578   9.554   7.707   4.375 -0.1901 -0.5287 -1.2400
  558MOL0     C73579   9.577   7.623   4.489  0.2929 -0.5763 -0.2864
  558MOL0     C73580   9.699   7.631   4.557  0.2184 -0.0672 -0.5126
  558MOL0     C73581   9.809   7.698   4.503  0.1546 -0.4189  1.2084
  558MOL0     O73582   9.933   7.697   4.561  0.2233  0.4990 -0.2625
  558MOL0     C73583  10.034   7.614   4.492 -0.2405  0.4891  0.2301
  558MOL0     C73584  10.094   7.503   4.577  0.0814  0.9957  1.2410
  558MOL0     C73585  10.000   7.382   4.567 -0.2031  0.4939 -0.4425
  558MOL0     C73586  10.058   7.255   4.643  0.2684 -0.8989  0.4556
  558MOL0     C73587  10.189   7.213   4.592  0.6487  0.5201  0.3042
  558MOL0     C73588  10.291   7.187   4.527 -0.3156  0.4161 -0.1614
  558MOL0     C73589   9.791   7.789   4.397 -0.2540 -0.1121  0.2238
  558MOL0     C73590   9.663   7.790   4.333 -0.1285 -0.1702 -1.3627
  558MOL0     H73591   9.342   7.407   4.109 -0.4704 -0.5886 -0.9304
  558MOL0     H73592   9.151   7.350   3.976  0.0635 -1.3016  0.4818
  558MOL0     H73593   8.775   7.590   4.043  0.1356 -0.8155  0.8093
  558MOL0     H73594   8.739   7.503   3.895  0.8390  0.5035 -1.6478
  558MOL0     H73595   8.871   7.654   3.762 -1.8018 -0.8029 -0.1675
  558MOL0     H73596   8.926   7.747   3.909  0.8103 -2.3899  0.6138
  558MOL0     H73597   8.670   7.794   3.938 -0.8258 -1.9010  0.5464
  558MOL0     H73598   8.636   7.691   3.805 -0.2503 -2.3411  2.0885
  558MOL0     H73599   8.618   7.936   3.754 -0.7755 -1.5291  0.6094
  558MOL0     H73600   8.790   7.951   3.800  0.6523 -2.3552 -1.0076
  558MOL0     H73601   8.716   7.763   3.585 -2.3943  1.8285 -2.6097
  558MOL0     H73602   8.867   7.852   3.603  1.0231 -1.9506 -0.1818
  558MOL0     H73603   8.610   8.016   3.551 -0.6240 -1.4149 -0.3057
  558MOL0     H73604   8.693   7.952   3.413  1.0868  2.0222  0.2787
  558MOL0     H73605   8.781   8.183   3.482 -0.3884 -0.6552 -0.2369
  558MOL0     H73606   8.845   8.108   3.620  2.8585  3.3464 -1.8442
  558MOL0     H73607   8.909   7.996   3.350  0.0567  0.1473 -0.2484
  558MOL0     H73608   9.012   7.995   3.485  0.0732 -1.0671 -1.5220
  558MOL0     H73609   8.943   8.213   3.190 -0.6117 -0.8974  0.5329
  558MOL0     H73610   8.932   8.530   3.206 -0.5004  0.2112  1.9355
  558MOL0     H73611   9.042   8.450   3.103  0.7397  0.9184  0.4068
  558MOL0     H73612   9.235   8.565   3.201 -0.0896  0.1520 -2.0150
  558MOL0     H73613   9.135   8.629   3.329  2.1978  1.4884  0.0074
  558MOL0     H73614   9.120   8.703   3.033 -0.4268  2.6444 -0.2753
  558MOL0     H73615   9.011   8.754   3.169  0.1798 -1.3286  0.8301
  558MOL0     H73616   9.229   8.845   3.278 -0.6481  1.7606 -1.0595
  558MOL0     H73617   9.204   8.913   3.121  2.8287  0.9183 -0.3776
  558MOL0     H73618   9.404   8.820   3.409  1.5165 -1.4938  1.5814
  558MOL0     H73619   9.594   8.854   3.511 -1.0889 -4.0951 -0.3226
  558MOL0     H73620  10.032   9.231   3.201  0.8281  2.0905  0.0893
  558MOL0     H73621  10.201   9.372   3.301 -1.9757 -1.0362 -2.7385
  558MOL0     H73622  10.519   9.211   3.574  1.8680  1.5479 -0.3798
  558MOL0     H73623  10.412   9.290   3.699 -1.1200 -1.6779 -0.9268
  558MOL0     H73624  10.514   9.484   3.656 -0.9374 -2.7505  1.7427
  558MOL0     H73625  10.588   9.438   3.504 -0.3942 -2.5577 -1.7661
  558MOL0     H73626  10.753   9.300   3.612 -0.3494 -0.4664  1.0449
  558MOL0     H73627  10.661   9.307   3.765  0.8855  2.0616  0.9086
  558MOL0     H73628  10.855   9.494   3.645 -0.1430  2.3464  0.3490
  558MOL0     H73629  10.716   9.558   3.747 -0.1350 -0.5590 -0.5383
  558MOL0     H73630  10.801   9.360   3.911  2.7855 -1.5450  1.2267
  558MOL0     H73631  10.865   9.516   3.939 -0.5873  1.1706 -0.9125
  558MOL0     H73632  11.059   9.455   3.783 -0.2014  0.3377 -0.8971
  558MOL0     H73633  10.998   9.295   3.765 -0.0159  1.3199 -1.8321
  558MOL0     H73634  11.094   9.431   4.015 -0.2444 -1.0435  1.9291
  558MOL0     H73635  11.005   9.285   4.028  1.0717  0.3017  0.7579
  558MOL0     H73636  11.169   9.194   3.849 -1.9248  2.9176 -1.2931
  558MOL0     H73637  11.235   9.196   4.004  3.0747  1.8556  0.3890
  558MOL0     H73638  10.287   9.087   3.606 -0.4707  1.0846  1.0429
  558MOL0     H73639  10.098   8.955   3.528  5.2644 -1.1135  3.6524
  558MOL0     H73640   9.785   8.960   3.135  0.2720  3.0807  2.2806
  558MOL0     H73641   9.586   8.897   3.017 -1.0735  1.7685 -0.5644
  558MOL0     H73642   8.926   7.669   4.160 -0.5220  0.8640 -2.2681
  558MOL0     H73643   9.125   7.721   4.296  0.9377  1.1356  0.1572
  558MOL0     H73644   9.504   7.548   4.518 -1.4617  1.4374  0.8573
  558MOL0     H73645   9.716   7.576   4.649  0.9200  0.0663 -0.5563
  558MOL0     H73646  10.112   7.684   4.462 -1.3252  1.6137 -0.1020
  558MOL0     H73647   9.988   7.581   4.398  0.0998 -1.6093  0.7731
  558MOL0     H73648  10.195   7.479   4.541  1.3558  1.0935  4.4134
  558MOL0     H73649  10.117   7.534   4.680  0.6869  0.4902  1.2651
  558MOL0     H73650   9.989   7.360   4.461  0.3056 -0.7073 -0.2577
  558MOL0     H73651   9.901   7.407   4.607  0.8286  1.7347  1.5021
  558MOL0     H73652  10.062   7.267   4.751 -0.8372 -1.4504  0.5677
  558MOL0     H73653   9.998   7.169   4.612  1.1400 -0.9987 -1.0486
  558MOL0     H73654  10.374   7.150   4.470 -0.8224  2.2003 -2.2202
  558MOL0     H73655   9.878   7.844   4.362 -0.3003 -0.5923 -0.6931
  558MOL0     H73656   9.656   7.850   4.243  0.7813  2.2603  0.1078
  559MOL0     O73657   1.332   2.204   8.555 -0.3009  0.1601  0.3860
  559MOL0     C73658   1.366   2.188   8.674  0.0481  0.0033  0.5115
  559MOL0     O73659   1.287   2.142   8.778 -0.3485  0.0117  0.8117
  559MOL0     C73660   1.164   2.092   8.758  0.7505  0.2688 -0.0977
  559MOL0     C73661   1.121   2.019   8.647 -0.3255 -0.3224  0.6037
  559MOL0     C73662   0.987   1.979   8.630 -0.0182  0.3632 -0.3673
  559MOL0     C73663   0.893   1.993   8.738  0.0002 -0.0566  0.2613
  559MOL0     O73664   0.759   1.961   8.732  0.2652  0.4072 -0.4905
  559MOL0     C73665   0.733   1.845   8.650  0.0905 -0.2653 -0.0581
  559MOL0     C73666   0.591   1.793   8.693 -0.2508  0.5566  1.1497
  559MOL0     C73667   0.573   1.752   8.833 -0.6529 -0.3948 -0.1044
  559MOL0     C73668   0.438   1.709   8.870 -0.0738  0.0609 -0.0713
  559MOL0     C73669   0.435   1.658   9.017  0.1908  0.4409 -0.4273
  559MOL0     C73670   0.289   1.639   9.062  0.4447 -0.2370 -0.6308
  559MOL0     C73671   0.274   1.537   9.179 -0.1721  0.5654 -0.7923
  559MOL0     C73672   0.341   1.591   9.303  0.3056 -1.6987 -0.0218
  559MOL0     N73673   0.281   1.707   9.360 -0.1333 -0.0183 -0.3617
  559MOL0     C73674   0.355   1.792   9.435  0.0210 -0.1574 -0.9148
  559MOL0     C73675   0.276   1.899   9.455 -0.1456 -0.3055 -0.7626
  559MOL0     C73676   0.309   2.019   9.537  0.4643 -0.8296 -0.6527
  559MOL0     C73677   0.426   2.095   9.473  0.1863  0.5109  0.0728
  559MOL0     C73678   0.449   2.236   9.524 -0.4461 -0.8170  0.2762
  559MOL0     C73679   0.594   2.277   9.488  0.0527 -0.6725  0.0325
  559MOL0     O73680   0.689   2.203   9.564  0.1801  0.4638  0.0662
  559MOL0     C73681   0.813   2.247   9.597 -0.2411  0.4165  0.9188
  559MOL0     C73682   0.874   2.198   9.709  0.4612 -0.1060  0.1761
  559MOL0     C73683   1.003   2.227   9.736  0.1157  0.1194 -0.4056
  559MOL0     C73684   1.079   2.306   9.654  0.4285  0.0561  0.4644
  559MOL0     C73685   1.221   2.342   9.681  0.7286  0.5721  1.7823
  559MOL0     O73686   1.291   2.412   9.578  0.6581 -0.3429  0.2661
  559MOL0     C73687   1.432   2.421   9.594 -0.4084 -0.2942  0.5595
  559MOL0     C73688   1.516   2.314   9.547  1.1068 -0.3144 -0.3650
  559MOL0     C73689   1.653   2.318   9.563  0.1288  0.3384  0.5502
  559MOL0     C73690   1.717   2.425   9.628  0.1574 -0.2258 -0.1493
  559MOL0     O73691   1.850   2.429   9.651 -0.4245 -0.5688  0.7258
  559MOL0     C73692   1.953   2.363   9.572 -0.2991 -0.3713  0.3819
  559MOL0     C73693   2.060   2.340   9.670 -0.3503 -1.2524 -0.1605
  559MOL0     C73694   2.198   2.323   9.620 -0.7405 -0.2207  0.7571
  559MOL0     C73695   2.318   2.304   9.729 -0.1399 -0.2882 -0.0717
  559MOL0     C73696   2.444   2.253   9.656  0.8869  0.4913 -0.3125
  559MOL0     C73697   2.536   2.368   9.602 -0.5004 -0.4008  0.0566
  559MOL0     C73698   2.655   2.328   9.522  0.3361 -0.5195  0.8900
  559MOL0     C73699   2.717   2.456   9.467  0.3725 -0.2659 -0.6345
  559MOL0    Cl73700   2.821   2.549   9.593 -0.2548  0.2574  0.3036
  559MOL0     C73701   1.638   2.530   9.677 -0.2114 -0.0036  0.7584
  559MOL0     C73702   1.501   2.529   9.668  1.3606 -0.1160 -0.0227
  559MOL0     O73703   1.268   2.301   9.790  0.2842 -0.4536  0.2724
  559MOL0     C73704   1.020   2.353   9.537 -0.0643 -0.8132 -1.0701
  559MOL0     C73705   0.887   2.330   9.510  0.2421  0.3626 -0.1078
  559MOL0     N73706   0.147   1.879   9.392 -0.3364  0.1515 -0.6033
  559MOL0     N73707   0.156   1.761   9.345 -0.3163 -0.0682 -0.2945
  559MOL0     C73708   0.942   2.055   8.854  0.0788  0.3099  0.8739
  559MOL0     C73709   1.072   2.105   8.868 -0.5544  0.3506 -0.6281
  559MOL0     C73710   1.505   2.224   8.708 -0.8940  0.3524  0.2183
  559MOL0     C73711   1.590   2.296   8.624  0.5019  0.1812 -0.4504
  559MOL0     C73712   1.716   2.338   8.663 -0.9609 -0.0133 -0.6906
  559MOL0     C73713   1.764   2.313   8.789 -0.7971  0.6688 -0.5299
  559MOL0     O73714   1.882   2.366   8.830  0.1576 -0.2027  0.4414
  559MOL0     C73715   1.995   2.285   8.846  0.1355  0.1872  0.1622
  559MOL0     C73716   2.114   2.316   8.765 -0.3057  0.3202  0.4014
  559MOL0     C73717   2.175   2.457   8.800  1.2249 -0.6083  0.0750
  559MOL0     C73718   2.310   2.462   8.728  0.3730 -0.5856 -0.2065
  559MOL0     C73719   2.375   2.587   8.748  0.0063 -0.8544 -0.2954
  559MOL0     C73720   2.435   2.686   8.783  0.0115  0.5478  0.4516
  559MOL0     C73721   1.678   2.249   8.878 -0.2827  0.4378  0.4027
  559MOL0     C73722   1.552   2.199   8.845 -0.2057 -0.3990 -0.0374
  559MOL0     H73723   1.184   2.000   8.561  1.0861  1.5170  1.1663
  559MOL0     H73724   0.965   1.928   8.537  1.4741 -0.1414 -0.4753
  559MOL0     H73725   0.793   1.756   8.669  0.2189 -0.2091 -0.2024
  559MOL0     H73726   0.734   1.873   8.544  0.4763 -0.8890 -0.2249
  559MOL0     H73727   0.561   1.715   8.622 -0.2358 -0.4772  2.2605
  559MOL0     H73728   0.531   1.885   8.686  1.3561  1.6691  1.2620
  559MOL0     H73729   0.611   1.835   8.893  0.2470  1.0331 -2.5401
  559MOL0     H73730   0.636   1.663   8.847 -1.2937 -0.6161  1.6335
  559MOL0     H73731   0.374   1.798   8.869  1.9487  1.5791 -0.7190
  559MOL0     H73732   0.402   1.626   8.807 -0.4001  1.4205 -1.7645
  559MOL0     H73733   0.502   1.722   9.076  4.6029 -2.0244 -2.2055
  559MOL0     H73734   0.482   1.559   9.024 -0.6285  0.0029 -0.9957
  559MOL0     H73735   0.219   1.598   8.989 -2.5920 -1.6937  2.7608
  559MOL0     H73736   0.256   1.741   9.086 -1.7326 -0.7739 -1.1065
  559MOL0     H73737   0.171   1.514   9.206  0.3888 -1.0246  0.1635
  559MOL0     H73738   0.323   1.441   9.157 -0.8110  0.2916 -1.0317
  559MOL0     H73739   0.448   1.606   9.282  0.2681  0.2954  0.9587
  559MOL0     H73740   0.339   1.523   9.388  0.4590  0.3830  1.7170
  559MOL0     H73741   0.453   1.781   9.479  0.3903  3.3967 -0.5160
  559MOL0     H73742   0.332   1.980   9.637 -2.4794 -0.4305  0.2621
  559MOL0     H73743   0.232   2.094   9.557  0.3328 -1.2454  0.4874
  559MOL0     H73744   0.404   2.109   9.366 -1.6544  1.3542  0.5170
  559MOL0     H73745   0.515   2.038   9.500 -0.2324 -0.1127  0.1644
  559MOL0     H73746   0.374   2.301   9.476 -0.0426 -0.2220  0.4318
  559MOL0     H73747   0.429   2.242   9.631 -2.7667 -0.4067 -0.1068
  559MOL0     H73748   0.601   2.384   9.509  2.3560 -1.1767  2.2303
  559MOL0     H73749   0.612   2.255   9.382  0.9104 -0.5900  0.1550
  559MOL0     H73750   0.832   2.133   9.785  0.6240 -0.1180  0.2542
  559MOL0     H73751   1.040   2.192   9.831  0.9759  1.1424 -0.3523
  559MOL0     H73752   1.466   2.235   9.492  1.2856 -0.7035  0.0294
  559MOL0     H73753   1.705   2.229   9.529  1.9641  1.5846 -0.0546
  559MOL0     H73754   1.980   2.440   9.498 -0.0288  1.5398  2.3577
  559MOL0     H73755   1.933   2.269   9.519  3.2759 -1.3157  0.4968
  559MOL0     H73756   2.022   2.253   9.724 -1.6626 -0.4098  0.3241
  559MOL0     H73757   2.069   2.425   9.737  0.3384 -0.7664 -0.8502
  559MOL0     H73758   2.216   2.419   9.570  0.6417  0.7242  2.8901
  559MOL0     H73759   2.211   2.232   9.561  2.8015  0.5268  0.1644
  559MOL0     H73760   2.341   2.398   9.779  2.4817  0.0719 -1.7556
  559MOL0     H73761   2.280   2.229   9.799 -1.7306 -0.5298 -1.1485
  559MOL0     H73762   2.408   2.194   9.572  1.2128 -0.3426  0.1231
  559MOL0     H73763   2.513   2.198   9.721  2.7583  1.4294 -1.4157
  559MOL0     H73764   2.572   2.425   9.689 -1.4607  0.6323 -0.2061
  559MOL0     H73765   2.478   2.438   9.542  0.1818 -0.6646 -0.9337
  559MOL0     H73766   2.723   2.266   9.580  0.6362 -2.7614 -1.6708
  559MOL0     H73767   2.624   2.265   9.439 -0.6103  0.6159  0.3529
  559MOL0     H73768   2.635   2.519   9.430  1.1778  0.4704 -1.2032
  559MOL0     H73769   2.781   2.424   9.385  0.6338 -1.2838 -0.0446
  559MOL0     H73770   1.686   2.605   9.740 -0.9050  1.0112  0.1139
  559MOL0     H73771   1.440   2.605   9.717  4.6583  3.4004 -0.8947
  559MOL0     H73772   1.074   2.411   9.462  0.1792  2.6369  1.4795
  559MOL0     H73773   0.836   2.353   9.417 -1.6617  0.3327  0.8757
  559MOL0     H73774   0.874   2.075   8.936  0.7880  3.1569  0.8964
  559MOL0     H73775   1.108   2.158   8.955  1.8197  2.0358 -2.5072
  559MOL0     H73776   1.560   2.327   8.525 -1.2683  1.2530  0.3733
  559MOL0     H73777   1.778   2.403   8.602 -0.0996  1.4676  1.6601
  559MOL0     H73778   1.972   2.179   8.831 -1.3212  0.6198 -0.7629
  559MOL0     H73779   2.035   2.289   8.948  1.6383 -0.2639 -0.3730
  559MOL0     H73780   2.194   2.245   8.789  0.1662  0.6929 -0.0526
  559MOL0     H73781   2.086   2.307   8.659 -0.8024 -1.1263  0.6391
  559MOL0     H73782   2.184   2.482   8.906 -1.8999 -0.3235  0.3902
  559MOL0     H73783   2.111   2.530   8.748  1.2513  0.6373  1.6916
  559MOL0     H73784   2.377   2.380   8.759  0.3944 -1.4490 -2.3785
  559MOL0     H73785   2.296   2.463   8.620 -1.9284  0.5352  0.0572
  559MOL0     H73786   2.496   2.763   8.827 -0.2050  0.5882  0.6838
  559MOL0     H73787   1.712   2.236   8.981  1.1878 -2.3057 -0.3396
  559MOL0     H73788   1.492   2.140   8.913 -1.3879 -0.9158 -1.4580
  560MOL0     O73789   4.063   8.625   6.952  0.2931 -0.4746  0.4588
  560MOL0     C73790   4.080   8.647   7.072  0.0690 -0.0614  0.4204
  560MOL0     O73791   3.991   8.621   7.169 -0.3428  0.9799 -0.5196
  560MOL0     C73792   3.856   8.583   7.155  0.0185  0.6305 -1.5587
  560MOL0     C73793   3.776   8.562   7.040 -0.1203  0.9539 -0.1701
  560MOL0     C73794   3.644   8.523   7.049  0.3830 -0.9094 -0.8562
  560MOL0     C73795   3.587   8.510   7.177 -0.0642  0.6182  0.0230
  560MOL0     O73796   3.460   8.469   7.197  0.1502 -0.0533 -0.7507
  560MOL0     C73797   3.431   8.340   7.247  0.9258 -0.6768 -1.0216
  560MOL0     C73798   3.274   8.307   7.233 -0.7530  0.1674 -0.5146
  560MOL0     C73799   3.179   8.409   7.290  0.2621 -0.0277  0.2877
  560MOL0     C73800   3.027   8.365   7.289 -0.5842  0.4879  0.4634
  560MOL0     C73801   2.928   8.468   7.345  0.8637 -0.2234  0.5822
  560MOL0     C73802   2.792   8.402   7.385  0.5749 -0.0792 -0.6491
  560MOL0     C73803   2.721   8.344   7.264  0.7420  0.8134  0.2731
  560MOL0     C73804   2.585   8.288   7.301 -0.0258  0.9999  0.1334
  560MOL0     N73805   2.500   8.378   7.386  0.2044  0.2468  0.3911
  560MOL0     C73806   2.501   8.375   7.522  0.8567 -0.4560 -0.7189
  560MOL0     C73807   2.390   8.451   7.555 -0.3060 -0.1233 -0.2300
  560MOL0     C73808   2.352   8.478   7.707  0.6231  0.1679  0.1552
  560MOL0     C73809   2.204   8.436   7.739 -0.0016 -0.4588  0.0070
  560MOL0     C73810   2.153   8.451   7.883  0.5514 -0.0617 -0.3964
  560MOL0     C73811   1.996   8.461   7.876 -0.3384  0.0336 -0.0189
  560MOL0     O73812   1.951   8.511   8.003  0.3372  0.2718  0.5690
  560MOL0     C73813   1.817   8.545   8.019 -0.7891  0.9097  0.4931
  560MOL0     C73814   1.796   8.619   8.134 -0.0477 -0.3236 -0.2413
  560MOL0     C73815   1.661   8.660   8.173  0.8583 -0.2423  0.3749
  560MOL0     C73816   1.554   8.641   8.083 -0.2716  0.4332 -0.6025
  560MOL0     C73817   1.420   8.682   8.119  1.0670 -0.0477  0.2005
  560MOL0     O73818   1.312   8.642   8.045 -0.1524 -0.1071 -0.2317
  560MOL0     C73819   1.179   8.670   8.076 -0.3591 -0.1405  0.2537
  560MOL0     C73820   1.125   8.688   8.211  0.8926 -1.3664 -0.0205
  560MOL0     C73821   0.982   8.689   8.240 -0.6763  0.0206 -0.6071
  560MOL0     C73822   0.900   8.677   8.136 -0.4789 -0.2765  0.2467
  560MOL0     O73823   0.768   8.692   8.180 -0.5403  0.2745 -0.6833
  560MOL0     C73824   0.673   8.658   8.078 -0.1560 -0.3634 -0.2229
  560MOL0     C73825   0.536   8.642   8.134 -0.9481 -0.2661  0.1825
  560MOL0     C73826   0.476   8.771   8.171  0.0035 -0.5138  0.5819
  560MOL0     C73827   0.345   8.741   8.247  0.6475 -0.1247  0.2812
  560MOL0     C73828   0.256   8.865   8.260  0.1892  0.5351  0.0566
  560MOL0     C73829   0.115   8.823   8.310 -0.2332 -0.1254 -0.2154
  560MOL0     C73830   0.028   8.950   8.333  0.5932 -0.4101  0.0047
  560MOL0     C73831  -0.115   8.907   8.366 -0.6423 -0.0979 -0.3969
  560MOL0    Cl73832  -0.210   8.835   8.224 -0.0680 -0.0461 -0.0654
  560MOL0     C73833   0.945   8.663   8.002  0.2695  0.3134  0.2985
  560MOL0     C73834   1.083   8.657   7.974  0.5113 -0.6439 -0.0101
  560MOL0     O73835   1.413   8.753   8.218 -1.0652  0.0197 -0.0263
  560MOL0     C73836   1.577   8.563   7.966  0.1367  0.3924 -0.3635
  560MOL0     C73837   1.708   8.515   7.940 -0.3880  0.3045  0.1628
  560MOL0     N73838   2.348   8.513   7.442  0.9859  0.4084 -0.0486
  560MOL0     N73839   2.416   8.474   7.342 -0.8348 -0.3927  0.5228
  560MOL0     C73840   3.661   8.541   7.291 -0.0784 -0.2785 -0.9342
  560MOL0     C73841   3.792   8.589   7.280 -0.2053 -0.1931  0.5397
  560MOL0     C73842   4.223   8.677   7.115  0.2739 -0.0351  0.1111
  560MOL0     C73843   4.333   8.695   7.025 -0.6433 -0.5204 -0.2905
  560MOL0     C73844   4.463   8.728   7.065  0.4362  0.1507 -0.4506
  560MOL0     C73845   4.489   8.740   7.202  0.3116 -0.4878 -0.7676
  560MOL0     O73846   4.615   8.767   7.262 -0.1717 -0.2213  0.0919
  560MOL0     C73847   4.729   8.780   7.168  0.0203  0.1361  0.1100
  560MOL0     C73848   4.858   8.751   7.241  0.0142  0.0488 -0.2003
  560MOL0     C73849   4.917   8.876   7.317 -0.5866  0.9264  0.6335
  560MOL0     C73850   5.027   8.818   7.413  0.1430 -0.6089 -0.8887
  560MOL0     C73851   5.160   8.797   7.345 -0.2106 -0.0765  0.2810
  560MOL0     C73852   5.266   8.779   7.283  0.0407  0.5074  0.2032
  560MOL0     C73853   4.383   8.729   7.296 -0.3581  1.1435  0.1583
  560MOL0     C73854   4.253   8.709   7.253  0.3648 -0.2418  0.9121
  560MOL0     H73855   3.821   8.567   6.942 -0.9581  0.9200 -0.5692
  560MOL0     H73856   3.580   8.508   6.963 -0.4195  2.6751 -1.0273
  560MOL0     H73857   3.467   8.342   7.350  0.0250  2.3151 -0.6802
  560MOL0     H73858   3.485   8.256   7.201  2.1141 -1.4723  1.6574
  560MOL0     H73859   3.247   8.209   7.274  1.7488  0.3411  1.8088
  560MOL0     H73860   3.256   8.291   7.126 -1.4968  0.5191 -0.4474
  560MOL0     H73861   3.192   8.496   7.225 -0.8082  0.2265  0.3959
  560MOL0     H73862   3.202   8.439   7.393  1.9794  0.7934 -0.3024
  560MOL0     H73863   2.999   8.331   7.189  2.5404 -2.6139  0.4329
  560MOL0     H73864   3.030   8.272   7.346  2.2687  0.4789  0.4405
  560MOL0     H73865   2.914   8.540   7.264  0.4075 -0.6731  0.2515
  560MOL0     H73866   2.975   8.525   7.425  3.4360 -1.1573 -0.1794
  560MOL0     H73867   2.734   8.486   7.424  3.2115  2.1545 -1.1503
  560MOL0     H73868   2.798   8.326   7.463  1.2377 -0.7574 -1.3446
  560MOL0     H73869   2.721   8.418   7.183  0.2725  1.5357  0.9239
  560MOL0     H73870   2.780   8.257   7.233  1.2373 -0.1218  3.5228
  560MOL0     H73871   2.587   8.186   7.339  0.8102  1.1041  0.3854
  560MOL0     H73872   2.529   8.281   7.207 -1.2573 -1.3416  0.9796
  560MOL0     H73873   2.549   8.309   7.593  0.2443  2.4190  2.6094
  560MOL0     H73874   2.361   8.586   7.720  0.1453  0.0106  2.0205
  560MOL0     H73875   2.421   8.438   7.783 -2.3484  3.9021  5.4334
  560MOL0     H73876   2.204   8.328   7.721  1.9963 -0.9312  2.2547
  560MOL0     H73877   2.137   8.495   7.677 -0.9400 -0.0037  1.4237
  560MOL0     H73878   2.182   8.367   7.946  1.1637  2.0423  2.3419
  560MOL0     H73879   2.185   8.541   7.936 -0.4554 -0.5070  1.0192
  560MOL0     H73880   1.960   8.363   7.846 -2.5709  1.4568 -2.3931
  560MOL0     H73881   1.960   8.533   7.803 -0.4124  1.5774  1.4712
  560MOL0     H73882   1.883   8.634   8.198  0.2451  0.0767 -0.7205
  560MOL0     H73883   1.647   8.721   8.263 -1.6179  2.7889 -1.8387
  560MOL0     H73884   1.190   8.693   8.298  0.8194  0.4329 -0.0318
  560MOL0     H73885   0.940   8.702   8.339 -2.3747  0.2753 -1.3284
  560MOL0     H73886   0.705   8.564   8.032  1.8777 -0.2686  0.8805
  560MOL0     H73887   0.675   8.732   7.998  0.1375 -1.0255 -0.8420
  560MOL0     H73888   0.535   8.566   8.213  2.4058 -0.9845 -0.3216
  560MOL0     H73889   0.474   8.602   8.054 -2.1568  0.8294  0.5381
  560MOL0     H73890   0.455   8.824   8.078 -1.7655 -0.3110  1.0646
  560MOL0     H73891   0.541   8.838   8.229  0.2427  0.6423 -0.9793
  560MOL0     H73892   0.280   8.667   8.200  1.4487 -2.4232  2.5360
  560MOL0     H73893   0.369   8.710   8.350 -2.5981 -4.2553  0.0505
  560MOL0     H73894   0.241   8.922   8.168 -1.3440 -0.2718 -0.2359
  560MOL0     H73895   0.299   8.937   8.330 -2.1402  4.1026 -1.8817
  560MOL0     H73896   0.129   8.765   8.401  2.6612 -0.4928 -0.8171
  560MOL0     H73897   0.072   8.759   8.233  0.3410 -1.3282  0.4352
  560MOL0     H73898   0.057   9.018   8.413 -0.2789  1.0124 -0.8394
  560MOL0     H73899   0.022   9.010   8.241 -0.4690  1.4845  1.2390
  560MOL0     H73900  -0.158   9.003   8.394  3.5831  2.2855 -1.1156
  560MOL0     H73901  -0.111   8.836   8.448 -0.5777  1.2101  0.7621
  560MOL0     H73902   0.884   8.657   7.913  1.6430  3.2918 -0.9593
  560MOL0     H73903   1.102   8.646   7.868  2.1137  1.5202 -0.0218
  560MOL0     H73904   1.486   8.538   7.912 -0.7432 -2.9234  2.3088
  560MOL0     H73905   1.730   8.445   7.859 -0.8245 -1.7950  1.7581
  560MOL0     H73906   3.615   8.525   7.388 -0.0411 -1.3986 -1.0903
  560MOL0     H73907   3.857   8.607   7.365  1.6573  1.1829 -1.0698
  560MOL0     H73908   4.311   8.691   6.919  1.1678  1.6755 -0.8136
  560MOL0     H73909   4.543   8.731   6.993  0.2066  1.7326 -0.6763
  560MOL0     H73910   4.728   8.883   7.131 -0.0525  0.2471  0.4195
  560MOL0     H73911   4.721   8.714   7.081  0.8231 -0.0541  0.1725
  560MOL0     H73912   4.834   8.679   7.320  0.9517 -0.2400 -0.1576
  560MOL0     H73913   4.930   8.702   7.174 -0.6682 -1.7243  0.2987
  560MOL0     H73914   4.834   8.920   7.373 -1.0568  1.1890 -0.2654
  560MOL0     H73915   4.964   8.952   7.254 -0.1681  1.3707  1.4492
  560MOL0     H73916   5.048   8.875   7.505 -2.0354 -1.3755  0.1321
  560MOL0     H73917   4.989   8.724   7.452 -3.1869  1.2744  0.8032
  560MOL0     H73918   5.362   8.754   7.242  0.3893  1.4337  0.4254
  560MOL0     H73919   4.398   8.747   7.402  2.1162 -1.0145  0.2600
  560MOL0     H73920   4.177   8.720   7.329  0.8956 -1.4533  1.6445
  561MOL0     O73921   5.275   6.332   6.377 -0.3719  0.4486  0.3853
  561MOL0     C73922   5.328   6.270   6.284 -0.3238  0.0756  0.5834
  561MOL0     O73923   5.263   6.206   6.180 -0.1404  0.2481 -0.7621
  561MOL0     C73924   5.126   6.202   6.193  0.2296 -0.4912  0.5567
  561MOL0     C73925   5.069   6.113   6.288 -1.0527 -0.0393 -0.1469
  561MOL0     C73926   4.933   6.083   6.280  0.3738  0.0267 -0.2171
  561MOL0     C73927   4.853   6.147   6.183 -0.1421  0.8276  0.0495
  561MOL0     O73928   4.719   6.119   6.187  0.7153 -0.3427  0.0741
  561MOL0     C73929   4.658   6.151   6.318  0.3217 -0.1221  0.7021
  561MOL0     C73930   4.543   6.050   6.343 -0.7168 -0.2664 -0.3663
  561MOL0     C73931   4.444   6.026   6.237  0.1204 -0.2341  0.3627
  561MOL0     C73932   4.402   6.155   6.165  0.9319 -0.1826  0.0490
  561MOL0     C73933   4.264   6.128   6.098  0.5931 -0.2857  0.1143
  561MOL0     C73934   4.220   6.251   6.025 -1.3573 -0.1050 -0.1972
  561MOL0     C73935   4.086   6.241   5.955  0.0333  0.5166  0.0465
  561MOL0     C73936   3.977   6.185   6.033  0.3237  0.4019 -0.6164
  561MOL0     N73937   3.913   6.276   6.134  0.2308 -0.6869 -0.2349
  561MOL0     C73938   3.954   6.295   6.266  0.0931 -0.3433 -0.6792
  561MOL0     C73939   3.843   6.351   6.327 -0.0101  0.1026 -0.1828
  561MOL0     C73940   3.824   6.377   6.474 -0.0489 -0.2349  0.2818
  561MOL0     C73941   3.880   6.517   6.491 -0.2737 -0.7952  0.2779
  561MOL0     C73942   3.881   6.558   6.640  0.0476 -0.6383 -0.2270
  561MOL0     C73943   3.961   6.690   6.647  0.2690  1.0930 -0.0210
  561MOL0     O73944   4.102   6.648   6.656  0.8709  0.4690 -0.5747
  561MOL0     C73945   4.200   6.743   6.644 -0.7057  0.0214  0.4976
  561MOL0     C73946   4.184   6.879   6.618  0.3487 -0.1330  0.9620
  561MOL0     C73947   4.293   6.972   6.607 -0.3434  0.7700  0.3643
  561MOL0     C73948   4.422   6.920   6.634  0.9893  0.5338  0.0625
  561MOL0     C73949   4.537   7.019   6.645  0.6129  0.0731 -0.4342
  561MOL0     O73950   4.665   6.959   6.637 -0.1051 -0.1132  0.5653
  561MOL0     C73951   4.774   7.051   6.641  0.1367  0.3492  1.6662
  561MOL0     C73952   4.809   7.134   6.535  0.0723 -0.2741  0.1012
  561MOL0     C73953   4.936   7.198   6.530 -0.2237 -0.2186  1.3568
  561MOL0     C73954   5.027   7.168   6.630  0.0383 -0.0011 -0.2389
  561MOL0     O73955   5.160   7.201   6.605  0.5266  0.0696  0.2972
  561MOL0     C73956   5.187   7.341   6.643  0.0803  0.1671  0.2780
  561MOL0     C73957   5.345   7.363   6.642 -0.2080  0.9464  0.3955
  561MOL0     C73958   5.412   7.303   6.764  0.3664  0.2564 -0.4229
  561MOL0     C73959   5.567   7.293   6.756 -0.0952  0.2828 -0.3879
  561MOL0     C73960   5.635   7.403   6.842  1.0948  0.2380 -0.0895
  561MOL0     C73961   5.783   7.365   6.870 -0.0609 -0.6810  0.8209
  561MOL0     C73962   5.850   7.453   6.973 -0.4539 -0.1195 -0.8136
  561MOL0     C73963   5.822   7.385   7.114 -0.4288 -0.5228  0.3609
  561MOL0    Cl73964   5.936   7.451   7.228 -0.1815 -0.1747  0.3340
  561MOL0     C73965   4.981   7.095   6.741 -0.0579  0.2486 -0.8064
  561MOL0     C73966   4.850   7.048   6.749  0.2610  0.0180 -0.3763
  561MOL0     O73967   4.514   7.140   6.667 -0.2852 -0.3931 -0.2393
  561MOL0     C73968   4.439   6.780   6.668 -0.3264 -0.2996 -0.1055
  561MOL0     C73969   4.330   6.697   6.663 -0.2067 -0.1220 -0.0247
  561MOL0     N73970   3.741   6.372   6.234 -0.4356 -0.8921 -0.5422
  561MOL0     N73971   3.786   6.332   6.124 -0.5036 -0.4704 -0.0434
  561MOL0     C73972   4.912   6.237   6.093  0.3726 -0.8916  0.4475
  561MOL0     C73973   5.051   6.261   6.089 -0.1764  0.0159 -0.0728
  561MOL0     C73974   5.471   6.277   6.288  0.1727  0.5084 -0.7518
  561MOL0     C73975   5.537   6.367   6.362 -0.0496 -0.5322 -0.5656
  561MOL0     C73976   5.674   6.382   6.352  0.3073  0.3016 -0.2058
  561MOL0     C73977   5.742   6.304   6.262 -0.6565  0.6877  0.4387
  561MOL0     O73978   5.874   6.322   6.224 -0.0119  0.7034  0.2476
  561MOL0     C73979   5.957   6.367   6.334 -0.0040  0.0332  1.0245
  561MOL0     C73980   6.097   6.324   6.307  1.1343 -1.0464  0.7001
  561MOL0     C73981   6.105   6.177   6.334 -0.4914  0.0642 -0.2128
  561MOL0     C73982   6.138   6.159   6.480 -1.2300 -0.2218 -0.7146
  561MOL0     C73983   6.119   6.013   6.515 -0.1369 -0.4385 -0.6262
  561MOL0     C73984   6.112   5.908   6.576  0.3287 -0.8291  0.0254
  561MOL0     C73985   5.677   6.204   6.190  0.6709 -0.6853 -0.2408
  561MOL0     C73986   5.535   6.197   6.206 -0.2368 -0.3314 -0.1984
  561MOL0     H73987   5.132   6.054   6.353 -0.2889  0.8527 -0.0560
  561MOL0     H73988   4.884   6.005   6.337  0.4102 -0.4645 -0.8503
  561MOL0     H73989   4.615   6.251   6.304 -0.9258 -0.8184 -0.7283
  561MOL0     H73990   4.735   6.169   6.393  2.3022  0.5091 -1.3611
  561MOL0     H73991   4.492   6.089   6.431  0.3136  1.2923 -0.4128
  561MOL0     H73992   4.592   5.956   6.370  0.6174  0.8296  1.3171
  561MOL0     H73993   4.357   5.962   6.260 -1.6878  0.9950 -2.4750
  561MOL0     H73994   4.489   5.964   6.159 -3.3732  0.6563 -2.6504
  561MOL0     H73995   4.393   6.233   6.242 -2.4313 -0.3309 -0.0288
  561MOL0     H73996   4.476   6.178   6.088  1.0344  0.8983  0.4457
  561MOL0     H73997   4.191   6.100   6.174 -0.2156 -3.3074 -1.6408
  561MOL0     H73998   4.268   6.044   6.028 -1.3315  0.9300 -1.5649
  561MOL0     H73999   4.301   6.286   5.960 -0.2434 -1.4973  0.3656
  561MOL0     H74000   4.208   6.331   6.099 -1.6936 -1.2950  1.0899
  561MOL0     H74001   4.062   6.341   5.917  1.1821 -0.0791 -2.4534
  561MOL0     H74002   4.102   6.176   5.869 -0.6508  0.5081 -0.0810
  561MOL0     H74003   4.007   6.094   6.086  1.3765  1.3509  0.4843
  561MOL0     H74004   3.904   6.150   5.960 -1.4516  1.6088  0.5126
  561MOL0     H74005   4.044   6.253   6.310 -0.1557  0.3519  0.5538
  561MOL0     H74006   3.890   6.305   6.525  1.5130  1.5808  0.9360
  561MOL0     H74007   3.719   6.362   6.500 -0.2779  1.6733  0.5654
  561MOL0     H74008   3.815   6.587   6.437  0.3353 -0.3941  0.0532
  561MOL0     H74009   3.983   6.520   6.454  0.7371  0.8422  2.9284
  561MOL0     H74010   3.776   6.572   6.667 -0.6964 -0.9137 -2.7805
  561MOL0     H74011   3.929   6.480   6.701  0.0849 -0.9719 -0.6819
  561MOL0     H74012   3.936   6.756   6.732  1.9503 -0.6159  1.9236
  561MOL0     H74013   3.947   6.749   6.556 -1.0569  1.4682  0.4080
  561MOL0     H74014   4.085   6.922   6.607  0.4074 -0.3879 -1.1135
  561MOL0     H74015   4.281   7.073   6.571 -1.0857  0.3811 -0.5236
  561MOL0     H74016   4.751   7.151   6.445  0.8138  1.3294 -0.0985
  561MOL0     H74017   4.977   7.253   6.447  0.6008  1.4199  2.8033
  561MOL0     H74018   5.157   7.372   6.743  1.1103  2.9056 -0.1790
  561MOL0     H74019   5.139   7.407   6.569 -1.7095 -0.6436  0.6689
  561MOL0     H74020   5.373   7.465   6.615  1.4629  0.2667 -0.5912
  561MOL0     H74021   5.391   7.308   6.560  1.1761  0.0972  1.6832
  561MOL0     H74022   5.367   7.212   6.803  0.0327  0.9276  0.8213
  561MOL0     H74023   5.378   7.378   6.836 -0.5126  4.3010 -4.5295
  561MOL0     H74024   5.603   7.196   6.793  1.1890  0.1297 -1.9410
  561MOL0     H74025   5.601   7.294   6.652  0.3049 -1.7619 -0.3136
  561MOL0     H74026   5.588   7.410   6.940  1.9814  1.3710  0.2755
  561MOL0     H74027   5.624   7.502   6.797 -0.4784 -1.0570 -2.8156
  561MOL0     H74028   5.838   7.375   6.777 -0.7507  0.9914  0.5471
  561MOL0     H74029   5.794   7.261   6.904 -0.5324 -0.9381  0.2031
  561MOL0     H74030   5.953   7.430   6.944 -0.7561 -0.6515 -1.4890
  561MOL0     H74031   5.828   7.560   6.968 -0.6004 -0.1511 -0.8626
  561MOL0     H74032   5.830   7.276   7.114  0.2915 -0.4780 -0.3106
  561MOL0     H74033   5.719   7.417   7.133 -1.4402 -0.3983 -4.1807
  561MOL0     H74034   5.044   7.074   6.826 -0.2624  0.8567 -0.5016
  561MOL0     H74035   4.820   6.986   6.833  0.3712  0.2307 -0.1760
  561MOL0     H74036   4.531   6.735   6.703 -0.8623 -1.8690 -0.6619
  561MOL0     H74037   4.354   6.591   6.664  1.3628  0.1803 -1.0926
  561MOL0     H74038   4.860   6.293   6.015  3.5069 -0.3708 -1.4491
  561MOL0     H74039   5.094   6.327   6.014  3.1130 -1.4901  0.3057
  561MOL0     H74040   5.487   6.427   6.437  3.0636  1.8954 -0.2520
  561MOL0     H74041   5.720   6.462   6.409  1.0220 -1.1451  1.3250
  561MOL0     H74042   5.920   6.327   6.429 -0.7921  2.1402  1.6736
  561MOL0     H74043   5.948   6.476   6.341  1.3968  0.2827 -0.4301
  561MOL0     H74044   6.130   6.339   6.204 -0.7889  0.7860  0.2724
  561MOL0     H74045   6.167   6.378   6.371  0.8049 -2.3353  2.2275
  561MOL0     H74046   6.191   6.145   6.274  1.3650  2.4034  1.0092
  561MOL0     H74047   6.010   6.131   6.306 -0.6342  1.6665 -2.7225
  561MOL0     H74048   6.238   6.200   6.500 -1.1675 -0.0473 -1.3720
  561MOL0     H74049   6.074   6.212   6.551 -0.6895 -0.3976 -0.0855
  561MOL0     H74050   6.114   5.817   6.632 -1.6591 -0.3338  0.9918
  561MOL0     H74051   5.727   6.143   6.114 -0.1869 -1.2294 -0.3873
  561MOL0     H74052   5.485   6.119   6.150 -1.6732  0.3783  0.0253
  562MOL0     O74053   1.659   1.942  10.356 -0.5661  1.1823 -0.3325
  562MOL0     C74054   1.698   2.055  10.324 -0.4534 -0.1903 -0.2506
  562MOL0     O74055   1.617   2.161  10.315  0.4811  0.2437 -0.1644
  562MOL0     C74056   1.490   2.136  10.304  1.3592  0.5326 -0.2798
  562MOL0     C74057   1.423   2.142  10.180 -0.6008  0.1143  0.5994
  562MOL0     C74058   1.284   2.122  10.168  0.3747 -0.1896  0.1640
  562MOL0     C74059   1.209   2.097  10.287 -0.1926 -0.7275  0.0827
  562MOL0     O74060   1.077   2.087  10.284  0.4850 -0.6815  0.4797
  562MOL0     C74061   0.996   2.098  10.164 -0.5326  0.4984  0.1275
  562MOL0     C74062   0.853   2.087  10.209 -0.5570  0.3240  0.6583
  562MOL0     C74063   0.767   2.095  10.074  0.2689 -0.5492 -0.8974
  562MOL0     C74064   0.620   2.081  10.119 -0.2042  0.0765  1.1750
  562MOL0     C74065   0.524   2.104  10.003  0.5772 -0.5837 -0.3263
  562MOL0     C74066   0.376   2.118  10.063 -1.1570  0.6116  0.7408
  562MOL0     C74067   0.279   2.104   9.952  0.7666 -0.1860  0.0582
  562MOL0     C74068   0.130   2.102   9.999  0.1019  0.3862 -1.0258
  562MOL0     N74069   0.039   2.065   9.890 -0.2370  0.6001 -1.2046
  562MOL0     C74070   0.042   1.932   9.839 -0.1748  0.0685 -0.0908
  562MOL0     C74071  -0.025   1.946   9.725 -0.2806  0.3445 -0.6910
  562MOL0     C74072  -0.055   1.837   9.631  0.0635  0.3244 -0.2641
  562MOL0     C74073  -0.192   1.787   9.658  0.6296 -0.5328 -0.5108
  562MOL0     C74074  -0.231   1.691   9.546 -0.4889  0.4810 -0.3811
  562MOL0     C74075  -0.345   1.592   9.592  0.5135 -0.2065  0.1440
  562MOL0     O74076  -0.374   1.491   9.492 -0.4128 -0.5161  0.2571
  562MOL0     C74077  -0.450   1.527   9.384 -0.2763 -1.0212  0.0816
  562MOL0     C74078  -0.412   1.490   9.257 -0.2104  0.0202  0.3165
  562MOL0     C74079  -0.489   1.512   9.146 -0.6913 -0.6448 -0.4628
  562MOL0     C74080  -0.604   1.579   9.151  0.7091 -0.6113 -0.0367
  562MOL0     C74081  -0.690   1.597   9.028  0.3020 -0.2419 -0.6498
  562MOL0     O74082  -0.787   1.689   9.031  0.4314 -0.2460 -0.2790
  562MOL0     C74083  -0.897   1.684   8.957  0.6462  0.2907 -0.5402
  562MOL0     C74084  -0.952   1.556   8.919  0.1483  0.1158  0.5079
  562MOL0     C74085  -1.064   1.553   8.835 -0.0703 -0.5884  0.0713
  562MOL0     C74086  -1.130   1.676   8.803  0.3756 -0.1879 -0.3425
  562MOL0     O74087  -1.244   1.690   8.731 -0.5138 -0.3904 -0.5280
  562MOL0     C74088  -1.240   1.610   8.611 -0.0642  0.6424  0.4491
  562MOL0     C74089  -1.363   1.613   8.515  0.8441  0.1554  0.5192
  562MOL0     C74090  -1.485   1.535   8.566 -0.8775 -0.4081  0.3623
  562MOL0     C74091  -1.597   1.531   8.456  0.0933 -0.0289  0.6388
  562MOL0     C74092  -1.732   1.477   8.518  0.2544 -0.6033  0.4510
  562MOL0     C74093  -1.805   1.584   8.599 -0.3678 -0.5839  0.4614
  562MOL0     C74094  -1.913   1.516   8.687 -0.1227  0.4440  0.5222
  562MOL0     C74095  -1.995   1.617   8.753 -0.4468  0.2993 -0.9082
  562MOL0    Cl74096  -2.170   1.626   8.699  0.0106  0.1021  0.1028
  562MOL0     C74097  -1.069   1.799   8.840  0.4766 -0.8375 -0.1812
  562MOL0     C74098  -0.963   1.810   8.921 -0.3662  1.0283 -0.3375
  562MOL0     O74099  -0.661   1.527   8.930 -0.4208 -0.1107 -0.7778
  562MOL0     C74100  -0.644   1.626   9.278  0.4024  0.4333 -0.1633
  562MOL0     C74101  -0.565   1.602   9.396 -0.5663  0.2092  0.3360
  562MOL0     N74102  -0.071   2.074   9.724 -0.6017  0.0199  1.0229
  562MOL0     N74103  -0.035   2.148   9.820  0.4520 -0.4064  0.0950
  562MOL0     C74104   1.278   2.097  10.411  1.3120  0.4092 -0.0761
  562MOL0     C74105   1.418   2.105  10.420  0.1545  0.0469  0.4176
  562MOL0     C74106   1.848   2.077  10.332  0.5403  0.4798  0.2746
  562MOL0     C74107   1.911   2.201  10.342  0.0810 -0.1336 -0.9808
  562MOL0     C74108   2.049   2.208  10.368  0.0207  0.2740  0.3583
  562MOL0     C74109   2.128   2.090  10.387 -0.1946 -0.1878  0.4916
  562MOL0     O74110   2.263   2.107  10.408 -0.2917 -0.3258 -0.8553
  562MOL0     C74111   2.342   2.001  10.463 -0.6429  0.2224  0.1436
  562MOL0     C74112   2.465   1.980  10.367 -0.2636  1.3784  0.3849
  562MOL0     C74113   2.564   2.102  10.355  0.4873  0.5780  0.7787
  562MOL0     C74114   2.677   2.068  10.266  0.1424 -0.5502  0.2241
  562MOL0     C74115   2.765   2.183  10.256 -0.4983 -0.5390 -0.0011
  562MOL0     C74116   2.844   2.276  10.238  0.6152 -0.4116 -0.3507
  562MOL0     C74117   2.060   1.965  10.377 -0.4622  0.0578  0.4051
  562MOL0     C74118   1.928   1.963  10.346 -0.7816  0.7242 -0.0385
  562MOL0     H74119   1.482   2.173  10.095  2.6998 -2.0037  1.9249
  562MOL0     H74120   1.231   2.125  10.073  0.7440 -0.8045 -0.0718
  562MOL0     H74121   1.016   2.008  10.105 -1.1875  0.2160  0.3294
  562MOL0     H74122   1.018   2.192  10.113  0.2250  0.8910  1.1417
  562MOL0     H74123   0.822   2.170  10.273  3.0186  2.1506  0.2412
  562MOL0     H74124   0.838   1.993  10.263  3.4724 -0.3202  0.9745
  562MOL0     H74125   0.805   2.018  10.007  0.2981  0.4310 -2.0351
  562MOL0     H74126   0.787   2.188  10.020 -1.5828 -0.2827 -1.1825
  562MOL0     H74127   0.601   1.979  10.153 -0.2853 -0.6690 -0.9448
  562MOL0     H74128   0.602   2.155  10.197  2.0563  3.8812 -1.5311
  562MOL0     H74129   0.526   2.011   9.945  2.6149 -0.2546 -0.8458
  562MOL0     H74130   0.549   2.189   9.940  1.6145  0.7480  1.7649
  562MOL0     H74131   0.358   2.207  10.125  2.2229  1.7376  0.3163
  562MOL0     H74132   0.366   2.044  10.143 -0.5660 -2.6298 -1.9646
  562MOL0     H74133   0.291   2.190   9.884  0.1683  0.9592  1.3514
  562MOL0     H74134   0.293   2.013   9.893 -2.7691 -0.9826  0.2406
  562MOL0     H74135   0.110   2.202  10.039 -0.4997 -0.2414  0.3281
  562MOL0     H74136   0.123   2.037  10.087  2.3202  0.9695 -0.3741
  562MOL0     H74137   0.096   1.848   9.879  0.0995  0.0138 -0.5645
  562MOL0     H74138   0.021   1.760   9.639  0.1046  0.0962 -2.2482
  562MOL0     H74139  -0.056   1.851   9.522 -1.3563 -4.2540 -1.0570
  562MOL0     H74140  -0.263   1.869   9.653  1.3136  0.0890 -0.2950
  562MOL0     H74141  -0.188   1.732   9.753  2.7551 -1.6132 -1.1603
  562MOL0     H74142  -0.270   1.749   9.461 -0.2695  1.6913  0.3269
  562MOL0     H74143  -0.146   1.633   9.509 -1.3660  0.6438 -2.8997
  562MOL0     H74144  -0.433   1.649   9.624 -0.3702 -1.6695  0.4414
  562MOL0     H74145  -0.314   1.535   9.679 -1.2683 -0.3809  0.7137
  562MOL0     H74146  -0.320   1.437   9.236  0.7305  1.1102  1.5540
  562MOL0     H74147  -0.453   1.488   9.047  0.3774 -1.3176  0.0642
  562MOL0     H74148  -0.909   1.461   8.949  0.8749 -0.0249 -0.8842
  562MOL0     H74149  -1.110   1.457   8.813  0.9519 -1.1777  0.4514
  562MOL0     H74150  -1.210   1.506   8.632  0.9476  0.6411 -0.8658
  562MOL0     H74151  -1.154   1.646   8.555 -0.8518  1.7788 -0.0578
  562MOL0     H74152  -1.332   1.571   8.419  0.4864  2.2094 -0.5479
  562MOL0     H74153  -1.385   1.714   8.481 -0.2765  0.9043  3.2052
  562MOL0     H74154  -1.524   1.579   8.658 -2.6516 -2.1920  0.5529
  562MOL0     H74155  -1.451   1.433   8.584  0.8254  0.0517 -0.1176
  562MOL0     H74156  -1.615   1.629   8.411  0.5198 -0.5616 -0.7622
  562MOL0     H74157  -1.561   1.465   8.376  1.3335 -1.8955  2.6109
  562MOL0     H74158  -1.706   1.390   8.578  0.7824 -0.1739  0.8499
  562MOL0     H74159  -1.809   1.448   8.446  0.1681 -0.5247  0.5108
  562MOL0     H74160  -1.856   1.653   8.531  1.8536  0.4286 -0.2802
  562MOL0     H74161  -1.742   1.640   8.669 -1.7020  2.0181 -0.2713
  562MOL0     H74162  -1.977   1.469   8.613  0.2255  1.3507 -0.3705
  562MOL0     H74163  -1.867   1.436   8.746  2.8993 -0.1476 -2.3578
  562MOL0     H74164  -1.950   1.716   8.736 -1.2168  0.7041 -0.6339
  562MOL0     H74165  -1.982   1.605   8.861 -0.0877  2.0295 -0.7322
  562MOL0     H74166  -1.107   1.890   8.795  1.3531 -0.3753 -0.0054
  562MOL0     H74167  -0.923   1.906   8.954  0.4975  2.0623 -3.9308
  562MOL0     H74168  -0.735   1.684   9.283  0.7657  0.9309  1.0477
  562MOL0     H74169  -0.592   1.633   9.497  0.6857 -1.3512  1.2017
  562MOL0     H74170   1.227   2.086  10.506  1.6719  0.6139  0.1404
  562MOL0     H74171   1.466   2.105  10.517  1.0292  1.2168  0.0019
  562MOL0     H74172   1.859   2.297  10.342  0.2017  0.0367  2.2135
  562MOL0     H74173   2.105   2.301  10.372 -1.8604  1.6204 -2.0067
  562MOL0     H74174   2.281   1.911  10.482 -0.2692 -0.4757 -1.7375
  562MOL0     H74175   2.374   2.025  10.564 -0.7109  0.0683  0.2027
  562MOL0     H74176   2.511   1.884  10.392 -1.1784  0.9971  0.6469
  562MOL0     H74177   2.413   1.977  10.271 -3.3288 -1.1628  1.9473
  562MOL0     H74178   2.608   2.122  10.454  1.0366 -0.7939  0.8473
  562MOL0     H74179   2.505   2.188  10.324 -2.6426 -1.8057 -0.4012
  562MOL0     H74180   2.729   1.975  10.290  1.2375  0.0567  0.2832
  562MOL0     H74181   2.632   2.059  10.167  3.0795 -1.4463 -1.1184
  562MOL0     H74182   2.912   2.359  10.243 -0.0556  0.0869  0.9492
  562MOL0     H74183   2.110   1.869  10.384  2.9315  1.7666  2.4799
  562MOL0     H74184   1.878   1.867  10.336 -0.1291  0.4060 -0.2740
  563MOL0     O74185   4.571   7.984  10.010 -0.2907 -0.5271  0.6490
  563MOL0     C74186   4.466   7.973  10.068  0.6156  0.6478 -0.1070
  563MOL0     O74187   4.445   7.944  10.201 -0.0026  0.0627  0.0509
  563MOL0     C74188   4.562   7.937  10.274 -0.3978 -0.2219  0.2521
  563MOL0     C74189   4.599   8.041  10.365  0.0040  0.4427 -0.5114
  563MOL0     C74190   4.710   8.027  10.455  0.5914  0.0501  0.0666
  563MOL0     C74191   4.806   7.929  10.430 -0.2403  0.3310 -0.8406
  563MOL0     O74192   4.923   7.936  10.504 -0.0205 -0.5829 -0.0324
  563MOL0     C74193   5.021   7.833  10.485  1.2929  0.3494 -0.8280
  563MOL0     C74194   5.155   7.876  10.545 -0.5809  0.3500 -0.6040
  563MOL0     C74195   5.209   7.999  10.466  1.4526  0.5006  0.4073
  563MOL0     C74196   5.354   8.027  10.482 -0.1282  0.7418 -0.6157
  563MOL0     C74197   5.399   8.052  10.630 -0.1081 -0.0027 -0.2120
  563MOL0     C74198   5.336   8.174  10.700 -0.5733  0.5491  0.7022
  563MOL0     C74199   5.414   8.208  10.825  0.1425  0.3282  0.2490
  563MOL0     C74200   5.356   8.321  10.902 -0.1079 -0.0024  0.0363
  563MOL0     N74201   5.211   8.294  10.949 -0.3729  0.2434  0.2338
  563MOL0     C74202   5.098   8.370  10.928 -0.2345  0.1760  0.5388
  563MOL0     C74203   4.986   8.306  10.985 -0.2986  0.2820 -0.5479
  563MOL0     C74204   4.838   8.335  10.986 -1.3564  0.6994 -0.1354
  563MOL0     C74205   4.789   8.358  10.838  0.1896  0.6057 -0.2562
  563MOL0     C74206   4.638   8.334  10.817  0.6190  0.0317 -0.8914
  563MOL0     C74207   4.551   8.411  10.920 -0.8622 -0.5782  0.2924
  563MOL0     O74208   4.420   8.434  10.867 -0.1936 -1.0305  0.1245
  563MOL0     C74209   4.343   8.322  10.875  0.3222  0.0810  1.0762
  563MOL0     C74210   4.322   8.252  10.992  0.4213  0.5048 -0.5396
  563MOL0     C74211   4.217   8.159  11.002  0.8369 -0.0177  0.5349
  563MOL0     C74212   4.129   8.136  10.884 -0.1010 -0.1048 -0.3259
  563MOL0     C74213   4.013   8.038  10.902  0.0455  0.0602 -0.3066
  563MOL0     O74214   3.932   8.025  10.794  0.1106  0.1719  0.4481
  563MOL0     C74215   3.814   7.959  10.819  0.9983 -0.2473  0.7924
  563MOL0     C74216   3.718   8.011  10.905 -0.5748  0.1308 -0.6858
  563MOL0     C74217   3.599   7.937  10.920 -0.2133 -0.4228  0.2283
  563MOL0     C74218   3.565   7.824  10.836  0.1816 -0.6618 -0.4361
  563MOL0     O74219   3.442   7.764  10.870 -1.2149 -0.3860 -0.4864
  563MOL0     C74220   3.403   7.645  10.796  0.1353  0.8642 -0.5792
  563MOL0     C74221   3.264   7.605  10.833 -0.1720 -1.0876  0.0636
  563MOL0     C74222   3.220   7.471  10.770  0.7087 -0.2654  1.1626
  563MOL0     C74223   3.070   7.436  10.803  0.1756 -0.2745 -0.1779
  563MOL0     C74224   3.050   7.284  10.794 -0.2164  0.1651  0.4836
  563MOL0     C74225   2.905   7.241  10.812  0.1468 -0.6185  0.2507
  563MOL0     C74226   2.882   7.105  10.762 -0.2073 -0.1483 -0.0082
  563MOL0     C74227   2.730   7.061  10.754 -0.2740  0.4383  1.2500
  563MOL0    Cl74228   2.699   6.895  10.693 -0.1739 -0.0515  0.0993
  563MOL0     C74229   3.662   7.774  10.748  0.5969  0.1177  0.2266
  563MOL0     C74230   3.787   7.845  10.740 -0.1999  0.3672  0.3621
  563MOL0     O74231   3.987   7.999  11.022 -0.3634 -0.1643 -0.3550
  563MOL0     C74232   4.158   8.198  10.763  0.0122  0.2975  0.5878
  563MOL0     C74233   4.262   8.296  10.766  0.5702  0.2362  0.8460
  563MOL0     N74234   5.036   8.187  11.031 -0.0392  0.2259  0.7579
  563MOL0     N74235   5.164   8.179  11.007 -0.8470  0.0146  0.0441
  563MOL0     C74236   4.768   7.828  10.337 -0.0269 -0.7772  0.3505
  563MOL0     C74237   4.654   7.832  10.258  0.9875  0.3346  0.3425
  563MOL0     C74238   4.342   7.998   9.996  1.1608 -0.3771 -0.2510
  563MOL0     C74239   4.334   8.091   9.888 -0.1272 -0.1088 -0.1529
  563MOL0     C74240   4.206   8.104   9.819 -1.2329 -0.4355 -0.3928
  563MOL0     C74241   4.090   8.032   9.869  0.3002  0.6054  0.0548
  563MOL0     O74242   3.968   8.051   9.808  0.0814  0.0647  0.5453
  563MOL0     C74243   3.947   8.176   9.737 -0.0463 -0.1276 -0.2152
  563MOL0     C74244   3.797   8.197   9.714 -0.1272  0.5612  0.6348
  563MOL0     C74245   3.718   8.215   9.840  0.0503 -0.5704  0.7222
  563MOL0     C74246   3.719   8.355   9.901  0.2395 -0.2838 -0.1090
  563MOL0     C74247   3.628   8.366  10.020 -0.1297 -0.4217  0.3747
  563MOL0     C74248   3.554   8.402  10.112  0.5653  0.0917 -0.7599
  563MOL0     C74249   4.103   7.948   9.977 -0.2921  0.3390  0.0213
  563MOL0     C74250   4.225   7.932  10.040  0.2348  0.4510  0.2465
  563MOL0     H74251   4.531   8.121  10.394 -0.1838 -0.1578  0.7989
  563MOL0     H74252   4.738   8.088  10.540 -1.1384 -0.5414  1.1012
  563MOL0     H74253   5.038   7.818  10.378  2.6429  1.5071 -0.8107
  563MOL0     H74254   4.983   7.742  10.532  0.4549  0.9032 -0.4023
  563MOL0     H74255   5.227   7.794  10.546 -0.1850  0.6361 -2.0841
  563MOL0     H74256   5.140   7.894  10.652  2.2974 -3.2356  0.6087
  563MOL0     H74257   5.154   8.079  10.517  0.8097 -0.4219  1.2018
  563MOL0     H74258   5.183   8.001  10.360 -0.4354 -0.6172  0.7953
  563MOL0     H74259   5.407   7.939  10.443  0.0563  0.8211 -0.5497
  563MOL0     H74260   5.381   8.104  10.410  1.0634 -0.3560 -1.3866
  563MOL0     H74261   5.506   8.072  10.638 -0.5660  2.5689  0.5233
  563MOL0     H74262   5.395   7.953  10.676  0.7591 -0.1621 -0.4640
  563MOL0     H74263   5.233   8.148  10.728 -0.1732 -1.4730  0.4596
  563MOL0     H74264   5.323   8.260  10.634 -0.0336 -2.1682 -3.3197
  563MOL0     H74265   5.413   8.119  10.889 -0.1544  1.6510  2.1567
  563MOL0     H74266   5.519   8.216  10.795 -0.9252  1.9914 -3.6851
  563MOL0     H74267   5.357   8.418  10.850  0.0838 -0.0114  0.0206
  563MOL0     H74268   5.420   8.331  10.989 -0.8510  0.9968  0.4895
  563MOL0     H74269   5.073   8.462  10.875 -3.1102  0.0950  1.6142
  563MOL0     H74270   4.818   8.414  11.059  0.0965  0.8100  0.1696
  563MOL0     H74271   4.790   8.242  11.019 -1.7677  0.3599 -1.6172
  563MOL0     H74272   4.835   8.287  10.769  1.0581 -0.1664  1.0789
  563MOL0     H74273   4.828   8.455  10.806  0.0232  0.8286  0.2058
  563MOL0     H74274   4.610   8.350  10.712 -3.0951 -1.1930 -0.2500
  563MOL0     H74275   4.608   8.229  10.829  1.2231  0.1099  1.6604
  563MOL0     H74276   4.595   8.509  10.938  1.1715 -1.2566 -0.7235
  563MOL0     H74277   4.556   8.362  11.017 -2.1248 -0.9779  0.1741
  563MOL0     H74278   4.380   8.282  11.079 -2.0122 -0.3357  1.5137
  563MOL0     H74279   4.195   8.111  11.097 -3.3314  0.8191  0.1673
  563MOL0     H74280   3.734   8.102  10.961  0.4356 -0.9011  0.7528
  563MOL0     H74281   3.522   7.969  10.990  0.6443  3.9460 -0.5069
  563MOL0     H74282   3.461   7.562  10.838 -0.4866  0.9123  0.4120
  563MOL0     H74283   3.426   7.650  10.689  2.2284 -3.1910 -0.5192
  563MOL0     H74284   3.195   7.688  10.815 -0.0164 -0.9362  0.1536
  563MOL0     H74285   3.266   7.596  10.942 -2.1905  1.3768  0.4122
  563MOL0     H74286   3.288   7.391  10.800 -0.4526 -1.0521  1.7735
  563MOL0     H74287   3.226   7.478  10.661 -1.3721  1.9295  1.1045
  563MOL0     H74288   3.041   7.462  10.906 -2.6030 -0.8528 -0.7188
  563MOL0     H74289   3.009   7.494  10.733  0.3387  0.7939  0.5497
  563MOL0     H74290   3.119   7.236  10.863  0.8487 -0.6747 -1.1051
  563MOL0     H74291   3.090   7.248  10.699  1.1215 -2.7053  2.0066
  563MOL0     H74292   2.839   7.308  10.757  1.0163  1.1419  1.2839
  563MOL0     H74293   2.890   7.265  10.917  1.4051  1.7088 -0.0516
  563MOL0     H74294   2.922   7.087  10.662  0.7317 -2.5130  0.7133
  563MOL0     H74295   2.935   7.033  10.826 -0.3138 -0.7677 -0.6002
  563MOL0     H74296   2.670   7.133  10.697  3.2765  1.5501 -1.4861
  563MOL0     H74297   2.688   7.057  10.855 -2.8126 -0.5354  0.2629
  563MOL0     H74298   3.645   7.677  10.704  0.1252 -1.6353  3.8922
  563MOL0     H74299   3.857   7.817  10.662 -0.8101  0.7131 -0.3287
  563MOL0     H74300   4.102   8.186  10.671  0.4178 -1.0354  0.4853
  563MOL0     H74301   4.260   8.355  10.674  0.0925 -1.1907 -0.0850
  563MOL0     H74302   4.834   7.743  10.328 -0.0533 -0.5715 -2.7191
  563MOL0     H74303   4.636   7.752  10.188  1.8128 -1.0744  1.6786
  563MOL0     H74304   4.419   8.149   9.854 -0.4406  0.6274  0.2847
  563MOL0     H74305   4.199   8.173   9.736 -5.5248  0.3666  0.4311
  563MOL0     H74306   3.997   8.177   9.640 -1.0629 -1.3902 -0.7858
  563MOL0     H74307   3.989   8.252   9.803 -1.2643  1.6547 -1.4066
  563MOL0     H74308   3.773   8.267   9.634 -4.5177 -0.1854  1.0066
  563MOL0     H74309   3.766   8.101   9.671  2.3143  0.6553 -1.5390
  563MOL0     H74310   3.745   8.154   9.926 -1.6467  0.3293  1.9715
  563MOL0     H74311   3.614   8.189   9.818 -0.1383  0.5068  0.2506
  563MOL0     H74312   3.818   8.362   9.947  0.4901 -0.1068 -0.6661
  563MOL0     H74313   3.717   8.435   9.827  2.7358  1.0023  1.0752
  563MOL0     H74314   3.487   8.434  10.190 -0.6003  0.3827 -1.8441
  563MOL0     H74315   4.025   7.881  10.012  0.5549  0.1751  1.6780
  563MOL0     H74316   4.227   7.856  10.117 -2.0302  0.3923  0.3094
  564MOL0     O74317  10.122   4.151   2.401  0.2978 -0.0806  0.6324
  564MOL0     C74318  10.209   4.167   2.309  0.0480 -0.7675 -0.2670
  564MOL0     O74319  10.175   4.214   2.180 -0.5719  0.2123 -0.2305
  564MOL0     C74320  10.044   4.245   2.152 -1.0342 -0.3216 -0.3553
  564MOL0     C74321   9.942   4.149   2.143 -0.3062 -0.0991 -0.1347
  564MOL0     C74322   9.813   4.177   2.097 -0.8364  0.3556 -0.1211
  564MOL0     C74323   9.788   4.310   2.066 -0.8136  0.9065 -0.1425
  564MOL0     O74324   9.664   4.341   2.025 -0.2882  0.1676 -0.0621
  564MOL0     C74325   9.663   4.374   1.887 -0.1852  0.5779  0.4148
  564MOL0     C74326   9.526   4.392   1.842 -0.9487 -0.2550  0.6183
  564MOL0     C74327   9.513   4.488   1.735  0.3134 -0.3103  0.7127
  564MOL0     C74328   9.524   4.638   1.777  0.3820  0.3371 -0.5357
  564MOL0     C74329   9.495   4.727   1.661 -0.2604 -1.3115  1.0574
  564MOL0     C74330   9.513   4.873   1.696  0.3218  0.2106  0.3151
  564MOL0     C74331   9.405   4.930   1.777  0.3158 -0.3097 -0.6293
  564MOL0     C74332   9.444   5.074   1.806 -0.3348 -0.6313  0.1105
  564MOL0     N74333   9.338   5.166   1.853 -1.1071 -0.4847  0.1441
  564MOL0     C74334   9.242   5.148   1.942 -0.4948  0.7510 -1.1264
  564MOL0     C74335   9.177   5.265   1.941  0.0737 -0.6908 -0.9838
  564MOL0     C74336   9.041   5.298   2.017 -0.4180 -0.9433  0.1560
  564MOL0     C74337   9.080   5.368   2.156  0.0059 -0.3261 -0.2905
  564MOL0     C74338   8.953   5.380   2.251  0.1648  0.6504 -0.4036
  564MOL0     C74339   8.858   5.486   2.208  0.1737 -0.4494  0.0839
  564MOL0     O74340   8.751   5.489   2.303 -0.0181 -0.4366  0.1675
  564MOL0     C74341   8.624   5.493   2.256  0.3428 -0.0799  0.2576
  564MOL0     C74342   8.550   5.618   2.255 -0.1257 -0.1556  0.1249
  564MOL0     C74343   8.417   5.627   2.196 -0.4576 -0.3224  0.6543
  564MOL0     C74344   8.349   5.509   2.160  0.1575 -0.4176  0.9896
  564MOL0     C74345   8.214   5.513   2.105 -0.4838  0.7125  0.0981
  564MOL0     O74346   8.146   5.627   2.112 -0.0200 -0.6443 -0.8343
  564MOL0     C74347   8.012   5.623   2.111  0.0610  0.6988 -0.3536
  564MOL0     C74348   7.932   5.599   1.997 -0.6527  0.6932  1.0351
  564MOL0     C74349   7.793   5.585   2.011 -0.0452  0.1399  0.2953
  564MOL0     C74350   7.726   5.597   2.138 -0.0924 -0.1032  0.3674
  564MOL0     O74351   7.592   5.592   2.156 -0.6601 -0.6337  0.1235
  564MOL0     C74352   7.523   5.643   2.034  0.0448 -0.1189 -0.5941
  564MOL0     C74353   7.382   5.687   2.084 -0.5897  0.1622 -0.4102
  564MOL0     C74354   7.311   5.750   1.965  0.0603 -0.6853 -0.0854
  564MOL0     C74355   7.162   5.797   1.998 -0.7693 -0.5657 -0.2907
  564MOL0     C74356   7.084   5.841   1.873  0.3414 -0.4225  0.3214
  564MOL0     C74357   6.983   5.955   1.888 -0.3625  0.6695 -0.1678
  564MOL0     C74358   6.957   6.030   1.761  0.1290 -0.8406  0.0754
  564MOL0     C74359   6.826   6.111   1.765  0.2340 -0.5194 -0.0132
  564MOL0    Cl74360   6.686   6.005   1.775 -0.1537  0.4057  0.0043
  564MOL0     C74361   7.804   5.637   2.244 -0.0505 -0.4319 -0.2736
  564MOL0     C74362   7.941   5.651   2.226  0.0614  0.4712  0.1491
  564MOL0     O74363   8.160   5.406   2.069  0.2010 -0.0445  0.1245
  564MOL0     C74364   8.414   5.383   2.177 -0.2543  0.5679 -0.2346
  564MOL0     C74365   8.547   5.381   2.222 -0.4263 -0.1876 -1.3448
  564MOL0     N74366   9.241   5.355   1.860  0.3628  0.6318  0.0145
  564MOL0     N74367   9.330   5.294   1.796  0.2573  0.9800  0.1912
  564MOL0     C74368   9.889   4.405   2.075 -0.1425 -0.7520 -0.3108
  564MOL0     C74369  10.021   4.373   2.119 -0.3187  0.2494 -0.2643
  564MOL0     C74370  10.361   4.156   2.343 -0.1225 -0.4662  0.9031
  564MOL0     C74371  10.454   4.161   2.241 -0.1700  0.3035 -0.0687
  564MOL0     C74372  10.594   4.172   2.261  0.6871  0.2763 -0.2724
  564MOL0     C74373  10.643   4.172   2.393  0.2874  0.7828  1.4249
  564MOL0     O74374  10.779   4.187   2.405  0.6350 -0.0294 -0.1288
  564MOL0     C74375  10.838   4.216   2.533  0.2751  0.4608 -0.5884
  564MOL0     C74376  10.962   4.301   2.497 -0.1590  0.4579  0.2798
  564MOL0     C74377  11.076   4.217   2.432 -0.4202 -0.2508 -0.5525
  564MOL0     C74378  11.126   4.278   2.300  0.2049 -0.0965 -1.1081
  564MOL0     C74379  11.208   4.397   2.330  0.2717  0.8330  0.1269
  564MOL0     C74380  11.282   4.491   2.353 -0.9636 -0.1368  0.2938
  564MOL0     C74381  10.554   4.143   2.495 -0.4391  0.5163  0.0632
  564MOL0     C74382  10.415   4.140   2.474 -0.0145 -1.0609  0.2166
  564MOL0     H74383   9.969   4.052   2.184 -2.2624 -0.6494 -0.0447
  564MOL0     H74384   9.747   4.092   2.079  0.5544 -1.2230  1.7437
  564MOL0     H74385   9.726   4.305   1.831  1.4333  3.4673 -1.5650
  564MOL0     H74386   9.705   4.475   1.884 -1.2011  1.0330  0.7732
  564MOL0     H74387   9.462   4.420   1.926 -1.4540  1.8423 -0.4036
  564MOL0     H74388   9.487   4.296   1.807  1.8790 -1.4318  0.4034
  564MOL0     H74389   9.415   4.481   1.687  0.4298  2.9557 -0.1955
  564MOL0     H74390   9.579   4.475   1.649 -2.8863 -1.8585 -1.7590
  564MOL0     H74391   9.460   4.665   1.861  3.9103  0.6455  2.2979
  564MOL0     H74392   9.623   4.664   1.816 -0.4885  3.1940 -0.0189
  564MOL0     H74393   9.392   4.712   1.625 -0.2135  1.7078 -0.6721
  564MOL0     H74394   9.555   4.707   1.572  1.0197 -0.3956  1.6957
  564MOL0     H74395   9.521   4.931   1.604  0.7100  2.4361  1.6895
  564MOL0     H74396   9.607   4.869   1.752 -0.7828  0.0544  2.2659
  564MOL0     H74397   9.314   4.923   1.718 -0.5305  0.3744  0.5427
  564MOL0     H74398   9.391   4.869   1.867  1.4632 -3.2208 -2.2742
  564MOL0     H74399   9.480   5.119   1.713  1.8395  1.5730  1.8784
  564MOL0     H74400   9.522   5.065   1.882 -1.3859 -1.4062  1.1340
  564MOL0     H74401   9.221   5.063   2.006 -3.2484  2.3036  0.1997
  564MOL0     H74402   8.991   5.203   2.040  1.2952 -1.5809  1.4263
  564MOL0     H74403   8.974   5.358   1.955 -0.7259 -0.8828  0.5377
  564MOL0     H74404   9.130   5.465   2.148 -1.1853  0.4652  1.2680
  564MOL0     H74405   9.150   5.302   2.208 -0.7245  0.0509  1.2305
  564MOL0     H74406   8.904   5.283   2.258  1.6077 -0.0557  0.2338
  564MOL0     H74407   8.984   5.414   2.350  1.9856  2.3038 -1.4495
  564MOL0     H74408   8.815   5.473   2.108 -4.5020  3.3963  1.1792
  564MOL0     H74409   8.916   5.579   2.203 -0.9116  0.2057 -1.6287
  564MOL0     H74410   8.593   5.714   2.281  0.3501  0.5043 -2.7406
  564MOL0     H74411   8.369   5.723   2.183  1.1663  0.9113  2.9527
  564MOL0     H74412   7.974   5.582   1.898 -1.5178  0.0739  0.7686
  564MOL0     H74413   7.732   5.565   1.923 -1.0254 -2.2631  1.4250
  564MOL0     H74414   7.520   5.565   1.957 -1.8189 -0.9578  0.2611
  564MOL0     H74415   7.583   5.729   2.002 -1.0403  1.3952  1.2683
  564MOL0     H74416   7.396   5.757   2.167 -0.3323 -1.1848  0.7277
  564MOL0     H74417   7.327   5.600   2.121  1.1164 -1.4711 -1.5120
  564MOL0     H74418   7.300   5.674   1.887  0.4642  0.2158 -1.0430
  564MOL0     H74419   7.373   5.831   1.925 -1.2327  0.3307 -0.1021
  564MOL0     H74420   7.104   5.718   2.046 -1.2151  0.0127  0.1391
  564MOL0     H74421   7.176   5.888   2.057 -0.3064  0.1139 -1.4098
  564MOL0     H74422   7.045   5.752   1.822 -2.9377  2.4992 -2.8994
  564MOL0     H74423   7.157   5.881   1.802 -0.3765 -1.7784 -1.2286
  564MOL0     H74424   7.017   6.019   1.970  2.4787  0.7245 -1.2848
  564MOL0     H74425   6.889   5.905   1.913 -0.0387 -0.3438 -0.9427
  564MOL0     H74426   7.035   6.105   1.744  0.0568  0.0160  2.9882
  564MOL0     H74427   6.947   5.964   1.674  2.2278 -0.3312 -0.6186
  564MOL0     H74428   6.820   6.160   1.667 -0.7208  0.0410  0.3092
  564MOL0     H74429   6.827   6.189   1.841 -1.8169  0.9099 -1.3417
  564MOL0     H74430   7.756   5.642   2.342 -0.2827 -0.5207 -0.3820
  564MOL0     H74431   8.001   5.680   2.312 -0.8759  2.2675  0.2523
  564MOL0     H74432   8.366   5.293   2.142  2.1413 -1.3659  1.1078
  564MOL0     H74433   8.585   5.285   2.256 -1.9921  0.5011  3.0053
  564MOL0     H74434   9.860   4.509   2.061  0.0832 -1.0050 -3.2708
  564MOL0     H74435  10.096   4.452   2.117  0.1060 -0.1543 -0.3524
  564MOL0     H74436  10.405   4.173   2.144  1.9543  2.3968 -0.9774
  564MOL0     H74437  10.651   4.207   2.175 -1.4631 -0.2349 -2.0151
  564MOL0     H74438  10.853   4.124   2.590  0.4257 -0.1701 -1.6108
  564MOL0     H74439  10.776   4.271   2.604 -1.8267 -2.8282  0.3148
  564MOL0     H74440  10.932   4.390   2.442 -1.2139  0.1671  0.3579
  564MOL0     H74441  10.995   4.342   2.592 -1.1550  2.6352 -0.2464
  564MOL0     H74442  11.045   4.114   2.413  1.1752 -1.3680  2.1764
  564MOL0     H74443  11.154   4.209   2.509 -1.0993 -1.3942  0.0462
  564MOL0     H74444  11.182   4.206   2.239  0.0145 -0.5477 -0.7577
  564MOL0     H74445  11.043   4.305   2.235  0.8007  0.8162 -1.5203
  564MOL0     H74446  11.353   4.570   2.368 -1.2899  1.0092 -3.2464
  564MOL0     H74447  10.601   4.141   2.593  0.1138  2.6055 -0.1265
  564MOL0     H74448  10.347   4.134   2.558  0.2818 -1.6013  0.4256
  565MOL0     O74449   9.773   1.599   6.275 -0.2743  0.8086  0.7191
  565MOL0     C74450   9.718   1.710   6.278 -0.1498 -0.1397  0.3879
  565MOL0     O74451   9.773   1.827   6.281  0.7961  0.5876  0.4189
  565MOL0     C74452   9.911   1.835   6.273 -0.1110 -0.5831  0.1109
  565MOL0     C74453   9.971   1.905   6.169 -0.4829  0.1646  0.5310
  565MOL0     C74454  10.114   1.906   6.161 -0.5651  0.4658  0.1616
  565MOL0     C74455  10.193   1.859   6.274 -0.2988  0.1068  0.1529
  565MOL0     O74456  10.325   1.869   6.287 -0.4394  0.2777  0.0509
  565MOL0     C74457  10.399   1.919   6.176 -0.5828 -0.9335 -0.2727
  565MOL0     C74458  10.552   1.914   6.210  0.5103 -0.0772 -0.4487
  565MOL0     C74459  10.577   1.955   6.354  0.0919 -0.3895  0.3233
  565MOL0     C74460  10.722   1.949   6.391  0.1546 -0.4396  0.4694
  565MOL0     C74461  10.756   2.015   6.521 -0.4632 -0.4470 -0.1489
  565MOL0     C74462  10.672   1.968   6.647 -0.9681  0.0548  0.3221
  565MOL0     C74463  10.678   1.815   6.657  0.0113 -1.2930 -0.0480
  565MOL0     C74464  10.625   1.773   6.798  0.2557  0.0324  0.1385
  565MOL0     N74465  10.476   1.777   6.817 -0.7924 -0.2187  0.8746
  565MOL0     C74466  10.406   1.879   6.873 -0.4933 -0.3774 -0.5057
  565MOL0     C74467  10.278   1.836   6.861  0.1683  0.2278  0.2669
  565MOL0     C74468  10.148   1.910   6.902  0.4908  1.0429  0.5753
  565MOL0     C74469  10.155   2.064   6.869  0.1137  0.1604 -0.1048
  565MOL0     C74470  10.154   2.087   6.707  0.0352  0.5627  0.2830
  565MOL0     C74471  10.013   2.059   6.643  0.0273 -0.0807  0.4354
  565MOL0     O74472   9.920   2.160   6.654  0.3609  0.1560 -0.7132
  565MOL0     C74473   9.785   2.127   6.644 -0.3446  0.1062  0.7490
  565MOL0     C74474   9.686   2.212   6.693 -0.6707  0.3418  0.2566
  565MOL0     C74475   9.555   2.175   6.688 -0.2928  0.3505  0.5052
  565MOL0     C74476   9.508   2.055   6.632 -0.4767 -0.2714 -0.1358
  565MOL0     C74477   9.361   2.026   6.620  0.5538  0.1750  0.4875
  565MOL0     O74478   9.273   2.124   6.624  0.4916  0.0633 -0.8936
  565MOL0     C74479   9.140   2.084   6.609  0.0169 -0.2975  0.0362
  565MOL0     C74480   9.058   2.083   6.724 -0.9455  0.4520  0.1156
  565MOL0     C74481   8.930   2.047   6.710  0.3239 -0.1396  0.6577
  565MOL0     C74482   8.864   2.010   6.591 -0.6362 -0.1577  0.5551
  565MOL0     O74483   8.739   1.953   6.606 -0.1909  0.4732  0.2645
  565MOL0     C74484   8.642   2.050   6.645 -0.0744  0.5875  0.6381
  565MOL0     C74485   8.508   1.963   6.659 -0.4479 -0.7772  0.6845
  565MOL0     C74486   8.377   2.048   6.685 -0.2326 -1.2668  0.2509
  565MOL0     C74487   8.249   1.966   6.685 -0.4538  0.1395  0.3189
  565MOL0     C74488   8.118   2.036   6.652 -1.1670  0.3082 -0.0970
  565MOL0     C74489   8.104   2.068   6.501 -0.2218  0.1808  0.1277
  565MOL0     C74490   7.958   2.098   6.469 -0.0017 -0.2649  0.1408
  565MOL0     C74491   7.950   2.122   6.323 -0.1139 -0.5316  0.1219
  565MOL0    Cl74492   7.781   2.184   6.285  0.6728 -0.2241 -0.2153
  565MOL0     C74493   8.943   2.009   6.477  0.4158 -0.3703  0.2386
  565MOL0     C74494   9.077   2.041   6.489 -0.3117  0.3524 -0.7190
  565MOL0     O74495   9.330   1.903   6.602 -0.2159  0.5584 -0.1932
  565MOL0     C74496   9.605   1.976   6.574 -0.2299 -0.2341  0.6423
  565MOL0     C74497   9.744   2.000   6.596  0.3113  0.1234  0.4880
  565MOL0     N74498  10.272   1.712   6.794 -0.6129  0.0269 -0.5516
  565MOL0     N74499  10.396   1.678   6.772 -0.7963  0.4856 -1.1275
  565MOL0     C74500  10.123   1.793   6.376  0.0593  0.1453  0.5560
  565MOL0     C74501   9.984   1.787   6.376  0.3488  0.1293 -0.4195
  565MOL0     C74502   9.567   1.702   6.282  0.7170 -0.1115 -0.1401
  565MOL0     C74503   9.486   1.804   6.245  0.0998 -0.2871 -0.1687
  565MOL0     C74504   9.343   1.785   6.231 -0.1257 -0.6047  0.3600
  565MOL0     C74505   9.284   1.662   6.250 -0.8343 -0.4039  0.1962
  565MOL0     O74506   9.157   1.639   6.217  0.3403 -0.6653  0.6376
  565MOL0     C74507   9.053   1.711   6.292  1.0326  0.2572  0.4336
  565MOL0     C74508   8.916   1.672   6.221 -0.1478  1.0409 -0.4616
  565MOL0     C74509   8.792   1.763   6.261 -0.7398  0.2903  0.4300
  565MOL0     C74510   8.667   1.720   6.185 -0.0836 -0.3707 -0.2237
  565MOL0     C74511   8.687   1.753   6.039 -0.0442 -0.0800 -0.3964
  565MOL0     C74512   8.705   1.791   5.924 -0.1270 -0.0706 -0.7116
  565MOL0     C74513   9.365   1.554   6.279  0.4670  0.2152  0.0540
  565MOL0     C74514   9.507   1.577   6.311 -0.1197  0.5741 -0.6805
  565MOL0     H74515   9.909   1.950   6.092 -0.1764  0.9005  0.7134
  565MOL0     H74516  10.145   1.943   6.064  0.8342 -0.4965  0.2279
  565MOL0     H74517  10.362   2.017   6.144 -1.3983 -1.4170 -0.8279
  565MOL0     H74518  10.388   1.854   6.089  0.6466  0.1124 -1.2452
  565MOL0     H74519  10.607   1.981   6.142  1.6131 -0.6802 -0.1695
  565MOL0     H74520  10.580   1.810   6.196  1.0429  0.0069 -0.0219
  565MOL0     H74521  10.510   1.900   6.421 -1.2663 -1.4264 -1.7674
  565MOL0     H74522  10.547   2.059   6.369 -1.8034 -1.1124  2.1725
  565MOL0     H74523  10.756   1.846   6.400 -0.0741 -0.4458  1.3534
  565MOL0     H74524  10.783   1.997   6.314  3.0286  3.3068  4.5715
  565MOL0     H74525  10.735   2.121   6.505  0.4606 -0.7290 -4.8987
  565MOL0     H74526  10.861   1.990   6.537 -0.1594 -0.8575 -2.3895
  565MOL0     H74527  10.565   1.988   6.642 -0.9102  0.8212  1.7342
  565MOL0     H74528  10.712   2.015   6.737 -1.1720  0.6823  0.0907
  565MOL0     H74529  10.622   1.762   6.580 -0.4572  0.4988 -1.0206
  565MOL0     H74530  10.781   1.783   6.641  0.4893  0.7983 -1.6006
  565MOL0     H74531  10.674   1.837   6.871  0.8048 -0.5750  0.3131
  565MOL0     H74532  10.661   1.670   6.808  2.6800  0.7898 -0.1264
  565MOL0     H74533  10.437   1.981   6.895 -0.3346 -0.4523 -0.3806
  565MOL0     H74534  10.121   1.894   7.006 -0.7750  2.0918  0.4375
  565MOL0     H74535  10.070   1.855   6.849  3.2056 -1.4918 -1.0975
  565MOL0     H74536  10.248   2.110   6.906  1.1041 -0.7425 -1.3758
  565MOL0     H74537  10.065   2.113   6.908 -2.1158 -2.7235 -1.2676
  565MOL0     H74538  10.181   2.191   6.689 -0.9314  0.6542 -0.7170
  565MOL0     H74539  10.234   2.019   6.676  1.1336  1.0020  1.9694
  565MOL0     H74540   9.980   1.960   6.676  0.5600 -0.0929  0.9708
  565MOL0     H74541  10.027   2.028   6.540 -1.3657 -2.9734  1.0323
  565MOL0     H74542   9.712   2.299   6.752  0.4970 -0.1832  0.5487
  565MOL0     H74543   9.483   2.239   6.738 -0.7131 -0.2213  0.6503
  565MOL0     H74544   9.096   2.126   6.816  1.7705 -1.9282  0.2483
  565MOL0     H74545   8.871   2.049   6.801  0.3859 -0.0776  0.6968
  565MOL0     H74546   8.623   2.135   6.580 -0.4378 -0.6313 -0.8894
  565MOL0     H74547   8.666   2.090   6.745 -1.4747  1.5541  0.6151
  565MOL0     H74548   8.517   1.891   6.742  0.0668 -2.2963 -0.6302
  565MOL0     H74549   8.497   1.910   6.564 -0.2611  1.8217 -0.8849
  565MOL0     H74550   8.380   2.122   6.605  1.1205 -0.3063  1.1373
  565MOL0     H74551   8.377   2.109   6.776  0.8663 -0.1730 -0.4602
  565MOL0     H74552   8.248   1.877   6.621  3.6649 -1.4154  2.0897
  565MOL0     H74553   8.233   1.924   6.785 -3.7160  2.1019  0.7850
  565MOL0     H74554   8.117   2.135   6.700  1.3703  0.8017 -0.9421
  565MOL0     H74555   8.033   1.979   6.690 -1.4495 -0.9264 -2.4113
  565MOL0     H74556   8.135   1.982   6.442 -2.7770  0.5771 -1.9803
  565MOL0     H74557   8.172   2.143   6.459  0.7517 -1.3607 -1.1714
  565MOL0     H74558   7.896   2.014   6.501  0.4451 -1.4136 -1.8306
  565MOL0     H74559   7.924   2.182   6.530 -0.1169 -1.6760  2.1466
  565MOL0     H74560   7.979   2.037   6.261 -0.9281 -0.1321 -0.8535
  565MOL0     H74561   8.024   2.200   6.305 -0.4790  0.2213  1.6828
  565MOL0     H74562   8.901   1.999   6.378 -1.7701  3.3754  0.5689
  565MOL0     H74563   9.149   2.035   6.408  0.3339  2.0494 -0.3195
  565MOL0     H74564   9.575   1.889   6.517  2.6770 -1.6881  1.1673
  565MOL0     H74565   9.814   1.926   6.557  2.2491  1.3710  1.3910
  565MOL0     H74566  10.174   1.762   6.467  2.2263 -0.5681 -0.8214
  565MOL0     H74567   9.944   1.729   6.459 -0.6579  0.7443 -0.4592
  565MOL0     H74568   9.516   1.903   6.214 -0.6401  0.2251  0.7154
  565MOL0     H74569   9.288   1.878   6.220 -0.7207 -1.0310 -0.3764
  565MOL0     H74570   9.071   1.818   6.305  1.2275  0.1202  1.3543
  565MOL0     H74571   9.061   1.677   6.395  1.7995 -0.4280  0.1608
  565MOL0     H74572   8.936   1.686   6.114  1.1384 -0.1570 -0.3987
  565MOL0     H74573   8.890   1.566   6.233 -0.0786  0.7419 -2.6014
  565MOL0     H74574   8.811   1.870   6.249 -3.8132  1.1451  2.0162
  565MOL0     H74575   8.783   1.743   6.368  2.8460 -2.6697  0.3749
  565MOL0     H74576   8.649   1.612   6.193  2.3195 -1.0760 -2.7656
  565MOL0     H74577   8.588   1.779   6.233  1.6603  0.5868  1.6221
  565MOL0     H74578   8.724   1.812   5.820  1.6107  2.0761 -0.0349
  565MOL0     H74579   9.322   1.456   6.300  1.8434  0.4325  5.5371
  565MOL0     H74580   9.568   1.495   6.346 -0.1207  0.5332 -0.7723
  566MOL0     O74581   6.932   5.937   9.012 -0.2432  0.2453  0.5201
  566MOL0     C74582   6.977   6.054   9.005 -0.3177 -0.1130 -0.5334
  566MOL0     O74583   6.910   6.172   8.991 -0.6417  0.4385 -0.3288
  566MOL0     C74584   6.777   6.151   8.977 -0.6671  0.2453 -0.6173
  566MOL0     C74585   6.698   6.178   9.088 -1.1482  0.2965 -0.0131
  566MOL0     C74586   6.561   6.187   9.077 -0.0678  0.0833 -0.3415
  566MOL0     C74587   6.495   6.153   8.959  0.0173  0.1739  1.4105
  566MOL0     O74588   6.358   6.175   8.952 -0.1395  0.2175  0.8311
  566MOL0     C74589   6.311   6.237   8.835 -0.4055 -0.2105 -0.6853
  566MOL0     C74590   6.222   6.360   8.861  0.7452 -0.1055 -0.0987
  566MOL0     C74591   6.175   6.410   8.730  0.0459 -0.1186 -0.2100
  566MOL0     C74592   6.065   6.525   8.740 -0.1962 -0.5311  1.2409
  566MOL0     C74593   5.970   6.538   8.618 -0.6041  0.0464 -0.0385
  566MOL0     C74594   6.044   6.577   8.493 -0.4851 -0.0568 -0.2214
  566MOL0     C74595   6.112   6.712   8.492  0.5572 -0.6556  0.8138
  566MOL0     C74596   6.031   6.839   8.539 -0.4127  0.4698 -0.1866
  566MOL0     N74597   5.899   6.835   8.477  0.5236 -0.1171 -0.2848
  566MOL0     C74598   5.866   6.810   8.340 -0.3232  0.7659 -0.3829
  566MOL0     C74599   5.732   6.816   8.332  0.9405 -0.2183  0.0874
  566MOL0     C74600   5.653   6.782   8.207 -0.2107 -0.5349  0.3114
  566MOL0     C74601   5.545   6.681   8.244  0.4938  0.1950 -0.5454
  566MOL0     C74602   5.415   6.738   8.310  0.8095 -0.1693 -0.2229
  566MOL0     C74603   5.303   6.628   8.310  0.6101 -0.0298 -0.1602
  566MOL0     O74604   5.185   6.682   8.246 -0.2873 -0.5384 -0.7309
  566MOL0     C74605   5.075   6.594   8.250  0.1002 -0.0319 -0.1077
  566MOL0     C74606   4.956   6.657   8.206  0.2707 -0.5092 -0.5430
  566MOL0     C74607   4.838   6.583   8.216  0.3124  0.3037 -0.3322
  566MOL0     C74608   4.833   6.445   8.256 -0.0045 -0.7535  0.4662
  566MOL0     C74609   4.712   6.370   8.264  0.9415  0.0149  0.1250
  566MOL0     O74610   4.597   6.442   8.244 -0.2713  0.4652 -0.0885
  566MOL0     C74611   4.483   6.364   8.241  0.2431  0.0798 -0.0951
  566MOL0     C74612   4.430   6.334   8.111 -0.8545 -0.5321 -0.5879
  566MOL0     C74613   4.316   6.260   8.099  1.1552  1.4119  0.0316
  566MOL0     C74614   4.246   6.207   8.215 -0.1987 -0.4070 -0.5091
  566MOL0     O74615   4.124   6.142   8.211  0.1001  0.9979  0.0774
  566MOL0     C74616   4.107   6.058   8.100  0.3256 -0.7010 -0.1808
  566MOL0     C74617   3.979   5.972   8.122 -0.4726 -0.1807 -0.2134
  566MOL0     C74618   3.847   6.060   8.113  0.2507 -0.2417  0.2283
  566MOL0     C74619   3.721   5.983   8.156  0.4683  0.0498 -0.4344
  566MOL0     C74620   3.676   5.891   8.046 -0.9962  0.2430  0.4679
  566MOL0     C74621   3.523   5.862   8.063 -0.5158  0.9701  0.0000
  566MOL0     C74622   3.443   5.962   7.982  0.0015  0.7386  0.5879
  566MOL0     C74623   3.302   5.920   7.963  0.2454 -0.7576  0.5192
  566MOL0    Cl74624   3.278   5.793   7.833  0.4955  0.0955 -0.0599
  566MOL0     C74625   4.302   6.231   8.342  0.5410  0.6161  0.0445
  566MOL0     C74626   4.418   6.316   8.358 -0.2647 -0.1636 -1.2953
  566MOL0     O74627   4.721   6.248   8.274 -0.3815  0.2624 -0.3614
  566MOL0     C74628   4.953   6.383   8.285  0.2385 -0.5983  0.0874
  566MOL0     C74629   5.076   6.457   8.280  0.1108  0.0970 -0.4396
  566MOL0     N74630   5.681   6.851   8.456  0.2567  0.4310  0.8848
  566MOL0     N74631   5.782   6.863   8.539 -0.9311 -0.1097 -0.4819
  566MOL0     C74632   6.572   6.115   8.854 -0.3054 -0.3586 -0.3693
  566MOL0     C74633   6.712   6.102   8.860 -0.2105 -0.1458 -0.0949
  566MOL0     C74634   7.130   6.059   9.005  0.7072  0.4817  0.2259
  566MOL0     C74635   7.206   5.945   9.030 -0.2289 -0.1154 -0.8431
  566MOL0     C74636   7.339   5.953   9.043  0.9233  0.1644 -0.6059
  566MOL0     C74637   7.405   6.077   9.024  1.0064  0.3927 -0.2629
  566MOL0     O74638   7.539   6.089   9.013  0.5604 -0.4129  0.5453
  566MOL0     C74639   7.622   5.974   9.048  0.5753 -0.2187  0.0903
  566MOL0     C74640   7.766   6.036   9.048  0.2904 -0.0111 -0.6024
  566MOL0     C74641   7.775   6.147   9.156 -0.8105  0.2706  0.1846
  566MOL0     C74642   7.851   6.277   9.114 -0.3483  0.2898  0.1317
  566MOL0     C74643   7.994   6.253   9.070 -0.2946 -0.7072 -0.0414
  566MOL0     C74644   8.109   6.237   9.041  0.0556 -0.0298  0.9727
  566MOL0     C74645   7.328   6.184   8.989 -0.2293  0.1454  0.0626
  566MOL0     C74646   7.192   6.184   8.979  0.2791  0.6433 -0.0821
  566MOL0     H74647   6.749   6.202   9.181  0.0880 -0.4078 -0.4910
  566MOL0     H74648   6.510   6.222   9.166  0.5263  0.9746 -0.3384
  566MOL0     H74649   6.262   6.167   8.767  1.6739 -0.7525 -1.7202
  566MOL0     H74650   6.394   6.283   8.780 -0.2915 -1.1488 -1.3376
  566MOL0     H74651   6.273   6.436   8.922 -3.5705  2.1825  1.0551
  566MOL0     H74652   6.130   6.337   8.916  1.1305 -1.2614  0.0776
  566MOL0     H74653   6.133   6.328   8.670  0.1105 -0.0475 -0.3516
  566MOL0     H74654   6.265   6.445   8.679  0.6576 -1.3980 -0.0499
  566MOL0     H74655   6.000   6.522   8.828 -3.4770  4.8421 -0.4746
  566MOL0     H74656   6.112   6.623   8.744 -1.4735  0.6812 -4.5569
  566MOL0     H74657   5.903   6.621   8.642 -0.4849  0.5106 -1.2558
  566MOL0     H74658   5.916   6.445   8.599  1.1799 -0.6449 -2.0407
  566MOL0     H74659   5.977   6.557   8.409  0.3409  1.4897 -1.3074
  566MOL0     H74660   6.130   6.510   8.480  1.2619  2.1474 -0.9022
  566MOL0     H74661   6.204   6.707   8.550  0.4270  0.9545  1.2030
  566MOL0     H74662   6.132   6.732   8.386  1.7071  0.5691  1.2456
  566MOL0     H74663   6.078   6.931   8.503 -1.3068  1.6960  1.6243
  566MOL0     H74664   6.018   6.829   8.647 -0.9724 -0.2426 -0.3164
  566MOL0     H74665   5.935   6.791   8.258 -1.7266  0.9116 -1.6344
  566MOL0     H74666   5.729   6.752   8.135  2.0740  2.8341  1.0699
  566MOL0     H74667   5.612   6.873   8.163  2.3311  0.1242 -0.8851
  566MOL0     H74668   5.580   6.613   8.321 -0.3405  0.6382  0.2391
  566MOL0     H74669   5.522   6.613   8.161  2.7656 -0.2059 -0.9119
  566MOL0     H74670   5.436   6.766   8.414 -1.2050 -3.0891  1.1147
  566MOL0     H74671   5.376   6.833   8.273 -2.3617 -1.8077 -1.4286
  566MOL0     H74672   5.278   6.600   8.413  0.6159 -3.0420 -0.9058
  566MOL0     H74673   5.339   6.541   8.255 -1.3383 -0.0345 -1.5164
  566MOL0     H74674   4.945   6.761   8.177  2.2923  0.3764  1.5425
  566MOL0     H74675   4.743   6.631   8.196  0.4504  1.1537  0.9431
  566MOL0     H74676   4.487   6.370   8.026 -0.0519 -3.1665 -1.2717
  566MOL0     H74677   4.271   6.251   8.000  0.8758  1.6699  0.1329
  566MOL0     H74678   4.192   5.991   8.083 -0.7955 -1.7172 -2.1965
  566MOL0     H74679   4.094   6.112   8.005  2.1463  0.0735 -0.0270
  566MOL0     H74680   3.984   5.925   8.221 -0.2994  2.7292  1.2749
  566MOL0     H74681   3.980   5.883   8.059  0.0288 -1.4670  1.5137
  566MOL0     H74682   3.836   6.093   8.009  3.9447 -2.1690 -0.9577
  566MOL0     H74683   3.867   6.151   8.170  2.1365 -0.2405 -0.3600
  566MOL0     H74684   3.741   5.932   8.251 -0.3080  0.0203 -0.2768
  566MOL0     H74685   3.638   6.051   8.179  0.9468  0.4405  0.1692
  566MOL0     H74686   3.728   5.795   8.056  0.1750  0.8705  0.5794
  566MOL0     H74687   3.705   5.924   7.946 -0.8058 -0.0667  0.4209
  566MOL0     H74688   3.491   5.858   8.167  2.0641 -2.1342  0.8729
  566MOL0     H74689   3.514   5.760   8.022 -0.6473  0.1568  1.9381
  566MOL0     H74690   3.457   6.059   8.030 -1.6910  0.8764  0.8293
  566MOL0     H74691   3.492   5.965   7.884  2.3775  0.4323  1.6885
  566MOL0     H74692   3.247   6.013   7.944 -1.1205 -1.7511 -0.6315
  566MOL0     H74693   3.268   5.892   8.062  0.8060  2.8374  1.9021
  566MOL0     H74694   4.244   6.198   8.427  1.6483 -0.4835  0.4019
  566MOL0     H74695   4.450   6.340   8.459 -0.7747 -0.6720 -1.0068
  566MOL0     H74696   4.953   6.277   8.307  1.1074 -1.6597 -4.0815
  566MOL0     H74697   5.162   6.399   8.310  0.0386 -0.4263 -1.2244
  566MOL0     H74698   6.525   6.095   8.758 -0.6944  0.5201 -0.3705
  566MOL0     H74699   6.771   6.074   8.773  0.3162 -0.2391  0.2911
  566MOL0     H74700   7.149   5.856   9.056  1.8249 -0.4321  3.3958
  566MOL0     H74701   7.381   5.861   9.082 -0.5012 -0.6304 -0.8618
  566MOL0     H74702   7.613   5.897   8.971 -2.2852 -2.6931  2.6333
  566MOL0     H74703   7.607   5.928   9.146 -1.5700 -0.2996 -0.2177
  566MOL0     H74704   7.832   5.955   9.081 -1.2362 -1.3232 -0.6574
  566MOL0     H74705   7.795   6.065   8.947  5.4655 -2.3142 -0.1392
  566MOL0     H74706   7.830   6.111   9.243  0.6286  3.0207  0.5381
  566MOL0     H74707   7.681   6.183   9.198  0.6072  1.5746  2.4250
  566MOL0     H74708   7.803   6.319   9.025 -2.3812 -0.5092  0.8046
  566MOL0     H74709   7.843   6.341   9.202 -0.4966 -0.0274  0.3493
  566MOL0     H74710   8.211   6.236   9.009 -0.6946  0.1171 -1.6702
  566MOL0     H74711   7.386   6.272   8.964 -0.2361  0.5298  1.3546
  566MOL0     H74712   7.130   6.268   8.947 -1.5183 -1.1946 -1.7451
  567MOL0     O74713   2.419   3.835   5.873 -0.6449 -0.3650  0.1338
  567MOL0     C74714   2.494   3.879   5.786  0.6685  0.0749  0.1714
  567MOL0     O74715   2.451   3.966   5.682 -0.5326  0.3718 -0.1268
  567MOL0     C74716   2.323   4.009   5.685 -0.1445 -0.4956  0.1541
  567MOL0     C74717   2.292   4.144   5.671 -0.1130 -0.6642 -0.2533
  567MOL0     C74718   2.165   4.186   5.684  0.2989  0.0119 -0.2334
  567MOL0     C74719   2.054   4.092   5.678  0.0119  0.6000 -0.0159
  567MOL0     O74720   1.922   4.138   5.685  0.0100 -0.5365  0.1766
  567MOL0     C74721   1.815   4.054   5.629  0.0652 -0.5088  0.0362
  567MOL0     C74722   1.693   4.150   5.635 -0.3522  0.4598  0.3920
  567MOL0     C74723   1.667   4.211   5.778  0.1076  0.3371 -0.6094
  567MOL0     C74724   1.535   4.291   5.792 -0.3880  0.6740  0.4195
  567MOL0     C74725   1.412   4.219   5.758  0.2689  0.9081  0.1095
  567MOL0     C74726   1.372   4.141   5.882  0.3506 -0.3091 -0.1784
  567MOL0     C74727   1.236   4.067   5.872  0.1048 -0.6790  0.2648
  567MOL0     C74728   1.117   4.164   5.903 -0.6238 -0.2299 -0.2531
  567MOL0     N74729   0.997   4.115   5.846  0.6062 -0.5975 -0.0865
  567MOL0     C74730   0.904   4.034   5.915  0.0943 -0.9535 -0.5265
  567MOL0     C74731   0.819   3.986   5.820 -0.4287 -0.2153  0.5672
  567MOL0     C74732   0.718   3.878   5.847 -0.0068  0.2187 -0.1695
  567MOL0     C74733   0.568   3.913   5.831  0.1133  0.4424 -0.6253
  567MOL0     C74734   0.478   3.786   5.860  0.1574  0.6423 -0.7636
  567MOL0     C74735   0.333   3.828   5.872  0.2904 -0.4291 -0.0963
  567MOL0     O74736   0.286   3.865   5.738  0.3105  0.4967 -0.3576
  567MOL0     C74737   0.153   3.879   5.725  0.2795 -1.0200 -0.5212
  567MOL0     C74738   0.060   3.884   5.829  0.9511  0.0341 -0.5371
  567MOL0     C74739  -0.078   3.907   5.788 -0.4864 -0.6695  0.0255
  567MOL0     C74740  -0.121   3.919   5.656  0.6622  0.1317  0.2836
  567MOL0     C74741  -0.265   3.932   5.618 -0.6146 -0.2726 -0.1994
  567MOL0     O74742  -0.346   3.929   5.726  0.0170 -0.6384 -0.2280
  567MOL0     C74743  -0.476   3.952   5.706 -0.6260  0.5524 -0.4124
  567MOL0     C74744  -0.536   4.052   5.786  0.4233  0.2790  0.1576
  567MOL0     C74745  -0.671   4.083   5.778  0.0037  0.5196 -0.0251
  567MOL0     C74746  -0.750   4.002   5.700  0.3756 -0.6939  0.6061
  567MOL0     O74747  -0.888   4.036   5.712 -0.5953  0.4326 -0.0734
  567MOL0     C74748  -0.981   3.990   5.610  0.1278 -0.5764 -0.6478
  567MOL0     C74749  -1.112   4.059   5.621 -0.5033  0.4897 -0.5434
  567MOL0     C74750  -1.092   4.212   5.620  0.1733 -0.6073 -0.3470
  567MOL0     C74751  -1.222   4.281   5.579 -0.5865  0.8235  0.3504
  567MOL0     C74752  -1.249   4.274   5.425  0.1490  0.0469 -0.3794
  567MOL0     C74753  -1.395   4.318   5.399  0.5181  0.6372 -0.2012
  567MOL0     C74754  -1.412   4.337   5.249 -0.1765  0.1162  0.8960
  567MOL0     C74755  -1.526   4.438   5.202 -0.9033  0.7274 -0.1543
  567MOL0    Cl74756  -1.687   4.360   5.213 -0.4442  0.1871  0.1271
  567MOL0     C74757  -0.700   3.900   5.618 -0.3426 -0.0007 -0.0925
  567MOL0     C74758  -0.563   3.874   5.617  0.6333 -0.9374  0.0860
  567MOL0     O74759  -0.299   3.951   5.497 -0.2517 -0.5393  0.4833
  567MOL0     C74760  -0.025   3.926   5.564  0.4842 -0.7345  1.1570
  567MOL0     C74761   0.110   3.915   5.599  0.1477 -0.2168  0.6922
  567MOL0     N74762   0.863   4.039   5.699  0.3754  0.0830  0.3293
  567MOL0     N74763   0.951   4.122   5.720 -0.2540  0.3828 -0.2948
  567MOL0     C74764   2.082   3.952   5.667  1.0511 -0.3769 -0.6228
  567MOL0     C74765   2.218   3.912   5.678 -0.2869 -0.3664 -0.1747
  567MOL0     C74766   2.631   3.839   5.810 -0.6047  0.1441 -0.5623
  567MOL0     C74767   2.663   3.711   5.852 -0.1024  0.0205 -0.1001
  567MOL0     C74768   2.796   3.661   5.841  1.2726  0.7104  0.2120
  567MOL0     C74769   2.902   3.749   5.798 -0.0809  0.2481 -0.1629
  567MOL0     O74770   3.032   3.700   5.790 -0.3590 -0.0373 -0.0179
  567MOL0     C74771   3.135   3.790   5.730 -0.8566 -0.6572 -0.1816
  567MOL0     C74772   3.240   3.700   5.658  0.1230 -0.2419  0.1123
  567MOL0     C74773   3.182   3.604   5.545  0.6867 -0.5305  0.1532
  567MOL0     C74774   3.093   3.681   5.449 -0.5692 -0.2842 -0.1682
  567MOL0     C74775   3.050   3.597   5.339  0.0592 -0.0932 -0.0516
  567MOL0     C74776   2.989   3.531   5.252  0.2944  0.2968  0.3308
  567MOL0     C74777   2.863   3.871   5.750 -0.4428 -0.4158  0.6131
  567MOL0     C74778   2.733   3.919   5.761 -0.4613 -0.2253  0.8901
  567MOL0     H74779   2.367   4.218   5.647 -0.2611 -0.8524 -1.3347
  567MOL0     H74780   2.134   4.290   5.688 -0.6197 -0.2790  0.4255
  567MOL0     H74781   1.798   3.967   5.692 -1.9956  1.0099  1.7325
  567MOL0     H74782   1.834   4.039   5.522  0.7934 -0.0144  0.0925
  567MOL0     H74783   1.617   4.082   5.596  2.4586 -1.1240 -2.7723
  567MOL0     H74784   1.709   4.230   5.562 -0.3539 -0.2073 -0.3549
  567MOL0     H74785   1.749   4.279   5.804 -0.4256  2.0065 -2.9286
  567MOL0     H74786   1.667   4.143   5.863 -0.9540  1.4186  0.3004
  567MOL0     H74787   1.529   4.338   5.890 -0.3186  1.7223 -0.0641
  567MOL0     H74788   1.540   4.382   5.731  0.9289  0.5174  0.2602
  567MOL0     H74789   1.425   4.152   5.672  3.5906 -1.2523  2.0613
  567MOL0     H74790   1.331   4.289   5.735 -1.0389 -0.3236  0.7764
  567MOL0     H74791   1.366   4.207   5.969 -2.0065  0.9815 -1.2464
  567MOL0     H74792   1.447   4.063   5.894  0.5978  0.0368  0.5818
  567MOL0     H74793   1.214   4.029   5.772  0.1484 -0.1322  0.0421
  567MOL0     H74794   1.231   3.997   5.955 -1.3429 -0.9607 -0.0428
  567MOL0     H74795   1.130   4.264   5.860  1.3615  0.3725  1.5762
  567MOL0     H74796   1.113   4.160   6.012  4.8727 -0.8642  0.2383
  567MOL0     H74797   0.907   3.998   6.017 -0.8555 -0.6174 -0.3650
  567MOL0     H74798   0.730   3.846   5.951 -0.6079 -1.4923 -0.6007
  567MOL0     H74799   0.739   3.789   5.787 -1.7997  0.1404 -0.7132
  567MOL0     H74800   0.545   3.951   5.731  1.9413  2.9869 -0.1872
  567MOL0     H74801   0.546   3.996   5.900  2.4812  1.1444 -0.6233
  567MOL0     H74802   0.493   3.724   5.771  0.3437  2.0545 -1.7472
  567MOL0     H74803   0.500   3.740   5.956  0.9809 -2.2474 -2.2065
  567MOL0     H74804   0.334   3.922   5.928  0.2627 -1.1116  1.0913
  567MOL0     H74805   0.265   3.758   5.922  0.4662 -1.5564 -1.3819
  567MOL0     H74806   0.085   3.882   5.935 -0.3126  2.9276 -0.0675
  567MOL0     H74807  -0.158   3.910   5.860 -1.3453  0.2192 -0.9412
  567MOL0     H74808  -0.482   4.117   5.854  0.7063 -1.2179  1.4140
  567MOL0     H74809  -0.714   4.161   5.839 -1.3204 -2.5161  3.2773
  567MOL0     H74810  -0.993   3.882   5.621  1.2463 -0.5422  1.5442
  567MOL0     H74811  -0.939   4.007   5.511  1.9627 -3.3588 -0.4414
  567MOL0     H74812  -1.155   4.021   5.714 -2.3205 -0.0412 -1.5586
  567MOL0     H74813  -1.186   4.024   5.548 -1.1805  1.3963 -0.3141
  567MOL0     H74814  -1.013   4.237   5.550  0.7201  0.5148  0.6519
  567MOL0     H74815  -1.064   4.237   5.723 -3.4752  2.0059  0.1975
  567MOL0     H74816  -1.307   4.244   5.637  1.2809  0.5256  3.1191
  567MOL0     H74817  -1.216   4.387   5.605  0.2055  1.4070 -1.9855
  567MOL0     H74818  -1.238   4.170   5.393 -1.0807 -0.2873  0.2045
  567MOL0     H74819  -1.175   4.345   5.387  2.3898  0.0541  3.5396
  567MOL0     H74820  -1.406   4.413   5.451 -0.1088  0.5793 -0.2269
  567MOL0     H74821  -1.468   4.253   5.449  1.2423  1.2011  1.6783
  567MOL0     H74822  -1.321   4.387   5.214 -1.0832  0.7487 -0.6047
  567MOL0     H74823  -1.415   4.237   5.203 -1.2552 -0.6430  2.5062
  567MOL0     H74824  -1.512   4.468   5.098  4.3251 -0.3586 -0.0215
  567MOL0     H74825  -1.529   4.525   5.268  1.4656  0.0189  0.9946
  567MOL0     H74826  -0.769   3.840   5.561 -2.0114  2.1705 -0.5103
  567MOL0     H74827  -0.523   3.811   5.538  3.0138 -1.8885  1.9657
  567MOL0     H74828  -0.053   3.923   5.459  0.2823  0.3299  1.1654
  567MOL0     H74829   0.182   3.922   5.518 -1.5213  5.0468 -0.6736
  567MOL0     H74830   1.994   3.889   5.656 -1.8972  3.2094  0.4830
  567MOL0     H74831   2.245   3.808   5.661  0.0705 -0.4090  0.6232
  567MOL0     H74832   2.586   3.643   5.889  0.5916 -0.7283  0.0109
  567MOL0     H74833   2.825   3.561   5.873 -0.6909  0.4911  1.5084
  567MOL0     H74834   3.187   3.854   5.802 -0.6153  0.6933 -1.4939
  567MOL0     H74835   3.099   3.860   5.653  5.0735  1.8408 -1.2121
  567MOL0     H74836   3.321   3.759   5.615  1.1120 -1.3300  0.4266
  567MOL0     H74837   3.296   3.649   5.737  0.8254  0.8553  0.3423
  567MOL0     H74838   3.115   3.527   5.585 -1.4958  0.4554 -1.3645
  567MOL0     H74839   3.263   3.546   5.501 -0.9872 -0.8392 -2.7853
  567MOL0     H74840   3.008   3.706   5.514  0.9976  1.2508  1.4227
  567MOL0     H74841   3.149   3.770   5.417  2.1073 -0.9536  2.2123
  567MOL0     H74842   2.949   3.469   5.175  3.1692 -0.3384 -0.7624
  567MOL0     H74843   2.932   3.940   5.704  2.5602 -3.3490  0.3756
  567MOL0     H74844   2.698   4.013   5.719 -0.3788  0.5151  2.3953
  568MOL0     O74845   3.539   1.566   4.570  0.0472 -0.4551 -0.8818
  568MOL0     C74846   3.567   1.680   4.550  0.2852 -0.6777 -0.3800
  568MOL0     O74847   3.471   1.778   4.547  0.4957 -0.9627  0.0925
  568MOL0     C74848   3.335   1.755   4.573 -0.0382 -0.4045  1.3032
  568MOL0     C74849   3.252   1.647   4.528  0.4840 -0.6532  1.0627
  568MOL0     C74850   3.111   1.654   4.547  0.2588  0.2778 -0.0405
  568MOL0     C74851   3.044   1.757   4.609  0.2376  0.4535 -0.2411
  568MOL0     O74852   2.909   1.740   4.626 -0.6053  0.5016  0.2233
  568MOL0     C74853   2.834   1.833   4.697 -0.5796  0.3452 -0.0413
  568MOL0     C74854   2.687   1.805   4.691  1.3099  0.0087  1.0329
  568MOL0     C74855   2.641   1.675   4.765  0.1776 -0.3163 -0.2733
  568MOL0     C74856   2.483   1.664   4.753 -0.2708 -0.4791  0.0727
  568MOL0     C74857   2.442   1.522   4.785  0.3259  0.0652 -0.0818
  568MOL0     C74858   2.287   1.509   4.788 -0.4470 -1.5499  0.3541
  568MOL0     C74859   2.237   1.375   4.840 -0.5449  0.0682 -0.4034
  568MOL0     C74860   2.090   1.343   4.799  0.1928 -0.8208 -0.1097
  568MOL0     N74861   1.996   1.441   4.847  0.1083 -0.3976  0.7011
  568MOL0     C74862   1.965   1.462   4.978 -0.9681  0.0754 -0.3906
  568MOL0     C74863   1.888   1.574   4.972 -0.4942  0.4487  0.2111
  568MOL0     C74864   1.824   1.644   5.086  0.2682 -0.1560 -0.5724
  568MOL0     C74865   1.902   1.655   5.222  0.5616 -0.5670  1.1199
  568MOL0     C74866   1.839   1.766   5.313  0.3498 -0.5157 -0.9364
  568MOL0     C74867   1.685   1.754   5.353  0.2817  0.5363 -1.2096
  568MOL0     O74868   1.675   1.630   5.428  0.3968 -0.0832  0.8032
  568MOL0     C74869   1.565   1.621   5.507 -0.5751  0.8085  0.1934
  568MOL0     C74870   1.440   1.618   5.446 -0.0649 -0.1642  0.2012
  568MOL0     C74871   1.330   1.606   5.535 -0.1811  0.4603  0.1836
  568MOL0     C74872   1.350   1.605   5.673  0.1826 -0.2775 -0.8102
  568MOL0     C74873   1.239   1.596   5.765 -0.2334 -0.1569  0.0006
  568MOL0     O74874   1.131   1.552   5.704  0.2639  0.5262  0.2760
  568MOL0     C74875   1.022   1.558   5.782  0.2390 -0.3786 -0.0333
  568MOL0     C74876   0.916   1.647   5.748  0.0340  0.5250  0.0105
  568MOL0     C74877   0.797   1.634   5.827  0.5828  0.8094  0.2263
  568MOL0     C74878   0.773   1.545   5.927 -0.4216 -0.7276 -0.5171
  568MOL0     O74879   0.654   1.529   5.998  1.0167 -0.7073 -0.4076
  568MOL0     C74880   0.538   1.518   5.913 -0.9951 -0.8625 -0.2750
  568MOL0     C74881   0.417   1.444   5.971 -0.1390  0.2226  0.4654
  568MOL0     C74882   0.357   1.510   6.100  0.2446 -0.5730  0.6526
  568MOL0     C74883   0.265   1.630   6.078  0.0069  0.0431  0.9546
  568MOL0     C74884   0.200   1.688   6.200 -0.1464 -0.1216 -0.6195
  568MOL0     C74885   0.103   1.595   6.267  0.1519 -0.1699 -0.2592
  568MOL0     C74886   0.040   1.652   6.392  0.7850  0.0951 -0.1949
  568MOL0     C74887  -0.070   1.749   6.375  0.7828 -0.4668  0.6876
  568MOL0    Cl74888  -0.161   1.793   6.530 -0.6793  0.1772 -0.2004
  568MOL0     C74889   0.877   1.462   5.957 -0.8726 -0.4376  0.9647
  568MOL0     C74890   0.994   1.464   5.881 -0.5717  0.2727 -0.3215
  568MOL0     O74891   1.251   1.615   5.885 -0.2024 -0.0024 -0.1421
  568MOL0     C74892   1.476   1.605   5.736  0.1732  0.1079  0.0030
  568MOL0     C74893   1.580   1.618   5.644  0.2005  0.4208 -0.6620
  568MOL0     N74894   1.875   1.619   4.847  0.1721  0.4402  0.4311
  568MOL0     N74895   1.934   1.536   4.769  0.5701 -0.5682 -0.1352
  568MOL0     C74896   3.126   1.851   4.671 -0.7627  0.8446  0.6366
  568MOL0     C74897   3.266   1.859   4.638 -0.2806  0.1220 -0.1132
  568MOL0     C74898   3.712   1.703   4.546  0.5817  0.2068 -0.1046
  568MOL0     C74899   3.755   1.837   4.557 -0.9978 -0.0513 -0.0203
  568MOL0     C74900   3.896   1.853   4.565 -0.2658 -0.0240  1.1123
  568MOL0     C74901   3.991   1.750   4.549 -0.1615  0.0644 -0.1599
  568MOL0     O74902   4.127   1.793   4.550  0.8437  0.3833  0.4138
  568MOL0     C74903   4.220   1.682   4.540  0.6117  1.1510  0.9529
  568MOL0     C74904   4.351   1.741   4.562  0.1348 -0.1918  0.7643
  568MOL0     C74905   4.462   1.651   4.508  0.5530  0.0866  0.5183
  568MOL0     C74906   4.601   1.690   4.555  0.5085  0.2435  0.0620
  568MOL0     C74907   4.698   1.579   4.547 -0.2376 -0.0100 -0.8569
  568MOL0     C74908   4.778   1.492   4.548 -0.3811  0.4892 -0.3831
  568MOL0     C74909   3.939   1.625   4.535 -0.0941  0.4015  0.5004
  568MOL0     C74910   3.805   1.600   4.536 -0.5163  0.0665 -0.3274
  568MOL0     H74911   3.297   1.565   4.472  1.6965  1.9090 -2.0191
  568MOL0     H74912   3.051   1.576   4.502  0.3269 -0.2171  0.7130
  568MOL0     H74913   2.854   1.934   4.660 -1.8810  1.5391  2.2643
  568MOL0     H74914   2.871   1.847   4.800  2.5248 -0.8173 -0.8790
  568MOL0     H74915   2.664   1.794   4.584  0.4740 -0.2548  1.2247
  568MOL0     H74916   2.626   1.893   4.713 -0.2873 -0.8983  0.4826
  568MOL0     H74917   2.669   1.689   4.870 -1.1141  0.8096 -0.0337
  568MOL0     H74918   2.691   1.588   4.724  0.9506 -0.9699  1.9191
  568MOL0     H74919   2.437   1.733   4.825 -3.9009 -0.3976 -2.0809
  568MOL0     H74920   2.450   1.689   4.652 -1.8398  1.8473  1.0899
  568MOL0     H74921   2.476   1.494   4.886 -2.3668 -2.5076  0.2491
  568MOL0     H74922   2.486   1.450   4.715  0.7978  1.1546 -0.9216
  568MOL0     H74923   2.251   1.521   4.685 -1.1203  0.1463  0.7599
  568MOL0     H74924   2.256   1.602   4.836 -0.6794 -0.8363 -1.1285
  568MOL0     H74925   2.300   1.295   4.800 -0.3279  0.0564 -0.0470
  568MOL0     H74926   2.248   1.382   4.949 -3.5831 -1.4031  0.1119
  568MOL0     H74927   2.059   1.243   4.832 -0.4883 -2.0198 -3.8655
  568MOL0     H74928   2.090   1.337   4.690 -0.3771  2.4035 -0.3744
  568MOL0     H74929   1.994   1.404   5.065  0.1455 -0.1505 -0.8953
  568MOL0     H74930   1.726   1.600   5.107 -0.3058 -1.2950 -4.7438
  568MOL0     H74931   1.812   1.747   5.051 -0.1569 -0.2497 -0.7176
  568MOL0     H74932   2.006   1.686   5.204  0.4390 -1.3966 -1.4433
  568MOL0     H74933   1.898   1.556   5.267 -0.8698 -0.6588  0.8198
  568MOL0     H74934   1.905   1.768   5.401 -2.0767  4.4747  1.1397
  568MOL0     H74935   1.846   1.864   5.266 -0.2878  0.5994  1.1652
  568MOL0     H74936   1.611   1.762   5.272  0.7431 -0.2340 -1.7219
  568MOL0     H74937   1.670   1.825   5.435  1.6336 -4.1208  3.7175
  568MOL0     H74938   1.429   1.613   5.338 -1.1785 -1.2814  0.3397
  568MOL0     H74939   1.234   1.572   5.499  1.2093 -1.4530 -1.9822
  568MOL0     H74940   0.923   1.710   5.660  2.1704 -0.2848 -0.4399
  568MOL0     H74941   0.713   1.697   5.799  1.0379  1.7017  0.8172
  568MOL0     H74942   0.567   1.472   5.818  0.4196  0.1904 -0.3815
  568MOL0     H74943   0.501   1.621   5.911  0.9563 -0.0639  1.0160
  568MOL0     H74944   0.454   1.348   6.007  2.1351  0.7432 -0.3288
  568MOL0     H74945   0.340   1.408   5.901 -1.8086 -3.9040  3.9792
  568MOL0     H74946   0.439   1.549   6.161 -0.6089 -0.3351  1.6753
  568MOL0     H74947   0.315   1.426   6.156  0.3413 -0.9832  0.1129
  568MOL0     H74948   0.323   1.715   6.041 -0.8236  0.6705  1.0708
  568MOL0     H74949   0.191   1.598   6.005 -0.2337  1.9575  0.2990
  568MOL0     H74950   0.149   1.782   6.175  0.8858  1.0264  1.3463
  568MOL0     H74951   0.276   1.716   6.274 -1.3984  0.4936  0.4617
  568MOL0     H74952   0.157   1.502   6.287  1.4152  0.0728 -2.3147
  568MOL0     H74953   0.023   1.575   6.196  1.6005  0.5083 -2.1660
  568MOL0     H74954  -0.001   1.572   6.455  2.0559  0.5327  1.2599
  568MOL0     H74955   0.119   1.701   6.450  2.2705 -0.8727 -1.3240
  568MOL0     H74956  -0.148   1.716   6.305 -0.1609  1.8045  0.5753
  568MOL0     H74957  -0.033   1.842   6.331 -0.5690 -0.6905 -0.9973
  568MOL0     H74958   0.881   1.376   6.023 -1.1604 -0.5694  0.8139
  568MOL0     H74959   1.071   1.391   5.901 -0.5863  0.5595  0.8801
  568MOL0     H74960   1.497   1.614   5.843  0.3050  0.1610 -0.0262
  568MOL0     H74961   1.678   1.628   5.690  0.7402  0.1455 -1.7148
  568MOL0     H74962   3.082   1.926   4.736 -0.3303 -1.1214  3.4123
  568MOL0     H74963   3.330   1.933   4.684 -1.2128 -0.3527  2.1117
  568MOL0     H74964   3.686   1.920   4.571 -1.8123 -0.6734 -0.3186
  568MOL0     H74965   3.929   1.955   4.583  1.1502 -0.5019  1.4066
  568MOL0     H74966   4.225   1.650   4.435  1.0255  2.6316  0.4983
  568MOL0     H74967   4.205   1.587   4.591  0.9251  0.4352 -0.2409
  568MOL0     H74968   4.336   1.838   4.514 -1.4200 -1.6119 -1.8395
  568MOL0     H74969   4.364   1.762   4.669  0.5665 -0.7483  0.8257
  568MOL0     H74970   4.464   1.656   4.399  1.1162  1.0063  0.5545
  568MOL0     H74971   4.445   1.547   4.537  0.0264  0.1457  0.4366
  568MOL0     H74972   4.629   1.780   4.499  0.6706  1.4362  2.0015
  568MOL0     H74973   4.603   1.729   4.657 -0.7827  2.1292 -0.5784
  568MOL0     H74974   4.857   1.420   4.546  1.5209  2.4523  0.1120
  568MOL0     H74975   4.002   1.538   4.519 -1.3499 -0.4230 -0.0661
  568MOL0     H74976   3.761   1.503   4.516 -0.4899  0.1166 -0.6235
  569MOL0     O74977   8.817   2.479   0.824  0.3351 -0.9073 -0.0799
  569MOL0     C74978   8.938   2.491   0.796  0.3051  0.2978 -0.0263
  569MOL0     O74979   9.017   2.402   0.737 -0.6040  0.8874 -0.4782
  569MOL0     C74980   8.984   2.271   0.698  0.2949 -0.3778  0.4442
  569MOL0     C74981   9.038   2.213   0.585  1.0484 -0.1330  0.2468
  569MOL0     C74982   9.018   2.078   0.570 -0.3785 -0.0852  0.3356
  569MOL0     C74983   8.942   2.001   0.658  0.3759  0.3182  0.2189
  569MOL0     O74984   8.931   1.859   0.636 -0.8541 -0.1770  0.2162
  569MOL0     C74985   8.888   1.822   0.511  0.7743 -0.2340 -0.3550
  569MOL0     C74986   8.739   1.842   0.495 -0.0775  0.2208  0.3125
  569MOL0     C74987   8.698   1.825   0.355 -0.4676  0.4391 -0.1990
  569MOL0     C74988   8.546   1.825   0.349 -0.6873 -0.2161  0.1936
  569MOL0     C74989   8.494   1.782   0.211  0.3167  0.5877 -0.0751
  569MOL0     C74990   8.342   1.784   0.198 -0.0772 -0.1311  0.5001
  569MOL0     C74991   8.291   1.747   0.061 -0.4523  0.1094 -0.2673
  569MOL0     C74992   8.353   1.833  -0.055 -0.0159 -0.1368  0.0137
  569MOL0     N74993   8.331   1.978  -0.045 -0.2472  0.1575 -0.5876
  569MOL0     C74994   8.214   2.044  -0.046  0.1351  0.5310  0.0238
  569MOL0     C74995   8.248   2.172  -0.008 -0.6677 -0.2067  0.1560
  569MOL0     C74996   8.155   2.294  -0.019  0.1761  0.8521 -0.4351
  569MOL0     C74997   8.099   2.295  -0.159 -0.2817  0.0832  0.0179
  569MOL0     C74998   8.044   2.433  -0.196 -1.0335 -0.5024  1.0861
  569MOL0     C74999   7.958   2.422  -0.326  0.3887 -0.0906 -0.1707
  569MOL0     O75000   7.837   2.373  -0.293  0.5653  0.6035 -0.4334
  569MOL0     C75001   7.735   2.376  -0.384 -0.2658  0.4663 -0.4194
  569MOL0     C75002   7.754   2.410  -0.521 -0.6680  0.7906 -0.5628
  569MOL0     C75003   7.643   2.421  -0.606 -0.1060 -1.3037 -0.7539
  569MOL0     C75004   7.515   2.418  -0.549  0.0441 -0.3208  0.9211
  569MOL0     C75005   7.391   2.442  -0.639 -0.0117 -0.3929 -0.4770
  569MOL0     O75006   7.269   2.430  -0.585  0.6109  1.0127  0.5745
  569MOL0     C75007   7.156   2.477  -0.637  0.6911 -0.1634 -0.0423
  569MOL0     C75008   7.055   2.504  -0.543  0.3177 -0.8527 -0.3652
  569MOL0     C75009   6.933   2.555  -0.581  0.5159 -0.2910  0.0568
  569MOL0     C75010   6.897   2.577  -0.716  0.1214  0.5426 -0.3504
  569MOL0     O75011   6.778   2.637  -0.766  0.4408 -0.2307  0.1489
  569MOL0     C75012   6.667   2.636  -0.675 -0.0484 -0.2303 -0.2147
  569MOL0     C75013   6.529   2.651  -0.737  0.8972  0.7427  0.0987
  569MOL0     C75014   6.420   2.588  -0.645 -0.3133  0.2056 -0.5646
  569MOL0     C75015   6.282   2.618  -0.692 -0.5208 -0.3843  0.4042
  569MOL0     C75016   6.188   2.566  -0.587  1.1514 -0.1588 -0.0490
  569MOL0     C75017   6.053   2.541  -0.658  0.7996  0.0329  0.1438
  569MOL0     C75018   5.932   2.536  -0.559  0.0324  0.0645 -0.7768
  569MOL0     C75019   5.801   2.498  -0.625  0.3263  0.9489 -0.2638
  569MOL0    Cl75020   5.808   2.342  -0.716 -0.1796  0.1434 -0.0644
  569MOL0     C75021   6.998   2.540  -0.811 -0.4901  0.1490  0.4141
  569MOL0     C75022   7.119   2.478  -0.776  0.7926 -0.0602 -0.1593
  569MOL0     O75023   7.416   2.487  -0.752  0.6634  0.5467  0.3327
  569MOL0     C75024   7.496   2.379  -0.416  0.4462  0.1991  0.1467
  569MOL0     C75025   7.609   2.357  -0.340  0.2770 -0.4138 -0.8599
  569MOL0     N75026   8.383   2.175   0.020 -0.7478 -0.4322  0.1358
  569MOL0     N75027   8.433   2.057   0.003  0.1881  0.0708 -0.1230
  569MOL0     C75028   8.884   2.059   0.767 -1.3918 -0.6560  0.2060
  569MOL0     C75029   8.907   2.196   0.792  0.2931  0.9272 -1.1486
  569MOL0     C75030   9.002   2.617   0.863  0.4001 -0.6113  0.2216
  569MOL0     C75031   8.924   2.718   0.926 -0.0091  0.2232  0.6587
  569MOL0     C75032   8.987   2.829   0.993  0.0400  0.1195 -0.4563
  569MOL0     C75033   9.124   2.853   0.995  0.1069 -0.8555 -0.0705
  569MOL0     O75034   9.162   2.951   1.076  0.1119  0.2933 -0.4658
  569MOL0     C75035   9.303   2.973   1.086  0.4044 -0.3520 -0.1756
  569MOL0     C75036   9.338   3.079   1.198  0.3993  0.2660  0.2945
  569MOL0     C75037   9.480   3.137   1.183 -0.2902  0.2130  0.1503
  569MOL0     C75038   9.502   3.240   1.068 -0.3424 -0.4798  0.1445
  569MOL0     C75039   9.630   3.308   1.083 -0.4876  0.0709 -0.2647
  569MOL0     C75040   9.746   3.348   1.098  0.5989 -0.3405 -0.0995
  569MOL0     C75041   9.200   2.767   0.918  0.4450  0.0076  0.2715
  569MOL0     C75042   9.139   2.648   0.854 -0.3284  1.0125 -0.5429
  569MOL0     H75043   9.088   2.269   0.506  1.8068 -1.6778 -0.4171
  569MOL0     H75044   9.066   2.040   0.480 -3.0248 -0.2634 -1.1158
  569MOL0     H75045   8.917   1.720   0.483  1.5008  0.0915 -0.8112
  569MOL0     H75046   8.940   1.872   0.429  1.0982  1.1546  0.6766
  569MOL0     H75047   8.701   1.940   0.525 -0.1490 -0.4023  2.4210
  569MOL0     H75048   8.695   1.762   0.555  0.5197 -0.9037 -0.7005
  569MOL0     H75049   8.726   1.725   0.321  0.1407  0.5188  0.0453
  569MOL0     H75050   8.751   1.901   0.296 -0.6459  0.6311 -0.1113
  569MOL0     H75051   8.500   1.762   0.425 -1.2452 -0.5413 -0.4017
  569MOL0     H75052   8.526   1.930   0.370  3.1822  0.6495  0.3953
  569MOL0     H75053   8.514   1.676   0.193 -2.0289  0.1540 -0.4557
  569MOL0     H75054   8.539   1.837   0.127 -3.2447  0.3637 -2.3531
  569MOL0     H75055   8.313   1.888   0.217 -0.8550 -0.0167 -1.1818
  569MOL0     H75056   8.297   1.719   0.273 -1.3234  0.0626 -0.0557
  569MOL0     H75057   8.311   1.640   0.045 -2.5443 -0.4713  0.5916
  569MOL0     H75058   8.182   1.752   0.064 -0.4867 -0.5443 -0.1292
  569MOL0     H75059   8.314   1.798  -0.151  1.2039 -0.2324 -0.4626
  569MOL0     H75060   8.461   1.820  -0.054 -0.0758 -0.6665 -0.3965
  569MOL0     H75061   8.119   2.015  -0.091  0.1793  1.8310 -0.9810
  569MOL0     H75062   8.219   2.381  -0.003  1.3452  0.3791 -2.2610
  569MOL0     H75063   8.087   2.279   0.065  1.3540  0.3500  0.4605
  569MOL0     H75064   8.027   2.214  -0.172 -0.3284 -0.3582  2.4785
  569MOL0     H75065   8.179   2.277  -0.231  0.4319  0.7201  0.6179
  569MOL0     H75066   7.986   2.457  -0.106 -0.5877  0.2543  1.1772
  569MOL0     H75067   8.132   2.497  -0.205 -0.9493 -0.2324  3.2176
  569MOL0     H75068   8.008   2.365  -0.405 -0.1612 -1.3349  0.3485
  569MOL0     H75069   7.942   2.522  -0.365 -0.1929  0.8108  2.2329
  569MOL0     H75070   7.854   2.418  -0.562 -0.3872 -2.9642 -0.9230
  569MOL0     H75071   7.662   2.437  -0.712  0.9393 -1.8691 -0.6608
  569MOL0     H75072   7.068   2.478  -0.438 -0.1351 -2.1705 -0.6056
  569MOL0     H75073   6.860   2.579  -0.504 -1.5020 -0.6213 -1.6613
  569MOL0     H75074   6.675   2.710  -0.594 -5.2769  0.3882  0.0957
  569MOL0     H75075   6.663   2.533  -0.639  0.9752 -0.7295 -1.4749
  569MOL0     H75076   6.517   2.596  -0.830 -0.1791  1.3384 -0.1306
  569MOL0     H75077   6.501   2.757  -0.745 -1.4215  0.3152  1.5275
  569MOL0     H75078   6.428   2.622  -0.541 -3.3468  3.3655 -1.1780
  569MOL0     H75079   6.445   2.482  -0.639  0.7066  0.2995 -2.2340
  569MOL0     H75080   6.267   2.724  -0.712  0.3245 -0.4587 -0.7087
  569MOL0     H75081   6.269   2.562  -0.786  0.1214  2.0433 -1.2190
  569MOL0     H75082   6.169   2.647  -0.517 -2.6159 -1.2250  0.3307
  569MOL0     H75083   6.214   2.470  -0.541  1.4696  0.0356  0.1817
  569MOL0     H75084   6.070   2.446  -0.708  1.2964  0.7130 -1.0194
  569MOL0     H75085   6.042   2.616  -0.738  2.0310  0.0755 -0.0074
  569MOL0     H75086   5.940   2.471  -0.471 -0.4286  1.2314  0.1776
  569MOL0     H75087   5.916   2.637  -0.519 -1.6031 -0.1740 -0.7374
  569MOL0     H75088   5.773   2.572  -0.701 -0.7308 -1.9640 -2.9150
  569MOL0     H75089   5.724   2.497  -0.548  1.6065  1.0373  1.0573
  569MOL0     H75090   6.985   2.583  -0.909 -2.5348 -0.6866  0.2711
  569MOL0     H75091   7.188   2.437  -0.849  0.6296 -0.3467 -0.1539
  569MOL0     H75092   7.396   2.364  -0.377  1.1201  0.6530  2.1568
  569MOL0     H75093   7.592   2.331  -0.236  3.2347 -0.4767 -0.2970
  569MOL0     H75094   8.837   1.991   0.838  0.5512 -2.0238  0.2728
  569MOL0     H75095   8.871   2.235   0.886 -2.5661 -1.8287 -0.9291
  569MOL0     H75096   8.816   2.704   0.933  0.0174  0.1594  0.9516
  569MOL0     H75097   8.921   2.895   1.048  1.4741 -0.3250  1.9657
  569MOL0     H75098   9.342   3.026   0.998 -3.5750  2.3782 -0.5523
  569MOL0     H75099   9.361   2.881   1.101 -0.6085 -1.1530 -1.0173
  569MOL0     H75100   9.256   3.151   1.187 -1.6054 -1.8154  0.6783
  569MOL0     H75101   9.332   3.027   1.294  0.2135  0.2028  0.2509
  569MOL0     H75102   9.556   3.060   1.201  1.3823  2.0774  1.4573
  569MOL0     H75103   9.482   3.196   1.275 -0.3433 -2.0504  1.7071
  569MOL0     H75104   9.508   3.179   0.978  0.4054 -4.1839  2.5085
  569MOL0     H75105   9.423   3.316   1.064  0.4906  0.7317  3.1289
  569MOL0     H75106   9.846   3.385   1.097  0.0367  1.2608  0.3168
  569MOL0     H75107   9.308   2.771   0.910  0.6566 -0.9902  2.2342
  569MOL0     H75108   9.201   2.587   0.790 -0.6150 -0.5548  0.6351
  570MOL0     O75109   1.613   9.976   1.485 -0.1843 -0.0779  0.2801
  570MOL0     C75110   1.667   9.911   1.573 -0.4810 -0.2442  0.8546
  570MOL0     O75111   1.606   9.850   1.678  0.2758 -0.2594  0.5684
  570MOL0     C75112   1.469   9.851   1.685 -0.4786 -0.2520 -0.3415
  570MOL0     C75113   1.398   9.732   1.705  0.5825 -0.4883  0.5175
  570MOL0     C75114   1.260   9.719   1.733 -0.3080 -0.5166  1.1433
  570MOL0     C75115   1.187   9.834   1.725 -0.4759 -0.6880 -0.0031
  570MOL0     O75116   1.050   9.844   1.738  0.5725 -0.2017  0.1380
  570MOL0     C75117   0.980   9.725   1.775  0.9277 -0.3659  0.2393
  570MOL0     C75118   0.844   9.774   1.785  0.7986  1.3681 -0.1286
  570MOL0     C75119   0.762   9.661   1.852 -0.1484  0.4739 -0.2431
  570MOL0     C75120   0.611   9.694   1.852 -0.6532 -0.1156  0.1620
  570MOL0     C75121   0.535   9.575   1.910 -0.2075 -0.2392 -0.4274
  570MOL0     C75122   0.383   9.609   1.905  0.0589  0.3632  0.0333
  570MOL0     C75123   0.356   9.699   2.019  0.2401  0.6289  0.0615
  570MOL0     C75124   0.304   9.621   2.141  0.5354 -1.1734 -0.0763
  570MOL0     N75125   0.173   9.555   2.122 -0.0227 -0.5686  1.0674
  570MOL0     C75126   0.053   9.620   2.098 -0.3525 -0.1885  0.1244
  570MOL0     C75127  -0.042   9.522   2.108 -0.5723  0.1518  0.2083
  570MOL0     C75128  -0.183   9.553   2.081 -1.1721  0.0846  0.1408
  570MOL0     C75129  -0.204   9.600   1.938 -0.0579  0.4270  0.0693
  570MOL0     C75130  -0.129   9.514   1.824 -0.2139 -0.4120 -0.0144
  570MOL0     C75131  -0.174   9.368   1.829  0.0881 -0.7386  0.0712
  570MOL0     O75132  -0.313   9.357   1.799  1.0093  0.7359  0.4045
  570MOL0     C75133  -0.369   9.231   1.807  0.0667 -0.3367 -0.8780
  570MOL0     C75134  -0.329   9.126   1.902  0.6286 -0.5881 -0.3018
  570MOL0     C75135  -0.412   9.014   1.920  0.1276 -0.0288  0.4185
  570MOL0     C75136  -0.536   8.998   1.854 -0.1855 -0.1844  0.0720
  570MOL0     C75137  -0.620   8.871   1.887 -0.3360 -0.9558 -0.2038
  570MOL0     O75138  -0.608   8.820   2.016  0.5722  0.2857  0.1691
  570MOL0     C75139  -0.683   8.704   2.049  0.1702 -0.3302  0.6531
  570MOL0     C75140  -0.623   8.578   2.056  0.0379  1.1359 -0.8414
  570MOL0     C75141  -0.700   8.457   2.065 -0.7515  0.5561  0.1729
  570MOL0     C75142  -0.835   8.472   2.081  0.1213  0.2221 -0.9563
  570MOL0     O75143  -0.923   8.366   2.101 -0.2591 -0.2758  0.2775
  570MOL0     C75144  -0.998   8.360   2.217 -0.6380  0.0533  0.8569
  570MOL0     C75145  -1.100   8.251   2.194  0.7954  0.1667 -0.9227
  570MOL0     C75146  -1.209   8.248   2.305 -0.1587 -0.0355  0.6543
  570MOL0     C75147  -1.165   8.265   2.451  0.4977  0.0418  0.6659
  570MOL0     C75148  -1.118   8.132   2.494 -0.3780  0.1695  0.0812
  570MOL0     C75149  -1.039   8.143   2.618  0.8576 -0.6315 -0.6773
  570MOL0     C75150  -0.944   8.021   2.635 -0.2113  0.8231  0.5852
  570MOL0     C75151  -0.851   8.025   2.755 -0.0770  0.3891  0.0379
  570MOL0    Cl75152  -0.699   8.117   2.723  0.0970  0.3631 -0.1108
  570MOL0     C75153  -0.891   8.595   2.068 -0.0597  0.1812 -0.2142
  570MOL0     C75154  -0.822   8.712   2.058  0.0276  0.1331 -0.0727
  570MOL0     O75155  -0.702   8.844   1.800  0.1362 -0.1839  0.2426
  570MOL0     C75156  -0.584   9.097   1.768  0.0295 -0.1174 -0.2784
  570MOL0     C75157  -0.496   9.209   1.741  0.2403  0.4802  0.8989
  570MOL0     N75158   0.017   9.405   2.151 -0.0175  0.3497 -0.2686
  570MOL0     N75159   0.145   9.426   2.147 -0.2278  0.1635  0.2874
  570MOL0     C75160   1.248   9.960   1.693 -0.6515  0.4329  0.5166
  570MOL0     C75161   1.388   9.966   1.677  0.5926  0.1761  0.4313
  570MOL0     C75162   1.818   9.899   1.563  0.3354  0.5379  0.5658
  570MOL0     C75163   1.883   9.856   1.677 -0.5403  0.2284 -0.0760
  570MOL0     C75164   2.023   9.854   1.678 -0.3702  1.6321  0.1448
  570MOL0     C75165   2.093   9.886   1.553 -0.1937 -0.6172  0.1561
  570MOL0     O75166   2.231   9.892   1.530 -0.1060  0.2619  0.0320
  570MOL0     C75167   2.319   9.871   1.641  0.8480  0.7378 -1.0974
  570MOL0     C75168   2.459   9.920   1.606  0.1097 -1.1070  0.4443
  570MOL0     C75169   2.509   9.824   1.492 -0.3632  0.0504  0.2412
  570MOL0     C75170   2.656   9.823   1.482 -1.1030 -0.7639  0.0543
  570MOL0     C75171   2.713   9.712   1.396  0.3059 -0.0486  0.4001
  570MOL0     C75172   2.760   9.640   1.309 -0.9626  1.0572 -0.0385
  570MOL0     C75173   2.025   9.923   1.436 -0.3271  0.3316 -0.5136
  570MOL0     C75174   1.886   9.933   1.452 -0.3811  0.4420  0.8372
  570MOL0     H75175   1.447   9.636   1.714  0.0118 -0.7062  1.4184
  570MOL0     H75176   1.219   9.621   1.756  1.2974 -1.1766  1.2877
  570MOL0     H75177   1.013   9.693   1.874 -0.8633 -2.9077  0.1010
  570MOL0     H75178   0.977   9.639   1.707 -1.9098 -1.2728  1.3601
  570MOL0     H75179   0.799   9.799   1.688  0.8057 -2.3985 -1.2743
  570MOL0     H75180   0.826   9.861   1.848  4.0804  2.9754 -1.2153
  570MOL0     H75181   0.806   9.640   1.950  2.1203 -1.0911 -1.5169
  570MOL0     H75182   0.780   9.565   1.802 -1.3716 -0.9596  1.8857
  570MOL0     H75183   0.588   9.786   1.906 -0.3029 -0.1626  0.3907
  570MOL0     H75184   0.572   9.710   1.751  0.3710  0.7581 -0.1062
  570MOL0     H75185   0.579   9.570   2.010  2.4783  3.1816 -1.2576
  570MOL0     H75186   0.561   9.489   1.847  1.5588  0.4825 -0.7460
  570MOL0     H75187   0.314   9.524   1.906  0.4666  0.0142 -0.5153
  570MOL0     H75188   0.370   9.665   1.812  4.2514  0.1318 -0.8877
  570MOL0     H75189   0.429   9.774   2.049  2.4746 -1.6606  0.7572
  570MOL0     H75190   0.269   9.747   1.975  0.8089  0.4826 -1.2658
  570MOL0     H75191   0.304   9.678   2.234  1.5360  0.2205 -0.8931
  570MOL0     H75192   0.385   9.551   2.166  0.1692 -1.0795  1.4522
  570MOL0     H75193   0.048   9.718   2.052 -0.2077  0.3837  1.3046
  570MOL0     H75194  -0.225   9.617   2.159  0.1278  1.1621 -0.0210
  570MOL0     H75195  -0.231   9.456   2.098 -1.1247  0.0050 -0.1750
  570MOL0     H75196  -0.181   9.705   1.922 -0.0073  0.0171 -3.2390
  570MOL0     H75197  -0.308   9.592   1.904 -0.2600 -0.4745  0.8509
  570MOL0     H75198  -0.167   9.554   1.730  0.1905 -0.1370 -0.0671
  570MOL0     H75199  -0.020   9.519   1.830 -0.2116  1.2747 -0.7555
  570MOL0     H75200  -0.141   9.314   1.919 -2.9471 -4.2124 -0.6652
  570MOL0     H75201  -0.127   9.324   1.741  1.6728 -0.5543  0.7744
  570MOL0     H75202  -0.232   9.147   1.944  0.6085  0.3855 -0.7247
  570MOL0     H75203  -0.383   8.930   1.982 -0.6955  0.0613  0.9428
  570MOL0     H75204  -0.518   8.552   2.041  0.6526  2.8172  0.2525
  570MOL0     H75205  -0.647   8.361   2.066  1.4778  1.6566 -1.9087
  570MOL0     H75206  -1.042   8.458   2.236  2.2042  1.5992 -0.0295
  570MOL0     H75207  -0.941   8.329   2.305 -1.5656 -0.1766  1.3900
  570MOL0     H75208  -1.040   8.159   2.193  1.0253  0.3177 -1.0514
  570MOL0     H75209  -1.148   8.269   2.098 -2.2297  0.2157  0.4772
  570MOL0     H75210  -1.269   8.157   2.297  0.5875 -0.4663 -0.2457
  570MOL0     H75211  -1.275   8.330   2.278 -2.1243 -1.0407  2.1654
  570MOL0     H75212  -1.090   8.344   2.455 -0.6471  1.1858  0.4456
  570MOL0     H75213  -1.259   8.287   2.503 -1.1082 -0.9832 -1.6222
  570MOL0     H75214  -1.056   8.091   2.414 -2.0312  0.3290 -1.3398
  570MOL0     H75215  -1.201   8.062   2.503 -2.1151  1.9534 -1.2764
  570MOL0     H75216  -1.110   8.157   2.700  0.3067  2.3251 -1.5405
  570MOL0     H75217  -0.976   8.232   2.624 -0.3330  0.1508  0.6493
  570MOL0     H75218  -1.007   7.931   2.637 -2.4512  2.1967 -1.6309
  570MOL0     H75219  -0.884   8.012   2.544 -0.4036 -0.6656  0.5752
  570MOL0     H75220  -0.824   7.923   2.783  0.7745  0.9518  1.3378
  570MOL0     H75221  -0.909   8.058   2.841 -0.2246 -1.9663  0.9204
  570MOL0     H75222  -0.997   8.616   2.073  0.4546  3.0468 -0.1828
  570MOL0     H75223  -0.869   8.810   2.048  2.1040  1.0067 -2.1167
  570MOL0     H75224  -0.677   9.089   1.713  0.1382  0.4909 -0.5600
  570MOL0     H75225  -0.530   9.295   1.684 -1.5476 -0.3842  0.6010
  570MOL0     H75226   1.191  10.051   1.676  2.1502  2.0513 -1.0218
  570MOL0     H75227   1.437  10.058   1.646 -0.3738  0.7295  0.5214
  570MOL0     H75228   1.831   9.819   1.764  0.5894 -2.0694 -0.3034
  570MOL0     H75229   2.078   9.819   1.765 -2.0701  0.8502  0.9440
  570MOL0     H75230   2.313   9.764   1.666 -2.0271  0.1628 -3.5703
  570MOL0     H75231   2.282   9.932   1.724 -1.6689  3.1150 -3.7556
  570MOL0     H75232   2.460  10.025   1.577  0.4133 -0.4732  2.5978
  570MOL0     H75233   2.532   9.919   1.687 -0.7447 -1.5421  1.2365
  570MOL0     H75234   2.468   9.853   1.395  0.2222 -0.2391 -0.0995
  570MOL0     H75235   2.477   9.720   1.506  1.0073 -0.5139 -0.5696
  570MOL0     H75236   2.692   9.921   1.450  0.7711 -1.3251  0.3028
  570MOL0     H75237   2.695   9.805   1.583 -1.5054  0.8854  0.5246
  570MOL0     H75238   2.791   9.561   1.244 -0.5925  0.3654  0.9584
  570MOL0     H75239   2.076   9.955   1.346  0.4974  0.8400  0.1286
  570MOL0     H75240   1.836   9.969   1.363  2.4577  1.3855 -0.4641
  571MOL0     O75241   5.550  11.170   9.385 -0.2107  0.8301 -0.2566
  571MOL0     C75242   5.628  11.250   9.340  0.7611 -0.3925 -0.7983
  571MOL0     O75243   5.610  11.313   9.231  0.6961 -0.4338  0.2141
  571MOL0     C75244   5.486  11.317   9.173  0.0723 -0.5940  0.3480
  571MOL0     C75245   5.431  11.205   9.116  0.1013  0.7847  0.4234
  571MOL0     C75246   5.298  11.199   9.067  0.1510  0.6731 -1.0103
  571MOL0     C75247   5.216  11.310   9.078 -0.6806 -0.4270  0.0481
  571MOL0     O75248   5.088  11.304   9.034  0.0575  0.0473  0.3721
  571MOL0     C75249   5.004  11.421   9.063  0.8257  0.7487  0.3028
  571MOL0     C75250   4.871  11.395   8.996  0.8391  0.5817  0.2090
  571MOL0     C75251   4.773  11.328   9.089 -0.2231 -0.1328  0.5351
  571MOL0     C75252   4.651  11.265   9.008 -0.1194 -0.3352 -0.3807
  571MOL0     C75253   4.553  11.193   9.102 -0.2220  1.0303  0.1808
  571MOL0     C75254   4.433  11.147   9.014 -0.5566  0.3403 -0.6130
  571MOL0     C75255   4.334  11.066   9.100  0.9105 -0.1413 -0.2482
  571MOL0     C75256   4.210  11.040   9.014  0.1899  0.6632  0.1273
  571MOL0     N75257   4.102  10.971   9.088 -0.2718 -1.2722  0.5876
  571MOL0     C75258   4.100  10.845   9.132  0.0993 -0.4047 -0.7555
  571MOL0     C75259   3.972  10.820   9.164  0.6461  0.0835  0.6447
  571MOL0     C75260   3.927  10.674   9.209  0.1223 -0.5363 -0.7382
  571MOL0     C75261   3.838  10.610   9.096 -0.1935  0.2833  0.7470
  571MOL0     C75262   3.714  10.695   9.046 -0.6008  0.6938 -0.0771
  571MOL0     C75263   3.628  10.720   9.165  0.3394  0.0757  0.6534
  571MOL0     O75264   3.580  10.592   9.220  0.8218  0.1554 -0.0243
  571MOL0     C75265   3.454  10.550   9.186  0.1434  0.4497 -0.2019
  571MOL0     C75266   3.364  10.617   9.105 -0.1960  0.0890  0.8097
  571MOL0     C75267   3.233  10.576   9.082  0.8964 -1.1299  0.2395
  571MOL0     C75268   3.177  10.464   9.147 -0.5805 -0.2113 -0.8319
  571MOL0     C75269   3.039  10.434   9.146  0.5179  0.1888  0.3448
  571MOL0     O75270   2.961  10.513   9.068  0.5495  0.2084  0.2595
  571MOL0     C75271   2.821  10.513   9.073  0.3331 -0.2846  0.4697
  571MOL0     C75272   2.767  10.635   9.079  1.0937  0.2763  0.1742
  571MOL0     C75273   2.630  10.654   9.081  0.6170  0.2907 -0.1505
  571MOL0     C75274   2.541  10.545   9.083 -0.2069 -0.6393  0.2341
  571MOL0     O75275   2.407  10.554   9.079  0.4005  0.4151  0.1515
  571MOL0     C75276   2.346  10.656   8.993 -1.1176  0.0346  0.5664
  571MOL0     C75277   2.203  10.634   8.986  1.2435 -0.4177 -0.1620
  571MOL0     C75278   2.128  10.719   8.886 -0.2231 -0.3270  1.0695
  571MOL0     C75279   1.975  10.676   8.896 -0.5258  0.3763 -0.6406
  571MOL0     C75280   1.906  10.740   8.773 -0.4432 -0.4167 -1.0271
  571MOL0     C75281   1.749  10.745   8.797  0.0485  0.3300  0.6947
  571MOL0     C75282   1.678  10.613   8.815  0.1769  0.6128  0.0954
  571MOL0     C75283   1.531  10.624   8.799 -1.1826  0.6190 -0.1595
  571MOL0    Cl75284   1.455  10.747   8.907  0.0028 -0.0149  0.1603
  571MOL0     C75285   2.596  10.423   9.076  0.2806  0.4644  0.1453
  571MOL0     C75286   2.733  10.401   9.066  0.7231 -0.7049 -0.4893
  571MOL0     O75287   2.991  10.367   9.240  0.9892 -0.0513 -0.9015
  571MOL0     C75288   3.264  10.394   9.225 -0.4982  0.9269 -0.1478
  571MOL0     C75289   3.403  10.435   9.238 -0.5407 -1.0462 -0.5410
  571MOL0     N75290   3.899  10.932   9.145 -0.3969 -0.2456 -0.4170
  571MOL0     N75291   3.981  11.023   9.094 -0.5738 -0.3724 -0.6469
  571MOL0     C75292   5.267  11.420   9.140  0.2811 -0.3342 -0.4066
  571MOL0     C75293   5.401  11.427   9.185  0.1447  0.5050 -0.2336
  571MOL0     C75294   5.759  11.258   9.410  0.2714  0.9381 -0.4276
  571MOL0     C75295   5.789  11.168   9.519  0.5406  0.0867  0.1783
  571MOL0     C75296   5.903  11.185   9.592  1.1880 -0.0521 -0.7843
  571MOL0     C75297   5.998  11.288   9.561  0.0748 -0.6456  0.5931
  571MOL0     O75298   6.101  11.326   9.652  0.1361  0.1958  0.1335
  571MOL0     C75299   6.186  11.220   9.698  0.0079 -0.3790  0.7549
  571MOL0     C75300   6.288  11.203   9.583  0.2706 -0.0120 -0.5043
  571MOL0     C75301   6.384  11.321   9.546  0.0952 -0.6524 -0.5297
  571MOL0     C75302   6.489  11.352   9.663  0.1899 -0.0333  0.2475
  571MOL0     C75303   6.613  11.410   9.614 -0.4441  0.4389  0.8810
  571MOL0     C75304   6.724  11.427   9.561 -0.8787  0.9008  0.1595
  571MOL0     C75305   5.969  11.369   9.448 -0.5836  0.2420 -0.1873
  571MOL0     C75306   5.853  11.348   9.374 -0.1154 -1.2674 -0.1199
  571MOL0     H75307   5.487  11.112   9.107 -0.4537  0.1704  2.6809
  571MOL0     H75308   5.257  11.103   9.037 -1.1988 -0.6699  4.0887
  571MOL0     H75309   5.047  11.509   9.014 -0.0240  0.8894 -0.1995
  571MOL0     H75310   4.985  11.435   9.170 -1.1570 -3.5325  0.7283
  571MOL0     H75311   4.885  11.327   8.911  0.0173 -1.7621  1.8439
  571MOL0     H75312   4.838  11.490   8.951  1.9844  1.2331  0.7139
  571MOL0     H75313   4.735  11.387   9.173 -0.9062  1.0724 -0.5926
  571MOL0     H75314   4.836  11.246   9.126  0.5998  1.6135  3.3094
  571MOL0     H75315   4.604  11.357   8.974 -2.6913 -1.5973 -0.4761
  571MOL0     H75316   4.686  11.196   8.930  2.4666 -3.1848  2.9577
  571MOL0     H75317   4.521  11.260   9.183 -0.5351 -1.7815  2.5224
  571MOL0     H75318   4.600  11.103   9.142 -0.3013  0.3657 -1.1715
  571MOL0     H75319   4.464  11.092   8.925 -0.0501 -1.0452  0.3870
  571MOL0     H75320   4.395  11.242   8.973 -0.0312  1.4823  1.4095
  571MOL0     H75321   4.375  10.978   9.150  2.6441  0.9057  0.2451
  571MOL0     H75322   4.305  11.132   9.183  2.6210  2.4821 -1.6087
  571MOL0     H75323   4.243  10.979   8.929  4.6032  2.6776  0.1256
  571MOL0     H75324   4.169  11.129   8.965  0.2231  1.4777  1.5225
  571MOL0     H75325   4.182  10.775   9.142  0.6695 -0.0770 -2.7915
  571MOL0     H75326   3.870  10.676   9.302  0.2843  0.6661 -0.6478
  571MOL0     H75327   4.018  10.614   9.216  0.6376 -0.2932 -3.9430
  571MOL0     H75328   3.803  10.510   9.124 -0.9098  0.5288  0.7511
  571MOL0     H75329   3.906  10.600   9.011 -1.2480  1.6702 -0.3069
  571MOL0     H75330   3.738  10.780   8.981 -0.1474 -1.1708 -2.5285
  571MOL0     H75331   3.660  10.630   8.976  1.4731  0.6889 -1.8113
  571MOL0     H75332   3.549  10.787   9.129 -1.4372 -1.0182  2.3064
  571MOL0     H75333   3.675  10.774   9.247 -0.1589  2.6761 -0.6720
  571MOL0     H75334   3.386  10.709   9.052 -0.9905 -0.7185 -1.0006
  571MOL0     H75335   3.162  10.636   9.027  1.6635  0.6058  1.0903
  571MOL0     H75336   2.832  10.721   9.065  2.6183 -1.1214 -2.0373
  571MOL0     H75337   2.596  10.757   9.080 -1.2785 -0.2022 -3.5423
  571MOL0     H75338   2.397  10.648   8.897 -0.9951 -1.0169  0.7023
  571MOL0     H75339   2.347  10.754   9.042 -3.0576  0.2011  0.3758
  571MOL0     H75340   2.157  10.638   9.085  0.4824 -1.5185 -0.4507
  571MOL0     H75341   2.193  10.529   8.954  0.9167  0.3942 -2.9737
  571MOL0     H75342   2.175  10.700   8.789 -2.0264 -1.1395  0.3018
  571MOL0     H75343   2.150  10.825   8.903 -0.6625  0.2597 -1.5994
  571MOL0     H75344   1.967  10.568   8.911  2.4553  0.1500 -0.0163
  571MOL0     H75345   1.951  10.721   8.993  0.3829  1.8252 -1.0569
  571MOL0     H75346   1.915  10.676   8.685 -2.0506 -1.2091 -0.6470
  571MOL0     H75347   1.953  10.834   8.742  0.2998 -0.4938 -0.1824
  571MOL0     H75348   1.718  10.800   8.709  1.3362 -2.3287 -1.5868
  571MOL0     H75349   1.731  10.799   8.890  1.1112 -0.0540  1.1437
  571MOL0     H75350   1.713  10.535   8.748 -2.2187 -1.1521  0.7692
  571MOL0     H75351   1.697  10.575   8.916  1.3038  3.2773  1.0001
  571MOL0     H75352   1.478  10.530   8.818 -1.5075  0.7612 -0.3327
  571MOL0     H75353   1.507  10.641   8.693  1.5756 -1.2413 -1.2073
  571MOL0     H75354   2.527  10.339   9.068 -0.9041  1.4154  0.2192
  571MOL0     H75355   2.778  10.303   9.057  1.9340 -0.1954 -0.1562
  571MOL0     H75356   3.230  10.304   9.275  2.3304 -0.9001 -1.2835
  571MOL0     H75357   3.468  10.368   9.293 -0.5512  0.1711  1.0372
  571MOL0     H75358   5.208  11.502   9.177 -0.3324 -1.6412  1.7306
  571MOL0     H75359   5.437  11.511   9.243  0.4576  1.2723 -1.4981
  571MOL0     H75360   5.714  11.100   9.559 -0.2263  0.4630 -0.5915
  571MOL0     H75361   5.923  11.133   9.685  0.9670  2.0308  0.4756
  571MOL0     H75362   6.132  11.125   9.695 -1.1523  0.2178 -2.4758
  571MOL0     H75363   6.225  11.254   9.794  0.2777  0.4034  0.3804
  571MOL0     H75364   6.356  11.124   9.617 -1.5216 -1.1319  0.6620
  571MOL0     H75365   6.234  11.166   9.495  0.8169 -0.3351 -0.7099
  571MOL0     H75366   6.318  11.409   9.538  0.9568  0.3514  2.0782
  571MOL0     H75367   6.423  11.294   9.448 -0.5632  0.8565 -1.2402
  571MOL0     H75368   6.447  11.423   9.736 -2.1773 -0.1644 -0.8868
  571MOL0     H75369   6.514  11.261   9.717 -0.9382  0.3201  1.4359
  571MOL0     H75370   6.822  11.427   9.518 -1.8222 -0.7864 -2.1721
  571MOL0     H75371   6.036  11.452   9.432  0.0468 -0.6045 -2.2834
  571MOL0     H75372   5.835  11.405   9.284  1.5349  1.3974  1.1157
  572MOL0     O75373   6.410   9.965   4.237 -0.0494 -0.3443  0.1289
  572MOL0     C75374   6.504  10.039   4.259  0.5737  0.0395  0.2290
  572MOL0     O75375   6.623  10.032   4.200 -0.3457  0.7416 -0.1658
  572MOL0     C75376   6.644   9.924   4.112  0.6177  0.7058 -0.3597
  572MOL0     C75377   6.669   9.788   4.146 -0.8268 -0.0683 -0.2089
  572MOL0     C75378   6.684   9.684   4.050 -0.7295  0.1995 -0.8200
  572MOL0     C75379   6.671   9.713   3.912 -0.8423 -0.1113 -0.5430
  572MOL0     O75380   6.678   9.631   3.806  0.4188  0.0423 -0.1037
  572MOL0     C75381   6.745   9.508   3.817  0.9617  0.1251 -0.2384
  572MOL0     C75382   6.708   9.418   3.705  0.3843  0.4882  0.4914
  572MOL0     C75383   6.556   9.400   3.708 -0.1278  0.9782  0.6131
  572MOL0     C75384   6.514   9.323   3.834  0.1678  0.6291  1.1260
  572MOL0     C75385   6.371   9.270   3.835 -0.0955  0.0275 -0.4421
  572MOL0     C75386   6.273   9.386   3.813 -1.8049 -0.1085 -0.4254
  572MOL0     C75387   6.136   9.349   3.863  0.2129  0.0859 -0.5090
  572MOL0     C75388   6.059   9.295   3.738 -0.4001  0.5369 -0.1226
  572MOL0     N75389   5.921   9.249   3.773  0.0628 -0.6078 -0.1121
  572MOL0     C75390   5.824   9.330   3.828 -0.1789  0.0317  0.2666
  572MOL0     C75391   5.723   9.240   3.858  0.7309 -0.0758 -0.2624
  572MOL0     C75392   5.598   9.284   3.927  0.3689  0.1872 -0.7350
  572MOL0     C75393   5.627   9.346   4.072 -0.4696 -0.3672 -0.5178
  572MOL0     C75394   5.493   9.380   4.124 -0.7286  0.5369  0.4598
  572MOL0     C75395   5.495   9.461   4.250  0.6133  0.2841 -0.1016
  572MOL0     O75396   5.365   9.471   4.315 -0.3955 -0.2892 -0.1691
  572MOL0     C75397   5.282   9.579   4.288 -0.1043 -1.2403 -0.6704
  572MOL0     C75398   5.160   9.573   4.351 -0.1077  0.2601  0.0905
  572MOL0     C75399   5.062   9.667   4.320 -0.6429 -0.7165  0.5320
  572MOL0     C75400   5.094   9.770   4.236  0.4825 -0.4763  0.2271
  572MOL0     C75401   4.996   9.878   4.212 -0.0695 -0.2392 -1.3025
  572MOL0     O75402   5.050  10.000   4.184 -0.1199 -0.2473  0.8373
  572MOL0     C75403   4.970  10.112   4.186  0.0031  0.2035 -0.4410
  572MOL0     C75404   4.871  10.134   4.089 -0.0818  0.3169 -0.1673
  572MOL0     C75405   4.799  10.254   4.095  0.3491  0.0805  0.9185
  572MOL0     C75406   4.815  10.356   4.191 -0.2418  0.4169 -0.1995
  572MOL0     O75407   4.752  10.471   4.158 -0.2491  0.5909  0.2784
  572MOL0     C75408   4.807  10.588   4.219  0.1674  0.3231  0.7050
  572MOL0     C75409   4.767  10.717   4.147  0.0192  0.0228 -0.1379
  572MOL0     C75410   4.855  10.724   4.021 -0.2264 -0.0886  0.8166
  572MOL0     C75411   4.833  10.856   3.951  0.6216  0.7474 -0.5173
  572MOL0     C75412   4.925  10.858   3.839  0.1114  0.5603 -0.7903
  572MOL0     C75413   4.900  10.992   3.759 -0.0801 -0.8393  0.5156
  572MOL0     C75414   4.961  11.121   3.820  0.0829  0.4237 -0.3489
  572MOL0     C75415   5.099  11.114   3.873  1.1986 -0.6373 -0.5712
  572MOL0    Cl75416   5.174  11.262   3.932  0.3196 -0.2561  0.1963
  572MOL0     C75417   4.920  10.334   4.275 -0.0936  0.2739 -0.7406
  572MOL0     C75418   5.000  10.215   4.276 -0.0707  0.9426 -0.0618
  572MOL0     O75419   4.878   9.848   4.243 -0.9050  0.9380  1.2471
  572MOL0     C75420   5.218   9.777   4.171  0.3870 -0.8537 -0.4501
  572MOL0     C75421   5.303   9.673   4.188  0.5327 -0.3456 -0.4736
  572MOL0     N75422   5.760   9.110   3.813 -0.2849  0.2021 -1.1424
  572MOL0     N75423   5.876   9.119   3.761  0.5771  0.0700  0.0785
  572MOL0     C75424   6.646   9.841   3.874  1.3125  0.1503  0.1823
  572MOL0     C75425   6.630   9.944   3.971 -0.7775  0.4720  0.1618
  572MOL0     C75426   6.469  10.162   4.332  1.0106 -0.4125  0.7546
  572MOL0     C75427   6.342  10.192   4.376  0.1625  0.4900  0.0492
  572MOL0     C75428   6.313  10.314   4.433 -0.7347 -0.1494 -0.4975
  572MOL0     C75429   6.413  10.409   4.468 -0.3586  0.3939  0.2483
  572MOL0     O75430   6.394  10.512   4.555 -0.2948 -0.5021 -0.1627
  572MOL0     C75431   6.265  10.530   4.615  0.2007 -0.1260  0.6883
  572MOL0     C75432   6.254  10.644   4.717 -0.2084 -0.5088  0.2593
  572MOL0     C75433   6.114  10.636   4.783  0.2711 -0.7244  0.2218
  572MOL0     C75434   6.104  10.728   4.902 -1.0252  0.1150  0.0867
  572MOL0     C75435   5.964  10.718   4.948  0.6037  0.5486  0.1688
  572MOL0     C75436   5.855  10.714   5.002  0.1272 -0.6975  0.3033
  572MOL0     C75437   6.538  10.389   4.416 -0.0530 -0.2233  0.1127
  572MOL0     C75438   6.564  10.268   4.341 -0.3905 -0.1046  0.3256
  572MOL0     H75439   6.683   9.770   4.252 -1.7215  0.8986  0.0861
  572MOL0     H75440   6.699   9.584   4.089  2.8372  0.2094 -1.8222
  572MOL0     H75441   6.721   9.464   3.915  1.7834  2.2222  0.9790
  572MOL0     H75442   6.852   9.529   3.821  0.9456  0.4543 -1.3271
  572MOL0     H75443   6.774   9.330   3.710 -0.4884 -0.1957  0.2935
  572MOL0     H75444   6.728   9.473   3.613 -2.5790  0.0304 -0.5270
  572MOL0     H75445   6.534   9.339   3.620  1.7654 -1.7314  1.8436
  572MOL0     H75446   6.502   9.495   3.707 -0.1284  0.9684 -0.4484
  572MOL0     H75447   6.586   9.241   3.836 -0.8676 -0.4575 -1.4828
  572MOL0     H75448   6.534   9.384   3.922  0.7120  2.3571 -0.1521
  572MOL0     H75449   6.366   9.216   3.930  1.6203 -2.3570 -1.5792
  572MOL0     H75450   6.351   9.202   3.751  0.7626 -1.9553  0.8838
  572MOL0     H75451   6.283   9.434   3.715 -0.7914  0.2989 -0.1338
  572MOL0     H75452   6.310   9.467   3.876 -0.2607  0.5831 -2.1231
  572MOL0     H75453   6.139   9.275   3.944  3.3643  1.5442  0.8731
  572MOL0     H75454   6.084   9.441   3.888 -0.7177 -0.0176 -1.9317
  572MOL0     H75455   6.117   9.209   3.703 -0.0952  0.9233 -0.5784
  572MOL0     H75456   6.046   9.374   3.664 -0.0815  2.1507  1.4709
  572MOL0     H75457   5.828   9.437   3.848  0.9933  0.3338 -1.3453
  572MOL0     H75458   5.543   9.190   3.931  2.0679 -0.9164 -1.7216
  572MOL0     H75459   5.539   9.353   3.866 -1.4492 -1.7863 -1.3094
  572MOL0     H75460   5.691   9.434   4.076 -1.3689  0.2841  3.1188
  572MOL0     H75461   5.676   9.274   4.138  1.4166  2.1265  0.9492
  572MOL0     H75462   5.457   9.446   4.044  1.6937 -0.6092 -1.7457
  572MOL0     H75463   5.424   9.297   4.142 -2.7838  1.8451 -0.9306
  572MOL0     H75464   5.556   9.551   4.239  0.4796  0.3118 -0.6687
  572MOL0     H75465   5.551   9.399   4.321 -0.1261  0.1435  0.3770
  572MOL0     H75466   5.140   9.488   4.415 -2.9032  0.1841 -0.7360
  572MOL0     H75467   4.971   9.672   4.379 -0.7871  1.9794  0.1853
  572MOL0     H75468   4.836  10.050   4.029 -0.9273 -0.4605  1.3496
  572MOL0     H75469   4.721  10.268   4.021  4.0701  1.1334 -3.2370
  572MOL0     H75470   4.913  10.604   4.236 -0.0479  2.2541  0.4744
  572MOL0     H75471   4.778  10.582   4.324  1.6305 -0.8229  1.0764
  572MOL0     H75472   4.787  10.804   4.211 -1.2612  0.6400 -0.5618
  572MOL0     H75473   4.660  10.712   4.129 -0.4217 -1.6316  2.3777
  572MOL0     H75474   4.846  10.633   3.961  0.6027 -0.5508  1.3697
  572MOL0     H75475   4.954  10.727   4.068  1.0357 -0.0758 -1.7015
  572MOL0     H75476   4.732  10.853   3.910  0.3243  2.0667  0.0728
  572MOL0     H75477   4.845  10.941   4.018  3.4321 -0.6850  0.9823
  572MOL0     H75478   4.901  10.779   3.767 -0.5102 -0.9654  0.9972
  572MOL0     H75479   5.031  10.857   3.866 -0.0838  1.5943  0.0855
  572MOL0     H75480   4.797  11.013   3.728 -0.1453 -0.8863  0.7025
  572MOL0     H75481   4.961  10.970   3.671  1.2588 -1.1677  1.4955
  572MOL0     H75482   4.971  11.192   3.737  1.4772  1.5291  0.7187
  572MOL0     H75483   4.894  11.153   3.901  0.9777 -1.5735  1.2664
  572MOL0     H75484   5.166  11.073   3.797  1.0141  0.2906 -1.2591
  572MOL0     H75485   5.099  11.047   3.960  0.4315  0.2439  0.1300
  572MOL0     H75486   4.935  10.411   4.350 -1.8920 -1.1712  1.2341
  572MOL0     H75487   5.088  10.206   4.338  2.0665  0.9475 -2.8740
  572MOL0     H75488   5.251   9.860   4.110  3.2829 -1.1318  0.5920
  572MOL0     H75489   5.398   9.695   4.139  0.4373 -0.0230 -0.5213
  572MOL0     H75490   6.624   9.871   3.772  1.0576 -0.7976 -0.0518
  572MOL0     H75491   6.612  10.040   3.923 -1.6401 -0.5693 -1.7152
  572MOL0     H75492   6.263  10.120   4.354 -0.1568  0.0661  2.3242
  572MOL0     H75493   6.217  10.336   4.479 -1.3675 -0.3638 -1.6772
  572MOL0     H75494   6.235  10.438   4.666 -0.5659  0.1755  0.8001
  572MOL0     H75495   6.193  10.551   4.535  2.6841 -0.9265 -1.9154
  572MOL0     H75496   6.332  10.630   4.793  1.6101  0.4028 -1.3572
  572MOL0     H75497   6.272  10.742   4.672 -2.7839  0.6537  1.5203
  572MOL0     H75498   6.078  10.541   4.823 -1.3166 -0.1093  0.3429
  572MOL0     H75499   6.040  10.672   4.710 -1.0579 -2.2180  0.7525
  572MOL0     H75500   6.180  10.709   4.978 -0.1817 -2.5873 -1.2869
  572MOL0     H75501   6.125  10.830   4.869  0.0678 -0.1709 -0.1627
  572MOL0     H75502   5.754  10.716   5.037 -0.0575 -0.1719 -0.2448
  572MOL0     H75503   6.613  10.462   4.444  0.9792 -2.1255  2.6559
  572MOL0     H75504   6.666  10.260   4.304 -0.1361 -0.5593  1.1080
  573MOL0     O75505   4.650   1.017   0.805 -0.4060  0.7885 -0.6781
  573MOL0     C75506   4.563   1.026   0.892 -1.9109  0.5642 -0.6769
  573MOL0     O75507   4.583   1.036   1.024  0.0993  0.2666  0.1078
  573MOL0     C75508   4.711   1.037   1.079 -0.6576  0.2604  0.5552
  573MOL0     C75509   4.806   0.937   1.043  0.4190  0.0922 -0.0965
  573MOL0     C75510   4.940   0.945   1.087  0.6259  0.7779 -0.4833
  573MOL0     C75511   4.988   1.055   1.149 -0.1847 -0.4894 -0.4684
  573MOL0     O75512   5.115   1.046   1.191 -0.4350 -0.0052  0.1304
  573MOL0     C75513   5.185   1.166   1.229  0.1741  0.4242  0.0347
  573MOL0     C75514   5.214   1.262   1.109 -0.3631 -0.0377  0.2702
  573MOL0     C75515   5.271   1.401   1.157  0.9161 -0.7150 -0.2248
  573MOL0     C75516   5.283   1.491   1.026  0.3120 -0.9908  0.4233
  573MOL0     C75517   5.360   1.624   1.065  0.8358  0.1294 -0.6833
  573MOL0     C75518   5.373   1.699   0.943 -0.5514 -1.1077  1.2095
  573MOL0     C75519   5.495   1.656   0.851  0.5643  0.5060 -0.1363
  573MOL0     C75520   5.634   1.684   0.909 -0.2941  0.5965  0.6064
  573MOL0     N75521   5.670   1.827   0.925  0.9934  0.7814  0.6573
  573MOL0     C75522   5.689   1.926   0.833 -0.3425 -0.0908 -0.3945
  573MOL0     C75523   5.733   2.024   0.894  0.3128 -0.1376 -0.0904
  573MOL0     C75524   5.756   2.160   0.829 -0.4607  0.7971 -0.2075
  573MOL0     C75525   5.885   2.232   0.882 -0.0119 -0.7067 -0.1302
  573MOL0     C75526   5.919   2.342   0.781 -0.5303  0.1726  0.2721
  573MOL0     C75527   6.023   2.434   0.845  0.1389  0.6497  0.4660
  573MOL0     O75528   6.123   2.368   0.913 -0.3840  0.5411  0.0892
  573MOL0     C75529   6.237   2.321   0.850 -0.1998  0.4808  0.5438
  573MOL0     C75530   6.350   2.400   0.864 -0.0097 -0.1226  0.3704
  573MOL0     C75531   6.477   2.362   0.814  0.3724 -0.1609  0.0790
  573MOL0     C75532   6.489   2.248   0.735  0.2624 -1.1566  0.1740
  573MOL0     C75533   6.613   2.201   0.681 -0.3225  0.1536  0.0295
  573MOL0     O75534   6.726   2.283   0.698 -0.8222  0.1653 -0.1589
  573MOL0     C75535   6.849   2.242   0.644  1.1725 -0.3446 -0.9772
  573MOL0     C75536   6.912   2.322   0.546 -0.1299 -0.0024 -0.3033
  573MOL0     C75537   7.034   2.285   0.492 -0.4403 -0.0834  0.8783
  573MOL0     C75538   7.104   2.176   0.545  0.0107  0.1648 -0.6919
  573MOL0     O75539   7.233   2.145   0.507 -0.2322 -0.3609 -0.2073
  573MOL0     C75540   7.325   2.249   0.543 -1.0440  0.8515  0.1103
  573MOL0     C75541   7.463   2.185   0.518 -0.1845  0.0650 -0.3886
  573MOL0     C75542   7.508   2.166   0.373 -0.9987  0.3640 -0.5401
  573MOL0     C75543   7.490   2.290   0.282  0.2590  0.5741  0.3865
  573MOL0     C75544   7.550   2.266   0.139 -0.0110  0.5936  0.9697
  573MOL0     C75545   7.701   2.283   0.147 -0.7107  0.0390 -0.7582
  573MOL0     C75546   7.762   2.278   0.009 -0.1941 -0.0431  0.0179
  573MOL0     C75547   7.741   2.145  -0.055  0.5748  0.3094 -0.6532
  573MOL0    Cl75548   7.839   2.021   0.046  0.2877 -0.0232  0.0304
  573MOL0     C75549   7.040   2.098   0.644 -0.1002  0.5053  0.4676
  573MOL0     C75550   6.906   2.125   0.687  0.4149  0.1708 -0.5965
  573MOL0     O75551   6.606   2.092   0.621  0.8111 -0.3828 -0.4285
  573MOL0     C75552   6.374   2.169   0.725 -0.4362 -0.3314 -1.0241
  573MOL0     C75553   6.254   2.203   0.783  0.3975  0.4030  0.8804
  573MOL0     N75554   5.742   2.001   1.023 -0.0933 -0.0980  0.0273
  573MOL0     N75555   5.701   1.878   1.042 -0.0848 -0.2386  0.4012
  573MOL0     C75556   4.892   1.154   1.186  0.4158  0.5071 -0.2426
  573MOL0     C75557   4.756   1.149   1.150  0.0102  0.2443  0.0840
  573MOL0     C75558   4.424   1.026   0.860 -0.4881 -0.0640 -0.0228
  573MOL0     C75559   4.322   1.024   0.962 -0.1297 -0.5365  0.2197
  573MOL0     C75560   4.187   1.024   0.929 -0.5143 -0.3467  0.3996
  573MOL0     C75561   4.147   1.007   0.801 -0.4836 -0.1955  0.2432
  573MOL0     O75562   4.013   0.968   0.785 -0.1708  0.5415  0.0619
  573MOL0     C75563   3.975   0.944   0.649 -0.1727  0.5015 -0.0320
  573MOL0     C75564   3.827   0.914   0.643 -0.1085  0.5232  0.5650
  573MOL0     C75565   3.786   0.916   0.490  0.3263  0.0642  0.6593
  573MOL0     C75566   3.634   0.885   0.476  0.7865 -0.5521 -0.3739
  573MOL0     C75567   3.594   0.745   0.477  0.0225 -0.3398 -0.2471
  573MOL0     C75568   3.552   0.634   0.479  0.7944  0.5736  0.2282
  573MOL0     C75569   4.241   1.009   0.699 -0.1226 -0.3933 -0.3395
  573MOL0     C75570   4.383   1.021   0.730  1.1706 -0.4834  0.0799
  573MOL0     H75571   4.769   0.855   0.983 -2.2335  1.1386 -0.0297
  573MOL0     H75572   5.010   0.863   1.070  3.4237  1.7880  4.3712
  573MOL0     H75573   5.281   1.129   1.267 -0.1266  0.8496  1.2333
  573MOL0     H75574   5.129   1.215   1.309  2.2450 -0.5424  2.1650
  573MOL0     H75575   5.127   1.276   1.043 -1.5591  2.1527  2.1379
  573MOL0     H75576   5.287   1.209   1.047 -1.1333 -2.5034  1.3423
  573MOL0     H75577   5.365   1.376   1.207  1.4799  1.2807 -0.2003
  573MOL0     H75578   5.192   1.442   1.220  0.1845 -1.0755 -0.8914
  573MOL0     H75579   5.329   1.438   0.943 -0.1719 -0.3869 -0.2499
  573MOL0     H75580   5.182   1.515   0.989  0.0353 -1.7996  0.6323
  573MOL0     H75581   5.459   1.615   1.112  0.9135  0.4774 -0.7699
  573MOL0     H75582   5.298   1.678   1.137  0.5153 -0.6137 -0.4034
  573MOL0     H75583   5.385   1.803   0.974 -1.4650 -1.0716  1.4653
  573MOL0     H75584   5.285   1.695   0.878 -0.6506 -0.4012  1.2884
  573MOL0     H75585   5.493   1.547   0.837 -2.4442  0.7141 -2.3195
  573MOL0     H75586   5.490   1.705   0.754 -0.8846  0.7761  0.0540
  573MOL0     H75587   5.708   1.643   0.839 -0.4273 -0.7743  1.2380
  573MOL0     H75588   5.641   1.623   0.999 -3.5688 -2.2387 -0.8346
  573MOL0     H75589   5.684   1.903   0.727  2.0441  0.1795 -0.6292
  573MOL0     H75590   5.659   2.212   0.824 -2.4165 -2.4324  0.7658
  573MOL0     H75591   5.783   2.142   0.724 -1.8158  0.6835 -0.5591
  573MOL0     H75592   5.962   2.154   0.888  0.1901 -0.4178  3.0496
  573MOL0     H75593   5.854   2.278   0.977 -0.3499 -0.2577 -0.4572
  573MOL0     H75594   5.955   2.294   0.689  0.4291  1.9682 -0.3634
  573MOL0     H75595   5.828   2.398   0.756 -1.0894 -0.6245  0.5011
  573MOL0     H75596   5.977   2.504   0.915 -1.7250  1.2308 -1.2165
  573MOL0     H75597   6.056   2.501   0.765 -4.0074  1.1654 -1.0624
  573MOL0     H75598   6.332   2.496   0.909  3.7773  0.8624  0.1303
  573MOL0     H75599   6.554   2.437   0.827  0.9548 -0.8141  0.4948
  573MOL0     H75600   6.854   2.407   0.513  1.1745  1.5502  1.1742
  573MOL0     H75601   7.074   2.347   0.412 -1.5010  0.1788  0.5353
  573MOL0     H75602   7.315   2.277   0.648  1.7970 -0.3607  0.7882
  573MOL0     H75603   7.304   2.343   0.491  0.6104  1.7772  1.0568
  573MOL0     H75604   7.448   2.092   0.574 -0.0492  0.4877  0.3721
  573MOL0     H75605   7.537   2.249   0.567 -0.9214 -0.1833  1.0970
  573MOL0     H75606   7.463   2.076   0.329 -0.7133  0.7238 -1.5921
  573MOL0     H75607   7.612   2.138   0.391 -1.4163 -0.4951  0.6782
  573MOL0     H75608   7.382   2.310   0.283  0.0965 -0.2249 -0.3302
  573MOL0     H75609   7.539   2.377   0.328 -1.9530  1.3793  1.3623
  573MOL0     H75610   7.513   2.347   0.074  1.1552  1.4419  1.3410
  573MOL0     H75611   7.524   2.167   0.101 -0.1377 -0.0005  2.5495
  573MOL0     H75612   7.741   2.218   0.225 -0.9881 -0.5300 -1.0794
  573MOL0     H75613   7.722   2.387   0.170  0.6787 -0.5959  1.0604
  573MOL0     H75614   7.731   2.351  -0.066 -2.3670 -0.7015  0.2190
  573MOL0     H75615   7.871   2.284   0.015 -0.0365  0.3061 -2.4416
  573MOL0     H75616   7.781   2.157  -0.157  0.1257 -1.7442 -1.1334
  573MOL0     H75617   7.637   2.113  -0.065  0.8212 -0.3222 -1.3398
  573MOL0     H75618   7.101   2.020   0.688 -0.2814  0.3061  0.3629
  573MOL0     H75619   6.869   2.047   0.753 -0.9002  0.5157 -0.8991
  573MOL0     H75620   6.379   2.079   0.665 -0.4657  0.8516 -2.8705
  573MOL0     H75621   6.163   2.144   0.776  1.1667 -1.1613  3.2757
  573MOL0     H75622   4.925   1.240   1.243  2.8734  0.5397 -1.5919
  573MOL0     H75623   4.692   1.233   1.177  0.2243  0.7482 -0.9224
  573MOL0     H75624   4.349   1.012   1.066 -1.0590  2.5815  0.9410
  573MOL0     H75625   4.110   1.036   1.004  0.9324  3.0900  1.5264
  573MOL0     H75626   4.034   0.857   0.620  1.4835 -0.0092  4.1721
  573MOL0     H75627   4.008   1.027   0.587  2.6531 -0.5427 -0.0600
  573MOL0     H75628   3.798   0.818   0.686 -1.5317 -0.0831 -1.5550
  573MOL0     H75629   3.773   0.991   0.699 -0.7486 -0.8535  1.9168
  573MOL0     H75630   3.848   0.842   0.437  1.9523  1.9367 -0.1782
  573MOL0     H75631   3.810   1.015   0.450  1.3839  0.6793  2.6885
  573MOL0     H75632   3.570   0.927   0.554 -2.4750 -4.0035 -0.8621
  573MOL0     H75633   3.604   0.920   0.377  0.1306 -0.0624 -0.0060
  573MOL0     H75634   3.498   0.542   0.478 -3.1401  2.6448 -1.8256
  573MOL0     H75635   4.209   1.006   0.595  0.5209 -2.2532 -0.5200
  573MOL0     H75636   4.458   1.027   0.653  2.2678  1.0086  1.2032
  574MOL0     O75637   9.495   2.575   0.807  0.0599  0.4058 -0.2868
  574MOL0     C75638   9.593   2.539   0.746  0.1581 -0.2175  0.2038
  574MOL0     O75639   9.639   2.414   0.746  0.6871  0.7668 -0.0770
  574MOL0     C75640   9.564   2.308   0.787 -0.5054 -1.1771  0.4738
  574MOL0     C75641   9.635   2.213   0.856 -0.1446  0.3181 -0.1980
  574MOL0     C75642   9.579   2.090   0.897 -0.3076 -0.2349 -0.0476
  574MOL0     C75643   9.444   2.070   0.862  0.5283  0.9101 -0.1703
  574MOL0     O75644   9.403   1.952   0.915  0.3886  0.1793  0.3989
  574MOL0     C75645   9.260   1.920   0.921  0.2247 -0.6571 -0.0579
  574MOL0     C75646   9.255   1.776   0.977  0.7877  0.9077  0.0455
  574MOL0     C75647   9.119   1.702   0.971  0.1568  0.0602  0.3823
  574MOL0     C75648   9.004   1.786   1.026  0.1399 -0.9555 -0.5158
  574MOL0     C75649   8.868   1.722   1.032 -0.1573 -0.1321  0.6295
  574MOL0     C75650   8.872   1.570   1.058  0.0992 -0.5636 -0.0198
  574MOL0     C75651   8.723   1.529   1.056  0.8971 -0.4253  0.2894
  574MOL0     C75652   8.696   1.386   1.072 -0.3061 -0.0100  0.0838
  574MOL0     N75653   8.549   1.362   1.088  0.2440 -0.0178  0.0503
  574MOL0     C75654   8.467   1.358   0.978 -0.4791  0.1721  0.1313
  574MOL0     C75655   8.345   1.341   1.035  0.9515  0.2061 -0.0508
  574MOL0     C75656   8.226   1.305   0.957 -0.0463 -0.1074 -0.1197
  574MOL0     C75657   8.096   1.382   1.003 -0.2129 -0.6931  0.0574
  574MOL0     C75658   8.115   1.535   1.019  0.1025 -0.6040 -1.4206
  574MOL0     C75659   7.983   1.583   1.086  0.1618  0.0260 -0.6179
  574MOL0     O75660   7.992   1.722   1.102  0.5218 -0.4681  0.4913
  574MOL0     C75661   7.886   1.792   1.154  0.0761 -0.1060  0.0447
  574MOL0     C75662   7.765   1.736   1.188  0.3155 -0.1550  0.1284
  574MOL0     C75663   7.664   1.796   1.249  0.2212 -1.3125  0.3166
  574MOL0     C75664   7.682   1.935   1.269 -0.9163 -0.2847 -0.0979
  574MOL0     C75665   7.573   2.020   1.329  0.0157  1.2867 -0.0119
  574MOL0     O75666   7.451   1.953   1.339 -0.2739  0.3255 -0.3732
  574MOL0     C75667   7.340   2.018   1.385 -0.2646  0.2629  0.6402
  574MOL0     C75668   7.339   2.133   1.474  0.4349  0.6978 -0.2406
  574MOL0     C75669   7.219   2.191   1.518 -0.4320  0.3427 -0.2487
  574MOL0     C75670   7.103   2.146   1.458  1.0552  0.6483  0.3107
  574MOL0     O75671   6.980   2.211   1.488 -0.9971  1.1680  0.2781
  574MOL0     C75672   6.903   2.143   1.583  0.3451  0.2032  0.3326
  574MOL0     C75673   6.805   2.243   1.648 -0.1583  0.1591  0.8640
  574MOL0     C75674   6.689   2.265   1.562  0.4902 -0.4806 -0.2693
  574MOL0     C75675   6.596   2.360   1.635  0.2831  0.8227  0.3998
  574MOL0     C75676   6.504   2.417   1.534 -0.2570 -0.0237  0.3410
  574MOL0     C75677   6.383   2.470   1.626 -0.5126  0.2695  0.7268
  574MOL0     C75678   6.265   2.508   1.541  0.3317 -0.4612  0.2178
  574MOL0     C75679   6.137   2.518   1.640 -0.6775  0.2959 -1.2027
  574MOL0    Cl75680   5.997   2.620   1.605 -0.0484 -0.0498  0.4805
  574MOL0     C75681   7.101   2.038   1.371  0.2872  0.9703  0.5504
  574MOL0     C75682   7.220   1.977   1.333  0.1781  0.6566  0.8038
  574MOL0     O75683   7.593   2.133   1.373  1.0984  0.2096  0.4015
  574MOL0     C75684   7.805   1.999   1.246  0.5460  0.2320 -0.2554
  574MOL0     C75685   7.904   1.926   1.181 -0.2965  0.1674 -0.0091
  574MOL0     N75686   8.358   1.334   1.172  0.6876  0.7052 -0.3467
  574MOL0     N75687   8.483   1.333   1.198 -0.3515  0.3511 -0.3368
  574MOL0     C75688   9.374   2.158   0.788 -0.1347 -0.8521  0.2731
  574MOL0     C75689   9.436   2.277   0.751  0.5459  0.2100 -0.3093
  574MOL0     C75690   9.684   2.645   0.687  0.1150 -0.2589 -0.6593
  574MOL0     C75691   9.815   2.618   0.644  0.3372 -0.1675  0.0066
  574MOL0     C75692   9.900   2.717   0.592 -0.2667 -0.1293  0.5942
  574MOL0     C75693   9.860   2.848   0.575 -0.4473  0.0251  0.9736
  574MOL0     O75694   9.946   2.948   0.527  0.0651  0.2293 -0.1898
  574MOL0     C75695  10.064   2.917   0.447 -0.1945  0.8652  0.8555
  574MOL0     C75696  10.061   2.968   0.302  0.7808 -0.0534  0.4245
  574MOL0     C75697  10.051   3.119   0.301 -0.3710 -0.6179  0.5600
  574MOL0     C75698  10.067   3.167   0.148  0.3079 -0.3382  0.0772
  574MOL0     C75699  10.056   3.310   0.129 -0.2785  0.1713 -0.2026
  574MOL0     C75700  10.030   3.427   0.103 -1.2176 -0.3916  0.2882
  574MOL0     C75701   9.731   2.875   0.616  0.5279  0.0042  0.8498
  574MOL0     C75702   9.646   2.780   0.674 -0.9239 -0.1476  0.3787
  574MOL0     H75703   9.742   2.218   0.872 -0.4651 -0.2852  2.7007
  574MOL0     H75704   9.642   2.023   0.954  0.5965 -0.1661 -0.9443
  574MOL0     H75705   9.218   1.912   0.820  0.1286 -2.4393  0.0936
  574MOL0     H75706   9.218   1.989   0.995  0.5899 -0.0571 -0.4071
  574MOL0     H75707   9.289   1.768   1.080  2.1035 -2.1041 -0.5247
  574MOL0     H75708   9.326   1.715   0.920 -0.1677 -0.7533  0.5529
  574MOL0     H75709   9.125   1.611   1.030 -0.3251  1.1181  2.1300
  574MOL0     H75710   9.083   1.689   0.869 -3.5859 -2.9657  1.8360
  574MOL0     H75711   9.027   1.816   1.129  2.3244  1.8860 -1.7326
  574MOL0     H75712   8.994   1.872   0.960 -1.4252  1.7894  2.9342
  574MOL0     H75713   8.833   1.719   0.928  2.4007 -1.4913 -0.2926
  574MOL0     H75714   8.794   1.781   1.087 -0.1441  1.4165 -0.9031
  574MOL0     H75715   8.912   1.546   1.156  2.6979 -2.6504 -1.4495
  574MOL0     H75716   8.929   1.506   0.989  0.5856 -1.2065  0.9621
  574MOL0     H75717   8.664   1.574   1.136  1.0229 -0.4208  0.3792
  574MOL0     H75718   8.686   1.569   0.961 -0.3740 -2.4028 -0.1054
  574MOL0     H75719   8.761   1.343   1.150  0.5982 -1.9376 -1.6361
  574MOL0     H75720   8.740   1.329   0.990  3.5184 -1.0824  2.6015
  574MOL0     H75721   8.490   1.358   0.872 -0.8241  1.4122  0.0422
  574MOL0     H75722   8.204   1.198   0.963  1.0413 -0.6276 -3.3318
  574MOL0     H75723   8.251   1.335   0.855  1.2430 -1.3544 -0.2041
  574MOL0     H75724   8.072   1.340   1.101 -1.5642  0.6979  0.3612
  574MOL0     H75725   8.009   1.353   0.942 -0.1017  0.2137 -0.5599
  574MOL0     H75726   8.199   1.548   1.087 -1.7192 -0.9554  1.0508
  574MOL0     H75727   8.127   1.587   0.923 -3.0397  0.7730 -1.1990
  574MOL0     H75728   7.966   1.538   1.184  1.9724  0.2152 -0.1773
  574MOL0     H75729   7.902   1.567   1.014 -0.1301 -1.7575  0.0705
  574MOL0     H75730   7.740   1.632   1.170  1.9654 -0.9321  2.0033
  574MOL0     H75731   7.578   1.737   1.280 -2.0072 -0.0274 -2.8557
  574MOL0     H75732   7.429   2.183   1.508 -0.3431  2.8561 -1.2107
  574MOL0     H75733   7.214   2.260   1.601 -0.6520 -0.3227  0.2981
  574MOL0     H75734   6.958   2.115   1.674 -1.3634  2.2815  2.1157
  574MOL0     H75735   6.859   2.056   1.533 -0.5360  0.4666  0.6402
  574MOL0     H75736   6.869   2.331   1.655  3.6098 -2.0578 -1.5380
  574MOL0     H75737   6.776   2.202   1.745  0.7276 -1.0225  0.6587
  574MOL0     H75738   6.643   2.168   1.540 -0.2266  0.0284 -1.0967
  574MOL0     H75739   6.717   2.306   1.465 -0.2342  2.1130  0.5217
  574MOL0     H75740   6.545   2.297   1.708 -2.0468  1.8539 -0.2328
  574MOL0     H75741   6.653   2.441   1.683  2.4274  0.4017 -1.2540
  574MOL0     H75742   6.461   2.346   1.462 -1.0002  2.3982 -1.7768
  574MOL0     H75743   6.544   2.499   1.473  0.1401  0.8147  1.6956
  574MOL0     H75744   6.405   2.564   1.676 -2.3315  0.5528  1.0683
  574MOL0     H75745   6.350   2.392   1.696  1.9146 -0.5547  1.0357
  574MOL0     H75746   6.274   2.610   1.501 -0.5890 -0.3542  0.2506
  574MOL0     H75747   6.248   2.436   1.461 -0.2543  0.9563 -0.9894
  574MOL0     H75748   6.179   2.538   1.740 -1.2739 -0.1190 -0.8639
  574MOL0     H75749   6.095   2.418   1.647 -1.3587  0.6643  3.0798
  574MOL0     H75750   7.013   2.011   1.315  0.8482  1.7754 -0.7616
  574MOL0     H75751   7.221   1.914   1.245 -1.6095 -0.1831  1.3629
  574MOL0     H75752   7.821   2.101   1.280 -0.6824  0.3436  0.0334
  574MOL0     H75753   8.007   1.958   1.171  0.2912 -0.9883  1.8821
  574MOL0     H75754   9.272   2.139   0.758 -0.8844  0.2265  1.9749
  574MOL0     H75755   9.386   2.350   0.688  3.7648  0.7484 -2.4842
  574MOL0     H75756   9.858   2.521   0.669 -2.2843 -0.6041  3.6096
  574MOL0     H75757  10.004   2.691   0.575 -0.7086 -1.5567 -0.0906
  574MOL0     H75758  10.082   2.810   0.433  4.7327  1.5617  0.0102
  574MOL0     H75759  10.153   2.961   0.494 -0.8495  1.5704  1.4800
  574MOL0     H75760  10.152   2.941   0.248  2.2123  1.7134  1.8168
  574MOL0     H75761   9.972   2.936   0.248 -0.2214  0.9998  1.3856
  574MOL0     H75762  10.135   3.157   0.360 -0.0865 -3.3459  2.0744
  574MOL0     H75763   9.954   3.141   0.345 -0.6387 -1.0279  0.1786
  574MOL0     H75764  10.166   3.133   0.115 -0.1863 -1.3071 -0.4571
  574MOL0     H75765   9.987   3.126   0.086 -1.2412  2.8303 -0.2376
  574MOL0     H75766  10.013   3.526   0.066 -1.2008  0.0386  1.3838
  574MOL0     H75767   9.711   2.982   0.613  0.4270 -0.0390 -1.3457
  574MOL0     H75768   9.553   2.803   0.726 -1.2674 -0.4995 -0.0664
  575MOL0     O75769   0.463   3.699   9.079 -0.1870 -0.5984  0.3008
  575MOL0     C75770   0.370   3.671   9.003 -0.0086 -0.1299 -0.4353
  575MOL0     O75771   0.375   3.676   8.863 -0.2550  0.3273  0.0657
  575MOL0     C75772   0.502   3.694   8.806  0.7377  0.3897 -0.3607
  575MOL0     C75773   0.543   3.795   8.721 -0.3241 -0.0752 -0.5845
  575MOL0     C75774   0.654   3.786   8.644 -0.8890  0.4709 -0.1334
  575MOL0     C75775   0.751   3.679   8.664  0.3896  0.1332 -1.0139
  575MOL0     O75776   0.865   3.706   8.598 -0.5033 -0.4193 -0.4739
  575MOL0     C75777   0.962   3.598   8.606 -0.9744 -0.2146  0.1964
  575MOL0     C75778   1.102   3.649   8.561  0.0255  0.2683 -0.4144
  575MOL0     C75779   1.217   3.547   8.614  0.3881  0.0802 -0.0544
  575MOL0     C75780   1.345   3.621   8.647 -0.4033  0.9674  0.5517
  575MOL0     C75781   1.459   3.519   8.653 -0.0215  1.0265  0.1634
  575MOL0     C75782   1.599   3.580   8.687  0.7093 -0.0443  0.5983
  575MOL0     C75783   1.710   3.483   8.658 -0.7298  0.4192  0.2395
  575MOL0     C75784   1.761   3.399   8.780 -0.0986  0.3588  0.8321
  575MOL0     N75785   1.830   3.285   8.724  0.8327  0.4074  0.9983
  575MOL0     C75786   1.765   3.186   8.653  0.1981 -0.0020 -0.3274
  575MOL0     C75787   1.862   3.131   8.580 -0.4804 -0.0085  0.6361
  575MOL0     C75788   1.851   3.022   8.476  0.1898  0.3067 -0.3222
  575MOL0     C75789   1.706   2.979   8.447  0.7548  0.5542 -0.9119
  575MOL0     C75790   1.630   3.069   8.345 -0.4265 -0.0675  0.0729
  575MOL0     C75791   1.487   3.028   8.322  0.1524 -0.3155  0.9977
  575MOL0     O75792   1.415   3.058   8.446  0.5682  0.2956  0.1813
  575MOL0     C75793   1.283   3.066   8.435  0.6555 -0.2474  0.0852
  575MOL0     C75794   1.215   3.138   8.530  0.1685  0.0564 -0.3070
  575MOL0     C75795   1.076   3.133   8.557  0.7590  0.0810 -0.0068
  575MOL0     C75796   0.993   3.047   8.473 -0.1883  0.1441  1.4333
  575MOL0     C75797   0.848   3.041   8.489  0.0065  0.0120  0.6585
  575MOL0     O75798   0.774   2.960   8.420 -0.3802  0.4795  0.3627
  575MOL0     C75799   0.642   2.944   8.458  0.2048 -0.0597  1.6041
  575MOL0     C75800   0.536   3.017   8.393  0.1075  0.7009  0.1662
  575MOL0     C75801   0.407   2.999   8.437  0.0050 -0.0300  0.1463
  575MOL0     C75802   0.371   2.905   8.541 -0.3813  0.8640  0.2171
  575MOL0     O75803   0.245   2.873   8.579  0.3778  0.2335 -0.3380
  575MOL0     C75804   0.170   2.984   8.615  0.4911  1.0341 -0.0344
  575MOL0     C75805   0.035   2.944   8.685 -0.1025  1.2045  0.0452
  575MOL0     C75806  -0.065   2.897   8.577  0.1444 -0.0407  1.2612
  575MOL0     C75807  -0.208   2.929   8.620 -0.1093 -0.0431  0.5566
  575MOL0     C75808  -0.318   2.869   8.528  0.0168  0.3570 -0.6551
  575MOL0     C75809  -0.354   2.720   8.549 -0.0487 -0.0391 -0.0520
  575MOL0     C75810  -0.404   2.655   8.423 -0.4018  0.6304  0.5734
  575MOL0     C75811  -0.542   2.705   8.374  0.1584 -0.2781 -0.1058
  575MOL0    Cl75812  -0.672   2.718   8.495 -0.5586 -0.1888 -1.0128
  575MOL0     C75813   0.477   2.840   8.601  0.1670 -0.6179  0.3455
  575MOL0     C75814   0.614   2.860   8.562  0.2961  0.2897  0.6962
  575MOL0     O75815   0.805   3.131   8.558 -0.0949 -0.2934 -0.4259
  575MOL0     C75816   1.064   2.973   8.369  0.6897 -0.2456 -0.4056
  575MOL0     C75817   1.209   2.980   8.351 -0.2241 -0.8125  0.1379
  575MOL0     N75818   1.978   3.196   8.608  0.1800  0.4985 -1.3394
  575MOL0     N75819   1.960   3.285   8.702 -0.5636  0.1018 -0.2243
  575MOL0     C75820   0.715   3.569   8.743 -0.0626  0.4628 -0.7643
  575MOL0     C75821   0.587   3.580   8.808  0.8051 -0.4933  0.3342
  575MOL0     C75822   0.240   3.609   9.052  0.5831 -0.0852  0.4069
  575MOL0     C75823   0.127   3.584   8.968  0.1454  0.3032  0.0384
  575MOL0     C75824   0.004   3.546   9.019 -0.2211 -0.0210  0.1470
  575MOL0     C75825  -0.023   3.527   9.153 -0.2676 -0.7571 -0.0072
  575MOL0     O75826  -0.137   3.475   9.203 -0.5104 -0.0474 -0.0758
  575MOL0     C75827  -0.263   3.525   9.151 -0.1570  0.1712  0.2352
  575MOL0     C75828  -0.378   3.473   9.235  0.2630  0.2262 -0.2802
  575MOL0     C75829  -0.400   3.519   9.382  0.1309  0.1699  0.4915
  575MOL0     C75830  -0.305   3.440   9.473  0.0241 -0.7201  0.0270
  575MOL0     C75831  -0.346   3.298   9.475 -0.0666 -0.3155  0.2920
  575MOL0     C75832  -0.347   3.176   9.479 -0.3076 -0.6573  0.2839
  575MOL0     C75833   0.090   3.545   9.237  0.3440 -0.4107  0.9078
  575MOL0     C75834   0.225   3.577   9.188  0.6980  0.6389 -0.6145
  575MOL0     H75835   0.471   3.874   8.700  1.9782  2.1098 -0.6210
  575MOL0     H75836   0.671   3.872   8.579 -2.5094  0.7973 -0.1733
  575MOL0     H75837   0.950   3.516   8.535  1.5373 -0.1753 -0.3696
  575MOL0     H75838   0.966   3.561   8.709  0.3913  0.9371  0.6013
  575MOL0     H75839   1.122   3.745   8.609  2.0287 -0.2681 -0.1084
  575MOL0     H75840   1.120   3.660   8.454  1.3653  3.0985  0.0181
  575MOL0     H75841   1.237   3.479   8.531  0.1946 -2.0816  1.5943
  575MOL0     H75842   1.191   3.507   8.713  3.3538  0.8736  1.1349
  575MOL0     H75843   1.365   3.685   8.560  1.1877  1.2289  1.0780
  575MOL0     H75844   1.347   3.687   8.734  0.6716  2.6475 -0.6730
  575MOL0     H75845   1.467   3.474   8.553 -1.9912  1.4703 -0.2369
  575MOL0     H75846   1.446   3.446   8.733  3.1880  2.0496  1.7945
  575MOL0     H75847   1.607   3.606   8.793 -1.4893  2.1283  0.3230
  575MOL0     H75848   1.619   3.676   8.636  0.0112 -1.5524 -2.8144
  575MOL0     H75849   1.679   3.416   8.577 -2.2759 -0.6362  1.6396
  575MOL0     H75850   1.794   3.537   8.615  0.0439 -1.1771 -0.3439
  575MOL0     H75851   1.680   3.357   8.841 -0.5457  2.0361  1.4597
  575MOL0     H75852   1.820   3.456   8.853 -1.0572  0.7104  1.3519
  575MOL0     H75853   1.660   3.170   8.628  0.2176 -1.4507  0.3745
  575MOL0     H75854   1.919   2.943   8.508  1.7458  1.6185 -0.2761
  575MOL0     H75855   1.888   3.073   8.387  0.1206  2.1142  0.6258
  575MOL0     H75856   1.656   2.963   8.542 -0.1861 -0.1745 -1.5137
  575MOL0     H75857   1.696   2.879   8.404 -0.7390 -0.5498  1.7574
  575MOL0     H75858   1.630   3.174   8.376  1.7465 -0.6266  2.2869
  575MOL0     H75859   1.689   3.075   8.253 -0.3895  0.3266  0.1199
  575MOL0     H75860   1.476   2.924   8.288  0.7955 -0.1252  0.1868
  575MOL0     H75861   1.447   3.089   8.240 -1.7476 -0.0467  2.0522
  575MOL0     H75862   1.271   3.200   8.599  1.6346 -0.6080 -0.8445
  575MOL0     H75863   1.034   3.206   8.626 -0.9984 -0.2258 -0.7048
  575MOL0     H75864   0.549   3.079   8.304 -0.8548  3.3940  1.7572
  575MOL0     H75865   0.323   3.047   8.388  1.9923  2.5258 -0.9639
  575MOL0     H75866   0.149   3.037   8.522 -2.9429 -2.6031 -1.6376
  575MOL0     H75867   0.222   3.055   8.681 -0.0653  0.5466  0.9597
  575MOL0     H75868   0.013   3.030   8.748  3.4930  2.0108  0.4279
  575MOL0     H75869   0.052   2.855   8.746  0.6901  1.5189  0.2869
  575MOL0     H75870  -0.062   2.792   8.548  0.8183  1.0701 -3.5851
  575MOL0     H75871  -0.042   2.948   8.483  1.0703  1.0115  2.0236
  575MOL0     H75872  -0.225   2.896   8.723 -0.7829  4.3281  2.0529
  575MOL0     H75873  -0.222   3.035   8.598 -1.6726 -0.8845 -3.5093
  575MOL0     H75874  -0.281   2.887   8.427 -2.7287  0.0221 -1.8033
  575MOL0     H75875  -0.401   2.940   8.542  0.3183  0.4536  0.8469
  575MOL0     H75876  -0.424   2.705   8.631 -2.0524  0.1424 -1.6698
  575MOL0     H75877  -0.258   2.674   8.577  0.3653  2.1787  2.6027
  575MOL0     H75878  -0.337   2.658   8.336 -1.5852 -0.1152 -0.3871
  575MOL0     H75879  -0.409   2.548   8.444  2.3554  0.2529 -0.1982
  575MOL0     H75880  -0.569   2.632   8.298  1.0055 -0.7483  0.0329
  575MOL0     H75881  -0.529   2.800   8.321 -1.8108 -0.0267 -0.2035
  575MOL0     H75882   0.456   2.788   8.694  0.5719 -0.8930  0.2860
  575MOL0     H75883   0.694   2.805   8.610  1.0944 -0.9454 -1.8961
  575MOL0     H75884   1.019   2.903   8.300  2.4709 -2.2663  0.3528
  575MOL0     H75885   1.250   2.923   8.269  2.3415  0.3184  0.5507
  575MOL0     H75886   0.784   3.488   8.763  0.5557  1.5176  1.8723
  575MOL0     H75887   0.561   3.511   8.888  0.2819 -0.8095 -0.1027
  575MOL0     H75888   0.139   3.609   8.863 -0.0036  4.2906  0.8163
  575MOL0     H75889  -0.078   3.533   8.950  0.5448  2.1964 -1.2861
  575MOL0     H75890  -0.285   3.488   9.050 -0.2754 -0.0287  0.3321
  575MOL0     H75891  -0.247   3.632   9.144  4.9719 -0.3614  0.4238
  575MOL0     H75892  -0.467   3.496   9.175  1.1223 -2.3716 -2.7416
  575MOL0     H75893  -0.371   3.364   9.229 -2.0783  0.0122  0.1067
  575MOL0     H75894  -0.504   3.502   9.409  0.2331  0.1538  0.8810
  575MOL0     H75895  -0.372   3.622   9.406  0.5278 -0.0372  0.9469
  575MOL0     H75896  -0.199   3.448   9.448 -0.2128 -0.4932 -0.9724
  575MOL0     H75897  -0.315   3.480   9.574 -0.9533 -0.8535 -0.0102
  575MOL0     H75898  -0.334   3.070   9.482 -2.8669 -1.0277  0.4530
  575MOL0     H75899   0.078   3.532   9.344  1.7791 -0.5839  1.0595
  575MOL0     H75900   0.308   3.591   9.256  1.0800  1.1134 -1.1706
  576MOL0     O75901  10.195   5.870   0.072 -0.0671 -0.1112 -0.3255
  576MOL0     C75902  10.268   5.946   0.134 -0.1911 -0.2641 -0.3477
  576MOL0     O75903  10.250   5.972   0.267 -0.1855  0.0811  0.5724
  576MOL0     C75904  10.132   5.939   0.320  0.3666  0.1392 -0.4458
  576MOL0     C75905  10.007   5.984   0.276  0.0471 -1.1664  0.2873
  576MOL0     C75906   9.891   5.944   0.336  0.7272 -0.0101 -0.0288
  576MOL0     C75907   9.895   5.869   0.460  0.1987 -0.5403 -0.3263
  576MOL0     O75908   9.778   5.843   0.537  0.2564 -0.5177  0.1764
  576MOL0     C75909   9.648   5.891   0.476 -0.3768 -0.1232  1.0424
  576MOL0     C75910   9.539   5.866   0.580 -0.3649 -0.2964 -0.3266
  576MOL0     C75911   9.400   5.895   0.518  0.9431 -0.8886  1.3374
  576MOL0     C75912   9.294   5.920   0.624 -0.1867 -0.1601 -0.7308
  576MOL0     C75913   9.205   6.037   0.598  0.6615  0.7168  1.1207
  576MOL0     C75914   9.108   6.000   0.481 -0.7726  0.4293 -0.3675
  576MOL0     C75915   8.999   6.104   0.447 -0.5893 -0.6724 -0.1828
  576MOL0     C75916   8.893   6.050   0.354 -0.2078 -1.0623 -0.4659
  576MOL0     N75917   8.772   6.140   0.322  0.3694 -0.0968 -0.1447
  576MOL0     C75918   8.776   6.273   0.295 -0.4700 -0.7274 -0.9356
  576MOL0     C75919   8.647   6.310   0.272 -0.0929  0.6819  0.4595
  576MOL0     C75920   8.599   6.448   0.240  0.2463  0.3196 -0.0303
  576MOL0     C75921   8.510   6.507   0.343  0.0737 -0.1265  0.2481
  576MOL0     C75922   8.457   6.640   0.286 -0.3132 -0.0098 -0.6615
  576MOL0     C75923   8.358   6.701   0.392 -0.0381  0.8801 -0.2110
  576MOL0     O75924   8.239   6.619   0.384 -0.5145  0.6075  0.1343
  576MOL0     C75925   8.139   6.637   0.482  0.0226  0.1369 -0.3252
  576MOL0     C75926   8.006   6.608   0.447 -0.6569  0.6837 -0.2656
  576MOL0     C75927   7.897   6.638   0.528 -0.3000 -0.6648  0.1588
  576MOL0     C75928   7.914   6.700   0.653 -0.3402  0.0711  0.3405
  576MOL0     C75929   7.799   6.730   0.738  0.3305  0.0002 -0.8184
  576MOL0     O75930   7.817   6.847   0.797 -0.3509 -0.3844  0.0395
  576MOL0     C75931   7.738   6.885   0.901  0.2887  0.6432 -0.2650
  576MOL0     C75932   7.792   6.885   1.028  0.3776  0.5732 -0.8011
  576MOL0     C75933   7.714   6.933   1.132  0.1396  0.5016 -0.6520
  576MOL0     C75934   7.587   6.989   1.110  0.0828  0.7599  0.2105
  576MOL0     O75935   7.507   7.032   1.215 -0.7346  0.4447 -0.0285
  576MOL0     C75936   7.592   7.093   1.318  0.6775 -0.1025 -0.9685
  576MOL0     C75937   7.486   7.169   1.396  0.2534 -1.2571 -0.4051
  576MOL0     C75938   7.411   7.277   1.324 -0.4837 -1.4753 -0.0270
  576MOL0     C75939   7.306   7.363   1.415 -0.7359  0.1182  0.0355
  576MOL0     C75940   7.226   7.456   1.320  0.2305 -0.0671 -0.4726
  576MOL0     C75941   7.126   7.554   1.391 -0.5041  0.5169 -0.3135
  576MOL0     C75942   7.092   7.673   1.296  0.6838 -0.5248 -0.4804
  576MOL0     C75943   7.003   7.768   1.366  1.1441  0.6054  0.2645
  576MOL0    Cl75944   6.855   7.679   1.418  0.2154  0.0796  0.3643
  576MOL0     C75945   7.533   6.983   0.984  0.3691 -0.9981 -0.9838
  576MOL0     C75946   7.608   6.925   0.876  1.3718 -0.7299  0.7363
  576MOL0     O75947   7.703   6.657   0.746  0.3349  1.0600  0.7627
  576MOL0     C75948   8.044   6.727   0.692  0.0248 -0.7543  0.4408
  576MOL0     C75949   8.158   6.700   0.607  0.2690 -0.3376  0.0351
  576MOL0     N75950   8.561   6.200   0.293  0.2360  0.4928 -0.2813
  576MOL0     N75951   8.640   6.102   0.329 -1.0542 -0.4641  0.1339
  576MOL0     C75952  10.018   5.837   0.511 -0.5965 -0.0995 -0.4305
  576MOL0     C75953  10.134   5.853   0.435 -0.3138  0.1398 -0.0584
  576MOL0     C75954  10.371   6.004   0.057 -0.0870  0.7155 -0.1414
  576MOL0     C75955  10.449   6.114   0.108  0.1499 -0.7324  0.2444
  576MOL0     C75956  10.546   6.166   0.030  0.0471  1.0565 -0.0656
  576MOL0     C75957  10.572   6.132  -0.098 -1.3446 -0.7715  0.1230
  576MOL0     O75958  10.667   6.200  -0.174  0.0946  0.4298  1.0625
  576MOL0     C75959  10.771   6.117  -0.237  0.0307 -0.0598 -0.0341
  576MOL0     C75960  10.898   6.193  -0.253 -0.0750 -0.1919 -0.1873
  576MOL0     C75961  10.922   6.294  -0.133  0.1820 -0.0465 -0.3825
  576MOL0     C75962  11.058   6.360  -0.143 -0.8001 -0.7563 -0.2765
  576MOL0     C75963  11.165   6.266  -0.108  0.3403 -0.1171 -0.1717
  576MOL0     C75964  11.256   6.199  -0.070  0.4124  0.2837 -0.7644
  576MOL0     C75965  10.494   6.032  -0.153 -0.0160 -0.2297  0.6058
  576MOL0     C75966  10.401   5.965  -0.075  0.2036 -0.0684 -0.3933
  576MOL0     H75967   9.997   6.045   0.187  3.1094 -2.3007 -0.9793
  576MOL0     H75968   9.799   5.977   0.288  1.6093  0.9953 -1.0935
  576MOL0     H75969   9.620   5.848   0.380  0.6934 -0.2801  0.7860
  576MOL0     H75970   9.658   6.000   0.466  3.4087 -0.4291 -0.3585
  576MOL0     H75971   9.555   5.927   0.670  1.6255 -1.6694  0.3399
  576MOL0     H75972   9.551   5.763   0.616 -1.3827  0.3538  2.0768
  576MOL0     H75973   9.372   5.812   0.453 -0.4685  0.7249 -0.2332
  576MOL0     H75974   9.408   5.982   0.453 -0.4493 -2.9216 -1.8030
  576MOL0     H75975   9.237   5.826   0.628  0.7812 -0.7883 -1.2498
  576MOL0     H75976   9.345   5.935   0.719 -0.9668  0.7488 -0.4445
  576MOL0     H75977   9.261   6.127   0.569 -0.7169  1.6501  1.2719
  576MOL0     H75978   9.144   6.066   0.684  0.5947 -0.3669  1.4590
  576MOL0     H75979   9.062   5.909   0.521  2.1232 -0.5861  0.8894
  576MOL0     H75980   9.161   5.964   0.392  0.0520 -0.6340  0.5290
  576MOL0     H75981   8.951   6.126   0.543  0.4761 -3.5334  1.1137
  576MOL0     H75982   9.040   6.200   0.413 -4.0734  1.5684  1.3935
  576MOL0     H75983   8.862   5.952   0.392 -0.7575 -0.8511 -0.3744
  576MOL0     H75984   8.942   6.022   0.260  1.0593  0.0973 -0.1893
  576MOL0     H75985   8.861   6.339   0.285  0.2794 -1.1608  1.9250
  576MOL0     H75986   8.545   6.440   0.145  0.1643  0.2544  0.0219
  576MOL0     H75987   8.687   6.512   0.248 -0.7111  1.4271  3.2127
  576MOL0     H75988   8.563   6.527   0.437  1.1029  0.5387 -0.4486
  576MOL0     H75989   8.425   6.445   0.372  1.2650 -2.0614 -0.2520
  576MOL0     H75990   8.536   6.715   0.278 -0.5481  0.3222  0.0501
  576MOL0     H75991   8.416   6.624   0.186 -1.1057 -0.3760 -0.2841
  576MOL0     H75992   8.331   6.804   0.368  2.7899  1.3422 -1.7860
  576MOL0     H75993   8.406   6.696   0.490 -2.1443  0.1133  0.8548
  576MOL0     H75994   7.987   6.551   0.357 -0.1428  0.5285 -0.2758
  576MOL0     H75995   7.798   6.611   0.494 -0.7038 -1.0761  1.6186
  576MOL0     H75996   7.884   6.833   1.054  0.0522  1.4617  2.5924
  576MOL0     H75997   7.755   6.924   1.232  1.0146  1.5338 -0.8990
  576MOL0     H75998   7.671   7.157   1.279  1.5396 -1.4869 -1.5748
  576MOL0     H75999   7.634   7.012   1.379  2.2814  0.5051 -1.2218
  576MOL0     H76000   7.539   7.220   1.477 -1.1120  2.3380 -1.5725
  576MOL0     H76001   7.410   7.103   1.437 -1.7218  0.7195 -0.6686
  576MOL0     H76002   7.359   7.247   1.233 -1.7191 -0.7001  0.3964
  576MOL0     H76003   7.494   7.345   1.304 -0.6838 -0.9643  0.8055
  576MOL0     H76004   7.241   7.294   1.470  0.1759  0.0517  1.0536
  576MOL0     H76005   7.364   7.415   1.492 -2.1160 -1.1311  2.0258
  576MOL0     H76006   7.173   7.373   1.272  2.8526 -0.7333 -2.4431
  576MOL0     H76007   7.286   7.508   1.245 -1.7600  2.4748 -0.4450
  576MOL0     H76008   7.178   7.586   1.482  2.3302  1.9269 -2.2844
  576MOL0     H76009   7.041   7.492   1.421  0.7328 -2.0926 -1.8468
  576MOL0     H76010   7.177   7.733   1.264  0.9410 -0.5482  0.1447
  576MOL0     H76011   7.034   7.630   1.213  0.5175 -1.8342  0.2820
  576MOL0     H76012   6.971   7.843   1.293  0.9524  2.4311  2.1187
  576MOL0     H76013   7.057   7.826   1.443 -1.1979  0.4017  2.1671
  576MOL0     H76014   7.432   7.019   0.971 -0.9145 -2.3783  3.3093
  576MOL0     H76015   7.568   6.914   0.776  1.6744  2.0304  0.2328
  576MOL0     H76016   8.056   6.783   0.784  2.1851 -0.0042 -0.2347
  576MOL0     H76017   8.257   6.723   0.646  1.2316 -1.5581 -1.5557
  576MOL0     H76018  10.025   5.781   0.604 -1.9549  1.6030  0.7765
  576MOL0     H76019  10.227   5.814   0.476 -0.8526 -0.2668  0.7899
  576MOL0     H76020  10.433   6.146   0.211  0.2584  0.1979 -0.0260
  576MOL0     H76021  10.601   6.249   0.073  0.6802  0.9332 -0.6070
  576MOL0     H76022  10.737   6.078  -0.334 -1.3666  0.5353  0.1918
  576MOL0     H76023  10.779   6.040  -0.160 -1.1183  1.1288  1.3307
  576MOL0     H76024  10.984   6.125  -0.252  0.3626  0.3461  0.7464
  576MOL0     H76025  10.905   6.243  -0.350 -0.9965  0.4430  0.0573
  576MOL0     H76026  10.910   6.250  -0.033  0.8147  0.4596 -0.0760
  576MOL0     H76027  10.840   6.366  -0.137 -1.5743 -1.9612 -1.1705
  576MOL0     H76028  11.074   6.406  -0.241 -1.1311 -1.0590 -0.4738
  576MOL0     H76029  11.059   6.439  -0.067 -1.6773 -0.9210 -0.0905
  576MOL0     H76030  11.336   6.138  -0.035 -1.6478 -1.4204  1.2752
  576MOL0     H76031  10.520   6.004  -0.254 -0.3335  2.8843 -0.4426
  576MOL0     H76032  10.345   5.883  -0.119  0.5935 -0.7036  0.2554
  577MOL0     O76033   8.291   1.120   6.649  0.3818 -0.5282  0.1232
  577MOL0     C76034   8.320   1.056   6.751  0.5502 -0.2197 -0.2706
  577MOL0     O76035   8.230   0.986   6.827  0.5550 -1.0153  0.2697
  577MOL0     C76036   8.107   0.944   6.784 -0.4403 -0.6088  0.3224
  577MOL0     C76037   8.101   0.844   6.693  0.5328  0.0191  0.5268
  577MOL0     C76038   7.969   0.794   6.654  0.0636 -0.1910  0.5974
  577MOL0     C76039   7.861   0.839   6.729  0.4342  0.3033 -0.1411
  577MOL0     O76040   7.734   0.792   6.701  0.1558 -0.2615 -0.6271
  577MOL0     C76041   7.701   0.716   6.596 -0.2236  0.3207  0.5437
  577MOL0     C76042   7.556   0.677   6.635 -0.3336  0.0913 -0.0492
  577MOL0     C76043   7.484   0.642   6.505  0.1161 -0.8956 -0.1244
  577MOL0     C76044   7.335   0.632   6.516  0.4564  0.2725 -1.4510
  577MOL0     C76045   7.279   0.561   6.388  0.0962  0.2511  0.4435
  577MOL0     C76046   7.149   0.621   6.335  0.2927 -0.0120 -0.8890
  577MOL0     C76047   7.087   0.524   6.231  1.0529 -0.0838 -0.5844
  577MOL0     C76048   6.954   0.563   6.156 -1.2605  0.4012 -0.4238
  577MOL0     N76049   6.835   0.552   6.237  0.2323 -0.3582  0.5174
  577MOL0     C76050   6.775   0.659   6.309  0.3854 -0.1526 -0.2234
  577MOL0     C76051   6.659   0.605   6.357 -0.6216 -0.4637 -0.9053
  577MOL0     C76052   6.574   0.672   6.465 -0.4307  0.9810 -0.5164
  577MOL0     C76053   6.448   0.718   6.401 -0.7148 -0.1072 -0.3895
  577MOL0     C76054   6.359   0.597   6.356  0.1392 -0.2035 -0.4463
  577MOL0     C76055   6.203   0.636   6.369  0.3694  0.8600 -0.0087
  577MOL0     O76056   6.131   0.512   6.342 -0.0247  0.1710 -0.6839
  577MOL0     C76057   5.994   0.510   6.329  0.1967  0.6092 -0.2562
  577MOL0     C76058   5.934   0.386   6.322  0.0807  0.5658 -0.5132
  577MOL0     C76059   5.804   0.360   6.293  0.2470 -0.3908 -0.4610
  577MOL0     C76060   5.716   0.471   6.288  0.1658  0.1386  0.8796
  577MOL0     C76061   5.566   0.445   6.279 -0.0281 -0.2051 -0.4547
  577MOL0     O76062   5.534   0.319   6.248 -0.5614 -0.2678 -0.5058
  577MOL0     C76063   5.408   0.275   6.220 -0.0563  0.1104 -0.1622
  577MOL0     C76064   5.302   0.339   6.181  0.1240  0.5941  0.4191
  577MOL0     C76065   5.185   0.280   6.136 -0.3609  0.6312 -0.2254
  577MOL0     C76066   5.180   0.138   6.122 -0.6518  0.1893 -0.2562
  577MOL0     O76067   5.076   0.064   6.076  0.0736  0.2895 -0.1534
  577MOL0     C76068   4.956   0.124   6.051  0.1969  0.4751  0.0969
  577MOL0     C76069   4.853   0.019   6.035  0.4111 -0.4750  0.4493
  577MOL0     C76070   4.718   0.075   5.981 -0.7148  0.7680 -0.5286
  577MOL0     C76071   4.620  -0.039   5.952  0.4137 -0.1904  0.3291
  577MOL0     C76072   4.482   0.021   5.933  0.0456  0.0124 -0.6141
  577MOL0     C76073   4.378  -0.082   5.954  0.5443 -0.4171  0.4474
  577MOL0     C76074   4.241  -0.029   5.917  0.3543  0.0442  0.5460
  577MOL0     C76075   4.138  -0.138   5.945 -0.2287  0.1478  0.0931
  577MOL0    Cl76076   4.095  -0.127   6.124  0.4020 -0.4459 -0.2190
  577MOL0     C76077   5.294   0.064   6.165 -0.9420  1.1319 -0.4770
  577MOL0     C76078   5.406   0.133   6.215 -0.4736  0.4761  0.3211
  577MOL0     O76079   5.484   0.538   6.301  0.0572  0.5060  0.1716
  577MOL0     C76080   5.767   0.599   6.312  0.1178  0.3465 -0.5394
  577MOL0     C76081   5.906   0.617   6.335  0.1182 -0.8889  0.2339
  577MOL0     N76082   6.642   0.487   6.301  0.0002  0.7001  0.0990
  577MOL0     N76083   6.744   0.450   6.240  0.0082  0.1589  0.0936
  577MOL0     C76084   7.871   0.929   6.835 -0.2498 -0.1398 -0.4684
  577MOL0     C76085   7.997   0.987   6.858  0.3971  0.5074 -0.0563
  577MOL0     C76086   8.463   1.064   6.793  0.1226  0.3329  0.7382
  577MOL0     C76087   8.512   0.972   6.887 -0.3709  0.5275  0.0230
  577MOL0     C76088   8.646   0.978   6.924 -0.2305 -0.1406  0.5085
  577MOL0     C76089   8.740   1.069   6.871  0.3814 -0.0791  0.8038
  577MOL0     O76090   8.870   1.061   6.916 -0.0210 -0.0363  0.2197
  577MOL0     C76091   8.970   1.110   6.829 -0.4069 -0.2555 -0.7330
  577MOL0     C76092   9.103   1.049   6.879 -0.7122 -0.1101 -0.6335
  577MOL0     C76093   9.129   0.904   6.821 -0.2275 -0.5785 -0.4977
  577MOL0     C76094   9.280   0.866   6.832 -0.5017 -0.9189 -0.4003
  577MOL0     C76095   9.318   0.781   6.716  1.0592 -0.0020 -0.0475
  577MOL0     C76096   9.355   0.722   6.623 -0.4264  1.0069  0.3627
  577MOL0     C76097   8.688   1.165   6.780 -0.0953 -0.6323  0.2715
  577MOL0     C76098   8.552   1.154   6.737 -0.2455  0.5270 -0.2110
  577MOL0     H76099   8.186   0.805   6.637 -1.4623 -1.2276 -1.8407
  577MOL0     H76100   7.958   0.727   6.570  1.5206  0.1165  0.1305
  577MOL0     H76101   7.755   0.621   6.594 -1.3667 -0.5036 -4.4069
  577MOL0     H76102   7.719   0.773   6.504  0.1587 -0.3389  0.2002
  577MOL0     H76103   7.500   0.756   6.688 -3.5079 -1.9424 -0.0929
  577MOL0     H76104   7.553   0.597   6.709 -1.9652  0.7848  0.6916
  577MOL0     H76105   7.516   0.539   6.488  0.7812 -1.2407  2.7086
  577MOL0     H76106   7.508   0.710   6.423  3.2126 -1.1448  0.4744
  577MOL0     H76107   7.310   0.572   6.604 -1.2946 -0.0555 -2.1432
  577MOL0     H76108   7.276   0.723   6.531 -2.2508 -1.4159 -1.2383
  577MOL0     H76109   7.266   0.455   6.410 -1.0079 -0.5055 -3.1678
  577MOL0     H76110   7.351   0.569   6.307 -0.3386 -0.3597 -0.0180
  577MOL0     H76111   7.171   0.721   6.298 -0.1394  2.1277  3.9658
  577MOL0     H76112   7.082   0.641   6.419  1.3488 -2.4546  0.6701
  577MOL0     H76113   7.165   0.533   6.155 -0.4751  2.6126 -1.9776
  577MOL0     H76114   7.084   0.423   6.273  0.5672  0.6011  1.1007
  577MOL0     H76115   6.954   0.495   6.071  1.4409 -1.6951  1.0856
  577MOL0     H76116   6.960   0.668   6.126 -0.2450  1.0656  1.8737
  577MOL0     H76117   6.809   0.759   6.332  0.9762  0.0403 -1.8033
  577MOL0     H76118   6.624   0.749   6.525  2.2820 -1.5432  0.7187
  577MOL0     H76119   6.550   0.590   6.534  4.9317  0.8330  1.6917
  577MOL0     H76120   6.464   0.787   6.317  0.3761 -0.9121 -0.8700
  577MOL0     H76121   6.408   0.765   6.491 -0.0754 -1.3938  0.5942
  577MOL0     H76122   6.388   0.556   6.259  2.7193 -0.7107  0.4558
  577MOL0     H76123   6.367   0.506   6.417 -2.1074 -2.0330 -2.6722
  577MOL0     H76124   6.182   0.709   6.290 -0.3666  1.0925  0.3910
  577MOL0     H76125   6.182   0.682   6.466 -2.2060  2.2069 -1.0945
  577MOL0     H76126   5.994   0.297   6.339 -0.4789  0.1971 -0.4373
  577MOL0     H76127   5.758   0.262   6.302 -1.4915 -0.0176 -3.7139
  577MOL0     H76128   5.301   0.448   6.181  2.4825  0.6766  0.3916
  577MOL0     H76129   5.102   0.344   6.105  0.9632  1.3917 -2.3583
  577MOL0     H76130   4.957   0.182   5.959 -2.2034  0.0159 -0.2894
  577MOL0     H76131   4.942   0.191   6.136  1.4901 -0.1431  0.8381
  577MOL0     H76132   4.841  -0.042   6.124 -0.6287 -0.9498 -0.0001
  577MOL0     H76133   4.882  -0.059   5.963 -1.3217 -1.7376  1.0539
  577MOL0     H76134   4.725   0.135   5.890  1.2372  3.5750  1.3066
  577MOL0     H76135   4.673   0.135   6.061 -1.9409  1.7360 -1.8822
  577MOL0     H76136   4.648  -0.085   5.857  0.0208  1.6116 -0.7192
  577MOL0     H76137   4.629  -0.109   6.035  1.7236  0.8081  1.0827
  577MOL0     H76138   4.459   0.069   5.837  0.3954  1.6963  0.1156
  577MOL0     H76139   4.467   0.093   6.014  2.6561 -2.1968  2.0383
  577MOL0     H76140   4.385  -0.115   6.058 -0.1650 -1.7307  0.0917
  577MOL0     H76141   4.395  -0.178   5.906 -0.4906 -0.4863  0.2031
  577MOL0     H76142   4.218   0.061   5.974 -1.7505 -0.3906  0.4618
  577MOL0     H76143   4.239  -0.002   5.810 -0.9358  0.9426  0.7672
  577MOL0     H76144   4.182  -0.233   5.913  1.3387  0.6930  0.5173
  577MOL0     H76145   4.049  -0.119   5.884  1.1852  1.7732 -1.6172
  577MOL0     H76146   5.295  -0.045   6.174  1.0511  1.1744  0.4632
  577MOL0     H76147   5.489   0.071   6.247 -0.5652  0.9612  1.5625
  577MOL0     H76148   5.701   0.685   6.324 -1.9557 -1.5348  2.8049
  577MOL0     H76149   5.945   0.718   6.338  1.1258 -1.1191 -2.5548
  577MOL0     H76150   7.779   0.954   6.888  0.2189 -1.0964  0.8631
  577MOL0     H76151   8.020   1.053   6.942 -0.7215 -0.3563  0.9589
  577MOL0     H76152   8.442   0.901   6.928  0.3367 -1.1402 -1.5266
  577MOL0     H76153   8.682   0.900   6.990 -0.7342  0.4235  1.4618
  577MOL0     H76154   8.965   1.219   6.829 -2.1901 -0.2862 -2.2484
  577MOL0     H76155   8.953   1.086   6.724  2.1005 -0.8952 -1.0495
  577MOL0     H76156   9.179   1.124   6.856 -0.9776  1.6794  3.4916
  577MOL0     H76157   9.108   1.031   6.987  0.8178  0.7354 -0.5402
  577MOL0     H76158   9.097   0.903   6.716  0.3900 -0.8404 -0.6832
  577MOL0     H76159   9.065   0.829   6.868 -1.1433  0.5147  0.0639
  577MOL0     H76160   9.338   0.958   6.833 -0.3717 -0.9838  1.1193
  577MOL0     H76161   9.291   0.814   6.928 -2.4404 -1.6511 -0.5329
  577MOL0     H76162   9.390   0.690   6.527 -3.0952  1.1006 -0.7133
  577MOL0     H76163   8.751   1.243   6.737  0.8288 -0.4257  1.8893
  577MOL0     H76164   8.517   1.212   6.653  2.2064  2.4303 -0.0305
  578MOL0     O76165   9.956  11.223   0.635 -0.0331 -0.2895 -0.7983
  578MOL0     C76166   9.923  11.263   0.750 -0.2543 -0.2813 -0.0311
  578MOL0     O76167   9.802  11.274   0.806  0.1300  0.3779  0.0371
  578MOL0     C76168   9.689  11.240   0.738  0.0715  0.3626 -0.2100
  578MOL0     C76169   9.677  11.130   0.649 -0.4324  0.1267 -0.0788
  578MOL0     C76170   9.550  11.106   0.590  0.1472 -0.2102 -0.1256
  578MOL0     C76171   9.435  11.180   0.625  0.6333  0.3924 -0.1205
  578MOL0     O76172   9.317  11.146   0.556 -0.3500 -0.3498 -0.3722
  578MOL0     C76173   9.187  11.206   0.594 -0.6581 -0.5788 -0.1822
  578MOL0     C76174   9.088  11.142   0.496  0.0824 -0.1187  0.1439
  578MOL0     C76175   8.957  11.221   0.495 -0.2177  0.0946  0.5051
  578MOL0     C76176   8.845  11.129   0.451  0.6536 -0.3513  0.2298
  578MOL0     C76177   8.704  11.192   0.423  0.2175 -0.4947 -0.5397
  578MOL0     C76178   8.596  11.085   0.433 -0.1761 -0.5761  0.4185
  578MOL0     C76179   8.464  11.151   0.419  0.1450 -1.1173  0.3073
  578MOL0     C76180   8.357  11.054   0.454  0.5579  0.1153  0.2230
  578MOL0     N76181   8.228  11.090   0.391  0.1167 -1.2006 -0.5139
  578MOL0     C76182   8.162  11.204   0.387 -0.0483 -0.2038 -0.1530
  578MOL0     C76183   8.038  11.171   0.347  0.1980  0.3536 -0.0062
  578MOL0     C76184   7.922  11.262   0.299  0.1713 -1.0876  0.3499
  578MOL0     C76185   7.947  11.312   0.157  0.0309  0.3591  0.1170
  578MOL0     C76186   7.943  11.191   0.057 -0.7795  0.4167  0.7379
  578MOL0     C76187   7.806  11.118   0.043 -0.1598 -0.6323 -0.2072
  578MOL0     O76188   7.707  11.217   0.032 -0.5908 -0.0483  0.3936
  578MOL0     C76189   7.587  11.188  -0.019  0.0880  0.9445 -0.8077
  578MOL0     C76190   7.533  11.057  -0.025  0.8611  0.1790  0.1432
  578MOL0     C76191   7.405  11.043  -0.075 -0.5881 -0.2849  0.6707
  578MOL0     C76192   7.326  11.147  -0.128  0.4739 -0.0477  0.7563
  578MOL0     C76193   7.203  11.127  -0.206  0.4361  0.4300  0.1686
  578MOL0     O76194   7.118  11.231  -0.221  0.5203  0.6583 -0.0974
  578MOL0     C76195   7.000  11.197  -0.290 -0.1863 -0.5186  1.2178
  578MOL0     C76196   6.992  11.212  -0.430 -0.3123  0.0899  0.2628
  578MOL0     C76197   6.878  11.168  -0.497 -0.7269 -0.4166  0.0724
  578MOL0     C76198   6.766  11.129  -0.424  0.8310 -0.1876  0.1566
  578MOL0     O76199   6.639  11.097  -0.474  0.4560  0.1083  0.5054
  578MOL0     C76200   6.611  11.090  -0.615  0.1183  0.3747 -0.0524
  578MOL0     C76201   6.473  11.018  -0.635  0.0541  0.4134  0.3825
  578MOL0     C76202   6.354  11.103  -0.578  0.4501  0.2883 -0.4673
  578MOL0     C76203   6.212  11.059  -0.634 -0.2526  1.0274  0.1114
  578MOL0     C76204   6.109  11.147  -0.564  0.0049  0.0134  0.4798
  578MOL0     C76205   5.963  11.120  -0.603 -0.2058 -0.6469 -0.6572
  578MOL0     C76206   5.911  10.986  -0.551 -0.3292  0.3607  0.0468
  578MOL0     C76207   5.762  10.986  -0.559  0.0507 -0.3965  0.5234
  578MOL0    Cl76208   5.707  10.825  -0.492  0.6171 -0.1337  0.1097
  578MOL0     C76209   6.772  11.128  -0.288  0.6986  0.0405  0.1606
  578MOL0     C76210   6.887  11.159  -0.213 -0.2518 -1.1237 -0.7903
  578MOL0     O76211   7.183  11.009  -0.242 -0.4965 -0.2534 -0.1693
  578MOL0     C76212   7.369  11.279  -0.102  0.5129  0.5269 -0.0997
  578MOL0     C76213   7.496  11.296  -0.048  0.3300 -0.3348  0.3243
  578MOL0     N76214   8.038  11.034   0.340  0.1980 -0.8719 -0.3871
  578MOL0     N76215   8.146  10.981   0.368 -0.4497 -0.4285  0.2932
  578MOL0     C76216   9.446  11.284   0.718  0.0258 -0.6657  0.2718
  578MOL0     C76217   9.572  11.305   0.779  0.5954  0.0120  0.1732
  578MOL0     C76218  10.037  11.300   0.836  0.8801 -0.2372 -1.0530
  578MOL0     C76219  10.156  11.230   0.847  0.2359  1.1187  0.2984
  578MOL0     C76220  10.264  11.270   0.921 -0.5227  0.7415 -0.2158
  578MOL0     C76221  10.261  11.395   0.992  0.7407  0.6844 -0.0702
  578MOL0     O76222  10.373  11.413   1.068 -0.2790 -0.0576  0.3654
  578MOL0     C76223  10.392  11.540   1.129 -0.9796 -0.5370 -1.0328
  578MOL0     C76224  10.529  11.561   1.183 -0.2046  0.2466  0.0715
  578MOL0     C76225  10.627  11.581   1.072 -0.6511 -0.0588 -0.7031
  578MOL0     C76226  10.774  11.549   1.125  0.4940 -0.1599  0.1524
  578MOL0     C76227  10.810  11.634   1.238 -0.1197 -0.1106  0.4577
  578MOL0     C76228  10.843  11.686   1.340 -0.2993 -0.1601  0.1682
  578MOL0     C76229  10.140  11.463   0.996 -0.0587 -0.8666  0.1480
  578MOL0     C76230  10.025  11.414   0.921  0.1286  0.0918 -0.0877
  578MOL0     H76231   9.761  11.066   0.623 -1.2238 -1.6980  1.5878
  578MOL0     H76232   9.540  11.026   0.518  0.0236  0.0763 -0.4283
  578MOL0     H76233   9.176  11.315   0.583 -0.4402 -0.3841  1.3193
  578MOL0     H76234   9.165  11.190   0.700 -0.4505  0.3435  0.0093
  578MOL0     H76235   9.066  11.040   0.529 -3.3075  0.1143 -0.9719
  578MOL0     H76236   9.130  11.148   0.395  1.1546  0.1672  0.5989
  578MOL0     H76237   8.972  11.303   0.425  0.0956  0.4510  0.9864
  578MOL0     H76238   8.933  11.268   0.591  1.9310 -0.1046  1.1868
  578MOL0     H76239   8.881  11.082   0.359  0.2018  1.8636 -1.1297
  578MOL0     H76240   8.826  11.048   0.522 -0.4165 -0.7822 -0.5198
  578MOL0     H76241   8.708  11.231   0.320 -0.1301 -1.7357 -1.0420
  578MOL0     H76242   8.688  11.279   0.487 -0.5036 -1.3663  0.4848
  578MOL0     H76243   8.599  11.029   0.527 -1.5664 -1.3420  0.0313
  578MOL0     H76244   8.607  11.020   0.346  1.8070  1.0336 -0.6159
  578MOL0     H76245   8.467  11.244   0.478 -0.9763 -0.1117 -1.1619
  578MOL0     H76246   8.454  11.181   0.314  2.7179  2.5365  0.8922
  578MOL0     H76247   8.350  11.050   0.564  0.8727  1.9901  0.3575
  578MOL0     H76248   8.382  10.951   0.430  0.5189 -0.4360  2.3033
  578MOL0     H76249   8.188  11.305   0.417 -2.2242  0.3322  0.0857
  578MOL0     H76250   7.921  11.349   0.367  3.2546 -0.0456 -0.7739
  578MOL0     H76251   7.830  11.204   0.298 -0.0172 -0.8420  1.6457
  578MOL0     H76252   8.049  11.352   0.147 -0.1373  0.2326 -3.2598
  578MOL0     H76253   7.875  11.379   0.111  0.3941  0.4524 -0.3269
  578MOL0     H76254   7.978  11.220  -0.043  3.5461 -2.2638  1.1848
  578MOL0     H76255   8.012  11.114   0.092 -0.7443 -0.8169 -1.8035
  578MOL0     H76256   7.787  11.049   0.126 -1.0477  2.4436  2.3199
  578MOL0     H76257   7.815  11.072  -0.056  0.0896  0.6450 -0.7929
  578MOL0     H76258   7.595  10.973   0.007  2.2274  1.5894  1.3751
  578MOL0     H76259   7.381  10.938  -0.090 -2.2669  0.0983  0.5056
  578MOL0     H76260   7.082  11.232  -0.487  1.0281 -1.8190  1.5983
  578MOL0     H76261   6.880  11.145  -0.603 -0.0859 -1.8064  0.3670
  578MOL0     H76262   6.673  11.014  -0.665 -1.1748  0.7633 -2.3962
  578MOL0     H76263   6.622  11.191  -0.653 -3.8826  1.7693  1.9052
  578MOL0     H76264   6.475  10.923  -0.581 -3.8332  0.8224  1.5706
  578MOL0     H76265   6.447  11.000  -0.740  1.9279  4.2753 -0.9403
  578MOL0     H76266   6.371  11.208  -0.602  0.4774  0.7333  1.3252
  578MOL0     H76267   6.355  11.091  -0.469 -1.6364 -0.5937 -0.4906
  578MOL0     H76268   6.217  11.079  -0.742 -2.2671  1.2724  0.0218
  578MOL0     H76269   6.197  10.952  -0.615  0.0703  1.1162  0.9138
  578MOL0     H76270   6.133  11.251  -0.587  2.1600 -0.8123 -1.4247
  578MOL0     H76271   6.123  11.112  -0.461  0.5959 -3.5599 -0.6811
  578MOL0     H76272   5.949  11.127  -0.711 -0.1699  1.7441 -0.5690
  578MOL0     H76273   5.910  11.194  -0.542  2.2813  1.8163 -1.2766
  578MOL0     H76274   5.961  10.906  -0.606  0.1955  0.9488 -0.3439
  578MOL0     H76275   5.939  10.970  -0.447 -0.6056  2.7063  0.5370
  578MOL0     H76276   5.731  10.993  -0.664  2.7214 -1.6852 -0.4655
  578MOL0     H76277   5.717  11.067  -0.502 -1.5047  0.4532 -1.7475
  578MOL0     H76278   6.683  11.087  -0.241 -0.4109  0.6015 -1.3878
  578MOL0     H76279   6.891  11.130  -0.109  0.0266  0.3567 -0.3688
  578MOL0     H76280   7.309  11.366  -0.129 -0.6836  0.5175  2.2269
  578MOL0     H76281   7.536  11.393  -0.023  3.3618 -1.1799 -0.7994
  578MOL0     H76282   9.362  11.344   0.753  0.1440 -0.0973 -0.3873
  578MOL0     H76283   9.579  11.367   0.868  1.5888 -0.7824  0.6675
  578MOL0     H76284  10.164  11.140   0.787  3.2799  2.1251 -1.0099
  578MOL0     H76285  10.347  11.204   0.944  0.6471  1.2700 -2.6624
  578MOL0     H76286  10.320  11.546   1.211  0.1716  0.3043 -0.0578
  578MOL0     H76287  10.365  11.620   1.059 -2.4958 -1.1026 -1.1458
  578MOL0     H76288  10.512  11.651   1.242 -1.2749 -0.2399  0.5222
  578MOL0     H76289  10.559  11.492   1.263 -0.4843  1.2786  1.0830
  578MOL0     H76290  10.619  11.681   1.029 -0.0181  0.5440  0.5282
  578MOL0     H76291  10.604  11.517   0.986  1.6037  0.4796 -1.7892
  578MOL0     H76292  10.794  11.445   1.154 -0.8395  0.1989  2.6232
  578MOL0     H76293  10.843  11.569   1.043  1.4062 -3.0655  0.0683
  578MOL0     H76294  10.857  11.723   1.439  0.0696 -2.8828  1.2131
  578MOL0     H76295  10.141  11.561   1.042  3.3375 -0.1534 -1.1146
  578MOL0     H76296   9.926  11.458   0.927  0.5627  1.3700 -1.6041
  579MOL0     O76297   2.606   6.141   2.924 -0.6992 -0.2199  0.1787
  579MOL0     C76298   2.621   6.048   3.004 -0.6850  0.0219 -0.1815
  579MOL0     O76299   2.526   5.952   3.033 -0.2965  0.3432  0.6286
  579MOL0     C76300   2.418   5.954   2.952 -0.5536  0.0324 -0.0351
  579MOL0     C76301   2.388   5.853   2.867  0.2868  0.3356 -0.2334
  579MOL0     C76302   2.269   5.853   2.785 -0.8035  0.1415  0.2948
  579MOL0     C76303   2.172   5.967   2.800 -0.7494  0.3378  0.0902
  579MOL0     O76304   2.062   5.984   2.724 -0.8916 -0.4238 -0.7669
  579MOL0     C76305   2.023   5.878   2.645  0.7449 -0.6424 -0.1228
  579MOL0     C76306   1.918   5.930   2.550  0.7041 -0.0115 -0.2597
  579MOL0     C76307   1.789   5.978   2.615  0.7266 -0.1234  0.3461
  579MOL0     C76308   1.680   6.016   2.519 -0.6299 -0.0041 -0.7150
  579MOL0     C76309   1.547   6.053   2.585 -0.0811 -1.0593  0.5755
  579MOL0     C76310   1.438   6.105   2.479  0.0462  0.1463  0.6274
  579MOL0     C76311   1.312   6.162   2.550 -0.3442  1.5767 -0.0049
  579MOL0     C76312   1.194   6.158   2.453 -0.1443  0.0819  0.2382
  579MOL0     N76313   1.075   6.221   2.509 -0.4552 -0.2260 -0.4283
  579MOL0     C76314   0.953   6.163   2.515  0.0397 -0.3825 -0.8666
  579MOL0     C76315   0.871   6.241   2.586 -0.1347  0.3652 -0.6877
  579MOL0     C76316   0.726   6.223   2.625  0.4561 -0.3330  0.5328
  579MOL0     C76317   0.633   6.165   2.504 -0.4820 -1.1137  0.1737
  579MOL0     C76318   0.483   6.178   2.551 -0.7280  0.2717 -0.3519
  579MOL0     C76319   0.384   6.139   2.447 -0.0314  0.6078 -0.7028
  579MOL0     O76320   0.367   5.997   2.456 -0.3144 -0.0685 -0.1721
  579MOL0     C76321   0.288   5.934   2.358 -0.6240  0.1581 -0.8451
  579MOL0     C76322   0.214   5.997   2.258  0.7213  0.4401 -0.0685
  579MOL0     C76323   0.125   5.916   2.181 -0.4032 -0.1109  0.1519
  579MOL0     C76324   0.108   5.777   2.204  0.5285 -0.3273 -0.3807
  579MOL0     C76325   0.010   5.699   2.128  0.1656  0.6737 -1.1547
  579MOL0     O76326  -0.077   5.766   2.061 -0.0784 -0.6329 -0.1892
  579MOL0     C76327  -0.202   5.719   2.036  0.7744 -0.1523  0.5891
  579MOL0     C76328  -0.269   5.603   2.076  0.7306  0.5269 -0.1350
  579MOL0     C76329  -0.399   5.567   2.042  0.4700  0.1037  0.3058
  579MOL0     C76330  -0.473   5.656   1.960 -0.1119 -0.4200 -0.4763
  579MOL0     O76331  -0.591   5.615   1.920 -0.4494 -0.0904  0.0081
  579MOL0     C76332  -0.688   5.703   1.866  0.4455  0.2788 -0.1218
  579MOL0     C76333  -0.816   5.625   1.889 -0.1801 -0.1790  0.8226
  579MOL0     C76334  -0.844   5.592   2.044  0.3182 -0.5297  0.7896
  579MOL0     C76335  -0.966   5.507   2.057  0.1031  0.2639 -0.1768
  579MOL0     C76336  -0.984   5.478   2.204  0.1858  1.1488  0.3514
  579MOL0     C76337  -1.117   5.399   2.224 -0.5694 -0.0063  0.8391
  579MOL0     C76338  -1.103   5.254   2.181  0.5031  1.3082  0.8599
  579MOL0     C76339  -1.227   5.155   2.196 -0.6935  0.5536  0.0512
  579MOL0    Cl76340  -1.313   5.181   2.361  0.1752  0.5472 -0.3255
  579MOL0     C76341  -0.418   5.783   1.931 -0.0296 -1.0703 -0.3642
  579MOL0     C76342  -0.287   5.812   1.962  0.3069 -0.0237  0.3871
  579MOL0     O76343   0.020   5.579   2.125 -0.3529  0.1474 -0.0900
  579MOL0     C76344   0.194   5.718   2.293  0.1923 -0.0478  0.6614
  579MOL0     C76345   0.279   5.794   2.371  0.0454  0.2156  0.3496
  579MOL0     N76346   0.953   6.336   2.640 -0.4291  0.2540 -0.7003
  579MOL0     N76347   1.068   6.334   2.581 -0.0506  0.3030 -0.5529
  579MOL0     C76348   2.206   6.052   2.902  0.0633 -0.3772 -0.6704
  579MOL0     C76349   2.324   6.055   2.976  0.4368  0.0596  0.6412
  579MOL0     C76350   2.751   6.029   3.072 -0.2256 -0.1068 -0.6158
  579MOL0     C76351   2.772   5.952   3.191  0.0904  0.1875  0.5556
  579MOL0     C76352   2.892   5.957   3.255  0.3135 -0.4621  1.0234
  579MOL0     C76353   2.997   6.040   3.214 -0.0909  0.6201  0.2005
  579MOL0     O76354   3.110   6.042   3.290  0.6666 -0.3853 -0.1307
  579MOL0     C76355   3.223   6.133   3.257 -0.6304  0.0130  0.3059
  579MOL0     C76356   3.332   6.074   3.354  0.3138 -0.9448 -0.7937
  579MOL0     C76357   3.280   6.059   3.499  0.3016 -0.5955  0.3491
  579MOL0     C76358   3.395   6.042   3.603  0.3610  0.1602  0.4687
  579MOL0     C76359   3.473   5.919   3.573  0.3784  0.1938 -0.2106
  579MOL0     C76360   3.522   5.812   3.533 -0.0136 -0.2496  0.1466
  579MOL0     C76361   2.980   6.111   3.098 -0.0845 -0.4091  0.2527
  579MOL0     C76362   2.861   6.109   3.034  0.5392 -0.0011 -0.3536
  579MOL0     H76363   2.456   5.770   2.854  1.7847  1.4820  0.0647
  579MOL0     H76364   2.253   5.777   2.709 -1.1932  1.4055 -0.9277
  579MOL0     H76365   1.986   5.788   2.695  1.6173 -0.7545  0.3461
  579MOL0     H76366   2.114   5.849   2.592 -0.4600 -1.7271 -1.6691
  579MOL0     H76367   1.891   5.842   2.491  1.0159 -2.3993  2.9212
  579MOL0     H76368   1.952   6.007   2.480  2.3093 -0.7758 -0.3573
  579MOL0     H76369   1.808   6.073   2.666  1.1044 -0.9991  1.9019
  579MOL0     H76370   1.750   5.902   2.683 -0.5823  1.5201  1.5051
  579MOL0     H76371   1.718   6.102   2.464 -1.5953 -1.4102 -3.8322
  579MOL0     H76372   1.682   5.938   2.442  1.6952 -1.5734  0.7908
  579MOL0     H76373   1.568   6.138   2.650  1.0296  0.2600 -1.3934
  579MOL0     H76374   1.520   5.967   2.647 -0.0497 -1.0891  0.5483
  579MOL0     H76375   1.410   6.013   2.429  2.4956  0.0125 -0.6690
  579MOL0     H76376   1.490   6.168   2.406  2.3824  1.6438  3.3369
  579MOL0     H76377   1.275   6.088   2.622 -0.4116 -1.1020 -2.5750
  579MOL0     H76378   1.333   6.258   2.598  0.8065 -1.0236  5.4519
  579MOL0     H76379   1.179   6.054   2.424  1.5315  0.2477 -1.4138
  579MOL0     H76380   1.221   6.212   2.362  0.2614  0.2983  0.4862
  579MOL0     H76381   0.934   6.073   2.457 -0.0414  0.9129 -2.9383
  579MOL0     H76382   0.694   6.322   2.661 -0.0112 -0.1594 -0.3216
  579MOL0     H76383   0.715   6.153   2.708 -2.2746  0.5268  1.0005
  579MOL0     H76384   0.646   6.061   2.471  0.0814 -0.3351 -2.2887
  579MOL0     H76385   0.652   6.219   2.411 -1.1664  2.6632  2.0419
  579MOL0     H76386   0.460   6.126   2.644  1.5850 -0.0350  0.1186
  579MOL0     H76387   0.472   6.285   2.570  3.4559  0.5979  1.2631
  579MOL0     H76388   0.424   6.159   2.347  0.3943 -0.1445 -0.6856
  579MOL0     H76389   0.291   6.197   2.458 -0.6607 -0.7875  2.1634
  579MOL0     H76390   0.226   6.104   2.246  1.0767  0.3485 -0.5661
  579MOL0     H76391   0.069   5.961   2.099  0.5788  1.1570  0.1460
  579MOL0     H76392  -0.222   5.529   2.141 -0.3667 -0.5746 -0.5552
  579MOL0     H76393  -0.431   5.469   2.074 -0.9392  0.9746  1.7325
  579MOL0     H76394  -0.662   5.714   1.760  2.9586 -0.9530  0.3026
  579MOL0     H76395  -0.691   5.800   1.918 -0.3043 -1.1987  2.8244
  579MOL0     H76396  -0.809   5.531   1.834  1.3709 -0.8221  2.0471
  579MOL0     H76397  -0.900   5.683   1.849  2.5951  3.4832 -0.2656
  579MOL0     H76398  -0.863   5.680   2.107 -0.2866 -1.1050  1.4311
  579MOL0     H76399  -0.758   5.539   2.087  0.3399  0.1074  1.5700
  579MOL0     H76400  -1.057   5.552   2.017 -0.2005 -0.7364 -0.6369
  579MOL0     H76401  -0.944   5.422   1.992  0.1577  0.6936 -0.7277
  579MOL0     H76402  -0.999   5.568   2.265 -2.6013  1.6368 -0.9080
  579MOL0     H76403  -0.913   5.405   2.245 -1.6360 -1.1069 -0.2636
  579MOL0     H76404  -1.195   5.457   2.174  1.1344  2.4630  0.8552
  579MOL0     H76405  -1.133   5.392   2.332 -2.7543 -2.9645  0.4399
  579MOL0     H76406  -1.079   5.256   2.074 -2.3043 -1.7932  0.0128
  579MOL0     H76407  -1.015   5.214   2.233  0.1860 -0.2609  0.2337
  579MOL0     H76408  -1.188   5.052   2.189 -1.1037  0.2418  1.8497
  579MOL0     H76409  -1.291   5.167   2.109 -1.1783  1.1190  0.4818
  579MOL0     H76410  -0.477   5.855   1.874 -0.2891 -0.5211  0.5778
  579MOL0     H76411  -0.247   5.898   1.910 -0.1443 -0.6753 -1.0852
  579MOL0     H76412   0.193   5.610   2.302  0.4825  0.0604  2.2704
  579MOL0     H76413   0.325   5.736   2.451 -1.2926 -1.0257  0.2541
  579MOL0     H76414   2.135   6.131   2.929  0.7914  0.6049 -1.5428
  579MOL0     H76415   2.346   6.132   3.048 -0.9475  1.9978 -0.8780
  579MOL0     H76416   2.689   5.888   3.217 -0.4708  0.9331  0.6496
  579MOL0     H76417   2.912   5.900   3.345 -0.6113 -2.2233  0.1489
  579MOL0     H76418   3.196   6.238   3.274 -0.3118  0.1117  0.2200
  579MOL0     H76419   3.260   6.118   3.155  1.1228 -4.4991  1.3841
  579MOL0     H76420   3.385   5.986   3.316  1.0083  0.2458 -2.7544
  579MOL0     H76421   3.417   6.143   3.354 -0.4644  0.1103 -3.0112
  579MOL0     H76422   3.197   5.989   3.511  0.2544 -0.9545 -1.7616
  579MOL0     H76423   3.225   6.152   3.519 -1.3251 -0.5150 -3.6057
  579MOL0     H76424   3.464   6.127   3.597  2.3069 -1.2227  2.0162
  579MOL0     H76425   3.347   6.040   3.701  1.6640  0.7776  1.1579
  579MOL0     H76426   3.573   5.734   3.479 -0.4147 -1.8804  1.9891
  579MOL0     H76427   3.043   6.194   3.069  1.6513 -1.1018  1.8349
  579MOL0     H76428   2.860   6.175   2.947  0.4481  0.1620 -0.2303
  580MOL0     O76429   3.288   4.922  10.433  0.0847 -0.3061 -0.3515
  580MOL0     C76430   3.354   4.818  10.427 -0.2630 -0.0096 -0.4849
  580MOL0     O76431   3.304   4.694  10.434 -0.0327 -0.0557  0.3061
  580MOL0     C76432   3.162   4.682  10.456 -0.8071 -0.3037  0.0259
  580MOL0     C76433   3.107   4.704  10.582  0.1362 -0.0648  0.2097
  580MOL0     C76434   2.973   4.663  10.605  0.8681 -0.7514  0.6079
  580MOL0     C76435   2.880   4.633  10.496  0.0160  0.3752  0.3590
  580MOL0     O76436   2.748   4.593  10.499  0.4691 -0.2615 -0.0181
  580MOL0     C76437   2.686   4.576  10.630  1.2408  0.0562  0.0951
  580MOL0     C76438   2.530   4.565  10.614  0.0331 -0.2286 -1.1842
  580MOL0     C76439   2.481   4.451  10.523 -0.4341 -0.5131 -1.4951
  580MOL0     C76440   2.331   4.445  10.540  0.1100 -0.0417 -0.1712
  580MOL0     C76441   2.259   4.579  10.485  0.0018  0.0054 -0.3375
  580MOL0     C76442   2.104   4.567  10.451 -0.0842  0.1676 -0.0430
  580MOL0     C76443   2.057   4.459  10.359 -0.7759  0.1102  0.0589
  580MOL0     C76444   1.915   4.486  10.297 -0.6525  0.5479  0.1089
  580MOL0     N76445   1.813   4.476  10.403  0.4224  0.1984  0.5273
  580MOL0     C76446   1.775   4.368  10.479 -0.0308  0.3164  0.0574
  580MOL0     C76447   1.679   4.421  10.558  0.0862 -0.4594 -0.6197
  580MOL0     C76448   1.599   4.336  10.659 -0.1016 -0.5714  0.1608
  580MOL0     C76449   1.445   4.323  10.626 -1.6010 -0.2139 -0.4388
  580MOL0     C76450   1.429   4.236  10.498  0.7019 -0.2604  0.1823
  580MOL0     C76451   1.285   4.208  10.467  0.8349  0.0108  0.4898
  580MOL0     O76452   1.224   4.141  10.580  0.0838  0.5140  0.7218
  580MOL0     C76453   1.093   4.109  10.584  0.9699  0.1289 -0.0595
  580MOL0     C76454   1.051   4.048  10.701 -0.5820  0.3995  1.3050
  580MOL0     C76455   0.917   4.000  10.708  0.6163  0.0328  0.3873
  580MOL0     C76456   0.820   4.028  10.614 -0.1614 -0.7992 -0.3440
  580MOL0     C76457   0.676   3.996  10.627 -0.2634  0.4583  0.3469
  580MOL0     O76458   0.617   4.015  10.749 -0.1962  0.2580  1.1546
  580MOL0     C76459   0.485   3.990  10.774  0.1331 -0.1335  0.6585
  580MOL0     C76460   0.454   3.929  10.901  0.0286  0.0821  0.0936
  580MOL0     C76461   0.328   3.919  10.942  0.2551 -0.0665 -0.0922
  580MOL0     C76462   0.221   3.970  10.859  0.1933 -0.0390 -0.4666
  580MOL0     O76463   0.098   3.949  10.922 -0.5251 -0.9572  0.5537
  580MOL0     C76464  -0.027   3.970  10.856 -0.1501  0.1377 -0.4915
  580MOL0     C76465  -0.142   3.920  10.949 -0.5807  0.9111 -0.1406
  580MOL0     C76466  -0.104   3.801  11.038  0.2003 -0.2439 -0.2134
  580MOL0     C76467  -0.219   3.770  11.135  0.0887 -0.0879 -0.2224
  580MOL0     C76468  -0.197   3.623  11.196  0.1625  0.2446  0.2888
  580MOL0     C76469  -0.324   3.573  11.263 -0.2736  0.3862 -0.0627
  580MOL0     C76470  -0.307   3.432  11.314 -0.5433 -0.2382 -0.7489
  580MOL0     C76471  -0.420   3.368  11.390  0.3291  0.5888  0.0295
  580MOL0    Cl76472  -0.425   3.193  11.377 -0.0461 -0.0583 -0.0526
  580MOL0     C76473   0.245   4.019  10.734  0.8267 -0.6302 -0.9525
  580MOL0     C76474   0.372   4.025  10.686 -0.5252 -0.6621  0.2825
  580MOL0     O76475   0.619   3.954  10.525  0.0372 -0.2334  0.2925
  580MOL0     C76476   0.868   4.084  10.493  0.9878  0.6993 -0.1637
  580MOL0     C76477   1.000   4.123  10.481 -0.7480 -0.3806 -0.5957
  580MOL0     N76478   1.654   4.553  10.526  0.1081  0.0132 -0.5538
  580MOL0     N76479   1.734   4.586  10.435 -0.1381  0.1870  0.0730
  580MOL0     C76480   2.933   4.637  10.372 -0.0261 -0.8263 -0.3522
  580MOL0     C76481   3.071   4.659  10.343 -0.3533 -0.0072 -0.5250
  580MOL0     C76482   3.499   4.825  10.418 -0.3600 -0.4605 -0.2368
  580MOL0     C76483   3.572   4.706  10.409  0.7403 -0.1753  0.4062
  580MOL0     C76484   3.711   4.708  10.407  0.5091  0.5405  0.2910
  580MOL0     C76485   3.784   4.827  10.407  0.2770 -0.2017  0.0464
  580MOL0     O76486   3.921   4.833  10.423  0.6499 -0.2830  0.0837
  580MOL0     C76487   3.972   4.764  10.534  0.3094 -0.4519  0.3490
  580MOL0     C76488   4.014   4.868  10.638  0.4796 -0.1416  0.3333
  580MOL0     C76489   4.115   4.956  10.577  0.4536  0.7755 -0.2895
  580MOL0     C76490   4.240   4.892  10.522  0.3647  0.6869 -0.7469
  580MOL0     C76491   4.351   4.988  10.517 -0.9642 -0.2133  0.4118
  580MOL0     C76492   4.452   5.054  10.512  0.1903 -0.5578  1.1578
  580MOL0     C76493   3.713   4.946  10.381  0.7797 -0.5046 -0.3028
  580MOL0     C76494   3.575   4.943  10.395  1.1921  0.4109 -0.7000
  580MOL0     H76495   3.174   4.737  10.660  1.6850  1.5135 -1.6772
  580MOL0     H76496   2.943   4.659  10.709  1.3123 -2.9930  0.7001
  580MOL0     H76497   2.722   4.665  10.683  0.0559 -0.5114  1.9769
  580MOL0     H76498   2.730   4.489  10.680 -1.9936 -2.5308 -1.1760
  580MOL0     H76499   2.494   4.661  10.577  0.0831 -0.2707 -1.3484
  580MOL0     H76500   2.487   4.554  10.713 -0.0008  1.4245 -0.9923
  580MOL0     H76501   2.519   4.356  10.562 -1.4743 -0.8239 -1.2116
  580MOL0     H76502   2.514   4.468  10.420 -3.4812 -0.5074 -2.5730
  580MOL0     H76503   2.292   4.354  10.492  1.4412 -0.4389 -0.5424
  580MOL0     H76504   2.307   4.436  10.647  0.4329 -0.6026 -0.1386
  580MOL0     H76505   2.299   4.597  10.385 -0.8827 -3.8901 -1.5462
  580MOL0     H76506   2.269   4.660  10.559  1.3139 -1.8391  1.6121
  580MOL0     H76507   2.079   4.663  10.404 -1.1729 -1.2390 -2.5842
  580MOL0     H76508   2.055   4.572  10.548 -1.6772  0.1236 -0.8106
  580MOL0     H76509   2.133   4.445  10.282 -1.9389 -0.0878 -1.1092
  580MOL0     H76510   2.062   4.364  10.411 -2.2203 -0.3884 -0.6553
  580MOL0     H76511   1.901   4.406  10.223  0.9845 -1.5753  1.9605
  580MOL0     H76512   1.918   4.585  10.251 -0.0348 -0.0921 -1.3101
  580MOL0     H76513   1.802   4.263  10.471 -1.6856 -0.4280  2.8769
  580MOL0     H76514   1.608   4.383  10.757  0.0599  2.4853 -1.2265
  580MOL0     H76515   1.640   4.234  10.653  0.6372 -0.2814  0.2130
  580MOL0     H76516   1.395   4.420  10.625 -1.1347  0.0900  1.3969
  580MOL0     H76517   1.406   4.273  10.715 -1.2789 -0.6937 -0.5639
  580MOL0     H76518   1.479   4.277  10.410  1.8822 -1.9775 -0.0092
  580MOL0     H76519   1.468   4.135  10.513  0.4998 -0.5106 -0.9019
  580MOL0     H76520   1.269   4.147  10.378  2.7800  0.2975 -0.0986
  580MOL0     H76521   1.230   4.301  10.448 -1.0136 -1.3053 -0.9918
  580MOL0     H76522   1.125   4.037  10.780 -1.3659  2.1188  2.3442
  580MOL0     H76523   0.876   3.952  10.796  0.1962 -0.9196 -0.3207
  580MOL0     H76524   0.527   3.898  10.974 -0.9084  0.7262  1.3385
  580MOL0     H76525   0.303   3.887  11.042 -0.7025  0.3048 -0.2027
  580MOL0     H76526  -0.028   3.902  10.771 -2.9644  0.2262 -0.6237
  580MOL0     H76527  -0.046   4.074  10.828 -0.5299  0.5066  1.0212
  580MOL0     H76528  -0.233   3.886  10.899 -1.5253 -1.2834  2.7840
  580MOL0     H76529  -0.174   3.997  11.020  1.0354  1.7054 -0.2180
  580MOL0     H76530  -0.013   3.834  11.090  1.0873 -0.5004 -1.5320
  580MOL0     H76531  -0.090   3.702  10.994  0.6912 -1.2567  2.0471
  580MOL0     H76532  -0.236   3.845  11.213  2.1413  0.7613 -0.5040
  580MOL0     H76533  -0.309   3.766  11.073  0.4225  0.2179 -0.7442
  580MOL0     H76534  -0.122   3.628  11.275  0.5158  1.3116 -0.0913
  580MOL0     H76535  -0.182   3.551  11.115 -1.5241 -0.2752  0.3980
  580MOL0     H76536  -0.400   3.572  11.184 -1.2728  4.4221  0.6175
  580MOL0     H76537  -0.355   3.638  11.345 -0.7087 -1.2633  1.1404
  580MOL0     H76538  -0.286   3.368  11.227  1.1451  1.8336 -1.9673
  580MOL0     H76539  -0.217   3.423  11.374 -0.7089 -1.4364 -0.6570
  580MOL0     H76540  -0.517   3.407  11.356  0.2597  1.5519  1.2613
  580MOL0     H76541  -0.402   3.393  11.495 -0.1262  0.9847  0.0165
  580MOL0     H76542   0.161   4.052  10.675 -1.6869 -1.4291  1.9158
  580MOL0     H76543   0.383   4.058  10.584 -4.0844  3.2101  0.9084
  580MOL0     H76544   0.807   4.097  10.404  2.1879  0.2115 -1.0752
  580MOL0     H76545   1.037   4.169  10.390 -1.4308 -0.1786 -0.7804
  580MOL0     H76546   2.867   4.611  10.290  2.2918  1.7138 -3.2980
  580MOL0     H76547   3.114   4.662  10.243 -0.0540  0.1704 -0.3953
  580MOL0     H76548   3.521   4.611  10.420 -1.4265  0.9825  1.0375
  580MOL0     H76549   3.761   4.615  10.432 -1.0469 -0.2848  0.4952
  580MOL0     H76550   4.064   4.712  10.503  0.7028  1.0185 -1.0541
  580MOL0     H76551   3.900   4.697  10.583  1.0381  0.1244  2.3059
  580MOL0     H76552   3.929   4.922  10.680 -0.0740  0.2789 -1.2434
  580MOL0     H76553   4.062   4.828  10.727  2.5110  1.4579  0.0216
  580MOL0     H76554   4.129   5.029  10.658 -1.3287 -1.3777  2.1371
  580MOL0     H76555   4.069   5.024  10.504 -1.8477  2.5378  2.5522
  580MOL0     H76556   4.268   4.802  10.577 -2.3892 -0.3941 -0.9497
  580MOL0     H76557   4.226   4.854  10.420  0.5084 -2.1236  0.2014
  580MOL0     H76558   4.515   5.140  10.502 -0.7232 -0.0764 -1.3779
  580MOL0     H76559   3.768   5.039  10.386  4.2966 -2.3647 -0.9773
  580MOL0     H76560   3.506   5.026  10.408  0.0606 -0.4056 -1.2623
  581MOL0     O76561   2.982   4.843   9.469  0.7626 -0.6385 -0.2446
  581MOL0     C76562   2.955   4.929   9.386 -0.8526  0.4029 -0.1309
  581MOL0     O76563   2.837   4.960   9.351 -0.4195  0.2165  0.1079
  581MOL0     C76564   2.724   4.897   9.399 -0.1119  0.0356 -0.2939
  581MOL0     C76565   2.697   4.816   9.521 -0.3394  0.4192 -0.3546
  581MOL0     C76566   2.570   4.776   9.547  0.7328 -0.5383  0.1555
  581MOL0     C76567   2.464   4.789   9.461 -0.4723 -1.3527  0.3344
  581MOL0     O76568   2.345   4.737   9.502  0.4877  0.2808  0.0094
  581MOL0     C76569   2.253   4.687   9.404  0.4414 -0.4071 -0.0787
  581MOL0     C76570   2.126   4.641   9.483 -0.6833  0.3207  0.4461
  581MOL0     C76571   2.025   4.561   9.397 -0.5246 -0.7438 -0.4735
  581MOL0     C76572   1.894   4.565   9.477 -0.6409 -0.6716 -0.3749
  581MOL0     C76573   1.777   4.515   9.397  0.7167  0.3480 -0.2615
  581MOL0     C76574   1.641   4.526   9.473  0.0058  0.2513  0.0737
  581MOL0     C76575   1.522   4.451   9.402  0.0005  0.0315  0.3387
  581MOL0     C76576   1.396   4.486   9.466  0.6332 -0.2605  0.4188
  581MOL0     N76577   1.285   4.420   9.390 -0.4534 -0.0987 -0.0256
  581MOL0     C76578   1.249   4.289   9.397 -0.4866  0.0246 -0.9593
  581MOL0     C76579   1.143   4.285   9.313 -0.4730 -0.3655  0.0370
  581MOL0     C76580   1.065   4.159   9.296 -0.0699  0.6363  0.5062
  581MOL0     C76581   0.976   4.114   9.416 -0.2746 -0.1375 -0.3553
  581MOL0     C76582   0.866   4.225   9.454  0.4317  0.2934  1.1420
  581MOL0     C76583   0.779   4.182   9.568  0.0439 -0.3789 -0.3736
  581MOL0     O76584   0.666   4.271   9.559  0.2312  0.2933  0.3103
  581MOL0     C76585   0.544   4.216   9.594 -0.4258  0.4687 -0.4034
  581MOL0     C76586   0.526   4.148   9.716 -0.2108  0.0263 -0.0221
  581MOL0     C76587   0.397   4.109   9.750  0.4381  0.2776  0.3536
  581MOL0     C76588   0.286   4.136   9.663 -0.0070  0.5691  0.0760
  581MOL0     C76589   0.151   4.117   9.712  0.3916 -0.2124  0.1258
  581MOL0     O76590   0.144   4.030   9.818  0.5285 -0.3116 -0.3893
  581MOL0     C76591   0.019   4.006   9.880 -0.2609  0.4858 -0.6210
  581MOL0     C76592  -0.088   3.961   9.804  0.2367  0.2459  0.2332
  581MOL0     C76593  -0.213   3.934   9.851  0.0373 -0.7117  0.6245
  581MOL0     C76594  -0.232   3.948   9.989  0.6434 -0.1876  0.2039
  581MOL0     O76595  -0.357   3.928  10.053 -0.0980 -0.7821 -0.4637
  581MOL0     C76596  -0.451   3.850   9.988  0.1485  0.2742  0.2713
  581MOL0     C76597  -0.560   3.816  10.083 -0.1434  0.8560  0.2824
  581MOL0     C76598  -0.624   3.939  10.137  0.0897  0.3818 -0.4329
  581MOL0     C76599  -0.742   3.891  10.232 -0.5138 -0.7154  0.2788
  581MOL0     C76600  -0.810   4.015  10.292  0.9156 -0.8100 -1.0615
  581MOL0     C76601  -0.935   3.990  10.378 -0.1905  0.0468 -0.4351
  581MOL0     C76602  -0.981   4.110  10.472 -0.6293 -0.6210  0.4479
  581MOL0     C76603  -1.127   4.100  10.494  0.2665 -0.3407 -0.1009
  581MOL0    Cl76604  -1.226   4.126  10.350  0.1579 -0.2705  0.3422
  581MOL0     C76605  -0.129   3.984  10.068  0.2815 -0.3848  0.5356
  581MOL0     C76606   0.004   4.018  10.014 -0.4293 -0.1268  0.4374
  581MOL0     O76607   0.056   4.175   9.654 -0.6193 -0.0922  0.1803
  581MOL0     C76608   0.308   4.204   9.550 -0.9894  0.7484  0.0710
  581MOL0     C76609   0.437   4.241   9.515  0.5471 -0.0762  0.3954
  581MOL0     N76610   1.116   4.413   9.273  1.1601  0.1340 -0.3110
  581MOL0     N76611   1.192   4.494   9.326  0.0679  0.5106  0.0960
  581MOL0     C76612   2.483   4.868   9.351  0.1443 -0.6996  0.8462
  581MOL0     C76613   2.610   4.911   9.315 -0.0959  0.0888 -0.0162
  581MOL0     C76614   3.067   5.012   9.329  0.1137 -0.4401 -0.8552
  581MOL0     C76615   3.201   5.011   9.373  0.0085  0.3938 -0.7850
  581MOL0     C76616   3.305   5.086   9.314 -0.3377 -0.2748 -0.6923
  581MOL0     C76617   3.280   5.164   9.204 -0.2023 -1.0699  0.0126
  581MOL0     O76618   3.370   5.242   9.140 -0.4136 -0.0151 -0.4033
  581MOL0     C76619   3.516   5.232   9.160 -0.1038  0.8159 -0.4347
  581MOL0     C76620   3.566   5.330   9.253  0.4624  0.4708  0.9431
  581MOL0     C76621   3.714   5.312   9.272 -0.2126 -0.2231 -0.7765
  581MOL0     C76622   3.770   5.443   9.349  0.4781  0.0691 -0.4959
  581MOL0     C76623   3.912   5.439   9.354  0.2149 -0.0416  0.3697
  581MOL0     C76624   4.033   5.442   9.364 -0.9373  0.0053 -0.2454
  581MOL0     C76625   3.147   5.179   9.166 -0.6268 -0.0650  0.7704
  581MOL0     C76626   3.041   5.100   9.223  0.5249  0.0464  0.3061
  581MOL0     H76627   2.778   4.794   9.590 -3.4181 -2.3382  2.8417
  581MOL0     H76628   2.549   4.732   9.644  1.2017  0.1130  0.5590
  581MOL0     H76629   2.296   4.608   9.343 -0.2814 -0.0540 -1.0786
  581MOL0     H76630   2.228   4.762   9.327  1.8899  0.3330  0.1428
  581MOL0     H76631   2.077   4.731   9.520  1.0203  1.3252  0.3696
  581MOL0     H76632   2.149   4.586   9.575  1.9131  0.1086 -0.2526
  581MOL0     H76633   2.047   4.455   9.383  2.1451 -0.7541  2.6138
  581MOL0     H76634   2.017   4.619   9.304 -2.0171  2.0285  1.2641
  581MOL0     H76635   1.906   4.511   9.571  1.7907 -0.0514 -0.2728
  581MOL0     H76636   1.868   4.665   9.511 -1.0127 -0.7456 -0.4370
  581MOL0     H76637   1.796   4.411   9.368  1.8964  1.0876 -2.3566
  581MOL0     H76638   1.760   4.579   9.309 -1.8558  0.8157  0.4943
  581MOL0     H76639   1.613   4.632   9.480 -4.0069 -0.1235 -4.6265
  581MOL0     H76640   1.653   4.481   9.572  0.9640 -0.2270 -0.2495
  581MOL0     H76641   1.527   4.480   9.296  1.4930 -1.5822 -0.0845
  581MOL0     H76642   1.535   4.342   9.399 -1.1692 -0.1518 -3.3397
  581MOL0     H76643   1.398   4.595   9.476  2.3507  0.1274 -2.6995
  581MOL0     H76644   1.405   4.438   9.564 -1.2179 -1.6194 -0.0152
  581MOL0     H76645   1.278   4.210   9.465  0.4754 -0.3696 -1.7988
  581MOL0     H76646   1.134   4.077   9.273 -2.4180 -1.5238  0.7439
  581MOL0     H76647   1.002   4.177   9.209  0.2589 -0.6625 -0.0216
  581MOL0     H76648   1.043   4.096   9.501  0.0766  1.0265 -0.3672
  581MOL0     H76649   0.931   4.017   9.392 -0.1868 -0.2982  0.1293
  581MOL0     H76650   0.920   4.320   9.464  3.0718 -1.0674  0.8394
  581MOL0     H76651   0.800   4.236   9.369 -2.2487 -2.8674  2.5757
  581MOL0     H76652   0.828   4.200   9.664  0.9261  0.5611 -0.9728
  581MOL0     H76653   0.746   4.078   9.564 -0.0123 -0.3327 -2.9791
  581MOL0     H76654   0.615   4.131   9.776  0.1490  4.2150  0.9305
  581MOL0     H76655   0.394   4.051   9.841 -1.2204 -1.7954 -0.9252
  581MOL0     H76656  -0.075   3.940   9.698 -0.0318  1.2261 -0.0079
  581MOL0     H76657  -0.300   3.903   9.794  0.5852 -0.9196 -0.1085
  581MOL0     H76658  -0.406   3.755   9.956 -0.3913 -0.1287  0.7176
  581MOL0     H76659  -0.488   3.903   9.899  0.8193  2.0217  0.9935
  581MOL0     H76660  -0.525   3.758  10.169  0.6544 -0.1513 -0.6851
  581MOL0     H76661  -0.623   3.753  10.019  1.7412 -0.2481 -0.5790
  581MOL0     H76662  -0.667   3.997  10.055 -0.0776  1.7523  0.5933
  581MOL0     H76663  -0.559   4.005  10.195  1.4629 -2.8720  2.0829
  581MOL0     H76664  -0.815   3.831  10.176 -0.6170 -0.7577  0.4614
  581MOL0     H76665  -0.704   3.828  10.312 -0.7068  0.5097  1.3726
  581MOL0     H76666  -0.850   4.079  10.213  0.8784  0.2476 -0.2016
  581MOL0     H76667  -0.740   4.075  10.350  0.6356 -0.4733 -1.0682
  581MOL0     H76668  -0.936   3.895  10.432 -0.7740 -0.0958 -0.6874
  581MOL0     H76669  -1.012   3.966  10.304  0.3776 -2.3475 -0.3361
  581MOL0     H76670  -0.929   4.111  10.568  2.5081 -3.7491 -0.9991
  581MOL0     H76671  -0.951   4.204  10.424  2.3456 -1.9259 -0.4239
  581MOL0     H76672  -1.153   4.159  10.582  0.6163 -0.0340 -0.1992
  581MOL0     H76673  -1.147   3.993  10.507  2.6417 -0.7858  0.4066
  581MOL0     H76674  -0.155   3.984  10.174  1.4729 -0.8772  0.8433
  581MOL0     H76675   0.084   4.052  10.079  1.0138  1.1852 -1.9048
  581MOL0     H76676   0.228   4.225   9.479 -1.3356 -3.4125 -1.0511
  581MOL0     H76677   0.456   4.302   9.428  0.6243 -0.5592  0.0735
  581MOL0     H76678   2.406   4.886   9.277 -1.2789  1.9318  2.7822
  581MOL0     H76679   2.628   4.959   9.219  1.0482 -2.9857 -1.4727
  581MOL0     H76680   3.235   4.959   9.461 -0.4198  0.4087 -0.6108
  581MOL0     H76681   3.409   5.076   9.342 -1.1438 -1.7530  2.2038
  581MOL0     H76682   3.553   5.240   9.057 -1.8948 -0.4091 -1.2422
  581MOL0     H76683   3.551   5.136   9.199  3.6686  2.4192  0.5315
  581MOL0     H76684   3.546   5.434   9.228  2.1105  0.9147  1.3699
  581MOL0     H76685   3.515   5.314   9.349 -0.0556 -0.3001  0.5530
  581MOL0     H76686   3.766   5.316   9.176 -0.7232  1.2503 -1.0174
  581MOL0     H76687   3.737   5.219   9.325  1.1356  1.0485  1.0009
  581MOL0     H76688   3.732   5.538   9.312 -3.8252 -0.9214  0.8055
  581MOL0     H76689   3.732   5.437   9.451  0.0869 -1.2380 -0.6911
  581MOL0     H76690   4.139   5.457   9.364 -0.7493 -1.1731 -0.8909
  581MOL0     H76691   3.130   5.257   9.093 -3.1927 -1.1570  0.0697
  581MOL0     H76692   2.943   5.098   9.178  0.8488 -0.1401 -0.4133
  582MOL0     O76693   3.172   5.614   0.488 -0.6048  0.3275  0.2327
  582MOL0     C76694   3.298   5.605   0.477 -0.9332 -0.1533 -1.0154
  582MOL0     O76695   3.371   5.492   0.502  0.7757  0.1079  0.9867
  582MOL0     C76696   3.327   5.368   0.547 -0.3978 -0.5455  0.6210
  582MOL0     C76697   3.195   5.314   0.537 -0.3425 -0.1474 -0.7025
  582MOL0     C76698   3.172   5.189   0.586  0.8537  0.9398 -0.3885
  582MOL0     C76699   3.276   5.110   0.634  0.6381  0.2847 -0.5847
  582MOL0     O76700   3.262   4.986   0.691 -0.2753 -0.5239  0.3203
  582MOL0     C76701   3.252   4.895   0.583  0.3198  0.1020 -0.2854
  582MOL0     C76702   3.178   4.770   0.643 -0.6301 -0.4602  0.3373
  582MOL0     C76703   3.039   4.755   0.598 -0.5877  0.2043 -0.9221
  582MOL0     C76704   2.985   4.627   0.651 -0.1820 -0.2186  0.6660
  582MOL0     C76705   2.837   4.619   0.619 -0.1764  0.5830  0.1646
  582MOL0     C76706   2.773   4.493   0.675  0.1632 -0.6760 -0.3603
  582MOL0     C76707   2.637   4.447   0.630 -0.2970 -0.1306  0.0871
  582MOL0     C76708   2.533   4.559   0.640  0.7279 -0.3513 -0.6340
  582MOL0     N76709   2.404   4.500   0.602  0.1257  0.6861  0.2619
  582MOL0     C76710   2.346   4.388   0.658  0.4369 -0.5180  0.5285
  582MOL0     C76711   2.228   4.379   0.595 -0.3886 -0.4129  0.3163
  582MOL0     C76712   2.121   4.272   0.604 -0.3486 -0.2832  0.4251
  582MOL0     C76713   2.140   4.169   0.480 -0.4197  0.2520 -0.8118
  582MOL0     C76714   2.037   4.205   0.373 -0.2596 -0.5572 -0.5884
  582MOL0     C76715   2.027   4.096   0.272 -0.0057 -0.2633 -0.1092
  582MOL0     O76716   1.980   3.969   0.322 -0.3984 -0.7906 -0.3119
  582MOL0     C76717   1.850   3.950   0.329 -0.6905  0.7296 -0.2843
  582MOL0     C76718   1.812   3.819   0.378 -0.3962  0.5031 -0.6348
  582MOL0     C76719   1.680   3.790   0.385 -0.3303  0.2065  0.1214
  582MOL0     C76720   1.580   3.877   0.340 -0.6574  0.4977  0.7685
  582MOL0     C76721   1.434   3.841   0.355  0.3532 -0.3810  0.5365
  582MOL0     O76722   1.341   3.938   0.338  0.3951  0.1943 -0.2525
  582MOL0     C76723   1.212   3.896   0.355 -0.0012  0.5518 -0.3986
  582MOL0     C76724   1.145   3.807   0.265 -0.3539  1.0360 -0.4858
  582MOL0     C76725   1.019   3.750   0.303  0.0299 -0.5898  0.0097
  582MOL0     C76726   0.944   3.817   0.406 -0.3671  0.5356  0.9197
  582MOL0     O76727   0.822   3.759   0.428  0.5826 -1.0445  0.5681
  582MOL0     C76728   0.761   3.773   0.556  0.1183 -0.1482  0.7615
  582MOL0     C76729   0.637   3.678   0.575  0.2251  0.2074  0.5201
  582MOL0     C76730   0.527   3.688   0.466 -0.0559 -0.5636 -0.2361
  582MOL0     C76731   0.410   3.588   0.497  0.1025  0.1160  0.3779
  582MOL0     C76732   0.301   3.608   0.389 -0.1312 -0.3856 -0.1337
  582MOL0     C76733   0.160   3.572   0.444 -0.0403 -0.6759  0.0151
  582MOL0     C76734   0.084   3.488   0.343 -0.1156  0.0433  0.0251
  582MOL0     C76735  -0.004   3.375   0.401 -0.0644 -0.0888 -1.3519
  582MOL0    Cl76736  -0.131   3.443   0.496 -0.3874  0.3802 -0.1012
  582MOL0     C76737   1.007   3.917   0.483  0.5519  0.4818 -0.9428
  582MOL0     C76738   1.136   3.951   0.459 -0.2038 -0.2135 -0.1510
  582MOL0     O76739   1.411   3.725   0.398 -0.0540 -0.3789  0.9667
  582MOL0     C76740   1.620   4.004   0.287  0.4769  0.2880 -0.1458
  582MOL0     C76741   1.752   4.044   0.284  0.4038  0.2164 -0.2578
  582MOL0     N76742   2.224   4.476   0.498  0.1389  0.6152 -0.5887
  582MOL0     N76743   2.323   4.549   0.502  0.0096  0.5845  0.0123
  582MOL0     C76744   3.407   5.153   0.627 -0.3934 -0.0015 -0.4469
  582MOL0     C76745   3.437   5.283   0.583  0.3305 -1.0593  0.7272
  582MOL0     C76746   3.376   5.733   0.461  0.8940  0.5472 -0.5297
  582MOL0     C76747   3.511   5.743   0.493 -0.3521 -0.1465  0.7037
  582MOL0     C76748   3.586   5.865   0.472  0.3612  0.2241 -0.7879
  582MOL0     C76749   3.517   5.979   0.424 -0.5598 -0.0847  0.7205
  582MOL0     O76750   3.578   6.097   0.388 -0.2004 -0.5568 -0.3034
  582MOL0     C76751   3.719   6.100   0.397  0.3161  0.4354 -0.0147
  582MOL0     C76752   3.794   6.227   0.342  0.1462 -0.1001 -1.0593
  582MOL0     C76753   3.759   6.264   0.201 -0.0943  0.3070 -0.2027
  582MOL0     C76754   3.808   6.155   0.106 -0.1691 -0.2961  0.0095
  582MOL0     C76755   3.785   6.183  -0.038 -0.1685 -0.5081 -0.0909
  582MOL0     C76756   3.756   6.196  -0.156 -0.1473  0.4067 -0.4891
  582MOL0     C76757   3.382   5.971   0.407  0.6146 -0.1982  0.0953
  582MOL0     C76758   3.310   5.848   0.417 -0.3326 -0.1126  0.1498
  582MOL0     H76759   3.115   5.374   0.492 -0.2814 -1.0953 -2.1382
  582MOL0     H76760   3.072   5.148   0.588  0.5321  1.5850 -1.8055
  582MOL0     H76761   3.354   4.877   0.548  1.0589  1.9168  0.8204
  582MOL0     H76762   3.202   4.928   0.491  0.7868 -0.7226 -0.8577
  582MOL0     H76763   3.181   4.768   0.752 -0.6568 -0.3883  0.3391
  582MOL0     H76764   3.237   4.686   0.605  0.0481 -0.0929  0.5481
  582MOL0     H76765   3.038   4.769   0.489  0.9301 -0.7129 -1.0805
  582MOL0     H76766   2.981   4.835   0.646 -3.1886 -1.8309 -0.4619
  582MOL0     H76767   3.045   4.546   0.610  0.5108  1.8338 -2.7636
  582MOL0     H76768   2.990   4.636   0.760  3.2544  4.7082  0.4345
  582MOL0     H76769   2.828   4.617   0.510 -2.3400 -0.3493  0.3180
  582MOL0     H76770   2.781   4.708   0.650  1.3471  1.1527  1.3769
  582MOL0     H76771   2.789   4.517   0.781 -0.4702 -0.4858 -0.3013
  582MOL0     H76772   2.840   4.409   0.655 -0.3251 -0.6196 -2.3852
  582MOL0     H76773   2.639   4.406   0.529 -1.8000  1.8363 -0.8200
  582MOL0     H76774   2.606   4.365   0.695  0.5463  0.0254  0.7064
  582MOL0     H76775   2.568   4.638   0.572  0.0827  0.6075  0.1318
  582MOL0     H76776   2.530   4.588   0.745 -1.2384 -2.1049 -0.1261
  582MOL0     H76777   2.381   4.321   0.736  1.5771 -2.6809 -1.7220
  582MOL0     H76778   2.026   4.323   0.615  1.4440  3.1360  1.5491
  582MOL0     H76779   2.145   4.228   0.701  2.2838  2.1787  1.0361
  582MOL0     H76780   2.133   4.073   0.532  0.5944  2.3052  3.6434
  582MOL0     H76781   2.243   4.183   0.446 -0.7774  1.6999 -1.3966
  582MOL0     H76782   1.939   4.236   0.412 -0.1364  1.9360 -2.0825
  582MOL0     H76783   2.082   4.289   0.320  0.5672 -2.0989 -2.4433
  582MOL0     H76784   2.127   4.078   0.231  0.0636  2.1223 -1.1359
  582MOL0     H76785   1.963   4.128   0.189  2.9265  0.6077 -2.2101
  582MOL0     H76786   1.896   3.752   0.392 -1.2971 -0.7208 -0.9444
  582MOL0     H76787   1.652   3.690   0.415 -0.1962 -0.5629 -2.1588
  582MOL0     H76788   1.202   3.772   0.180 -2.4586 -2.0942 -0.8042
  582MOL0     H76789   0.965   3.703   0.221  0.3267 -1.2189  0.1639
  582MOL0     H76790   0.718   3.874   0.552 -0.8999 -0.6013 -2.1264
  582MOL0     H76791   0.833   3.769   0.638  1.1733 -0.1622 -0.1383
  582MOL0     H76792   0.580   3.703   0.665 -2.5388 -0.9956 -0.7653
  582MOL0     H76793   0.673   3.575   0.583  0.9375  0.4027 -0.0445
  582MOL0     H76794   0.572   3.665   0.368  1.5109  0.0148  0.3216
  582MOL0     H76795   0.484   3.788   0.468  2.3305  0.5453  2.3852
  582MOL0     H76796   0.451   3.487   0.486  1.7787  0.7056  0.8666
  582MOL0     H76797   0.373   3.615   0.597 -0.4614  0.4453  0.0817
  582MOL0     H76798   0.329   3.559   0.295  1.8530  0.7860 -0.2097
  582MOL0     H76799   0.292   3.714   0.365 -2.2451  0.0007  2.0273
  582MOL0     H76800   0.101   3.660   0.474  1.8549  0.7849 -0.3484
  582MOL0     H76801   0.180   3.515   0.535  1.5055 -1.1853 -0.6095
  582MOL0     H76802   0.029   3.563   0.285  2.2377  1.1239 -0.9042
  582MOL0     H76803   0.160   3.441   0.280  1.5496 -1.2627  2.8040
  582MOL0     H76804   0.046   3.301   0.465  1.6684  2.7329  0.7571
  582MOL0     H76805  -0.049   3.331   0.311 -0.0594  1.6477 -2.2368
  582MOL0     H76806   0.945   3.970   0.555 -0.4743 -1.1563 -0.5482
  582MOL0     H76807   1.191   4.025   0.516  0.9418  1.0975 -2.7873
  582MOL0     H76808   1.547   4.081   0.265  0.1184  0.0936  0.3421
  582MOL0     H76809   1.765   4.142   0.237 -0.8611 -0.0392 -1.2082
  582MOL0     H76810   3.485   5.087   0.664 -1.2337 -0.3759  0.7311
  582MOL0     H76811   3.533   5.333   0.578 -1.3569  2.3356 -0.7010
  582MOL0     H76812   3.557   5.658   0.542 -1.8215 -0.9735  0.7070
  582MOL0     H76813   3.693   5.869   0.485  0.2835  2.1192 -0.4138
  582MOL0     H76814   3.754   6.012   0.341 -2.0316 -0.5844  0.0106
  582MOL0     H76815   3.739   6.090   0.504 -0.2655 -1.3241 -0.0348
  582MOL0     H76816   3.760   6.300   0.416 -0.0534 -1.8130  0.6254
  582MOL0     H76817   3.903   6.224   0.350  0.0456 -0.3440  0.5947
  582MOL0     H76818   3.813   6.359   0.193 -2.7105  1.9243  0.4195
  582MOL0     H76819   3.653   6.283   0.186 -1.3634 -4.0562  1.6823
  582MOL0     H76820   3.917   6.148   0.111  0.0357  0.6827 -2.1905
  582MOL0     H76821   3.751   6.063   0.121  0.6255 -0.5230  2.0419
  582MOL0     H76822   3.724   6.216  -0.257 -2.0533  3.2426  0.5537
  582MOL0     H76823   3.325   6.058   0.376 -0.9530 -0.1478  2.7841
  582MOL0     H76824   3.202   5.845   0.401  0.2382 -0.0408 -5.5366
  583MOL0     O76825  10.897   0.879   9.094  0.4629 -0.1863  0.3838
  583MOL0     C76826  10.964   0.969   9.040 -0.1320 -0.3667  0.0851
  583MOL0     O76827  10.933   1.098   9.035  0.4021  0.2133  1.1752
  583MOL0     C76828  10.813   1.151   9.075 -0.4510 -0.1743  0.3440
  583MOL0     C76829  10.764   1.137   9.205 -0.8896  0.4573  0.6800
  583MOL0     C76830  10.632   1.167   9.234 -0.4888 -0.4035 -0.7131
  583MOL0     C76831  10.545   1.212   9.136 -0.1129  0.4218  0.6485
  583MOL0     O76832  10.415   1.246   9.159 -0.5505 -0.0394  0.2965
  583MOL0     C76833  10.373   1.238   9.301  0.0673  0.6421  0.3564
  583MOL0     C76834  10.238   1.307   9.323  0.4267  0.0201 -0.6646
  583MOL0     C76835  10.236   1.458   9.302  0.0433  1.1741  0.5714
  583MOL0     C76836  10.089   1.516   9.318 -0.3177  0.3423 -0.0097
  583MOL0     C76837  10.089   1.667   9.275 -0.2648 -0.2379  0.2502
  583MOL0     C76838   9.949   1.724   9.230 -0.7693  0.6429 -0.0392
  583MOL0     C76839   9.951   1.877   9.216  0.7842  0.5385 -0.3884
  583MOL0     C76840   9.902   1.921   9.085  0.0566  0.5585  0.5233
  583MOL0     N76841   9.888   2.067   9.074 -0.0743 -0.0318 -0.6399
  583MOL0     C76842   9.817   2.151   9.161 -0.0224  0.5155 -0.2004
  583MOL0     C76843   9.835   2.278   9.108  0.7854  0.8269 -0.7127
  583MOL0     C76844   9.765   2.392   9.170 -0.5113 -0.0572 -0.4205
  583MOL0     C76845   9.619   2.391   9.134  0.4530  0.0630 -0.1421
  583MOL0     C76846   9.546   2.516   9.187  0.1831 -0.5215  0.0810
  583MOL0     C76847   9.396   2.540   9.128  0.2752  0.0300 -0.9924
  583MOL0     O76848   9.308   2.578   9.230  0.0757  0.1099 -0.0528
  583MOL0     C76849   9.189   2.661   9.202 -0.8783  0.5992 -0.7960
  583MOL0     C76850   9.152   2.703   9.074  0.0287 -0.0511 -0.0618
  583MOL0     C76851   9.031   2.773   9.054  0.2393 -0.3813  0.3913
  583MOL0     C76852   8.953   2.813   9.163  0.2485 -0.3244 -0.4057
  583MOL0     C76853   8.825   2.889   9.149  0.2761 -0.7716  0.2344
  583MOL0     O76854   8.775   2.906   9.023  0.7882 -0.3419 -0.4440
  583MOL0     C76855   8.645   2.964   9.001 -0.0196  0.1207  0.1758
  583MOL0     C76856   8.536   2.981   9.093 -0.3529  0.6712 -0.0477
  583MOL0     C76857   8.422   3.042   9.057  0.2609  0.4683 -0.6688
  583MOL0     C76858   8.399   3.076   8.923  0.4016  0.2942  0.6054
  583MOL0     O76859   8.291   3.150   8.874 -0.0275  0.0239  0.0087
  583MOL0     C76860   8.192   3.200   8.962 -0.5337  0.4994 -0.4350
  583MOL0     C76861   8.082   3.098   8.995 -0.2829  0.7234 -0.4135
  583MOL0     C76862   7.998   3.084   8.869  0.2552 -1.0064 -0.1853
  583MOL0     C76863   7.891   2.973   8.874  0.9024  0.0566  0.2690
  583MOL0     C76864   7.766   3.030   8.940 -0.1440 -0.0961  0.0172
  583MOL0     C76865   7.643   2.949   8.920  0.3322  0.2131  0.2306
  583MOL0     C76866   7.517   2.976   9.003 -0.4061 -0.6392  0.9161
  583MOL0     C76867   7.402   2.880   8.966 -0.1122  0.2869 -0.2998
  583MOL0    Cl76868   7.358   2.891   8.789  0.0601 -0.1054  0.3697
  583MOL0     C76869   8.506   3.066   8.835 -0.0249 -0.2877  0.3708
  583MOL0     C76870   8.633   3.004   8.872  0.3375 -0.3218  0.3584
  583MOL0     O76871   8.774   2.921   9.262  0.1014 -0.4764  0.5016
  583MOL0     C76872   9.004   2.777   9.290  0.3083 -0.0922  0.0865
  583MOL0     C76873   9.123   2.708   9.312  0.1162  0.1439 -0.1043
  583MOL0     N76874   9.916   2.267   9.000 -0.6077 -0.2559  0.0369
  583MOL0     N76875   9.949   2.141   8.978 -0.1576 -0.2230 -0.0053
  583MOL0     C76876  10.591   1.222   9.008  0.1574 -0.6941  0.1929
  583MOL0     C76877  10.725   1.197   8.977  0.7390  0.4426  0.6317
  583MOL0     C76878  11.092   0.922   8.971 -0.2450 -0.4305 -0.0561
  583MOL0     C76879  11.172   1.012   8.895 -0.7112  0.5378  0.0690
  583MOL0     C76880  11.293   0.967   8.827 -0.4010  0.1144  0.0082
  583MOL0     C76881  11.325   0.834   8.814  0.2370 -0.0427  0.5998
  583MOL0     O76882  11.432   0.783   8.741  0.4999 -0.2962  0.2780
  583MOL0     C76883  11.525   0.872   8.673 -0.1266  0.7061  0.0390
  583MOL0     C76884  11.650   0.893   8.756 -0.2196  0.0315  0.1449
  583MOL0     C76885  11.749   0.772   8.757  0.1713  0.1888  0.5264
  583MOL0     C76886  11.822   0.743   8.626 -0.1005 -0.9042 -0.2412
  583MOL0     C76887  11.902   0.851   8.569 -0.4036  0.5730  0.2499
  583MOL0     C76888  11.974   0.933   8.509 -0.2793  0.2157 -0.2411
  583MOL0     C76889  11.246   0.748   8.896  0.1102 -0.2999  0.6923
  583MOL0     C76890  11.132   0.785   8.969  0.2463  0.0966 -0.0581
  583MOL0     H76891  10.823   1.086   9.280 -2.4350 -1.2195  0.8118
  583MOL0     H76892  10.591   1.141   9.331 -1.2822  0.2948 -0.8609
  583MOL0     H76893  10.435   1.297   9.370 -0.1035  2.2873 -0.8138
  583MOL0     H76894  10.361   1.134   9.331 -1.8441  0.5532 -0.6045
  583MOL0     H76895  10.204   1.288   9.425 -0.0194 -0.1454 -0.8439
  583MOL0     H76896  10.170   1.261   9.251  0.8121  0.0574 -1.0581
  583MOL0     H76897  10.271   1.482   9.201 -0.2239  1.0499  0.4496
  583MOL0     H76898  10.305   1.508   9.371 -0.4726  3.1010 -0.2265
  583MOL0     H76899  10.022   1.463   9.251  1.9919  1.9438 -3.9253
  583MOL0     H76900  10.049   1.500   9.419  0.1680 -0.4620  0.0670
  583MOL0     H76901  10.162   1.685   9.196 -0.7601 -0.8807 -0.3649
  583MOL0     H76902  10.112   1.734   9.358 -0.6126  1.3560 -0.8868
  583MOL0     H76903   9.880   1.702   9.313  0.2477  0.3614  0.7610
  583MOL0     H76904   9.915   1.668   9.143  1.3623  0.4980 -0.8372
  583MOL0     H76905   9.888   1.916   9.297  0.6856 -1.8190  0.7485
  583MOL0     H76906  10.054   1.915   9.219  0.9810 -0.0366  0.5568
  583MOL0     H76907   9.805   1.875   9.061 -1.3386  2.7627  1.5741
  583MOL0     H76908   9.976   1.905   9.006 -0.4807  4.1153 -0.8970
  583MOL0     H76909   9.742   2.125   9.235 -3.2364  5.1581 -1.3032
  583MOL0     H76910   9.811   2.487   9.142  2.0292 -1.8434 -3.0576
  583MOL0     H76911   9.787   2.389   9.277  4.6338 -0.7711 -1.2067
  583MOL0     H76912   9.575   2.298   9.170  1.4539 -0.7130 -0.8890
  583MOL0     H76913   9.623   2.408   9.026  3.1820  2.7134  0.2230
  583MOL0     H76914   9.540   2.505   9.296  1.2025 -2.5789 -0.0309
  583MOL0     H76915   9.604   2.605   9.160 -1.6051  1.6046  2.6838
  583MOL0     H76916   9.367   2.443   9.087  2.8539 -1.0840 -0.3921
  583MOL0     H76917   9.402   2.612   9.046 -0.2124  0.4677 -0.6535
  583MOL0     H76918   9.204   2.675   8.983  1.3107 -0.0091  0.6324
  583MOL0     H76919   8.991   2.786   8.954  0.3346 -1.5581  0.1830
  583MOL0     H76920   8.544   2.932   9.189 -1.4742  1.0394  0.2520
  583MOL0     H76921   8.350   3.068   9.134  0.9484  1.9125 -0.4749
  583MOL0     H76922   8.150   3.288   8.913 -1.9289  0.6440  0.9189
  583MOL0     H76923   8.226   3.240   9.058  0.2720  0.5889 -0.7475
  583MOL0     H76924   8.025   3.112   9.088 -0.6373  0.2887 -0.5639
  583MOL0     H76925   8.127   2.999   9.007 -0.7791  0.4253 -0.9838
  583MOL0     H76926   8.073   3.054   8.796  0.2991  0.0356 -0.5891
  583MOL0     H76927   7.957   3.177   8.829 -0.4104 -2.0975 -2.1850
  583MOL0     H76928   7.878   2.941   8.770  1.6186 -0.0239  0.1966
  583MOL0     H76929   7.932   2.883   8.920 -1.1233 -0.5902  0.9140
  583MOL0     H76930   7.746   3.127   8.895 -3.3835  0.3642  2.1515
  583MOL0     H76931   7.779   3.054   9.046 -3.1816  2.7486 -0.0953
  583MOL0     H76932   7.662   2.841   8.917  0.6451  0.2807 -0.4838
  583MOL0     H76933   7.615   2.982   8.819  1.9504 -0.4546 -0.4633
  583MOL0     H76934   7.531   2.951   9.109 -3.7204 -4.3704  0.6586
  583MOL0     H76935   7.487   3.081   8.996  1.6020 -0.1111 -1.2973
  583MOL0     H76936   7.308   2.915   9.009 -0.4858  0.2415 -1.0576
  583MOL0     H76937   7.418   2.778   9.001 -1.7110  0.5127  1.2109
  583MOL0     H76938   8.499   3.101   8.733  0.9647 -0.9071  0.0800
  583MOL0     H76939   8.719   3.012   8.807  1.7433  1.6453  2.3077
  583MOL0     H76940   8.938   2.801   9.373 -2.0130  1.1521 -1.9901
  583MOL0     H76941   9.147   2.662   9.408 -3.1041 -5.3771 -1.4982
  583MOL0     H76942  10.535   1.258   8.922  3.0705  1.1882 -1.0587
  583MOL0     H76943  10.744   1.210   8.870 -2.6188  3.6002  0.2032
  583MOL0     H76944  11.141   1.116   8.893  0.7689  1.0064  0.3999
  583MOL0     H76945  11.349   1.035   8.763  0.1905 -1.0763 -0.7932
  583MOL0     H76946  11.487   0.972   8.652 -0.9495  0.5651  0.7998
  583MOL0     H76947  11.549   0.826   8.577 -2.1195 -0.9514  0.2796
  583MOL0     H76948  11.708   0.969   8.704 -0.1194 -0.7874 -0.9746
  583MOL0     H76949  11.626   0.914   8.861 -0.7164 -0.8788  0.2267
  583MOL0     H76950  11.692   0.681   8.781 -0.7492  0.7049  0.3297
  583MOL0     H76951  11.822   0.789   8.837  0.2900  1.1789  0.2113
  583MOL0     H76952  11.888   0.658   8.642  2.6490  1.1260 -0.0110
  583MOL0     H76953  11.741   0.720   8.555 -0.6257  1.4563 -0.5097
  583MOL0     H76954  12.026   0.996   8.440  2.6063 -1.8296 -0.1252
  583MOL0     H76955  11.282   0.646   8.896 -1.4423 -0.9902  4.3001
  583MOL0     H76956  11.077   0.723   9.038  1.7278 -1.6978 -0.3979
  584MOL0     O76957   3.956   4.516   8.968 -0.1192 -0.1668 -0.7223
  584MOL0     C76958   4.010   4.445   8.883  0.0435 -0.0353 -0.4986
  584MOL0     O76959   3.963   4.323   8.836 -0.1551  0.2804 -0.1965
  584MOL0     C76960   3.845   4.277   8.889  0.5377  0.1382  0.1068
  584MOL0     C76961   3.852   4.157   8.960 -0.6050 -0.0019 -0.2518
  584MOL0     C76962   3.739   4.090   8.985  0.0665  0.1985 -0.8199
  584MOL0     C76963   3.618   4.152   8.972 -0.2040  0.4798  0.7288
  584MOL0     O76964   3.517   4.078   9.018  0.1439  0.6372  0.2508
  584MOL0     C76965   3.391   4.116   8.970 -0.5608 -0.2413 -0.9016
  584MOL0     C76966   3.285   4.022   9.021 -0.5556  0.4630 -0.0586
  584MOL0     C76967   3.282   4.016   9.175  0.3027 -0.1420  0.4452
  584MOL0     C76968   3.200   3.905   9.243  0.3684 -0.2065 -0.6984
  584MOL0     C76969   3.140   3.956   9.377 -0.1205  0.8150 -0.1772
  584MOL0     C76970   3.119   3.846   9.486 -0.1712  0.8563 -0.7060
  584MOL0     C76971   3.045   3.901   9.602  0.7573 -0.2973  0.2282
  584MOL0     C76972   2.936   3.809   9.649  0.4208  0.7534  0.3156
  584MOL0     N76973   2.870   3.849   9.778  0.3759  0.0214 -0.6497
  584MOL0     C76974   2.844   3.767   9.883 -0.4751 -0.0617  0.6048
  584MOL0     C76975   2.764   3.839   9.961 -0.0798 -0.8237 -0.6187
  584MOL0     C76976   2.703   3.796  10.090  0.0767  0.2766  0.3501
  584MOL0     C76977   2.549   3.796  10.081 -0.3036  0.4470 -0.3388
  584MOL0     C76978   2.488   3.682  10.005 -0.1971  0.0702  0.4052
  584MOL0     C76979   2.334   3.672  10.029  0.1216 -0.1203 -0.7374
  584MOL0     O76980   2.300   3.606  10.151 -0.1738 -0.4823  0.2577
  584MOL0     C76981   2.166   3.585  10.179 -0.2853  0.0656 -0.7483
  584MOL0     C76982   2.062   3.662  10.120 -0.7471  0.0900  0.1592
  584MOL0     C76983   1.928   3.641  10.154 -0.0334  0.1142  0.1971
  584MOL0     C76984   1.893   3.549  10.256 -1.1784  0.3447  0.3487
  584MOL0     C76985   1.755   3.510  10.293 -0.5761  0.3493  0.6029
  584MOL0     O76986   1.655   3.521  10.199  0.5762 -0.7208  0.3744
  584MOL0     C76987   1.527   3.537  10.248  0.9554  0.4011  0.3140
  584MOL0     C76988   1.434   3.432  10.253  0.5202 -0.5896  0.5674
  584MOL0     C76989   1.299   3.447  10.294  1.0789 -0.5774 -0.3758
  584MOL0     C76990   1.257   3.574  10.329 -0.2484  0.0419 -0.3616
  584MOL0     O76991   1.132   3.577  10.372 -0.4968 -0.2248 -0.1270
  584MOL0     C76992   1.086   3.705  10.411  0.0636 -0.1085 -0.0615
  584MOL0     C76993   0.930   3.717  10.421 -0.6361  0.2268  0.3562
  584MOL0     C76994   0.866   3.604  10.498  0.4170  0.2364 -0.5192
  584MOL0     C76995   0.894   3.600  10.642  0.3151 -0.4504 -0.1758
  584MOL0     C76996   0.864   3.467  10.712  0.1521  0.4253 -0.4753
  584MOL0     C76997   0.896   3.472  10.864 -0.2904  0.4742 -0.3001
  584MOL0     C76998   0.889   3.330  10.934  0.3590 -0.7218 -0.0556
  584MOL0     C76999   0.756   3.248  10.924  0.9170  0.4915 -0.1333
  584MOL0    Cl77000   0.758   3.097  11.020 -0.3190 -0.1901  0.1358
  584MOL0     C77001   1.352   3.679  10.340  0.1062  0.0695  0.1472
  584MOL0     C77002   1.487   3.657  10.303  0.6457 -1.2668  0.5545
  584MOL0     O77003   1.747   3.472  10.410 -0.2526 -0.6526  0.3892
  584MOL0     C77004   1.996   3.494  10.334 -0.1968  0.4462 -0.1349
  584MOL0     C77005   2.132   3.508  10.293  1.0015 -0.4166  0.3810
  584MOL0     N77006   2.742   3.967   9.910 -0.4011 -0.5735 -0.4270
  584MOL0     N77007   2.800   3.967   9.794  0.7724  0.0256 -0.4911
  584MOL0     C77008   3.610   4.281   8.906 -0.7552  0.0459 -0.7464
  584MOL0     C77009   3.727   4.341   8.861  0.5952 -0.6206 -0.4391
  584MOL0     C77010   4.147   4.483   8.839  0.1965 -0.0126 -0.3625
  584MOL0     C77011   4.205   4.605   8.880  0.8729  0.6493 -0.5866
  584MOL0     C77012   4.331   4.647   8.855 -0.5879 -0.4252  1.0106
  584MOL0     C77013   4.412   4.561   8.767  0.0763  0.2262 -0.0689
  584MOL0     O77014   4.535   4.583   8.717 -0.0517 -0.0413  0.4911
  584MOL0     C77015   4.599   4.710   8.755  0.1960  0.4011  0.5048
  584MOL0     C77016   4.724   4.723   8.670 -0.1181 -0.0929 -1.0569
  584MOL0     C77017   4.692   4.766   8.518 -0.9019 -0.3028 -0.0889
  584MOL0     C77018   4.817   4.777   8.440 -0.6627  0.1839 -0.6551
  584MOL0     C77019   4.915   4.879   8.482 -0.1935  0.6608  0.6977
  584MOL0     C77020   4.996   4.955   8.525  0.4647 -1.1644  0.0421
  584MOL0     C77021   4.357   4.441   8.710  0.0551  0.2720 -1.1443
  584MOL0     C77022   4.222   4.412   8.740 -0.0856  0.0018 -0.2293
  584MOL0     H77023   3.950   4.123   8.995 -0.8160  1.4753  1.9861
  584MOL0     H77024   3.734   3.986   9.014 -1.6577  0.7723  1.1729
  584MOL0     H77025   3.379   4.104   8.862 -0.4076  2.4064 -1.2794
  584MOL0     H77026   3.367   4.219   8.997  2.4693  1.0623 -2.6842
  584MOL0     H77027   3.318   3.925   8.983  2.5241  1.6147 -0.5246
  584MOL0     H77028   3.185   4.042   8.980 -1.1804  0.6543  1.4869
  584MOL0     H77029   3.253   4.114   9.214 -1.0924 -0.6095  0.6290
  584MOL0     H77030   3.383   4.008   9.218  0.4398 -0.4827  0.0652
  584MOL0     H77031   3.118   3.859   9.187  0.0073 -1.7077  0.9723
  584MOL0     H77032   3.267   3.819   9.256  1.7274  0.3663 -3.2850
  584MOL0     H77033   3.050   4.017   9.368  0.0641  1.1723  0.3387
  584MOL0     H77034   3.215   4.022   9.421  0.4777  0.4317 -0.5934
  584MOL0     H77035   3.214   3.798   9.511 -1.3950 -1.0709  0.5481
  584MOL0     H77036   3.060   3.768   9.438 -2.2601  0.8817  1.6195
  584MOL0     H77037   3.123   3.918   9.677 -0.7321 -1.7935  2.2594
  584MOL0     H77038   2.993   3.997   9.589  0.8421  0.0487  2.0476
  584MOL0     H77039   2.987   3.717   9.679  0.8635  1.5457  2.1476
  584MOL0     H77040   2.861   3.791   9.573  1.0168 -1.5206  0.1900
  584MOL0     H77041   2.863   3.664   9.911 -1.1073 -0.0764  1.0024
  584MOL0     H77042   2.737   3.867  10.166  1.4826 -0.0345  0.0413
  584MOL0     H77043   2.749   3.701  10.120 -0.1885 -0.0584 -0.2754
  584MOL0     H77044   2.511   3.892  10.044 -1.5055  0.8807  1.9133
  584MOL0     H77045   2.525   3.778  10.186  1.0501 -0.2171 -0.1218
  584MOL0     H77046   2.502   3.703   9.898 -2.3792 -0.4637 -0.0291
  584MOL0     H77047   2.537   3.584  10.018 -0.9645 -0.5287 -1.0002
  584MOL0     H77048   2.294   3.614   9.946  0.7418 -1.8567  0.1146
  584MOL0     H77049   2.286   3.770  10.023  1.0906  0.6462  2.2116
  584MOL0     H77050   2.089   3.738  10.048 -0.1051 -0.8692 -0.6340
  584MOL0     H77051   1.854   3.697  10.099  1.4816  0.1838 -1.8893
  584MOL0     H77052   1.463   3.335  10.213  2.0673  0.3888 -0.7999
  584MOL0     H77053   1.234   3.361  10.308  1.1518 -0.7955 -1.3645
  584MOL0     H77054   1.111   3.785  10.341  0.2801  0.4335  0.6290
  584MOL0     H77055   1.130   3.725  10.509 -0.8138 -3.0653  1.0559
  584MOL0     H77056   0.901   3.707  10.316  1.9709 -1.8163 -0.3056
  584MOL0     H77057   0.901   3.810  10.470 -0.8455 -0.6054  1.9011
  584MOL0     H77058   0.897   3.511  10.449  0.6463 -0.4771  0.9330
  584MOL0     H77059   0.757   3.615  10.489  0.2463 -0.6525  0.2621
  584MOL0     H77060   1.002   3.618  10.650  0.4809 -1.7439  0.8695
  584MOL0     H77061   0.834   3.675  10.696  1.4948  0.2056  0.2721
  584MOL0     H77062   0.936   3.391  10.682  0.8131 -0.3181  2.6530
  584MOL0     H77063   0.763   3.432  10.688 -0.0940  1.3002 -0.7564
  584MOL0     H77064   0.836   3.542  10.923 -2.0040 -1.0963 -0.0617
  584MOL0     H77065   1.003   3.491  10.866  0.1415 -1.6983  0.0778
  584MOL0     H77066   0.966   3.267  10.890 -0.5749  0.1348 -3.2475
  584MOL0     H77067   0.891   3.339  11.043 -0.7816 -0.9882  0.0041
  584MOL0     H77068   0.743   3.214  10.821  0.3882 -0.6644  0.2905
  584MOL0     H77069   0.674   3.309  10.965  0.7027 -0.3685  0.7633
  584MOL0     H77070   1.325   3.780  10.370 -0.1617 -0.5256  2.0916
  584MOL0     H77071   1.547   3.747  10.314  1.7273 -1.9360  0.2213
  584MOL0     H77072   1.973   3.423  10.412  0.6213 -3.4603 -3.1128
  584MOL0     H77073   2.201   3.457  10.360 -1.4324 -3.8112  0.5390
  584MOL0     H77074   3.523   4.340   8.882 -0.6751  1.3364  1.7580
  584MOL0     H77075   3.720   4.428   8.796  1.2742 -1.1567 -1.2558
  584MOL0     H77076   4.146   4.666   8.947 -0.2825  2.0164 -2.7043
  584MOL0     H77077   4.373   4.735   8.902  0.3195 -0.0568 -0.4218
  584MOL0     H77078   4.620   4.692   8.861 -0.7902 -1.5189  0.4149
  584MOL0     H77079   4.529   4.793   8.739 -1.2883 -0.9314 -0.1049
  584MOL0     H77080   4.789   4.793   8.724 -0.0877 -0.3649 -0.7400
  584MOL0     H77081   4.781   4.630   8.663 -0.8522 -0.6312 -0.1182
  584MOL0     H77082   4.650   4.867   8.522  4.3041  2.1607  1.8628
  584MOL0     H77083   4.621   4.699   8.469 -0.6013  0.2234 -1.2844
  584MOL0     H77084   4.868   4.680   8.436 -1.5631 -0.2947 -0.6442
  584MOL0     H77085   4.800   4.788   8.332  1.9958  1.1710 -1.0485
  584MOL0     H77086   5.073   5.027   8.546 -2.0084  2.7512 -2.8025
  584MOL0     H77087   4.417   4.383   8.641  1.8227  1.6319 -0.8296
  584MOL0     H77088   4.180   4.324   8.693  1.5065 -0.9842  0.0897
  585MOL0     O77089   5.677   9.397   0.760  0.4654 -0.2173 -0.1371
  585MOL0     C77090   5.668   9.275   0.766 -0.1508 -0.6891 -0.1593
  585MOL0     O77091   5.553   9.208   0.770 -0.1651 -0.5162 -0.5141
  585MOL0     C77092   5.429   9.265   0.756  0.1170  0.3241 -0.2354
  585MOL0     C77093   5.396   9.390   0.696 -0.2472 -0.0514  0.4291
  585MOL0     C77094   5.262   9.420   0.674  0.4202 -0.2204  0.3538
  585MOL0     C77095   5.162   9.344   0.727 -0.2970 -0.3459 -0.2872
  585MOL0     O77096   5.035   9.392   0.728 -0.3342 -0.1027  0.4517
  585MOL0     C77097   4.927   9.304   0.702  1.0058  0.4588  0.5145
  585MOL0     C77098   4.808   9.403   0.684  0.2440 -0.5738 -0.4817
  585MOL0     C77099   4.705   9.433   0.799  0.2992 -0.8604 -0.2550
  585MOL0     C77100   4.614   9.310   0.821  0.4159 -0.5748 -0.2178
  585MOL0     C77101   4.528   9.316   0.957  0.3984 -0.3877 -0.2075
  585MOL0     C77102   4.449   9.450   0.975  0.1837  0.2951 -0.3656
  585MOL0     C77103   4.350   9.442   1.104 -0.6218  0.2801 -0.9633
  585MOL0     C77104   4.274   9.569   1.148 -0.1271  0.3627  0.1249
  585MOL0     N77105   4.159   9.545   1.242 -0.4442  0.3145 -1.3986
  585MOL0     C77106   4.154   9.477   1.364  0.3873 -0.3027  0.3092
  585MOL0     C77107   4.024   9.458   1.384 -0.4867 -0.6344  0.1858
  585MOL0     C77108   3.946   9.404   1.508  0.3761 -0.1283 -0.5835
  585MOL0     C77109   3.798   9.402   1.500  0.5479 -0.4755 -0.7468
  585MOL0     C77110   3.746   9.333   1.624  0.5835 -0.0658 -0.1318
  585MOL0     C77111   3.593   9.330   1.608 -0.3948  0.0779  0.0680
  585MOL0     O77112   3.527   9.396   1.727 -1.2093  0.4092 -0.1737
  585MOL0     C77113   3.386   9.417   1.723  0.2982  0.5183 -0.0416
  585MOL0     C77114   3.287   9.345   1.642 -0.3223  0.0047 -0.2440
  585MOL0     C77115   3.150   9.371   1.646 -1.1133  0.1314 -0.0158
  585MOL0     C77116   3.107   9.467   1.736 -0.1275 -0.2512 -0.1438
  585MOL0     C77117   2.960   9.495   1.760 -0.0005  0.2965  0.5254
  585MOL0     O77118   2.870   9.414   1.687 -0.3295  0.2694 -0.0016
  585MOL0     C77119   2.739   9.432   1.707 -0.1048  0.9867 -0.4761
  585MOL0     C77120   2.674   9.426   1.835 -0.4827 -1.2785  0.3462
  585MOL0     C77121   2.537   9.458   1.844 -0.3302 -0.3099 -0.1833
  585MOL0     C77122   2.459   9.487   1.738  0.1038  0.9683  0.1116
  585MOL0     O77123   2.322   9.497   1.752  0.4632 -0.5800 -0.1656
  585MOL0     C77124   2.252   9.506   1.879  0.7726  0.3256 -0.2538
  585MOL0     C77125   2.117   9.528   1.831  0.8510 -0.6407  0.1137
  585MOL0     C77126   2.026   9.571   1.946  0.0259  0.9001  0.8299
  585MOL0     C77127   1.881   9.569   1.905  0.3968  0.8039 -0.0305
  585MOL0     C77128   1.803   9.632   2.018 -0.5674  0.2957 -0.1754
  585MOL0     C77129   1.652   9.626   2.004  0.6415 -0.0712  0.2570
  585MOL0     C77130   1.563   9.689   2.115 -0.7534  0.0275  0.3439
  585MOL0     C77131   1.432   9.739   2.063 -0.5555  0.4572 -0.4282
  585MOL0    Cl77132   1.322   9.598   2.035  0.7319  0.1831  0.2031
  585MOL0     C77133   2.519   9.481   1.608 -0.8550 -0.6873  0.0810
  585MOL0     C77134   2.655   9.454   1.600  0.6201 -0.0145  0.5897
  585MOL0     O77135   2.927   9.586   1.831 -0.0070 -0.0910 -0.7628
  585MOL0     C77136   3.208   9.532   1.823 -0.1625 -0.3275  0.1560
  585MOL0     C77137   3.343   9.510   1.818  0.0304  0.3398 -0.3211
  585MOL0     N77138   3.955   9.522   1.280 -0.0108 -0.1638 -0.2450
  585MOL0     N77139   4.037   9.566   1.198 -0.0633  0.5969 -0.1202
  585MOL0     C77140   5.189   9.230   0.794  0.6054  0.1366  0.2833
  585MOL0     C77141   5.322   9.187   0.807 -0.1298 -0.3285 -0.1498
  585MOL0     C77142   5.795   9.196   0.747  0.2488 -0.4364 -0.4122
  585MOL0     C77143   5.920   9.255   0.734  0.3247  0.2106  0.8779
  585MOL0     C77144   6.031   9.172   0.722  0.3359  0.7478 -0.0669
  585MOL0     C77145   6.030   9.031   0.730 -0.1525 -0.6100  0.1143
  585MOL0     O77146   6.133   8.945   0.765 -0.2244  0.3673 -0.0845
  585MOL0     C77147   6.259   9.009   0.815 -0.5648 -0.3452  0.0887
  585MOL0     C77148   6.373   8.906   0.831 -0.1709  0.8389  0.4378
  585MOL0     C77149   6.504   8.965   0.882  0.1772 -0.1650  0.3998
  585MOL0     C77150   6.632   8.877   0.875  0.4854  0.1101  0.3762
  585MOL0     C77151   6.644   8.771   0.974  0.8593 -0.0046  0.4002
  585MOL0     C77152   6.663   8.679   1.050 -0.5588 -0.1280  0.4966
  585MOL0     C77153   5.903   8.975   0.739 -0.0237 -0.2374  0.0458
  585MOL0     C77154   5.787   9.055   0.744 -0.5168  0.2883  0.4190
  585MOL0     H77155   5.474   9.452   0.651  0.5246 -1.1873  0.1504
  585MOL0     H77156   5.250   9.510   0.614 -1.8664  0.5960  1.9145
  585MOL0     H77157   4.916   9.234   0.785 -1.2734  2.6736  2.2442
  585MOL0     H77158   4.939   9.245   0.610 -3.1407  2.0526 -1.3145
  585MOL0     H77159   4.740   9.382   0.601 -1.1848  2.2346 -0.1459
  585MOL0     H77160   4.847   9.503   0.662 -1.4988  0.0566 -0.8515
  585MOL0     H77161   4.643   9.519   0.773  1.5111  0.1410  0.0672
  585MOL0     H77162   4.765   9.453   0.888  0.3694 -2.1628  0.0083
  585MOL0     H77163   4.552   9.300   0.731  1.1534  0.0654 -0.8139
  585MOL0     H77164   4.681   9.223   0.822  1.0727 -0.0749  0.7163
  585MOL0     H77165   4.589   9.291   1.044  1.0059  1.0131 -0.2071
  585MOL0     H77166   4.449   9.240   0.956  0.0857 -0.0647 -0.2025
  585MOL0     H77167   4.384   9.469   0.890 -0.8524 -0.4174  0.2467
  585MOL0     H77168   4.517   9.534   0.994 -0.9238  1.0896  0.1442
  585MOL0     H77169   4.272   9.373   1.071  0.4586 -2.1455  1.1630
  585MOL0     H77170   4.396   9.394   1.191 -1.3673  1.5257  0.1558
  585MOL0     H77171   4.238   9.623   1.061  0.0822  0.4535  0.0935
  585MOL0     H77172   4.355   9.627   1.193 -0.5867  0.1252  1.3141
  585MOL0     H77173   4.240   9.444   1.422  1.3103 -0.4915 -1.0873
  585MOL0     H77174   3.963   9.478   1.587  1.5472  0.5343 -1.4312
  585MOL0     H77175   3.988   9.307   1.533  0.1225  0.1627  1.1521
  585MOL0     H77176   3.758   9.358   1.409 -1.9370 -0.4804  0.2490
  585MOL0     H77177   3.758   9.504   1.505 -1.5220 -1.2940  0.7906
  585MOL0     H77178   3.786   9.231   1.634  0.9417  0.2458  2.0013
  585MOL0     H77179   3.773   9.394   1.711 -0.0572  1.9907 -1.3160
  585MOL0     H77180   3.558   9.227   1.593 -0.7502  0.2723 -0.4539
  585MOL0     H77181   3.574   9.389   1.518 -1.1744  1.5418  1.1438
  585MOL0     H77182   3.323   9.264   1.580 -0.3511 -1.8618  2.0449
  585MOL0     H77183   3.080   9.316   1.583  0.9864 -0.7332 -1.7183
  585MOL0     H77184   2.731   9.408   1.925 -1.7984 -3.9384  0.7232
  585MOL0     H77185   2.489   9.452   1.941 -0.1511  1.8224  0.0820
  585MOL0     H77186   2.282   9.584   1.950  1.4365 -0.7816  0.7069
  585MOL0     H77187   2.256   9.406   1.922  1.1364  1.0068  1.3829
  585MOL0     H77188   2.075   9.440   1.782 -0.1316 -0.1309  0.0033
  585MOL0     H77189   2.122   9.609   1.757 -2.8019  0.1287  0.5212
  585MOL0     H77190   2.052   9.674   1.973  1.6617  0.6182  0.4763
  585MOL0     H77191   2.036   9.506   2.034  1.0803 -0.9060 -0.5306
  585MOL0     H77192   1.871   9.625   1.811 -0.2684 -0.3304 -0.6612
  585MOL0     H77193   1.844   9.466   1.895 -0.7357  1.1158  0.8887
  585MOL0     H77194   1.837   9.736   2.025 -4.0121  1.5589 -0.2953
  585MOL0     H77195   1.825   9.577   2.110 -1.3624 -0.0957 -0.2094
  585MOL0     H77196   1.635   9.519   2.014  0.4359  0.0034  0.7623
  585MOL0     H77197   1.629   9.665   1.905  0.3209  0.8700  0.6871
  585MOL0     H77198   1.546   9.623   2.201  1.2577  1.1745  1.6961
  585MOL0     H77199   1.606   9.782   2.154 -0.2725  0.8661 -2.0049
  585MOL0     H77200   1.446   9.785   1.965 -1.2483  1.0531 -0.2562
  585MOL0     H77201   1.386   9.804   2.139 -2.6426 -2.0072  0.5559
  585MOL0     H77202   2.468   9.497   1.514 -0.4418  0.6377  0.0610
  585MOL0     H77203   2.696   9.447   1.500 -0.1166 -0.5155  0.3116
  585MOL0     H77204   3.176   9.605   1.896 -0.2776  1.0151 -1.1828
  585MOL0     H77205   3.415   9.554   1.886  2.2107 -0.7512 -1.8326
  585MOL0     H77206   5.114   9.166   0.840 -1.1358  0.8700 -1.4065
  585MOL0     H77207   5.343   9.087   0.846 -1.4152 -0.5190  0.1025
  585MOL0     H77208   5.928   9.363   0.729 -0.2267  0.2637  1.0300
  585MOL0     H77209   6.126   9.223   0.717  2.2976 -2.5488  0.4183
  585MOL0     H77210   6.244   9.059   0.911  0.6450  1.1852 -0.4779
  585MOL0     H77211   6.289   9.087   0.745 -0.3655 -1.0575 -0.6313
  585MOL0     H77212   6.342   8.826   0.899  1.2731 -0.7944 -0.7369
  585MOL0     H77213   6.387   8.852   0.737  1.4365 -2.9532  2.6100
  585MOL0     H77214   6.485   8.990   0.987 -0.6555 -0.6905  0.3874
  585MOL0     H77215   6.530   9.053   0.823  0.7622 -0.9361 -0.5256
  585MOL0     H77216   6.654   8.834   0.777  2.2959 -0.8444  1.1729
  585MOL0     H77217   6.719   8.934   0.908  3.0351 -2.5898 -1.2366
  585MOL0     H77218   6.684   8.606   1.125  0.2270 -0.7796 -0.3348
  585MOL0     H77219   5.886   8.868   0.739 -1.0883 -0.1589 -2.6748
  585MOL0     H77220   5.691   9.004   0.739  0.6239 -1.9577 -4.0592
  586MOL0     O77221   1.830   8.806   5.927  0.1726 -0.7959 -0.1655
  586MOL0     C77222   1.795   8.914   5.883 -0.2474  0.0580 -0.2525
  586MOL0     O77223   1.681   8.981   5.916 -0.8693 -0.1671 -0.3224
  586MOL0     C77224   1.577   8.924   5.978  0.1925  0.8725  0.4524
  586MOL0     C77225   1.506   9.017   6.046 -0.4369  0.1811 -0.0771
  586MOL0     C77226   1.397   8.980   6.125 -0.5268  1.1536  0.3185
  586MOL0     C77227   1.350   8.848   6.123  0.1163 -0.4602 -0.1160
  586MOL0     O77228   1.249   8.814   6.202  0.0987  0.5612 -0.2285
  586MOL0     C77229   1.129   8.882   6.201 -0.3195  0.0560  1.1810
  586MOL0     C77230   1.011   8.782   6.199 -0.3962 -0.2662  0.3614
  586MOL0     C77231   0.873   8.851   6.203 -0.7452 -0.4661 -0.6777
  586MOL0     C77232   0.777   8.747   6.258 -0.5231 -0.3163  0.1563
  586MOL0     C77233   0.649   8.820   6.318 -0.0097 -0.4396  0.0101
  586MOL0     C77234   0.559   8.888   6.210 -0.0515 -0.0049 -0.0480
  586MOL0     C77235   0.492   8.789   6.113 -0.0361  1.0240  0.2014
  586MOL0     C77236   0.399   8.688   6.182  0.6412 -0.2230  0.6272
  586MOL0     N77237   0.267   8.745   6.194  0.1231  0.2825 -0.2574
  586MOL0     C77238   0.221   8.825   6.298  0.1525  0.7066 -0.3404
  586MOL0     C77239   0.095   8.860   6.265 -0.2389 -0.2402 -1.0475
  586MOL0     C77240   0.007   8.945   6.353  0.1771 -0.1772 -0.9427
  586MOL0     C77241   0.048   9.085   6.334  0.7110 -0.2445 -0.0675
  586MOL0     C77242   0.040   9.136   6.189  0.2149  0.1599 -0.0527
  586MOL0     C77243   0.055   9.289   6.180  0.1919 -0.6746  0.2085
  586MOL0     O77244  -0.014   9.376   6.271 -0.7845  0.1134  0.4335
  586MOL0     C77245  -0.151   9.364   6.260 -0.4570 -0.4673  0.3828
  586MOL0     C77246  -0.214   9.361   6.138  0.3576 -0.0449  0.4219
  586MOL0     C77247  -0.352   9.353   6.139 -0.6248  0.0509 -0.6487
  586MOL0     C77248  -0.424   9.350   6.261 -0.1755 -0.1555 -0.4287
  586MOL0     C77249  -0.563   9.358   6.244 -0.1644 -0.5591  0.5643
  586MOL0     O77250  -0.614   9.355   6.113 -0.2320 -0.2021 -1.0180
  586MOL0     C77251  -0.740   9.396   6.085 -0.4010 -0.0523 -0.4532
  586MOL0     C77252  -0.826   9.294   6.030  0.0263  0.4078 -0.1770
  586MOL0     C77253  -0.947   9.326   5.974  0.0227  0.1128  0.2521
  586MOL0     C77254  -0.995   9.459   5.979  0.5543 -0.5438 -0.3603
  586MOL0     O77255  -1.111   9.498   5.918 -0.0458  0.4798 -0.3166
  586MOL0     C77256  -1.221   9.406   5.896 -0.2530  0.3016 -0.3228
  586MOL0     C77257  -1.324   9.491   5.820 -0.7009 -0.0158 -0.1728
  586MOL0     C77258  -1.451   9.406   5.787 -0.2718 -0.4318 -0.3583
  586MOL0     C77259  -1.528   9.496   5.689 -1.3897 -0.1348  0.3802
  586MOL0     C77260  -1.663   9.444   5.653  0.1134  0.0154  0.9509
  586MOL0     C77261  -1.647   9.328   5.552 -0.5328 -0.7875 -0.2524
  586MOL0     C77262  -1.775   9.269   5.495  0.5081 -0.6950  0.4833
  586MOL0     C77263  -1.755   9.124   5.449 -0.2678  0.9956  0.5190
  586MOL0    Cl77264  -1.903   9.075   5.339  0.3040  0.2961 -0.2274
  586MOL0     C77265  -0.922   9.558   6.051 -0.6319  0.4221 -0.9201
  586MOL0     C77266  -0.790   9.530   6.102  0.2904 -0.1782  0.0401
  586MOL0     O77267  -0.637   9.366   6.343 -0.6659 -0.5049 -0.0343
  586MOL0     C77268  -0.362   9.348   6.380 -0.6276 -0.0930 -0.0980
  586MOL0     C77269  -0.221   9.368   6.383 -0.2412  0.1064 -0.1864
  586MOL0     N77270   0.064   8.781   6.156  0.5260  0.4992 -0.5249
  586MOL0     N77271   0.168   8.721   6.106  0.0654 -0.6225 -0.1537
  586MOL0     C77272   1.424   8.749   6.056  0.1623  0.4326  0.0323
  586MOL0     C77273   1.542   8.786   5.999  0.3614 -0.1523  0.1971
  586MOL0     C77274   1.894   8.981   5.802 -0.1674 -0.3869 -1.6008
  586MOL0     C77275   2.037   8.951   5.818 -0.3671  0.0207 -0.3195
  586MOL0     C77276   2.129   9.014   5.730 -0.1576 -0.4085 -0.2502
  586MOL0     C77277   2.092   9.111   5.630  0.0941 -0.6434 -0.2767
  586MOL0     O77278   2.177   9.171   5.540 -0.2876 -0.5010  0.0936
  586MOL0     C77279   2.315   9.124   5.546 -0.6443  0.3510  0.5127
  586MOL0     C77280   2.410   9.190   5.443 -0.0887 -0.1757 -1.1906
  586MOL0     C77281   2.357   9.178   5.300  0.5236 -0.7469  0.1520
  586MOL0     C77282   2.445   9.244   5.189  0.6707 -0.6521 -0.5022
  586MOL0     C77283   2.557   9.158   5.165  0.3820 -0.0463 -0.3946
  586MOL0     C77284   2.657   9.092   5.137 -0.3968 -0.0143 -0.6070
  586MOL0     C77285   1.947   9.130   5.618 -0.3508 -0.2488  0.7538
  586MOL0     C77286   1.848   9.069   5.700 -1.0105  0.1200 -1.0704
  586MOL0     H77287   1.551   9.115   6.034  0.9068 -0.0313  2.5535
  586MOL0     H77288   1.361   9.051   6.198 -0.2275 -0.5525  2.2336
  586MOL0     H77289   1.126   8.946   6.112  0.2638 -1.3761  0.0982
  586MOL0     H77290   1.130   8.953   6.284  0.9012  0.8586  0.5082
  586MOL0     H77291   1.017   8.710   6.281 -0.8410 -1.7973 -0.9078
  586MOL0     H77292   1.021   8.714   6.114 -3.5892 -0.6138  0.1273
  586MOL0     H77293   0.847   8.875   6.100 -3.3406 -1.2202 -0.2727
  586MOL0     H77294   0.877   8.936   6.272  1.2849 -1.3948  0.4271
  586MOL0     H77295   0.755   8.673   6.181  0.8617 -1.8348  1.1605
  586MOL0     H77296   0.818   8.686   6.339 -1.7910 -1.0164  0.2836
  586MOL0     H77297   0.684   8.888   6.396  1.0790 -0.6252 -0.2938
  586MOL0     H77298   0.593   8.743   6.371  0.5162  0.4810  1.9915
  586MOL0     H77299   0.617   8.970   6.167 -0.0369  1.4091  2.4726
  586MOL0     H77300   0.478   8.933   6.267  1.9317 -0.4045  3.3441
  586MOL0     H77301   0.437   8.845   6.036  0.8102  0.0253 -1.1843
  586MOL0     H77302   0.577   8.736   6.069  1.2053  3.3168 -0.3311
  586MOL0     H77303   0.429   8.638   6.274 -1.6535 -0.3093  1.3906
  586MOL0     H77304   0.394   8.604   6.112 -0.3023  0.4148 -0.1075
  586MOL0     H77305   0.272   8.863   6.386  1.8005  2.6327 -2.0138
  586MOL0     H77306   0.026   8.910   6.455  0.7496  1.2098 -0.5462
  586MOL0     H77307  -0.093   8.937   6.311 -1.7021  3.5486  2.2153
  586MOL0     H77308   0.149   9.113   6.365  0.4535  1.0483 -0.3128
  586MOL0     H77309  -0.026   9.149   6.383  1.0030  2.6440 -3.0433
  586MOL0     H77310   0.111   9.102   6.114 -0.9970 -2.5968 -0.0576
  586MOL0     H77311  -0.064   9.112   6.163 -0.1546 -0.2870  1.7483
  586MOL0     H77312   0.032   9.319   6.077  2.4548  0.8774  0.0995
  586MOL0     H77313   0.160   9.312   6.198  0.2563  0.3251 -1.2323
  586MOL0     H77314  -0.163   9.375   6.043  0.5026  3.3986  0.8576
  586MOL0     H77315  -0.406   9.344   6.046 -0.2577 -2.4662 -0.6794
  586MOL0     H77316  -0.776   9.199   6.009 -2.5588 -0.6266 -2.2026
  586MOL0     H77317  -0.998   9.252   5.912 -1.9575 -0.3049  2.2515
  586MOL0     H77318  -1.270   9.384   5.992 -2.0575  0.2825 -1.2170
  586MOL0     H77319  -1.187   9.314   5.849  0.0166  0.9854 -1.5059
  586MOL0     H77320  -1.285   9.526   5.724 -1.1934 -1.1103 -0.7994
  586MOL0     H77321  -1.344   9.580   5.879 -2.8762 -1.1477  0.9239
  586MOL0     H77322  -1.510   9.394   5.879  2.8477 -2.3001  1.6101
  586MOL0     H77323  -1.435   9.306   5.744 -0.7539 -0.4264 -0.5515
  586MOL0     H77324  -1.545   9.585   5.751  1.5479 -0.9568  2.5935
  586MOL0     H77325  -1.468   9.519   5.601  2.5001 -1.4270  2.4490
  586MOL0     H77326  -1.709   9.525   5.595  0.8884  0.2110  0.5899
  586MOL0     H77327  -1.722   9.418   5.741  1.1764  0.5427  1.8418
  586MOL0     H77328  -1.595   9.248   5.605  0.5067 -1.0336 -1.5825
  586MOL0     H77329  -1.584   9.353   5.466  1.5131 -1.0516  1.1222
  586MOL0     H77330  -1.863   9.277   5.559 -0.7146 -0.8795 -1.1187
  586MOL0     H77331  -1.803   9.326   5.406  0.7406 -0.0950  0.7912
  586MOL0     H77332  -1.735   9.063   5.537  2.9874  0.7676 -0.2245
  586MOL0     H77333  -1.664   9.131   5.388 -0.0620 -1.2773  0.4990
  586MOL0     H77334  -0.962   9.657   6.066 -0.3202  0.2104  1.7967
  586MOL0     H77335  -0.734   9.611   6.148 -0.2902  0.7949 -0.9116
  586MOL0     H77336  -0.409   9.330   6.476  0.2223 -0.7074  0.2239
  586MOL0     H77337  -0.169   9.362   6.478 -0.8119  1.7170  0.2543
  586MOL0     H77338   1.408   8.642   6.067 -0.6996  0.0736 -3.5211
  586MOL0     H77339   1.603   8.702   5.968 -2.2192 -1.8765 -0.4763
  586MOL0     H77340   2.076   8.877   5.886  1.9128  1.4179  0.0313
  586MOL0     H77341   2.234   8.988   5.737 -0.0449  0.3069  1.1282
  586MOL0     H77342   2.314   9.020   5.510  0.0965  1.3105 -2.5434
  586MOL0     H77343   2.353   9.130   5.649 -0.5528  1.1248  0.4373
  586MOL0     H77344   2.404   9.296   5.469 -2.2566 -0.4352 -0.4499
  586MOL0     H77345   2.510   9.147   5.456 -0.3411 -0.4790 -0.2139
  586MOL0     H77346   2.256   9.219   5.289  1.0630  0.0666 -2.4756
  586MOL0     H77347   2.341   9.073   5.273 -1.6269 -1.0331  2.1507
  586MOL0     H77348   2.391   9.243   5.094  0.8218 -1.1507 -0.5846
  586MOL0     H77349   2.471   9.348   5.213  0.5388 -0.0642 -2.7116
  586MOL0     H77350   2.735   9.024   5.110 -0.8419  0.3438 -3.0207
  586MOL0     H77351   1.911   9.193   5.539 -1.0727 -1.3191  0.2097
  586MOL0     H77352   1.740   9.072   5.688 -0.7501 -0.9801 -4.8838
  587MOL0     O77353   6.685   5.752   1.135 -0.1283  0.5178 -0.1496
  587MOL0     C77354   6.688   5.710   1.018  0.0459 -0.1600  0.7484
  587MOL0     O77355   6.589   5.728   0.925  0.5958 -0.3804 -0.7176
  587MOL0     C77356   6.480   5.811   0.962 -0.0169 -0.0746  0.1681
  587MOL0     C77357   6.384   5.775   1.056 -0.3048  0.1217  0.7788
  587MOL0     C77358   6.279   5.863   1.079  0.0075  0.3087  0.0278
  587MOL0     C77359   6.255   5.978   1.006 -0.0821  0.4998  0.0235
  587MOL0     O77360   6.150   6.069   1.011 -0.2151  0.5160  0.8808
  587MOL0     C77361   6.058   6.065   1.123  0.5471  0.1005  0.1144
  587MOL0     C77362   5.955   6.187   1.129  0.4434 -0.0932 -0.2949
  587MOL0     C77363   5.862   6.176   1.245 -0.2989  0.0964  0.6009
  587MOL0     C77364   5.743   6.270   1.216 -0.1708  0.3630 -0.3242
  587MOL0     C77365   5.637   6.294   1.332  0.0344  0.6144  0.7147
  587MOL0     C77366   5.560   6.164   1.367  0.8134 -0.5681  0.0853
  587MOL0     C77367   5.438   6.198   1.458 -0.4669  0.6105 -0.1054
  587MOL0     C77368   5.343   6.079   1.487  0.2512  0.3392 -0.6724
  587MOL0     N77369   5.271   6.041   1.365 -0.2538 -0.0151  0.0114
  587MOL0     C77370   5.154   6.103   1.332 -0.1277  0.0065  0.2115
  587MOL0     C77371   5.098   6.019   1.236 -0.1771 -0.7416 -0.9591
  587MOL0     C77372   4.963   6.036   1.177  0.1054 -0.0029 -0.9245
  587MOL0     C77373   4.979   6.073   1.034 -0.0825 -0.1601 -0.1160
  587MOL0     C77374   4.973   5.967   0.921  0.6018 -0.1627  0.5168
  587MOL0     C77375   4.831   5.904   0.909  0.1492 -0.5800  0.1567
  587MOL0     O77376   4.744   5.995   0.831 -0.2620  0.4935 -0.2993
  587MOL0     C77377   4.609   5.965   0.837  0.1861 -0.5761  0.2495
  587MOL0     C77378   4.523   6.032   0.928  0.0999 -0.3180  0.4025
  587MOL0     C77379   4.389   6.000   0.940  0.1721  0.7015 -0.2117
  587MOL0     C77380   4.332   5.899   0.866 -0.4058 -0.5385  1.0988
  587MOL0     C77381   4.194   5.864   0.890  0.0921  0.5759  0.6965
  587MOL0     O77382   4.156   5.746   0.844 -0.7026 -0.2831  0.9529
  587MOL0     C77383   4.027   5.705   0.856 -0.2916 -0.1204 -0.1604
  587MOL0     C77384   3.933   5.766   0.781  0.3263 -0.3546 -0.0819
  587MOL0     C77385   3.801   5.723   0.791 -0.6205  0.5367 -0.1360
  587MOL0     C77386   3.761   5.623   0.875 -0.0181  0.5726  0.4955
  587MOL0     O77387   3.623   5.593   0.894  0.7623 -0.0276 -0.0496
  587MOL0     C77388   3.581   5.453   0.897 -1.0410 -0.8740  0.2873
  587MOL0     C77389   3.427   5.441   0.902 -0.2561 -0.2877  0.3818
  587MOL0     C77390   3.381   5.305   0.953  0.6833 -0.5281  0.6580
  587MOL0     C77391   3.225   5.323   0.967  0.8470  0.5551  0.1042
  587MOL0     C77392   3.163   5.184   0.985 -0.4662  0.2508  0.2788
  587MOL0     C77393   3.010   5.189   0.993 -0.4206  0.2602 -0.3886
  587MOL0     C77394   2.969   5.048   0.948 -0.1355 -0.5684  0.5430
  587MOL0     C77395   2.820   5.031   0.959  0.1242  0.1840 -0.6893
  587MOL0    Cl77396   2.759   4.878   0.889  0.0549 -0.0425 -0.1016
  587MOL0     C77397   3.861   5.553   0.948 -0.1356 -0.1853 -0.8216
  587MOL0     C77398   3.994   5.594   0.938 -0.6080 -0.2833 -0.3730
  587MOL0     O77399   4.124   5.939   0.959  0.3692  0.0746 -0.2435
  587MOL0     C77400   4.412   5.827   0.770 -0.5150 -0.3357  0.8227
  587MOL0     C77401   4.553   5.858   0.760  0.5234 -0.0848  0.3923
  587MOL0     N77402   5.185   5.903   1.228  1.2723 -0.5215  0.0290
  587MOL0     N77403   5.297   5.933   1.289  0.3303 -0.1669 -0.7349
  587MOL0     C77404   6.355   6.009   0.914  0.1622  0.2488 -0.0025
  587MOL0     C77405   6.469   5.933   0.893  0.5857  0.6832  0.3048
  587MOL0     C77406   6.814   5.648   0.978 -0.2330  1.4575 -0.2732
  587MOL0     C77407   6.814   5.562   0.874 -0.0198 -0.5085  0.0807
  587MOL0     C77408   6.924   5.482   0.845  0.3777 -1.0874  0.1753
  587MOL0     C77409   7.033   5.476   0.933  0.6337 -0.6027 -1.2045
  587MOL0     O77410   7.143   5.416   0.888 -0.1571  0.9444 -0.2581
  587MOL0     C77411   7.229   5.337   0.981 -0.0991  0.1599  0.2111
  587MOL0     C77412   7.326   5.255   0.901  0.8119 -0.0110 -0.3182
  587MOL0     C77413   7.409   5.173   1.008 -0.0861 -0.0792  0.6149
  587MOL0     C77414   7.517   5.084   0.941 -0.2171 -0.2941 -0.7578
  587MOL0     C77415   7.558   4.969   1.020 -0.3032  0.5227  0.3256
  587MOL0     C77416   7.580   4.868   1.086  0.9922 -0.4553 -0.0902
  587MOL0     C77417   7.023   5.559   1.046 -1.2703  1.1213 -0.2127
  587MOL0     C77418   6.922   5.649   1.071 -0.2154  0.3747 -0.0776
  587MOL0     H77419   6.387   5.677   1.102 -0.0177 -0.6541 -0.8280
  587MOL0     H77420   6.204   5.836   1.153 -2.1264  4.0549 -0.4923
  587MOL0     H77421   6.108   6.061   1.220  0.6980  0.4503  0.0515
  587MOL0     H77422   5.987   5.982   1.113 -0.9174  0.7393  3.7612
  587MOL0     H77423   5.905   6.197   1.033 -0.3371  1.7767  0.2693
  587MOL0     H77424   6.015   6.278   1.143 -1.3056  0.7807  2.2823
  587MOL0     H77425   5.919   6.211   1.331 -2.2481  2.6246  0.9944
  587MOL0     H77426   5.823   6.078   1.272 -0.9474  0.8977  2.7637
  587MOL0     H77427   5.782   6.368   1.184 -0.1274 -0.1064 -1.7855
  587MOL0     H77428   5.682   6.228   1.135 -2.0356  0.1772  1.1070
  587MOL0     H77429   5.562   6.372   1.315  0.9785  1.6260  1.0438
  587MOL0     H77430   5.690   6.328   1.422 -0.6166 -2.3700  2.3433
  587MOL0     H77431   5.622   6.095   1.425 -0.8087  0.6570  3.5458
  587MOL0     H77432   5.518   6.118   1.277 -1.0012  3.0581 -1.1044
  587MOL0     H77433   5.485   6.220   1.554  0.3096  1.2177 -0.6165
  587MOL0     H77434   5.387   6.286   1.418 -1.4870 -0.5940 -1.6298
  587MOL0     H77435   5.280   6.113   1.570  0.4363  0.9380 -0.7746
  587MOL0     H77436   5.402   5.997   1.529  1.1199  1.3318  0.1102
  587MOL0     H77437   5.110   6.194   1.373 -1.4163 -0.9912  1.1378
  587MOL0     H77438   4.907   6.110   1.236  0.9125  1.7754 -2.2903
  587MOL0     H77439   4.918   5.940   1.203  0.2576  0.8463  3.1795
  587MOL0     H77440   5.073   6.126   1.017 -0.7617  1.0303 -0.2995
  587MOL0     H77441   4.894   6.141   1.019  0.6440  0.7666 -0.0887
  587MOL0     H77442   5.014   6.004   0.827  1.6863 -1.1461  0.5790
  587MOL0     H77443   5.049   5.896   0.953  1.6239  0.9651  0.6513
  587MOL0     H77444   4.783   5.880   1.004 -1.9543 -3.4055 -1.4537
  587MOL0     H77445   4.846   5.805   0.864 -1.0362 -0.5698 -0.2824
  587MOL0     H77446   4.567   6.116   0.980 -1.8145  1.1290 -0.2065
  587MOL0     H77447   4.325   6.048   1.014 -2.0670 -1.1697 -0.8211
  587MOL0     H77448   3.963   5.838   0.705 -0.6401 -0.2248 -0.3551
  587MOL0     H77449   3.721   5.780   0.744  0.4726  1.3030 -1.1093
  587MOL0     H77450   3.637   5.411   0.982  2.1434  2.3140  0.0327
  587MOL0     H77451   3.612   5.406   0.804  0.9535  0.4237  0.2057
  587MOL0     H77452   3.391   5.464   0.801  2.2256 -1.2052 -0.7926
  587MOL0     H77453   3.397   5.522   0.969 -0.5552 -0.8829  0.9770
  587MOL0     H77454   3.415   5.290   1.055  0.7016 -3.2375  0.3350
  587MOL0     H77455   3.422   5.230   0.885 -0.3539 -0.3608 -0.1850
  587MOL0     H77456   3.204   5.390   1.051  0.9384 -0.2618  0.7985
  587MOL0     H77457   3.176   5.373   0.884  1.1090 -1.1912 -1.1559
  587MOL0     H77458   3.215   5.139   1.070  1.2034  3.0511  0.8586
  587MOL0     H77459   3.179   5.122   0.897 -3.6850  3.9130 -3.2887
  587MOL0     H77460   2.964   5.265   0.929  0.3752  1.7293  0.7341
  587MOL0     H77461   2.981   5.212   1.096 -0.3727 -2.7847  0.4094
  587MOL0     H77462   2.996   5.028   0.843 -4.5231 -3.9427 -0.2494
  587MOL0     H77463   3.016   4.972   1.011  1.4702 -2.2198 -2.4376
  587MOL0     H77464   2.769   5.107   0.900 -1.1663  0.8671  1.2278
  587MOL0     H77465   2.790   5.030   1.064 -5.1021 -0.8049 -1.9297
  587MOL0     H77466   3.835   5.479   1.022  0.5174  1.1819  0.8603
  587MOL0     H77467   4.069   5.547   1.002  0.3835 -0.5317 -1.6864
  587MOL0     H77468   4.365   5.753   0.706  1.6584 -1.0788 -0.0254
  587MOL0     H77469   4.612   5.807   0.685 -1.6968 -0.6231 -1.1084
  587MOL0     H77470   6.325   6.097   0.858 -0.4744  2.8262  3.9543
  587MOL0     H77471   6.544   5.952   0.817  0.6525 -2.1360 -0.4617
  587MOL0     H77472   6.735   5.558   0.799  0.1579  1.9636 -0.3125
  587MOL0     H77473   6.919   5.417   0.758  3.1939  1.1704 -1.8493
  587MOL0     H77474   7.167   5.267   1.038  2.3423 -1.5889  0.8870
  587MOL0     H77475   7.288   5.395   1.052  0.7800 -0.3003 -0.1322
  587MOL0     H77476   7.276   5.186   0.833  0.1409 -0.6283  0.7733
  587MOL0     H77477   7.390   5.326   0.848 -0.4502  1.5717  0.2143
  587MOL0     H77478   7.340   5.113   1.068  1.6681 -1.8021  1.0361
  587MOL0     H77479   7.460   5.245   1.073  0.1038  0.2167  0.1451
  587MOL0     H77480   7.482   5.054   0.842  0.7208 -0.5285 -1.0250
  587MOL0     H77481   7.605   5.144   0.918 -1.7084  2.1829 -0.3155
  587MOL0     H77482   7.587   4.780   1.148 -0.1237 -1.2109 -0.9954
  587MOL0     H77483   7.111   5.576   1.107 -1.1233 -0.8503  0.1894
  587MOL0     H77484   6.923   5.707   1.163  5.6784 -0.4977  0.7582
  588MOL0     O77485   0.260   3.183   4.996  0.2715 -0.2618 -0.6490
  588MOL0     C77486   0.225   3.302   4.969 -0.8117  0.4409 -0.8556
  588MOL0     O77487   0.095   3.346   4.966 -0.0071  0.7461 -0.2378
  588MOL0     C77488  -0.012   3.280   5.024 -0.8471  0.4634  0.2949
  588MOL0     C77489  -0.023   3.146   5.052  0.0439  0.4226  0.2400
  588MOL0     C77490  -0.150   3.094   5.105 -1.5332 -0.3450  0.5837
  588MOL0     C77491  -0.262   3.179   5.116 -0.3313  0.5112 -0.5790
  588MOL0     O77492  -0.391   3.119   5.135 -0.7208 -0.3039  0.4728
  588MOL0     C77493  -0.499   3.199   5.183  0.3663  1.2405 -0.6895
  588MOL0     C77494  -0.594   3.086   5.241 -0.7165 -0.4680 -0.7484
  588MOL0     C77495  -0.735   3.140   5.296 -0.1979 -0.0181 -0.1122
  588MOL0     C77496  -0.814   3.194   5.181  0.5090  0.8121  1.0307
  588MOL0     C77497  -0.948   3.227   5.223  0.9520  0.2002  0.2262
  588MOL0     C77498  -1.028   3.265   5.107  0.0050 -0.0571  1.3376
  588MOL0     C77499  -1.169   3.328   5.132 -0.2136  0.9199 -1.2402
  588MOL0     C77500  -1.241   3.380   5.006 -0.7649  0.1362  0.2587
  588MOL0     N77501  -1.386   3.396   5.021  0.2200  0.4075  0.1224
  588MOL0     C77502  -1.445   3.481   5.119 -0.0374 -1.1039  0.4603
  588MOL0     C77503  -1.564   3.431   5.150 -1.1066  0.3276 -0.4088
  588MOL0     C77504  -1.645   3.487   5.255  0.7484  0.2333  0.1427
  588MOL0     C77505  -1.788   3.521   5.224 -0.3246 -0.2496  0.4400
  588MOL0     C77506  -1.857   3.576   5.351  0.4252  0.8678  0.1018
  588MOL0     C77507  -2.010   3.567   5.329 -0.2101 -0.6476  0.2091
  588MOL0     O77508  -2.077   3.564   5.454  0.3480 -0.5771 -0.2100
  588MOL0     C77509  -2.206   3.521   5.454  0.0349 -0.8920 -0.2183
  588MOL0     C77510  -2.271   3.507   5.577 -0.0290  0.3703  0.1668
  588MOL0     C77511  -2.413   3.483   5.575  0.6448 -0.1725 -0.4196
  588MOL0     C77512  -2.491   3.486   5.461  0.2523 -0.1589  0.0255
  588MOL0     C77513  -2.642   3.486   5.473 -0.8086  0.2680 -0.4599
  588MOL0     O77514  -2.691   3.479   5.596  0.0672  0.4924  0.1195
  588MOL0     C77515  -2.826   3.482   5.619  0.4536  0.0942  0.7042
  588MOL0     C77516  -2.911   3.393   5.545  0.1384 -0.4082 -0.1162
  588MOL0     C77517  -3.042   3.371   5.576 -0.1852 -0.6051 -0.0896
  588MOL0     C77518  -3.100   3.445   5.673  0.6573  0.2776  0.2012
  588MOL0     O77519  -3.231   3.447   5.714 -0.1174 -0.2467  0.2613
  588MOL0     C77520  -3.326   3.423   5.603  0.2242 -0.5815  0.3307
  588MOL0     C77521  -3.448   3.480   5.649  0.8112 -1.0141 -0.7415
  588MOL0     C77522  -3.562   3.450   5.552 -0.8881 -0.0114 -0.2020
  588MOL0     C77523  -3.684   3.508   5.624  0.0247  0.2844  0.5277
  588MOL0     C77524  -3.813   3.511   5.538  0.8109  0.2587 -0.9097
  588MOL0     C77525  -3.936   3.540   5.630 -0.3626  0.8670  0.6719
  588MOL0     C77526  -4.057   3.542   5.526  0.2645 -0.1024  0.3808
  588MOL0     C77527  -4.179   3.599   5.594 -0.4324 -0.7198  0.1187
  588MOL0    Cl77528  -4.300   3.629   5.474 -0.3398 -0.1820 -0.2658
  588MOL0     C77529  -3.017   3.523   5.753  0.2104 -0.3505  0.3496
  588MOL0     C77530  -2.884   3.560   5.721  1.0610 -0.5715  1.1105
  588MOL0     O77531  -2.713   3.493   5.370  0.5640  0.0052  0.0854
  588MOL0     C77532  -2.432   3.496   5.338 -0.7616 -0.6007 -0.7190
  588MOL0     C77533  -2.288   3.513   5.334 -0.6691 -0.4416 -0.1834
  588MOL0     N77534  -1.579   3.323   5.069  0.2899  0.2194  0.6049
  588MOL0     N77535  -1.470   3.298   4.998  0.0791 -0.7844  0.3901
  588MOL0     C77536  -0.243   3.318   5.090  0.5317 -0.4198  1.0730
  588MOL0     C77537  -0.119   3.365   5.035 -0.0142  0.2221 -0.1407
  588MOL0     C77538   0.332   3.393   4.937 -0.4838 -0.2937  0.9014
  588MOL0     C77539   0.454   3.342   4.887 -0.0290 -0.9229  0.5951
  588MOL0     C77540   0.553   3.435   4.841 -0.9532 -0.3732  0.2801
  588MOL0     C77541   0.538   3.576   4.849  0.2133 -0.0866  0.0346
  588MOL0     O77542   0.639   3.671   4.817 -0.1260  0.5878  0.5771
  588MOL0     C77543   0.767   3.631   4.773 -0.7111  0.5679 -0.3904
  588MOL0     C77544   0.857   3.758   4.747  0.2287  0.1513  0.8575
  588MOL0     C77545   0.900   3.838   4.868 -0.4355 -0.2069 -0.2744
  588MOL0     C77546   0.999   3.946   4.836 -0.4133 -0.2539 -0.3959
  588MOL0     C77547   1.021   4.026   4.958  0.2210 -0.0461  0.3153
  588MOL0     C77548   1.051   4.092   5.051 -0.2751  0.2372 -0.5969
  588MOL0     C77549   0.412   3.621   4.900  0.4246  0.2292 -0.3437
  588MOL0     C77550   0.310   3.534   4.935 -0.4819 -0.0594  0.2466
  588MOL0     H77551   0.056   3.075   5.028  0.0445 -0.5996  2.9367
  588MOL0     H77552  -0.165   2.991   5.134 -0.9484  0.1956  2.9807
  588MOL0     H77553  -0.537   3.260   5.101 -0.9988  1.2365 -0.0827
  588MOL0     H77554  -0.455   3.265   5.259  4.5978 -0.7610 -1.1396
  588MOL0     H77555  -0.541   3.014   5.304 -0.4790 -1.3213 -1.9022
  588MOL0     H77556  -0.621   3.011   5.167  0.5292 -1.4954 -0.2036
  588MOL0     H77557  -0.711   3.220   5.366  0.9606 -0.2817 -0.1859
  588MOL0     H77558  -0.785   3.053   5.339  0.9168 -0.0740  1.1329
  588MOL0     H77559  -0.759   3.278   5.138  1.1214  0.1895  0.5769
  588MOL0     H77560  -0.819   3.111   5.109  1.1828  1.9423 -0.3759
  588MOL0     H77561  -0.943   3.315   5.287 -1.4621  0.1323  0.5975
  588MOL0     H77562  -0.993   3.141   5.274  2.3643 -0.7445 -0.0513
  588MOL0     H77563  -1.041   3.181   5.038 -4.3500  0.6833  0.9320
  588MOL0     H77564  -0.976   3.335   5.042  0.7165 -2.3190 -0.6452
  588MOL0     H77565  -1.232   3.254   5.183  1.2296  0.0439 -0.6439
  588MOL0     H77566  -1.159   3.401   5.213  1.1890 -2.5105  1.9828
  588MOL0     H77567  -1.221   3.300   4.935 -2.0934 -3.0887  3.2386
  588MOL0     H77568  -1.194   3.473   4.973 -1.0956 -0.3839 -1.8337
  588MOL0     H77569  -1.408   3.576   5.155 -0.7477 -0.0917 -1.3394
  588MOL0     H77570  -1.597   3.579   5.289 -1.6496  0.9572  1.7936
  588MOL0     H77571  -1.649   3.420   5.341 -0.6543 -0.3934 -0.3889
  588MOL0     H77572  -1.837   3.431   5.186  1.4358 -1.3690  0.6704
  588MOL0     H77573  -1.782   3.602   5.151  1.5294  0.0658  0.8939
  588MOL0     H77574  -1.841   3.502   5.429 -3.1039 -0.1055  0.0523
  588MOL0     H77575  -1.818   3.674   5.382  3.0393 -0.5892  1.7589
  588MOL0     H77576  -2.032   3.479   5.268  1.9176 -0.1478 -1.3889
  588MOL0     H77577  -2.055   3.649   5.272 -0.7359  0.3658  1.9981
  588MOL0     H77578  -2.199   3.517   5.657  1.7136 -2.2921 -0.9152
  588MOL0     H77579  -2.453   3.468   5.675  0.7777 -2.5773 -0.6824
  588MOL0     H77580  -2.868   3.329   5.468 -0.5942 -0.9886 -0.0561
  588MOL0     H77581  -3.103   3.300   5.521 -1.0168 -0.2177  0.3121
  588MOL0     H77582  -3.339   3.318   5.574 -0.8244 -0.1931 -0.6837
  588MOL0     H77583  -3.285   3.475   5.517  1.5824 -1.2023  0.5831
  588MOL0     H77584  -3.432   3.588   5.642  1.1556 -1.1329 -2.3470
  588MOL0     H77585  -3.474   3.457   5.752  1.2608  0.6955 -0.2114
  588MOL0     H77586  -3.580   3.347   5.519 -3.2478 -0.2250  1.5676
  588MOL0     H77587  -3.545   3.516   5.466 -2.8596  1.7221  0.6458
  588MOL0     H77588  -3.700   3.437   5.706  1.6144 -1.0583 -0.2706
  588MOL0     H77589  -3.658   3.604   5.671  1.0186 -0.9435  2.6502
  588MOL0     H77590  -3.822   3.412   5.493  1.4061  0.0384 -0.5473
  588MOL0     H77591  -3.804   3.583   5.456 -2.6695 -0.2855 -1.9671
  588MOL0     H77592  -3.921   3.633   5.685 -1.8766  0.8488  1.1900
  588MOL0     H77593  -3.957   3.456   5.697  0.8121 -3.1203 -3.4825
  588MOL0     H77594  -4.022   3.593   5.436  0.1506  0.5503  0.6993
  588MOL0     H77595  -4.077   3.442   5.485  0.6038  0.1825 -0.4838
  588MOL0     H77596  -4.138   3.688   5.641  2.0018 -1.8879  0.3520
  588MOL0     H77597  -4.214   3.535   5.676 -0.6052 -2.8845 -1.5409
  588MOL0     H77598  -3.073   3.551   5.842  1.4644 -0.9084  1.3464
  588MOL0     H77599  -2.821   3.624   5.782  0.5056 -0.0043  1.0960
  588MOL0     H77600  -2.492   3.514   5.250 -4.6075 -1.2646  1.5659
  588MOL0     H77601  -2.238   3.521   5.237  0.5956 -2.1524  0.2724
  588MOL0     H77602  -0.331   3.381   5.081  1.9467  1.3579 -1.6809
  588MOL0     H77603  -0.104   3.468   5.006 -1.0958  0.1590 -0.9860
  588MOL0     H77604   0.456   3.235   4.871 -1.3905 -0.7256 -1.2980
  588MOL0     H77605   0.645   3.408   4.790 -0.4317  2.9821 -0.7607
  588MOL0     H77606   0.763   3.554   4.696  0.6557 -3.5825  3.2569
  588MOL0     H77607   0.817   3.584   4.858 -0.5595 -1.0856 -1.3599
  588MOL0     H77608   0.945   3.732   4.688  0.4563  0.8006  0.8940
  588MOL0     H77609   0.790   3.821   4.687  0.4505 -0.9598 -0.5747
  588MOL0     H77610   0.932   3.760   4.938 -1.8412 -2.0576 -1.6154
  588MOL0     H77611   0.809   3.877   4.915  1.5074  1.9699  1.9744
  588MOL0     H77612   1.093   3.905   4.798  0.3738  2.1375 -1.2322
  588MOL0     H77613   0.964   4.022   4.765  1.7151  2.6439  1.4168
  588MOL0     H77614   1.070   4.154   5.137 -0.0425 -0.7951  0.1177
  588MOL0     H77615   0.403   3.730   4.903  1.8323  0.3382  1.5058
  588MOL0     H77616   0.219   3.582   4.970  1.1794  1.7883  2.4133
  589MOL0     O77617   9.513   3.631  11.045 -0.3023 -0.1020  0.3190
  589MOL0     C77618   9.567   3.732  11.088  0.6000 -0.0236 -0.1369
  589MOL0     O77619   9.503   3.844  11.131  0.4656  0.0765 -0.1517
  589MOL0     C77620   9.365   3.840  11.145  0.0325 -0.6007 -0.2387
  589MOL0     C77621   9.313   3.899  11.256  1.1852  0.4727 -0.3132
  589MOL0     C77622   9.177   3.915  11.268 -0.1223  0.5129  0.1504
  589MOL0     C77623   9.083   3.859  11.182 -1.0099 -0.3823  0.4515
  589MOL0     O77624   8.944   3.853  11.189  0.1918  0.2187 -0.1251
  589MOL0     C77625   8.870   3.914  11.293 -0.3114  0.1161  0.2102
  589MOL0     C77626   8.719   3.906  11.278  0.4991 -0.2686  0.5429
  589MOL0     C77627   8.671   3.988  11.160  0.2939  0.1450  0.2809
  589MOL0     C77628   8.517   3.979  11.138  0.1209 -0.5737 -0.6695
  589MOL0     C77629   8.443   4.073  11.234 -0.6398  0.4424 -0.2173
  589MOL0     C77630   8.297   4.083  11.194  0.2991 -0.3027 -0.5363
  589MOL0     C77631   8.223   4.177  11.290  0.5950  0.2671  0.2238
  589MOL0     C77632   8.077   4.192  11.246  0.0863 -0.5509 -0.0783
  589MOL0     N77633   8.004   4.284  11.328 -0.2875 -0.1682 -0.4576
  589MOL0     C77634   7.981   4.280  11.464 -0.2379 -0.2857  0.6544
  589MOL0     C77635   7.891   4.382  11.494 -0.7316 -0.3481  0.2125
  589MOL0     C77636   7.839   4.425  11.626 -0.2936  0.0608  0.1642
  589MOL0     C77637   7.693   4.401  11.647  0.2927 -0.1092  0.4632
  589MOL0     C77638   7.586   4.478  11.566 -0.0508  1.0018 -0.2615
  589MOL0     C77639   7.576   4.626  11.604  0.2466 -0.3216  0.1298
  589MOL0     O77640   7.559   4.656  11.741  0.2596 -0.3519 -0.2862
  589MOL0     C77641   7.435   4.709  11.774  0.1292  0.2711  0.1592
  589MOL0     C77642   7.368   4.639  11.880  0.4946 -0.1514 -0.1443
  589MOL0     C77643   7.256   4.693  11.931 -0.5740 -0.5393 -0.7025
  589MOL0     C77644   7.194   4.805  11.874 -0.0359 -0.8429 -0.6923
  589MOL0     C77645   7.067   4.860  11.932 -0.2146  0.1215  0.7081
  589MOL0     O77646   7.045   4.991  11.931  0.5296  0.7411 -0.8031
  589MOL0     C77647   6.915   5.034  11.943  0.5905 -0.9912 -0.8750
  589MOL0     C77648   6.879   5.137  12.031  0.1983 -0.1850  0.0688
  589MOL0     C77649   6.741   5.177  12.052  0.0593  0.3645 -0.3199
  589MOL0     C77650   6.640   5.116  11.975 -0.7412 -0.7700  0.3150
  589MOL0     O77651   6.506   5.147  11.986  0.0880  0.1332  0.4755
  589MOL0     C77652   6.472   5.276  12.044 -0.7480 -0.4130  0.0088
  589MOL0     C77653   6.347   5.333  11.988 -0.6276  1.0722  0.8219
  589MOL0     C77654   6.302   5.459  12.074  0.1576  0.1953 -0.0484
  589MOL0     C77655   6.163   5.496  12.019 -1.2250 -1.0161 -0.1410
  589MOL0     C77656   6.106   5.605  12.111  0.3741 -0.1677  0.4421
  589MOL0     C77657   5.951   5.612  12.096 -0.4853 -0.3149 -0.0052
  589MOL0     C77658   5.888   5.702  12.203 -0.0668 -0.0004  0.8418
  589MOL0     C77659   5.739   5.733  12.181 -0.6574 -0.7567  0.0727
  589MOL0    Cl77660   5.718   5.830  12.025 -0.4651 -0.2707  0.3896
  589MOL0     C77661   6.677   5.019  11.883  0.5374 -0.1712  0.0640
  589MOL0     C77662   6.813   4.988  11.863  0.1180 -0.2179 -0.4150
  589MOL0     O77663   6.984   4.780  11.970 -0.4284  0.2590 -0.9808
  589MOL0     C77664   7.264   4.882  11.773  0.4439  0.1144  0.2063
  589MOL0     C77665   7.390   4.832  11.726  0.3592 -1.0060  0.3409
  589MOL0     N77666   7.875   4.452  11.375 -0.3962 -0.5018  0.3126
  589MOL0     N77667   7.936   4.386  11.281  0.4623 -0.8509 -0.2434
  589MOL0     C77668   9.143   3.804  11.068  0.4367  0.3729  0.5580
  589MOL0     C77669   9.277   3.788  11.049  0.0366  0.7000 -0.1955
  589MOL0     C77670   9.709   3.726  11.078  0.2691 -0.8488  0.1660
  589MOL0     C77671   9.786   3.838  11.125  0.2849  0.4685 -0.3319
  589MOL0     C77672   9.921   3.831  11.123 -0.0987  0.0982  0.7227
  589MOL0     C77673   9.993   3.716  11.092  0.4135  0.2799 -0.0597
  589MOL0     O77674  10.133   3.701  11.085 -0.3277 -0.2912  0.1893
  589MOL0     C77675  10.206   3.780  11.177  1.0900 -0.8473  0.3080
  589MOL0     C77676  10.345   3.729  11.177 -0.7632 -0.1020  0.4265
  589MOL0     C77677  10.440   3.843  11.232  0.4513  1.1492  0.1255
  589MOL0     C77678  10.592   3.797  11.229  0.2888 -1.0341  0.4029
  589MOL0     C77679  10.675   3.899  11.294 -0.5900  0.1304  0.2826
  589MOL0     C77680  10.740   3.987  11.348 -0.2362 -0.5622  0.1589
  589MOL0     C77681   9.924   3.609  11.051 -0.8984 -0.9482 -0.0620
  589MOL0     C77682   9.787   3.615  11.041 -0.1926  0.3909 -0.1180
  589MOL0     H77683   9.374   3.950  11.330 -0.9078  1.2410  0.9637
  589MOL0     H77684   9.149   3.973  11.356  2.7518 -1.7335  2.7747
  589MOL0     H77685   8.894   4.018  11.317 -1.2849  0.5462 -0.5923
  589MOL0     H77686   8.897   3.861  11.385  1.1969  1.0702  0.3512
  589MOL0     H77687   8.679   3.936  11.375 -0.7274  1.2405 -0.3845
  589MOL0     H77688   8.684   3.804  11.262  3.4231 -1.3729  0.6438
  589MOL0     H77689   8.728   3.950  11.074 -1.2262 -1.1608 -0.1898
  589MOL0     H77690   8.692   4.095  11.170  0.0930  0.4053 -1.5726
  589MOL0     H77691   8.493   4.005  11.035 -1.9454  2.4627  0.4437
  589MOL0     H77692   8.484   3.878  11.167 -1.0904  0.1904  0.7328
  589MOL0     H77693   8.488   4.172  11.231  0.3899 -0.0213 -2.7562
  589MOL0     H77694   8.449   4.031  11.335  1.3472  0.8436 -0.1477
  589MOL0     H77695   8.244   3.987  11.204  0.9292 -0.8023 -1.7172
  589MOL0     H77696   8.286   4.115  11.090  1.0869  1.7443 -0.0174
  589MOL0     H77697   8.224   4.132  11.390 -0.7554  0.4781  0.3575
  589MOL0     H77698   8.284   4.266  11.303 -0.8440  1.3118  0.0198
  589MOL0     H77699   8.020   4.098  11.250 -1.1982  0.2012  0.0890
  589MOL0     H77700   8.070   4.232  11.145 -1.2279  0.4470  0.3721
  589MOL0     H77701   8.031   4.202  11.521 -0.4567 -1.0582 -0.1850
  589MOL0     H77702   7.863   4.528  11.653  1.8145 -0.4393  0.3719
  589MOL0     H77703   7.896   4.368  11.700  1.3854 -0.0523 -1.1573
  589MOL0     H77704   7.667   4.424  11.751  3.1985 -0.1814  1.2908
  589MOL0     H77705   7.673   4.294  11.644 -1.5142  0.1950  0.2004
  589MOL0     H77706   7.600   4.460  11.459  2.3241 -1.1709  0.3128
  589MOL0     H77707   7.484   4.444  11.588 -0.2718  0.3974 -2.0421
  589MOL0     H77708   7.505   4.677  11.537  1.4758  0.1874 -0.8405
  589MOL0     H77709   7.674   4.663  11.571  0.0856 -1.1490 -1.3766
  589MOL0     H77710   7.410   4.553  11.931 -0.7915  1.0555  3.2050
  589MOL0     H77711   7.211   4.642  12.016  0.2266  0.0995  0.1234
  589MOL0     H77712   6.960   5.187  12.083 -1.4802  1.5580  1.1780
  589MOL0     H77713   6.707   5.249  12.125 -0.5934  0.0785 -0.3378
  589MOL0     H77714   6.548   5.355  12.034 -1.6426  0.4948  0.1882
  589MOL0     H77715   6.462   5.252  12.150  2.4273 -1.8529  0.0978
  589MOL0     H77716   6.271   5.256  11.980  0.7468 -0.1511 -1.4907
  589MOL0     H77717   6.366   5.368  11.886  0.7580  1.8226  1.3017
  589MOL0     H77718   6.375   5.539  12.054  1.3225 -1.3056 -2.1789
  589MOL0     H77719   6.300   5.451  12.183 -2.7603 -0.1382 -0.0485
  589MOL0     H77720   6.173   5.532  11.916 -2.9069 -1.0752 -0.3580
  589MOL0     H77721   6.101   5.406  12.022  2.1226 -3.5204 -0.5067
  589MOL0     H77722   6.164   5.696  12.098  0.2141 -0.0502  0.5426
  589MOL0     H77723   6.132   5.575  12.213  0.4132 -2.0216 -0.0656
  589MOL0     H77724   5.906   5.513  12.111 -1.7570  0.5502  2.3199
  589MOL0     H77725   5.930   5.633  11.990  0.0253 -0.2580 -0.0975
  589MOL0     H77726   5.904   5.651  12.298  1.0251 -2.1554 -0.4351
  589MOL0     H77727   5.942   5.797  12.199 -0.4639  0.2450  1.1650
  589MOL0     H77728   5.702   5.800  12.259  2.0124  0.4727  0.3833
  589MOL0     H77729   5.679   5.642  12.186 -3.2723  0.9179  1.3771
  589MOL0     H77730   6.611   4.976  11.809  1.1012 -0.4622 -0.2827
  589MOL0     H77731   6.835   4.918  11.783  2.3452 -0.5678  0.4423
  589MOL0     H77732   7.220   4.968  11.723  2.1247 -0.2543 -2.0633
  589MOL0     H77733   7.444   4.893  11.655 -1.0646  0.7908  0.7217
  589MOL0     H77734   9.082   3.761  10.989  3.1592  1.1444 -2.2021
  589MOL0     H77735   9.314   3.741  10.959 -0.1930  1.5250 -0.7267
  589MOL0     H77736   9.737   3.930  11.155 -2.4286 -0.4536 -1.6194
  589MOL0     H77737   9.979   3.919  11.147 -0.2601  1.0047 -1.9894
  589MOL0     H77738  10.161   3.775  11.276  0.4899  3.3637  0.4388
  589MOL0     H77739  10.205   3.889  11.163  2.1465  0.0308  5.2434
  589MOL0     H77740  10.338   3.636  11.234 -4.1332  1.0356  2.1292
  589MOL0     H77741  10.384   3.700  11.079 -1.1121 -1.8353  0.7650
  589MOL0     H77742  10.422   3.867  11.337  2.5413 -1.5465  1.2231
  589MOL0     H77743  10.436   3.924  11.158 -1.2966  0.6897 -0.3241
  589MOL0     H77744  10.600   3.701  11.280  0.6565  0.0873  2.5631
  589MOL0     H77745  10.624   3.789  11.124  0.0166  0.9938  0.1090
  589MOL0     H77746  10.790   4.076  11.381 -0.9876 -0.9671  2.5403
  589MOL0     H77747   9.980   3.521  11.020  0.1795  0.0758 -1.1421
  589MOL0     H77748   9.736   3.530  10.997  0.1669  0.2375 -0.2442
  590MOL0     O77749   6.517   4.111   6.656 -1.2950 -0.7634  0.9349
  590MOL0     C77750   6.546   4.116   6.774 -0.6635 -0.3513 -0.2769
  590MOL0     O77751   6.495   4.024   6.866 -0.2553  0.1960  0.0980
  590MOL0     C77752   6.414   3.928   6.812  0.7189  0.8964 -0.0308
  590MOL0     C77753   6.467   3.815   6.743  0.4825  1.0690 -0.2473
  590MOL0     C77754   6.379   3.711   6.693 -0.6427 -0.4298 -0.0216
  590MOL0     C77755   6.244   3.714   6.702 -0.0171  0.1216  0.1396
  590MOL0     O77756   6.163   3.614   6.638  0.5393  0.3716 -0.6164
  590MOL0     C77757   6.022   3.627   6.637  0.2584 -0.7741  0.1455
  590MOL0     C77758   5.938   3.531   6.551 -0.2905 -0.3301 -0.3679
  590MOL0     C77759   5.809   3.519   6.619  0.2530 -0.3166  0.6368
  590MOL0     C77760   5.721   3.431   6.532 -0.5627  0.1061  0.0825
  590MOL0     C77761   5.582   3.440   6.611  0.2946 -0.1155 -0.0619
  590MOL0     C77762   5.471   3.368   6.545  0.0255  0.6572  0.5231
  590MOL0     C77763   5.346   3.395   6.625 -0.6713 -0.7989 -0.1265
  590MOL0     C77764   5.238   3.313   6.556 -0.5831  0.1362 -0.0622
  590MOL0     N77765   5.105   3.356   6.587 -0.2753  0.6846 -0.4041
  590MOL0     C77766   5.074   3.422   6.694  0.1702 -1.2934 -0.5385
  590MOL0     C77767   4.942   3.443   6.678 -0.2347  0.5625  0.3000
  590MOL0     C77768   4.836   3.514   6.757  0.8109  0.3048 -0.3616
  590MOL0     C77769   4.890   3.578   6.888  0.6549  0.5975  0.2545
  590MOL0     C77770   4.824   3.705   6.936  0.7927 -0.3272 -1.4797
  590MOL0     C77771   4.899   3.777   7.048 -0.0997 -0.2053  0.4862
  590MOL0     O77772   5.026   3.813   6.999  0.3568 -0.4887 -0.0904
  590MOL0     C77773   5.073   3.918   7.065 -0.8085 -1.1454 -0.1159
  590MOL0     C77774   5.061   3.945   7.206 -0.3447 -0.5336  0.6831
  590MOL0     C77775   5.131   4.045   7.268 -0.5982 -0.0021  0.2077
  590MOL0     C77776   5.219   4.137   7.189  1.0040  0.1237 -0.3654
  590MOL0     C77777   5.288   4.261   7.242 -0.3621  0.1572 -0.0989
  590MOL0     O77778   5.350   4.343   7.155 -0.6414 -0.7416 -0.1631
  590MOL0     C77779   5.425   4.448   7.200 -0.0532  0.6119  0.0485
  590MOL0     C77780   5.553   4.432   7.248  0.6096  0.7696  0.2675
  590MOL0     C77781   5.639   4.541   7.279  0.1916 -0.4968  0.3601
  590MOL0     C77782   5.589   4.665   7.258  0.0385 -0.8622 -0.1775
  590MOL0     O77783   5.653   4.785   7.289 -0.3696 -0.4333  0.6003
  590MOL0     C77784   5.795   4.790   7.260  0.2859 -0.5652 -1.0091
  590MOL0     C77785   5.834   4.940   7.253 -0.0585 -0.3473 -1.0459
  590MOL0     C77786   5.990   4.961   7.248  0.7403  0.0495  0.1693
  590MOL0     C77787   6.053   4.970   7.382 -0.1792  0.0476  0.1744
  590MOL0     C77788   6.185   4.896   7.401  0.9203 -0.0341  1.4739
  590MOL0     C77789   6.226   4.898   7.545  0.3473  0.5831 -0.0465
  590MOL0     C77790   6.274   5.036   7.597 -0.3440 -0.3718 -0.4551
  590MOL0     C77791   6.427   5.029   7.572  0.9732  0.1518 -0.5923
  590MOL0    Cl77792   6.535   5.153   7.626  0.0394  0.1953  0.3649
  590MOL0     C77793   5.463   4.685   7.208 -0.3751  0.1193 -0.5698
  590MOL0     C77794   5.379   4.576   7.172 -0.3660  0.0696  0.0441
  590MOL0     O77795   5.282   4.269   7.367 -0.0951  0.2670 -0.4626
  590MOL0     C77796   5.216   4.113   7.044 -0.7727 -0.4130 -0.7822
  590MOL0     C77797   5.147   4.002   6.989 -0.4595 -0.1909  0.4609
  590MOL0     N77798   4.896   3.389   6.558  0.2511 -0.5913  0.1813
  590MOL0     N77799   5.003   3.334   6.503  0.0669  0.0231 -0.9644
  590MOL0     C77800   6.193   3.835   6.760  0.2048 -0.3993 -0.4618
  590MOL0     C77801   6.280   3.935   6.813  0.1549  0.3559 -0.1378
  590MOL0     C77802   6.635   4.212   6.831 -0.2415 -0.5416  0.0268
  590MOL0     C77803   6.709   4.181   6.940  0.0554  0.4021  0.1879
  590MOL0     C77804   6.791   4.274   7.002  0.1190  0.2462 -0.9306
  590MOL0     C77805   6.802   4.396   6.957 -0.6748  0.1970 -0.8072
  590MOL0     O77806   6.881   4.481   7.031 -0.3896 -0.6761  0.3274
  590MOL0     C77807   6.897   4.620   7.007  0.1474  1.0348 -0.2257
  590MOL0     C77808   6.973   4.682   7.125 -0.6750 -0.0376 -0.5587
  590MOL0     C77809   7.119   4.640   7.132 -0.3471  0.4893 -0.1705
  590MOL0     C77810   7.149   4.505   7.214  0.7199  0.3902 -0.4175
  590MOL0     C77811   7.104   4.516   7.347  0.2997  0.2707 -0.2707
  590MOL0     C77812   7.068   4.523   7.464  0.8147  0.1123 -0.8226
  590MOL0     C77813   6.727   4.433   6.843 -0.2046  0.1780 -0.4801
  590MOL0     C77814   6.623   4.348   6.791  0.6655 -0.5442  0.2502
  590MOL0     H77815   6.575   3.805   6.747  0.2761 -1.7636 -0.2340
  590MOL0     H77816   6.418   3.632   6.630 -1.4874  0.3708 -1.6047
  590MOL0     H77817   5.993   3.726   6.601  1.5578  0.2042  1.6401
  590MOL0     H77818   5.984   3.617   6.739  2.2259 -2.4726  0.7676
  590MOL0     H77819   5.997   3.438   6.546 -2.1949 -1.6113  0.1581
  590MOL0     H77820   5.931   3.576   6.451 -0.7058  0.0465 -0.1719
  590MOL0     H77821   5.763   3.615   6.646  3.3362  0.6961  2.8466
  590MOL0     H77822   5.820   3.467   6.714  0.0434 -1.9264 -0.1877
  590MOL0     H77823   5.706   3.466   6.429 -1.9926 -0.4879  0.0682
  590MOL0     H77824   5.766   3.331   6.531 -0.4046  0.1333 -2.2749
  590MOL0     H77825   5.548   3.544   6.603 -3.1784 -1.0718  0.6145
  590MOL0     H77826   5.591   3.416   6.718 -3.0590  0.4297  0.4535
  590MOL0     H77827   5.495   3.261   6.557 -0.3399  0.5522  0.3258
  590MOL0     H77828   5.456   3.394   6.440  1.6767  0.5485  0.2326
  590MOL0     H77829   5.353   3.377   6.733  1.5100  2.9224  0.5087
  590MOL0     H77830   5.323   3.501   6.610 -1.0262 -0.9166 -0.4193
  590MOL0     H77831   5.252   3.205   6.561  0.9479  0.2993 -0.3158
  590MOL0     H77832   5.250   3.320   6.447 -1.3194 -4.1280 -0.5649
  590MOL0     H77833   5.127   3.473   6.775 -1.6987  3.2830 -1.8390
  590MOL0     H77834   4.750   3.451   6.784 -2.0030  3.7366 -0.5128
  590MOL0     H77835   4.782   3.590   6.699 -3.1341 -3.0159 -1.4841
  590MOL0     H77836   4.997   3.596   6.881  0.8752 -1.0266 -1.2930
  590MOL0     H77837   4.881   3.502   6.966 -3.8600 -0.9547 -1.3968
  590MOL0     H77838   4.830   3.776   6.853  1.3218  2.4914  0.8108
  590MOL0     H77839   4.717   3.686   6.949  0.8309 -1.1003 -2.1823
  590MOL0     H77840   4.908   3.708   7.133 -2.3021 -1.5720 -0.2854
  590MOL0     H77841   4.836   3.862   7.077 -1.8375 -1.0392 -0.6754
  590MOL0     H77842   5.004   3.880   7.271 -1.0712 -0.3192  0.2731
  590MOL0     H77843   5.128   4.064   7.375 -1.5073  0.4190  0.1196
  590MOL0     H77844   5.592   4.333   7.265  0.1225 -0.2236 -3.4638
  590MOL0     H77845   5.737   4.522   7.320 -0.5480  0.3459  2.6661
  590MOL0     H77846   5.821   4.748   7.162 -0.5235 -1.0963 -1.0031
  590MOL0     H77847   5.839   4.728   7.339 -0.7541  0.8581  0.7388
  590MOL0     H77848   5.814   4.993   7.347  1.3579 -0.0333 -0.8950
  590MOL0     H77849   5.793   4.992   7.166  0.1192 -1.0913 -1.5790
  590MOL0     H77850   6.010   5.050   7.187 -2.3025  0.0687 -0.9726
  590MOL0     H77851   6.033   4.876   7.194  1.4806 -0.7291  1.9083
  590MOL0     H77852   6.077   5.075   7.400  2.6588 -0.8110  2.0509
  590MOL0     H77853   5.972   4.943   7.451 -0.3004 -2.9440 -0.9882
  590MOL0     H77854   6.265   4.948   7.347  2.4670  0.0200  3.6872
  590MOL0     H77855   6.187   4.793   7.366  1.7846  0.9961 -1.9052
  590MOL0     H77856   6.301   4.821   7.562  1.2942  1.1268 -1.5586
  590MOL0     H77857   6.130   4.872   7.591 -1.0092  0.2268 -2.8046
  590MOL0     H77858   6.220   5.116   7.545 -1.1702 -1.0341 -0.6442
  590MOL0     H77859   6.255   5.056   7.703 -1.4525  0.8409 -0.8492
  590MOL0     H77860   6.439   5.017   7.464 -3.3745  1.6352 -1.4246
  590MOL0     H77861   6.460   4.935   7.618 -2.2492 -1.8553 -2.0066
  590MOL0     H77862   5.417   4.783   7.203 -1.8393 -0.4048  1.2129
  590MOL0     H77863   5.285   4.594   7.122 -0.0518  0.6719 -0.3437
  590MOL0     H77864   5.278   4.175   6.980  1.2092 -1.8969 -0.3957
  590MOL0     H77865   5.152   3.979   6.884 -1.0668  1.4320  0.0495
  590MOL0     H77866   6.085   3.845   6.753  0.1224 -0.9243  0.0081
  590MOL0     H77867   6.258   4.029   6.863  1.4531  1.6184 -1.8686
  590MOL0     H77868   6.700   4.077   6.968  2.5387 -0.3660 -1.4863
  590MOL0     H77869   6.842   4.240   7.092 -3.1877  0.2333  1.1214
  590MOL0     H77870   6.801   4.671   6.999 -0.8739 -1.0480 -2.4383
  590MOL0     H77871   6.957   4.638   6.917 -1.5155  4.3697 -0.8281
  590MOL0     H77872   6.960   4.790   7.112 -1.4239 -0.2910 -2.2865
  590MOL0     H77873   6.911   4.655   7.211 -2.4548  0.1448 -1.7124
  590MOL0     H77874   7.176   4.721   7.178  0.8253 -0.1126 -0.5231
  590MOL0     H77875   7.158   4.634   7.031 -0.6746 -0.3150 -0.2566
  590MOL0     H77876   7.100   4.422   7.162  2.6228 -0.6842 -0.5837
  590MOL0     H77877   7.255   4.481   7.202  0.2738 -0.2098 -5.2620
  590MOL0     H77878   7.028   4.531   7.563 -0.6180  3.7031 -1.5279
  590MOL0     H77879   6.727   4.534   6.803  1.0611  1.0473  1.5265
  590MOL0     H77880   6.556   4.386   6.714  0.2328  0.1369  0.9391
  591MOL0     O77881   2.641   9.780   2.948 -0.1198 -0.6198  0.2320
  591MOL0     C77882   2.687   9.844   2.856 -0.1573  0.2526 -0.2863
  591MOL0     O77883   2.615   9.908   2.764  0.2181 -0.5282 -0.2479
  591MOL0     C77884   2.487   9.931   2.798  0.5374  0.6129 -0.1073
  591MOL0     C77885   2.460  10.027   2.896 -0.6046  0.9734 -0.2616
  591MOL0     C77886   2.330  10.055   2.925 -0.5479 -0.5005 -0.1558
  591MOL0     C77887   2.228   9.999   2.864 -1.1038  0.7404  0.3272
  591MOL0     O77888   2.101  10.042   2.910 -0.6875 -0.3179 -0.3384
  591MOL0     C77889   1.984   9.985   2.859  0.9370 -0.7275  0.5956
  591MOL0     C77890   1.888  10.098   2.809 -1.1027 -0.1205 -0.1434
  591MOL0     C77891   1.808  10.147   2.928 -0.5608 -0.1324 -0.1329
  591MOL0     C77892   1.714  10.253   2.870 -0.8453 -0.4392  0.2146
  591MOL0     C77893   1.621  10.296   2.979  0.1303 -0.7307 -0.0363
  591MOL0     C77894   1.581  10.443   2.961  0.4107  0.2967  0.2816
  591MOL0     C77895   1.481  10.480   3.071  0.5459  0.4311 -0.0862
  591MOL0     C77896   1.330  10.471   3.030  0.2091  0.3272 -0.1696
  591MOL0     N77897   1.289  10.331   3.018 -0.6266 -0.3273 -0.5300
  591MOL0     C77898   1.278  10.260   3.128  0.0400 -0.9755 -0.8223
  591MOL0     C77899   1.197  10.160   3.077 -0.2413  0.9108 -0.0959
  591MOL0     C77900   1.155  10.038   3.147  0.2933 -0.0521  0.6192
  591MOL0     C77901   1.265   9.944   3.199  0.1995  0.4614  0.2759
  591MOL0     C77902   1.347   9.872   3.084 -0.3941 -0.2949 -0.0253
  591MOL0     C77903   1.449   9.963   3.009 -0.1082  1.0487 -0.4529
  591MOL0     O77904   1.489   9.896   2.892 -0.6418  0.2390  0.4341
  591MOL0     C77905   1.589   9.798   2.894  0.2642 -0.3242  0.4352
  591MOL0     C77906   1.613   9.725   2.776 -0.4889  0.1093  0.6387
  591MOL0     C77907   1.711   9.631   2.762 -0.5904  0.2195  0.2333
  591MOL0     C77908   1.787   9.589   2.871  0.4046  0.3641 -0.0049
  591MOL0     C77909   1.893   9.485   2.861 -0.7389 -0.2125 -0.6354
  591MOL0     O77910   1.964   9.465   2.985  0.2194 -0.5727 -0.4580
  591MOL0     C77911   2.058   9.365   2.988 -0.1997  0.0458  0.4098
  591MOL0     C77912   2.175   9.374   2.923 -0.0851  1.1781  0.5359
  591MOL0     C77913   2.280   9.281   2.927 -0.1625  0.0090 -0.5925
  591MOL0     C77914   2.257   9.161   3.001 -0.0403 -0.0496 -0.5343
  591MOL0     O77915   2.363   9.072   3.003  0.4997  0.0452 -0.1324
  591MOL0     C77916   2.383   8.989   3.116  0.2107 -1.4242  0.2330
  591MOL0     C77917   2.529   8.963   3.142 -0.4045 -0.1912 -0.2644
  591MOL0     C77918   2.588   8.847   3.067 -0.3272 -0.6392 -0.5220
  591MOL0     C77919   2.745   8.849   3.069  1.4103 -0.6624  0.5017
  591MOL0     C77920   2.813   8.752   2.969  0.8500  0.7669 -0.6095
  591MOL0     C77921   2.962   8.733   2.994 -0.6884 -0.9887  0.3604
  591MOL0     C77922   3.047   8.858   2.977 -0.1132 -0.3383 -0.1234
  591MOL0     C77923   3.195   8.826   2.997  0.6586  0.0811 -0.1609
  591MOL0    Cl77924   3.223   8.769   3.168  0.0514 -0.0306 -0.1406
  591MOL0     C77925   2.136   9.157   3.079 -0.1711 -0.3595  0.8417
  591MOL0     C77926   2.031   9.251   3.064  0.8742 -0.1541  0.0096
  591MOL0     O77927   1.914   9.426   2.760  0.7115 -0.1496 -0.1604
  591MOL0     C77928   1.748   9.642   2.994 -0.2793  0.4903  0.1588
  591MOL0     C77929   1.661   9.747   3.005  0.2788 -0.3236 -0.1405
  591MOL0     N77930   1.170  10.178   2.944 -0.0814  0.1019 -0.0272
  591MOL0     N77931   1.227  10.290   2.910 -0.1222 -0.0544 -0.9408
  591MOL0     C77932   2.255   9.910   2.755  0.0962 -0.2585 -0.5980
  591MOL0     C77933   2.386   9.868   2.726  0.0988 -0.5485  0.0707
  591MOL0     C77934   2.836   9.834   2.841  0.1300 -0.1734  0.4452
  591MOL0     C77935   2.913   9.768   2.940 -0.2692 -0.0803 -0.1782
  591MOL0     C77936   3.056   9.781   2.932 -0.2966  0.6600 -0.5258
  591MOL0     C77937   3.125   9.846   2.830 -0.6581  0.4123 -0.4355
  591MOL0     O77938   3.258   9.867   2.818 -0.3686  0.0986 -0.6929
  591MOL0     C77939   3.353   9.778   2.889 -0.9053  0.0801  0.4924
  591MOL0     C77940   3.497   9.784   2.825  0.8144  0.1169 -0.3796
  591MOL0     C77941   3.551   9.929   2.823  0.0827 -0.1607 -0.4331
  591MOL0     C77942   3.708   9.921   2.816  1.0492  0.4343 -0.1605
  591MOL0     C77943   3.745   9.852   2.691 -0.0133  0.1454 -0.2834
  591MOL0     C77944   3.779   9.799   2.586 -0.2546  0.9372 -0.1170
  591MOL0     C77945   3.047   9.900   2.722  0.4841  0.2147 -0.1978
  591MOL0     C77946   2.907   9.883   2.727  0.6626  0.4335  0.6752
  591MOL0     H77947   2.530  10.077   2.962 -0.5435  0.5613 -0.0071
  591MOL0     H77948   2.316  10.138   2.994  0.3571 -1.9400  1.8706
  591MOL0     H77949   1.942   9.928   2.942 -1.1760 -2.8964 -1.8189
  591MOL0     H77950   2.007   9.925   2.771 -0.2231  1.6634 -1.4722
  591MOL0     H77951   1.831  10.042   2.734 -2.3264  0.2631  0.4732
  591MOL0     H77952   1.935  10.180   2.754  0.4146  0.2737  1.6254
  591MOL0     H77953   1.871  10.196   3.003 -1.7552  1.4805 -0.1332
  591MOL0     H77954   1.746  10.068   2.971  0.3129 -0.7965 -0.0738
  591MOL0     H77955   1.775  10.331   2.822 -0.8715 -2.0087 -2.5756
  591MOL0     H77956   1.652  10.210   2.791 -1.2754 -0.3546  0.5054
  591MOL0     H77957   1.668  10.290   3.077 -1.7929 -1.0004  0.9313
  591MOL0     H77958   1.530  10.236   2.995 -0.1405 -1.3364 -3.2183
  591MOL0     H77959   1.534  10.459   2.864 -3.8642  1.0659  2.2534
  591MOL0     H77960   1.670  10.504   2.971  2.0506 -1.5114 -2.0256
  591MOL0     H77961   1.507  10.419   3.158 -0.0753 -0.4394 -0.5025
  591MOL0     H77962   1.491  10.583   3.107 -1.8239  0.3402  0.9829
  591MOL0     H77963   1.311  10.516   2.932  0.8655 -2.1695 -1.5597
  591MOL0     H77964   1.265  10.506   3.111 -2.5822 -1.3803 -1.5133
  591MOL0     H77965   1.316  10.261   3.230 -2.6644 -3.1333  0.3296
  591MOL0     H77966   1.087   9.974   3.090 -0.8543  1.7935 -0.1673
  591MOL0     H77967   1.104  10.080   3.235  1.8732 -2.2924  2.7586
  591MOL0     H77968   1.219   9.859   3.250  2.1615 -0.2720  0.9023
  591MOL0     H77969   1.329   9.993   3.272  0.7021 -0.4367  0.4497
  591MOL0     H77970   1.395   9.784   3.128  0.1259 -0.6051 -1.1815
  591MOL0     H77971   1.277   9.832   3.009  0.0328 -0.4846 -0.3291
  591MOL0     H77972   1.530   9.980   3.081 -0.2780 -0.0121  0.0127
  591MOL0     H77973   1.404  10.058   2.982  0.6091  1.5531  0.0651
  591MOL0     H77974   1.557   9.737   2.684 -1.9210 -2.3085  1.0841
  591MOL0     H77975   1.724   9.584   2.665 -0.0566  0.7052  0.0663
  591MOL0     H77976   2.201   9.468   2.876  1.0999 -0.7691 -3.1135
  591MOL0     H77977   2.370   9.304   2.870  1.3033  1.1966  2.0320
  591MOL0     H77978   2.341   8.892   3.088 -1.2927 -0.8474  0.3788
  591MOL0     H77979   2.333   9.023   3.208  0.1590  0.8132 -0.5493
  591MOL0     H77980   2.547   8.949   3.249  0.6724  0.1189 -0.3994
  591MOL0     H77981   2.585   9.052   3.115  0.0535 -0.6486 -0.8526
  591MOL0     H77982   2.554   8.851   2.963  0.0272 -1.4631 -0.6797
  591MOL0     H77983   2.556   8.759   3.124  2.0165 -0.8506  0.5978
  591MOL0     H77984   2.758   8.951   3.032 -1.7731  0.0326  1.0513
  591MOL0     H77985   2.781   8.839   3.171  1.6021  0.3984  0.5496
  591MOL0     H77986   2.799   8.780   2.865  1.9576  0.3291 -0.8939
  591MOL0     H77987   2.761   8.656   2.982 -0.9004  1.2474 -3.2853
  591MOL0     H77988   2.995   8.651   2.930 -1.0761 -0.7711 -0.1344
  591MOL0     H77989   2.969   8.711   3.100  3.5675  2.9265  1.2305
  591MOL0     H77990   3.027   8.888   2.874 -1.0929  5.1455  1.3383
  591MOL0     H77991   3.018   8.943   3.041 -0.6846 -1.4297  1.1174
  591MOL0     H77992   3.251   8.915   2.964 -0.2692 -0.8205 -4.8582
  591MOL0     H77993   3.216   8.740   2.933 -0.3773  0.4341 -0.9810
  591MOL0     H77994   2.132   9.084   3.159 -0.3748 -2.8174 -1.2642
  591MOL0     H77995   1.945   9.255   3.129  1.3175 -0.1070  0.6083
  591MOL0     H77996   1.807   9.615   3.081  1.2971  2.9786 -0.0321
  591MOL0     H77997   1.644   9.785   3.106  1.3054  0.1306 -0.1307
  591MOL0     H77998   2.176   9.874   2.691 -2.3273  2.1631  0.8330
  591MOL0     H77999   2.410   9.792   2.652 -0.0904 -1.7582  1.2114
  591MOL0     H78000   2.879   9.729   3.035 -0.5935  1.1195  0.2179
  591MOL0     H78001   3.125   9.760   3.012  0.0892 -1.0081 -1.2450
  591MOL0     H78002   3.318   9.675   2.882  0.3099 -0.2782 -0.6168
  591MOL0     H78003   3.356   9.809   2.994 -0.3059 -1.6963  1.0392
  591MOL0     H78004   3.564   9.724   2.888  0.1731  1.2178  1.4147
  591MOL0     H78005   3.490   9.747   2.723 -1.6327 -2.1505  0.5213
  591MOL0     H78006   3.535   9.977   2.921  1.3268 -1.9848  0.7287
  591MOL0     H78007   3.503   9.974   2.736 -2.3078 -0.5885  0.5930
  591MOL0     H78008   3.739  10.025   2.811 -2.3321  1.6385  1.2421
  591MOL0     H78009   3.754   9.872   2.902  1.4191  0.8741 -0.1086
  591MOL0     H78010   3.807   9.745   2.498 -1.0719 -0.5471  0.5025
  591MOL0     H78011   3.087   9.961   2.641  2.0774  0.1927  0.5230
  591MOL0     H78012   2.840   9.927   2.653 -3.0508  0.5998  3.8089
  592MOL0     O78013  10.517   4.073   6.839  0.2471  0.2867 -0.8264
  592MOL0     C78014  10.555   4.085   6.721 -0.7090  0.5485 -1.1265
  592MOL0     O78015  10.489   4.083   6.607  0.4329  0.6710  0.2689
  592MOL0     C78016  10.362   4.030   6.593  0.8741  0.0029  0.0644
  592MOL0     C78017  10.292   4.067   6.477  0.0700 -0.0644  0.5893
  592MOL0     C78018  10.171   4.012   6.447 -0.9281  0.4668 -0.1017
  592MOL0     C78019  10.107   3.924   6.537  0.0425 -0.6921 -0.4828
  592MOL0     O78020   9.981   3.879   6.516 -0.3407  0.5453 -0.5067
  592MOL0     C78021   9.920   3.858   6.393  1.0538  0.9397  0.0165
  592MOL0     C78022   9.799   3.759   6.412 -0.1668  0.9386  0.2968
  592MOL0     C78023   9.757   3.686   6.282  0.3042 -0.2262 -0.3095
  592MOL0     C78024   9.631   3.600   6.308  0.2089  0.1625 -0.1925
  592MOL0     C78025   9.570   3.528   6.190  0.1545  0.8533 -0.8238
  592MOL0     C78026   9.458   3.431   6.227 -0.3333  0.3833 -0.8110
  592MOL0     C78027   9.333   3.492   6.294 -0.0628 -0.1448  0.3629
  592MOL0     C78028   9.251   3.381   6.351  0.0773  0.4562  0.4443
  592MOL0     N78029   9.136   3.432   6.424  0.6076  0.8403  0.3641
  592MOL0     C78030   9.005   3.392   6.394  0.5812  0.0395  0.0245
  592MOL0     C78031   8.922   3.457   6.484  0.2131 -0.7649 -0.1118
  592MOL0     C78032   8.776   3.437   6.500 -0.3041 -0.2330 -0.1073
  592MOL0     C78033   8.749   3.387   6.648 -0.3507  0.3070 -0.5175
  592MOL0     C78034   8.597   3.379   6.674  0.7081  0.5099 -0.2349
  592MOL0     C78035   8.533   3.516   6.704 -0.1280 -0.0274  0.2228
  592MOL0     O78036   8.391   3.499   6.740 -0.2285  0.1204  0.5355
  592MOL0     C78037   8.326   3.610   6.795 -0.0538 -0.0216  0.5723
  592MOL0     C78038   8.381   3.736   6.824 -0.6487 -0.2639  0.1522
  592MOL0     C78039   8.306   3.837   6.882 -0.4678 -0.3262  0.1917
  592MOL0     C78040   8.165   3.820   6.905  0.6932 -0.0540  0.6728
  592MOL0     C78041   8.076   3.939   6.948  0.4514  0.7051  0.2001
  592MOL0     O78042   7.943   3.909   6.965 -0.0369  0.7157  0.0749
  592MOL0     C78043   7.840   4.004   6.960 -0.0107 -0.4823 -0.6700
  592MOL0     C78044   7.718   3.977   7.015  0.2806  0.2779  0.8240
  592MOL0     C78045   7.610   4.067   7.011 -0.1654  0.0336 -0.4305
  592MOL0     C78046   7.633   4.198   6.966 -0.0147 -0.1020  0.4965
  592MOL0     O78047   7.544   4.300   6.962 -0.1439 -0.1414 -0.1045
  592MOL0     C78048   7.406   4.270   6.976  0.4003  0.6201  0.5050
  592MOL0     C78049   7.326   4.388   6.919 -0.2598 -0.4092  0.3954
  592MOL0     C78050   7.319   4.375   6.758  0.8717 -0.1475  0.0516
  592MOL0     C78051   7.250   4.248   6.694 -0.1617 -0.1823  0.0680
  592MOL0     C78052   7.097   4.232   6.733  0.0175  0.1623  1.3266
  592MOL0     C78053   7.036   4.091   6.702 -0.6775  0.2178  0.6445
  592MOL0     C78054   6.990   4.062   6.565  0.6992  0.0281  0.5927
  592MOL0     C78055   6.983   3.907   6.537 -0.3064 -0.4366  0.5184
  592MOL0    Cl78056   7.132   3.820   6.531 -0.0245  0.0782 -0.0839
  592MOL0     C78057   7.762   4.224   6.907  0.8595 -0.7703  0.7764
  592MOL0     C78058   7.858   4.129   6.902 -0.4930  1.0642 -0.0024
  592MOL0     O78059   8.125   4.048   6.981 -0.2943  0.2438 -0.4061
  592MOL0     C78060   8.117   3.692   6.885  0.0145 -0.1543  0.6625
  592MOL0     C78061   8.194   3.587   6.838  0.6537  1.1192  0.3104
  592MOL0     N78062   9.007   3.541   6.562  0.2983 -0.0708 -0.2016
  592MOL0     N78063   9.134   3.516   6.528 -0.7538 -0.0568 -0.5285
  592MOL0     C78064  10.164   3.887   6.653 -0.1342  0.0029  0.6427
  592MOL0     C78065  10.294   3.937   6.676  0.0097  0.2870  0.7531
  592MOL0     C78066  10.702   4.114   6.704 -0.3082  0.5273  0.5960
  592MOL0     C78067  10.754   4.151   6.583  0.7791 -0.3442 -0.1996
  592MOL0     C78068  10.881   4.201   6.557 -0.3029  0.7437 -0.3795
  592MOL0     C78069  10.965   4.211   6.668  0.2741  0.3325  0.2435
  592MOL0     O78070  11.092   4.265   6.652  0.5858  0.4808 -0.2170
  592MOL0     C78071  11.140   4.370   6.743 -0.2082  0.0329 -0.6374
  592MOL0     C78072  11.283   4.343   6.791  0.4114  0.3001 -0.1561
  592MOL0     C78073  11.297   4.244   6.917  0.4712 -0.4330  0.4118
  592MOL0     C78074  11.433   4.257   6.980 -0.4088 -0.6109 -0.2384
  592MOL0     C78075  11.540   4.292   6.883  0.0329  0.1803  0.5382
  592MOL0     C78076  11.618   4.298   6.789  0.9690  0.2807 -0.0116
  592MOL0     C78077  10.922   4.182   6.796 -0.2040  0.1465 -0.9411
  592MOL0     C78078  10.792   4.127   6.813 -1.0108 -0.1074  0.2838
  592MOL0     H78079  10.341   4.137   6.411  0.3452  1.3219  2.1768
  592MOL0     H78080  10.121   4.031   6.352  0.0618 -0.9875 -0.9636
  592MOL0     H78081   9.986   3.811   6.320  1.1652  0.8839  0.1531
  592MOL0     H78082   9.881   3.950   6.347  0.0433  0.6277  0.2295
  592MOL0     H78083   9.714   3.812   6.456  0.6966  0.7423  2.3059
  592MOL0     H78084   9.826   3.677   6.479 -2.8183 -4.0496 -4.0388
  592MOL0     H78085   9.838   3.622   6.246  1.1887  1.6564 -1.8159
  592MOL0     H78086   9.742   3.756   6.200  2.7930  2.5799  1.4274
  592MOL0     H78087   9.654   3.526   6.385 -0.3868  0.0013 -0.1649
  592MOL0     H78088   9.551   3.660   6.350  3.0822  3.6884  0.7703
  592MOL0     H78089   9.648   3.481   6.130 -0.5628 -0.4881 -0.7517
  592MOL0     H78090   9.516   3.594   6.121  2.2992  1.0216 -2.4359
  592MOL0     H78091   9.507   3.366   6.300 -0.7717 -2.2374 -2.6992
  592MOL0     H78092   9.429   3.371   6.140  0.0096 -1.8320  0.5305
  592MOL0     H78093   9.352   3.565   6.373 -0.3720 -0.7163  0.9765
  592MOL0     H78094   9.282   3.531   6.206  2.0216 -1.5632 -1.6327
  592MOL0     H78095   9.310   3.322   6.422 -1.1430 -2.2089 -0.6336
  592MOL0     H78096   9.229   3.316   6.266  0.9730 -0.4123  0.8566
  592MOL0     H78097   8.965   3.328   6.317 -1.6926  1.9723 -0.4887
  592MOL0     H78098   8.731   3.374   6.423 -1.8094  1.1519 -0.4165
  592MOL0     H78099   8.723   3.533   6.489 -0.4843 -0.3490 -0.2510
  592MOL0     H78100   8.798   3.450   6.724  0.1286 -2.5986  1.7707
  592MOL0     H78101   8.789   3.286   6.658  0.8600  0.7048 -1.0625
  592MOL0     H78102   8.555   3.323   6.590 -3.6212  2.9781 -0.0178
  592MOL0     H78103   8.575   3.314   6.760 -0.5123 -0.7525 -1.4458
  592MOL0     H78104   8.534   3.583   6.618 -3.4007  1.9756  1.5602
  592MOL0     H78105   8.598   3.553   6.784  1.3077 -0.5293 -0.6727
  592MOL0     H78106   8.479   3.771   6.792 -1.2299  0.0781 -1.3121
  592MOL0     H78107   8.347   3.936   6.899 -3.9448  0.6790  5.0610
  592MOL0     H78108   7.706   3.882   7.068  1.9575 -1.5915 -1.8718
  592MOL0     H78109   7.512   4.040   7.048  0.0867 -1.2141 -0.6242
  592MOL0     H78110   7.378   4.268   7.082  1.2491  0.7741  0.7447
  592MOL0     H78111   7.367   4.183   6.923  0.0264  1.3410 -0.4355
  592MOL0     H78112   7.368   4.485   6.945 -1.5274  0.2687 -0.0041
  592MOL0     H78113   7.225   4.380   6.960 -0.4645  0.6608  0.1324
  592MOL0     H78114   7.423   4.361   6.727  1.4632  0.8663  1.4573
  592MOL0     H78115   7.274   4.462   6.708 -1.8650 -1.3489  0.2042
  592MOL0     H78116   7.250   4.268   6.586 -1.2755 -3.8275 -0.7275
  592MOL0     H78117   7.301   4.154   6.717  0.6313  0.0369 -0.7228
  592MOL0     H78118   7.045   4.311   6.676  3.1483  3.1558  2.2844
  592MOL0     H78119   7.088   4.259   6.839 -2.1117  0.5338  1.1109
  592MOL0     H78120   6.941   4.087   6.756 -0.2288 -1.0420  1.3538
  592MOL0     H78121   7.109   4.018   6.737  0.0384  1.2320  1.3374
  592MOL0     H78122   6.891   4.110   6.558  0.3367 -0.2686  2.8573
  592MOL0     H78123   7.058   4.105   6.491 -1.2210  0.0153 -1.2942
  592MOL0     H78124   6.944   3.893   6.436  1.6973  0.5617 -0.4330
  592MOL0     H78125   6.919   3.865   6.616  1.4356  2.8257  3.9921
  592MOL0     H78126   7.784   4.320   6.862  0.0877 -0.1874  1.6097
  592MOL0     H78127   7.951   4.153   6.851  0.4408 -0.4696  0.8818
  592MOL0     H78128   8.011   3.673   6.895 -0.6314  2.2938 -0.5690
  592MOL0     H78129   8.160   3.485   6.823 -1.4661  2.0443 -1.9755
  592MOL0     H78130  10.116   3.812   6.714  0.8494 -0.9491  0.2668
  592MOL0     H78131  10.352   3.918   6.766  0.4440  1.6234  0.7649
  592MOL0     H78132  10.680   4.150   6.505 -1.1654  0.3190  1.5469
  592MOL0     H78133  10.929   4.228   6.464  0.8676 -1.1400 -0.3833
  592MOL0     H78134  11.070   4.382   6.827 -0.6462 -0.3958 -0.9322
  592MOL0     H78135  11.152   4.462   6.686 -1.9545 -0.7114 -2.3150
  592MOL0     H78136  11.338   4.304   6.705 -2.9250  1.9430 -3.2897
  592MOL0     H78137  11.337   4.436   6.813 -1.7454  1.5568  0.0249
  592MOL0     H78138  11.285   4.144   6.874 -0.0862 -0.7735  1.3380
  592MOL0     H78139  11.221   4.249   6.995  0.7871 -2.2207  0.8757
  592MOL0     H78140  11.424   4.344   7.046 -1.0718  0.1725 -1.3066
  592MOL0     H78141  11.463   4.174   7.044 -2.3716 -1.8965 -0.8968
  592MOL0     H78142  11.683   4.313   6.705  1.6360 -0.3404  0.3767
  592MOL0     H78143  10.991   4.196   6.879 -1.5270  1.5299 -0.0143
  592MOL0     H78144  10.751   4.097   6.909 -0.0977  0.5505  0.9027
  593MOL0     O78145   2.533   2.799   0.223 -0.0887 -0.1172 -0.8833
  593MOL0     C78146   2.517   2.836   0.340 -1.1260  0.5917  0.5681
  593MOL0     O78147   2.405   2.819   0.417  0.7254 -0.2176 -0.4168
  593MOL0     C78148   2.286   2.801   0.357  1.2143  0.0280 -0.0715
  593MOL0     C78149   2.191   2.736   0.436 -0.1582 -0.1912  0.1217
  593MOL0     C78150   2.070   2.691   0.384 -0.2053 -0.1706  0.3531
  593MOL0     C78151   2.034   2.712   0.251 -0.2907  0.1370 -1.1080
  593MOL0     O78152   1.923   2.661   0.196 -0.4597  0.2158 -0.2475
  593MOL0     C78153   1.838   2.579   0.282 -0.1698 -0.7270  0.4110
  593MOL0     C78154   1.715   2.532   0.209  0.3173  0.5677 -0.0070
  593MOL0     C78155   1.665   2.398   0.264  0.0648 -0.6945  0.0954
  593MOL0     C78156   1.585   2.418   0.397 -0.1420  0.1427  0.4405
  593MOL0     C78157   1.542   2.277   0.426  0.2177 -0.1517 -0.3288
  593MOL0     C78158   1.523   2.269   0.577 -0.4765  0.8440  0.9437
  593MOL0     C78159   1.451   2.134   0.609 -0.9716  0.4716 -0.2033
  593MOL0     C78160   1.300   2.141   0.565 -0.4646  0.6371 -1.1814
  593MOL0     N78161   1.212   2.234   0.632 -0.2648  0.1484 -0.1584
  593MOL0     C78162   1.222   2.271   0.767  0.5167  0.2108 -0.6987
  593MOL0     C78163   1.117   2.361   0.780  0.1325  0.0934 -0.8187
  593MOL0     C78164   1.070   2.431   0.907  0.2572 -0.4291 -0.3493
  593MOL0     C78165   0.911   2.468   0.915  0.1220 -0.6254 -0.2772
  593MOL0     C78166   0.829   2.348   0.921  0.2021 -0.2555  0.7895
  593MOL0     C78167   0.687   2.382   0.894 -0.4687  0.6743  0.4179
  593MOL0     O78168   0.610   2.269   0.921  0.0222  0.3081  0.5332
  593MOL0     C78169   0.472   2.278   0.906 -0.1900 -0.3999 -0.1737
  593MOL0     C78170   0.406   2.395   0.857 -0.2279  0.4057 -0.2618
  593MOL0     C78171   0.264   2.388   0.842  0.1932  0.5169 -0.6416
  593MOL0     C78172   0.194   2.269   0.848 -0.3479 -0.3340  0.0818
  593MOL0     C78173   0.060   2.246   0.798  0.3096 -0.8337 -0.1136
  593MOL0     O78174   0.002   2.125   0.832  0.1061  0.4854  0.4271
  593MOL0     C78175  -0.136   2.119   0.841  0.0382  0.0363 -0.1770
  593MOL0     C78176  -0.200   2.001   0.786  0.6787 -1.2216  0.8892
  593MOL0     C78177  -0.334   1.976   0.809 -0.1001  0.2204  0.6023
  593MOL0     C78178  -0.411   2.077   0.868  0.4985 -0.4898  0.4318
  593MOL0     O78179  -0.548   2.048   0.887  0.3048  0.2715  0.3552
  593MOL0     C78180  -0.585   1.941   0.978  0.1700 -0.4593 -0.4047
  593MOL0     C78181  -0.739   1.949   0.980 -0.8791 -0.9689 -0.0920
  593MOL0     C78182  -0.798   1.857   1.088  0.1328  0.7508 -0.0022
  593MOL0     C78183  -0.946   1.879   1.085 -1.5234  0.8647 -0.5808
  593MOL0     C78184  -1.020   1.750   1.141  0.3178 -0.0749  0.3077
  593MOL0     C78185  -1.015   1.757   1.295 -0.3885 -0.0382 -0.0407
  593MOL0     C78186  -1.062   1.626   1.354 -0.3524 -0.0468  0.1262
  593MOL0     C78187  -1.214   1.602   1.310 -0.1144 -0.2553 -0.0971
  593MOL0    Cl78188  -1.320   1.732   1.364 -0.3342  0.2137 -0.1621
  593MOL0     C78189  -0.353   2.196   0.905 -0.4116  0.1289 -0.4248
  593MOL0     C78190  -0.220   2.220   0.890  0.2071  0.0075  0.3258
  593MOL0     O78191   0.009   2.329   0.727 -0.4069  0.6152  1.1661
  593MOL0     C78192   0.268   2.155   0.900  0.5557  0.2992  0.2096
  593MOL0     C78193   0.408   2.160   0.923  0.0998  0.2193  0.1765
  593MOL0     N78194   1.061   2.378   0.661 -0.1340 -0.1183  0.6422
  593MOL0     N78195   1.112   2.296   0.571 -0.7999 -0.5097 -0.2985
  593MOL0     C78196   2.125   2.787   0.173 -0.2875  0.0067 -0.1878
  593MOL0     C78197   2.250   2.828   0.221  0.2689  1.0880 -0.7024
  593MOL0     C78198   2.626   2.905   0.410 -0.0405 -0.0034  1.0044
  593MOL0     C78199   2.758   2.910   0.355  0.2014 -0.5421 -0.0009
  593MOL0     C78200   2.867   2.976   0.414 -0.7623  0.4496 -0.1516
  593MOL0     C78201   2.846   3.049   0.531 -0.7213  0.5854  0.5364
  593MOL0     O78202   2.957   3.128   0.576  0.9057  0.0526 -0.6828
  593MOL0     C78203   2.960   3.177   0.712 -0.1860  0.8362 -0.4708
  593MOL0     C78204   2.885   3.311   0.733  0.5010 -0.8108 -0.4129
  593MOL0     C78205   2.947   3.417   0.649 -0.3009 -0.7371  0.2470
  593MOL0     C78206   2.853   3.536   0.649 -0.1445 -0.4704  0.1422
  593MOL0     C78207   2.912   3.655   0.589  0.2155  0.3618 -0.5382
  593MOL0     C78208   2.963   3.762   0.553 -0.1271  0.6158  0.4504
  593MOL0     C78209   2.720   3.048   0.586 -1.0305 -0.3779  0.5792
  593MOL0     C78210   2.613   2.976   0.524 -0.0257  0.8263 -0.1634
  593MOL0     H78211   2.217   2.710   0.538 -1.9847 -2.4891  0.0801
  593MOL0     H78212   2.006   2.634   0.450 -2.3711 -0.2863 -1.7296
  593MOL0     H78213   1.801   2.640   0.365  3.6287  2.5374  0.0569
  593MOL0     H78214   1.892   2.489   0.310  1.9691 -0.5053 -2.5468
  593MOL0     H78215   1.748   2.512   0.107 -0.8195  0.4765 -0.3633
  593MOL0     H78216   1.639   2.609   0.193 -0.9304 -0.6386  0.0172
  593MOL0     H78217   1.755   2.338   0.279  0.7444  0.0085 -1.0095
  593MOL0     H78218   1.608   2.353   0.182 -0.1245 -2.5183  1.1752
  593MOL0     H78219   1.651   2.458   0.474 -0.3439  2.4444 -0.4920
  593MOL0     H78220   1.499   2.484   0.385 -2.2319 -2.6377 -0.9134
  593MOL0     H78221   1.612   2.199   0.395 -0.3472 -1.3683  1.3712
  593MOL0     H78222   1.446   2.262   0.375 -0.0765 -0.4672  0.3090
  593MOL0     H78223   1.459   2.351   0.613  0.1306  1.1731  1.3088
  593MOL0     H78224   1.623   2.275   0.622 -0.4069 -0.1571  0.9416
  593MOL0     H78225   1.500   2.056   0.550 -0.3406  2.0306 -1.8307
  593MOL0     H78226   1.449   2.118   0.717 -0.4301 -1.9300 -0.4897
  593MOL0     H78227   1.266   2.040   0.591  2.9086  0.2179  2.7150
  593MOL0     H78228   1.294   2.153   0.457 -0.1951  1.7888 -1.0806
  593MOL0     H78229   1.294   2.238   0.840 -0.3649 -2.1488 -0.7887
  593MOL0     H78230   1.130   2.522   0.914 -0.6260  0.1027  0.5478
  593MOL0     H78231   1.106   2.367   0.988  1.5857  1.7903  0.8983
  593MOL0     H78232   0.901   2.535   0.829  0.1891 -0.0528  0.1532
  593MOL0     H78233   0.891   2.529   1.004 -0.7457 -1.0320 -0.1816
  593MOL0     H78234   0.862   2.284   0.838  0.1742  2.1455 -1.2165
  593MOL0     H78235   0.833   2.293   1.015 -0.9572 -1.6675  0.0497
  593MOL0     H78236   0.694   2.396   0.786 -1.3341 -2.9225 -0.2006
  593MOL0     H78237   0.648   2.472   0.943  0.3537  1.9730 -1.1833
  593MOL0     H78238   0.456   2.484   0.821  0.9903 -0.3130 -0.4261
  593MOL0     H78239   0.204   2.471   0.807 -2.3694 -0.5028  0.9662
  593MOL0     H78240  -0.144   1.926   0.731 -1.6772 -0.9450 -2.1611
  593MOL0     H78241  -0.379   1.887   0.768  2.0064  0.5149 -2.7927
  593MOL0     H78242  -0.538   1.950   1.076  1.2614  1.5922 -1.0476
  593MOL0     H78243  -0.551   1.846   0.937 -1.1254 -0.4600 -1.5405
  593MOL0     H78244  -0.769   1.911   0.882  1.0903 -2.5442 -0.1583
  593MOL0     H78245  -0.770   2.054   0.990  1.3133 -0.3760  1.3038
  593MOL0     H78246  -0.751   1.876   1.185  0.1612 -0.5251  0.2508
  593MOL0     H78247  -0.778   1.755   1.052 -0.5721  1.7170 -3.5619
  593MOL0     H78248  -0.972   1.969   1.143 -0.0805  1.5097 -0.9041
  593MOL0     H78249  -0.980   1.886   0.982 -2.5683 -0.0555 -0.3149
  593MOL0     H78250  -0.981   1.654   1.106 -1.5735 -0.3512 -1.1479
  593MOL0     H78251  -1.122   1.760   1.105  1.0239  0.0068 -1.7938
  593MOL0     H78252  -1.073   1.843   1.330 -2.1752 -1.3941  0.4737
  593MOL0     H78253  -0.909   1.772   1.316  0.0940  0.3032 -2.4436
  593MOL0     H78254  -0.997   1.541   1.329 -0.9110 -0.0493 -1.4749
  593MOL0     H78255  -1.047   1.651   1.459  2.2257  1.1086 -0.4411
  593MOL0     H78256  -1.258   1.521   1.368 -0.6603  0.1388  0.0473
  593MOL0     H78257  -1.222   1.585   1.202 -0.6361  2.3514 -0.5488
  593MOL0     H78258  -0.404   2.275   0.960  2.7888  1.6244  0.6627
  593MOL0     H78259  -0.173   2.315   0.913 -0.3915  0.6890 -1.1331
  593MOL0     H78260   0.206   2.066   0.900  0.6398  0.2343  0.8937
  593MOL0     H78261   0.465   2.070   0.948 -0.1267  0.2407  0.7849
  593MOL0     H78262   2.096   2.808   0.071 -0.7505  1.7304  0.2604
  593MOL0     H78263   2.325   2.878   0.160  1.4453 -0.6186 -0.7112
  593MOL0     H78264   2.762   2.857   0.260 -1.5959 -0.3915 -0.2047
  593MOL0     H78265   2.963   2.973   0.364 -0.0349 -0.6967  1.2565
  593MOL0     H78266   3.062   3.212   0.731 -0.2432  0.3298  0.8440
  593MOL0     H78267   2.935   3.097   0.782  1.8940 -1.4257 -2.1008
  593MOL0     H78268   2.780   3.299   0.705  0.2149 -0.8473  0.6496
  593MOL0     H78269   2.887   3.328   0.841 -0.1317  2.1649 -0.7878
  593MOL0     H78270   2.970   3.378   0.549 -0.3653  2.1674 -1.0028
  593MOL0     H78271   3.044   3.441   0.694  0.8212  0.3667 -2.5267
  593MOL0     H78272   2.755   3.511   0.608 -0.2318  0.4159 -0.2004
  593MOL0     H78273   2.818   3.558   0.750  1.3245 -3.8318  1.5446
  593MOL0     H78274   2.992   3.861   0.524 -0.6105  0.7001  0.2475
  593MOL0     H78275   2.711   3.106   0.677 -1.7340  2.9031 -1.4089
  593MOL0     H78276   2.511   2.981   0.561  0.6355  1.1629  1.6943
  594MOL0     O78277   9.366   5.624   7.821 -0.2338  0.2063 -0.1481
  594MOL0     C78278   9.273   5.581   7.894  0.2520 -0.4613 -0.0949
  594MOL0     O78279   9.286   5.533   8.023  0.0649  0.4174  0.2224
  594MOL0     C78280   9.409   5.545   8.078  0.4200  0.0498 -0.0441
  594MOL0     C78281   9.485   5.665   8.077 -0.4559  0.3381  0.1249
  594MOL0     C78282   9.603   5.667   8.154  0.3186 -0.6643  0.2491
  594MOL0     C78283   9.637   5.556   8.238 -0.0708  0.1812 -0.8029
  594MOL0     O78284   9.757   5.545   8.306  0.2820  0.1854  0.0163
  594MOL0     C78285   9.847   5.658   8.317  0.0503 -0.2044 -0.0359
  594MOL0     C78286   9.784   5.757   8.415 -0.0396 -0.1207 -0.5700
  594MOL0     C78287   9.872   5.876   8.438 -0.4130 -0.3249 -0.6049
  594MOL0     C78288   9.991   5.852   8.534  0.1386  0.3820  0.3087
  594MOL0     C78289  10.086   5.973   8.542 -0.1423  0.4645 -0.4009
  594MOL0     C78290  10.193   5.937   8.644 -0.0989 -0.1215  0.0949
  594MOL0     C78291  10.299   6.042   8.671  0.9615 -1.0675 -0.1753
  594MOL0     C78292  10.417   5.981   8.740 -0.2155  0.1470 -1.5423
  594MOL0     N78293  10.529   6.080   8.723 -0.4271 -0.4405 -0.2054
  594MOL0     C78294  10.537   6.217   8.754 -0.2920 -0.0666  0.0866
  594MOL0     C78295  10.669   6.245   8.742 -0.7021 -0.6461  0.3114
  594MOL0     C78296  10.736   6.381   8.761  0.4154  0.2067 -0.3349
  594MOL0     C78297  10.860   6.376   8.848 -0.6745 -0.5909  0.7484
  594MOL0     C78298  10.837   6.377   8.996  0.1828 -0.3627  0.5009
  594MOL0     C78299  10.966   6.333   9.066 -0.4285  0.7592  0.1927
  594MOL0     O78300  10.975   6.332   9.208 -0.3003  0.3346  0.5406
  594MOL0     C78301  10.917   6.237   9.279  0.8358  0.1676  0.4598
  594MOL0     C78302  10.827   6.273   9.378 -0.0091 -0.4157  0.0491
  594MOL0     C78303  10.775   6.180   9.467  0.0174  0.0404 -0.0385
  594MOL0     C78304  10.819   6.042   9.468 -1.0399  0.6091  0.4931
  594MOL0     C78305  10.765   5.940   9.565  0.1418 -1.3648 -0.0782
  594MOL0     O78306  10.654   5.984   9.640  0.3418  0.8493 -0.0458
  594MOL0     C78307  10.583   5.908   9.734  0.4972 -0.6628  0.1327
  594MOL0     C78308  10.442   5.921   9.721 -0.3478  0.4487 -0.0658
  594MOL0     C78309  10.362   5.854   9.819 -0.2428  0.3221  0.4848
  594MOL0     C78310  10.418   5.788   9.932 -0.4992  0.8576 -0.7445
  594MOL0     O78311  10.342   5.727  10.026  0.0716  0.6287 -0.6713
  594MOL0     C78312  10.198   5.723  10.018 -0.6406 -0.7829 -0.2604
  594MOL0     C78313  10.133   5.644  10.134 -0.2246 -0.4225  0.3657
  594MOL0     C78314   9.990   5.637  10.097  1.0154 -0.0191  0.1012
  594MOL0     C78315   9.915   5.561  10.203 -0.6976  0.5535 -0.1724
  594MOL0     C78316   9.762   5.541  10.170 -0.1562  0.0548 -0.2751
  594MOL0     C78317   9.692   5.525  10.306  0.2152 -0.0502  0.1649
  594MOL0     C78318   9.543   5.519  10.294 -0.9161 -0.5507  0.1033
  594MOL0     C78319   9.493   5.394  10.215  0.4933 -0.4749 -0.3661
  594MOL0    Cl78320   9.323   5.430  10.164  0.4877 -0.1254  0.0706
  594MOL0     C78321  10.560   5.767   9.931 -0.2872 -0.1455 -0.3728
  594MOL0     C78322  10.639   5.825   9.835 -0.2219 -0.1931  1.0133
  594MOL0     O78323  10.830   5.832   9.581  0.3139  0.3473 -0.2719
  594MOL0     C78324  10.919   6.003   9.370 -0.0666 -0.0596  0.2839
  594MOL0     C78325  10.961   6.103   9.274 -0.9716  0.2528 -0.0368
  594MOL0     N78326  10.733   6.130   8.707 -0.0151 -0.3505 -0.4879
  594MOL0     N78327  10.649   6.036   8.686 -0.2158  0.4661  0.1919
  594MOL0     C78328   9.553   5.449   8.249  0.2955 -0.6592 -0.5277
  594MOL0     C78329   9.436   5.445   8.175  0.3332  0.6138  0.2478
  594MOL0     C78330   9.146   5.558   7.834  0.0407 -0.0915  0.9788
  594MOL0     C78331   9.029   5.505   7.891 -0.2967  0.6398  0.0324
  594MOL0     C78332   8.906   5.492   7.828 -0.1423 -0.5512 -0.6773
  594MOL0     C78333   8.898   5.514   7.689 -0.6091  0.8095  0.1737
  594MOL0     O78334   8.782   5.505   7.611 -0.0784 -0.1048 -0.6680
  594MOL0     C78335   8.660   5.514   7.695  0.5713  0.0667  0.8041
  594MOL0     C78336   8.536   5.524   7.609 -0.1143 -0.2961 -0.2997
  594MOL0     C78337   8.517   5.655   7.532 -0.8189 -0.0512  0.0930
  594MOL0     C78338   8.394   5.633   7.446 -0.3301  0.1595 -0.1629
  594MOL0     C78339   8.395   5.754   7.355 -0.7421 -0.3956 -0.0908
  594MOL0     C78340   8.392   5.854   7.283  0.7733  0.1549  0.1909
  594MOL0     C78341   9.014   5.553   7.630 -0.4914  0.4936  0.1357
  594MOL0     C78342   9.130   5.580   7.694  0.3893 -0.0344 -1.2110
  594MOL0     H78343   9.457   5.745   8.010  0.6082 -1.4625 -2.6446
  594MOL0     H78344   9.671   5.750   8.135 -0.8477  0.8426  2.3032
  594MOL0     H78345   9.853   5.706   8.219 -0.5344 -1.0178 -0.4829
  594MOL0     H78346   9.942   5.614   8.349  0.0011  0.8216  1.6728
  594MOL0     H78347   9.768   5.712   8.513  0.9011  2.2830  0.7580
  594MOL0     H78348   9.688   5.781   8.368 -0.1564  0.7582  0.0952
  594MOL0     H78349   9.813   5.960   8.477 -2.1395 -1.4666 -0.6791
  594MOL0     H78350   9.898   5.909   8.336 -2.2337 -0.8447 -1.2717
  594MOL0     H78351   9.951   5.834   8.634  0.4174  1.2716  0.5945
  594MOL0     H78352  10.043   5.763   8.497  0.2785  0.4898  0.2440
  594MOL0     H78353  10.026   6.059   8.575 -0.0917  0.3085  0.1122
  594MOL0     H78354  10.126   5.994   8.442 -0.5956  0.4906 -0.5792
  594MOL0     H78355  10.260   5.861   8.603 -0.9361 -0.9816  0.3058
  594MOL0     H78356  10.149   5.917   8.742  1.8204 -2.1320  0.6105
  594MOL0     H78357  10.324   6.079   8.571 -1.1857  0.3536 -0.2427
  594MOL0     H78358  10.258   6.128   8.724  2.1029  0.3284 -1.4594
  594MOL0     H78359  10.444   5.887   8.691 -0.6015 -1.1907  0.6874
  594MOL0     H78360  10.390   5.971   8.846  1.5161  2.4855 -0.7977
  594MOL0     H78361  10.453   6.279   8.785 -1.2616 -0.5818 -1.4061
  594MOL0     H78362  10.662   6.451   8.802 -0.8573 -0.9679 -0.5256
  594MOL0     H78363  10.764   6.408   8.658  4.1438 -1.2307  0.1773
  594MOL0     H78364  10.908   6.468   8.814 -2.7717  0.2711 -0.0201
  594MOL0     H78365  10.919   6.288   8.824 -1.9823 -0.9533 -1.3398
  594MOL0     H78366  10.812   6.480   9.024  0.0774  0.3592 -1.9936
  594MOL0     H78367  10.743   6.324   9.012 -0.3880  0.7017  0.7876
  594MOL0     H78368  11.045   6.394   9.023  0.7222 -1.0398 -0.3687
  594MOL0     H78369  10.990   6.230   9.037 -0.3995  1.3948 -2.2722
  594MOL0     H78370  10.790   6.375   9.373  1.3033  0.0193 -2.3214
  594MOL0     H78371  10.706   6.219   9.541 -0.0258 -2.0423  1.0830
  594MOL0     H78372  10.394   5.980   9.644 -1.0172  1.0344  0.7833
  594MOL0     H78373  10.255   5.860   9.805 -0.2944 -1.1637  0.0186
  594MOL0     H78374  10.171   5.670   9.926  0.5498 -0.8145 -0.6191
  594MOL0     H78375  10.155   5.822  10.008 -1.4564 -1.2866 -2.3393
  594MOL0     H78376  10.157   5.697  10.227 -1.2578 -0.5495  0.7261
  594MOL0     H78377  10.181   5.546  10.136  0.3686 -0.1725 -0.7850
  594MOL0     H78378   9.984   5.589   9.999  2.7591  2.3228 -1.2678
  594MOL0     H78379   9.944   5.737  10.092  2.0394  0.4964  0.6361
  594MOL0     H78380   9.963   5.463  10.207  1.4494  1.5815  2.8036
  594MOL0     H78381   9.946   5.607  10.297  0.3619 -0.7829  0.1593
  594MOL0     H78382   9.745   5.451  10.111 -1.2867  1.0224 -1.4976
  594MOL0     H78383   9.722   5.623  10.109  1.8444  2.3412  1.2620
  594MOL0     H78384   9.715   5.614  10.366 -1.9806 -0.4512  1.7022
  594MOL0     H78385   9.727   5.441  10.367 -3.0734 -2.1604 -0.6470
  594MOL0     H78386   9.506   5.522  10.397  2.5117 -0.5930  1.4903
  594MOL0     H78387   9.515   5.615  10.252  0.4587  0.7620  2.0237
  594MOL0     H78388   9.502   5.302  10.275  2.9215  0.1088  0.2749
  594MOL0     H78389   9.548   5.379  10.122  0.6750 -1.0812 -0.1657
  594MOL0     H78390  10.604   5.698  10.003 -0.3674 -0.8878 -1.0167
  594MOL0     H78391  10.747   5.814   9.832 -0.0313  1.4986  0.9366
  594MOL0     H78392  10.957   5.901   9.366  2.4889  0.8445 -0.1328
  594MOL0     H78393  11.045   6.081   9.210  0.9746  0.7850  2.2112
  594MOL0     H78394   9.570   5.368   8.320  0.4038  0.3515  0.6336
  594MOL0     H78395   9.366   5.363   8.191  3.0558 -1.6454  1.3913
  594MOL0     H78396   9.035   5.480   7.996 -0.9636  1.9894  0.4123
  594MOL0     H78397   8.818   5.467   7.887  0.4061 -2.9571 -0.8018
  594MOL0     H78398   8.672   5.604   7.755 -2.8490 -1.1684  3.7047
  594MOL0     H78399   8.646   5.432   7.767 -1.9940  1.9215  2.5859
  594MOL0     H78400   8.521   5.442   7.539  1.0100  1.9618 -3.3943
  594MOL0     H78401   8.455   5.502   7.679 -0.1558 -0.9025 -0.5357
  594MOL0     H78402   8.602   5.683   7.469  0.1256 -1.0722  0.8739
  594MOL0     H78403   8.496   5.732   7.607  1.1634  0.1541  0.4860
  594MOL0     H78404   8.387   5.544   7.382  2.3731  0.0628 -0.4020
  594MOL0     H78405   8.303   5.633   7.507 -1.6551 -4.9557 -1.6171
  594MOL0     H78406   8.388   5.943   7.223  1.1991 -1.7008 -2.8299
  594MOL0     H78407   9.013   5.559   7.521  0.0899 -3.3956 -0.2152
  594MOL0     H78408   9.208   5.625   7.634  0.9645  1.3784  0.5241
  595MOL0     O78409   7.344   4.775  11.070 -0.0225 -0.0793  0.5751
  595MOL0     C78410   7.395   4.691  11.140  0.1473  0.6570 -1.0324
  595MOL0     O78411   7.383   4.689  11.277  0.5728 -0.0532  0.3847
  595MOL0     C78412   7.312   4.791  11.334  0.0049  0.6889 -0.3253
  595MOL0     C78413   7.175   4.790  11.368 -0.1128 -0.0948 -0.0046
  595MOL0     C78414   7.114   4.895  11.431 -0.5921  0.0249 -0.5897
  595MOL0     C78415   7.192   5.011  11.465 -0.4702 -0.3415  0.2326
  595MOL0     O78416   7.140   5.126  11.517  0.6357  0.6626 -0.2481
  595MOL0     C78417   7.004   5.118  11.572  0.7206 -0.2804 -0.9943
  595MOL0     C78418   6.977   5.258  11.632  0.1178 -0.3364  0.9683
  595MOL0     C78419   6.834   5.303  11.650  0.0143 -0.6183  0.3558
  595MOL0     C78420   6.828   5.463  11.680  0.7523  0.2936 -0.5237
  595MOL0     C78421   6.685   5.505  11.684  0.1727  0.6470 -0.4881
  595MOL0     C78422   6.670   5.660  11.701 -0.0426 -1.1363  0.0055
  595MOL0     C78423   6.531   5.698  11.753  0.2669 -0.3332 -0.2148
  595MOL0     C78424   6.493   5.849  11.715 -0.6438  0.5584  0.0118
  595MOL0     N78425   6.346   5.877  11.712  0.0574  0.0993 -0.3525
  595MOL0     C78426   6.257   5.865  11.819  0.0853 -0.8920  0.0743
  595MOL0     C78427   6.144   5.925  11.779  0.6318 -0.0700  0.2957
  595MOL0     C78428   6.024   5.934  11.868 -0.7561 -0.1551 -0.4186
  595MOL0     C78429   6.003   6.071  11.929  0.9776  0.3557 -0.0706
  595MOL0     C78430   5.896   6.143  11.838 -0.7658 -0.1524 -0.2578
  595MOL0     C78431   5.815   6.236  11.920 -0.1812 -0.0144 -0.8051
  595MOL0     O78432   5.729   6.145  11.993  0.3354  0.2612 -0.0543
  595MOL0     C78433   5.641   6.205  12.077  0.6957 -0.0957  0.3616
  595MOL0     C78434   5.545   6.122  12.145 -1.3181  0.0457  0.8422
  595MOL0     C78435   5.447   6.181  12.229 -0.0984 -0.3190 -1.1516
  595MOL0     C78436   5.443   6.322  12.239  0.3014 -0.1817 -1.0223
  595MOL0     C78437   5.352   6.395  12.330  0.3662 -0.3722 -0.1968
  595MOL0     O78438   5.234   6.337  12.346  0.0300 -0.5245 -0.1811
  595MOL0     C78439   5.132   6.413  12.406 -0.7886 -0.3006 -0.0193
  595MOL0     C78440   5.010   6.420  12.336  0.1584  0.4918  0.2753
  595MOL0     C78441   4.896   6.468  12.396  0.0991 -0.4692  1.0955
  595MOL0     C78442   4.902   6.535  12.521 -0.3989  0.2120  0.8805
  595MOL0     O78443   4.788   6.591  12.580 -0.1570 -0.5760 -0.4907
  595MOL0     C78444   4.681   6.644  12.506  0.4394 -0.6731  0.2911
  595MOL0     C78445   4.573   6.539  12.498  0.2182  0.1852 -0.6127
  595MOL0     C78446   4.457   6.587  12.403  0.0496 -0.3241 -0.3152
  595MOL0     C78447   4.319   6.534  12.445 -0.4707  0.2847 -0.2931
  595MOL0     C78448   4.304   6.380  12.431 -0.3532 -0.2351  0.6209
  595MOL0     C78449   4.186   6.323  12.515 -0.6145 -0.2627  0.2802
  595MOL0     C78450   4.162   6.176  12.488  1.0915 -0.2080 -0.3056
  595MOL0     C78451   4.058   6.137  12.594 -0.6055  0.7416 -0.3445
  595MOL0    Cl78452   4.120   6.128  12.761 -0.2210 -0.1063 -0.4160
  595MOL0     C78453   5.026   6.547  12.579  0.3533 -0.1461  0.2953
  595MOL0     C78454   5.136   6.480  12.531  0.2827  0.4754  0.0913
  595MOL0     O78455   5.385   6.507  12.368  0.3256 -0.0062 -0.4529
  595MOL0     C78456   5.540   6.406  12.174 -0.5206  0.0608 -0.2209
  595MOL0     C78457   5.636   6.343  12.103  0.1634 -0.5439 -0.2900
  595MOL0     N78458   6.146   5.951  11.645 -0.3210 -0.4025  0.5475
  595MOL0     N78459   6.265   5.917  11.611  0.2123  0.3601 -0.7169
  595MOL0     C78460   7.327   5.010  11.443 -0.6544  0.0027 -0.5568
  595MOL0     C78461   7.387   4.901  11.382 -0.1300  0.3037  0.3130
  595MOL0     C78462   7.484   4.594  11.066 -0.7088 -1.7457  0.2740
  595MOL0     C78463   7.475   4.563  10.927  0.6303 -0.5403 -0.2972
  595MOL0     C78464   7.554   4.474  10.864 -0.3659  0.3734 -0.1758
  595MOL0     C78465   7.663   4.423  10.937  0.5102  0.3094  0.8276
  595MOL0     O78466   7.745   4.354  10.861 -0.5378  0.6973 -0.2490
  595MOL0     C78467   7.838   4.264  10.917 -0.8897  0.3328 -0.1523
  595MOL0     C78468   7.857   4.152  10.818  0.3056 -0.4847 -0.0693
  595MOL0     C78469   7.946   4.043  10.870  0.7576  0.2482  0.0908
  595MOL0     C78470   7.871   3.949  10.968  0.0662  0.2882  1.3632
  595MOL0     C78471   7.981   3.866  11.027  0.2637 -0.5493  0.0133
  595MOL0     C78472   8.067   3.787  11.047  0.4949 -0.3422 -0.4078
  595MOL0     C78473   7.677   4.452  11.073 -0.0850 -0.9424 -0.0666
  595MOL0     C78474   7.589   4.544  11.135 -0.9924  0.4969 -0.2755
  595MOL0     H78475   7.122   4.700  11.338 -2.6130  0.5427  2.0877
  595MOL0     H78476   7.005   4.900  11.433 -0.6469  0.4826 -2.4932
  595MOL0     H78477   6.994   5.043  11.651 -0.8181  1.0218  0.0975
  595MOL0     H78478   6.935   5.100  11.490  0.1587  1.5459 -0.9683
  595MOL0     H78479   7.034   5.340  11.587 -0.5379  0.5962  1.8128
  595MOL0     H78480   7.007   5.253  11.737  1.5543  1.3050  0.6833
  595MOL0     H78481   6.787   5.249  11.733  0.3127  0.6631  1.3940
  595MOL0     H78482   6.793   5.283  11.551  4.2851 -1.3059 -1.5040
  595MOL0     H78483   6.893   5.481  11.767 -0.0852 -2.0691  0.6653
  595MOL0     H78484   6.869   5.506  11.589 -1.9062 -0.7849 -2.3501
  595MOL0     H78485   6.633   5.446  11.761 -0.6739 -0.5236 -1.8994
  595MOL0     H78486   6.635   5.474  11.592 -2.4340 -0.7889  1.2823
  595MOL0     H78487   6.693   5.711  11.608 -1.1453 -0.1598  0.2437
  595MOL0     H78488   6.740   5.683  11.782 -0.1324 -2.5847  0.5327
  595MOL0     H78489   6.449   5.638  11.710 -1.8116  2.6806 -0.7515
  595MOL0     H78490   6.535   5.687  11.861  1.3729  2.3228  0.0945
  595MOL0     H78491   6.539   5.865  11.616  2.6931  0.2770  1.3709
  595MOL0     H78492   6.536   5.925  11.781 -1.0828  0.7582  0.0676
  595MOL0     H78493   6.268   5.826  11.919  0.9441  1.0053  0.7480
  595MOL0     H78494   6.045   5.872  11.955  0.9302 -0.2976 -0.8808
  595MOL0     H78495   5.935   5.898  11.817 -0.2381 -1.2222 -0.5943
  595MOL0     H78496   6.088   6.139  11.932  0.7090  0.8270 -1.6808
  595MOL0     H78497   5.965   6.048  12.029  1.1446 -0.6631 -0.2290
  595MOL0     H78498   5.952   6.192  11.758 -1.0811 -0.7942 -0.8799
  595MOL0     H78499   5.828   6.073  11.789 -0.2469 -1.3143  0.6184
  595MOL0     H78500   5.757   6.298  11.851  0.7454  1.0194 -0.6900
  595MOL0     H78501   5.873   6.304  11.983  1.2296 -1.3249 -0.6089
  595MOL0     H78502   5.548   6.015  12.127  1.0714  0.2106 -0.1620
  595MOL0     H78503   5.361   6.138  12.279 -0.5598  2.0006  0.1860
  595MOL0     H78504   5.001   6.369  12.241  0.1830  0.5831  0.2239
  595MOL0     H78505   4.810   6.459  12.331  1.9715  1.2793 -1.8535
  595MOL0     H78506   4.720   6.668  12.407  2.8508 -0.2808  1.2742
  595MOL0     H78507   4.661   6.739  12.556  0.8196 -1.0170  1.1266
  595MOL0     H78508   4.537   6.507  12.597  0.7246 -1.7139 -1.0136
  595MOL0     H78509   4.619   6.446  12.464 -1.3353 -0.8871  0.1015
  595MOL0     H78510   4.485   6.543  12.307  2.1207  0.1578  0.0250
  595MOL0     H78511   4.453   6.696  12.402 -2.4183 -0.3072  1.4887
  595MOL0     H78512   4.310   6.559  12.551 -0.9201 -0.6610 -0.0976
  595MOL0     H78513   4.244   6.589  12.387  1.4489  1.7076 -1.5704
  595MOL0     H78514   4.390   6.314  12.445 -1.9368 -2.9984 -1.4773
  595MOL0     H78515   4.267   6.367  12.329  0.5403  1.9118 -0.0237
  595MOL0     H78516   4.099   6.389  12.510 -0.9390 -0.7779 -2.2794
  595MOL0     H78517   4.214   6.327  12.621 -0.3653 -1.0823  0.2552
  595MOL0     H78518   4.116   6.166  12.388 -0.3408  0.0388  0.2969
  595MOL0     H78519   4.240   6.100  12.488  0.5093 -0.8234 -0.0628
  595MOL0     H78520   4.015   6.042  12.559 -3.9248  2.3040 -0.9399
  595MOL0     H78521   3.976   6.209  12.590 -2.1891 -1.0126 -0.8637
  595MOL0     H78522   5.041   6.593  12.676 -1.3732 -0.6790  0.8503
  595MOL0     H78523   5.226   6.473  12.591  0.1420  1.2217  0.4048
  595MOL0     H78524   5.532   6.514  12.162 -0.4522 -0.0739 -1.6755
  595MOL0     H78525   5.704   6.411  12.052 -0.4682 -1.2541 -2.1304
  595MOL0     H78526   7.395   5.091  11.468 -0.1526 -0.1413 -1.4101
  595MOL0     H78527   7.493   4.894  11.361  0.5677  2.3269  2.6946
  595MOL0     H78528   7.388   4.600  10.872 -0.8902  0.9505  2.8278
  595MOL0     H78529   7.543   4.443  10.761  3.1846 -0.3782 -0.4633
  595MOL0     H78530   7.801   4.218  11.009 -1.9627  1.7451  0.1644
  595MOL0     H78531   7.931   4.310  10.951 -1.5611  0.6536  1.3464
  595MOL0     H78532   7.760   4.113  10.788  0.1033 -1.3478  1.5581
  595MOL0     H78533   7.895   4.185  10.721 -1.0042 -2.0089 -1.1561
  595MOL0     H78534   8.036   4.081  10.918  0.0233 -1.3584  2.9597
  595MOL0     H78535   7.975   3.978  10.787  1.1634  0.0282  0.4029
  595MOL0     H78536   7.831   4.006  11.052  0.6960  0.2791  1.6710
  595MOL0     H78537   7.792   3.882  10.933  0.1634  0.8799 -0.0586
  595MOL0     H78538   8.139   3.712  11.074  0.2937 -0.5162 -0.3559
  595MOL0     H78539   7.755   4.406  11.133 -0.8321  0.0044  1.6687
  595MOL0     H78540   7.601   4.564  11.241 -0.7431  4.8668 -0.9336
  596MOL0     O78541   7.533  11.164   5.967  0.6302  0.4157 -0.9871
  596MOL0     C78542   7.535  11.130   5.851 -0.0392  0.5330  0.4557
  596MOL0     O78543   7.434  11.088   5.768  0.2508 -0.6090 -0.6032
  596MOL0     C78544   7.305  11.080   5.818  0.2129  0.0077  0.6838
  596MOL0     C78545   7.249  11.122   5.938 -0.1347 -0.0493  0.1646
  596MOL0     C78546   7.117  11.100   5.971 -0.4841  0.5962  0.3829
  596MOL0     C78547   7.035  11.034   5.880 -0.0152  0.0164  0.5535
  596MOL0     O78548   6.906  11.001   5.906 -0.1096 -0.1982  0.1368
  596MOL0     C78549   6.842  11.055   6.025  0.0285  0.3329  0.1472
  596MOL0     C78550   6.699  11.001   6.039 -0.7835  0.7810  0.2427
  596MOL0     C78551   6.623  11.070   6.154 -0.0637 -0.2612 -0.0620
  596MOL0     C78552   6.479  11.009   6.174  0.5206 -0.8614  0.0973
  596MOL0     C78553   6.417  11.067   6.307 -0.0621 -0.3163  0.4095
  596MOL0     C78554   6.269  11.051   6.317  0.0674  0.3799 -0.5752
  596MOL0     C78555   6.211  11.184   6.375  0.0461 -0.1844 -0.0407
  596MOL0     C78556   6.079  11.159   6.449 -0.8081  0.2021  0.3452
  596MOL0     N78557   5.981  11.156   6.339  0.3442 -0.2868  0.4899
  596MOL0     C78558   5.925  11.046   6.284  0.0376  0.2274  1.0344
  596MOL0     C78559   5.810  11.081   6.219 -1.3834  0.6409 -0.5947
  596MOL0     C78560   5.720  10.982   6.147  0.0202 -0.1560 -0.1474
  596MOL0     C78561   5.572  10.984   6.188 -1.1266  0.3313 -0.5582
  596MOL0     C78562   5.565  10.951   6.339 -0.6417  0.0794  0.2293
  596MOL0     C78563   5.429  10.972   6.409 -0.1364  0.6961  0.0731
  596MOL0     O78564   5.358  10.863   6.360  0.3999 -0.1961  0.2494
  596MOL0     C78565   5.240  10.851   6.428 -0.1428  0.9056 -0.7831
  596MOL0     C78566   5.202  10.726   6.488 -0.4071 -0.9626 -0.1080
  596MOL0     C78567   5.081  10.696   6.549  0.3721 -0.0834  0.0291
  596MOL0     C78568   4.983  10.797   6.554 -0.7030 -0.0401  0.1166
  596MOL0     C78569   4.849  10.770   6.613  0.1019 -0.4011  0.4417
  596MOL0     O78570   4.783  10.885   6.633  0.6921 -0.8824 -0.3436
  596MOL0     C78571   4.654  10.869   6.670  0.1621  0.6552 -0.0691
  596MOL0     C78572   4.616  10.808   6.787  0.2702 -0.3095 -0.3334
  596MOL0     C78573   4.482  10.794   6.812  1.1927 -0.3349  0.3410
  596MOL0     C78574   4.376  10.830   6.716 -1.1709  0.3338  0.4813
  596MOL0     O78575   4.239  10.827   6.731 -0.7195 -0.0750  0.6314
  596MOL0     C78576   4.190  10.731   6.818 -0.4145  0.0417 -0.2706
  596MOL0     C78577   4.042  10.708   6.792 -0.2691 -0.4308 -0.3456
  596MOL0     C78578   3.960  10.821   6.846  0.1487 -0.2715  0.8640
  596MOL0     C78579   3.814  10.776   6.849 -0.6159 -0.7236  0.1907
  596MOL0     C78580   3.722  10.883   6.925 -0.4798 -0.3925  0.1529
  596MOL0     C78581   3.719  10.889   7.072 -0.5048 -0.3597  0.0872
  596MOL0     C78582   3.630  10.993   7.133  0.5677 -1.1139 -1.0077
  596MOL0     C78583   3.640  10.985   7.283 -0.6374 -0.0322 -0.2270
  596MOL0    Cl78584   3.555  10.829   7.326  0.4337 -0.0476 -0.3213
  596MOL0     C78585   4.415  10.901   6.607  0.0224  0.3178  0.4343
  596MOL0     C78586   4.555  10.918   6.589  0.2799 -0.1463  0.3715
  596MOL0     O78587   4.821  10.662   6.662 -0.3338  0.8134 -0.5866
  596MOL0     C78588   5.018  10.927   6.505  0.1876  0.2393  0.0971
  596MOL0     C78589   5.145  10.954   6.442  0.6839  0.3578 -0.5202
  596MOL0     N78590   5.789  11.218   6.250 -0.1064  0.5321 -0.0179
  596MOL0     N78591   5.906  11.264   6.293  0.0468  0.2395  0.6021
  596MOL0     C78592   7.088  10.994   5.755 -0.2158  0.4892 -0.1173
  596MOL0     C78593   7.221  11.017   5.728  0.1937  0.0096 -0.9504
  596MOL0     C78594   7.664  11.154   5.774  0.0332  0.1472 -0.2784
  596MOL0     C78595   7.789  11.162   5.842 -0.0350 -0.0529  0.3870
  596MOL0     C78596   7.907  11.178   5.763 -0.2444  0.8119 -1.1068
  596MOL0     C78597   7.902  11.161   5.621 -0.7274 -0.4536  0.9936
  596MOL0     O78598   8.006  11.146   5.532 -0.4081 -0.5927 -0.0512
  596MOL0     C78599   8.118  11.068   5.577 -0.4161  0.6244 -0.2915
  596MOL0     C78600   8.226  11.169   5.615 -0.3833  0.2093  0.2252
  596MOL0     C78601   8.312  11.210   5.495 -0.3270 -0.5682  0.1350
  596MOL0     C78602   8.387  11.339   5.518  0.1993  0.2804 -0.3175
  596MOL0     C78603   8.467  11.368   5.638 -0.2925  0.6480 -0.1039
  596MOL0     C78604   8.536  11.386   5.732 -0.1257 -0.1310  0.3532
  596MOL0     C78605   7.779  11.155   5.553 -0.8017 -0.0383  0.2615
  596MOL0     C78606   7.662  11.147   5.632  1.1049  0.4475  0.7631
  596MOL0     H78607   7.307  11.173   6.013  1.2655 -1.7184  0.2680
  596MOL0     H78608   7.090  11.131   6.071 -0.4491  2.4347 -0.1454
  596MOL0     H78609   6.832  11.163   6.016  0.4587  0.3157 -0.5679
  596MOL0     H78610   6.895  11.018   6.113  0.2312  0.1863 -0.0336
  596MOL0     H78611   6.700  10.894   6.061 -0.8529  0.0738 -2.7819
  596MOL0     H78612   6.630  11.016   5.955 -1.8152 -0.9435  0.7386
  596MOL0     H78613   6.619  11.176   6.130 -0.8115 -0.6706 -1.8994
  596MOL0     H78614   6.690  11.050   6.238  1.3763 -1.0430 -1.3252
  596MOL0     H78615   6.417  11.037   6.089  0.7379  1.4294  0.6325
  596MOL0     H78616   6.487  10.901   6.189 -0.0633 -0.7565  1.2763
  596MOL0     H78617   6.439  11.174   6.316 -1.8227  0.0315  1.1082
  596MOL0     H78618   6.471  11.012   6.385  2.2187  0.6812 -0.3983
  596MOL0     H78619   6.242  10.967   6.382  2.1513 -0.8411 -1.2045
  596MOL0     H78620   6.221  11.044   6.219 -0.9338  2.0626 -0.2364
  596MOL0     H78621   6.272  11.229   6.453 -1.9882  3.3021 -0.2312
  596MOL0     H78622   6.199  11.258   6.295 -1.0281 -0.4433 -0.1396
  596MOL0     H78623   6.060  11.241   6.519  3.1106  2.0558 -0.4724
  596MOL0     H78624   6.076  11.058   6.491  1.9686  0.0111  0.2590
  596MOL0     H78625   5.968  10.946   6.281  1.4205  0.7969  1.1721
  596MOL0     H78626   5.765  10.883   6.160  0.0115 -0.4562 -2.0975
  596MOL0     H78627   5.722  10.996   6.038 -3.8022 -2.1440 -0.6485
  596MOL0     H78628   5.514  10.914   6.128  1.8207  0.0874 -3.4112
  596MOL0     H78629   5.527  11.082   6.171 -0.7855  0.6202  0.1463
  596MOL0     H78630   5.593  10.846   6.353 -1.7490 -0.1857  0.5728
  596MOL0     H78631   5.632  11.016   6.396 -3.2998  3.2719  0.0540
  596MOL0     H78632   5.386  11.065   6.371 -2.3579 -0.5037 -0.5194
  596MOL0     H78633   5.434  10.960   6.517 -0.6143 -2.0277 -0.1460
  596MOL0     H78634   5.268  10.641   6.476  2.3499  0.6811  2.1451
  596MOL0     H78635   5.060  10.594   6.580  2.5621 -1.0755 -1.4537
  596MOL0     H78636   4.694  10.783   6.858  1.2353  1.2533 -0.7990
  596MOL0     H78637   4.444  10.756   6.906 -1.1929 -2.2328 -1.2352
  596MOL0     H78638   4.189  10.762   6.922 -2.0095  3.6456 -1.1905
  596MOL0     H78639   4.236  10.633   6.802 -2.2980 -1.1453  1.1538
  596MOL0     H78640   4.019  10.613   6.841  0.4318  0.3852  1.6828
  596MOL0     H78641   4.026  10.697   6.684  3.2781 -0.9624 -0.9426
  596MOL0     H78642   3.974  10.910   6.784 -0.6891 -0.8160 -0.1326
  596MOL0     H78643   3.999  10.860   6.940  1.1854 -0.4379  0.5131
  596MOL0     H78644   3.765  10.761   6.753 -3.8934  2.8184  1.0690
  596MOL0     H78645   3.801  10.681   6.900  0.3954 -0.2678  1.3692
  596MOL0     H78646   3.619  10.867   6.891 -0.1722 -0.1856 -0.9053
  596MOL0     H78647   3.756  10.981   6.891 -1.7928 -0.3439 -1.1395
  596MOL0     H78648   3.824  10.898   7.101  0.0697 -2.3035 -1.1859
  596MOL0     H78649   3.694  10.786   7.100  0.3597 -0.6085 -0.0146
  596MOL0     H78650   3.653  11.087   7.081 -0.6809  0.2409  0.7834
  596MOL0     H78651   3.526  10.977   7.103 -0.6582  2.8617  0.4292
  596MOL0     H78652   3.594  11.071   7.333  0.8805  0.6701  0.0218
  596MOL0     H78653   3.741  10.994   7.324 -0.7944  0.2672  0.0971
  596MOL0     H78654   4.341  10.947   6.543 -0.3367 -1.1111 -0.2188
  596MOL0     H78655   4.598  10.980   6.511  0.9878 -2.6540 -1.3575
  596MOL0     H78656   4.938  11.001   6.509  1.1078  1.6407 -3.4805
  596MOL0     H78657   5.160  11.047   6.388  1.2152  0.8645  0.4812
  596MOL0     H78658   7.023  10.939   5.687  0.8459 -0.2356 -0.5742
  596MOL0     H78659   7.260  10.977   5.635 -4.0652  1.0359 -3.4604
  596MOL0     H78660   7.789  11.164   5.950  1.1253 -0.9561  0.4322
  596MOL0     H78661   7.999  11.197   5.818 -0.2992  1.2959 -1.1759
  596MOL0     H78662   8.157  10.999   5.502  0.8410 -1.2523  1.9557
  596MOL0     H78663   8.086  11.005   5.661 -2.2701  1.2064 -0.5026
  596MOL0     H78664   8.174  11.249   5.669 -1.3813 -2.2328  3.2163
  596MOL0     H78665   8.290  11.127   5.693 -0.6839  2.0270  1.5187
  596MOL0     H78666   8.246  11.225   5.409 -0.7883  2.6748  0.9229
  596MOL0     H78667   8.391  11.141   5.463 -0.2295 -0.2706 -0.2687
  596MOL0     H78668   8.453  11.333   5.431  1.6682 -0.3399  0.7979
  596MOL0     H78669   8.312  11.417   5.499 -1.0069 -0.6246  0.5293
  596MOL0     H78670   8.607  11.403   5.810  1.9050  0.3456 -1.4830
  596MOL0     H78671   7.775  11.147   5.445  1.4135  2.1582 -0.0817
  596MOL0     H78672   7.569  11.124   5.583  1.4306 -0.1292  0.4056
  597MOL0     O78673   2.793   2.473   0.678  0.0270 -0.1973 -0.4493
  597MOL0     C78674   2.806   2.592   0.690 -0.0306 -0.1409 -0.1612
  597MOL0     O78675   2.711   2.682   0.729 -0.6383  0.3797 -0.1527
  597MOL0     C78676   2.598   2.639   0.782  0.4479  1.0466  0.7481
  597MOL0     C78677   2.478   2.700   0.734  0.2936  0.8899  0.1324
  597MOL0     C78678   2.352   2.658   0.783  0.2908 -0.0849 -0.3344
  597MOL0     C78679   2.357   2.548   0.870 -0.3282 -0.4468  1.0443
  597MOL0     O78680   2.252   2.504   0.932 -0.1248  0.0899 -0.5423
  597MOL0     C78681   2.124   2.549   0.899 -0.4530 -0.5314  0.6894
  597MOL0     C78682   2.021   2.469   0.990  0.3915 -0.1898  0.5193
  597MOL0     C78683   1.878   2.533   0.983 -0.0993  0.6671  0.2604
  597MOL0     C78684   1.802   2.517   0.848  0.2033 -0.6624 -0.1425
  597MOL0     C78685   1.661   2.567   0.861  0.7623 -0.0647  0.0751
  597MOL0     C78686   1.586   2.575   0.728  0.6306  0.1579  0.5221
  597MOL0     C78687   1.440   2.617   0.747  0.9698  0.1470  0.8886
  597MOL0     C78688   1.376   2.676   0.616 -0.1951 -0.1083 -0.1915
  597MOL0     N78689   1.341   2.822   0.635 -0.2728 -0.5363 -0.7957
  597MOL0     C78690   1.356   2.923   0.541  1.2684 -0.2002  0.2507
  597MOL0     C78691   1.294   3.038   0.593 -0.3158 -0.0947 -0.3076
  597MOL0     C78692   1.284   3.165   0.518 -0.2396 -0.4082 -1.1150
  597MOL0     C78693   1.419   3.235   0.493 -0.4522  0.3076  0.0675
  597MOL0     C78694   1.481   3.305   0.611  0.3505  0.4141  0.1099
  597MOL0     C78695   1.611   3.363   0.563 -0.5108  0.2902  0.1227
  597MOL0     O78696   1.682   3.413   0.678  0.7898 -0.1869 -0.4850
  597MOL0     C78697   1.814   3.385   0.682 -0.0588  0.0763 -0.7001
  597MOL0     C78698   1.891   3.328   0.580 -0.9762 -0.1272  0.6209
  597MOL0     C78699   2.023   3.304   0.598  0.0831  0.0658  0.2396
  597MOL0     C78700   2.089   3.319   0.724  0.1291  0.5608 -0.0048
  597MOL0     C78701   2.236   3.283   0.744  0.5061 -0.9000  0.1173
  597MOL0     O78702   2.271   3.240   0.867  0.0256 -0.2029 -0.5243
  597MOL0     C78703   2.387   3.182   0.895 -0.4246  0.1605  0.2229
  597MOL0     C78704   2.504   3.262   0.898 -0.4511  0.3391  0.0641
  597MOL0     C78705   2.622   3.203   0.927 -0.0717 -0.3346 -0.2242
  597MOL0     C78706   2.639   3.061   0.945  0.6521  0.3145  0.7412
  597MOL0     O78707   2.767   3.006   0.971  0.1229  0.0843 -0.0660
  597MOL0     C78708   2.780   2.876   1.029 -0.3210  0.1564  0.5922
  597MOL0     C78709   2.927   2.845   1.038  0.8311 -0.8814  0.0794
  597MOL0     C78710   2.950   2.694   1.038 -0.0933 -0.6182 -0.1611
  597MOL0     C78711   3.102   2.667   1.035  0.8164  0.3292 -0.1376
  597MOL0     C78712   3.122   2.526   1.008  0.3344  0.2813 -0.2034
  597MOL0     C78713   3.266   2.473   1.015  0.1731  0.1864 -1.0510
  597MOL0     C78714   3.354   2.533   0.909  0.2728  0.1912  0.2971
  597MOL0     C78715   3.499   2.530   0.963 -0.0486 -0.8421 -0.6619
  597MOL0    Cl78716   3.524   2.651   1.085 -0.0429 -0.2931  0.3634
  597MOL0     C78717   2.513   2.981   0.935  0.4050 -0.0464 -0.3314
  597MOL0     C78718   2.389   3.041   0.912  0.1972  0.0103  0.4043
  597MOL0     O78719   2.306   3.282   0.644  0.3024 -0.5702 -0.0379
  597MOL0     C78720   2.017   3.379   0.829  0.1874  0.2021  0.6395
  597MOL0     C78721   1.881   3.407   0.803 -0.1927 -0.6947 -0.8545
  597MOL0     N78722   1.236   3.004   0.714 -0.0261  0.3111  0.5396
  597MOL0     N78723   1.266   2.872   0.737  0.1486 -0.1567 -0.2989
  597MOL0     C78724   2.471   2.496   0.917 -0.5335  0.2894  0.2260
  597MOL0     C78725   2.590   2.543   0.874 -0.1228 -0.2006  0.1703
  597MOL0     C78726   2.948   2.638   0.675  0.3619 -0.3513  0.1220
  597MOL0     C78727   3.053   2.551   0.630 -0.0524 -0.9585  0.8284
  597MOL0     C78728   3.188   2.589   0.618 -0.1430 -0.3355  0.2369
  597MOL0     C78729   3.218   2.732   0.623  0.2150  0.6436  0.4186
  597MOL0     O78730   3.337   2.780   0.600 -0.0218 -0.2302  0.1418
  597MOL0     C78731   3.449   2.696   0.574  0.5646  0.1675  0.0582
  597MOL0     C78732   3.571   2.771   0.571  0.3502 -0.5089  0.7145
  597MOL0     C78733   3.555   2.903   0.484 -0.5560 -0.4959  0.3838
  597MOL0     C78734   3.689   2.986   0.497 -0.5662  0.3889 -0.0116
  597MOL0     C78735   3.678   3.102   0.408  0.0081 -0.1463 -0.9033
  597MOL0     C78736   3.667   3.184   0.327 -0.1717 -0.1493  0.3789
  597MOL0     C78737   3.105   2.813   0.634 -0.3340 -1.0674 -0.0610
  597MOL0     C78738   2.972   2.772   0.679  0.2080 -0.1150  0.3646
  597MOL0     H78739   2.487   2.782   0.664 -1.9874  0.6891 -0.4905
  597MOL0     H78740   2.262   2.706   0.746 -1.3428 -2.5232  0.2541
  597MOL0     H78741   2.103   2.537   0.792  2.4651 -1.0891  0.0852
  597MOL0     H78742   2.124   2.655   0.926 -0.4022 -0.1494 -0.7320
  597MOL0     H78743   2.059   2.467   1.093 -0.9954 -0.4210  1.0570
  597MOL0     H78744   2.015   2.367   0.952  2.7314  0.0607 -0.6725
  597MOL0     H78745   1.880   2.640   1.004 -2.2523  0.8642 -0.2357
  597MOL0     H78746   1.822   2.482   1.063 -0.4533 -0.2129 -0.5340
  597MOL0     H78747   1.849   2.581   0.773  0.4960 -1.0276 -0.2742
  597MOL0     H78748   1.797   2.418   0.801 -1.0297  0.1331 -1.7995
  597MOL0     H78749   1.649   2.665   0.907 -0.4119  0.3988 -1.1519
  597MOL0     H78750   1.606   2.499   0.927 -0.4429  1.5169  0.7663
  597MOL0     H78751   1.599   2.487   0.665 -0.8503  1.1087 -1.2007
  597MOL0     H78752   1.641   2.659   0.684 -0.8478  1.8497  1.7314
  597MOL0     H78753   1.384   2.528   0.777  0.2468  0.8128  1.5413
  597MOL0     H78754   1.433   2.688   0.829 -2.9847 -0.4060  1.2336
  597MOL0     H78755   1.282   2.624   0.592 -0.9676  0.6488  1.0875
  597MOL0     H78756   1.447   2.663   0.535 -2.8544 -1.2437 -2.5260
  597MOL0     H78757   1.397   2.911   0.442  0.3069 -0.7201 -0.0941
  597MOL0     H78758   1.210   3.232   0.564  0.1189 -2.4550  2.8557
  597MOL0     H78759   1.254   3.139   0.416  0.3561  0.4050 -1.5021
  597MOL0     H78760   1.411   3.313   0.417  2.1711 -0.2112 -0.8392
  597MOL0     H78761   1.483   3.156   0.453  1.1788  2.7657 -2.4586
  597MOL0     H78762   1.416   3.385   0.647 -0.9877 -0.7853  0.4385
  597MOL0     H78763   1.496   3.223   0.682  0.9269  1.1258  0.8308
  597MOL0     H78764   1.598   3.447   0.494 -1.2723 -0.6476 -0.9119
  597MOL0     H78765   1.659   3.277   0.515 -0.7707 -0.8482  1.8348
  597MOL0     H78766   1.867   3.333   0.474 -0.8733 -2.0221  0.4752
  597MOL0     H78767   2.083   3.280   0.510 -4.2112  2.0580 -3.6953
  597MOL0     H78768   2.501   3.368   0.876 -1.5883  0.2603 -0.2558
  597MOL0     H78769   2.715   3.258   0.938  0.0441 -0.6645  0.5515
  597MOL0     H78770   2.724   2.806   0.966 -0.1795  1.4296 -1.0056
  597MOL0     H78771   2.735   2.868   1.129 -1.6477  1.5394  0.1385
  597MOL0     H78772   2.975   2.889   1.126 -1.5455  3.7932 -0.6551
  597MOL0     H78773   2.969   2.888   0.946  1.8286 -1.8167  0.0779
  597MOL0     H78774   2.899   2.649   0.952 -1.3125 -0.0081  0.2255
  597MOL0     H78775   2.904   2.651   1.128  1.3903  0.2734  1.0688
  597MOL0     H78776   3.134   2.724   0.947 -1.4580  0.9220 -0.6266
  597MOL0     H78777   3.163   2.701   1.119  0.6724  0.3728 -0.0517
  597MOL0     H78778   3.089   2.512   0.905 -0.7787  2.8166 -0.2642
  597MOL0     H78779   3.059   2.471   1.080 -0.8526  1.6760 -0.1189
  597MOL0     H78780   3.258   2.365   1.002 -0.6487 -0.0292  0.9410
  597MOL0     H78781   3.297   2.484   1.119  0.3202 -3.8007 -0.5295
  597MOL0     H78782   3.349   2.466   0.823 -0.3702 -0.4901  0.8577
  597MOL0     H78783   3.316   2.633   0.882 -2.8863 -0.6260  1.2219
  597MOL0     H78784   3.574   2.548   0.884  2.2876 -0.3603  1.5275
  597MOL0     H78785   3.517   2.438   1.018  0.0072 -0.2758  0.2912
  597MOL0     H78786   2.524   2.874   0.951  1.0533  0.2840  1.7275
  597MOL0     H78787   2.297   2.983   0.911  0.3084 -0.2498  2.2223
  597MOL0     H78788   2.060   3.378   0.929 -0.7621 -0.1719  1.0496
  597MOL0     H78789   1.818   3.444   0.884 -0.2561 -1.5017 -0.5258
  597MOL0     H78790   2.456   2.440   1.009 -4.3814 -0.2210 -0.5392
  597MOL0     H78791   2.679   2.517   0.930 -1.4470  0.4189  2.6985
  597MOL0     H78792   3.020   2.448   0.619 -3.0915  0.0668 -0.9487
  597MOL0     H78793   3.261   2.509   0.610  1.3861  0.7199  2.5716
  597MOL0     H78794   3.429   2.648   0.478 -0.8562  0.8842 -0.0293
  597MOL0     H78795   3.465   2.620   0.651  1.6335  1.4292  1.1285
  597MOL0     H78796   3.590   2.814   0.670 -0.4326 -0.3014  0.7770
  597MOL0     H78797   3.657   2.713   0.537  1.6318  1.8033 -0.1878
  597MOL0     H78798   3.472   2.966   0.518  0.4401  2.1305 -1.6456
  597MOL0     H78799   3.537   2.872   0.380  0.4485  3.2838 -1.0907
  597MOL0     H78800   3.714   3.009   0.601  0.1272  0.2461 -0.1409
  597MOL0     H78801   3.770   2.925   0.455  0.7090  1.7127  0.4410
  597MOL0     H78802   3.657   3.251   0.244  0.9032  0.8477  1.0161
  597MOL0     H78803   3.126   2.920   0.632 -1.7314 -0.7773  0.1189
  597MOL0     H78804   2.899   2.844   0.713  0.8825 -0.2486  2.2293
  598MOL0     O78805   9.749   7.665   8.646  0.2053 -0.1152 -0.0746
  598MOL0     C78806   9.815   7.573   8.599 -0.1185 -0.3628  0.2290
  598MOL0     O78807   9.778   7.448   8.580 -0.4264 -0.2745 -0.1302
  598MOL0     C78808   9.653   7.405   8.638 -0.0155 -0.5169 -0.6906
  598MOL0     C78809   9.535   7.404   8.564  0.8728  0.1493 -0.4500
  598MOL0     C78810   9.421   7.331   8.611  0.6859  0.0282  0.5053
  598MOL0     C78811   9.432   7.260   8.730  0.3197 -0.6839  0.0835
  598MOL0     O78812   9.324   7.187   8.763  0.2332  0.3703  0.2143
  598MOL0     C78813   9.330   7.105   8.872  0.6444  0.0179  0.1996
  598MOL0     C78814   9.193   7.030   8.871  0.4131 -0.2419  0.1874
  598MOL0     C78815   9.146   6.953   8.739 -0.0428 -0.2341 -0.3241
  598MOL0     C78816   8.988   6.940   8.753  0.4781 -0.0393 -0.3608
  598MOL0     C78817   8.905   6.868   8.639  0.7756  0.8015  0.0589
  598MOL0     C78818   8.971   6.881   8.507 -0.1717 -0.6524  0.0815
  598MOL0     C78819   8.903   6.807   8.384  0.1119 -0.3312 -0.0170
  598MOL0     C78820   8.973   6.838   8.252  0.1817 -0.3041 -0.4289
  598MOL0     N78821   8.914   6.749   8.157 -0.1904 -0.2582  0.3833
  598MOL0     C78822   8.804   6.774   8.073  0.0159  0.1589 -0.1676
  598MOL0     C78823   8.793   6.668   7.996  0.4360  0.7032  0.0549
  598MOL0     C78824   8.691   6.647   7.884 -0.2621 -0.1961 -0.5681
  598MOL0     C78825   8.754   6.643   7.746 -0.6463 -0.1051  0.3698
  598MOL0     C78826   8.659   6.594   7.633 -0.2822  0.1741 -0.1125
  598MOL0     C78827   8.640   6.443   7.650  0.1481  0.5317  0.0290
  598MOL0     O78828   8.613   6.398   7.515  0.2643  0.4599 -0.4725
  598MOL0     C78829   8.518   6.299   7.518 -0.2076  0.0625 -0.0006
  598MOL0     C78830   8.398   6.319   7.446 -0.8707  0.8774  0.1633
  598MOL0     C78831   8.301   6.221   7.445 -0.4201  0.5383 -0.6707
  598MOL0     C78832   8.322   6.101   7.518  0.3150 -0.6506  0.9998
  598MOL0     C78833   8.221   5.990   7.525 -0.4496 -0.4040  0.5242
  598MOL0     O78834   8.127   5.979   7.425 -0.8114 -0.1840 -0.1470
  598MOL0     C78835   8.030   5.899   7.457  0.4636  0.0435  0.2486
  598MOL0     C78836   7.917   5.930   7.528 -0.2224 -0.2076 -0.2808
  598MOL0     C78837   7.819   5.834   7.559 -0.3220  0.0477 -0.0201
  598MOL0     C78838   7.826   5.706   7.497  0.3442 -0.5196 -0.9733
  598MOL0     O78839   7.732   5.612   7.522  0.5372 -0.0536 -0.3766
  598MOL0     C78840   7.650   5.618   7.637  0.7583  0.5134  0.3982
  598MOL0     C78841   7.600   5.473   7.657 -0.1052 -0.6793 -0.0751
  598MOL0     C78842   7.500   5.472   7.772  0.4349  0.4612 -0.2239
  598MOL0     C78843   7.447   5.325   7.788 -0.9740  0.2462  0.2963
  598MOL0     C78844   7.340   5.315   7.898  0.4827 -0.0634 -0.5029
  598MOL0     C78845   7.274   5.177   7.897  0.1902  0.3228 -0.6461
  598MOL0     C78846   7.185   5.142   8.010 -0.2853 -0.5636  0.8374
  598MOL0     C78847   7.058   5.220   8.022 -0.3203 -0.1390  0.2329
  598MOL0    Cl78848   6.957   5.149   7.904 -0.0298  0.1178  0.1775
  598MOL0     C78849   7.935   5.680   7.415 -0.0545 -0.3154  0.1322
  598MOL0     C78850   8.029   5.777   7.392 -1.0153  0.6501  0.0350
  598MOL0     O78851   8.226   5.922   7.627 -0.1072 -0.0429  0.0880
  598MOL0     C78852   8.443   6.081   7.589  0.8624 -0.2073 -0.7695
  598MOL0     C78853   8.545   6.179   7.580  0.8218 -0.0143 -0.3306
  598MOL0     N78854   8.903   6.587   8.017  0.7050  0.0082  0.3023
  598MOL0     N78855   8.974   6.635   8.109  0.3294  0.3990 -0.1937
  598MOL0     C78856   9.542   7.277   8.816  0.2527 -0.0972 -0.2727
  598MOL0     C78857   9.660   7.344   8.765  0.0114  0.3349 -0.4943
  598MOL0     C78858   9.946   7.610   8.551  0.0355 -0.7124  0.6475
  598MOL0     C78859  10.013   7.517   8.473 -0.8352  0.2872  0.4829
  598MOL0     C78860  10.147   7.548   8.425  0.5030  0.6966  0.1083
  598MOL0     C78861  10.205   7.669   8.448  0.6825  0.7570 -0.8760
  598MOL0     O78862  10.328   7.712   8.392 -0.0839 -0.2736 -0.0945
  598MOL0     C78863  10.432   7.612   8.398 -1.1006 -0.9370  0.1364
  598MOL0     C78864  10.543   7.670   8.310 -0.0692 -0.4628  0.1709
  598MOL0     C78865  10.622   7.552   8.235 -0.2815 -0.4411 -0.1468
  598MOL0     C78866  10.751   7.602   8.166 -0.1145 -0.6178 -0.4735
  598MOL0     C78867  10.828   7.486   8.127 -0.0296 -0.2989  0.6574
  598MOL0     C78868  10.895   7.393   8.097 -0.1547  0.1704 -0.0010
  598MOL0     C78869  10.122   7.768   8.502 -0.4609 -0.0793 -0.2769
  598MOL0     C78870  10.001   7.737   8.562  0.0956  0.0942  1.0708
  598MOL0     H78871   9.537   7.452   8.466  0.4079  0.9396 -0.0837
  598MOL0     H78872   9.332   7.316   8.552 -0.3374 -2.4339  2.4833
  598MOL0     H78873   9.340   7.150   8.971  1.3267  0.9351 -0.2780
  598MOL0     H78874   9.410   7.031   8.862 -0.1794 -1.1774  1.9066
  598MOL0     H78875   9.122   7.105   8.906  1.1764  0.1686  0.9104
  598MOL0     H78876   9.203   6.957   8.952 -1.9464 -2.7748 -1.5989
  598MOL0     H78877   9.169   6.846   8.726 -0.4709 -0.2321 -1.1530
  598MOL0     H78878   9.180   6.998   8.646  0.9728 -1.2805 -0.4884
  598MOL0     H78879   8.958   6.896   8.849 -3.3393  2.6539 -0.1053
  598MOL0     H78880   8.946   7.041   8.748 -0.6247 -0.5316 -1.9991
  598MOL0     H78881   8.809   6.920   8.645 -0.7489 -1.9520  2.3025
  598MOL0     H78882   8.895   6.761   8.661 -0.4005  1.0408  0.8006
  598MOL0     H78883   9.076   6.849   8.513  0.1442  0.2370 -0.5183
  598MOL0     H78884   8.968   6.988   8.488 -1.5553 -0.7401 -0.2981
  598MOL0     H78885   8.900   6.699   8.403 -2.5094  0.2532  3.8525
  598MOL0     H78886   8.799   6.836   8.365 -0.3553 -1.7240  0.3057
  598MOL0     H78887   9.079   6.819   8.270 -0.0527 -0.5226  0.8787
  598MOL0     H78888   8.959   6.944   8.229 -1.3139 -0.3444  0.1916
  598MOL0     H78889   8.732   6.855   8.070 -0.1142  0.0190 -1.1034
  598MOL0     H78890   8.608   6.717   7.876  0.7183  1.1368  0.4748
  598MOL0     H78891   8.657   6.544   7.902 -1.9789  0.4781  0.1912
  598MOL0     H78892   8.840   6.576   7.743 -0.4753  0.1328 -0.8724
  598MOL0     H78893   8.796   6.743   7.728 -0.5831 -0.4857 -1.8954
  598MOL0     H78894   8.564   6.645   7.651  0.5192  1.5663  0.3455
  598MOL0     H78895   8.709   6.615   7.537 -1.4919  0.1609 -0.7591
  598MOL0     H78896   8.561   6.442   7.726  2.1263  1.8947  2.2504
  598MOL0     H78897   8.735   6.406   7.691 -0.9148 -5.0169 -1.6392
  598MOL0     H78898   8.398   6.409   7.384 -1.7427 -0.0553 -1.2549
  598MOL0     H78899   8.218   6.227   7.375  0.6901 -0.3842 -2.1075
  598MOL0     H78900   7.917   6.022   7.586  1.9403  0.1872 -0.8144
  598MOL0     H78901   7.749   5.862   7.637 -1.0260 -0.5473 -0.4165
  598MOL0     H78902   7.567   5.684   7.607  0.1585  1.1364  3.1504
  598MOL0     H78903   7.698   5.654   7.728  0.0761  0.3116  0.8511
  598MOL0     H78904   7.685   5.411   7.685 -0.1868 -0.8511 -0.2110
  598MOL0     H78905   7.560   5.433   7.563  0.3167 -0.7054 -0.2456
  598MOL0     H78906   7.417   5.541   7.757  2.2994  2.2234 -3.8492
  598MOL0     H78907   7.554   5.498   7.863 -0.0797  1.6783 -0.2579
  598MOL0     H78908   7.394   5.285   7.701 -0.8736  1.3349 -0.2922
  598MOL0     H78909   7.539   5.267   7.804  1.2320  2.7712 -2.0797
  598MOL0     H78910   7.262   5.391   7.884  0.6455 -0.0146 -1.1736
  598MOL0     H78911   7.400   5.339   7.986 -0.2832  0.3140 -0.0713
  598MOL0     H78912   7.349   5.098   7.887 -1.3903 -1.2509 -0.4887
  598MOL0     H78913   7.209   5.172   7.809 -0.4211  0.5896 -0.2178
  598MOL0     H78914   7.160   5.036   8.002  1.5944 -1.1299  1.7641
  598MOL0     H78915   7.240   5.149   8.104  0.9885  0.1682  0.0666
  598MOL0     H78916   7.075   5.324   7.991 -0.1791 -0.3079 -0.2590
  598MOL0     H78917   7.004   5.223   8.117  1.8137 -0.5036  1.5185
  598MOL0     H78918   7.946   5.581   7.372  0.7189  0.1694 -0.8449
  598MOL0     H78919   8.111   5.744   7.329 -1.8797  0.6977 -1.1274
  598MOL0     H78920   8.465   5.990   7.644 -1.7572 -0.7194 -0.4143
  598MOL0     H78921   8.643   6.162   7.624  1.8774  0.9551 -2.1961
  598MOL0     H78922   9.536   7.229   8.913 -3.5981 -0.4087 -0.5210
  598MOL0     H78923   9.741   7.351   8.837 -2.2199  3.1847  1.9581
  598MOL0     H78924   9.973   7.424   8.435 -2.1849  0.7669  0.6442
  598MOL0     H78925  10.191   7.457   8.387 -1.9721 -0.5316 -0.0591
  598MOL0     H78926  10.396   7.519   8.354  2.1241 -1.7483 -1.0964
  598MOL0     H78927  10.464   7.598   8.501 -3.9359  1.8101  1.5699
  598MOL0     H78928  10.492   7.737   8.240 -0.2955  2.3924  2.8531
  598MOL0     H78929  10.605   7.736   8.371  0.0319 -0.6617  0.2837
  598MOL0     H78930  10.547   7.508   8.169 -3.5362 -0.4184  3.2133
  598MOL0     H78931  10.652   7.477   8.309  3.3053 -0.8700 -1.7879
  598MOL0     H78932  10.720   7.667   8.084 -2.8745  0.0502  0.9569
  598MOL0     H78933  10.810   7.658   8.240 -0.6047  0.6992 -1.0432
  598MOL0     H78934  10.958   7.310   8.071  0.7284  1.4360 -2.1478
  598MOL0     H78935  10.159   7.869   8.515 -0.2511 -0.2355  0.3476
  598MOL0     H78936   9.946   7.812   8.618 -1.5827 -1.4489  1.5765
  599MOL0     O78937   8.489   9.789   4.506 -0.8997 -0.3786  0.2188
  599MOL0     C78938   8.421   9.885   4.470  0.4976  1.0612  0.0457
  599MOL0     O78939   8.454  10.015   4.473 -1.0395  0.2752  0.0411
  599MOL0     C78940   8.585  10.044   4.509 -0.2754  0.1531 -0.1719
  599MOL0     C78941   8.692  10.052   4.432 -1.3391 -0.7728  0.5318
  599MOL0     C78942   8.822  10.090   4.482 -0.4423 -1.0473  0.3244
  599MOL0     C78943   8.849  10.102   4.620  0.8391  0.5155 -0.1133
  599MOL0     O78944   8.972  10.143   4.675  1.0102  1.1520 -0.0038
  599MOL0     C78945   9.034  10.240   4.593  0.3826  0.1512 -0.2138
  599MOL0     C78946   9.181  10.238   4.629  0.5929 -0.6708 -0.8666
  599MOL0     C78947   9.253  10.119   4.555  0.4011 -0.3178 -0.0942
  599MOL0     C78948   9.277  10.145   4.399 -0.3216  0.0618  0.2492
  599MOL0     C78949   9.382  10.033   4.345  0.3810  0.1271 -0.6214
  599MOL0     C78950   9.398  10.081   4.202 -0.0422 -0.1058  0.5333
  599MOL0     C78951   9.534  10.031   4.142 -0.6202  0.3611  0.4411
  599MOL0     C78952   9.563  10.099   4.008  0.8516  0.4190  0.1194
  599MOL0     N78953   9.573  10.240   4.030  0.4421 -0.1591 -0.0202
  599MOL0     C78954   9.482  10.337   3.986  0.1845 -0.1270 -0.1664
  599MOL0     C78955   9.526  10.453   4.041  1.0127 -0.2366  0.6995
  599MOL0     C78956   9.456  10.590   4.031 -0.4447 -0.6225 -0.1062
  599MOL0     C78957   9.385  10.623   4.170  0.1401 -0.4997 -0.3453
  599MOL0     C78958   9.292  10.520   4.227  0.2302 -0.1561 -0.5449
  599MOL0     C78959   9.156  10.512   4.162  0.3189  0.1130 -0.1904
  599MOL0     O78960   9.059  10.481   4.261  0.2773 -0.0128 -0.2522
  599MOL0     C78961   8.930  10.452   4.222  1.0845 -0.2640 -0.0819
  599MOL0     C78962   8.842  10.422   4.328  0.1041  0.0428 -0.6777
  599MOL0     C78963   8.707  10.384   4.305 -0.2970 -0.2068 -0.4454
  599MOL0     C78964   8.664  10.379   4.173 -0.0470  0.0730  0.0053
  599MOL0     C78965   8.523  10.341   4.148  0.9730  0.0346 -0.2090
  599MOL0     O78966   8.442  10.319   4.261 -0.2049  0.1334  0.4219
  599MOL0     C78967   8.313  10.280   4.230  0.7329 -0.7815  0.9026
  599MOL0     C78968   8.220  10.379   4.269 -0.1440 -0.6637  0.4468
  599MOL0     C78969   8.084  10.344   4.268  0.4560  0.4164 -0.5828
  599MOL0     C78970   8.039  10.225   4.212  0.3217 -0.2682  0.0692
  599MOL0     O78971   7.898  10.202   4.203 -0.3327 -0.4312 -0.0970
  599MOL0     C78972   7.858  10.079   4.144  0.3501 -0.7034 -0.1427
  599MOL0     C78973   7.709  10.046   4.198  0.0479 -0.9665 -0.9428
  599MOL0     C78974   7.594  10.127   4.133 -0.5534  0.0960 -0.2861
  599MOL0     C78975   7.459  10.106   4.210 -0.1083  0.1230  0.0272
  599MOL0     C78976   7.350  10.172   4.128 -0.0617 -0.4805 -1.0845
  599MOL0     C78977   7.209  10.160   4.194 -0.9696  0.3693 -0.3237
  599MOL0     C78978   7.129  10.028   4.156  0.8469 -0.4348 -1.2492
  599MOL0     C78979   7.015   9.999   4.252 -0.1112  0.5316 -0.1615
  599MOL0    Cl78980   6.887  10.130   4.253 -0.1736  0.0472  0.4301
  599MOL0     C78981   8.134  10.130   4.172 -0.4344  0.2573 -1.1176
  599MOL0     C78982   8.274  10.150   4.192 -0.3123 -1.3014  0.3750
  599MOL0     O78983   8.492  10.326   4.029 -0.1695  0.3121 -0.2879
  599MOL0     C78984   8.756  10.406   4.068  0.5516 -0.3609  0.0843
  599MOL0     C78985   8.887  10.449   4.091 -0.2184  0.2506 -0.0346
  599MOL0     N78986   9.649  10.435   4.101 -1.0034  0.5924 -0.8376
  599MOL0     N78987   9.673  10.308   4.098  0.1759  0.2370  0.0370
  599MOL0     C78988   8.737  10.088   4.700 -0.3688  0.0588 -0.5236
  599MOL0     C78989   8.608  10.068   4.650 -0.3473  0.1256 -0.0844
  599MOL0     C78990   8.282   9.840   4.434 -0.2970 -0.8207 -0.4744
  599MOL0     C78991   8.176   9.931   4.442 -0.4688 -1.1324  0.9205
  599MOL0     C78992   8.048   9.896   4.390  0.1208  1.1793 -0.1410
  599MOL0     C78993   8.024   9.769   4.346  0.6467 -0.0511 -0.1611
  599MOL0     O78994   7.902   9.736   4.296 -1.2512  0.2346  0.4998
  599MOL0     C78995   7.871   9.600   4.266 -0.0306 -0.1321 -0.0741
  599MOL0     C78996   7.724   9.607   4.225  0.7289 -0.6831  0.5047
  599MOL0     C78997   7.626   9.643   4.340 -0.4229  0.4182  0.8137
  599MOL0     C78998   7.476   9.644   4.290  0.3324 -0.6968  0.1782
  599MOL0     C78999   7.401   9.742   4.366 -0.1597 -0.6482  0.0518
  599MOL0     C79000   7.336   9.831   4.417  0.3086  1.0408  0.4873
  599MOL0     C79001   8.127   9.681   4.347 -0.5758 -0.5796 -0.2191
  599MOL0     C79002   8.255   9.709   4.385 -0.4267  0.4522  0.1887
  599MOL0     H79003   8.690  10.046   4.324  1.7027 -1.5122  0.4355
  599MOL0     H79004   8.900  10.105   4.408 -0.2580  1.1864  0.9024
  599MOL0     H79005   8.989  10.337   4.617  1.8018  0.6253  0.6949
  599MOL0     H79006   9.035  10.217   4.486  0.5788 -0.5192 -0.0728
  599MOL0     H79007   9.192  10.226   4.737 -3.7938 -1.6305 -0.3213
  599MOL0     H79008   9.216  10.336   4.595 -1.8241  0.2085 -1.0283
  599MOL0     H79009   9.204  10.024   4.578  0.9766 -0.8615 -1.0559
  599MOL0     H79010   9.354  10.114   4.599  0.2619 -0.0776  0.2593
  599MOL0     H79011   9.185  10.160   4.342  0.3600  2.5645 -0.2910
  599MOL0     H79012   9.323  10.244   4.402 -0.9234  0.3350  1.6921
  599MOL0     H79013   9.339   9.932   4.347 -0.8273  0.6190 -0.6144
  599MOL0     H79014   9.475  10.035   4.401  0.6155 -0.2667 -0.9888
  599MOL0     H79015   9.406  10.190   4.204  2.9100 -0.1516 -1.5552
  599MOL0     H79016   9.307  10.057   4.146  1.0511 -1.8594 -0.6414
  599MOL0     H79017   9.607  10.063   4.217 -0.5153  1.4295 -0.0930
  599MOL0     H79018   9.529   9.923   4.131 -2.6532  0.6424 -2.9649
  599MOL0     H79019   9.473  10.083   3.948 -0.4081  1.6241  1.5919
  599MOL0     H79020   9.649  10.058   3.955  0.5837  0.4772 -0.3626
  599MOL0     H79021   9.391  10.307   3.935  0.2288 -0.6682  0.0600
  599MOL0     H79022   9.385  10.599   3.949 -1.5616 -1.5976  0.7069
  599MOL0     H79023   9.533  10.668   4.026  0.0974 -1.1697 -0.4604
  599MOL0     H79024   9.323  10.712   4.155 -0.2455 -0.9421 -1.4706
  599MOL0     H79025   9.458  10.643   4.249  0.8812 -0.6605 -0.9831
  599MOL0     H79026   9.350  10.428   4.223  1.6976  0.7578 -1.1257
  599MOL0     H79027   9.264  10.541   4.331  0.1292 -4.1033  0.3624
  599MOL0     H79028   9.144  10.425   4.097 -3.5905  0.3955 -0.0876
  599MOL0     H79029   9.127  10.600   4.105 -0.1553 -0.2670 -0.5467
  599MOL0     H79030   8.882  10.439   4.427  2.1761  1.0669 -1.6338
  599MOL0     H79031   8.638  10.372   4.388 -1.2222 -2.0162 -1.4095
  599MOL0     H79032   8.265  10.471   4.304 -0.2962 -0.8040  1.0158
  599MOL0     H79033   8.010  10.420   4.291  0.6502  0.4604 -0.1095
  599MOL0     H79034   7.925   9.997   4.170 -0.7765 -2.3324 -2.0435
  599MOL0     H79035   7.846  10.087   4.035 -1.2567  1.5712  0.1322
  599MOL0     H79036   7.723  10.055   4.306  1.6792 -4.5335 -0.6996
  599MOL0     H79037   7.688   9.939   4.188 -1.3677 -0.7811 -0.2348
  599MOL0     H79038   7.579  10.100   4.027 -0.5230  0.9186 -0.5048
  599MOL0     H79039   7.614  10.233   4.144  1.3864 -0.2785  0.1582
  599MOL0     H79040   7.424  10.003   4.220 -4.0772  1.1560 -1.4801
  599MOL0     H79041   7.472  10.151   4.309  1.3950  1.4422 -0.7208
  599MOL0     H79042   7.345  10.141   4.023  0.9516 -0.6277 -1.0976
  599MOL0     H79043   7.360  10.281   4.135 -0.2957 -0.5578  1.6927
  599MOL0     H79044   7.152  10.252   4.181 -0.0098  0.8188 -1.5112
  599MOL0     H79045   7.231  10.154   4.301 -1.4510 -1.5663 -0.3032
  599MOL0     H79046   7.092  10.023   4.053 -0.4580  2.9939 -1.0575
  599MOL0     H79047   7.197   9.943   4.166 -0.3155 -1.2441  0.2748
  599MOL0     H79048   7.053   9.990   4.355  0.7790 -1.9363 -0.6527
  599MOL0     H79049   6.961   9.906   4.231 -1.9812  1.5664 -0.2173
  599MOL0     H79050   8.105  10.030   4.141 -0.1368 -1.1679  2.6010
  599MOL0     H79051   8.354  10.080   4.170  0.5790 -0.4826  0.9247
  599MOL0     H79052   8.722  10.393   3.966 -1.5514 -2.8245  0.9919
  599MOL0     H79053   8.955  10.475   4.011 -0.4613 -2.9223 -1.4385
  599MOL0     H79054   8.754  10.095   4.807 -1.0013  0.2702 -0.4335
  599MOL0     H79055   8.521  10.061   4.714  1.6760 -1.7796  2.7538
  599MOL0     H79056   8.196  10.036   4.462  0.2008 -1.3414  1.3818
  599MOL0     H79057   7.965   9.965   4.390 -2.6493 -1.8765  1.2487
  599MOL0     H79058   7.865   9.532   4.352 -3.2480  0.0816  0.0047
  599MOL0     H79059   7.929   9.561   4.183  0.2957 -0.5025  0.3203
  599MOL0     H79060   7.703   9.665   4.135 -0.1386 -0.5048  0.8108
  599MOL0     H79061   7.704   9.505   4.192  2.8933 -1.0535  0.2114
  599MOL0     H79062   7.660   9.736   4.385 -2.3743  0.8056  1.6114
  599MOL0     H79063   7.627   9.572   4.424  2.1537  1.5165  1.8087
  599MOL0     H79064   7.460   9.658   4.183 -1.4233 -1.1597  0.3536
  599MOL0     H79065   7.439   9.541   4.300  1.6197 -1.3542 -1.3806
  599MOL0     H79066   7.271   9.899   4.469 -1.2386  0.3064 -0.4397
  599MOL0     H79067   8.127   9.576   4.319 -0.1779  0.0649 -2.9206
  599MOL0     H79068   8.335   9.636   4.387 -0.6748  0.1928  1.3840
  600MOL0     O79069   0.313  11.012   9.772 -0.7799 -0.3985 -0.6184
  600MOL0     C79070   0.362  11.037   9.661 -0.1632 -0.0399  0.8732
  600MOL0     O79071   0.294  11.033   9.543  0.2722 -0.2802 -0.4251
  600MOL0     C79072   0.160  11.071   9.541 -0.2636  0.6737  0.6417
  600MOL0     C79073   0.097  11.152   9.635 -0.7692  0.3665 -0.1335
  600MOL0     C79074  -0.036  11.180   9.622 -0.2395 -0.0088  0.5852
  600MOL0     C79075  -0.100  11.137   9.502  0.9844 -0.5876 -0.2188
  600MOL0     O79076  -0.230  11.170   9.482 -0.0404  0.4223  0.9101
  600MOL0     C79077  -0.307  11.098   9.384 -0.5300  0.2076  0.3860
  600MOL0     C79078  -0.460  11.115   9.427  0.2537  0.0089  0.8425
  600MOL0     C79079  -0.505  11.256   9.416 -0.0575  0.3866  0.1301
  600MOL0     C79080  -0.642  11.287   9.469 -0.0658 -0.5194  0.2117
  600MOL0     C79081  -0.696  11.417   9.389 -0.7172  0.1915  0.8427
  600MOL0     C79082  -0.828  11.463   9.442 -0.1636 -0.3121 -0.2383
  600MOL0     C79083  -0.884  11.578   9.364 -0.2514  0.5624  0.8685
  600MOL0     C79084  -1.008  11.648   9.430 -0.5080  1.3804  0.6080
  600MOL0     N79085  -1.053  11.777   9.383 -0.0140 -1.0065 -0.3133
  600MOL0     C79086  -1.106  11.797   9.256 -0.0672 -0.8426 -1.1322
  600MOL0     C79087  -1.142  11.926   9.247 -0.3425 -1.0229  0.5304
  600MOL0     C79088  -1.207  11.996   9.124 -0.6955  0.0044  0.3203
  600MOL0     C79089  -1.271  12.128   9.173 -0.3764 -0.7393  0.2056
  600MOL0     C79090  -1.333  12.197   9.055  0.3056  0.1700 -1.2918
  600MOL0     C79091  -1.392  12.338   9.116  0.7270  0.1503  0.2668
  600MOL0     O79092  -1.454  12.432   9.016 -0.2033  0.0106 -0.6176
  600MOL0     C79093  -1.494  12.560   9.049  0.2659 -0.3255  0.0997
  600MOL0     C79094  -1.558  12.639   8.951 -0.2002 -0.2738 -0.5874
  600MOL0     C79095  -1.614  12.768   8.989  0.2976  0.8302 -0.6877
  600MOL0     C79096  -1.606  12.811   9.125  0.6941 -0.2748  0.1186
  600MOL0     C79097  -1.661  12.950   9.160  0.6240  0.3476  0.0491
  600MOL0     O79098  -1.731  13.023   9.065  0.1720 -1.0952 -0.2257
  600MOL0     C79099  -1.827  13.111   9.112 -0.3605  0.1262 -0.0374
  600MOL0     C79100  -1.796  13.232   9.168  0.4074 -0.0648 -0.7597
  600MOL0     C79101  -1.892  13.333   9.188  0.7393  0.0833 -0.5878
  600MOL0     C79102  -2.025  13.306   9.152  0.8252 -0.1725 -0.2404
  600MOL0     O79103  -2.129  13.392   9.165 -0.0727  0.1003  0.4264
  600MOL0     C79104  -2.109  13.536   9.159 -0.1803  0.2427 -0.5777
  600MOL0     C79105  -2.248  13.603   9.129 -0.0127  0.3612  0.1699
  600MOL0     C79106  -2.340  13.594   9.251  0.7711  0.0528 -0.0581
  600MOL0     C79107  -2.469  13.672   9.226  0.1109 -0.3975 -0.2780
  600MOL0     C79108  -2.545  13.723   9.354  0.1955 -0.1209  0.4919
  600MOL0     C79109  -2.672  13.790   9.302 -0.1070 -0.1643  0.7309
  600MOL0     C79110  -2.769  13.847   9.403  0.6304  0.5469  0.0980
  600MOL0     C79111  -2.899  13.893   9.348 -0.1304 -0.1287  0.1094
  600MOL0    Cl79112  -2.985  13.766   9.264 -0.0218 -0.3656 -0.1667
  600MOL0     C79113  -2.056  13.175   9.118  1.2490 -0.3551  0.3483
  600MOL0     C79114  -1.962  13.082   9.093  0.3467 -0.0167  0.0743
  600MOL0     O79115  -1.640  12.983   9.275  0.0031 -0.0132 -0.2786
  600MOL0     C79116  -1.535  12.732   9.220  0.3648  0.2704  0.1366
  600MOL0     C79117  -1.479  12.611   9.174  0.4204 -0.0018 -0.7215
  600MOL0     N79118  -1.109  11.989   9.369 -0.1459  0.6746  0.0347
  600MOL0     N79119  -1.064  11.896   9.446 -1.2284 -0.1954 -0.5309
  600MOL0     C79120  -0.032  11.058   9.407 -0.2555 -0.6161 -0.5878
  600MOL0     C79121   0.093  11.025   9.425 -0.2050  0.7721  0.3621
  600MOL0     C79122   0.514  11.055   9.640 -0.4701  0.0832  0.3604
  600MOL0     C79123   0.595  11.060   9.755 -0.2248 -0.9876  0.1104
  600MOL0     C79124   0.726  11.085   9.747 -0.5472 -0.0913 -0.2092
  600MOL0     C79125   0.787  11.100   9.628  0.1059  0.1593  0.6059
  600MOL0     O79126   0.922  11.129   9.631  0.0612  0.1429 -0.5206
  600MOL0     C79127   0.990  11.156   9.510 -0.4656  0.6729  0.0938
  600MOL0     C79128   1.141  11.175   9.525 -0.2208  0.1606 -0.3161
  600MOL0     C79129   1.230  11.207   9.401 -0.1810  0.6776 -0.8793
  600MOL0     C79130   1.376  11.160   9.411  0.0722 -0.2451  0.1164
  600MOL0     C79131   1.448  11.244   9.502 -0.9070 -0.8560 -0.3459
  600MOL0     C79132   1.508  11.322   9.566  0.4431 -0.6306 -1.0273
  600MOL0     C79133   0.715  11.096   9.512  0.0124 -0.1705  0.2656
  600MOL0     C79134   0.578  11.065   9.512 -0.1697  0.3546 -0.3367
  600MOL0     H79135   0.144  11.184   9.728  1.7570 -2.9349 -0.0848
  600MOL0     H79136  -0.093  11.244   9.689 -1.7004 -1.3931  0.7335
  600MOL0     H79137  -0.289  10.991   9.377 -0.5981  0.2756 -1.0118
  600MOL0     H79138  -0.298  11.143   9.285 -1.1106 -1.1212 -0.2992
  600MOL0     H79139  -0.462  11.099   9.536 -1.1042  1.6555  1.0994
  600MOL0     H79140  -0.527  11.046   9.375 -0.7246  2.0222 -0.7011
  600MOL0     H79141  -0.502  11.277   9.309 -0.0400 -1.7075 -0.3300
  600MOL0     H79142  -0.433  11.320   9.469  2.1916 -1.0139 -1.0825
  600MOL0     H79143  -0.713  11.203   9.460  0.1722 -0.5296 -2.7735
  600MOL0     H79144  -0.632  11.307   9.575 -0.8809  1.8643 -0.1130
  600MOL0     H79145  -0.711  11.371   9.291 -0.3167  4.1390 -1.2726
  600MOL0     H79146  -0.621  11.497   9.381 -0.0828 -0.5708 -2.5306
  600MOL0     H79147  -0.807  11.486   9.547  0.0461 -0.9043 -0.1486
  600MOL0     H79148  -0.900  11.381   9.442 -2.9627  1.9938 -0.4934
  600MOL0     H79149  -0.809  11.655   9.344  0.6409 -0.6882 -0.7499
  600MOL0     H79150  -0.909  11.548   9.262 -0.2826  1.7578  0.5084
  600MOL0     H79151  -0.980  11.667   9.534 -1.4824  1.5507  0.8433
  600MOL0     H79152  -1.094  11.581   9.429  1.0252 -0.7157  0.0770
  600MOL0     H79153  -1.121  11.722   9.178  1.0027 -0.8869 -1.3051
  600MOL0     H79154  -1.280  11.927   9.080  1.2368 -2.4906  0.8393
  600MOL0     H79155  -1.130  12.018   9.050  0.7737  2.0675  2.3080
  600MOL0     H79156  -1.197  12.201   9.208 -2.1999  2.3796 -1.9333
  600MOL0     H79157  -1.348  12.120   9.251  1.2999  2.9502  2.4944
  600MOL0     H79158  -1.271  12.203   8.966  2.0267 -2.1659 -0.3505
  600MOL0     H79159  -1.416  12.132   9.025 -0.5989  0.6417  0.0641
  600MOL0     H79160  -1.316  12.388   9.176  0.4572  1.8174 -0.7219
  600MOL0     H79161  -1.480  12.316   9.178  0.2448 -1.3828 -0.8834
  600MOL0     H79162  -1.556  12.614   8.845 -0.3701  1.9094 -1.1604
  600MOL0     H79163  -1.650  12.838   8.915  1.5574  0.2794 -1.8565
  600MOL0     H79164  -1.697  13.258   9.205 -0.8943 -0.9803  4.0654
  600MOL0     H79165  -1.864  13.430   9.229 -0.1122 -1.0468  3.0239
  600MOL0     H79166  -2.045  13.562   9.074 -0.2017 -0.3523 -0.7747
  600MOL0     H79167  -2.064  13.580   9.249 -0.2838  0.7163 -0.7507
  600MOL0     H79168  -2.273  13.551   9.036  1.6503  1.4422 -0.9177
  600MOL0     H79169  -2.227  13.707   9.103  1.0736 -0.3239 -1.9307
  600MOL0     H79170  -2.291  13.629   9.342 -1.5654  0.0910  1.2430
  600MOL0     H79171  -2.375  13.491   9.262 -0.8018  0.2273 -2.6251
  600MOL0     H79172  -2.442  13.766   9.176 -0.0453  0.5486  1.3327
  600MOL0     H79173  -2.533  13.615   9.158 -1.1759 -0.5311  1.0154
  600MOL0     H79174  -2.489  13.793   9.417 -0.9429  1.1779  0.1207
  600MOL0     H79175  -2.578  13.641   9.418  0.7429 -0.2567  0.5993
  600MOL0     H79176  -2.737  13.727   9.240  3.1857 -1.4926 -1.6426
  600MOL0     H79177  -2.640  13.879   9.246  1.5373 -0.4291  1.2013
  600MOL0     H79178  -2.802  13.765   9.467 -1.7895 -0.5920 -2.4271
  600MOL0     H79179  -2.730  13.934   9.458  2.8024 -0.6507  0.5800
  600MOL0     H79180  -2.867  13.966   9.273  0.9671  0.4113  1.0687
  600MOL0     H79181  -2.958  13.945   9.424 -1.7471  1.3229 -2.0096
  600MOL0     H79182  -2.161  13.150   9.103  0.8175  0.2132  2.1081
  600MOL0     H79183  -1.991  12.980   9.072  0.5375  0.1793 -1.2957
  600MOL0     H79184  -1.521  12.764   9.322  3.9514 -1.0927  0.2253
  600MOL0     H79185  -1.421  12.559   9.249 -1.0794 -0.8061 -0.0832
  600MOL0     H79186  -0.089  11.028   9.320 -4.5698 -0.2267  1.8225
  600MOL0     H79187   0.148  10.973   9.347  1.7035  0.6720  1.7150
  600MOL0     H79188   0.550  11.045   9.853  1.1402 -0.2678  0.8714
  600MOL0     H79189   0.797  11.091   9.829 -1.0888 -1.2606  0.3721
  600MOL0     H79190   0.942  11.245   9.467  0.2574  1.7515  1.4538
  600MOL0     H79191   0.976  11.075   9.437  0.9727  1.2533 -0.8641
  600MOL0     H79192   1.162  11.253   9.600 -0.7601 -0.2035  0.2257
  600MOL0     H79193   1.180  11.079   9.559 -0.4074  0.0079 -0.5317
  600MOL0     H79194   1.234  11.316   9.389  1.0523  0.9247  1.1638
  600MOL0     H79195   1.183  11.156   9.317 -0.6806 -3.3178  1.5663
  600MOL0     H79196   1.389  11.057   9.447 -0.9135 -0.7217 -0.8345
  600MOL0     H79197   1.419  11.169   9.311 -0.6134 -0.6144 -0.2188
  600MOL0     H79198   1.559  11.401   9.618 -3.2883  1.2578  0.1379
  600MOL0     H79199   0.761  11.100   9.414 -1.9492  5.6946 -0.7867
  600MOL0     H79200   0.520  11.035   9.425  0.1183 -0.3032 -0.3088
  601MOL0     O79201   9.259   0.212   0.017 -0.2511 -0.5911  0.0595
  601MOL0     C79202   9.275   0.177   0.135 -0.8008 -0.2954 -0.6663
  601MOL0     O79203   9.180   0.135   0.215 -0.1655 -0.0276  0.4215
  601MOL0     C79204   9.058   0.120   0.152 -0.5363 -0.0050 -0.5424
  601MOL0     C79205   9.002  -0.010   0.153  0.4185 -0.1954  0.1868
  601MOL0     C79206   8.875  -0.033   0.111  0.8112 -0.5471 -0.0711
  601MOL0     C79207   8.792   0.072   0.068 -0.2504 -0.7411  0.1175
  601MOL0     O79208   8.661   0.063   0.034 -0.5149 -0.6447  0.0087
  601MOL0     C79209   8.598  -0.062   0.027  0.2917 -0.2066  0.4329
  601MOL0     C79210   8.447  -0.050  -0.001  0.6899 -0.2068  1.1867
  601MOL0     C79211   8.375  -0.183   0.032 -0.5181  0.0190  0.1565
  601MOL0     C79212   8.390  -0.282  -0.081  0.7221  0.4914  0.2185
  601MOL0     C79213   8.265  -0.376  -0.083  1.1965  0.3174  0.5862
  601MOL0     C79214   8.272  -0.501  -0.175 -0.3855  1.1809 -1.7764
  601MOL0     C79215   8.140  -0.589  -0.191 -0.5188 -0.3081 -0.2918
  601MOL0     C79216   8.164  -0.723  -0.260  0.0051 -0.6800 -0.1279
  601MOL0     N79217   8.038  -0.782  -0.313  0.5977  0.1372 -0.3031
  601MOL0     C79218   7.947  -0.706  -0.383  0.1917  0.2125 -0.7855
  601MOL0     C79219   7.862  -0.797  -0.427  0.1102 -0.0953  0.2936
  601MOL0     C79220   7.758  -0.762  -0.526  0.9978 -0.0001  0.0052
  601MOL0     C79221   7.605  -0.790  -0.501 -0.2443  0.4637 -0.0017
  601MOL0     C79222   7.585  -0.931  -0.443 -0.4438 -0.6481  0.1848
  601MOL0     C79223   7.439  -0.987  -0.465  0.2556 -0.0824  0.0162
  601MOL0     O79224   7.341  -0.885  -0.438  0.4699 -0.1908  0.6841
  601MOL0     C79225   7.217  -0.909  -0.494  0.0343  0.1827 -0.1907
  601MOL0     C79226   7.119  -0.805  -0.485 -0.0746  0.6578 -0.3240
  601MOL0     C79227   6.983  -0.830  -0.514  0.7661 -0.1613  0.3949
  601MOL0     C79228   6.940  -0.953  -0.571  0.3992 -0.2691 -0.1857
  601MOL0     C79229   6.804  -0.984  -0.628  0.0711  0.6659  0.3660
  601MOL0     O79230   6.769  -1.111  -0.643 -0.2951 -0.9115 -0.1253
  601MOL0     C79231   6.661  -1.159  -0.715  0.5053 -0.9143  0.1526
  601MOL0     C79232   6.535  -1.102  -0.700  0.7196 -0.3582  0.2543
  601MOL0     C79233   6.426  -1.141  -0.767 -0.4268 -0.3648  0.4163
  601MOL0     C79234   6.444  -1.253  -0.862  0.7914  0.7195 -0.2957
  601MOL0     O79235   6.340  -1.313  -0.933 -0.3208  0.0217 -0.2501
  601MOL0     C79236   6.217  -1.316  -0.866  0.2280  0.3454 -0.1907
  601MOL0     C79237   6.151  -1.435  -0.934  0.4562 -0.3683 -0.1184
  601MOL0     C79238   6.006  -1.453  -0.902 -0.2975  0.1333  0.0345
  601MOL0     C79239   5.932  -1.514  -1.021 -0.3406 -0.1193  0.3724
  601MOL0     C79240   5.784  -1.541  -0.991  0.2945 -0.2388 -0.5488
  601MOL0     C79241   5.708  -1.405  -0.959  0.7845  0.4748  0.1088
  601MOL0     C79242   5.553  -1.421  -0.967  0.0831 -0.6191  0.3311
  601MOL0     C79243   5.496  -1.541  -0.887  0.1598  0.0766 -0.5864
  601MOL0    Cl79244   5.313  -1.517  -0.879  0.1967 -0.0569  0.0552
  601MOL0     C79245   6.565  -1.320  -0.862  0.1967  0.0258 -0.2126
  601MOL0     C79246   6.679  -1.271  -0.794  0.8644  0.2629  0.4118
  601MOL0     O79247   6.744  -0.888  -0.671 -0.3552 -0.1897 -0.4655
  601MOL0     C79248   7.039  -1.055  -0.574  0.2752  0.3577 -0.1247
  601MOL0     C79249   7.170  -1.036  -0.538 -0.5723  0.4269 -0.5301
  601MOL0     N79250   7.897  -0.917  -0.384  0.4943 -0.9330  0.9050
  601MOL0     N79251   7.998  -0.911  -0.318 -0.2821 -0.0390  0.8285
  601MOL0     C79252   8.847   0.207   0.062 -0.3426 -0.0193 -0.1486
  601MOL0     C79253   8.978   0.228   0.104 -0.3731  0.0580 -0.1533
  601MOL0     C79254   9.412   0.190   0.192 -0.2000  0.3641  0.0827
  601MOL0     C79255   9.455   0.140   0.319  0.1110  0.1360  0.4611
  601MOL0     C79256   9.578   0.160   0.367 -0.6977 -0.1233  0.9027
  601MOL0     C79257   9.676   0.222   0.295 -0.6962 -0.7029 -0.0441
  601MOL0     O79258   9.804   0.222   0.350  0.4954 -0.4487 -0.2633
  601MOL0     C79259   9.911   0.265   0.266  0.6265  0.7787 -0.2671
  601MOL0     C79260  10.040   0.268   0.352  0.4789 -0.5914 -0.1412
  601MOL0     C79261  10.154   0.318   0.269 -0.1894 -0.0701  0.3310
  601MOL0     C79262  10.285   0.293   0.343  0.3629  0.0586  0.1270
  601MOL0     C79263  10.399   0.306   0.253 -0.6021  0.5022  0.3928
  601MOL0     C79264  10.502   0.300   0.178  0.1902  0.1323  0.1385
  601MOL0     C79265   9.641   0.273   0.167 -1.1658  0.4681 -0.9477
  601MOL0     C79266   9.515   0.256   0.112  0.0411  0.7697 -0.0784
  601MOL0     H79267   9.060  -0.091   0.196  1.2787 -0.7132 -1.8525
  601MOL0     H79268   8.841  -0.136   0.114  1.2644 -0.6760  1.1108
  601MOL0     H79269   8.620  -0.117   0.119 -0.6660 -1.0095  0.1961
  601MOL0     H79270   8.644  -0.119  -0.055 -2.6460 -1.4706 -0.4602
  601MOL0     H79271   8.430  -0.016  -0.104  0.9251 -0.0295  1.2055
  601MOL0     H79272   8.401   0.029   0.058 -2.3376  1.0594 -2.4685
  601MOL0     H79273   8.271  -0.148   0.027 -0.0346  1.3857 -1.0289
  601MOL0     H79274   8.409  -0.216   0.131  0.4050  0.3177 -0.0589
  601MOL0     H79275   8.398  -0.235  -0.179 -0.6390 -2.6037 -1.5256
  601MOL0     H79276   8.472  -0.353  -0.067  1.3279  1.0945 -0.2245
  601MOL0     H79277   8.175  -0.324  -0.116  0.6722 -0.0776  1.3651
  601MOL0     H79278   8.241  -0.406   0.019  1.1014  0.6331  0.6570
  601MOL0     H79279   8.351  -0.569  -0.142  0.0012  2.0871 -0.8003
  601MOL0     H79280   8.305  -0.475  -0.276 -0.0015 -1.0472 -2.2787
  601MOL0     H79281   8.099  -0.615  -0.093  3.0575 -0.2200  1.3919
  601MOL0     H79282   8.068  -0.535  -0.252  0.8620 -0.1136 -1.8292
  601MOL0     H79283   8.215  -0.787  -0.187 -0.5402 -1.4969 -0.4479
  601MOL0     H79284   8.233  -0.702  -0.342 -2.0616  2.0681 -1.3041
  601MOL0     H79285   7.941  -0.600  -0.405 -2.6152  0.2569 -0.1375
  601MOL0     H79286   7.784  -0.815  -0.618  0.3031 -0.9741  0.3527
  601MOL0     H79287   7.762  -0.655  -0.552  0.6762 -0.2283 -1.0549
  601MOL0     H79288   7.550  -0.768  -0.593 -0.0399 -0.2018 -0.2896
  601MOL0     H79289   7.565  -0.721  -0.427 -0.8185 -1.0608  1.1507
  601MOL0     H79290   7.658  -1.000  -0.486 -1.9294 -1.9119 -0.4049
  601MOL0     H79291   7.604  -0.924  -0.336 -0.1458  0.8688  0.0658
  601MOL0     H79292   7.418  -1.070  -0.398 -1.3525  0.8916  0.7959
  601MOL0     H79293   7.438  -1.018  -0.570 -0.9628  1.3999 -0.4562
  601MOL0     H79294   7.151  -0.713  -0.436  1.9894 -1.1738  2.0112
  601MOL0     H79295   6.911  -0.749  -0.507  2.6015  1.8016 -1.7948
  601MOL0     H79296   6.513  -1.018  -0.634  0.1336 -1.5235  1.6127
  601MOL0     H79297   6.336  -1.081  -0.758 -1.3824 -1.4913 -1.1505
  601MOL0     H79298   6.167  -1.221  -0.887 -0.7048 -0.3074 -1.0341
  601MOL0     H79299   6.234  -1.331  -0.759  1.1121  3.2367  0.1503
  601MOL0     H79300   6.207  -1.523  -0.899  1.1506  0.2561  0.3784
  601MOL0     H79301   6.167  -1.410  -1.039  1.0705  0.6744  0.2089
  601MOL0     H79302   5.973  -1.353  -0.870 -1.1613  0.0456 -0.5694
  601MOL0     H79303   5.994  -1.517  -0.814 -3.2005  1.3766  0.6713
  601MOL0     H79304   5.935  -1.443  -1.105  0.3042  0.7053  1.0682
  601MOL0     H79305   5.979  -1.610  -1.046  0.2131 -0.4347  2.4383
  601MOL0     H79306   5.783  -1.609  -0.906 -2.3830  2.5158  1.8514
  601MOL0     H79307   5.740  -1.589  -1.078 -2.5013  1.8518 -0.4121
  601MOL0     H79308   5.722  -1.337  -1.043 -0.9701  0.8778  0.1119
  601MOL0     H79309   5.737  -1.355  -0.866  0.7407  1.5734 -0.4641
  601MOL0     H79310   5.505  -1.329  -0.932  1.3248 -0.3939  1.5357
  601MOL0     H79311   5.528  -1.428  -1.073 -2.3478 -1.9926  0.9295
  601MOL0     H79312   5.536  -1.545  -0.786 -1.9154 -1.2865  0.2603
  601MOL0     H79313   5.526  -1.632  -0.941 -0.7032 -1.2362  1.0668
  601MOL0     H79314   6.566  -1.401  -0.935 -1.0759 -0.0436 -0.1730
  601MOL0     H79315   6.777  -1.313  -0.812  0.5847 -0.8012  1.2924
  601MOL0     H79316   7.024  -1.147  -0.630 -2.3549  1.2786 -1.1025
  601MOL0     H79317   7.237  -1.121  -0.536  0.2934  1.0940  1.2948
  601MOL0     H79318   8.786   0.295   0.045  0.2446  0.5067  0.4027
  601MOL0     H79319   9.008   0.332   0.108 -3.3022  0.9408  3.6933
  601MOL0     H79320   9.401   0.072   0.385  0.6920 -1.0836 -0.2899
  601MOL0     H79321   9.602   0.114   0.463  1.9881 -1.6560 -0.3964
  601MOL0     H79322   9.897   0.361   0.215 -0.3562  1.7859  1.7669
  601MOL0     H79323   9.928   0.180   0.200  0.8039 -1.1343  2.0802
  601MOL0     H79324  10.036   0.346   0.428  0.0400 -0.1327 -0.6204
  601MOL0     H79325  10.074   0.170   0.386  2.6478 -0.1421 -0.8500
  601MOL0     H79326  10.136   0.425   0.253 -2.8180 -0.6870 -1.5423
  601MOL0     H79327  10.160   0.271   0.170  1.4546 -1.9441  1.2662
  601MOL0     H79328  10.298   0.363   0.427  0.2561  1.3566 -0.9088
  601MOL0     H79329  10.291   0.189   0.378 -1.3599 -0.4831 -1.0613
  601MOL0     H79330  10.584   0.314   0.110  3.4066 -1.3228  3.4084
  601MOL0     H79331   9.714   0.313   0.097 -1.4513 -0.0566 -1.5449
  601MOL0     H79332   9.491   0.292   0.013 -0.3523  0.9976  0.0934
  602MOL0     O79333   2.699   1.498   1.308  0.0025  0.0514 -0.6056
  602MOL0     C79334   2.640   1.391   1.303 -0.2442 -1.1184 -0.6832
  602MOL0     O79335   2.672   1.280   1.231  0.4473  0.2338 -0.1222
  602MOL0     C79336   2.795   1.281   1.162 -0.3677  0.3533  0.2738
  602MOL0     C79337   2.806   1.336   1.032 -0.2469  0.3249  0.4051
  602MOL0     C79338   2.930   1.324   0.970 -0.2541  1.2070 -0.2961
  602MOL0     C79339   3.036   1.259   1.026 -0.9933 -0.5618  0.0483
  602MOL0     O79340   3.150   1.273   0.956 -0.0115  0.0032  0.6650
  602MOL0     C79341   3.270   1.203   1.004  0.4192  0.3872  0.5195
  602MOL0     C79342   3.265   1.058   0.948 -0.2926  0.3546  0.6051
  602MOL0     C79343   3.239   1.047   0.800 -0.0767  0.0581 -0.2424
  602MOL0     C79344   3.220   0.906   0.745  0.0229  0.4472  0.3519
  602MOL0     C79345   3.243   0.912   0.594 -0.0061  0.1175  0.2272
  602MOL0     C79346   3.158   1.023   0.518 -0.2669  0.3860 -0.5693
  602MOL0     C79347   3.008   1.017   0.544 -0.4021 -0.3813  0.1833
  602MOL0     C79348   2.938   1.129   0.473 -0.0796  0.1714  0.0487
  602MOL0     N79349   2.813   1.157   0.538  0.5292 -0.4023 -0.3775
  602MOL0     C79350   2.760   1.101   0.648 -0.1648 -0.3336  0.0385
  602MOL0     C79351   2.642   1.163   0.661 -0.2725 -0.1623  0.1488
  602MOL0     C79352   2.527   1.142   0.760  0.0634 -0.0948  0.1056
  602MOL0     C79353   2.482   1.273   0.820  0.0562  0.1743 -0.6480
  602MOL0     C79354   2.405   1.239   0.949 -0.3415  0.0598 -0.3382
  602MOL0     C79355   2.361   1.366   1.017  0.7070 -0.8814 -0.1622
  602MOL0     O79356   2.286   1.343   1.134  0.5478 -0.0700  0.2631
  602MOL0     C79357   2.150   1.306   1.126  1.1728  0.1898 -0.0340
  602MOL0     C79358   2.085   1.279   1.007 -0.0947  0.1479 -0.7373
  602MOL0     C79359   1.947   1.243   1.005  0.9431 -0.1746 -0.7830
  602MOL0     C79360   1.875   1.218   1.123 -0.1509  0.6748 -0.4959
  602MOL0     C79361   1.731   1.165   1.123  0.1306  0.3594 -0.4822
  602MOL0     O79362   1.658   1.159   1.005 -0.5821  0.5089 -0.4223
  602MOL0     C79363   1.525   1.124   1.017 -0.6339 -0.2737  0.1349
  602MOL0     C79364   1.477   1.011   1.084  0.2472 -0.1241 -0.2516
  602MOL0     C79365   1.336   0.991   1.093  0.2570 -0.9729  0.4779
  602MOL0     C79366   1.246   1.081   1.039  0.6033 -0.5629  0.6446
  602MOL0     O79367   1.107   1.051   1.046 -0.0948  0.2032  0.4191
  602MOL0     C79368   1.008   1.141   0.987 -0.2257  0.5193  0.5905
  602MOL0     C79369   0.885   1.056   0.958  0.2493  0.3624 -0.2073
  602MOL0     C79370   0.810   1.009   1.089  0.2346  0.6098 -0.3866
  602MOL0     C79371   0.682   0.936   1.055 -0.3780 -0.3705  0.1767
  602MOL0     C79372   0.575   0.949   1.162 -0.1989 -0.6664  0.1595
  602MOL0     C79373   0.508   1.088   1.145  0.6720  0.3598  0.2332
  602MOL0     C79374   0.406   1.077   1.031  0.5314 -0.1255 -0.7765
  602MOL0     C79375   0.266   1.118   1.077 -0.4677 -0.6577 -0.2313
  602MOL0    Cl79376   0.181   0.999   1.177  0.0111  0.3608 -0.0151
  602MOL0     C79377   1.297   1.193   0.978 -0.1750 -0.5609 -0.9996
  602MOL0     C79378   1.435   1.215   0.969 -0.2323  0.2273  0.4846
  602MOL0     O79379   1.680   1.145   1.233 -0.2489  1.1035 -0.3364
  602MOL0     C79380   1.941   1.255   1.241 -0.7019  0.2927  0.2413
  602MOL0     C79381   2.075   1.296   1.242  0.0335 -0.8485 -0.3140
  602MOL0     N79382   2.620   1.240   0.555  0.3561  0.2089 -0.6310
  602MOL0     N79383   2.725   1.244   0.482 -0.1084  0.1617  0.6291
  602MOL0     C79384   3.021   1.198   1.156  0.0285  0.2384 -0.9728
  602MOL0     C79385   2.898   1.215   1.227 -0.0407 -0.8117  0.2049
  602MOL0     C79386   2.519   1.383   1.397  0.4269  0.3066  0.0824
  602MOL0     C79387   2.472   1.506   1.457 -0.1247  0.8246  0.5712
  602MOL0     C79388   2.371   1.502   1.546 -0.0080  0.4879 -0.6617
  602MOL0     C79389   2.315   1.377   1.571 -0.3083  0.2126 -0.5913
  602MOL0     O79390   2.213   1.376   1.668 -0.4615 -0.1810 -0.5057
  602MOL0     C79391   2.138   1.498   1.700 -0.0143 -0.2790  0.4234
  602MOL0     C79392   1.998   1.467   1.766  0.1104 -0.1764 -0.8814
  602MOL0     C79393   1.914   1.400   1.659  0.1147 -0.4777 -0.1088
  602MOL0     C79394   1.778   1.364   1.715  0.3935  0.4447  0.6147
  602MOL0     C79395   1.685   1.321   1.608  0.1768  0.3763  0.4539
  602MOL0     C79396   1.621   1.270   1.515  0.0120 -0.9696  0.1851
  602MOL0     C79397   2.364   1.256   1.522 -0.1846  0.0431 -0.3400
  602MOL0     C79398   2.468   1.259   1.434 -0.3555  0.6214  0.2506
  602MOL0     H79399   2.732   1.382   0.967  0.0116  0.8626  0.4858
  602MOL0     H79400   2.948   1.363   0.870  1.0803  1.1069 -0.1063
  602MOL0     H79401   3.278   1.191   1.113 -0.1922  0.9412  0.6251
  602MOL0     H79402   3.358   1.255   0.967 -0.1397  0.7704 -0.2740
  602MOL0     H79403   3.190   0.995   0.997 -1.2051  1.1744  0.2983
  602MOL0     H79404   3.364   1.018   0.973 -0.2041  0.2188  0.0478
  602MOL0     H79405   3.315   1.098   0.739 -0.4905  1.0452  0.0428
  602MOL0     H79406   3.153   1.112   0.783 -0.5581  0.1918  2.3364
  602MOL0     H79407   3.285   0.841   0.804  0.7827  2.6674  2.1443
  602MOL0     H79408   3.116   0.877   0.763 -0.5074  2.8497  1.6716
  602MOL0     H79409   3.235   0.812   0.550  2.6716 -0.5402  1.0536
  602MOL0     H79410   3.348   0.939   0.579  0.3575 -0.7018  1.2425
  602MOL0     H79411   3.183   1.026   0.412 -0.3625 -3.3469 -0.8322
  602MOL0     H79412   3.202   1.117   0.554 -0.2129  0.6401 -1.2861
  602MOL0     H79413   2.960   0.926   0.508 -0.8887 -0.6383  1.4278
  602MOL0     H79414   2.992   1.013   0.652  4.7918  0.5760  1.2171
  602MOL0     H79415   2.919   1.090   0.372  2.0515 -1.6115  0.2534
  602MOL0     H79416   2.993   1.223   0.473  2.4153 -1.1811  1.8995
  602MOL0     H79417   2.807   1.032   0.717  0.4007  0.6341  0.6443
  602MOL0     H79418   2.563   1.077   0.839 -1.0891 -2.2754 -1.0778
  602MOL0     H79419   2.446   1.088   0.711  0.1153 -2.2113  2.2048
  602MOL0     H79420   2.410   1.327   0.757 -0.9696 -0.9638 -0.4877
  602MOL0     H79421   2.565   1.338   0.848 -2.4319  3.4001 -0.1612
  602MOL0     H79422   2.323   1.170   0.926 -1.0598 -0.7766  3.8380
  602MOL0     H79423   2.473   1.190   1.019 -0.2998 -1.5049 -1.4277
  602MOL0     H79424   2.299   1.428   0.951  0.5724 -1.2134 -0.3454
  602MOL0     H79425   2.451   1.423   1.044 -1.0572  2.4599 -0.7700
  602MOL0     H79426   2.139   1.295   0.914 -0.7779 -0.2639 -1.2121
  602MOL0     H79427   1.896   1.223   0.911  0.5060 -1.7443 -0.2414
  602MOL0     H79428   1.537   0.937   1.136 -0.8879  0.6864  2.3580
  602MOL0     H79429   1.288   0.915   1.154 -0.3836 -0.9077  0.0584
  602MOL0     H79430   1.046   1.184   0.893 -1.9932 -0.0461 -0.4216
  602MOL0     H79431   0.976   1.231   1.040  0.2762  1.6108 -0.8777
  602MOL0     H79432   0.901   0.967   0.897 -2.2198 -1.8260  2.0432
  602MOL0     H79433   0.811   1.120   0.908  2.1219  1.8174 -1.2243
  602MOL0     H79434   0.807   1.091   1.161 -1.0266  1.2651 -1.1441
  602MOL0     H79435   0.875   0.932   1.131 -0.5304  0.7100  1.0464
  602MOL0     H79436   0.644   0.989   0.968  0.2080  1.9106  1.2287
  602MOL0     H79437   0.705   0.831   1.033  2.3525 -0.3368  2.2962
  602MOL0     H79438   0.631   0.945   1.256  0.5229  2.9740  0.0204
  602MOL0     H79439   0.502   0.868   1.172 -0.2866 -0.5221  0.7169
  602MOL0     H79440   0.589   1.161   1.133  0.3069  0.9120  1.0133
  602MOL0     H79441   0.458   1.121   1.236  0.4157 -2.0848  1.0697
  602MOL0     H79442   0.428   1.155   0.956 -1.6723  0.8187 -0.5025
  602MOL0     H79443   0.413   0.981   0.980  1.1627 -0.0529 -0.8427
  602MOL0     H79444   0.204   1.145   0.991  0.8044 -0.9684 -1.2836
  602MOL0     H79445   0.275   1.204   1.144  1.1739  0.7348 -2.1031
  602MOL0     H79446   1.242   1.273   0.931 -1.7853 -0.3802  1.0343
  602MOL0     H79447   1.476   1.300   0.914 -0.3916  0.4760  0.7472
  602MOL0     H79448   1.881   1.256   1.332  0.7055 -2.2355  1.3132
  602MOL0     H79449   2.123   1.313   1.338  2.2629 -2.3265 -1.1004
  602MOL0     H79450   3.096   1.134   1.202  0.8567  1.5720 -0.4345
  602MOL0     H79451   2.885   1.168   1.324  0.5659  1.7344  1.6293
  602MOL0     H79452   2.519   1.598   1.423  0.0592  1.1391  1.6504
  602MOL0     H79453   2.343   1.597   1.591  0.1940 -0.2773  1.1486
  602MOL0     H79454   2.131   1.549   1.603 -2.5518  0.9770  1.1846
  602MOL0     H79455   2.187   1.574   1.761  0.3201 -2.4808  3.0847
  602MOL0     H79456   2.005   1.402   1.855  0.7658  1.8689  0.6398
  602MOL0     H79457   1.952   1.562   1.794 -0.5791 -0.6837 -0.2247
  602MOL0     H79458   1.963   1.315   1.613  0.3508 -0.6904  0.5181
  602MOL0     H79459   1.906   1.472   1.577  2.2610 -1.2088 -1.0119
  602MOL0     H79460   1.786   1.295   1.799 -0.2512 -1.1628 -0.6027
  602MOL0     H79461   1.736   1.457   1.756  0.3010  0.6392  0.0938
  602MOL0     H79462   1.558   1.228   1.439 -0.3802  0.5187 -0.3483
  602MOL0     H79463   2.305   1.167   1.539 -1.6323  0.9263 -0.6072
  602MOL0     H79464   2.500   1.159   1.405 -2.9298 -0.5444  1.1850
  603MOL0     O79465   0.622   8.723   2.605 -0.1056 -0.4905 -0.2484
  603MOL0     C79466   0.648   8.655   2.710 -0.4316 -0.0207  1.0735
  603MOL0     O79467   0.573   8.561   2.766  0.0421  0.5462  0.0205
  603MOL0     C79468   0.444   8.556   2.718  0.0819  0.2355 -0.8809
  603MOL0     C79469   0.345   8.630   2.786  0.1442 -0.2299  0.6081
  603MOL0     C79470   0.212   8.630   2.725 -0.7316  0.2280  0.0076
  603MOL0     C79471   0.185   8.570   2.600  0.3033  0.0522 -0.1421
  603MOL0     O79472   0.066   8.584   2.534  0.2433 -0.5329 -0.2263
  603MOL0     C79473   0.037   8.535   2.405  0.2063  0.1323  0.4028
  603MOL0     C79474  -0.113   8.522   2.375  0.2026 -0.5063 -0.1547
  603MOL0     C79475  -0.190   8.656   2.392 -0.3004  0.7786 -0.2062
  603MOL0     C79476  -0.299   8.686   2.287 -0.2321 -0.5854 -1.0112
  603MOL0     C79477  -0.439   8.666   2.346  0.0237  0.6051  0.0175
  603MOL0     C79478  -0.463   8.512   2.371 -0.3402  0.0038  0.5309
  603MOL0     C79479  -0.603   8.488   2.428  0.5114  0.0416  0.2079
  603MOL0     C79480  -0.606   8.345   2.483 -0.0504 -0.0451 -0.0412
  603MOL0     N79481  -0.544   8.237   2.395 -1.1578  0.1753 -0.4585
  603MOL0     C79482  -0.595   8.175   2.281  0.0568 -0.3145  0.4470
  603MOL0     C79483  -0.497   8.098   2.226  0.1146  0.0653 -0.2152
  603MOL0     C79484  -0.493   8.010   2.099 -0.6811 -0.1109 -0.0932
  603MOL0     C79485  -0.644   7.993   2.051 -0.0271  0.4323  0.0631
  603MOL0     C79486  -0.634   7.903   1.920  0.4864 -0.1652 -0.6509
  603MOL0     C79487  -0.600   7.755   1.959  0.0880  0.4109 -0.1443
  603MOL0     O79488  -0.707   7.682   2.021 -0.5011 -0.2176  0.5211
  603MOL0     C79489  -0.818   7.647   1.952 -0.8650  0.1217 -0.1310
  603MOL0     C79490  -0.917   7.580   2.015 -0.3276 -0.3854 -0.0912
  603MOL0     C79491  -1.039   7.535   1.964 -0.0421  0.3809 -0.8616
  603MOL0     C79492  -1.058   7.563   1.829  0.2504 -0.6956 -0.0993
  603MOL0     C79493  -1.190   7.517   1.775 -0.7408  0.2474  0.7258
  603MOL0     O79494  -1.221   7.566   1.646  0.4294 -0.6093  0.0727
  603MOL0     C79495  -1.341   7.522   1.582  0.5715 -0.1460  0.1431
  603MOL0     C79496  -1.385   7.385   1.583  0.1776  0.2162 -0.5844
  603MOL0     C79497  -1.501   7.348   1.516  0.2363  0.1955 -0.2375
  603MOL0     C79498  -1.583   7.443   1.444 -0.2600 -0.0644 -0.3877
  603MOL0     O79499  -1.700   7.405   1.388  0.1048  0.4788 -1.1943
  603MOL0     C79500  -1.820   7.490   1.406 -0.0018 -0.5327 -0.0974
  603MOL0     C79501  -1.941   7.443   1.321 -0.0017 -0.7717 -0.0179
  603MOL0     C79502  -1.895   7.396   1.183  0.7377 -0.3986 -0.0494
  603MOL0     C79503  -2.013   7.391   1.082 -0.4363 -0.0184 -0.0431
  603MOL0     C79504  -1.965   7.309   0.960 -0.3302 -0.5526 -0.4099
  603MOL0     C79505  -1.855   7.379   0.869 -0.4304  0.2359 -0.3499
  603MOL0     C79506  -1.784   7.295   0.763 -0.2440 -0.8689 -0.3409
  603MOL0     C79507  -1.644   7.352   0.722 -0.6621  0.1731  0.4205
  603MOL0    Cl79508  -1.576   7.256   0.581 -0.2553 -0.1073 -0.3861
  603MOL0     C79509  -1.531   7.572   1.435  0.3236  0.1545  0.4625
  603MOL0     C79510  -1.408   7.606   1.502  0.1608 -0.4779 -0.2535
  603MOL0     O79511  -1.274   7.468   1.853  0.2720  0.1612 -0.0496
  603MOL0     C79512  -0.955   7.628   1.755 -0.4602  1.4628 -0.0945
  603MOL0     C79513  -0.833   7.664   1.814  0.4452 -0.0577 -0.1356
  603MOL0     N79514  -0.391   8.106   2.323  0.1507 -0.4199 -0.1400
  603MOL0     N79515  -0.419   8.188   2.416 -0.6144  0.1361 -0.2074
  603MOL0     C79516   0.293   8.500   2.547  0.6171  1.3166 -0.3244
  603MOL0     C79517   0.414   8.491   2.606 -0.5348  0.3576  0.4864
  603MOL0     C79518   0.774   8.684   2.784 -0.4744  0.6043 -0.0450
  603MOL0     C79519   0.853   8.589   2.846 -0.1061 -0.3469 -0.1955
  603MOL0     C79520   0.960   8.625   2.922  0.1617 -0.5485  0.6135
  603MOL0     C79521   0.995   8.757   2.945  0.1862  0.1442 -0.0330
  603MOL0     O79522   1.094   8.799   3.025  0.1081  0.6378  0.1932
  603MOL0     C79523   1.200   8.716   3.066  0.1955  0.5510  0.4691
  603MOL0     C79524   1.185   8.632   3.203  0.2053  0.1622 -0.5817
  603MOL0     C79525   1.158   8.718   3.321  0.2877  0.0146  0.6319
  603MOL0     C79526   1.126   8.635   3.447 -0.2820 -0.1266  0.0948
  603MOL0     C79527   1.247   8.575   3.507 -0.3310  0.5258 -0.1852
  603MOL0     C79528   1.340   8.521   3.559 -0.5099  0.2658 -0.4804
  603MOL0     C79529   0.921   8.855   2.879  0.2650  0.5723 -0.7289
  603MOL0     C79530   0.810   8.819   2.804  0.5165  0.3244 -0.4429
  603MOL0     H79531   0.362   8.695   2.871 -0.9599  1.8611 -0.6742
  603MOL0     H79532   0.126   8.684   2.764 -1.0859 -0.8800  0.7965
  603MOL0     H79533   0.079   8.434   2.401 -1.4145 -0.5654 -0.3160
  603MOL0     H79534   0.087   8.585   2.322 -0.1385 -2.9866 -1.8947
  603MOL0     H79535  -0.152   8.450   2.448  1.1953 -0.4991  0.4068
  603MOL0     H79536  -0.132   8.478   2.277 -0.3516 -1.1800  0.2555
  603MOL0     H79537  -0.111   8.729   2.374  0.5184 -0.5609 -2.3650
  603MOL0     H79538  -0.226   8.664   2.495  2.1860 -0.1178  0.8052
  603MOL0     H79539  -0.283   8.792   2.262 -2.7402  1.5810  4.7348
  603MOL0     H79540  -0.289   8.627   2.196 -1.0126 -0.0473 -1.4625
  603MOL0     H79541  -0.511   8.711   2.278  0.0144  0.5595 -0.0017
  603MOL0     H79542  -0.442   8.720   2.442  1.2818  3.9401 -1.6379
  603MOL0     H79543  -0.387   8.473   2.439  0.0292  0.9664  0.6740
  603MOL0     H79544  -0.451   8.475   2.269  5.9294  6.0992 -1.7202
  603MOL0     H79545  -0.614   8.555   2.513  3.4388  1.5683 -0.5017
  603MOL0     H79546  -0.680   8.509   2.353 -2.5065 -2.4033  2.3598
  603MOL0     H79547  -0.709   8.308   2.480  0.0475 -0.6289  2.1354
  603MOL0     H79548  -0.561   8.342   2.583  0.9412  2.0750 -0.3451
  603MOL0     H79549  -0.686   8.199   2.228  0.7615 -2.1996 -1.8212
  603MOL0     H79550  -0.441   7.918   2.124 -0.9224 -0.2458 -0.0825
  603MOL0     H79551  -0.432   8.064   2.026  0.3527  1.0171  1.5267
  603MOL0     H79552  -0.683   8.091   2.022  0.2865  0.3827 -0.5449
  603MOL0     H79553  -0.710   7.953   2.128 -0.7836  0.4823 -0.5476
  603MOL0     H79554  -0.729   7.917   1.867 -1.5342 -1.2241  2.4386
  603MOL0     H79555  -0.562   7.936   1.844 -0.1183  1.5723 -0.5294
  603MOL0     H79556  -0.517   7.740   2.029 -0.9820 -0.9157  0.9104
  603MOL0     H79557  -0.574   7.710   1.863 -0.2346 -0.9910  0.3989
  603MOL0     H79558  -0.901   7.561   2.121  1.2934  1.1977 -0.0079
  603MOL0     H79559  -1.119   7.504   2.030 -0.2080  2.9877  0.2916
  603MOL0     H79560  -1.347   7.313   1.655 -0.2734  2.1565  1.7021
  603MOL0     H79561  -1.532   7.244   1.518  0.9168 -0.0073  0.5766
  603MOL0     H79562  -1.809   7.596   1.386 -1.9048 -0.4413 -0.9108
  603MOL0     H79563  -1.843   7.489   1.513  3.0269 -1.3109  0.6238
  603MOL0     H79564  -2.012   7.526   1.314 -0.6423 -1.3761 -0.9325
  603MOL0     H79565  -1.994   7.358   1.365 -1.8978  0.7383  0.7643
  603MOL0     H79566  -1.852   7.296   1.190  0.2275 -0.7260 -1.4049
  603MOL0     H79567  -1.821   7.464   1.139  2.7328 -1.1985  1.8493
  603MOL0     H79568  -2.090   7.336   1.136  0.7117 -0.8417  0.8123
  603MOL0     H79569  -2.056   7.489   1.061  0.3537  0.8165  1.9536
  603MOL0     H79570  -2.046   7.277   0.893  1.9332 -3.1645 -2.1758
  603MOL0     H79571  -1.939   7.207   0.991  0.4421 -0.6280 -1.2546
  603MOL0     H79572  -1.774   7.416   0.932 -0.5085  0.0327 -0.1294
  603MOL0     H79573  -1.905   7.465   0.824 -0.7648  1.2203  1.7749
  603MOL0     H79574  -1.771   7.199   0.813 -0.5015 -2.3540 -2.9228
  603MOL0     H79575  -1.849   7.281   0.676 -0.7302  2.9822 -0.7789
  603MOL0     H79576  -1.574   7.340   0.805  0.1247 -0.6306 -0.3501
  603MOL0     H79577  -1.652   7.456   0.690  0.2136 -0.6907 -2.9469
  603MOL0     H79578  -1.594   7.651   1.395 -0.0858  0.4203  1.5859
  603MOL0     H79579  -1.372   7.708   1.502 -2.7120  0.6523 -1.1811
  603MOL0     H79580  -0.949   7.647   1.649  3.2689  2.1519  0.1019
  603MOL0     H79581  -0.752   7.705   1.754 -0.5309  4.3033  1.1899
  603MOL0     H79582   0.285   8.431   2.464  2.6406 -2.5006  2.3458
  603MOL0     H79583   0.492   8.432   2.559 -1.3781 -1.8837  1.7167
  603MOL0     H79584   0.828   8.486   2.825  1.8376 -0.8916 -0.0479
  603MOL0     H79585   1.022   8.551   2.969  2.0957  1.0000  0.6120
  603MOL0     H79586   1.274   8.795   3.083  1.1767  0.7225 -3.6150
  603MOL0     H79587   1.242   8.652   2.988  0.2162  0.9980  0.1073
  603MOL0     H79588   1.106   8.555   3.202  0.3306 -0.0548  1.7470
  603MOL0     H79589   1.273   8.570   3.224 -2.2114 -2.8233  1.6533
  603MOL0     H79590   1.065   8.774   3.308 -0.3170 -0.9305  0.7951
  603MOL0     H79591   1.231   8.797   3.341 -0.4951  0.9131  0.0489
  603MOL0     H79592   1.100   8.699   3.532 -0.8165 -0.5595  0.2672
  603MOL0     H79593   1.039   8.570   3.431 -0.4190  0.0201  0.2326
  603MOL0     H79594   1.424   8.472   3.602 -0.8895 -0.4331 -0.5239
  603MOL0     H79595   0.953   8.957   2.893 -1.4992  1.0753 -0.0863
  603MOL0     H79596   0.749   8.900   2.764 -1.0586 -0.5127  0.1849
  604MOL0     O79597   4.406   3.287   1.004 -0.4248  0.0035  0.3232
  604MOL0     C79598   4.443   3.173   1.039  0.2246 -0.2091 -0.1583
  604MOL0     O79599   4.534   3.098   0.968 -0.7144  0.9838  0.1230
  604MOL0     C79600   4.614   3.153   0.874  0.6388  0.7055  0.3290
  604MOL0     C79601   4.679   3.278   0.905  0.5811  0.1832  0.1657
  604MOL0     C79602   4.769   3.333   0.806  0.2742 -0.1627  0.2488
  604MOL0     C79603   4.794   3.268   0.686 -0.1780 -0.7294  0.2811
  604MOL0     O79604   4.881   3.325   0.589  0.6122  0.1354 -0.4969
  604MOL0     C79605   4.872   3.468   0.571  0.3153  0.8234 -0.5827
  604MOL0     C79606   4.952   3.505   0.445 -0.3158  0.2215 -1.0233
  604MOL0     C79607   5.098   3.498   0.477  0.5622 -0.0248 -1.4889
  604MOL0     C79608   5.172   3.546   0.357  0.1445  0.6896  0.4994
  604MOL0     C79609   5.325   3.511   0.377  0.3880 -0.1564 -0.3896
  604MOL0     C79610   5.414   3.571   0.261  0.5931 -0.5510  0.2362
  604MOL0     C79611   5.568   3.577   0.296  0.5248 -0.4731  0.2773
  604MOL0     C79612   5.660   3.534   0.186 -0.1390 -0.1297  0.1949
  604MOL0     N79613   5.800   3.524   0.234  0.5538  0.3323 -0.4016
  604MOL0     C79614   5.904   3.615   0.233  0.3534  0.5325  0.0194
  604MOL0     C79615   6.016   3.544   0.273 -0.6883 -0.6826 -0.3890
  604MOL0     C79616   6.162   3.587   0.280 -0.2928  0.0842  0.0917
  604MOL0     C79617   6.223   3.519   0.151 -0.4798  0.2153 -0.6779
  604MOL0     C79618   6.360   3.572   0.136 -0.5913  0.0116  0.7455
  604MOL0     C79619   6.396   3.560  -0.017  0.4769  0.0451 -0.3719
  604MOL0     O79620   6.524   3.617  -0.063 -0.8067  0.1556 -0.3030
  604MOL0     C79621   6.632   3.534  -0.055 -0.1026 -0.3056  0.4665
  604MOL0     C79622   6.735   3.546   0.038  0.6067  0.5783 -0.2023
  604MOL0     C79623   6.851   3.472   0.018 -0.7377 -0.3908  0.2528
  604MOL0     C79624   6.874   3.380  -0.089  0.7742 -0.7877 -0.2712
  604MOL0     C79625   7.006   3.310  -0.104  0.3895  1.1483  0.7291
  604MOL0     O79626   7.105   3.364  -0.034 -0.3991 -0.0522 -0.2329
  604MOL0     C79627   7.221   3.289  -0.022  0.6833 -0.0677 -0.8005
  604MOL0     C79628   7.306   3.282  -0.130 -0.1222  0.6705 -0.0562
  604MOL0     C79629   7.415   3.198  -0.126 -0.1541  0.6361 -0.5710
  604MOL0     C79630   7.455   3.130  -0.008 -1.0315  0.1891 -0.7002
  604MOL0     O79631   7.574   3.052  -0.009 -0.3256  0.2644  0.3048
  604MOL0     C79632   7.619   2.994   0.120  0.1302 -0.6600  0.0272
  604MOL0     C79633   7.730   2.883   0.106 -0.3294  0.6024  0.4017
  604MOL0     C79634   7.824   2.871   0.235  0.2701  0.4896 -0.4909
  604MOL0     C79635   7.922   2.757   0.210  0.2313  0.1334 -0.4909
  604MOL0     C79636   8.053   2.760   0.287 -0.3688  0.0079 -0.4649
  604MOL0     C79637   8.147   2.660   0.221  0.2451  0.2783 -0.9364
  604MOL0     C79638   8.285   2.671   0.310  0.0806 -0.7087  1.1135
  604MOL0     C79639   8.375   2.556   0.286 -0.1949  0.4258  0.2448
  604MOL0    Cl79640   8.311   2.413   0.360  0.3844  0.0138 -0.0573
  604MOL0     C79641   7.370   3.149   0.111 -0.6983  0.4027  0.2929
  604MOL0     C79642   7.251   3.220   0.093  0.2611  0.6719 -0.3434
  604MOL0     O79643   7.006   3.199  -0.159 -0.2944  0.0611 -0.1742
  604MOL0     C79644   6.768   3.361  -0.171 -0.9761  0.2854  0.4050
  604MOL0     C79645   6.655   3.441  -0.159  1.2422  0.3068 -0.2823
  604MOL0     N79646   5.982   3.418   0.303 -1.3826 -1.0652  0.6451
  604MOL0     N79647   5.851   3.409   0.291  0.1965  0.1594 -0.4750
  604MOL0     C79648   4.753   3.139   0.669  0.0855  0.0903  0.7416
  604MOL0     C79649   4.656   3.082   0.760 -0.2667 -0.4493  0.1341
  604MOL0     C79650   4.391   3.102   1.156 -0.4416 -0.4793 -0.2862
  604MOL0     C79651   4.399   2.957   1.176  0.7093 -0.1494 -0.2821
  604MOL0     C79652   4.344   2.895   1.293 -0.0593  0.4504  0.3493
  604MOL0     C79653   4.282   2.971   1.393 -0.4549  0.1592  0.0673
  604MOL0     O79654   4.214   2.926   1.507 -0.2447 -0.3766  0.7082
  604MOL0     C79655   4.154   2.798   1.489 -0.4921  0.0490  0.2843
  604MOL0     C79656   4.038   2.797   1.384 -0.0313 -0.1906  0.2316
  604MOL0     C79657   3.985   2.646   1.388  0.3253  0.4033  0.5613
  604MOL0     C79658   3.837   2.648   1.340 -0.9678 -0.3539  0.7015
  604MOL0     C79659   3.763   2.550   1.409  0.0920  0.2255  0.2284
  604MOL0     C79660   3.701   2.461   1.465 -0.0979  0.3806 -0.9972
  604MOL0     C79661   4.280   3.110   1.376  0.4028 -0.0328 -0.0446
  604MOL0     C79662   4.338   3.171   1.260  0.6161 -0.0957 -0.0622
  604MOL0     H79663   4.667   3.332   0.998  0.4088 -1.8959  1.4180
  604MOL0     H79664   4.818   3.429   0.822 -0.0682  0.4015 -1.8204
  604MOL0     H79665   4.917   3.523   0.655  1.9367  0.7898 -1.3808
  604MOL0     H79666   4.770   3.500   0.552 -1.8999 -3.9224  1.6258
  604MOL0     H79667   4.931   3.609   0.420  2.3130  0.5094 -2.3949
  604MOL0     H79668   4.934   3.435   0.363 -0.3690 -2.7523  1.3441
  604MOL0     H79669   5.129   3.398   0.510  1.7928  0.3162 -1.5404
  604MOL0     H79670   5.118   3.573   0.554  0.0664  1.5298 -2.8106
  604MOL0     H79671   5.135   3.493   0.269  0.8037  0.2497  0.4823
  604MOL0     H79672   5.178   3.655   0.356  0.8408  0.6596  0.9458
  604MOL0     H79673   5.331   3.402   0.372  1.7342 -0.0446 -2.1000
  604MOL0     H79674   5.353   3.554   0.473  0.8591  0.2193 -0.6939
  604MOL0     H79675   5.377   3.672   0.241  0.0205 -0.2556  2.4893
  604MOL0     H79676   5.387   3.509   0.175  0.6591  0.3615 -0.4651
  604MOL0     H79677   5.608   3.674   0.325  1.7975 -0.0902 -2.4606
  604MOL0     H79678   5.598   3.503   0.371  3.2437 -0.8066 -1.0240
  604MOL0     H79679   5.654   3.600   0.099  0.3363 -1.6726 -1.0471
  604MOL0     H79680   5.627   3.435   0.153  2.0427 -1.0322  0.5461
  604MOL0     H79681   5.906   3.719   0.204  1.8479  0.0863 -1.5889
  604MOL0     H79682   6.202   3.537   0.369  2.1887 -0.5407 -1.2696
  604MOL0     H79683   6.181   3.694   0.289 -0.7996  0.1437  0.5204
  604MOL0     H79684   6.163   3.545   0.063  0.6645  1.2489 -1.1775
  604MOL0     H79685   6.231   3.411   0.160  1.9947  0.5256  3.1219
  604MOL0     H79686   6.363   3.681   0.151 -1.1179  0.9158 -3.9028
  604MOL0     H79687   6.434   3.519   0.197 -0.2363 -1.3732 -0.8142
  604MOL0     H79688   6.320   3.616  -0.071 -0.3945 -1.7430 -1.0946
  604MOL0     H79689   6.395   3.458  -0.058 -1.4028 -0.3281  0.4717
  604MOL0     H79690   6.721   3.614   0.122 -1.8217  1.9517 -1.5900
  604MOL0     H79691   6.924   3.488   0.098  0.5838 -1.3582 -0.7173
  604MOL0     H79692   7.284   3.334  -0.223 -2.3987 -1.8733 -1.0569
  604MOL0     H79693   7.461   3.183  -0.223 -2.5704 -1.4566 -1.4950
  604MOL0     H79694   7.534   2.945   0.169  0.9652 -2.4691 -0.2445
  604MOL0     H79695   7.660   3.076   0.179  2.9310 -0.6290 -1.7597
  604MOL0     H79696   7.798   2.902   0.023 -0.2981  0.4017  0.3825
  604MOL0     H79697   7.694   2.784   0.079  2.2526 -0.0275 -1.1230
  604MOL0     H79698   7.759   2.843   0.319 -2.2290  0.3697 -2.3490
  604MOL0     H79699   7.880   2.964   0.251  0.8257  0.0681  0.0523
  604MOL0     H79700   7.876   2.659   0.226  0.6198  0.4023  3.1966
  604MOL0     H79701   7.944   2.768   0.103 -2.6953  3.3146 -0.9626
  604MOL0     H79702   8.030   2.751   0.393 -1.1269 -1.3870 -0.7268
  604MOL0     H79703   8.087   2.862   0.267 -1.8292  0.5800 -0.0834
  604MOL0     H79704   8.167   2.683   0.116 -0.7488  0.8042 -1.0176
  604MOL0     H79705   8.110   2.559   0.239  0.7464  0.6126  2.9431
  604MOL0     H79706   8.344   2.758   0.280  0.4068 -0.9111  1.1686
  604MOL0     H79707   8.270   2.680   0.418 -1.5194 -0.9629  0.9340
  604MOL0     H79708   8.481   2.565   0.312  1.1715  0.7081 -4.4789
  604MOL0     H79709   8.398   2.540   0.180  1.5895  3.2864  0.0961
  604MOL0     H79710   7.393   3.122   0.213  4.2854 -3.6319 -1.4531
  604MOL0     H79711   7.185   3.233   0.178  0.6745 -1.4895  0.3788
  604MOL0     H79712   6.776   3.303  -0.262  2.4436  0.6964  0.3346
  604MOL0     H79713   6.579   3.436  -0.237 -0.1889  0.9262  1.0173
  604MOL0     H79714   4.777   3.082   0.580 -0.5844 -2.0447  1.8513
  604MOL0     H79715   4.601   2.993   0.732  1.1432 -1.9119  1.7508
  604MOL0     H79716   4.450   2.898   1.101  0.7657 -1.3327  0.6615
  604MOL0     H79717   4.358   2.789   1.310 -1.1905  0.3162  0.5498
  604MOL0     H79718   4.114   2.785   1.591 -0.3146  1.4639  0.5561
  604MOL0     H79719   4.222   2.718   1.460 -1.0202  0.1202 -1.1914
  604MOL0     H79720   3.965   2.865   1.429  1.4914  2.2277 -0.7570
  604MOL0     H79721   4.067   2.813   1.280  1.6316 -0.6577  0.5943
  604MOL0     H79722   3.982   2.623   1.495 -0.1081  0.8241  0.6460
  604MOL0     H79723   4.046   2.581   1.325 -2.6934 -0.9967 -1.1121
  604MOL0     H79724   3.790   2.745   1.356  1.0110  0.4472  1.9882
  604MOL0     H79725   3.835   2.625   1.233  1.5167 -1.6195  0.8623
  604MOL0     H79726   3.628   2.403   1.517  0.8453 -0.6788 -0.7983
  604MOL0     H79727   4.245   3.175   1.455 -1.3212 -0.7665 -0.1683
  604MOL0     H79728   4.325   3.278   1.273 -0.1799 -0.0797 -0.9481
  605MOL0     O79729  10.330   5.689   4.947  0.6230  0.2594  0.6088
  605MOL0     C79730  10.392   5.582   4.934  0.5577  0.3235  1.3403
  605MOL0     O79731  10.333   5.453   4.925  0.4428  0.6214  0.2021
  605MOL0     C79732  10.192   5.451   4.922 -0.0192 -0.1974 -0.6996
  605MOL0     C79733  10.121   5.393   4.823  0.4204 -0.4201 -0.0127
  605MOL0     C79734   9.981   5.383   4.827 -0.1899  0.1928  0.2639
  605MOL0     C79735   9.912   5.414   4.940 -0.1183 -0.4781  0.2177
  605MOL0     O79736   9.779   5.387   4.958  0.1977 -0.0053  0.0857
  605MOL0     C79737   9.700   5.496   4.993  0.6121  1.0608  0.0718
  605MOL0     C79738   9.547   5.467   4.966 -0.0315  0.3531 -0.8549
  605MOL0     C79739   9.497   5.336   5.014  0.6902 -0.0699  0.4622
  605MOL0     C79740   9.361   5.296   4.963  0.2879 -0.8290  0.3909
  605MOL0     C79741   9.294   5.177   5.037 -0.0963  0.1340 -0.1585
  605MOL0     C79742   9.150   5.161   4.996  0.2639 -0.1075 -0.2939
  605MOL0     C79743   9.056   5.268   5.051  0.8050  0.1974  0.2374
  605MOL0     C79744   8.906   5.232   5.054  0.9974 -0.4785 -0.4274
  605MOL0     N79745   8.814   5.339   5.094  0.0669 -0.0458 -0.2205
  605MOL0     C79746   8.848   5.435   5.188  0.4613 -0.1273  0.1716
  605MOL0     C79747   8.738   5.512   5.192 -0.6989  0.9204 -0.1127
  605MOL0     C79748   8.720   5.641   5.265  0.2273 -0.1917  0.3272
  605MOL0     C79749   8.758   5.769   5.182 -0.4554 -0.1253 -0.4539
  605MOL0     C79750   8.904   5.778   5.143  0.2076  0.0539  0.0217
  605MOL0     C79751   9.011   5.784   5.259  0.5903 -0.1184 -0.3676
  605MOL0     O79752   9.108   5.669   5.255 -0.7097 -0.5450 -0.3660
  605MOL0     C79753   9.243   5.691   5.284  0.3235  0.1809 -0.1946
  605MOL0     C79754   9.305   5.810   5.309 -0.3437 -0.2093  0.5947
  605MOL0     C79755   9.441   5.809   5.328  0.4728 -0.4337 -0.0276
  605MOL0     C79756   9.524   5.693   5.334 -0.2604  0.7825 -0.6200
  605MOL0     C79757   9.672   5.700   5.327  0.5958  0.4780 -0.2871
  605MOL0     O79758   9.718   5.832   5.337 -0.3819  0.2932  0.4169
  605MOL0     C79759   9.855   5.860   5.321  0.0296 -0.6922  0.0500
  605MOL0     C79760   9.891   6.000   5.295  0.2457  0.8176  0.0979
  605MOL0     C79761  10.011   6.055   5.281 -0.0296  0.3134 -0.7396
  605MOL0     C79762  10.124   5.964   5.288 -0.4371  0.0450 -0.0250
  605MOL0     O79763  10.243   6.023   5.268 -0.5228  0.2089  0.4498
  605MOL0     C79764  10.357   5.939   5.253 -0.5005  0.9072  0.0727
  605MOL0     C79765  10.466   6.038   5.216 -0.2424 -0.0167  1.0093
  605MOL0     C79766  10.599   5.969   5.236 -0.8343  0.2297  0.2081
  605MOL0     C79767  10.710   6.055   5.169  0.7267 -0.8387  0.5256
  605MOL0     C79768  10.840   5.990   5.205 -0.0401  0.9206 -0.4221
  605MOL0     C79769  10.958   6.044   5.135  1.2401  0.2064 -0.2409
  605MOL0     C79770  11.080   5.948   5.164  0.1175 -0.2584 -0.5629
  605MOL0     C79771  11.210   6.029   5.152 -0.4884  0.3263  0.0112
  605MOL0    Cl79772  11.335   5.908   5.180 -0.1351  0.2721  0.0251
  605MOL0     C79773  10.095   5.830   5.332  1.1684 -0.4670  0.3607
  605MOL0     C79774   9.968   5.785   5.353  0.0697  0.0735 -0.2414
  605MOL0     O79775   9.739   5.601   5.309 -0.4410 -0.1378 -0.1888
  605MOL0     C79776   9.449   5.573   5.322 -0.0405 -0.1878  0.1708
  605MOL0     C79777   9.316   5.572   5.293  0.3009 -0.9004 -0.7311
  605MOL0     N79778   8.645   5.473   5.100 -0.2600 -0.7069  0.6610
  605MOL0     N79779   8.691   5.362   5.046  0.3383 -0.2569  0.2645
  605MOL0     C79780   9.979   5.488   5.042 -0.5334 -0.3201  0.0349
  605MOL0     C79781  10.124   5.500   5.046  0.1134  0.4664 -0.2114
  605MOL0     C79782  10.541   5.595   4.940 -0.3086 -0.5085  0.2888
  605MOL0     C79783  10.605   5.720   4.949 -0.8374  0.0048 -0.4559
  605MOL0     C79784  10.741   5.732   4.933 -0.2888 -0.3729  0.0551
  605MOL0     C79785  10.812   5.616   4.912 -0.3083  0.2726 -0.1158
  605MOL0     O79786  10.943   5.627   4.900  0.0086 -1.0976  0.4312
  605MOL0     C79787  11.032   5.526   4.943  0.2138  0.0995  0.5666
  605MOL0     C79788  11.163   5.599   4.986 -0.2243 -0.3282  0.6897
  605MOL0     C79789  11.283   5.511   4.980 -0.5059  0.1759 -0.0779
  605MOL0     C79790  11.404   5.592   5.030 -0.1933  0.3106  0.0306
  605MOL0     C79791  11.525   5.507   5.030  0.0878  0.6802  0.2795
  605MOL0     C79792  11.629   5.448   5.023 -0.7503  0.0367  0.3791
  605MOL0     C79793  10.757   5.488   4.910 -0.0176 -0.6383  0.9413
  605MOL0     C79794  10.618   5.476   4.929 -0.3779  1.1398  0.0277
  605MOL0     H79795  10.165   5.354   4.731  0.3586  0.4322 -0.4147
  605MOL0     H79796   9.929   5.328   4.749  0.5024  0.2337 -0.2386
  605MOL0     H79797   9.729   5.590   4.947  1.0143  0.5998 -0.6313
  605MOL0     H79798   9.702   5.512   5.101 -1.6582  1.6821  0.0786
  605MOL0     H79799   9.530   5.477   4.858  2.9657  1.0849 -1.3510
  605MOL0     H79800   9.483   5.544   5.010 -1.2996 -1.7031  1.1016
  605MOL0     H79801   9.482   5.337   5.122 -0.4566  0.4942  0.3178
  605MOL0     H79802   9.567   5.255   4.990  0.8087 -0.1110  0.9414
  605MOL0     H79803   9.295   5.383   4.960  1.5729  0.1505 -1.7782
  605MOL0     H79804   9.373   5.268   4.858  0.6029 -2.7453  0.8918
  605MOL0     H79805   9.309   5.182   5.145  1.3808 -0.7222 -0.2956
  605MOL0     H79806   9.345   5.088   4.998 -0.6944 -0.2172 -0.1588
  605MOL0     H79807   9.123   5.062   5.034 -1.4847 -0.7224 -2.8375
  605MOL0     H79808   9.158   5.171   4.887 -0.6721  2.5791 -0.1729
  605MOL0     H79809   9.092   5.297   5.150 -1.0938 -2.6079  1.8928
  605MOL0     H79810   9.062   5.359   4.991  1.2705 -1.0655 -1.7709
  605MOL0     H79811   8.884   5.161   5.134  2.7773 -0.1038  0.4382
  605MOL0     H79812   8.882   5.204   4.951  1.5493 -1.4600 -0.2956
  605MOL0     H79813   8.939   5.453   5.245  0.4232  0.8198 -0.0516
  605MOL0     H79814   8.792   5.639   5.347 -0.4008 -1.9211  0.8859
  605MOL0     H79815   8.621   5.647   5.312  0.2823 -1.4020  0.6432
  605MOL0     H79816   8.727   5.858   5.238  0.6260  1.5364 -2.3606
  605MOL0     H79817   8.688   5.775   5.099 -1.7846 -3.5393  0.2921
  605MOL0     H79818   8.930   5.692   5.081  2.5316  0.4705  0.3126
  605MOL0     H79819   8.927   5.863   5.077  1.1695  0.3973  0.7755
  605MOL0     H79820   8.957   5.796   5.354 -1.8932  2.0992 -1.9230
  605MOL0     H79821   9.064   5.879   5.255  1.3878 -0.5886 -1.1859
  605MOL0     H79822   9.256   5.907   5.308 -3.2147 -1.5433 -1.7482
  605MOL0     H79823   9.495   5.903   5.324 -1.9880  1.3159  3.2470
  605MOL0     H79824   9.807   6.067   5.285  0.6563  1.3697  0.3204
  605MOL0     H79825  10.029   6.154   5.241  0.8420 -0.3305 -2.0178
  605MOL0     H79826  10.337   5.876   5.166  3.5464  1.7098 -1.6404
  605MOL0     H79827  10.383   5.877   5.339  1.1322  0.9224 -0.3955
  605MOL0     H79828  10.463   6.129   5.277 -0.0074  1.1809 -0.6959
  605MOL0     H79829  10.454   6.064   5.111  1.1989 -1.3154  0.4800
  605MOL0     H79830  10.595   5.868   5.194 -2.2983 -0.3560  1.6442
  605MOL0     H79831  10.626   5.950   5.340 -1.6920 -1.3144  0.1769
  605MOL0     H79832  10.700   6.058   5.060  1.8186 -2.5900  0.3288
  605MOL0     H79833  10.713   6.157   5.208  0.9563 -0.6511  0.0275
  605MOL0     H79834  10.833   5.883   5.183  1.0277 -0.3739  4.3922
  605MOL0     H79835  10.861   5.993   5.313 -1.7144 -1.8481  0.0759
  605MOL0     H79836  10.974   6.148   5.168  1.0594  0.4596 -0.9277
  605MOL0     H79837  10.933   6.057   5.029 -1.1440  0.9848  0.3295
  605MOL0     H79838  11.058   5.908   5.263  1.2968  3.3066  1.3588
  605MOL0     H79839  11.080   5.871   5.087 -1.0030  0.0235 -0.8658
  605MOL0     H79840  11.213   6.108   5.228  1.3729 -1.2229  1.6727
  605MOL0     H79841  11.224   6.063   5.049 -0.2430  0.2632  0.0219
  605MOL0     H79842  10.178   5.761   5.345  1.6826  0.2144  0.7511
  605MOL0     H79843   9.969   5.687   5.401  2.9843  0.5275  0.8270
  605MOL0     H79844   9.497   5.476   5.334 -2.4759 -1.2678  2.0072
  605MOL0     H79845   9.262   5.481   5.270  0.7071 -1.2579 -0.2841
  605MOL0     H79846   9.932   5.526   5.131 -1.3917 -1.9298  0.3101
  605MOL0     H79847  10.176   5.547   5.129 -1.4978  3.1974 -0.6290
  605MOL0     H79848  10.556   5.817   4.951  0.3135  0.8902 -4.7084
  605MOL0     H79849  10.790   5.829   4.933 -2.6535  0.9103  1.2687
  605MOL0     H79850  11.047   5.451   4.865  0.9017  0.2873  0.5098
  605MOL0     H79851  11.003   5.490   5.042  0.3436  2.2732  1.4499
  605MOL0     H79852  11.184   5.681   4.917  0.9241 -0.4184  0.9055
  605MOL0     H79853  11.144   5.640   5.086 -2.2279  0.8893 -0.1497
  605MOL0     H79854  11.304   5.470   4.881  0.2011 -1.7719  0.8350
  605MOL0     H79855  11.260   5.425   5.044  1.4207 -2.0851 -2.2227
  605MOL0     H79856  11.439   5.673   4.966  4.8069  0.0591  1.9247
  605MOL0     H79857  11.410   5.638   5.129  1.2033  2.1438 -0.8375
  605MOL0     H79858  11.723   5.398   5.036 -0.8468 -0.8472 -1.9590
  605MOL0     H79859  10.800   5.392   4.883  1.0223 -0.1964  0.9835
  605MOL0     H79860  10.566   5.381   4.931 -0.6669  1.1565 -2.6815
  606MOL0     O79861   8.220   3.518  10.565  0.2484  0.0415 -0.2893
  606MOL0     C79862   8.134   3.535  10.650  0.0647 -0.3970  0.8196
  606MOL0     O79863   8.127   3.468  10.772  0.9028 -0.2950  0.9881
  606MOL0     C79864   8.227   3.387  10.807 -0.5774  0.4558  0.9368
  606MOL0     C79865   8.275   3.390  10.943  0.1253 -0.9877  0.1440
  606MOL0     C79866   8.386   3.310  10.975  0.3851  0.1825 -0.1897
  606MOL0     C79867   8.442   3.219  10.878 -0.0772  0.3169  0.5223
  606MOL0     O79868   8.554   3.141  10.888 -0.3175 -0.2047  0.0604
  606MOL0     C79869   8.631   3.169  11.009  0.2444  0.7511  0.1893
  606MOL0     C79870   8.762   3.089  11.012  0.3265 -0.1732  0.1475
  606MOL0     C79871   8.735   2.937  11.012 -0.4741 -0.1186 -0.1278
  606MOL0     C79872   8.859   2.843  11.025  0.1043 -0.2145 -0.4581
  606MOL0     C79873   8.828   2.692  11.009  0.7660  0.6222  0.9733
  606MOL0     C79874   8.739   2.628  11.119 -0.1860 -0.7165  0.0870
  606MOL0     C79875   8.711   2.479  11.094 -0.8840  0.4667  0.0386
  606MOL0     C79876   8.619   2.429  11.208 -0.4481  0.5639  0.9865
  606MOL0     N79877   8.691   2.433  11.336  0.6459  0.0572  0.2138
  606MOL0     C79878   8.635   2.365  11.444  0.4317 -0.2296  0.4025
  606MOL0     C79879   8.735   2.350  11.532 -0.5539  0.1147  0.1122
  606MOL0     C79880   8.726   2.285  11.667  0.3615  0.3710  0.3432
  606MOL0     C79881   8.652   2.377  11.761  0.5698  0.2889 -0.2713
  606MOL0     C79882   8.561   2.308  11.863  0.5252  0.5749  0.3145
  606MOL0     C79883   8.464   2.416  11.914  0.2866 -0.1129 -0.3275
  606MOL0     O79884   8.392   2.375  12.038  0.6572 -0.0907  0.3745
  606MOL0     C79885   8.287   2.287  12.033 -0.9525 -0.1891  0.6897
  606MOL0     C79886   8.240   2.228  11.916  0.4552 -0.1646 -0.1639
  606MOL0     C79887   8.136   2.137  11.915  0.5414 -0.4140 -0.9731
  606MOL0     C79888   8.091   2.079  12.038  0.4323 -0.9198 -0.0436
  606MOL0     C79889   7.984   1.985  12.033 -0.0309  0.0183  0.4692
  606MOL0     O79890   7.891   2.019  11.955  0.5943 -0.5113  0.1527
  606MOL0     C79891   7.783   1.939  11.930 -0.3721  0.2558  0.2145
  606MOL0     C79892   7.716   1.881  12.038 -0.3574  0.5442  0.4635
  606MOL0     C79893   7.602   1.798  12.017  0.2974  0.2432 -0.1794
  606MOL0     C79894   7.556   1.776  11.890 -0.3687  0.5779 -0.1314
  606MOL0     O79895   7.441   1.707  11.885 -0.1050  0.9471  0.5937
  606MOL0     C79896   7.347   1.739  11.778  0.5393  0.0738  0.2902
  606MOL0     C79897   7.209   1.710  11.841 -0.3593  0.1347 -0.0613
  606MOL0     C79898   7.107   1.729  11.734 -0.2885  0.3492  0.6467
  606MOL0     C79899   6.971   1.717  11.796 -0.4290 -0.2815 -0.3945
  606MOL0     C79900   6.935   1.592  11.882 -0.2764  0.4172 -0.3337
  606MOL0     C79901   6.792   1.581  11.904  0.1035  0.2982  0.0668
  606MOL0     C79902   6.722   1.689  11.986 -0.1328  0.2369  0.0691
  606MOL0     C79903   6.572   1.670  11.993 -0.1914  0.3211  0.2176
  606MOL0    Cl79904   6.490   1.802  12.062 -0.4215 -0.1000 -0.0129
  606MOL0     C79905   7.620   1.837  11.781 -0.4213 -0.7169  0.7609
  606MOL0     C79906   7.727   1.918  11.803 -0.4140 -1.0692  0.7329
  606MOL0     O79907   8.003   1.877  12.089  0.0791  1.0317 -0.5100
  606MOL0     C79908   8.152   2.126  12.155  0.4851 -0.7059 -0.2993
  606MOL0     C79909   8.248   2.231  12.154 -0.0298  0.4831  0.5813
  606MOL0     N79910   8.857   2.400  11.475 -0.8692 -0.3685 -0.0791
  606MOL0     N79911   8.827   2.430  11.348  0.6342  0.0151  0.2810
  606MOL0     C79912   8.370   3.199  10.760  0.9531 -1.0392 -0.7362
  606MOL0     C79913   8.268   3.283  10.722 -0.5823 -0.4899 -0.4635
  606MOL0     C79914   8.017   3.624  10.612 -0.7855  1.1389  0.2197
  606MOL0     C79915   7.928   3.663  10.710 -0.9786  0.5307  0.5773
  606MOL0     C79916   7.817   3.739  10.678 -0.3994 -1.0757 -0.9307
  606MOL0     C79917   7.807   3.799  10.558  0.1862  0.3602  0.7278
  606MOL0     O79918   7.710   3.897  10.556 -0.0893 -0.1959 -0.7939
  606MOL0     C79919   7.620   3.904  10.449 -0.0217  0.5530  1.2642
  606MOL0     C79920   7.556   4.034  10.445 -0.5442  0.2976 -0.6451
  606MOL0     C79921   7.443   4.055  10.546  0.4494 -0.2926  0.6879
  606MOL0     C79922   7.427   4.204  10.583 -0.4812  0.6115 -0.3180
  606MOL0     C79923   7.311   4.239  10.664 -0.6783 -0.3295  0.5615
  606MOL0     C79924   7.223   4.273  10.738 -0.1707 -0.3420 -0.2916
  606MOL0     C79925   7.902   3.758  10.454  0.6626  0.2828 -0.8860
  606MOL0     C79926   8.004   3.673  10.481  0.1569  0.3533 -0.1799
  606MOL0     H79927   8.229   3.454  11.018  2.2584  1.3745 -0.4259
  606MOL0     H79928   8.426   3.324  11.075  0.6673  0.6169 -0.3578
  606MOL0     H79929   8.562   3.148  11.092 -0.0185 -1.2084 -0.4789
  606MOL0     H79930   8.662   3.273  11.003  2.8890 -0.0647 -2.2085
  606MOL0     H79931   8.812   3.106  11.108  4.3942 -0.4141 -1.7150
  606MOL0     H79932   8.824   3.113  10.925 -0.7315 -0.9626 -0.8683
  606MOL0     H79933   8.677   2.920  10.920 -0.8391  1.4207 -0.2191
  606MOL0     H79934   8.665   2.920  11.094  1.2120 -0.9039  1.2025
  606MOL0     H79935   8.927   2.866  10.943  1.4402 -0.1366  0.6362
  606MOL0     H79936   8.914   2.866  11.117  0.6719  0.1590 -0.8852
  606MOL0     H79937   8.923   2.639  11.007  0.5084 -0.0732 -3.9521
  606MOL0     H79938   8.782   2.682  10.910  2.0682  3.2253  0.0102
  606MOL0     H79939   8.648   2.685  11.138  1.0705  0.4174  3.6033
  606MOL0     H79940   8.792   2.647  11.213 -0.3314 -0.0441  0.0354
  606MOL0     H79941   8.663   2.471  10.996  0.7330  1.4329 -0.8851
  606MOL0     H79942   8.810   2.433  11.091 -1.7423 -1.4507 -0.1467
  606MOL0     H79943   8.592   2.327  11.178 -0.5168  0.9096 -0.1972
  606MOL0     H79944   8.525   2.484  11.208  0.2098  1.7145  1.8063
  606MOL0     H79945   8.539   2.317  11.455  0.4536 -0.5497 -0.6968
  606MOL0     H79946   8.833   2.282  11.690  0.9047  3.3990 -1.2925
  606MOL0     H79947   8.692   2.181  11.667  0.4610  0.3374  0.0596
  606MOL0     H79948   8.598   2.451  11.701  0.4894  0.2301 -0.2720
  606MOL0     H79949   8.726   2.435  11.816 -0.5612  2.6817 -1.1140
  606MOL0     H79950   8.512   2.224  11.813  0.5518  1.3244 -1.0157
  606MOL0     H79951   8.623   2.276  11.948 -0.9508  0.3855  1.3474
  606MOL0     H79952   8.389   2.438  11.837 -0.9319 -0.6044  0.6896
  606MOL0     H79953   8.513   2.511  11.935 -0.7067  0.2456  0.4103
  606MOL0     H79954   8.289   2.261  11.825 -2.2419  3.0102 -0.6628
  606MOL0     H79955   8.089   2.096  11.826  0.7455  1.3189 -1.9257
  606MOL0     H79956   7.756   1.887  12.139  0.8015 -1.1410  0.1568
  606MOL0     H79957   7.538   1.756  12.093 -2.5083  0.1748 -2.4121
  606MOL0     H79958   7.367   1.670  11.696  1.8291  0.7339  0.0320
  606MOL0     H79959   7.361   1.844  11.750 -1.8697  1.1907  2.8231
  606MOL0     H79960   7.174   1.781  11.916 -0.0904 -0.2123  0.3982
  606MOL0     H79961   7.200   1.612  11.889  0.1894 -0.9137 -1.9807
  606MOL0     H79962   7.130   1.659  11.653  0.2122 -3.0310  3.5084
  606MOL0     H79963   7.114   1.828  11.686 -0.9516 -0.1461 -0.5070
  606MOL0     H79964   6.959   1.802  11.864  2.0596 -0.6024  0.5293
  606MOL0     H79965   6.894   1.727  11.719 -3.4768  1.5814  2.5871
  606MOL0     H79966   6.991   1.593  11.976  0.9562  0.6000 -1.0496
  606MOL0     H79967   6.973   1.505  11.828 -2.2698 -0.0952 -0.9963
  606MOL0     H79968   6.769   1.485  11.951  1.1506 -0.4553 -0.9241
  606MOL0     H79969   6.745   1.570  11.806 -2.2307 -0.3536  1.1749
  606MOL0     H79970   6.761   1.690  12.088 -0.8615 -1.9137  0.4137
  606MOL0     H79971   6.737   1.789  11.944 -3.2330  0.4199 -0.8369
  606MOL0     H79972   6.553   1.583  12.057 -0.0810  0.0173 -0.1548
  606MOL0     H79973   6.529   1.657  11.893 -1.9818  2.5632  0.6138
  606MOL0     H79974   7.581   1.823  11.681  1.6733  1.5097 -0.4437
  606MOL0     H79975   7.780   1.972  11.725 -0.9637  1.2993  1.8987
  606MOL0     H79976   8.107   2.098  12.250  0.3925 -1.0897 -0.4531
  606MOL0     H79977   8.277   2.263  12.253  0.7619 -1.6368  1.0803
  606MOL0     H79978   8.392   3.122  10.686 -0.9542  1.7401 -4.5420
  606MOL0     H79979   8.225   3.272  10.623  2.6115  0.0606 -2.0269
  606MOL0     H79980   7.928   3.637  10.816 -2.5550  0.7588  0.6474
  606MOL0     H79981   7.752   3.762  10.763 -0.1171  0.8421 -1.1992
  606MOL0     H79982   7.544   3.825  10.452  0.9987 -0.4627  1.2568
  606MOL0     H79983   7.670   3.900  10.352 -1.5875  1.3362  0.3766
  606MOL0     H79984   7.642   4.102  10.445  1.9543 -2.6627 -0.8396
  606MOL0     H79985   7.512   4.037  10.345  2.2502 -0.4937 -2.0147
  606MOL0     H79986   7.467   4.023  10.647 -0.5708  1.8576  1.6857
  606MOL0     H79987   7.347   4.011  10.516  1.8843 -0.7561 -4.0839
  606MOL0     H79988   7.518   4.236  10.634 -1.0087  0.3435  0.8404
  606MOL0     H79989   7.428   4.256  10.487  2.1076 -0.2402 -0.8482
  606MOL0     H79990   7.139   4.301  10.800 -1.1708  2.1720 -2.6041
  606MOL0     H79991   7.886   3.791  10.352 -1.8199 -0.1509 -0.7061
  606MOL0     H79992   8.062   3.625  10.402  0.8364 -2.2100  1.7548
  607MOL0     O79993   1.054  10.719   1.464  1.4639 -0.0952 -0.1862
  607MOL0     C79994   1.085  10.644   1.374 -0.4662 -0.0617  0.3564
  607MOL0     O79995   1.008  10.556   1.311 -0.7553  0.1334  0.3690
  607MOL0     C79996   0.865  10.535   1.326 -0.0025  0.5382 -0.0309
  607MOL0     C79997   0.784  10.587   1.426  0.5002  0.1373 -0.3179
  607MOL0     C79998   0.641  10.564   1.430  0.9686 -0.6400  1.1206
  607MOL0     C79999   0.589  10.470   1.343 -0.0744 -0.1760  0.7259
  607MOL0     O80000   0.459  10.426   1.347  0.5173 -0.7336  0.2388
  607MOL0     C80001   0.367  10.487   1.444  0.2191  0.6365 -0.0755
  607MOL0     C80002   0.378  10.402   1.580  0.5657 -0.9345 -0.5013
  607MOL0     C80003   0.246  10.409   1.665 -1.6329 -0.1827  0.4155
  607MOL0     C80004   0.250  10.328   1.803  0.0390 -0.6973 -0.2079
  607MOL0     C80005   0.107  10.339   1.866  0.6361  0.1883  0.3831
  607MOL0     C80006   0.004  10.251   1.782 -0.2722  0.0770 -0.0214
  607MOL0     C80007  -0.114  10.205   1.867  0.1354  0.3608 -0.1464
  607MOL0     C80008  -0.086  10.112   1.986 -0.0061 -0.4158 -0.1464
  607MOL0     N80009  -0.204  10.023   2.005 -0.7494 -0.3707  0.1997
  607MOL0     C80010  -0.334  10.064   1.995 -0.3554 -0.1732 -0.2408
  607MOL0     C80011  -0.408   9.983   2.074 -0.1855  0.0192  0.2896
  607MOL0     C80012  -0.550   9.984   2.103  0.1306 -0.1314  0.9537
  607MOL0     C80013  -0.586  10.040   2.243 -0.6111  0.4632  0.5712
  607MOL0     C80014  -0.733  10.067   2.274 -0.4407  0.9232 -0.4054
  607MOL0     C80015  -0.809   9.935   2.246  0.5257 -0.3631 -0.0580
  607MOL0     O80016  -0.948   9.974   2.271 -1.3237 -0.2044  0.3886
  607MOL0     C80017  -1.056   9.916   2.200 -0.1799  0.7092 -0.2598
  607MOL0     C80018  -1.171   9.987   2.199  0.3889  0.4790  0.0325
  607MOL0     C80019  -1.286   9.935   2.129  0.3790 -1.2204 -0.6168
  607MOL0     C80020  -1.279   9.822   2.048  0.3064 -0.6189  0.1603
  607MOL0     C80021  -1.384   9.798   1.945 -0.2960 -0.0048  0.2399
  607MOL0     O80022  -1.366   9.701   1.852  0.6867 -0.1482 -0.0771
  607MOL0     C80023  -1.452   9.709   1.738  0.0290 -1.3176  0.4993
  607MOL0     C80024  -1.526   9.599   1.689 -1.1647 -0.7611  0.4354
  607MOL0     C80025  -1.606   9.611   1.574 -0.1393  0.2685 -0.2846
  607MOL0     C80026  -1.617   9.730   1.501 -0.2062 -0.4343  0.1110
  607MOL0     O80027  -1.696   9.755   1.386 -0.1102  0.3907 -0.5949
  607MOL0     C80028  -1.649   9.674   1.275 -0.2137  0.3831  0.5518
  607MOL0     C80029  -1.744   9.682   1.146  0.1635 -0.4014 -1.2180
  607MOL0     C80030  -1.888   9.651   1.173  0.6791 -0.2898  1.1853
  607MOL0     C80031  -1.989   9.684   1.058 -0.1885  0.2454 -0.0111
  607MOL0     C80032  -2.054   9.564   0.995 -0.0750  0.5826 -0.5963
  607MOL0     C80033  -2.156   9.592   0.882 -0.1578  0.2312 -0.2454
  607MOL0     C80034  -2.283   9.674   0.909 -0.4484 -0.8703 -0.6087
  607MOL0     C80035  -2.374   9.614   1.008  0.1846 -0.3836 -0.2966
  607MOL0    Cl80036  -2.535   9.696   0.979 -0.1642 -0.4100  0.4729
  607MOL0     C80037  -1.542   9.837   1.547 -0.5154  0.3824  0.1205
  607MOL0     C80038  -1.463   9.828   1.663 -0.2691 -0.1574  0.5947
  607MOL0     O80039  -1.480   9.878   1.940 -0.5030 -0.6225 -0.1666
  607MOL0     C80040  -1.155   9.759   2.042  0.1293 -0.2551  0.0152
  607MOL0     C80041  -1.037   9.798   2.116 -0.9092  0.1061  0.1430
  607MOL0     N80042  -0.325   9.878   2.117  0.4638 -0.8674  0.2564
  607MOL0     N80043  -0.205   9.909   2.084 -0.0100 -0.4960  0.0413
  607MOL0     C80044   0.671  10.412   1.249 -0.1614  1.5445  0.1294
  607MOL0     C80045   0.804  10.444   1.233 -0.0588  0.4005  0.1046
  607MOL0     C80046   1.230  10.640   1.339  0.6680 -0.5589 -0.4618
  607MOL0     C80047   1.320  10.727   1.409 -0.2899  0.2702 -0.5134
  607MOL0     C80048   1.458  10.719   1.378  1.3389  0.7248 -0.4813
  607MOL0     C80049   1.503  10.625   1.287  0.5409 -0.2827  0.0237
  607MOL0     O80050   1.634  10.613   1.259  0.1377  0.4091  0.1787
  607MOL0     C80051   1.725  10.687   1.341  0.4884  0.4529 -0.2806
  607MOL0     C80052   1.865  10.643   1.302 -0.5923 -0.9763 -0.8066
  607MOL0     C80053   1.978  10.684   1.398  0.7535  0.0642  0.4129
  607MOL0     C80054   2.109  10.658   1.326  0.0050 -0.2137  0.4966
  607MOL0     C80055   2.225  10.726   1.378  0.2521 -0.3154 -0.8062
  607MOL0     C80056   2.329  10.776   1.406  0.3339  0.2114  0.6231
  607MOL0     C80057   1.416  10.542   1.209  0.2239  0.8410 -0.8741
  607MOL0     C80058   1.276  10.548   1.237  0.2973  0.2748 -0.2363
  607MOL0     H80059   0.826  10.640   1.511  1.7106 -0.9910 -0.1892
  607MOL0     H80060   0.584  10.608   1.511  1.4368  1.6782  0.2737
  607MOL0     H80061   0.266  10.466   1.408 -0.5711 -0.2220  2.4374
  607MOL0     H80062   0.381  10.594   1.464 -0.6467  1.1553 -2.0157
  607MOL0     H80063   0.457  10.450   1.639  0.8395 -0.4456 -1.2502
  607MOL0     H80064   0.415  10.300   1.570 -0.1197 -1.2724  0.3020
  607MOL0     H80065   0.168  10.350   1.615 -1.4230 -1.0850  1.1229
  607MOL0     H80066   0.219  10.514   1.671 -0.1517  0.2666 -0.2419
  607MOL0     H80067   0.276  10.222   1.797  0.8677 -0.6017  1.2758
  607MOL0     H80068   0.316  10.370   1.880 -2.9182  1.9352  1.1040
  607MOL0     H80069   0.070  10.442   1.875  0.3954  0.1848 -0.4686
  607MOL0     H80070   0.111  10.313   1.972  4.4268 -0.3686  0.2319
  607MOL0     H80071   0.049  10.162   1.738  0.9085 -0.8562  2.8136
  607MOL0     H80072  -0.025  10.317   1.700  1.1285  0.1584 -0.4758
  607MOL0     H80073  -0.175  10.287   1.906 -0.8616 -1.2016  1.7359
  607MOL0     H80074  -0.180  10.151   1.798  0.9026 -0.2317 -0.4355
  607MOL0     H80075  -0.067  10.162   2.082 -1.3269  0.4796 -0.3205
  607MOL0     H80076   0.004  10.054   1.967  1.2477  0.9602  1.2728
  607MOL0     H80077  -0.379  10.147   1.941 -2.4491 -2.5376 -2.4519
  607MOL0     H80078  -0.585   9.880   2.094  1.1923 -0.6225  2.0825
  607MOL0     H80079  -0.600  10.039   2.024  2.1654  0.5538  0.0706
  607MOL0     H80080  -0.532  10.134   2.256  0.1772  0.0735  0.2188
  607MOL0     H80081  -0.552   9.960   2.310 -0.8547 -0.8504 -0.8256
  607MOL0     H80082  -0.742  10.101   2.377 -0.9274 -3.4415  1.2114
  607MOL0     H80083  -0.772  10.149   2.213  1.6036  1.6144 -0.8385
  607MOL0     H80084  -0.785   9.854   2.315 -3.0736 -1.5567 -0.0180
  607MOL0     H80085  -0.782   9.895   2.148  0.7489 -0.0773 -0.1192
  607MOL0     H80086  -1.183  10.073   2.264 -2.4399  1.6833 -1.9172
  607MOL0     H80087  -1.374   9.994   2.150  0.4283 -1.3668  0.0355
  607MOL0     H80088  -1.523   9.514   1.756 -0.6982 -1.4337 -0.4224
  607MOL0     H80089  -1.668   9.527   1.544 -1.1565  1.0846 -0.5737
  607MOL0     H80090  -1.651   9.568   1.301 -0.7797  0.1934 -0.2145
  607MOL0     H80091  -1.552   9.714   1.246 -1.5474  1.7605 -2.4727
  607MOL0     H80092  -1.710   9.611   1.070 -0.2584 -1.4771 -0.4171
  607MOL0     H80093  -1.733   9.785   1.110  2.1793 -0.7250 -1.6303
  607MOL0     H80094  -1.923   9.709   1.259 -2.5648  2.1199 -1.4567
  607MOL0     H80095  -1.903   9.546   1.196  0.4871 -1.3507 -2.9779
  607MOL0     H80096  -2.078   9.734   1.098 -0.3595 -0.5403  0.6013
  607MOL0     H80097  -1.942   9.745   0.980  0.6604 -2.5283 -1.7763
  607MOL0     H80098  -2.108   9.509   1.073  0.3857 -1.8643 -1.8894
  607MOL0     H80099  -1.967   9.508   0.959  0.1600 -1.2927  2.5133
  607MOL0     H80100  -2.183   9.500   0.830 -0.5329  1.6906 -2.7979
  607MOL0     H80101  -2.102   9.652   0.808  1.9001 -1.1725  0.0206
  607MOL0     H80102  -2.260   9.772   0.951  0.9878 -0.4585 -2.2373
  607MOL0     H80103  -2.328   9.677   0.810 -0.5467 -0.0151 -0.5394
  607MOL0     H80104  -2.336   9.640   1.107 -3.0426  1.7413  0.5156
  607MOL0     H80105  -2.395   9.507   1.000 -1.8387 -0.0520  0.0194
  607MOL0     H80106  -1.559   9.932   1.497  0.6658  0.7975  0.4705
  607MOL0     H80107  -1.406   9.918   1.687  1.6367 -1.2579  0.4312
  607MOL0     H80108  -1.143   9.674   1.976 -1.1179  0.0441 -0.6379
  607MOL0     H80109  -0.940   9.750   2.124 -1.6410 -1.1690  1.8537
  607MOL0     H80110   0.634  10.335   1.183 -0.9958  1.5831  0.5310
  607MOL0     H80111   0.865  10.400   1.154  2.0993 -1.4247  2.6190
  607MOL0     H80112   1.284  10.790   1.489 -0.5369 -0.3046 -0.1652
  607MOL0     H80113   1.526  10.793   1.418  2.2281  0.2590 -1.0979
  607MOL0     H80114   1.702  10.679   1.448  1.9360 -0.5961 -0.0185
  607MOL0     H80115   1.725  10.795   1.320 -1.0098  1.4221  3.7753
  607MOL0     H80116   1.872  10.535   1.290  1.1523 -1.1284  1.0637
  607MOL0     H80117   1.881  10.686   1.203 -1.1673  0.0565 -0.4751
  607MOL0     H80118   1.982  10.613   1.481  0.7372 -1.1418 -0.5920
  607MOL0     H80119   1.962  10.790   1.424 -1.0265  0.2853 -1.4213
  607MOL0     H80120   2.142  10.557   1.349  2.9042  0.1168 -1.6415
  607MOL0     H80121   2.096  10.651   1.218  1.5756 -1.1481  0.3385
  607MOL0     H80122   2.417  10.824   1.444  2.1052 -2.3458 -0.0108
  607MOL0     H80123   1.462  10.471   1.141 -0.3896  1.0322 -1.4873
  607MOL0     H80124   1.203  10.484   1.189 -1.5036  2.2399 -0.2710
  608MOL0     O80125   3.053   3.082   3.434 -0.4732  0.3341  0.5698
  608MOL0     C80126   3.144   3.120   3.507  0.6167 -0.2342  0.0020
  608MOL0     O80127   3.125   3.154   3.639  0.6231  0.1724  0.1249
  608MOL0     C80128   3.003   3.119   3.705  0.1503  0.1562  0.7489
  608MOL0     C80129   2.936   3.000   3.685 -0.2895 -0.0404  0.3990
  608MOL0     C80130   2.829   2.965   3.761  0.0019 -1.3656 -1.1021
  608MOL0     C80131   2.791   3.032   3.876 -0.2307 -0.1318 -0.9180
  608MOL0     O80132   2.696   2.978   3.955  0.6807  0.1241 -0.8428
  608MOL0     C80133   2.652   3.056   4.064  0.6622 -0.0525 -0.0950
  608MOL0     C80134   2.543   2.977   4.136  0.0419  0.6669  0.3293
  608MOL0     C80135   2.604   2.875   4.230 -0.9395  0.1534  0.7322
  608MOL0     C80136   2.510   2.829   4.341  0.1836 -0.3069  0.3649
  608MOL0     C80137   2.582   2.743   4.453  0.1288 -0.3031 -0.1974
  608MOL0     C80138   2.485   2.672   4.556  0.1952  1.2610  0.3929
  608MOL0     C80139   2.367   2.600   4.495 -0.3538  0.2193  0.1537
  608MOL0     C80140   2.303   2.503   4.592 -0.3266 -0.1102  0.8422
  608MOL0     N80141   2.253   2.575   4.716 -0.2057  0.6267 -0.3466
  608MOL0     C80142   2.296   2.551   4.840  0.5085 -0.1997  0.2622
  608MOL0     C80143   2.229   2.637   4.917 -0.1401  0.7930 -0.0503
  608MOL0     C80144   2.248   2.655   5.066 -0.3938  0.3232  0.1821
  608MOL0     C80145   2.200   2.540   5.149 -0.7157  0.2564  0.3260
  608MOL0     C80146   2.051   2.533   5.164 -0.2103  0.5482  0.0152
  608MOL0     C80147   2.008   2.478   5.302 -0.6912  0.3047 -0.3715
  608MOL0     O80148   1.966   2.579   5.391 -0.3233  0.5573  0.4770
  608MOL0     C80149   1.869   2.550   5.483 -0.1612 -0.1540  0.6187
  608MOL0     C80150   1.819   2.430   5.524 -0.2391  0.7187 -0.0097
  608MOL0     C80151   1.706   2.419   5.607  0.4830 -0.5757  0.1204
  608MOL0     C80152   1.643   2.532   5.643 -0.1618 -0.3185  1.0225
  608MOL0     C80153   1.531   2.522   5.730 -0.6428  0.3565 -0.4381
  608MOL0     O80154   1.470   2.405   5.746 -0.3586  0.0998  0.0964
  608MOL0     C80155   1.378   2.390   5.848 -0.0292  0.1756 -0.8336
  608MOL0     C80156   1.281   2.484   5.902 -0.1261  0.2373 -0.3781
  608MOL0     C80157   1.189   2.442   5.999 -0.3567  0.4893 -0.3722
  608MOL0     C80158   1.203   2.326   6.066  0.1177 -0.2586 -0.3464
  608MOL0     O80159   1.128   2.290   6.177  0.3601 -0.1053  0.6619
  608MOL0     C80160   1.004   2.353   6.208 -0.7973  0.5548 -0.2129
  608MOL0     C80161   0.924   2.275   6.312 -0.6988 -0.1823 -0.8669
  608MOL0     C80162   0.779   2.294   6.302  0.2716  0.3822  0.9241
  608MOL0     C80163   0.709   2.235   6.417  0.2072  0.7096 -0.1910
  608MOL0     C80164   0.561   2.231   6.401 -0.5213  0.7112 -0.0823
  608MOL0     C80165   0.476   2.173   6.513 -0.2701  0.3364 -0.0043
  608MOL0     C80166   0.328   2.176   6.484 -0.1301  0.0374  0.4634
  608MOL0     C80167   0.305   2.049   6.398 -0.7129  0.1112 -1.1505
  608MOL0    Cl80168   0.295   1.907   6.510 -0.1137 -0.0050  0.2555
  608MOL0     C80169   1.299   2.234   6.023 -0.3580  0.5597  0.8511
  608MOL0     C80170   1.386   2.269   5.917 -0.3667 -0.0689  0.0959
  608MOL0     O80171   1.494   2.629   5.777  0.2649 -0.1221  0.3040
  608MOL0     C80172   1.692   2.661   5.598  0.4651 -0.6754  0.1970
  608MOL0     C80173   1.804   2.669   5.516  0.3166 -0.6152  0.3179
  608MOL0     N80174   2.157   2.723   4.838 -0.8035 -0.4584  0.7108
  608MOL0     N80175   2.174   2.686   4.715  0.2041 -0.1604 -0.3451
  608MOL0     C80176   2.861   3.154   3.904 -0.0052  0.4454 -0.7034
  608MOL0     C80177   2.962   3.200   3.819 -0.2033  0.8401  0.1169
  608MOL0     C80178   3.280   3.129   3.461  0.5119  1.1251  1.3771
  608MOL0     C80179   3.312   3.062   3.346 -0.3679  0.4917  0.1037
  608MOL0     C80180   3.444   3.056   3.300 -0.5969 -0.3511 -0.4384
  608MOL0     C80181   3.542   3.137   3.367  0.6662 -0.0187 -0.3063
  608MOL0     O80182   3.670   3.143   3.326  1.2344 -0.5545  0.2495
  608MOL0     C80183   3.764   3.070   3.413  0.1331  0.5586 -0.2095
  608MOL0     C80184   3.769   2.921   3.394 -0.0172 -0.3587  0.8122
  608MOL0     C80185   3.860   2.842   3.486  0.1951 -0.1014  0.4615
  608MOL0     C80186   4.007   2.863   3.459 -0.3341  1.1068  0.0364
  608MOL0     C80187   4.058   2.952   3.560 -0.6935 -0.5098  0.4524
  608MOL0     C80188   4.102   3.016   3.649 -0.8292 -1.0352  0.4676
  608MOL0     C80189   3.505   3.209   3.480 -0.0654  0.7437 -0.5347
  608MOL0     C80190   3.379   3.195   3.531 -0.3523  0.4265  0.2849
  608MOL0     H80191   2.965   2.929   3.608  1.9023  0.8595  0.3265
  608MOL0     H80192   2.769   2.878   3.737 -1.9782 -0.1880 -0.6606
  608MOL0     H80193   2.608   3.154   4.046  0.1074  0.0700  1.7286
  608MOL0     H80194   2.734   3.069   4.135  0.7267 -1.5425  0.1512
  608MOL0     H80195   2.472   2.932   4.066  1.3778 -1.1166  0.0733
  608MOL0     H80196   2.478   3.046   4.191 -2.2021 -1.0754  0.0105
  608MOL0     H80197   2.693   2.917   4.277  0.4776 -2.0665  0.1856
  608MOL0     H80198   2.630   2.784   4.174  2.2084  1.6612 -0.4537
  608MOL0     H80199   2.459   2.917   4.382 -0.9934 -0.5995 -0.3973
  608MOL0     H80200   2.438   2.763   4.291 -1.2586  1.7057 -0.3797
  608MOL0     H80201   2.653   2.807   4.507  0.2750  0.4895 -1.3000
  608MOL0     H80202   2.644   2.669   4.403  2.1290 -0.5394  2.4271
  608MOL0     H80203   2.441   2.747   4.622 -2.1499  1.4369 -1.2609
  608MOL0     H80204   2.535   2.587   4.604  0.0054  1.6114  1.2276
  608MOL0     H80205   2.297   2.674   4.456  1.6363  1.2015 -1.8193
  608MOL0     H80206   2.407   2.544   4.409 -0.6751 -0.5488  0.4978
  608MOL0     H80207   2.369   2.418   4.611 -1.3626 -2.0537 -3.1614
  608MOL0     H80208   2.215   2.461   4.541 -0.1186  0.0296  0.3613
  608MOL0     H80209   2.360   2.470   4.876  1.2781  0.4553  0.3812
  608MOL0     H80210   2.195   2.749   5.085  0.3891  0.7375  0.3376
  608MOL0     H80211   2.357   2.663   5.069 -0.1979 -1.0031 -1.3548
  608MOL0     H80212   2.248   2.551   5.246  0.5696 -0.1034 -0.2472
  608MOL0     H80213   2.240   2.446   5.109  0.7769  0.4225  1.3628
  608MOL0     H80214   2.010   2.633   5.149 -1.0200 -0.0519 -2.2463
  608MOL0     H80215   2.014   2.467   5.085 -0.5527  0.2945  0.3819
  608MOL0     H80216   2.091   2.416   5.339  0.0259  0.8679 -0.9832
  608MOL0     H80217   1.931   2.403   5.286  2.0185 -2.7944 -0.0018
  608MOL0     H80218   1.866   2.341   5.484  1.3897  0.2331  2.7254
  608MOL0     H80219   1.666   2.324   5.639 -0.8348  0.8005  2.8863
  608MOL0     H80220   1.264   2.582   5.859  1.3403  0.1026 -1.3115
  608MOL0     H80221   1.122   2.521   6.031 -0.9029 -1.0079  2.5251
  608MOL0     H80222   0.940   2.366   6.120  0.4272  1.7978 -0.9590
  608MOL0     H80223   1.025   2.453   6.247  0.6592 -0.3163  1.3348
  608MOL0     H80224   0.959   2.304   6.411 -2.8492 -0.5962  0.0510
  608MOL0     H80225   0.941   2.167   6.307  0.2998 -0.1704  1.1766
  608MOL0     H80226   0.739   2.243   6.214 -3.1282 -0.0460  2.5594
  608MOL0     H80227   0.759   2.401   6.293  0.3463  0.2315 -1.9973
  608MOL0     H80228   0.749   2.133   6.423  0.8405  0.9041 -0.9753
  608MOL0     H80229   0.727   2.298   6.505 -1.0720 -0.6913  1.1211
  608MOL0     H80230   0.534   2.175   6.311 -2.3247  0.4032  0.6078
  608MOL0     H80231   0.527   2.332   6.378 -3.0493 -0.5138 -2.1208
  608MOL0     H80232   0.481   2.249   6.592 -0.9140  0.4573 -0.0707
  608MOL0     H80233   0.514   2.075   6.542 -2.5482 -0.6335 -0.1141
  608MOL0     H80234   0.261   2.174   6.571 -0.8679  0.9386 -0.0748
  608MOL0     H80235   0.311   2.272   6.435  2.3351  0.6624  0.6658
  608MOL0     H80236   0.380   2.037   6.319  4.3108 -0.5080  3.1062
  608MOL0     H80237   0.205   2.063   6.356 -1.4130 -0.1734  0.3353
  608MOL0     H80238   1.306   2.152   6.094 -1.3365  1.8091  2.4869
  608MOL0     H80239   1.464   2.201   5.882 -0.7315 -1.5995  2.0421
  608MOL0     H80240   1.646   2.759   5.608  1.0582 -0.3874  0.1351
  608MOL0     H80241   1.837   2.760   5.467 -1.7054 -0.4225 -0.7719
  608MOL0     H80242   2.841   3.212   3.994  0.3665 -1.8658  0.9680
  608MOL0     H80243   3.004   3.291   3.859 -0.4762  0.0553  2.2801
  608MOL0     H80244   3.245   3.007   3.281 -1.0712  3.6854 -2.0984
  608MOL0     H80245   3.478   2.990   3.221  3.3427  1.5266 -0.5513
  608MOL0     H80246   3.747   3.088   3.520 -0.0403 -0.8110  0.0194
  608MOL0     H80247   3.865   3.108   3.400  0.1004  0.2473 -1.4680
  608MOL0     H80248   3.665   2.890   3.401 -1.4203  3.2461 -1.3165
  608MOL0     H80249   3.802   2.891   3.294 -4.8206 -2.6654 -0.3523
  608MOL0     H80250   3.840   2.735   3.479  1.4780 -0.3235  0.0944
  608MOL0     H80251   3.834   2.866   3.590  1.4963  1.3793  0.4832
  608MOL0     H80252   4.057   2.767   3.476  0.1792  1.4479  0.4710
  608MOL0     H80253   4.026   2.901   3.358 -2.2224  0.3650 -0.6525
  608MOL0     H80254   4.148   3.056   3.737  0.8024 -0.4245 -0.6125
  608MOL0     H80255   3.577   3.270   3.533 -0.8471  0.6203  0.7167
  608MOL0     H80256   3.353   3.262   3.613  0.2471  0.3524  0.5431
  609MOL0     O80257   8.881   8.760   6.798 -0.1488  0.1890 -0.1805
  609MOL0     C80258   8.944   8.858   6.833 -0.0303 -1.0072 -0.1059
  609MOL0     O80259   8.893   8.987   6.854 -0.2541  0.4806 -0.4629
  609MOL0     C80260   8.761   9.007   6.824 -0.1911  0.1560 -0.0131
  609MOL0     C80261   8.665   9.041   6.918  0.4056  1.1103 -0.5741
  609MOL0     C80262   8.542   9.089   6.886 -0.2558 -0.2170  0.7559
  609MOL0     C80263   8.498   9.103   6.751  0.2378 -0.5474  0.0474
  609MOL0     O80264   8.381   9.163   6.722 -0.2863 -0.3296 -0.3305
  609MOL0     C80265   8.297   9.094   6.621  0.3089 -0.7876 -0.3936
  609MOL0     C80266   8.174   9.178   6.584 -0.6701 -0.2890  0.5981
  609MOL0     C80267   8.073   9.081   6.526 -0.4949  0.1038  0.4318
  609MOL0     C80268   7.930   9.142   6.486 -0.3005 -0.0773 -0.2687
  609MOL0     C80269   7.867   9.050   6.379 -0.8424 -0.5755  0.1053
  609MOL0     C80270   7.738   9.117   6.335  0.0819  0.2703  0.1011
  609MOL0     C80271   7.647   9.027   6.249  0.9755  0.3950 -0.0319
  609MOL0     C80272   7.526   9.111   6.212  0.5410 -0.0143 -0.3095
  609MOL0     N80273   7.457   9.056   6.095  0.2146 -0.0367 -0.6729
  609MOL0     C80274   7.412   9.129   5.987  0.9645 -0.6637 -0.3159
  609MOL0     C80275   7.337   9.038   5.919  0.3230  0.4177 -0.7512
  609MOL0     C80276   7.264   9.076   5.794  0.2094 -0.7634 -0.2880
  609MOL0     C80277   7.119   9.100   5.836  0.6440  0.4120 -0.1393
  609MOL0     C80278   7.024   9.116   5.714 -1.2428  0.1485  0.2442
  609MOL0     C80279   6.882   9.173   5.756 -0.4701  0.2008 -0.7098
  609MOL0     O80280   6.905   9.312   5.797 -0.5105 -0.2423 -0.9218
  609MOL0     C80281   6.798   9.362   5.858 -0.6647  0.1816 -1.1067
  609MOL0     C80282   6.826   9.472   5.933  0.3854 -0.5852  0.0235
  609MOL0     C80283   6.738   9.522   6.025  0.1533 -0.8853  0.4864
  609MOL0     C80284   6.604   9.480   6.016  0.4685 -0.0608 -0.6933
  609MOL0     C80285   6.498   9.545   6.096 -0.0839  0.2157  0.4602
  609MOL0     O80286   6.371   9.501   6.072  0.4418 -0.2048  0.3850
  609MOL0     C80287   6.259   9.532   6.144  0.5740  1.0624  0.3772
  609MOL0     C80288   6.232   9.653   6.197  0.4260 -1.0019  0.1460
  609MOL0     C80289   6.120   9.669   6.281 -0.3907 -0.7698 -0.3779
  609MOL0     C80290   6.032   9.558   6.303 -0.4134  0.2231  0.5788
  609MOL0     O80291   5.920   9.555   6.389  0.2833  0.3756  0.2042
  609MOL0     C80292   5.873   9.680   6.435  0.2892  0.1796  0.2477
  609MOL0     C80293   5.747   9.650   6.523 -0.2363 -0.4883  0.6903
  609MOL0     C80294   5.784   9.559   6.639  0.3010 -0.2976 -0.5646
  609MOL0     C80295   5.667   9.535   6.745 -0.5253 -0.1128  0.4949
  609MOL0     C80296   5.551   9.459   6.694 -0.1781  0.0631 -0.3109
  609MOL0     C80297   5.478   9.377   6.807  0.7224  0.2069  0.2682
  609MOL0     C80298   5.360   9.300   6.750  0.0738  0.9888 -0.7068
  609MOL0     C80299   5.280   9.231   6.863 -0.0979  0.8885  0.1719
  609MOL0    Cl80300   5.368   9.149   6.994  0.2464 -0.1239 -0.2893
  609MOL0     C80301   6.074   9.430   6.265  0.1920 -0.3625  0.5331
  609MOL0     C80302   6.185   9.413   6.177  0.3652  0.1471 -0.3699
  609MOL0     O80303   6.537   9.621   6.177  0.3410 -0.0855 -0.2520
  609MOL0     C80304   6.569   9.377   5.926  0.1536 -0.1242  0.2797
  609MOL0     C80305   6.666   9.311   5.850  0.0044  0.5051 -0.2313
  609MOL0     N80306   7.340   8.917   5.979 -0.6526 -0.1712  0.4231
  609MOL0     N80307   7.404   8.926   6.090  0.1163 -0.6393 -0.1162
  609MOL0     C80308   8.591   9.069   6.650 -0.7482  2.0104  0.2338
  609MOL0     C80309   8.722   9.023   6.688  0.6637 -0.2198  0.0218
  609MOL0     C80310   9.091   8.843   6.852  0.1361  0.0747 -0.1842
  609MOL0     C80311   9.162   8.937   6.923 -0.4386 -0.3275 -0.7202
  609MOL0     C80312   9.302   8.949   6.924  0.3917  0.4480 -0.1741
  609MOL0     C80313   9.374   8.844   6.856  0.3921 -0.3353  0.2421
  609MOL0     O80314   9.509   8.836   6.837 -0.2767  0.2696 -0.5433
  609MOL0     C80315   9.584   8.953   6.864 -0.7046 -1.1686 -0.5594
  609MOL0     C80316   9.735   8.928   6.818  0.0700  0.7580 -0.8604
  609MOL0     C80317   9.809   8.816   6.902 -0.2354 -0.2846  0.3937
  609MOL0     C80318   9.951   8.794   6.837  0.0877 -0.0660 -0.4115
  609MOL0     C80319   9.954   8.786   6.689 -0.4954  0.4368  0.1280
  609MOL0     C80320   9.958   8.767   6.569  0.5078 -0.7083 -0.5121
  609MOL0     C80321   9.305   8.737   6.794  0.0887  0.3958 -0.1021
  609MOL0     C80322   9.165   8.738   6.794  0.1390  0.5670  0.3440
  609MOL0     H80323   8.689   9.029   7.024 -0.4028  1.3626 -0.3506
  609MOL0     H80324   8.478   9.106   6.972 -1.6133 -1.0512 -0.0500
  609MOL0     H80325   8.265   9.006   6.679  2.0594  0.6829  3.1146
  609MOL0     H80326   8.356   9.077   6.530  1.1276 -1.6071  0.2618
  609MOL0     H80327   8.202   9.264   6.524  1.5205 -0.3785  1.3928
  609MOL0     H80328   8.137   9.233   6.671 -0.5545 -0.7459  0.9447
  609MOL0     H80329   8.048   8.999   6.595 -4.3815 -1.3034 -2.2626
  609MOL0     H80330   8.122   9.039   6.438  0.4646  4.7431 -1.5524
  609MOL0     H80331   7.863   9.134   6.571  0.7350  0.7685  0.6607
  609MOL0     H80332   7.933   9.246   6.452 -0.3419  0.7756  2.1846
  609MOL0     H80333   7.850   8.955   6.431 -0.7828 -1.0557 -0.7408
  609MOL0     H80334   7.939   9.040   6.297 -2.2201 -2.0117 -0.9861
  609MOL0     H80335   7.764   9.200   6.269  2.0825  0.1108  0.6351
  609MOL0     H80336   7.681   9.146   6.424 -2.0282 -1.8196 -0.4472
  609MOL0     H80337   7.696   8.994   6.156 -1.8828  0.1429 -1.5719
  609MOL0     H80338   7.619   8.938   6.306 -0.9718  1.5135  0.8521
  609MOL0     H80339   7.557   9.215   6.198  1.4797 -0.2561 -0.0618
  609MOL0     H80340   7.449   9.104   6.289 -0.6212 -1.8196 -1.5614
  609MOL0     H80341   7.424   9.235   5.969 -1.7278 -0.5780 -2.2943
  609MOL0     H80342   7.281   9.001   5.715  1.6634  0.6170 -1.3348
  609MOL0     H80343   7.308   9.163   5.745  0.6320 -1.8531 -1.9592
  609MOL0     H80344   7.101   9.184   5.904 -2.4735  0.0323 -0.3285
  609MOL0     H80345   7.076   9.012   5.885  0.7342 -0.0036 -0.7855
  609MOL0     H80346   7.055   9.184   5.635 -1.4592  1.0362  0.9130
  609MOL0     H80347   7.016   9.015   5.672  0.7546  1.3566 -3.5362
  609MOL0     H80348   6.828   9.110   5.828  0.5008  0.5538  0.3557
  609MOL0     H80349   6.813   9.178   5.671 -1.9786  2.8297  0.5350
  609MOL0     H80350   6.918   9.528   5.944 -1.4151  2.6512 -0.2885
  609MOL0     H80351   6.762   9.614   6.077 -1.2962  0.0215 -0.3657
  609MOL0     H80352   6.297   9.738   6.180 -0.5656 -0.4877 -1.3144
  609MOL0     H80353   6.108   9.768   6.323 -0.9302 -1.2525  0.6539
  609MOL0     H80354   5.843   9.742   6.350 -1.0979  1.5785  1.6968
  609MOL0     H80355   5.950   9.720   6.502  1.2440 -1.2720  0.0632
  609MOL0     H80356   5.673   9.592   6.466  0.1823 -0.2933 -0.0593
  609MOL0     H80357   5.701   9.741   6.561 -0.1155 -0.2527  0.2730
  609MOL0     H80358   5.866   9.613   6.687  0.6107 -2.2035  1.2028
  609MOL0     H80359   5.814   9.459   6.605 -0.9555 -1.1434  0.6779
  609MOL0     H80360   5.706   9.473   6.827 -0.2951 -0.6996 -0.0516
  609MOL0     H80361   5.636   9.633   6.782 -2.6824  0.1391 -1.7435
  609MOL0     H80362   5.567   9.387   6.613 -0.9568  0.4488 -0.8265
  609MOL0     H80363   5.482   9.534   6.653 -0.2757  0.6221  0.8364
  609MOL0     H80364   5.438   9.446   6.883 -1.4344  0.8043 -1.2989
  609MOL0     H80365   5.545   9.313   6.865 -0.7638  0.0156  1.8652
  609MOL0     H80366   5.293   9.368   6.695  0.1977 -0.4409 -2.7305
  609MOL0     H80367   5.394   9.216   6.689 -1.3238  0.2228 -0.4682
  609MOL0     H80368   5.214   9.154   6.822 -0.7110  1.3639  0.2485
  609MOL0     H80369   5.217   9.305   6.914  0.2623 -0.9029  3.5743
  609MOL0     H80370   6.023   9.341   6.301 -0.6719 -0.0051  0.2162
  609MOL0     H80371   6.221   9.314   6.150  1.7908 -0.2081  2.4475
  609MOL0     H80372   6.466   9.345   5.913  0.2751  0.4370 -2.7601
  609MOL0     H80373   6.637   9.229   5.785 -1.8365  1.1575 -0.2837
  609MOL0     H80374   8.559   9.085   6.547  3.2927  1.5811 -1.2654
  609MOL0     H80375   8.791   8.986   6.613  0.6074 -1.6623  0.6534
  609MOL0     H80376   9.107   9.019   6.969 -0.8923  0.2687 -2.2425
  609MOL0     H80377   9.351   9.025   6.984 -0.1290 -1.9259  3.5904
  609MOL0     H80378   9.571   8.999   6.962 -2.9319 -1.6480 -0.5822
  609MOL0     H80379   9.536   9.025   6.798 -0.1903  0.6715  1.0023
  609MOL0     H80380   9.737   8.911   6.710  1.2242 -1.2104 -0.5737
  609MOL0     H80381   9.782   9.025   6.837 -0.1210  0.9178 -1.2013
  609MOL0     H80382   9.757   8.721   6.915  0.1638 -0.2502  2.7654
  609MOL0     H80383   9.817   8.866   6.999 -1.9676  1.4707 -0.2974
  609MOL0     H80384  10.018   8.868   6.882 -1.7664  1.1927  0.4052
  609MOL0     H80385   9.981   8.694   6.869 -0.2374  0.1357  0.5211
  609MOL0     H80386   9.969   8.770   6.462  3.4746 -2.8451 -0.3736
  609MOL0     H80387   9.353   8.643   6.767  0.6720 -0.2021  2.7358
  609MOL0     H80388   9.118   8.645   6.764  1.2016 -1.1682  3.5964
  610MOL0     O80389   6.161   0.635   5.659 -0.0740 -0.1171 -0.3916
  610MOL0     C80390   6.209   0.587   5.764  0.4298  0.0264  0.2189
  610MOL0     O80391   6.136   0.525   5.861 -0.3674 -0.6642  0.1976
  610MOL0     C80392   6.006   0.479   5.837 -0.3359  0.1967 -0.2972
  610MOL0     C80393   5.916   0.481   5.948 -0.2335  0.3367  0.2871
  610MOL0     C80394   5.793   0.411   5.949  0.2760  0.1235  0.0070
  610MOL0     C80395   5.753   0.340   5.833 -0.7519 -0.1457 -0.5165
  610MOL0     O80396   5.650   0.260   5.816 -0.1429 -0.0839  0.2050
  610MOL0     C80397   5.603   0.189   5.932  0.2157  0.3817  0.0399
  610MOL0     C80398   5.571   0.035   5.906  0.1308 -0.4065  0.4816
  610MOL0     C80399   5.468   0.009   5.803 -0.2126  0.2756  0.2069
  610MOL0     C80400   5.433  -0.139   5.823  0.2267 -0.4654 -0.2563
  610MOL0     C80401   5.335  -0.187   5.725 -0.0737 -0.2576 -1.4826
  610MOL0     C80402   5.211  -0.116   5.724 -0.5719 -0.0835  0.1129
  610MOL0     C80403   5.105  -0.191   5.641 -1.1950 -0.7447 -0.6732
  610MOL0     C80404   4.969  -0.116   5.632 -0.5181  0.2033 -0.4830
  610MOL0     N80405   4.911  -0.169   5.511  0.6224  0.9012  0.1840
  610MOL0     C80406   4.947  -0.132   5.383 -0.4131  0.4031 -0.3188
  610MOL0     C80407   4.835  -0.146   5.313 -0.4122  0.3206 -0.1264
  610MOL0     C80408   4.835  -0.105   5.169  0.0740  0.4794  0.0952
  610MOL0     C80409   4.749   0.016   5.148 -0.4006 -0.0735 -0.2575
  610MOL0     C80410   4.778   0.078   5.006 -0.0033 -0.8763 -0.0407
  610MOL0     C80411   4.700   0.210   4.972  0.2961 -0.0679 -0.1151
  610MOL0     O80412   4.561   0.191   5.008  0.2692  0.2326 -0.1964
  610MOL0     C80413   4.468   0.276   4.975  0.0325  0.0375 -0.0535
  610MOL0     C80414   4.333   0.240   5.015 -0.1691  0.0986 -0.2540
  610MOL0     C80415   4.228   0.308   4.957 -0.4688 -0.5996  0.1249
  610MOL0     C80416   4.244   0.423   4.880 -0.4456  0.7478 -0.8356
  610MOL0     C80417   4.132   0.513   4.839  0.3000  0.5058 -0.6887
  610MOL0     O80418   4.013   0.491   4.898 -0.6227 -0.7850  0.2513
  610MOL0     C80419   3.913   0.565   4.847  0.3102  0.0552  0.4546
  610MOL0     C80420   3.857   0.517   4.732 -0.0409 -0.2107  1.1786
  610MOL0     C80421   3.756   0.593   4.665  0.5116 -0.0725 -0.0034
  610MOL0     C80422   3.691   0.703   4.732 -0.3050 -0.9880 -0.4341
  610MOL0     O80423   3.586   0.772   4.665  0.0461 -0.2234 -1.0634
  610MOL0     C80424   3.556   0.902   4.709  0.8051  0.2246 -1.1176
  610MOL0     C80425   3.443   0.952   4.609  0.1860  0.0465  0.8088
  610MOL0     C80426   3.302   0.897   4.653 -0.4120 -0.2241  0.2465
  610MOL0     C80427   3.188   0.958   4.572  0.6936  0.7667 -0.3084
  610MOL0     C80428   3.057   0.881   4.613  0.6948 -0.1904 -0.0819
  610MOL0     C80429   2.926   0.926   4.556  0.6607  0.2574  0.2112
  610MOL0     C80430   2.880   1.058   4.613  0.0722  0.3706  0.2847
  610MOL0     C80431   2.748   1.098   4.537 -0.7575  0.8789 -0.7752
  610MOL0    Cl80432   2.661   1.237   4.606  0.3904  0.5068  0.2053
  610MOL0     C80433   3.734   0.736   4.862  0.5007  0.2381 -0.1756
  610MOL0     C80434   3.849   0.663   4.918 -0.0746 -0.3434 -0.0809
  610MOL0     O80435   4.156   0.603   4.761 -0.3172 -0.5148  0.1390
  610MOL0     C80436   4.373   0.458   4.848 -0.3465 -0.3046 -0.1575
  610MOL0     C80437   4.486   0.385   4.891 -0.0602  0.7010  0.7306
  610MOL0     N80438   4.749  -0.229   5.384 -0.3787 -0.1966  0.2398
  610MOL0     N80439   4.784  -0.224   5.504 -0.6443  0.9544 -0.1111
  610MOL0     C80440   5.844   0.333   5.728 -0.2933 -0.3484  0.1683
  610MOL0     C80441   5.968   0.402   5.731 -0.5073  0.1070  1.0314
  610MOL0     C80442   6.353   0.588   5.782 -0.7043  1.2313  0.5303
  610MOL0     C80443   6.412   0.565   5.903  0.8486  0.5590  1.2224
  610MOL0     C80444   6.546   0.572   5.923  0.7791  0.8522 -0.7564
  610MOL0     C80445   6.633   0.596   5.812 -0.1087  0.7473 -0.1065
  610MOL0     O80446   6.770   0.616   5.846 -0.5829 -0.0540  0.4560
  610MOL0     C80447   6.858   0.669   5.747 -0.2968 -0.4693  0.4396
  610MOL0     C80448   7.006   0.660   5.797  0.7228 -0.2829  0.2654
  610MOL0     C80449   7.098   0.706   5.683  0.6800  0.2534 -0.2178
  610MOL0     C80450   7.219   0.760   5.743 -0.2011  0.4860 -0.2838
  610MOL0     C80451   7.292   0.673   5.839  0.3202 -0.0447  0.1008
  610MOL0     C80452   7.338   0.609   5.929 -0.0096 -0.0021 -0.5641
  610MOL0     C80453   6.571   0.614   5.684  0.2536  0.6623  0.3577
  610MOL0     C80454   6.437   0.618   5.670  0.3242  0.2188  0.3970
  610MOL0     H80455   5.956   0.525   6.039 -0.0912 -1.0016  0.8950
  610MOL0     H80456   5.734   0.404   6.039  2.4748 -0.3425  1.5128
  610MOL0     H80457   5.508   0.235   5.962 -0.6772 -0.4273 -1.4410
  610MOL0     H80458   5.675   0.187   6.015  0.5323  0.0486 -0.2393
  610MOL0     H80459   5.530   0.006   6.003 -1.2927  1.8462  0.6073
  610MOL0     H80460   5.664  -0.020   5.889  0.4085  0.0956  0.3536
  610MOL0     H80461   5.501   0.039   5.703 -0.6038  1.7375  0.4843
  610MOL0     H80462   5.383   0.074   5.828 -0.2741  0.5921 -0.7914
  610MOL0     H80463   5.525  -0.198   5.816  0.9423  0.1981  2.3121
  610MOL0     H80464   5.399  -0.154   5.926 -0.7233 -0.5044 -0.5682
  610MOL0     H80465   5.309  -0.292   5.744  0.3132 -0.5275 -2.3791
  610MOL0     H80466   5.382  -0.177   5.627 -1.0224  0.7411 -1.8560
  610MOL0     H80467   5.239  -0.021   5.677  0.1967 -1.1462 -1.7115
  610MOL0     H80468   5.175  -0.099   5.826  1.5475 -1.7672  1.2293
  610MOL0     H80469   5.150  -0.232   5.550  1.4295 -0.4363  0.4001
  610MOL0     H80470   5.098  -0.284   5.698 -0.3497  0.3781  1.4014
  610MOL0     H80471   4.998  -0.012   5.612 -2.3911  0.6913 -0.9071
  610MOL0     H80472   4.909  -0.134   5.721 -1.1180  1.3265 -0.6383
  610MOL0     H80473   5.040  -0.091   5.346  0.3909 -0.5800  0.5676
  610MOL0     H80474   4.788  -0.185   5.111  1.3181  1.5159 -2.5117
  610MOL0     H80475   4.931  -0.092   5.119  0.1883 -1.3313 -0.2222
  610MOL0     H80476   4.783   0.091   5.220 -1.7472  0.5285 -0.2291
  610MOL0     H80477   4.649   0.013   5.191  0.5853  3.3350  2.8054
  610MOL0     H80478   4.883   0.106   4.995  0.4163  0.1900  4.4546
  610MOL0     H80479   4.747   0.005   4.931  3.4580 -2.7146  0.1191
  610MOL0     H80480   4.711   0.229   4.865 -1.1944  0.6215 -0.1656
  610MOL0     H80481   4.754   0.302   5.000  1.1063  0.1641 -2.2746
  610MOL0     H80482   4.316   0.155   5.081  0.3388  1.5260  1.8118
  610MOL0     H80483   4.130   0.275   4.990 -0.3711 -0.5289  0.4867
  610MOL0     H80484   3.891   0.429   4.677  2.2186  0.9168  0.6459
  610MOL0     H80485   3.722   0.559   4.568  0.7217 -1.2376  0.3150
  610MOL0     H80486   3.644   0.968   4.713 -0.6706  2.2555 -0.6567
  610MOL0     H80487   3.502   0.902   4.804 -2.0796 -0.1435 -2.6638
  610MOL0     H80488   3.467   0.924   4.506 -1.0360  2.8539 -0.3290
  610MOL0     H80489   3.434   1.061   4.608 -2.0988 -0.0972  0.7449
  610MOL0     H80490   3.287   0.915   4.760 -1.9374  1.3264 -0.1821
  610MOL0     H80491   3.298   0.793   4.621 -2.6093 -0.0487 -0.1474
  610MOL0     H80492   3.168   1.062   4.598  0.6209  0.0594  2.8416
  610MOL0     H80493   3.217   0.956   4.466 -1.7192 -0.2010 -1.0297
  610MOL0     H80494   3.054   0.893   4.722 -3.4644 -1.9494  0.2195
  610MOL0     H80495   3.062   0.775   4.586  0.3366 -0.1135 -0.4742
  610MOL0     H80496   2.847   0.854   4.577  1.1250 -0.1513  0.6056
  610MOL0     H80497   2.928   0.933   4.447 -0.3634 -1.1441  0.0834
  610MOL0     H80498   2.862   1.051   4.721  1.1872  2.4227  0.6573
  610MOL0     H80499   2.945   1.146   4.605 -1.0868  1.1522 -1.1317
  610MOL0     H80500   2.684   1.011   4.555 -0.8847  1.2027  0.4313
  610MOL0     H80501   2.775   1.105   4.431 -1.6867  1.5448 -0.9831
  610MOL0     H80502   3.696   0.822   4.915 -1.7120 -1.7229  1.6536
  610MOL0     H80503   3.888   0.686   5.017 -0.6361 -0.3222  0.1413
  610MOL0     H80504   4.396   0.530   4.770 -0.2240  0.4133  0.5287
  610MOL0     H80505   4.583   0.423   4.863 -0.6480  0.9852 -1.0189
  610MOL0     H80506   5.812   0.264   5.650 -0.9381 -3.2973  2.8255
  610MOL0     H80507   6.040   0.388   5.651 -0.0610 -0.9152  1.5963
  610MOL0     H80508   6.345   0.552   5.987 -0.6441  0.8043  0.1229
  610MOL0     H80509   6.579   0.552   6.025 -1.5306 -1.2219 -0.3115
  610MOL0     H80510   6.829   0.774   5.740 -1.1135 -0.6424  0.9184
  610MOL0     H80511   6.841   0.624   5.649 -1.6088  1.1480 -0.1246
  610MOL0     H80512   7.019   0.717   5.889  0.9005 -2.2916  1.5638
  610MOL0     H80513   7.036   0.559   5.827 -2.9492 -1.4783  0.4812
  610MOL0     H80514   7.057   0.789   5.626 -0.5823  1.6963  2.6070
  610MOL0     H80515   7.111   0.618   5.619  0.5889 -0.0303  0.1466
  610MOL0     H80516   7.292   0.769   5.661 -2.2039 -2.5277 -2.6064
  610MOL0     H80517   7.199   0.851   5.800  2.7261 -0.3653  2.4008
  610MOL0     H80518   7.384   0.553   6.008  1.6955  3.8060  1.4313
  610MOL0     H80519   6.637   0.633   5.599  0.7416 -0.8908  0.3710
  610MOL0     H80520   6.398   0.653   5.575 -0.1029  2.9680  1.4995
  611MOL0     O80521   4.850   1.244   5.105  0.5022 -0.1121  0.3940
  611MOL0     C80522   4.813   1.126   5.109 -0.5310  0.2656  0.1550
  611MOL0     O80523   4.699   1.077   5.172 -0.3857  0.1659 -0.6162
  611MOL0     C80524   4.596   1.156   5.217 -0.0022 -0.1236  0.5887
  611MOL0     C80525   4.465   1.118   5.182  0.2723  0.2705  0.3408
  611MOL0     C80526   4.351   1.183   5.226  0.0735  0.2709 -0.0151
  611MOL0     C80527   4.350   1.309   5.288 -0.5871  1.2255 -0.0898
  611MOL0     O80528   4.230   1.366   5.323  0.0347 -0.1567 -0.2668
  611MOL0     C80529   4.106   1.343   5.253 -0.0508  0.2264  0.6324
  611MOL0     C80530   4.013   1.470   5.262 -1.1582 -0.5194 -0.5618
  611MOL0     C80531   3.870   1.425   5.257 -0.1224 -0.5154 -0.2610
  611MOL0     C80532   3.780   1.550   5.261  0.2123 -0.3530 -0.5664
  611MOL0     C80533   3.633   1.510   5.261  0.7660  0.2805 -0.0655
  611MOL0     C80534   3.545   1.639   5.270  0.3163 -0.1575 -0.1613
  611MOL0     C80535   3.401   1.613   5.248  0.5019 -0.6258 -0.1075
  611MOL0     C80536   3.320   1.737   5.288  0.0213 -0.0079 -0.5789
  611MOL0     N80537   3.300   1.744   5.435 -0.6141 -0.2599  0.5897
  611MOL0     C80538   3.190   1.704   5.511  0.2384 -0.3542  0.3138
  611MOL0     C80539   3.227   1.734   5.641 -0.0075 -0.0318 -0.6721
  611MOL0     C80540   3.141   1.707   5.766  0.5587  1.6488  1.4188
  611MOL0     C80541   3.086   1.830   5.838 -0.7897  0.7221 -0.3471
  611MOL0     C80542   2.966   1.911   5.782 -0.0389  1.0851  0.6059
  611MOL0     C80543   2.840   1.829   5.731  0.0708 -0.0770  0.2893
  611MOL0     O80544   2.717   1.907   5.710 -0.1200 -0.2211 -0.4835
  611MOL0     C80545   2.642   1.953   5.812 -0.0413 -0.5048  0.6735
  611MOL0     C80546   2.553   2.058   5.778 -0.2259 -0.3454 -0.3577
  611MOL0     C80547   2.457   2.112   5.858  0.0971 -0.4584 -0.4244
  611MOL0     C80548   2.432   2.052   5.983  0.2075  1.0603  0.6299
  611MOL0     C80549   2.323   2.106   6.071 -0.4018 -0.1341  0.3719
  611MOL0     O80550   2.313   2.054   6.197 -0.0311 -0.6480  0.7315
  611MOL0     C80551   2.197   2.060   6.270 -0.1556 -0.3776 -0.1245
  611MOL0     C80552   2.229   2.041   6.407  0.2268  0.0293  0.2164
  611MOL0     C80553   2.125   2.031   6.495  0.8268 -0.2322 -0.4857
  611MOL0     C80554   1.990   2.040   6.459 -0.4368  0.2502  0.2788
  611MOL0     O80555   1.899   2.031   6.559 -0.2452  0.5599 -0.2670
  611MOL0     C80556   1.757   2.033   6.532  0.5530 -0.3322 -0.8369
  611MOL0     C80557   1.684   2.000   6.661 -0.1569 -0.4663 -0.1335
  611MOL0     C80558   1.722   2.109   6.765  0.1721  0.5976 -0.0589
  611MOL0     C80559   1.659   2.071   6.901  0.3454 -0.0299  0.1857
  611MOL0     C80560   1.683   2.169   7.012 -0.3393 -0.1716 -0.2312
  611MOL0     C80561   1.612   2.115   7.137  0.2564  0.1384  0.8610
  611MOL0     C80562   1.649   2.190   7.259  0.8430  0.2838 -0.1841
  611MOL0     C80563   1.607   2.341   7.239 -0.4903  0.6306  0.1880
  611MOL0    Cl80564   1.637   2.429   7.389 -0.1646 -0.0292 -0.3950
  611MOL0     C80565   1.959   2.051   6.322  0.1582  0.3415  0.5629
  611MOL0     C80566   2.068   2.055   6.221 -0.3983  0.0556  0.3947
  611MOL0     O80567   2.266   2.201   6.031  0.1996 -0.0856  0.6907
  611MOL0     C80568   2.527   1.956   6.033 -0.3773 -0.3408 -0.2387
  611MOL0     C80569   2.625   1.898   5.946  0.7926  0.4627 -0.1919
  611MOL0     N80570   3.348   1.797   5.641  0.1735 -0.6777 -0.4757
  611MOL0     N80571   3.392   1.801   5.525  0.0119  0.2509  0.0969
  611MOL0     C80572   4.481   1.356   5.315 -0.3557  0.9538 -0.8279
  611MOL0     C80573   4.598   1.281   5.278 -0.3314  0.0847  0.5915
  611MOL0     C80574   4.904   1.021   5.057 -0.6740 -0.3782  0.6414
  611MOL0     C80575   4.877   0.882   5.075 -0.1319  0.0819  0.3466
  611MOL0     C80576   4.946   0.783   5.011  0.1586  0.1319  0.8388
  611MOL0     C80577   5.067   0.808   4.938  0.8737  0.4618  0.3417
  611MOL0     O80578   5.131   0.694   4.886  0.0637 -0.1615 -0.6238
  611MOL0     C80579   5.246   0.715   4.812 -0.8384  0.0906 -0.2086
  611MOL0     C80580   5.377   0.704   4.901 -0.6936 -0.2229  0.6269
  611MOL0     C80581   5.511   0.735   4.819  0.4106 -0.1790 -0.0281
  611MOL0     C80582   5.538   0.884   4.800 -0.0173 -0.5189  1.0176
  611MOL0     C80583   5.690   0.901   4.788  0.2852  0.4094 -0.1271
  611MOL0     C80584   5.807   0.917   4.761  0.5740 -0.2212 -0.2430
  611MOL0     C80585   5.105   0.945   4.931  0.2961  0.2305 -0.8022
  611MOL0     C80586   5.023   1.053   4.987  0.1517 -0.0709  0.0041
  611MOL0     H80587   4.457   1.019   5.138 -2.1945 -0.3481  1.9774
  611MOL0     H80588   4.255   1.139   5.202 -0.0653 -0.2948  1.4839
  611MOL0     H80589   4.060   1.252   5.290 -0.7075  0.5066  0.5187
  611MOL0     H80590   4.119   1.331   5.145 -0.0702 -0.3572  0.6898
  611MOL0     H80591   4.033   1.534   5.176  1.4063  1.0120  1.0460
  611MOL0     H80592   4.039   1.528   5.352 -0.1344 -1.2222 -0.3960
  611MOL0     H80593   3.856   1.360   5.344 -1.5547 -1.6758 -1.2983
  611MOL0     H80594   3.849   1.360   5.171 -4.5305 -0.3112  0.4346
  611MOL0     H80595   3.809   1.618   5.342 -0.7134  0.5021 -0.9375
  611MOL0     H80596   3.801   1.607   5.171 -0.2476  1.8299  0.6445
  611MOL0     H80597   3.603   1.444   5.344  0.0323 -1.6920 -1.8074
  611MOL0     H80598   3.611   1.460   5.167 -0.5245 -0.4060  0.5734
  611MOL0     H80599   3.584   1.717   5.205 -3.7519  0.4040 -2.1856
  611MOL0     H80600   3.553   1.668   5.375 -2.6166  1.5622 -0.3214
  611MOL0     H80601   3.376   1.594   5.143 -3.7845  1.8137  0.2309
  611MOL0     H80602   3.369   1.529   5.310  1.0343 -1.3582 -0.8098
  611MOL0     H80603   3.230   1.736   5.225 -0.1035  0.7106 -0.4265
  611MOL0     H80604   3.377   1.824   5.253  1.6062 -1.3139 -1.3431
  611MOL0     H80605   3.107   1.646   5.472 -0.5733  1.3745 -0.6232
  611MOL0     H80606   3.193   1.640   5.835  1.8828  1.9673  0.7623
  611MOL0     H80607   3.052   1.650   5.737 -0.2267  2.4801  2.1310
  611MOL0     H80608   3.172   1.894   5.862  0.7232 -0.8980 -1.2547
  611MOL0     H80609   3.065   1.792   5.938  0.9952 -0.0406 -0.2252
  611MOL0     H80610   2.942   1.999   5.841 -0.2772  0.9685  0.6825
  611MOL0     H80611   3.013   1.955   5.693  0.7313 -0.4978  0.1915
  611MOL0     H80612   2.824   1.756   5.810 -0.3287 -0.0275  0.2538
  611MOL0     H80613   2.874   1.780   5.639  2.7811  0.4487  0.9228
  611MOL0     H80614   2.567   2.106   5.682  0.5048  1.3116  0.5204
  611MOL0     H80615   2.391   2.184   5.811 -0.7604 -1.6331 -1.0709
  611MOL0     H80616   2.332   2.041   6.442  0.3488  1.5214 -0.0672
  611MOL0     H80617   2.154   2.015   6.598  0.5396  0.4234 -0.2956
  611MOL0     H80618   1.730   1.970   6.447 -0.3845 -0.6332 -0.3236
  611MOL0     H80619   1.716   2.132   6.509 -0.6387 -0.2784  1.2981
  611MOL0     H80620   1.716   1.905   6.706 -0.8775 -0.3800  0.5845
  611MOL0     H80621   1.575   2.000   6.656 -0.1024 -0.2344 -2.0090
  611MOL0     H80622   1.676   2.200   6.725 -1.3755  0.2722  0.8807
  611MOL0     H80623   1.830   2.120   6.777 -0.0661  4.7375 -0.2767
  611MOL0     H80624   1.550   2.065   6.888  0.1236  2.6189  0.2265
  611MOL0     H80625   1.686   1.969   6.930  1.8464 -0.1098 -1.3435
  611MOL0     H80626   1.647   2.270   6.988  1.6134  0.4408 -0.7903
  611MOL0     H80627   1.790   2.187   7.028  0.0417  1.2256 -3.4365
  611MOL0     H80628   1.651   2.016   7.163 -0.6969 -0.3991  0.3191
  611MOL0     H80629   1.503   2.111   7.122  0.4557 -1.5132 -0.3887
  611MOL0     H80630   1.610   2.139   7.348 -1.3787 -0.2200 -1.3550
  611MOL0     H80631   1.758   2.189   7.262  0.8257  0.1619  0.7990
  611MOL0     H80632   1.501   2.348   7.212 -0.8557 -0.6843  1.1317
  611MOL0     H80633   1.666   2.381   7.156 -1.8076  0.5994 -0.8000
  611MOL0     H80634   1.858   2.047   6.284 -0.4661 -0.4428  2.2487
  611MOL0     H80635   2.041   2.050   6.116  0.4857 -1.4161  0.2116
  611MOL0     H80636   2.519   1.911   6.131  1.1082  0.2454  0.1790
  611MOL0     H80637   2.678   1.810   5.983  0.5694  1.5544  3.0761
  611MOL0     H80638   4.494   1.444   5.378  2.8357  0.8601 -1.1891
  611MOL0     H80639   4.697   1.308   5.316 -0.9008  0.7581  1.6403
  611MOL0     H80640   4.790   0.852   5.133  1.2745 -0.2640  2.3768
  611MOL0     H80641   4.904   0.684   5.003  0.0530  0.3365 -3.9829
  611MOL0     H80642   5.242   0.814   4.765  0.5466  0.3362  0.1378
  611MOL0     H80643   5.249   0.639   4.733 -1.2801 -0.1662  0.0206
  611MOL0     H80644   5.370   0.769   4.989 -3.3588 -0.0560  0.3816
  611MOL0     H80645   5.377   0.599   4.930  0.4795 -0.5336 -0.3961
  611MOL0     H80646   5.500   0.689   4.720 -1.8906 -0.8380  0.4561
  611MOL0     H80647   5.594   0.689   4.874  0.7972 -1.5006 -1.6189
  611MOL0     H80648   5.491   0.932   4.713  1.0599 -1.9608 -0.4208
  611MOL0     H80649   5.493   0.932   4.887 -0.0080  0.7413  0.3563
  611MOL0     H80650   5.913   0.921   4.748  0.6720 -0.0962  0.5625
  611MOL0     H80651   5.202   0.978   4.896  0.6055 -0.1080 -0.2800
  611MOL0     H80652   5.060   1.156   4.992 -3.8258  1.5802 -0.9037
  612MOL0     O80653   4.956   4.787   3.795 -0.2956  0.2334  0.3976
  612MOL0     C80654   5.071   4.762   3.839 -0.0773  0.3116 -0.0316
  612MOL0     O80655   5.102   4.687   3.949  0.3883  0.2498 -0.5670
  612MOL0     C80656   5.008   4.617   4.024  1.1063  0.5374  0.5222
  612MOL0     C80657   5.037   4.485   4.054  0.8219  0.2961  0.3284
  612MOL0     C80658   4.941   4.400   4.109 -0.3302  0.0506 -0.8525
  612MOL0     C80659   4.810   4.450   4.146 -0.8870 -0.3747 -0.5217
  612MOL0     O80660   4.721   4.363   4.204  0.6542 -0.1976  0.1307
  612MOL0     C80661   4.581   4.396   4.205  0.7379 -0.1668 -0.4851
  612MOL0     C80662   4.500   4.281   4.251  0.1682 -0.4916 -0.0469
  612MOL0     C80663   4.352   4.308   4.283 -0.2312 -0.7017  0.9236
  612MOL0     C80664   4.317   4.421   4.368 -0.8616  0.1607 -0.1192
  612MOL0     C80665   4.166   4.415   4.403 -0.9353 -0.1108 -0.2418
  612MOL0     C80666   4.120   4.514   4.521 -0.0149 -0.4747  0.8221
  612MOL0     C80667   3.967   4.528   4.531  0.5007 -0.4682 -0.6399
  612MOL0     C80668   3.901   4.407   4.581  0.1466  1.3337  0.2417
  612MOL0     N80669   3.758   4.418   4.579  0.2236  0.3172  0.7023
  612MOL0     C80670   3.682   4.417   4.464 -0.2061 -1.2841 -0.5664
  612MOL0     C80671   3.558   4.401   4.516 -0.0359  0.1132  0.2039
  612MOL0     C80672   3.444   4.390   4.420  0.0128 -0.2150 -0.4227
  612MOL0     C80673   3.422   4.505   4.329 -0.8096  0.1983 -0.6360
  612MOL0     C80674   3.300   4.485   4.234 -0.3369  0.1644 -0.1282
  612MOL0     C80675   3.303   4.610   4.137 -0.2838  0.0359  0.1584
  612MOL0     O80676   3.251   4.729   4.196 -0.0214 -0.6165  0.0595
  612MOL0     C80677   3.114   4.758   4.185 -0.4137 -0.1195 -0.7330
  612MOL0     C80678   3.023   4.670   4.123 -0.8347  0.9841 -0.1899
  612MOL0     C80679   2.890   4.702   4.114  0.1082  0.0012  0.2745
  612MOL0     C80680   2.832   4.813   4.174  0.1659  0.3511  0.3518
  612MOL0     C80681   2.687   4.842   4.160  0.6041  0.9778 -0.1092
  612MOL0     O80682   2.635   4.934   4.247 -0.6478  0.3416 -0.2606
  612MOL0     C80683   2.501   4.923   4.278 -0.5523 -0.0413 -0.6554
  612MOL0     C80684   2.436   4.800   4.287  0.5039 -0.7418  0.8057
  612MOL0     C80685   2.304   4.794   4.335  0.3101  0.2788 -0.0554
  612MOL0     C80686   2.238   4.914   4.372  0.5606 -0.3571  0.7254
  612MOL0     O80687   2.109   4.930   4.424 -0.3581 -0.0382  0.5913
  612MOL0     C80688   2.042   4.811   4.465  0.4987  0.0863  0.4014
  612MOL0     C80689   1.891   4.839   4.485  0.0880 -0.7991 -0.0117
  612MOL0     C80690   1.879   4.954   4.592  0.0494  0.1595 -0.0629
  612MOL0     C80691   1.727   5.006   4.586  0.1687 -0.4726 -0.1032
  612MOL0     C80692   1.709   5.127   4.685 -0.4369  0.5033  0.2382
  612MOL0     C80693   1.573   5.184   4.663  0.0691 -0.3532 -0.3846
  612MOL0     C80694   1.554   5.302   4.751  0.0407  0.3121 -0.5717
  612MOL0     C80695   1.408   5.356   4.741 -0.2698  0.5517 -0.9379
  612MOL0    Cl80696   1.397   5.503   4.851 -0.0603  0.0463  0.4678
  612MOL0     C80697   2.307   5.037   4.365  0.1186  0.0617 -0.1518
  612MOL0     C80698   2.442   5.037   4.322 -0.1370 -0.1284 -0.7278
  612MOL0     O80699   2.619   4.792   4.073  0.2429  0.0147  0.1201
  612MOL0     C80700   2.918   4.904   4.229 -0.3917 -0.6127  0.6131
  612MOL0     C80701   3.056   4.872   4.244 -0.5283  0.6440 -0.5632
  612MOL0     N80702   3.558   4.402   4.657  0.2028 -0.3747 -0.0419
  612MOL0     N80703   3.678   4.415   4.691  0.5287  0.3854 -0.0936
  612MOL0     C80704   4.791   4.586   4.130  0.0532 -0.4124  0.4154
  612MOL0     C80705   4.886   4.668   4.061  0.2216  0.8421 -0.3094
  612MOL0     C80706   5.193   4.807   3.768 -0.0934  0.3336  0.0178
  612MOL0     C80707   5.316   4.794   3.827  1.1804  0.2233 -0.0823
  612MOL0     C80708   5.434   4.828   3.764  0.4346 -0.4094  0.2930
  612MOL0     C80709   5.422   4.876   3.638 -0.1043 -0.3720  1.2629
  612MOL0     O80710   5.526   4.940   3.568  0.7590 -0.5681 -0.5820
  612MOL0     C80711   5.659   4.930   3.603  0.9562 -0.5578 -0.7905
  612MOL0     C80712   5.750   4.921   3.484 -0.7035  0.2559  0.1570
  612MOL0     C80713   5.890   4.896   3.521 -1.0138 -0.0113  0.4364
  612MOL0     C80714   5.915   4.759   3.592 -0.4397 -0.0741 -0.5067
  612MOL0     C80715   6.052   4.750   3.645  0.1711 -0.1681  0.6017
  612MOL0     C80716   6.161   4.733   3.692 -0.8685  0.2854  0.1026
  612MOL0     C80717   5.301   4.887   3.573  0.4063  0.7853  0.8454
  612MOL0     C80718   5.183   4.859   3.643 -0.0870 -0.0011  0.5628
  612MOL0     H80719   5.121   4.435   4.007  2.1998  2.5038  0.3171
  612MOL0     H80720   4.959   4.294   4.121  1.1351  0.2985 -0.5960
  612MOL0     H80721   4.553   4.429   4.105 -2.3243 -2.3899 -0.4986
  612MOL0     H80722   4.570   4.481   4.274  1.1379 -0.1162 -0.4811
  612MOL0     H80723   4.551   4.245   4.340 -0.5292 -1.9938 -0.2208
  612MOL0     H80724   4.494   4.205   4.172 -0.5212 -0.4596 -0.0372
  612MOL0     H80725   4.302   4.216   4.315  0.3951 -1.0772  0.8411
  612MOL0     H80726   4.301   4.321   4.187  1.3001 -1.0601  0.0306
  612MOL0     H80727   4.379   4.421   4.458 -0.8469 -0.5317 -0.1252
  612MOL0     H80728   4.334   4.512   4.310 -0.3467  0.4491  0.4727
  612MOL0     H80729   4.153   4.313   4.442 -2.4480  0.6953  1.5453
  612MOL0     H80730   4.112   4.421   4.308  0.1986  0.1182 -0.8855
  612MOL0     H80731   4.152   4.611   4.482 -3.7749  0.5329 -0.2296
  612MOL0     H80732   4.158   4.485   4.619 -1.2822 -1.6049  1.0181
  612MOL0     H80733   3.943   4.606   4.604 -0.8076  0.8578 -2.4108
  612MOL0     H80734   3.929   4.570   4.438 -0.4978  4.0870  1.5091
  612MOL0     H80735   3.939   4.392   4.682 -0.0388 -0.1334  0.1171
  612MOL0     H80736   3.919   4.317   4.521 -0.8053 -0.3034  2.3068
  612MOL0     H80737   3.714   4.427   4.361  2.8401 -1.9352  0.2201
  612MOL0     H80738   3.358   4.363   4.483  0.5023 -1.9026 -0.4364
  612MOL0     H80739   3.452   4.304   4.353  0.1553 -0.7496  0.2646
  612MOL0     H80740   3.512   4.534   4.273 -0.4116 -0.4270 -0.3384
  612MOL0     H80741   3.402   4.596   4.386  0.0231  1.2116 -1.8870
  612MOL0     H80742   3.317   4.401   4.167  2.1833  0.1975  0.3647
  612MOL0     H80743   3.206   4.477   4.289  0.4308  1.3835  1.4328
  612MOL0     H80744   3.262   4.591   4.038  1.0327 -3.9715  0.1962
  612MOL0     H80745   3.409   4.627   4.115  0.5716 -1.0243  3.0120
  612MOL0     H80746   3.056   4.575   4.081  0.8668  1.5593 -0.2175
  612MOL0     H80747   2.828   4.628   4.065 -1.1037  0.5041  1.0181
  612MOL0     H80748   2.491   4.709   4.268  2.2506  0.2415  0.9546
  612MOL0     H80749   2.262   4.697   4.360  1.3668  0.2306  1.6993
  612MOL0     H80750   2.084   4.776   4.560  1.6990  0.9714  0.2209
  612MOL0     H80751   2.064   4.730   4.394  0.5578 -0.8348  1.4382
  612MOL0     H80752   1.839   4.751   4.522  1.4711 -0.8534  1.9632
  612MOL0     H80753   1.847   4.870   4.390 -0.7908  2.6074  1.3561
  612MOL0     H80754   1.949   5.034   4.568  0.3029  0.4797  1.6554
  612MOL0     H80755   1.908   4.906   4.685 -3.1740  0.7590  1.3981
  612MOL0     H80756   1.691   5.031   4.486 -0.2180 -0.5679  0.0089
  612MOL0     H80757   1.665   4.921   4.617 -1.8116  1.0069  0.1604
  612MOL0     H80758   1.779   5.206   4.659 -0.8915  1.3749  1.5658
  612MOL0     H80759   1.733   5.099   4.788 -1.2446 -0.0355  0.2966
  612MOL0     H80760   1.492   5.111   4.668 -0.8837  0.5309 -2.0981
  612MOL0     H80761   1.574   5.225   4.562 -0.7994  1.3333  0.2622
  612MOL0     H80762   1.576   5.281   4.856  1.9929 -3.8216 -1.6035
  612MOL0     H80763   1.622   5.380   4.717  0.9137 -0.3116 -0.2848
  612MOL0     H80764   1.342   5.276   4.779 -1.7363  1.6314 -1.1218
  612MOL0     H80765   1.382   5.380   4.638 -1.9947 -0.3623 -0.7664
  612MOL0     H80766   2.254   5.128   4.394 -2.3421 -1.0064 -1.0490
  612MOL0     H80767   2.491   5.134   4.309 -2.2614  1.0895 -0.0952
  612MOL0     H80768   2.879   4.993   4.277  0.8506  0.8184 -0.9006
  612MOL0     H80769   3.123   4.938   4.298 -0.8496  1.5924 -1.3119
  612MOL0     H80770   4.697   4.631   4.158 -0.8547  0.2197 -3.0671
  612MOL0     H80771   4.861   4.769   4.031  0.6789  0.6001 -1.5695
  612MOL0     H80772   5.335   4.764   3.930  2.3424  1.0537 -0.0410
  612MOL0     H80773   5.526   4.811   3.819  0.8286  3.4921  1.1433
  612MOL0     H80774   5.663   4.846   3.673 -4.7332 -0.9672 -0.5432
  612MOL0     H80775   5.676   5.020   3.663 -3.3598 -0.5675  0.7776
  612MOL0     H80776   5.717   4.843   3.415 -1.8523  2.0480 -1.4268
  612MOL0     H80777   5.753   5.012   3.424 -2.2981 -1.4280 -2.6495
  612MOL0     H80778   5.919   4.975   3.590 -0.0315 -0.3297  0.4096
  612MOL0     H80779   5.947   4.902   3.428 -1.7928  2.3144  0.0547
  612MOL0     H80780   5.845   4.749   3.676 -1.9185 -1.2305 -1.7968
  612MOL0     H80781   5.878   4.681   3.524  0.2233  0.3899 -1.4191
  612MOL0     H80782   6.260   4.716   3.727 -0.2144  0.6788 -1.4920
  612MOL0     H80783   5.304   4.922   3.470  2.7682  0.8126  0.8686
  612MOL0     H80784   5.089   4.889   3.597  0.9050  0.7308 -1.0618
  613MOL0     O80785   4.089   2.578   8.165 -0.1450 -0.4205  0.6501
  613MOL0     C80786   4.197   2.639   8.185  0.1479 -0.2543  0.0400
  613MOL0     O80787   4.299   2.594   8.266  0.3248 -0.2780  0.3937
  613MOL0     C80788   4.282   2.483   8.341 -0.9839 -1.1777  0.5284
  613MOL0     C80789   4.408   2.435   8.378  0.1369  0.0199  0.2813
  613MOL0     C80790   4.414   2.309   8.449 -0.1220 -0.4614  0.2587
  613MOL0     C80791   4.295   2.236   8.473 -0.6653  0.2447  0.4101
  613MOL0     O80792   4.306   2.113   8.532  0.2005  1.1469 -0.3063
  613MOL0     C80793   4.193   2.018   8.534  0.1245 -0.6924  0.6129
  613MOL0     C80794   4.222   1.873   8.537 -0.5707 -0.9675  0.7954
  613MOL0     C80795   4.134   1.778   8.461  0.4224 -0.1150 -0.5546
  613MOL0     C80796   4.187   1.640   8.446  0.2230 -0.9325  0.3684
  613MOL0     C80797   4.119   1.554   8.337 -0.1082  0.1875 -0.3016
  613MOL0     C80798   3.973   1.534   8.379 -0.2407  1.2014  0.0701
  613MOL0     C80799   3.918   1.442   8.268  0.2435 -0.1353  0.9141
  613MOL0     C80800   3.764   1.446   8.267  0.5269  0.1798  0.1385
  613MOL0     N80801   3.713   1.366   8.154 -0.2563 -1.0804  0.2182
  613MOL0     C80802   3.710   1.401   8.021 -0.5560  0.1778  0.0265
  613MOL0     C80803   3.641   1.299   7.959 -0.0130 -0.1999 -0.4453
  613MOL0     C80804   3.607   1.287   7.817  0.2543  0.4448 -0.5274
  613MOL0     C80805   3.492   1.189   7.785 -0.2062  0.0524 -0.3527
  613MOL0     C80806   3.438   1.238   7.652 -0.3266 -0.4297 -0.1377
  613MOL0     C80807   3.312   1.148   7.612 -0.4733 -0.0034  0.5458
  613MOL0     O80808   3.265   1.222   7.494 -0.4630 -0.3358  0.0189
  613MOL0     C80809   3.174   1.160   7.416 -0.1414  0.0112  0.0036
  613MOL0     C80810   3.151   1.203   7.284 -0.2980  0.3128  0.4678
  613MOL0     C80811   3.048   1.158   7.206  0.2971  0.0926  0.6268
  613MOL0     C80812   2.958   1.060   7.261 -0.3225  0.2258 -0.5611
  613MOL0     C80813   2.833   1.021   7.191 -1.3200 -0.7679 -0.9261
  613MOL0     O80814   2.759   0.921   7.257  0.0187  0.1500  0.3937
  613MOL0     C80815   2.632   0.888   7.230  0.2220  0.0285 -0.0848
  613MOL0     C80816   2.578   0.779   7.296  1.0221  0.3151 -0.6657
  613MOL0     C80817   2.454   0.732   7.277  0.0725  0.1403  0.1027
  613MOL0     C80818   2.370   0.809   7.196  0.0098  0.0744  0.9010
  613MOL0     O80819   2.236   0.783   7.177  0.4449 -0.3364 -0.2456
  613MOL0     C80820   2.183   0.654   7.210  0.2948 -0.2472  0.2512
  613MOL0     C80821   2.054   0.631   7.126  0.1411 -0.3198 -0.8779
  613MOL0     C80822   2.079   0.533   7.013  0.0692 -0.4326 -0.0868
  613MOL0     C80823   1.961   0.531   6.922  0.2219  0.3654  0.2058
  613MOL0     C80824   1.978   0.419   6.816  0.7641 -0.0341  0.2659
  613MOL0     C80825   2.115   0.408   6.739 -0.4487 -0.3163  0.5182
  613MOL0     C80826   2.160   0.537   6.663 -0.0779  0.0950 -0.2456
  613MOL0     C80827   2.301   0.525   6.597 -0.5083  0.0818  0.5916
  613MOL0    Cl80828   2.385   0.683   6.589 -0.0205 -0.2563  0.0590
  613MOL0     C80829   2.417   0.919   7.128  0.4950  0.5224  0.2414
  613MOL0     C80830   2.547   0.953   7.135 -0.9747 -0.1089  0.2304
  613MOL0     O80831   2.793   1.091   7.099 -0.4405  0.1437 -0.2376
  613MOL0     C80832   2.994   1.015   7.385  0.5361  0.6212 -0.0400
  613MOL0     C80833   3.098   1.055   7.468  0.6269 -0.3136  0.4210
  613MOL0     N80834   3.599   1.210   8.057  0.5119  0.5678  0.2483
  613MOL0     N80835   3.648   1.248   8.174  0.3720  0.0651 -0.6076
  613MOL0     C80836   4.174   2.299   8.446 -0.0795  0.8452 -0.4035
  613MOL0     C80837   4.165   2.425   8.387 -0.3617  0.2932 -1.2457
  613MOL0     C80838   4.218   2.773   8.127  0.3106  0.7293 -0.2591
  613MOL0     C80839   4.119   2.842   8.057  0.4459  0.9306 -0.3826
  613MOL0     C80840   4.144   2.968   8.003  0.4392 -0.3776  0.4569
  613MOL0     C80841   4.271   3.029   8.022 -0.4707 -0.4759  0.3745
  613MOL0     O80842   4.308   3.153   7.968  0.0029  0.1648 -0.1547
  613MOL0     C80843   4.224   3.249   7.891 -0.2538  0.6043 -0.7226
  613MOL0     C80844   4.324   3.346   7.834 -1.1469 -0.5561  0.1246
  613MOL0     C80845   4.247   3.467   7.778 -0.2146 -0.0187 -0.1261
  613MOL0     C80846   4.319   3.569   7.689 -0.1529  0.7412 -0.2467
  613MOL0     C80847   4.455   3.613   7.728 -0.2997 -0.8617  0.2553
  613MOL0     C80848   4.561   3.663   7.764  0.2526 -0.4457 -0.8095
  613MOL0     C80849   4.364   2.965   8.102  0.4032 -0.6074  1.4021
  613MOL0     C80850   4.336   2.842   8.151 -0.6844  0.2972 -0.3955
  613MOL0     H80851   4.494   2.499   8.366 -0.4337  0.4713 -1.8083
  613MOL0     H80852   4.505   2.266   8.491 -0.6552 -3.2428 -1.2156
  613MOL0     H80853   4.134   2.029   8.443  0.7916  0.3878  0.2914
  613MOL0     H80854   4.125   2.047   8.615  0.4489  1.7412  0.0958
  613MOL0     H80855   4.236   1.843   8.641  0.9969  1.7033  1.4390
  613MOL0     H80856   4.317   1.867   8.482 -1.5881  1.1674 -1.3863
  613MOL0     H80857   4.116   1.818   8.361 -0.2847  0.1432 -0.3316
  613MOL0     H80858   4.037   1.763   8.510  1.1727 -2.1280  0.4187
  613MOL0     H80859   4.294   1.640   8.424  0.3380  1.0779  0.7684
  613MOL0     H80860   4.177   1.601   8.548  3.3876  1.7806  1.9069
  613MOL0     H80861   4.172   1.459   8.338 -0.8737 -0.2464  0.4938
  613MOL0     H80862   4.128   1.599   8.237 -1.4772  1.8274  0.2682
  613MOL0     H80863   3.919   1.629   8.381  1.0751  1.9809 -0.6305
  613MOL0     H80864   3.955   1.469   8.466  0.2642  3.2574  1.8068
  613MOL0     H80865   3.954   1.468   8.168 -0.2925 -0.4377  0.6350
  613MOL0     H80866   3.952   1.340   8.286  0.5395 -0.3707 -0.7914
  613MOL0     H80867   3.730   1.550   8.269 -1.2183 -0.2413 -2.6023
  613MOL0     H80868   3.726   1.399   8.358 -0.3597  1.1963  0.3158
  613MOL0     H80869   3.750   1.490   7.974  2.4060 -1.5258 -0.9361
  613MOL0     H80870   3.699   1.254   7.768  0.0528 -0.4549 -0.3192
  613MOL0     H80871   3.592   1.390   7.782 -0.4209  0.4343 -0.2963
  613MOL0     H80872   3.410   1.193   7.857  0.3043 -1.1454  0.3210
  613MOL0     H80873   3.530   1.087   7.772  0.1379 -0.0063  0.9549
  613MOL0     H80874   3.412   1.344   7.648  0.5690 -0.2351 -1.7397
  613MOL0     H80875   3.506   1.226   7.567 -1.3072 -3.8822 -0.5758
  613MOL0     H80876   3.233   1.145   7.687 -0.4879 -0.4522  0.5149
  613MOL0     H80877   3.352   1.048   7.592  5.1695  1.8332  0.7650
  613MOL0     H80878   3.222   1.275   7.244 -0.1917 -0.0714 -0.0467
  613MOL0     H80879   3.033   1.201   7.107  1.9253  1.5546  0.9700
  613MOL0     H80880   2.647   0.731   7.365  0.5346  1.5721  0.7367
  613MOL0     H80881   2.432   0.637   7.325  3.2904 -1.6693 -1.7252
  613MOL0     H80882   2.152   0.661   7.315  3.8046  2.1452  1.3495
  613MOL0     H80883   2.257   0.575   7.197 -0.4400 -1.7083  3.8656
  613MOL0     H80884   2.013   0.726   7.090  1.8634  1.1983  0.8668
  613MOL0     H80885   1.977   0.598   7.196 -0.3444  1.2262 -0.6477
  613MOL0     H80886   2.097   0.428   7.037 -0.2573 -0.3571  0.5079
  613MOL0     H80887   2.159   0.579   6.954 -0.8415  1.6733  0.2468
  613MOL0     H80888   1.868   0.512   6.976  0.9435 -2.2024  0.6741
  613MOL0     H80889   1.944   0.627   6.873  2.0438  1.5408  1.7068
  613MOL0     H80890   1.909   0.442   6.735  1.4062  0.0516 -0.2643
  613MOL0     H80891   1.948   0.322   6.857 -1.8059  0.7376  0.3653
  613MOL0     H80892   2.101   0.330   6.664  1.4372 -0.1371 -0.0713
  613MOL0     H80893   2.201   0.384   6.801  1.6750  0.4899 -1.9331
  613MOL0     H80894   2.089   0.541   6.579  0.4640 -0.9570 -0.7771
  613MOL0     H80895   2.152   0.623   6.729  2.5633  0.1226  0.1391
  613MOL0     H80896   2.288   0.481   6.498 -1.9382  2.8545 -0.5563
  613MOL0     H80897   2.363   0.453   6.651 -1.1357 -0.8132  0.1342
  613MOL0     H80898   2.348   0.964   7.058 -0.3497 -1.1248 -0.0397
  613MOL0     H80899   2.567   1.030   7.061 -0.0232 -1.6685 -1.2263
  613MOL0     H80900   2.935   0.934   7.426  0.8403 -0.0402 -0.8951
  613MOL0     H80901   3.100   1.008   7.565  0.4429  1.2570  1.2169
  613MOL0     H80902   4.077   2.265   8.481  0.1465  0.6265  0.0263
  613MOL0     H80903   4.074   2.482   8.374  0.0035  1.7077  1.4654
  613MOL0     H80904   4.025   2.791   8.036  1.6495 -1.5038 -0.1830
  613MOL0     H80905   4.063   3.006   7.941 -1.5668 -2.2694  1.7690
  613MOL0     H80906   4.159   3.304   7.960  1.9334  0.1334  1.9107
  613MOL0     H80907   4.157   3.197   7.822 -1.6743  1.8280 -0.3144
  613MOL0     H80908   4.393   3.377   7.913 -1.9954  0.8146  0.3563
  613MOL0     H80909   4.372   3.289   7.754  0.8966  0.2377  0.7372
  613MOL0     H80910   4.201   3.515   7.866 -1.0773  1.7911 -1.5014
  613MOL0     H80911   4.163   3.434   7.715  1.3459 -0.6626 -1.9571
  613MOL0     H80912   4.317   3.535   7.585 -1.0638 -1.6690  0.4754
  613MOL0     H80913   4.259   3.660   7.681 -0.9069  0.1525 -1.7539
  613MOL0     H80914   4.639   3.717   7.814 -0.9669  0.8513 -0.2667
  613MOL0     H80915   4.461   3.009   8.124  0.0723  1.0400 -0.2658
  613MOL0     H80916   4.416   2.798   8.211 -1.5257 -0.2014  0.3885
  614MOL0     O80917   3.678   9.070   6.961  0.2071 -0.9400 -0.6277
  614MOL0     C80918   3.731   9.001   7.050  0.2775 -0.3184 -0.3120
  614MOL0     O80919   3.669   8.906   7.130  0.2316  0.0079  0.1096
  614MOL0     C80920   3.536   8.915   7.128  0.2540 -0.0772  0.6479
  614MOL0     C80921   3.479   9.020   7.199  0.6182  0.6853 -0.5236
  614MOL0     C80922   3.339   9.021   7.219  0.1285  0.7735 -0.4066
  614MOL0     C80923   3.253   8.928   7.149  0.5954 -0.0832  0.3992
  614MOL0     O80924   3.116   8.945   7.127 -0.6372 -0.3983  0.7382
  614MOL0     C80925   3.038   8.975   7.240  0.2789 -0.3916  0.0019
  614MOL0     C80926   2.984   8.843   7.311 -0.2809 -0.7419  0.0863
  614MOL0     C80927   2.882   8.866   7.423  0.9124 -0.0481  0.6909
  614MOL0     C80928   2.727   8.872   7.375 -0.1800 -0.5778 -0.6186
  614MOL0     C80929   2.635   8.871   7.496 -0.7045  0.7050  0.3678
  614MOL0     C80930   2.492   8.893   7.467 -0.2409 -0.1544 -0.2424
  614MOL0     C80931   2.397   8.887   7.592 -0.1421 -0.7866  0.4283
  614MOL0     C80932   2.255   8.920   7.558  0.0250 -0.3269  0.6332
  614MOL0     N80933   2.160   8.886   7.665  0.6656  0.4971  0.5107
  614MOL0     C80934   2.101   8.968   7.759  0.4700 -0.2350 -0.2402
  614MOL0     C80935   2.002   8.899   7.819  0.0344  0.5090 -0.0034
  614MOL0     C80936   1.901   8.941   7.924 -0.5172 -0.3838 -1.2809
  614MOL0     C80937   1.759   8.974   7.881  0.4572 -0.0316  0.3562
  614MOL0     C80938   1.671   9.005   8.015  0.2299  0.1871  0.9077
  614MOL0     C80939   1.530   9.050   7.968 -0.5825  0.1371 -0.4473
  614MOL0     O80940   1.450   9.076   8.077  0.0775 -0.6421 -0.0898
  614MOL0     C80941   1.315   9.091   8.044 -0.6128  0.0417 -0.1146
  614MOL0     C80942   1.236   9.000   8.111  0.5177 -0.2095  0.2424
  614MOL0     C80943   1.096   9.009   8.097 -0.1909  0.2799  0.2478
  614MOL0     C80944   1.033   9.112   8.017  0.1509 -0.1694 -0.3212
  614MOL0     C80945   0.880   9.132   8.010 -0.7590 -0.5367 -0.1210
  614MOL0     O80946   0.792   9.040   8.076 -0.6145 -0.0342 -0.5748
  614MOL0     C80947   0.652   9.072   8.060 -0.1385 -0.1855  0.2924
  614MOL0     C80948   0.574   9.027   7.955  0.1207  0.3670  0.3904
  614MOL0     C80949   0.443   9.051   7.950 -0.7180  0.2004 -0.3111
  614MOL0     C80950   0.376   9.136   8.049 -0.8007  0.0125  0.2848
  614MOL0     O80951   0.246   9.179   8.056 -0.2438  0.8720 -0.0340
  614MOL0     C80952   0.168   9.155   7.936  0.1181  0.3069 -0.2712
  614MOL0     C80953   0.025   9.184   7.974  0.0461  0.2832  0.6767
  614MOL0     C80954  -0.065   9.156   7.852  0.1497 -0.2694 -0.2305
  614MOL0     C80955  -0.203   9.203   7.888  0.0140  0.2607 -0.3067
  614MOL0     C80956  -0.275   9.120   7.994 -0.3507 -0.3106  0.8878
  614MOL0     C80957  -0.404   9.171   8.038 -0.3545 -0.3346  0.1980
  614MOL0     C80958  -0.479   9.060   8.124  0.3508  0.2768  0.1647
  614MOL0     C80959  -0.617   9.106   8.171  0.3251  0.1040 -0.7526
  614MOL0    Cl80960  -0.695   9.232   8.067 -0.1952 -0.1888 -0.0660
  614MOL0     C80961   0.456   9.172   8.150 -0.9543 -1.0981 -0.3179
  614MOL0     C80962   0.587   9.145   8.160  0.4934  0.2594  0.0164
  614MOL0     O80963   0.845   9.232   7.950 -0.5501  0.2061 -0.4775
  614MOL0     C80964   1.125   9.191   7.943  0.1682 -0.1482 -0.1855
  614MOL0     C80965   1.264   9.189   7.967 -0.9671 -0.3041  0.8232
  614MOL0     N80966   2.006   8.771   7.763 -0.1810 -0.5837  0.1066
  614MOL0     N80967   2.093   8.768   7.672 -0.0921  0.6323 -0.0029
  614MOL0     C80968   3.316   8.828   7.080 -0.7087 -0.5891  1.8811
  614MOL0     C80969   3.455   8.822   7.061  0.0825  0.0593 -0.1059
  614MOL0     C80970   3.876   9.022   7.084  0.6758  0.7281 -0.2767
  614MOL0     C80971   3.926   8.970   7.205  0.5214  0.3948  0.8328
  614MOL0     C80972   4.057   8.992   7.248 -0.1721 -0.1849  0.1292
  614MOL0     C80973   4.145   9.066   7.171  0.9067 -0.8155  0.4073
  614MOL0     O80974   4.275   9.103   7.206  0.4422 -0.4099  0.1341
  614MOL0     C80975   4.311   9.101   7.343 -0.5223 -0.2186  0.1896
  614MOL0     C80976   4.422   9.195   7.368 -0.9113  0.0170 -0.0600
  614MOL0     C80977   4.543   9.164   7.275  0.0960 -0.1075 -0.5709
  614MOL0     C80978   4.671   9.189   7.344 -0.4687  0.1663  1.0392
  614MOL0     C80979   4.780   9.186   7.238  0.4994  0.1436  0.1078
  614MOL0     C80980   4.867   9.178   7.160 -0.8946  0.2399 -0.5119
  614MOL0     C80981   4.094   9.108   7.050 -0.0382 -0.2213  0.3638
  614MOL0     C80982   3.961   9.090   7.000 -0.9853 -0.7424  0.1884
  614MOL0     H80983   3.536   9.096   7.251 -0.0648 -1.3078  3.4832
  614MOL0     H80984   3.295   9.097   7.283  0.7894 -0.5026  1.6791
  614MOL0     H80985   2.949   9.037   7.229 -0.1992 -0.5148  2.5168
  614MOL0     H80986   3.093   9.043   7.305 -1.6039  0.9320  0.2803
  614MOL0     H80987   3.069   8.792   7.357  0.5322  0.6662  0.1700
  614MOL0     H80988   2.926   8.774   7.249 -3.0151  0.9777  0.5261
  614MOL0     H80989   2.906   8.958   7.477  1.6088  0.6082 -0.6902
  614MOL0     H80990   2.887   8.781   7.492 -1.0277 -3.1775 -2.6441
  614MOL0     H80991   2.714   8.969   7.328 -1.2264  0.1585  1.1138
  614MOL0     H80992   2.698   8.788   7.310  1.0333 -0.9909 -0.6568
  614MOL0     H80993   2.661   8.957   7.559  1.2056 -0.0032  0.5875
  614MOL0     H80994   2.650   8.778   7.551  2.9028  0.9056 -0.0403
  614MOL0     H80995   2.438   8.824   7.401 -0.5710  0.2857 -0.4373
  614MOL0     H80996   2.489   8.990   7.417  0.8019 -0.6856 -1.3888
  614MOL0     H80997   2.401   8.788   7.639 -1.0600 -0.3888  1.3932
  614MOL0     H80998   2.443   8.956   7.664 -0.2282 -0.3822  0.1001
  614MOL0     H80999   2.234   8.882   7.458 -4.9837 -0.4309  1.4737
  614MOL0     H81000   2.247   9.029   7.561 -1.7022 -0.4453  1.0354
  614MOL0     H81001   2.120   9.069   7.794 -0.4241 -0.6904  1.6737
  614MOL0     H81002   1.952   9.022   7.977 -2.5206 -0.2773  0.6355
  614MOL0     H81003   1.884   8.863   7.998  0.9851  0.4429 -0.0065
  614MOL0     H81004   1.723   8.880   7.837 -0.3528 -1.3737  3.6024
  614MOL0     H81005   1.755   9.050   7.802  1.4018 -1.6408 -1.3071
  614MOL0     H81006   1.664   8.921   8.083  0.6254 -0.5088  0.1059
  614MOL0     H81007   1.720   9.081   8.076  0.3903  1.9917 -1.2918
  614MOL0     H81008   1.479   8.978   7.903 -0.9432  0.9439 -1.0743
  614MOL0     H81009   1.554   9.141   7.913 -0.8712  0.6332  0.2368
  614MOL0     H81010   1.267   8.923   8.181  1.3877  0.1402  0.2431
  614MOL0     H81011   1.022   8.946   8.146  0.8294 -0.3850  0.9845
  614MOL0     H81012   0.622   8.974   7.874 -0.5569  0.6139 -0.1761
  614MOL0     H81013   0.397   9.013   7.859 -3.1388  0.4542  0.7261
  614MOL0     H81014   0.173   9.051   7.900  0.0938 -0.5622  2.0713
  614MOL0     H81015   0.205   9.220   7.856  0.8278  1.0933  0.6608
  614MOL0     H81016   0.025   9.292   7.996 -1.8451  0.0608  2.0558
  614MOL0     H81017  -0.018   9.126   8.056 -1.7052  0.1424 -0.2820
  614MOL0     H81018  -0.062   9.050   7.822  1.9090  0.3032 -2.3162
  614MOL0     H81019  -0.033   9.228   7.776  1.7978 -1.0108 -0.2719
  614MOL0     H81020  -0.204   9.306   7.925  0.3805 -0.3300  1.4190
  614MOL0     H81021  -0.257   9.199   7.793 -0.2760  0.3548 -0.1459
  614MOL0     H81022  -0.214   9.119   8.084 -3.0920  2.5587  3.0190
  614MOL0     H81023  -0.285   9.021   7.950  0.3017  0.1524 -0.3413
  614MOL0     H81024  -0.458   9.194   7.945  0.7145 -3.9631 -1.4961
  614MOL0     H81025  -0.395   9.265   8.094 -0.1757 -0.9647  1.2302
  614MOL0     H81026  -0.490   8.972   8.059  2.1881 -0.9228  1.3698
  614MOL0     H81027  -0.412   9.014   8.197  0.5749 -3.9465 -2.3448
  614MOL0     H81028  -0.598   9.151   8.268  1.3695  2.9569 -2.1502
  614MOL0     H81029  -0.692   9.027   8.181  0.7412 -0.2011 -0.0338
  614MOL0     H81030   0.406   9.215   8.236 -2.5614 -0.5442 -1.4686
  614MOL0     H81031   0.627   9.161   8.260 -2.2762  2.3271  0.9085
  614MOL0     H81032   1.073   9.260   7.877 -2.2517 -1.0390  0.6943
  614MOL0     H81033   1.318   9.278   7.936  1.0156 -1.2520  1.3898
  614MOL0     H81034   3.259   8.763   7.014  2.3155 -1.6121  0.0525
  614MOL0     H81035   3.501   8.739   7.007 -0.9413 -2.3718  2.4866
  614MOL0     H81036   3.865   8.916   7.278  1.8850  1.4513  2.8449
  614MOL0     H81037   4.090   8.969   7.349 -1.0110 -3.5402 -0.2510
  614MOL0     H81038   4.333   8.999   7.377 -3.4128 -1.1959 -0.5223
  614MOL0     H81039   4.227   9.128   7.407  0.1152 -0.4594  1.1484
  614MOL0     H81040   4.387   9.296   7.347 -2.6670 -0.0914  2.0090
  614MOL0     H81041   4.449   9.201   7.474  0.8556  1.1534 -0.5344
  614MOL0     H81042   4.528   9.220   7.183 -1.6106 -1.1795 -0.9954
  614MOL0     H81043   4.557   9.059   7.248  2.1065 -0.3662  1.2038
  614MOL0     H81044   4.675   9.291   7.381  2.5436 -0.4861  2.8048
  614MOL0     H81045   4.708   9.109   7.409  2.2429 -2.8106 -3.5544
  614MOL0     H81046   4.951   9.159   7.097 -0.4289 -0.5216  0.3150
  614MOL0     H81047   4.159   9.169   6.988 -0.4078  1.0715  1.2203
  614MOL0     H81048   3.933   9.129   6.903 -2.2051 -0.7061  0.5397
  615MOL0     O81049   4.720   3.740   0.654  0.3415 -0.2391 -0.2451
  615MOL0     C81050   4.734   3.829   0.738 -0.4504 -0.0342 -0.2732
  615MOL0     O81051   4.640   3.880   0.833  0.4265 -0.5383  0.4667
  615MOL0     C81052   4.529   3.805   0.855  0.4527 -0.3611  0.1299
  615MOL0     C81053   4.424   3.882   0.904  0.1530  0.0141  0.2387
  615MOL0     C81054   4.304   3.818   0.946 -0.1312  0.4072 -0.0129
  615MOL0     C81055   4.282   3.680   0.941 -0.0978 -0.4706 -1.4010
  615MOL0     O81056   4.161   3.640   0.995  0.0628  1.0416 -0.0365
  615MOL0     C81057   4.147   3.495   1.012  0.6054 -0.3667 -0.3244
  615MOL0     C81058   4.018   3.456   1.093  0.1284  0.6851  0.4530
  615MOL0     C81059   3.883   3.508   1.040  0.9936 -0.9890  0.1539
  615MOL0     C81060   3.773   3.512   1.142 -0.1796  0.3233  0.2700
  615MOL0     C81061   3.646   3.592   1.099  0.4317  0.0263  0.2957
  615MOL0     C81062   3.540   3.593   1.207  0.9087  0.1390  0.4266
  615MOL0     C81063   3.424   3.697   1.177  0.9253 -0.0364  0.2286
  615MOL0     C81064   3.448   3.832   1.245  1.0074 -0.1815  0.6686
  615MOL0     N81065   3.320   3.916   1.248  0.3901 -0.3158  0.7013
  615MOL0     C81066   3.303   4.026   1.164  0.6766  0.1397 -0.3579
  615MOL0     C81067   3.203   4.101   1.225  0.0278 -0.4297  0.5871
  615MOL0     C81068   3.149   4.229   1.174  1.1528  0.6708 -0.3114
  615MOL0     C81069   3.084   4.225   1.038 -0.1682 -0.8281  0.7397
  615MOL0     C81070   2.975   4.115   1.023 -0.5777 -0.3586  0.6058
  615MOL0     C81071   2.858   4.155   0.924  0.2762 -0.2885  0.5764
  615MOL0     O81072   2.902   4.129   0.789  0.1399  0.1814 -0.7839
  615MOL0     C81073   2.820   4.115   0.680 -0.1096 -0.6117  0.4274
  615MOL0     C81074   2.683   4.099   0.686 -0.3543 -0.7594  0.7820
  615MOL0     C81075   2.604   4.103   0.571 -0.1072  0.1857 -0.1556
  615MOL0     C81076   2.656   4.116   0.438  0.6356 -0.6411  0.0264
  615MOL0     C81077   2.576   4.091   0.319 -1.0139  0.2066 -0.2603
  615MOL0     O81078   2.638   4.132   0.201 -0.1798 -0.1332 -0.5697
  615MOL0     C81079   2.572   4.139   0.081 -0.3429  0.6570  0.0272
  615MOL0     C81080   2.652   4.123  -0.033 -0.9635  0.2184  0.2298
  615MOL0     C81081   2.610   4.125  -0.161  0.7066 -0.8455  0.7432
  615MOL0     C81082   2.480   4.131  -0.190 -0.1395  0.5454  0.7346
  615MOL0     O81083   2.440   4.133  -0.325 -0.1590  0.4254 -0.2255
  615MOL0     C81084   2.503   4.042  -0.416  0.2651  1.1931  0.0390
  615MOL0     C81085   2.410   4.012  -0.541 -0.5498  0.2432  0.3598
  615MOL0     C81086   2.278   3.954  -0.506 -0.1999  0.5609 -0.3118
  615MOL0     C81087   2.206   3.916  -0.637 -0.3309  0.1148 -0.0856
  615MOL0     C81088   2.070   3.848  -0.620 -0.2661 -0.0535  0.5011
  615MOL0     C81089   2.001   3.859  -0.754  0.3622  0.4560 -0.1548
  615MOL0     C81090   1.866   3.784  -0.753 -0.2303  0.3126 -0.9353
  615MOL0     C81091   1.776   3.849  -0.643  0.2860  0.6551 -0.1658
  615MOL0    Cl81092   1.757   4.023  -0.670  0.1224  0.5825 -0.3862
  615MOL0     C81093   2.389   4.145  -0.080 -0.6978 -0.0119 -0.0370
  615MOL0     C81094   2.437   4.152   0.050  0.2388  0.0622 -0.4296
  615MOL0     O81095   2.459   4.051   0.325  0.5104 -0.4405 -0.9882
  615MOL0     C81096   2.790   4.135   0.432  0.9797  0.4608  0.1953
  615MOL0     C81097   2.869   4.129   0.551  0.2068 -0.8345  0.7615
  615MOL0     N81098   3.166   4.031   1.342 -0.5003  0.3505 -0.1446
  615MOL0     N81099   3.241   3.933   1.355  0.2529 -0.0073 -0.0801
  615MOL0     C81100   4.381   3.601   0.880 -0.2741 -0.7976 -0.1941
  615MOL0     C81101   4.504   3.665   0.842  0.6128 -0.4258  0.3304
  615MOL0     C81102   4.870   3.871   0.758 -0.2090 -0.2780  0.0038
  615MOL0     C81103   4.982   3.854   0.674 -0.3099  0.6111 -0.2897
  615MOL0     C81104   5.111   3.907   0.695  0.2498 -0.6629  0.4858
  615MOL0     C81105   5.143   3.989   0.802 -0.3128 -0.6503  0.7143
  615MOL0     O81106   5.266   4.029   0.835 -0.8278 -1.2473 -0.3236
  615MOL0     C81107   5.368   4.034   0.731 -0.0774 -0.3212  0.3473
  615MOL0     C81108   5.339   4.162   0.636 -0.5074  0.6876  0.6553
  615MOL0     C81109   5.352   4.291   0.714  0.8925  0.3681  0.4961
  615MOL0     C81110   5.373   4.406   0.621  0.2194  0.5452 -0.6060
  615MOL0     C81111   5.518   4.428   0.605 -1.2892  0.0363  0.1009
  615MOL0     C81112   5.634   4.461   0.600  0.7398 -0.5092 -0.0697
  615MOL0     C81113   5.037   4.006   0.895 -0.3263 -0.2294  0.0391
  615MOL0     C81114   4.905   3.951   0.874  0.0617  0.2107  0.6203
  615MOL0     H81115   4.430   3.984   0.940 -0.8060  0.5105 -0.9687
  615MOL0     H81116   4.233   3.874   1.005 -0.7401 -2.0214  1.6954
  615MOL0     H81117   4.227   3.454   1.073 -0.0836 -0.0539  0.8125
  615MOL0     H81118   4.162   3.441   0.918  1.9671 -0.0578 -0.2994
  615MOL0     H81119   4.023   3.499   1.194 -1.4323  0.6576  0.5730
  615MOL0     H81120   4.016   3.347   1.102  2.9342  0.5832  0.7080
  615MOL0     H81121   3.852   3.463   0.945 -0.5208  0.6237 -0.1834
  615MOL0     H81122   3.898   3.616   1.029  3.9080 -1.3591 -0.1958
  615MOL0     H81123   3.739   3.410   1.160 -2.0163  0.3593 -2.3462
  615MOL0     H81124   3.812   3.558   1.233 -0.0375 -1.4677  1.1666
  615MOL0     H81125   3.602   3.554   1.006  0.7194  2.5053 -0.9227
  615MOL0     H81126   3.679   3.693   1.075 -3.4237  1.4506  0.4536
  615MOL0     H81127   3.583   3.608   1.307  0.0114  1.6728  0.6232
  615MOL0     H81128   3.480   3.502   1.212 -0.8418  1.2730  1.1217
  615MOL0     H81129   3.417   3.707   1.069 -1.2634 -2.1534  0.0836
  615MOL0     H81130   3.336   3.645   1.217  1.5900 -1.0099  0.4615
  615MOL0     H81131   3.521   3.891   1.189  2.0332 -3.2507 -1.4581
  615MOL0     H81132   3.467   3.805   1.349 -0.2916 -1.8564  0.5148
  615MOL0     H81133   3.354   4.049   1.072  0.9667 -0.9147 -0.4720
  615MOL0     H81134   3.227   4.304   1.160  2.4176 -0.7488 -1.1474
  615MOL0     H81135   3.076   4.272   1.243  1.4287  0.8657 -0.1385
  615MOL0     H81136   3.161   4.220   0.962  0.2443  3.9863  0.4838
  615MOL0     H81137   3.042   4.323   1.013 -1.7337 -1.1096  2.0986
  615MOL0     H81138   3.012   4.017   0.990  0.4082  1.0427 -2.8983
  615MOL0     H81139   2.936   4.103   1.125  2.3063  1.1528  2.0291
  615MOL0     H81140   2.818   4.256   0.934 -1.6674 -1.0845  1.3768
  615MOL0     H81141   2.772   4.095   0.953 -1.7583  1.0489 -2.2205
  615MOL0     H81142   2.632   4.094   0.782 -0.2425  2.7090  1.1524
  615MOL0     H81143   2.497   4.084   0.566 -0.1005 -0.2742  1.1641
  615MOL0     H81144   2.761   4.117  -0.031 -1.0155 -4.0067  1.3050
  615MOL0     H81145   2.681   4.127  -0.244  1.9138  0.3556  1.7675
  615MOL0     H81146   2.527   3.946  -0.369 -1.6808  1.0612  0.8736
  615MOL0     H81147   2.594   4.087  -0.456  0.4215  0.6356 -0.2459
  615MOL0     H81148   2.463   3.941  -0.605 -3.3860 -1.3023 -0.4155
  615MOL0     H81149   2.406   4.110  -0.590 -0.6560  1.5783  2.8750
  615MOL0     H81150   2.215   4.030  -0.459 -0.8640  1.3724 -2.3980
  615MOL0     H81151   2.296   3.865  -0.445  0.2530  0.4763 -0.5681
  615MOL0     H81152   2.184   4.007  -0.694 -2.8082 -0.5251 -0.3001
  615MOL0     H81153   2.274   3.852  -0.694  0.3223 -1.0040  1.8740
  615MOL0     H81154   2.012   3.902  -0.545  0.5377 -0.7522  1.6480
  615MOL0     H81155   2.081   3.744  -0.589  0.4953 -0.3769 -0.7606
  615MOL0     H81156   2.067   3.817  -0.830 -0.5154 -1.3329  0.0149
  615MOL0     H81157   1.982   3.965  -0.774  0.0214  0.0971 -1.9039
  615MOL0     H81158   1.819   3.790  -0.852 -3.9915  3.8355  0.7994
  615MOL0     H81159   1.888   3.681  -0.724 -0.3158  0.7646  0.7898
  615MOL0     H81160   1.813   3.829  -0.542 -2.4964 -1.7828  0.5146
  615MOL0     H81161   1.675   3.807  -0.652  0.8908 -0.7919 -0.3679
  615MOL0     H81162   2.281   4.144  -0.097 -0.7539 -3.8015 -0.3938
  615MOL0     H81163   2.359   4.158   0.125 -0.9969 -4.1509 -1.1107
  615MOL0     H81164   2.843   4.135   0.338  0.8364 -1.5905  0.0695
  615MOL0     H81165   2.977   4.141   0.547  0.4397 -2.1271  1.9817
  615MOL0     H81166   4.385   3.493   0.886  1.7861 -0.7517  0.1501
  615MOL0     H81167   4.576   3.596   0.800  1.2521  1.1121 -1.2013
  615MOL0     H81168   4.965   3.787   0.590  1.2882  0.4788 -0.5351
  615MOL0     H81169   5.192   3.878   0.629  0.5589 -2.2442  1.5101
  615MOL0     H81170   5.379   3.943   0.671 -0.9132 -0.1917 -0.0223
  615MOL0     H81171   5.458   4.047   0.791 -0.0386  1.4097 -0.0428
  615MOL0     H81172   5.411   4.154   0.554 -1.3033 -0.1576  0.0110
  615MOL0     H81173   5.246   4.151   0.580  0.9779 -1.9850 -1.5388
  615MOL0     H81174   5.428   4.285   0.792  0.8488 -2.3884  0.4257
  615MOL0     H81175   5.252   4.303   0.755 -0.0802  2.5403 -2.1976
  615MOL0     H81176   5.322   4.399   0.524  1.3988 -1.4622 -1.1351
  615MOL0     H81177   5.333   4.496   0.668  1.2172  0.1609  1.0648
  615MOL0     H81178   5.741   4.468   0.602  0.7891 -1.1890  0.1489
  615MOL0     H81179   5.062   4.063   0.984  1.5360  0.6544 -0.9902
  615MOL0     H81180   4.835   3.966   0.955  0.1912 -0.8721  0.9404
  616MOL0     O81181   0.118   9.453   0.956 -0.8982 -0.3959 -0.5104
  616MOL0     C81182   0.199   9.460   0.861 -0.3990 -0.0846 -0.6949
  616MOL0     O81183   0.274   9.562   0.842 -0.1632 -0.7247  0.3561
  616MOL0     C81184   0.244   9.672   0.922 -0.4721  0.0123 -0.0601
  616MOL0     C81185   0.151   9.763   0.885 -0.0203  0.2154 -0.3027
  616MOL0     C81186   0.119   9.880   0.964 -0.3067  0.9081  1.0198
  616MOL0     C81187   0.193   9.901   1.081 -0.0703  0.9991  0.1598
  616MOL0     O81188   0.184  10.019   1.144  0.1969  0.4316 -0.2087
  616MOL0     C81189   0.174  10.143   1.080 -0.0074  0.0238  0.4644
  616MOL0     C81190   0.170  10.259   1.182  0.4161  0.2761  0.0324
  616MOL0     C81191   0.073  10.228   1.296  0.0460 -0.8568 -0.9318
  616MOL0     C81192  -0.070  10.184   1.246 -0.7027 -0.7314 -0.0650
  616MOL0     C81193  -0.156  10.193   1.372  0.2983  0.1286  0.3420
  616MOL0     C81194  -0.302  10.163   1.352  0.4666  0.0970  0.8492
  616MOL0     C81195  -0.367  10.197   1.488 -0.2966  0.8401 -0.7344
  616MOL0     C81196  -0.511  10.173   1.486 -0.5975  0.0458  0.5327
  616MOL0     N81197  -0.579  10.176   1.619  0.5484 -0.2550 -0.2264
  616MOL0     C81198  -0.717  10.173   1.636  0.9883  0.5472 -0.3807
  616MOL0     C81199  -0.742  10.204   1.769 -0.4805 -0.0874 -0.0521
  616MOL0     C81200  -0.874  10.207   1.849 -1.0647 -0.4156  0.4343
  616MOL0     C81201  -0.990  10.145   1.770  0.4981 -1.2804 -0.3483
  616MOL0     C81202  -1.117  10.107   1.850 -0.0461 -0.7295 -0.3682
  616MOL0     C81203  -1.196  10.218   1.915 -0.4912  0.9665  0.2953
  616MOL0     O81204  -1.234  10.320   1.827  0.6586  0.0182 -0.1447
  616MOL0     C81205  -1.331  10.294   1.735 -0.1037  0.4800 -0.2779
  616MOL0     C81206  -1.298  10.321   1.599 -0.0503  0.2383 -0.5886
  616MOL0     C81207  -1.386  10.288   1.495  0.0947 -0.4611 -0.2607
  616MOL0     C81208  -1.510  10.234   1.524  0.7252  1.2501 -0.0598
  616MOL0     C81209  -1.606  10.228   1.416  0.1282  0.6439  0.6419
  616MOL0     O81210  -1.732  10.199   1.452 -0.3087  0.3113 -0.7318
  616MOL0     C81211  -1.820  10.172   1.354  0.7600  0.1741 -0.6118
  616MOL0     C81212  -1.810  10.075   1.250 -0.1106 -0.3894  0.9750
  616MOL0     C81213  -1.916  10.045   1.171 -0.4865  0.1234  0.1830
  616MOL0     C81214  -2.029  10.118   1.163  0.6952 -0.1976  0.6220
  616MOL0     O81215  -2.119  10.093   1.057 -0.2070  0.4586 -0.6357
  616MOL0     C81216  -2.246  10.152   1.056 -0.4169 -0.0546 -1.1016
  616MOL0     C81217  -2.328  10.091   0.946 -0.3994  0.1891 -0.0204
  616MOL0     C81218  -2.467  10.150   0.934 -0.6685 -0.2740 -0.3139
  616MOL0     C81219  -2.534  10.106   0.802 -0.1667  0.3434  0.8520
  616MOL0     C81220  -2.673  10.160   0.785 -0.2290 -0.4796  0.0180
  616MOL0     C81221  -2.749  10.099   0.668 -0.8066  0.2878  0.4103
  616MOL0     C81222  -2.902  10.135   0.669 -0.3955  1.0897  0.0338
  616MOL0     C81223  -2.954  10.173   0.530 -0.3124  0.3395  0.2419
  616MOL0    Cl81224  -3.133  10.203   0.507 -0.7281  0.2856  0.0674
  616MOL0     C81225  -2.039  10.225   1.257 -0.1690 -0.1294 -0.2606
  616MOL0     C81226  -1.940  10.248   1.352 -0.6877 -0.3491 -0.8496
  616MOL0     O81227  -1.564  10.246   1.302  0.5111  0.1054  0.1502
  616MOL0     C81228  -1.539  10.199   1.655  0.9766  0.4398 -0.9945
  616MOL0     C81229  -1.455  10.237   1.752 -1.2247  0.0959  0.0320
  616MOL0     N81230  -0.619  10.215   1.835 -1.0783 -0.3513 -0.0896
  616MOL0     N81231  -0.524  10.198   1.741  0.0005 -0.6963 -0.2744
  616MOL0     C81232   0.287   9.808   1.126 -0.5014  0.9650 -0.1081
  616MOL0     C81233   0.305   9.693   1.053  0.2814 -0.4889  0.9082
  616MOL0     C81234   0.207   9.348   0.763 -0.1349  0.5805  0.5517
  616MOL0     C81235   0.100   9.260   0.749 -0.2489  0.2185 -0.5423
  616MOL0     C81236   0.101   9.165   0.646  0.2766  0.1493 -0.1364
  616MOL0     C81237   0.209   9.130   0.563  0.5510  0.0262  0.1213
  616MOL0     O81238   0.219   9.023   0.479  0.1548  0.1284  1.0032
  616MOL0     C81239   0.096   8.962   0.426  0.0108  0.4827  0.6095
  616MOL0     C81240   0.139   8.860   0.327  0.2440  0.2676 -0.1563
  616MOL0     C81241   0.022   8.795   0.248 -0.3257  0.9701 -0.0876
  616MOL0     C81242  -0.060   8.688   0.320 -0.5193 -0.9138 -0.7840
  616MOL0     C81243  -0.193   8.666   0.260 -0.2083  1.3795  0.1210
  616MOL0     C81244  -0.301   8.625   0.232  0.1189  0.0479 -0.0607
  616MOL0     C81245   0.321   9.210   0.582  0.8257  0.0588  0.4603
  616MOL0     C81246   0.314   9.322   0.673 -0.5554 -0.3038 -0.5104
  616MOL0     H81247   0.088   9.750   0.798 -2.1487 -1.3391  1.3704
  616MOL0     H81248   0.055   9.963   0.935 -0.4130  0.9783  1.4501
  616MOL0     H81249   0.075  10.143   1.032  1.1081 -2.0650 -2.0764
  616MOL0     H81250   0.258  10.146   1.011  0.7571  0.4273  1.3953
  616MOL0     H81251   0.124  10.339   1.123 -2.0911 -1.5256 -0.6462
  616MOL0     H81252   0.271  10.285   1.215 -0.8885  3.1144  2.3023
  616MOL0     H81253   0.066  10.326   1.346 -0.1924 -2.0391  1.5048
  616MOL0     H81254   0.115  10.151   1.362 -2.4758 -2.4988 -1.1204
  616MOL0     H81255  -0.120  10.257   1.181 -0.6595 -0.5455  0.1105
  616MOL0     H81256  -0.061  10.083   1.204 -2.0521 -1.2380  0.8043
  616MOL0     H81257  -0.152  10.296   1.410  2.8833 -0.1683  1.0405
  616MOL0     H81258  -0.113  10.125   1.446  0.8009 -0.2241 -0.2657
  616MOL0     H81259  -0.314  10.058   1.326 -1.9097  0.8021 -1.2427
  616MOL0     H81260  -0.346  10.233   1.281  2.3513  0.0855 -0.4078
  616MOL0     H81261  -0.329  10.135   1.570 -1.8904  2.9769  1.8020
  616MOL0     H81262  -0.332  10.295   1.524  1.2907 -0.3503  1.1919
  616MOL0     H81263  -0.535  10.079   1.435  2.9004 -1.5393  1.4820
  616MOL0     H81264  -0.553  10.260   1.435 -2.4810 -0.5961  0.9311
  616MOL0     H81265  -0.791  10.159   1.558  1.3915  0.1046 -0.6901
  616MOL0     H81266  -0.897  10.308   1.883 -0.8880  0.3253 -1.4879
  616MOL0     H81267  -0.865  10.137   1.932 -2.7034 -1.9581 -0.6071
  616MOL0     H81268  -0.948  10.052   1.731  0.7944 -0.5434 -1.8665
  616MOL0     H81269  -1.010  10.214   1.688  3.1771 -0.5679 -0.4720
  616MOL0     H81270  -1.180  10.047   1.784  0.6799  0.1824 -1.9569
  616MOL0     H81271  -1.082  10.043   1.931  0.4707 -1.1387 -0.9050
  616MOL0     H81272  -1.150  10.259   2.005 -0.3660  0.8707  0.2753
  616MOL0     H81273  -1.287  10.174   1.958  1.3507 -0.1509  3.3260
  616MOL0     H81274  -1.199  10.360   1.575  1.2847 -2.4948  0.1245
  616MOL0     H81275  -1.353  10.320   1.396 -0.0126 -1.1507 -0.5246
  616MOL0     H81276  -1.729  10.002   1.250  0.9509  0.5871 -2.2847
  616MOL0     H81277  -1.898   9.970   1.094  2.1028 -2.5102  3.0373
  616MOL0     H81278  -2.252  10.261   1.054 -0.7305 -0.0443 -0.0214
  616MOL0     H81279  -2.304  10.126   1.145 -2.0561 -0.4089 -2.2335
  616MOL0     H81280  -2.334   9.983   0.964  0.4309  0.5617  3.0812
  616MOL0     H81281  -2.272  10.099   0.852  1.0032 -1.0805  0.6617
  616MOL0     H81282  -2.463  10.259   0.947 -0.1786 -0.5589  2.5537
  616MOL0     H81283  -2.527  10.125   1.021 -1.1537 -1.8850 -1.0813
  616MOL0     H81284  -2.472  10.121   0.714  0.8477 -0.5323  1.3935
  616MOL0     H81285  -2.560   9.999   0.806 -1.7883  0.7034  0.7570
  616MOL0     H81286  -2.673  10.268   0.767  1.8012 -0.7042 -1.8467
  616MOL0     H81287  -2.730  10.146   0.877 -0.1481  0.0024  0.1476
  616MOL0     H81288  -2.736   9.991   0.659  2.0905  0.6359 -0.7386
  616MOL0     H81289  -2.704  10.134   0.574  0.3669 -2.9547 -0.3814
  616MOL0     H81290  -2.966  10.051   0.698 -1.1022  1.7454  0.4004
  616MOL0     H81291  -2.920  10.215   0.741 -1.1955 -0.1119  1.2121
  616MOL0     H81292  -2.927  10.096   0.456 -1.7030  0.8532 -0.8453
  616MOL0     H81293  -2.921  10.272   0.497 -1.0505  0.3023 -0.6713
  616MOL0     H81294  -2.130  10.283   1.254 -0.9253 -1.3318 -1.8405
  616MOL0     H81295  -1.949  10.334   1.419 -4.8047 -1.7577  0.7073
  616MOL0     H81296  -1.630  10.150   1.688  0.3603  2.6771  0.9563
  616MOL0     H81297  -1.483  10.214   1.854 -0.3351 -1.8193 -0.1019
  616MOL0     H81298   0.352   9.817   1.213 -0.7753 -1.1396  0.3583
  616MOL0     H81299   0.369   9.614   1.091  0.7449 -0.4825  0.1600
  616MOL0     H81300   0.010   9.285   0.803  0.7066  2.5341  0.1138
  616MOL0     H81301   0.010   9.109   0.629  1.3234 -1.1935 -1.7339
  616MOL0     H81302   0.035   9.039   0.378 -3.8326 -2.0164  1.0905
  616MOL0     H81303   0.032   8.917   0.502 -2.2803  1.4819 -0.6132
  616MOL0     H81304   0.195   8.917   0.252  1.8871 -1.2299 -0.1279
  616MOL0     H81305   0.198   8.776   0.365  1.1711  1.1430  0.4060
  616MOL0     H81306   0.063   8.757   0.154 -1.7145  1.9167 -1.1146
  616MOL0     H81307  -0.043   8.875   0.211  0.7249  1.3699 -1.1072
  616MOL0     H81308  -0.006   8.595   0.333 -0.0008 -0.2987  2.1913
  616MOL0     H81309  -0.080   8.720   0.423 -1.8411  0.7859 -1.5133
  616MOL0     H81310  -0.400   8.590   0.210  0.5079 -0.9086 -0.3800
  616MOL0     H81311   0.408   9.197   0.518  1.3180  0.3672  1.0546
  616MOL0     H81312   0.393   9.396   0.678  0.5891 -1.4487 -1.1792
  617MOL0     O81313   0.817   4.174  11.049  0.4766 -0.0398  0.1644
  617MOL0     C81314   0.836   4.292  11.076  0.0580  0.1484 -0.8079
  617MOL0     O81315   0.752   4.362  11.160  0.9266 -0.0229 -0.7413
  617MOL0     C81316   0.624   4.311  11.190 -0.5413 -0.1110 -1.3433
  617MOL0     C81317   0.574   4.362  11.310  1.6177 -0.3984  0.1198
  617MOL0     C81318   0.440   4.323  11.359 -0.5660  0.7997  0.0305
  617MOL0     C81319   0.352   4.251  11.271 -0.2849  0.1864 -0.0025
  617MOL0     O81320   0.226   4.222  11.308 -0.7431 -0.6245 -0.1987
  617MOL0     C81321   0.167   4.112  11.236  0.5620  0.6360  0.6336
  617MOL0     C81322   0.034   4.074  11.302  0.1622 -0.0961  0.0234
  617MOL0     C81323   0.061   3.998  11.442 -0.3951  0.8562 -0.5436
  617MOL0     C81324  -0.080   3.953  11.497  0.2066 -0.4788 -0.2773
  617MOL0     C81325  -0.065   3.900  11.647  0.3432  0.2809  0.1624
  617MOL0     C81326  -0.169   3.800  11.683  0.3116 -0.4307  0.1073
  617MOL0     C81327  -0.289   3.856  11.755  0.1305  0.0128 -0.7785
  617MOL0     C81328  -0.381   3.936  11.664 -0.4141 -0.0347 -0.9695
  617MOL0     N81329  -0.499   3.966  11.754 -0.5220 -0.5569  0.5867
  617MOL0     C81330  -0.609   3.885  11.781 -0.6004 -0.0444  0.1806
  617MOL0     C81331  -0.682   3.946  11.883 -0.8472 -0.4961 -0.8400
  617MOL0     C81332  -0.794   3.891  11.957  0.5979 -0.1439  0.0845
  617MOL0     C81333  -0.917   3.922  11.870  0.0998  0.2720 -0.5221
  617MOL0     C81334  -0.942   4.076  11.838 -0.1082  0.6593  0.3226
  617MOL0     C81335  -1.082   4.105  11.796 -0.5685 -0.3867 -0.1680
  617MOL0     O81336  -1.176   4.042  11.887  0.1982 -0.2197  0.7375
  617MOL0     C81337  -1.291   4.111  11.907 -0.9324  0.1121 -0.2734
  617MOL0     C81338  -1.333   4.127  12.041 -1.2539 -0.2618  0.1188
  617MOL0     C81339  -1.450   4.203  12.055  0.0345  0.6768  0.0023
  617MOL0     C81340  -1.521   4.252  11.944 -0.3906 -0.0836 -0.0830
  617MOL0     C81341  -1.648   4.328  11.967  0.3841 -0.0527  0.4500
  617MOL0     O81342  -1.729   4.357  11.859 -0.0582 -0.3377 -0.0004
  617MOL0     C81343  -1.859   4.398  11.880 -0.1903  0.1219 -0.1366
  617MOL0     C81344  -1.961   4.313  11.840 -0.0803  0.2153  0.2038
  617MOL0     C81345  -2.097   4.348  11.843 -0.0861  0.5784 -0.3521
  617MOL0     C81346  -2.132   4.487  11.858 -0.8180  0.4295  0.1352
  617MOL0     O81347  -2.260   4.534  11.857 -0.6432 -0.5612 -0.6877
  617MOL0     C81348  -2.344   4.484  11.753 -0.2640  0.4703 -0.3790
  617MOL0     C81349  -2.462   4.579  11.745 -0.1689 -0.4208 -0.6524
  617MOL0     C81350  -2.423   4.725  11.715 -0.1144 -0.0928 -1.0780
  617MOL0     C81351  -2.544   4.826  11.718  0.6382  0.4485 -0.2619
  617MOL0     C81352  -2.618   4.826  11.850 -0.4583  0.1424  0.3701
  617MOL0     C81353  -2.747   4.907  11.847  0.0480  0.3699 -0.1121
  617MOL0     C81354  -2.805   4.937  11.984 -0.0795 -0.0342  0.3572
  617MOL0     C81355  -2.924   5.042  11.982  0.2401  0.6523  0.4571
  617MOL0    Cl81356  -2.980   5.092  12.149  0.0625 -0.5640 -0.2154
  617MOL0     C81357  -2.025   4.567  11.908 -0.1154 -0.6180 -1.3382
  617MOL0     C81358  -1.889   4.524  11.924  1.2920 -0.7043  0.5553
  617MOL0     O81359  -1.674   4.353  12.088 -0.4481  0.0732 -0.8509
  617MOL0     C81360  -1.484   4.233  11.810  0.4279 -0.1313 -0.2775
  617MOL0     C81361  -1.365   4.159  11.795 -0.2210 -0.5060  0.5990
  617MOL0     N81362  -0.613   4.058  11.921 -0.5533 -0.1307 -0.6345
  617MOL0     N81363  -0.498   4.061  11.855  0.3264  0.6717  0.2067
  617MOL0     C81364   0.407   4.211  11.147  0.5864  0.5474 -0.0304
  617MOL0     C81365   0.541   4.234  11.112 -0.0022  0.5748  0.2455
  617MOL0     C81366   0.960   4.348  11.042 -0.5609 -0.4232 -0.5271
  617MOL0     C81367   1.055   4.279  10.970  0.4287  0.9978  0.5551
  617MOL0     C81368   1.185   4.336  10.952 -1.0185 -0.2384 -0.0799
  617MOL0     C81369   1.220   4.452  11.002  0.5878 -0.2676  0.1967
  617MOL0     O81370   1.347   4.494  10.994  0.6125 -0.0102 -0.4614
  617MOL0     C81371   1.378   4.640  10.994 -0.6620  0.0576 -0.7774
  617MOL0     C81372   1.525   4.664  10.964  0.7108  1.0287 -0.6099
  617MOL0     C81373   1.614   4.595  11.075 -0.3144 -0.3529 -0.9263
  617MOL0     C81374   1.756   4.646  11.067 -1.2370  1.0210  0.0960
  617MOL0     C81375   1.821   4.592  10.944  0.2567  0.1975  0.5341
  617MOL0     C81376   1.854   4.523  10.847 -0.0869 -0.3059  0.0013
  617MOL0     C81377   1.119   4.532  11.067  0.7040  0.0090 -0.3518
  617MOL0     C81378   0.988   4.483  11.083 -0.5088  0.2995  0.1200
  617MOL0     H81379   0.633   4.429  11.370 -1.2531  1.1588  1.4174
  617MOL0     H81380   0.399   4.341  11.457  0.6778 -0.8028  0.8932
  617MOL0     H81381   0.227   4.023  11.258 -2.1729 -1.5405 -0.2006
  617MOL0     H81382   0.137   4.118  11.131 -5.4786  1.3198  2.0434
  617MOL0     H81383  -0.029   4.014  11.236 -2.3512  3.3173 -0.9629
  617MOL0     H81384  -0.012   4.171  11.320 -0.5797 -0.5957  0.9039
  617MOL0     H81385   0.107   4.069  11.511 -1.2454  1.1105 -0.2182
  617MOL0     H81386   0.123   3.911  11.419  0.2183  1.3019 -0.6056
  617MOL0     H81387  -0.146   4.041  11.500 -1.5846 -1.6991 -1.5820
  617MOL0     H81388  -0.121   3.869  11.441  1.3569 -0.1363 -1.7000
  617MOL0     H81389  -0.056   3.983  11.717  0.1335  1.3643 -1.0568
  617MOL0     H81390   0.028   3.843  11.653  1.2043  1.7650  2.0761
  617MOL0     H81391  -0.129   3.728  11.755 -0.8282 -0.8931  0.3029
  617MOL0     H81392  -0.205   3.739  11.601 -0.3899 -1.4235  1.1265
  617MOL0     H81393  -0.351   3.775  11.793 -0.6438  1.0800  0.3047
  617MOL0     H81394  -0.247   3.918  11.836  0.9616 -1.8463  0.2815
  617MOL0     H81395  -0.416   3.866  11.587 -0.8059 -0.2513 -0.6022
  617MOL0     H81396  -0.340   4.029  11.624  0.2005  0.0644 -0.1306
  617MOL0     H81397  -0.634   3.793  11.730  1.6589 -1.6348  1.7693
  617MOL0     H81398  -0.798   3.940  12.055  1.1984  0.4222 -0.1678
  617MOL0     H81399  -0.790   3.782  11.969 -0.3632 -0.1955  0.0693
  617MOL0     H81400  -0.997   3.887  11.937  0.0978  0.1588 -0.5835
  617MOL0     H81401  -0.920   3.856  11.783  2.1150 -2.8633  1.5776
  617MOL0     H81402  -0.914   4.138  11.923 -1.1845  0.4239  0.8513
  617MOL0     H81403  -0.876   4.096  11.752  0.1246 -0.5653  0.2028
  617MOL0     H81404  -1.104   4.063  11.698 -0.4658  0.4484 -0.5541
  617MOL0     H81405  -1.096   4.213  11.796  0.2904 -0.2547 -1.4505
  617MOL0     H81406  -1.281   4.084  12.127 -0.7911  1.4534  0.7424
  617MOL0     H81407  -1.498   4.209  12.153 -0.9286 -0.3448 -0.3742
  617MOL0     H81408  -1.937   4.213  11.807  0.7010  1.3002 -2.7831
  617MOL0     H81409  -2.185   4.287  11.827  1.0763 -0.6668 -2.6663
  617MOL0     H81410  -2.378   4.383  11.777  1.8519 -0.0338  0.6532
  617MOL0     H81411  -2.289   4.484  11.659 -0.7777  0.2249 -0.6839
  617MOL0     H81412  -2.507   4.575  11.845 -0.1521  0.4337 -0.6008
  617MOL0     H81413  -2.530   4.539  11.670 -1.1200  1.6800 -1.0035
  617MOL0     H81414  -2.365   4.741  11.624 -0.5401  1.5331 -1.0868
  617MOL0     H81415  -2.360   4.755  11.799 -1.4630 -1.2192  0.4054
  617MOL0     H81416  -2.505   4.926  11.695  0.6638  0.7030  0.8288
  617MOL0     H81417  -2.615   4.791  11.642  0.0013 -1.6820  1.2489
  617MOL0     H81418  -2.550   4.866  11.926  1.5406 -3.6531  0.8303
  617MOL0     H81419  -2.646   4.723  11.873 -2.4674  0.7381  0.8373
  617MOL0     H81420  -2.825   4.851  11.795  0.2303 -1.9525  1.9345
  617MOL0     H81421  -2.730   5.008  11.807 -2.5258  1.7583  1.9449
  617MOL0     H81422  -2.832   4.842  12.032  0.6249  0.5031  1.8598
  617MOL0     H81423  -2.730   4.979  12.051  0.7681 -0.2346 -0.4467
  617MOL0     H81424  -3.008   4.996  11.928  1.3884 -0.2838 -0.6049
  617MOL0     H81425  -2.898   5.131  11.925 -1.6809  1.4541  0.7462
  617MOL0     H81426  -2.049   4.668  11.940 -0.8968 -1.7195  1.8530
  617MOL0     H81427  -1.815   4.595  11.958  1.1705 -0.1206 -0.3442
  617MOL0     H81428  -1.545   4.276  11.731  0.7653  2.5616  0.8256
  617MOL0     H81429  -1.332   4.144  11.693 -0.0559 -0.4317  0.6408
  617MOL0     H81430   0.349   4.146  11.082  0.1940 -1.1112  1.8708
  617MOL0     H81431   0.572   4.169  11.031 -0.4749 -2.0278  2.0279
  617MOL0     H81432   1.035   4.177  10.940 -0.7975  1.0441  1.1770
  617MOL0     H81433   1.263   4.282  10.900  0.4375 -0.0104  1.7835
  617MOL0     H81434   1.364   4.677  11.096 -2.6176 -0.0798 -0.9519
  617MOL0     H81435   1.313   4.697  10.928 -1.4408  0.8434  0.6098
  617MOL0     H81436   1.561   4.631  10.867 -0.4168  0.9097 -0.9976
  617MOL0     H81437   1.538   4.773  10.958  1.4848  0.9150 -1.0778
  617MOL0     H81438   1.606   4.486  11.074  2.7329 -0.7603  2.1585
  617MOL0     H81439   1.576   4.637  11.168 -0.9807 -2.6478 -0.1169
  617MOL0     H81440   1.759   4.755  11.069 -1.0561  1.0386 -0.7428
  617MOL0     H81441   1.813   4.619  11.156  0.7791  3.3759 -0.3824
  617MOL0     H81442   1.887   4.469  10.761 -0.4134  1.3227 -1.2080
  617MOL0     H81443   1.143   4.629  11.110  2.6746 -1.4074  2.0160
  617MOL0     H81444   0.914   4.552  11.121 -0.8449 -0.2610  0.4968
  618MOL0     O81445   9.477   1.438   7.632  0.9177 -0.4093  0.0539
  618MOL0     C81446   9.499   1.438   7.513  0.1866  0.1358  0.2273
  618MOL0     O81447   9.413   1.388   7.419 -0.0391  0.2550 -0.0569
  618MOL0     C81448   9.279   1.385   7.451  0.6908  0.6998 -0.5017
  618MOL0     C81449   9.196   1.490   7.425 -0.0078  0.5073  0.0354
  618MOL0     C81450   9.065   1.497   7.468  0.5445  0.0561  0.9747
  618MOL0     C81451   9.001   1.386   7.511 -0.2548 -0.0749 -0.0043
  618MOL0     O81452   8.874   1.379   7.561  0.3869  0.0629  0.4159
  618MOL0     C81453   8.799   1.496   7.580  0.4158  0.1223 -0.0391
  618MOL0     C81454   8.668   1.457   7.658  0.7100  0.6662 -0.0539
  618MOL0     C81455   8.570   1.394   7.558  0.9076 -0.2611  0.6149
  618MOL0     C81456   8.437   1.367   7.624 -0.2856  0.7194  0.5466
  618MOL0     C81457   8.334   1.289   7.546  0.0033 -0.5159 -0.1308
  618MOL0     C81458   8.195   1.308   7.584  0.4264 -0.5338  0.6277
  618MOL0     C81459   8.099   1.219   7.505 -0.6228  0.7093  0.0156
  618MOL0     C81460   7.957   1.252   7.537 -0.3457 -0.1832 -0.0814
  618MOL0     N81461   7.869   1.141   7.474  0.2647  0.2617 -1.0044
  618MOL0     C81462   7.827   1.121   7.345  0.4086  0.3834 -0.8652
  618MOL0     C81463   7.746   1.018   7.344 -0.5106 -0.0394 -0.3537
  618MOL0     C81464   7.677   0.958   7.224  0.6825 -0.5190  0.4095
  618MOL0     C81465   7.750   0.831   7.180  0.1144  0.6623 -0.0148
  618MOL0     C81466   7.649   0.726   7.135  0.4942  0.1167 -0.5265
  618MOL0     C81467   7.548   0.762   7.030  0.2073  0.7350 -0.2135
  618MOL0     O81468   7.434   0.838   7.056 -0.0492 -0.3693 -0.7133
  618MOL0     C81469   7.326   0.803   6.984 -0.4836  0.0856 -0.8941
  618MOL0     C81470   7.249   0.698   7.021  0.4589  0.1525 -0.5891
  618MOL0     C81471   7.127   0.676   6.952 -0.5706  0.9237  0.4918
  618MOL0     C81472   7.083   0.752   6.846  0.6087 -0.7058 -0.3960
  618MOL0     C81473   6.949   0.746   6.782  0.0617  1.4910 -0.6790
  618MOL0     O81474   6.851   0.695   6.864  0.1377  0.5146  0.1826
  618MOL0     C81475   6.717   0.699   6.834 -0.6917  0.7060  0.2415
  618MOL0     C81476   6.663   0.825   6.786 -0.2287 -0.4116  1.1774
  618MOL0     C81477   6.524   0.824   6.764 -0.2027 -0.0647  0.4342
  618MOL0     C81478   6.439   0.716   6.789 -0.2685 -0.4191  0.1762
  618MOL0     O81479   6.307   0.739   6.782  0.1106 -0.1006 -0.0104
  618MOL0     C81480   6.212   0.637   6.754  0.7410 -0.2583 -0.2424
  618MOL0     C81481   6.080   0.707   6.728  0.2511 -0.1928 -0.1347
  618MOL0     C81482   5.955   0.612   6.704 -0.5473  0.6828 -0.8377
  618MOL0     C81483   5.818   0.689   6.696  0.0403 -0.5289 -0.5693
  618MOL0     C81484   5.696   0.593   6.694  0.2033  1.4775 -1.3400
  618MOL0     C81485   5.576   0.655   6.629  0.2903 -0.2264  0.8281
  618MOL0     C81486   5.448   0.565   6.635  0.3067 -0.4765 -0.8507
  618MOL0     C81487   5.315   0.640   6.620  0.1884  0.2954  0.0562
  618MOL0    Cl81488   5.190   0.522   6.603  0.3051 -0.1121  0.3379
  618MOL0     C81489   6.496   0.601   6.832  0.9896  0.0649  0.5878
  618MOL0     C81490   6.636   0.589   6.858  0.3924  0.0043 -0.2170
  618MOL0     O81491   6.938   0.773   6.661  0.3102 -0.0805 -0.2734
  618MOL0     C81492   7.163   0.857   6.808 -0.2508  0.3674  0.4033
  618MOL0     C81493   7.289   0.882   6.874 -0.2681 -0.3157  0.0003
  618MOL0     N81494   7.740   0.969   7.474 -0.4627  0.0648  0.6145
  618MOL0     N81495   7.806   1.043   7.550  0.4201 -0.9321  0.0416
  618MOL0     C81496   9.072   1.261   7.514 -0.0112  0.3111  0.3400
  618MOL0     C81497   9.214   1.267   7.495 -0.9246 -0.9186  0.5389
  618MOL0     C81498   9.633   1.484   7.465 -0.4644  0.3270  0.6742
  618MOL0     C81499   9.653   1.520   7.333  0.8289 -0.3657 -0.4214
  618MOL0     C81500   9.778   1.561   7.293  0.4497  0.8678  0.1966
  618MOL0     C81501   9.888   1.568   7.381 -0.2515 -0.0307 -0.8341
  618MOL0     O81502  10.011   1.618   7.348  0.4569 -0.6064  0.6123
  618MOL0     C81503  10.035   1.641   7.212  0.0793 -0.4004  0.9394
  618MOL0     C81504  10.182   1.671   7.203  0.7977 -0.2528 -0.9130
  618MOL0     C81505  10.266   1.538   7.209 -0.8966  0.7190  0.5299
  618MOL0     C81506  10.412   1.569   7.175 -0.6335 -0.2598 -0.8551
  618MOL0     C81507  10.498   1.459   7.227 -0.5867 -0.4032  0.1015
  618MOL0     C81508  10.561   1.381   7.296 -0.2050  0.4174  0.4605
  618MOL0     C81509   9.865   1.533   7.514 -0.0875  0.1024  0.1765
  618MOL0     C81510   9.735   1.489   7.554 -1.4165 -0.1789 -0.3114
  618MOL0     H81511   9.247   1.575   7.380  0.6981 -0.6732 -1.4827
  618MOL0     H81512   9.001   1.584   7.455  1.4005  0.5716  0.0603
  618MOL0     H81513   8.776   1.543   7.484  2.5987 -1.1295 -1.2611
  618MOL0     H81514   8.853   1.563   7.648 -0.4330  0.6193  0.1598
  618MOL0     H81515   8.627   1.553   7.689 -0.4552  0.8041 -1.8783
  618MOL0     H81516   8.689   1.379   7.732  2.8101  1.8943  0.7193
  618MOL0     H81517   8.616   1.303   7.519 -0.7259  0.5395 -3.7323
  618MOL0     H81518   8.550   1.461   7.474 -0.9032  0.3950  1.5086
  618MOL0     H81519   8.460   1.310   7.715 -2.6161  1.0932  1.4517
  618MOL0     H81520   8.396   1.461   7.660 -0.4531  1.7365 -2.0930
  618MOL0     H81521   8.373   1.187   7.548  1.7931  0.0953  3.0495
  618MOL0     H81522   8.339   1.315   7.440 -2.3182 -1.2587 -0.4786
  618MOL0     H81523   8.164   1.411   7.563 -2.6362 -1.5540 -0.5368
  618MOL0     H81524   8.179   1.286   7.690  0.9428  0.9482  1.0405
  618MOL0     H81525   8.129   1.241   7.402 -0.4373  1.3599  0.2071
  618MOL0     H81526   8.122   1.114   7.526 -1.2582  0.2743 -1.3909
  618MOL0     H81527   7.916   1.345   7.499  1.2078  0.8116  0.5461
  618MOL0     H81528   7.945   1.255   7.646 -0.2292  2.7896 -0.0640
  618MOL0     H81529   7.862   1.178   7.259 -0.7356 -1.8644 -2.9622
  618MOL0     H81530   7.675   1.033   7.144 -0.8082 -0.7234  0.2317
  618MOL0     H81531   7.572   0.941   7.249 -0.1918  2.8712 -0.3388
  618MOL0     H81532   7.804   0.788   7.265 -1.8000 -0.1727  0.8445
  618MOL0     H81533   7.821   0.854   7.100 -0.6836  0.0938 -0.9016
  618MOL0     H81534   7.705   0.640   7.097  1.6923  1.0248 -0.8733
  618MOL0     H81535   7.596   0.689   7.224  0.3306  0.6693 -0.3872
  618MOL0     H81536   7.516   0.667   6.986  2.3593  0.1118 -0.5132
  618MOL0     H81537   7.593   0.812   6.944  0.0871 -1.2506 -1.4964
  618MOL0     H81538   7.270   0.654   7.119 -1.8895  2.4260  1.0702
  618MOL0     H81539   7.063   0.594   6.981 -0.8130  0.8436 -0.2315
  618MOL0     H81540   6.720   0.914   6.760 -3.2358  0.5314 -3.4930
  618MOL0     H81541   6.479   0.922   6.748  2.4268  1.3466  1.1153
  618MOL0     H81542   6.210   0.574   6.843 -1.3551  0.5791  0.3524
  618MOL0     H81543   6.247   0.588   6.662 -0.1515 -0.6588 -0.3723
  618MOL0     H81544   6.086   0.777   6.644  4.5664  1.1967  1.0462
  618MOL0     H81545   6.058   0.764   6.819  3.4230  1.2945 -0.1566
  618MOL0     H81546   5.950   0.541   6.787 -0.3593  2.4619  0.7610
  618MOL0     H81547   5.971   0.560   6.609  0.6736  1.7881 -1.2703
  618MOL0     H81548   5.815   0.757   6.782  0.0285  0.2920 -1.2184
  618MOL0     H81549   5.814   0.742   6.601 -0.1414 -0.0716 -0.3098
  618MOL0     H81550   5.676   0.579   6.801  0.3563 -0.4490 -1.5200
  618MOL0     H81551   5.719   0.494   6.652  1.6022  0.1636  2.1551
  618MOL0     H81552   5.589   0.675   6.522 -1.4535 -0.3400  0.5661
  618MOL0     H81553   5.559   0.752   6.677  0.8777 -0.3331  1.2593
  618MOL0     H81554   5.461   0.489   6.558  0.5083 -0.9020 -0.4031
  618MOL0     H81555   5.444   0.517   6.733 -0.5858  1.2414 -0.0060
  618MOL0     H81556   5.317   0.705   6.532 -2.5848 -0.5438 -0.7418
  618MOL0     H81557   5.300   0.708   6.703  1.1181  0.1327  0.3694
  618MOL0     H81558   6.445   0.508   6.852  1.1916 -0.1289  0.2192
  618MOL0     H81559   6.672   0.497   6.901 -2.7641 -1.0626  0.4157
  618MOL0     H81560   7.128   0.925   6.732 -0.2361 -0.7973 -0.6784
  618MOL0     H81561   7.343   0.969   6.837 -1.4414 -0.4728 -2.2256
  618MOL0     H81562   9.013   1.172   7.535 -0.3116  0.3517 -0.3107
  618MOL0     H81563   9.267   1.173   7.509 -2.1385 -1.3188  2.9061
  618MOL0     H81564   9.573   1.500   7.262 -0.5360 -1.2442  1.3009
  618MOL0     H81565   9.791   1.590   7.189  0.3962  1.3621  0.3260
  618MOL0     H81566   9.974   1.722   7.173  0.8323  0.2279  1.0267
  618MOL0     H81567  10.023   1.550   7.152  2.0242 -0.6431  0.8435
  618MOL0     H81568  10.213   1.722   7.111  1.0144  0.1585 -0.6194
  618MOL0     H81569  10.213   1.724   7.293 -2.9078  0.3034  0.1877
  618MOL0     H81570  10.232   1.464   7.137  1.4166 -0.3378  0.4216
  618MOL0     H81571  10.255   1.503   7.312  1.2342  2.7823  1.5560
  618MOL0     H81572  10.440   1.576   7.069 -0.0956  0.5469 -0.6710
  618MOL0     H81573  10.440   1.663   7.223 -4.3793  0.0083  1.0902
  618MOL0     H81574  10.619   1.318   7.360  2.6609  0.1574 -2.1695
  618MOL0     H81575   9.940   1.533   7.592  3.8059 -1.1573 -3.2002
  618MOL0     H81576   9.710   1.480   7.659 -1.1821  0.7447 -0.1684
  619MOL0     O81577   1.789   5.317   0.779 -0.3836  0.4510 -0.3608
  619MOL0     C81578   1.777   5.407   0.862 -0.3693 -0.8517  0.3326
  619MOL0     O81579   1.689   5.402   0.975  0.1997 -0.1827 -0.4015
  619MOL0     C81580   1.633   5.284   1.015  0.5633 -0.4939 -0.3263
  619MOL0     C81581   1.681   5.207   1.123  0.1068  0.0628  0.7507
  619MOL0     C81582   1.603   5.107   1.178 -0.9345  0.8881  0.6000
  619MOL0     C81583   1.486   5.067   1.120  0.2199 -0.6212  0.1603
  619MOL0     O81584   1.425   4.954   1.181 -0.1333 -0.1625 -0.5359
  619MOL0     C81585   1.299   4.913   1.124 -0.2424 -0.3470  0.2546
  619MOL0     C81586   1.262   4.778   1.198  0.6735 -1.5145 -0.1732
  619MOL0     C81587   1.129   4.734   1.147  0.3270  0.2623  0.1315
  619MOL0     C81588   1.094   4.592   1.203 -0.9452  0.0197  0.1044
  619MOL0     C81589   0.948   4.554   1.175  0.1866 -0.1214  0.4479
  619MOL0     C81590   0.886   4.462   1.276 -0.2072  0.0376 -0.6288
  619MOL0     C81591   0.738   4.411   1.230 -0.5843 -0.1680 -0.4267
  619MOL0     C81592   0.655   4.523   1.166 -0.9563 -0.2893 -0.6582
  619MOL0     N81593   0.524   4.473   1.125 -0.1401 -0.0115 -0.0147
  619MOL0     C81594   0.404   4.522   1.174 -0.5903  0.4297  0.2549
  619MOL0     C81595   0.326   4.411   1.165  0.3704  0.2334  0.1670
  619MOL0     C81596   0.189   4.401   1.217 -1.1003 -0.2061  0.6916
  619MOL0     C81597   0.079   4.437   1.121  0.5161 -0.1415  0.7680
  619MOL0     C81598   0.077   4.352   0.996 -0.2488  1.1686 -0.3400
  619MOL0     C81599  -0.064   4.332   0.938 -0.0722 -0.1677  0.2336
  619MOL0     O81600  -0.121   4.460   0.938  0.3460  0.2918 -0.1410
  619MOL0     C81601  -0.247   4.465   0.879  0.1871  0.5995 -0.0574
  619MOL0     C81602  -0.293   4.594   0.876  1.1213  0.2485  0.2557
  619MOL0     C81603  -0.430   4.614   0.842  0.0932 -0.5710 -0.5100
  619MOL0     C81604  -0.511   4.508   0.802  0.3172 -0.0584 -0.8120
  619MOL0     C81605  -0.646   4.538   0.752  0.5118  0.6798 -0.5828
  619MOL0     O81606  -0.712   4.443   0.681 -0.0392  0.0647  0.6915
  619MOL0     C81607  -0.835   4.490   0.621 -0.4140  0.3656  0.5598
  619MOL0     C81608  -0.832   4.572   0.511 -0.1216 -0.2831  0.2395
  619MOL0     C81609  -0.948   4.605   0.441  0.6120 -0.1381  0.3615
  619MOL0     C81610  -1.069   4.554   0.489 -0.6332  0.0897  0.1270
  619MOL0     O81611  -1.187   4.575   0.417 -0.0254 -0.5874 -0.0399
  619MOL0     C81612  -1.304   4.608   0.494 -0.0897  0.4794 -0.6149
  619MOL0     C81613  -1.414   4.644   0.396  0.8547 -1.2901  0.1842
  619MOL0     C81614  -1.541   4.684   0.465 -0.9427  0.0070  0.4905
  619MOL0     C81615  -1.653   4.703   0.368 -0.1628 -0.7339  0.1048
  619MOL0     C81616  -1.774   4.764   0.429 -0.6003  0.7395 -0.0920
  619MOL0     C81617  -1.881   4.755   0.325  0.7139 -0.1164 -0.3815
  619MOL0     C81618  -2.011   4.809   0.384  0.3141 -0.0425  0.8996
  619MOL0     C81619  -2.008   4.965   0.380 -0.8365  0.2212  0.3333
  619MOL0    Cl81620  -2.174   4.996   0.438  0.0424 -0.0281 -0.2163
  619MOL0     C81621  -1.075   4.471   0.599 -0.2452  1.6444 -0.5889
  619MOL0     C81622  -0.957   4.430   0.661 -0.1967 -0.6277 -0.6540
  619MOL0     O81623  -0.683   4.651   0.768 -0.1692 -0.0255 -0.3262
  619MOL0     C81624  -0.455   4.377   0.802 -0.3178 -0.8856 -0.0724
  619MOL0     C81625  -0.324   4.347   0.840 -0.5616  0.2437 -0.6537
  619MOL0     N81626   0.388   4.311   1.095 -0.1684 -0.9273  0.3521
  619MOL0     N81627   0.506   4.352   1.078 -0.1822  0.4738  0.0073
  619MOL0     C81628   1.437   5.145   1.016  0.4776 -0.4378 -0.3452
  619MOL0     C81629   1.515   5.246   0.963  1.1562 -0.5122  0.7413
  619MOL0     C81630   1.849   5.540   0.825 -0.5399  1.1340  0.4637
  619MOL0     C81631   1.831   5.643   0.917 -0.6102 -0.1494 -0.1705
  619MOL0     C81632   1.883   5.773   0.885  1.0714  0.5579  0.0137
  619MOL0     C81633   1.949   5.797   0.759  0.5777 -0.4759 -0.5318
  619MOL0     O81634   1.995   5.911   0.711 -0.1160 -0.0670  0.3193
  619MOL0     C81635   2.036   6.012   0.803  0.5055 -0.3719  0.7645
  619MOL0     C81636   2.106   6.117   0.720  0.6159 -0.3355  0.4206
  619MOL0     C81637   2.128   6.246   0.801  0.3397  0.3724  0.0627
  619MOL0     C81638   2.172   6.360   0.718 -0.4648 -0.4501  0.4172
  619MOL0     C81639   2.321   6.373   0.725 -0.7981 -0.8047  0.8833
  619MOL0     C81640   2.438   6.379   0.739  0.0124  0.8013  0.4193
  619MOL0     C81641   1.961   5.682   0.671  0.2413  0.7087 -0.4451
  619MOL0     C81642   1.912   5.550   0.697 -0.4532 -0.7984  0.1285
  619MOL0     H81643   1.776   5.239   1.165  1.0542  0.1068 -1.2761
  619MOL0     H81644   1.648   5.053   1.260  0.3742 -0.3480 -0.8614
  619MOL0     H81645   1.312   4.892   1.018 -1.3050  0.5568 -0.0843
  619MOL0     H81646   1.226   4.995   1.132  1.6722  1.4050  0.7568
  619MOL0     H81647   1.258   4.795   1.306  0.6024  1.6386 -0.5842
  619MOL0     H81648   1.334   4.701   1.167 -0.6413 -2.7032 -0.3846
  619MOL0     H81649   1.122   4.726   1.038 -0.7792  0.5570  0.1639
  619MOL0     H81650   1.042   4.796   1.175 -0.1229 -0.4967  0.4525
  619MOL0     H81651   1.165   4.523   1.157  0.8894  2.3550 -0.7632
  619MOL0     H81652   1.115   4.587   1.310 -1.7093 -1.5837  0.2095
  619MOL0     H81653   0.933   4.518   1.073  1.1451  1.5459 -0.3302
  619MOL0     H81654   0.887   4.645   1.163  0.6877 -0.0614 -2.2750
  619MOL0     H81655   0.884   4.513   1.373  0.6430 -2.3019  0.7128
  619MOL0     H81656   0.949   4.374   1.292  0.3009  0.7743  1.9171
  619MOL0     H81657   0.740   4.330   1.156  1.6102  0.3634 -1.0320
  619MOL0     H81658   0.693   4.369   1.320  1.8437 -3.0269 -0.4136
  619MOL0     H81659   0.716   4.555   1.081  3.0122 -0.0002  2.0427
  619MOL0     H81660   0.649   4.604   1.239  1.1399  1.1476 -1.9640
  619MOL0     H81661   0.390   4.614   1.230 -2.5287  0.8829 -0.8635
  619MOL0     H81662   0.189   4.445   1.317  1.4384  2.5479 -0.3456
  619MOL0     H81663   0.186   4.293   1.237 -1.3485 -0.4752 -0.6750
  619MOL0     H81664   0.081   4.541   1.087 -2.0109 -0.5983 -1.0892
  619MOL0     H81665  -0.020   4.426   1.165 -0.0104  1.4335  0.0666
  619MOL0     H81666   0.137   4.399   0.917 -0.1535  0.7102 -0.5415
  619MOL0     H81667   0.124   4.254   1.004 -1.1647  0.3626 -3.4965
  619MOL0     H81668  -0.119   4.263   1.003 -0.2528 -0.9380 -0.7143
  619MOL0     H81669  -0.058   4.280   0.842 -0.6497  4.0699 -2.3598
  619MOL0     H81670  -0.231   4.669   0.925  0.0256 -0.3687  2.7556
  619MOL0     H81671  -0.459   4.719   0.843  1.6071 -0.1137  1.6290
  619MOL0     H81672  -0.743   4.624   0.479  1.1764 -3.6597 -2.0792
  619MOL0     H81673  -0.949   4.665   0.351 -1.2345 -0.6138  0.0128
  619MOL0     H81674  -1.282   4.695   0.557  2.6716 -0.5783  0.0176
  619MOL0     H81675  -1.347   4.521   0.545 -0.0165  0.5894 -0.3626
  619MOL0     H81676  -1.434   4.556   0.334  0.9661 -0.2303 -1.4210
  619MOL0     H81677  -1.379   4.728   0.334 -0.1832 -0.7293  0.3327
  619MOL0     H81678  -1.515   4.780   0.511  1.8079 -0.9504  1.1636
  619MOL0     H81679  -1.572   4.615   0.543  0.1008  1.1009  1.9361
  619MOL0     H81680  -1.608   4.757   0.285  0.5835  1.5751  1.8917
  619MOL0     H81681  -1.680   4.604   0.330  0.2532 -0.5687 -0.6329
  619MOL0     H81682  -1.750   4.867   0.458  0.9993 -0.6598  4.2931
  619MOL0     H81683  -1.804   4.721   0.525 -0.5602  4.6767  1.9162
  619MOL0     H81684  -1.905   4.651   0.303  0.9229 -0.0283 -1.0630
  619MOL0     H81685  -1.859   4.796   0.225 -3.5064  0.0303 -1.4293
  619MOL0     H81686  -2.103   4.769   0.342 -0.8672  1.4069  2.0105
  619MOL0     H81687  -2.010   4.787   0.491  1.1890  1.0504  1.1476
  619MOL0     H81688  -1.994   4.989   0.274  0.8909 -0.8452  0.2897
  619MOL0     H81689  -1.925   5.003   0.439  0.2019  1.7598 -1.9884
  619MOL0     H81690  -1.166   4.425   0.637 -0.7372  0.9180 -2.5624
  619MOL0     H81691  -0.946   4.349   0.733  2.5280 -0.1043 -0.3758
  619MOL0     H81692  -0.514   4.288   0.784 -1.0681 -0.1060 -1.6909
  619MOL0     H81693  -0.292   4.244   0.846 -2.8220 -0.7718 -3.5351
  619MOL0     H81694   1.334   5.132   0.984 -0.2121 -0.4395  1.7293
  619MOL0     H81695   1.481   5.302   0.877 -4.2948  1.3682  3.6706
  619MOL0     H81696   1.790   5.618   1.014 -1.0698  1.1211 -0.0218
  619MOL0     H81697   1.878   5.852   0.960 -0.2156  1.6493 -1.1524
  619MOL0     H81698   2.093   5.978   0.890  2.5401 -0.9654 -0.7118
  619MOL0     H81699   1.948   6.052   0.854  1.5908  0.3657  2.1330
  619MOL0     H81700   2.203   6.074   0.693  0.9488  0.3520  0.5004
  619MOL0     H81701   2.053   6.130   0.625  0.6892 -3.4384 -0.1718
  619MOL0     H81702   2.193   6.233   0.888  1.4582  2.4564 -0.3803
  619MOL0     H81703   2.028   6.250   0.846 -0.1366 -2.1536 -0.6395
  619MOL0     H81704   2.129   6.355   0.618  0.7791  1.4415 -0.2690
  619MOL0     H81705   2.130   6.448   0.767 -0.1943 -0.6782  1.0675
  619MOL0     H81706   2.543   6.361   0.749 -0.3352 -3.6730 -1.6271
  619MOL0     H81707   2.017   5.704   0.581 -0.6866  2.1585 -0.7038
  619MOL0     H81708   1.922   5.469   0.625  0.5776 -1.0927  0.5846
  620MOL0     O81709   0.360   4.265   3.689 -0.2753 -0.4208 -0.6505
  620MOL0     C81710   0.411   4.156   3.666  0.7941 -0.3961 -0.1744
  620MOL0     O81711   0.356   4.031   3.704  0.3882  0.7579  0.2001
  620MOL0     C81712   0.223   4.025   3.748 -0.4683  0.2033  0.4941
  620MOL0     C81713   0.198   4.088   3.871 -0.1573 -0.4718  0.7851
  620MOL0     C81714   0.067   4.070   3.921  1.2661 -0.4494 -0.5519
  620MOL0     C81715  -0.038   4.001   3.860 -0.6172 -0.3396 -0.9076
  620MOL0     O81716  -0.167   3.993   3.908 -0.3149 -0.0981 -0.2904
  620MOL0     C81717  -0.191   4.025   4.048 -0.5482  0.3509 -0.7870
  620MOL0     C81718  -0.227   4.173   4.065 -1.1211 -0.2919  0.7967
  620MOL0     C81719  -0.337   4.205   4.167 -0.1033 -0.8284 -0.6216
  620MOL0     C81720  -0.379   4.354   4.156  0.5865  0.0402 -0.3111
  620MOL0     C81721  -0.521   4.391   4.214 -0.4582  0.4283 -0.3333
  620MOL0     C81722  -0.543   4.542   4.218  0.4145 -0.7366  1.1316
  620MOL0     C81723  -0.662   4.570   4.311  1.0541  0.9196 -0.1027
  620MOL0     C81724  -0.682   4.721   4.310 -0.0236 -0.3005  0.4210
  620MOL0     N81725  -0.565   4.794   4.365 -0.2894 -0.4335  0.6374
  620MOL0     C81726  -0.521   4.785   4.491  1.2497 -0.7155 -0.4424
  620MOL0     C81727  -0.419   4.875   4.507 -1.1129  0.3267  0.4597
  620MOL0     C81728  -0.324   4.900   4.623 -0.0241 -0.4964 -0.2513
  620MOL0     C81729  -0.186   4.847   4.595 -0.5758 -0.2357  0.9340
  620MOL0     C81730  -0.089   4.970   4.541 -0.4135  0.2915 -0.1691
  620MOL0     C81731   0.065   4.950   4.546 -0.5647  0.2364 -0.5707
  620MOL0     O81732   0.126   5.067   4.481  0.5618  0.1613 -0.2249
  620MOL0     C81733   0.261   5.064   4.463  0.2500  0.6782  0.3591
  620MOL0     C81734   0.325   5.172   4.396  0.1995 -0.1794  1.0532
  620MOL0     C81735   0.463   5.187   4.379 -0.4537 -0.1837  0.0042
  620MOL0     C81736   0.545   5.084   4.416 -0.4342 -0.0102  0.1952
  620MOL0     C81737   0.690   5.076   4.389  0.1045 -0.4903  0.4747
  620MOL0     O81738   0.748   5.170   4.304  0.2915 -0.3162  1.0270
  620MOL0     C81739   0.880   5.184   4.302  1.3282 -0.0864  0.8991
  620MOL0     C81740   0.922   5.321   4.314  0.0125  0.2591  0.8638
  620MOL0     C81741   1.051   5.360   4.306  0.2907  0.6333  0.1701
  620MOL0     C81742   1.146   5.257   4.275 -0.0087  0.3490 -0.5022
  620MOL0     O81743   1.274   5.290   4.249 -0.3960 -0.3083  0.2603
  620MOL0     C81744   1.303   5.268   4.115 -0.1745 -0.0911 -0.2479
  620MOL0     C81745   1.447   5.304   4.092  0.3905  0.3975  0.5504
  620MOL0     C81746   1.537   5.230   4.182 -0.2798  0.0537 -0.6406
  620MOL0     C81747   1.684   5.207   4.130 -0.7258 -0.2134  0.0642
  620MOL0     C81748   1.796   5.146   4.222 -0.0747  0.3005  0.0157
  620MOL0     C81749   1.939   5.188   4.176 -0.2720  0.1691  0.0554
  620MOL0     C81750   2.027   5.260   4.282 -0.4026 -0.0229 -0.1827
  620MOL0     C81751   1.980   5.403   4.308  0.1530 -0.5712 -0.6662
  620MOL0    Cl81752   1.830   5.417   4.405  0.3205  0.1960 -0.2968
  620MOL0     C81753   1.100   5.115   4.261 -0.0004 -0.3202  0.1730
  620MOL0     C81754   0.965   5.079   4.271 -0.2785 -0.2670  0.0820
  620MOL0     O81755   0.749   4.989   4.447 -0.0669 -0.0940  0.1702
  620MOL0     C81756   0.488   4.970   4.476  0.9632 -0.3554  0.0534
  620MOL0     C81757   0.352   4.961   4.485 -0.7693 -0.1990 -0.1985
  620MOL0     N81758  -0.397   4.925   4.382 -0.0395  0.2036 -0.0291
  620MOL0     N81759  -0.486   4.885   4.299  1.1830  0.2736  0.1594
  620MOL0     C81760  -0.001   3.946   3.738 -0.2063 -0.6161 -0.0839
  620MOL0     C81761   0.125   3.946   3.683 -0.2660 -0.8039  0.1495
  620MOL0     C81762   0.523   4.153   3.571  0.8587 -0.3576 -0.4186
  620MOL0     C81763   0.618   4.048   3.580 -0.0253 -1.2803 -0.3616
  620MOL0     C81764   0.730   4.051   3.503 -0.3899 -0.6195  1.1181
  620MOL0     C81765   0.752   4.160   3.419 -0.6477 -0.0193 -0.0081
  620MOL0     O81766   0.861   4.175   3.335 -0.6843 -0.5582 -0.6548
  620MOL0     C81767   0.966   4.089   3.340 -0.2950  0.6836 -0.6062
  620MOL0     C81768   1.069   4.148   3.249 -0.7463  0.0324  0.1719
  620MOL0     C81769   1.177   4.054   3.200 -0.8267 -0.3913  0.4787
  620MOL0     C81770   1.169   4.030   3.048 -0.1950  0.5251 -0.5613
  620MOL0     C81771   1.040   3.970   3.006 -0.3951 -0.0025 -0.0742
  620MOL0     C81772   0.937   3.913   2.992 -0.4208  0.2063  0.0303
  620MOL0     C81773   0.648   4.250   3.398  1.0063 -0.0872 -1.0074
  620MOL0     C81774   0.537   4.252   3.478  1.1506 -0.3259 -0.6817
  620MOL0     H81775   0.272   4.151   3.919  1.5497 -0.0935 -2.0558
  620MOL0     H81776   0.057   4.120   4.017  2.9806 -1.6770  0.3082
  620MOL0     H81777  -0.110   3.996   4.114  1.0922 -0.0387 -2.8640
  620MOL0     H81778  -0.278   3.965   4.078 -0.2269  0.9828  1.6375
  620MOL0     H81779  -0.267   4.207   3.969 -0.6222 -0.5582  0.4915
  620MOL0     H81780  -0.133   4.225   4.085 -2.4496  1.4631  2.9313
  620MOL0     H81781  -0.313   4.185   4.272 -0.9487  2.2561  0.2694
  620MOL0     H81782  -0.417   4.134   4.145  0.5251 -1.7551 -0.0042
  620MOL0     H81783  -0.308   4.405   4.222  0.6089 -0.6743  0.2388
  620MOL0     H81784  -0.381   4.393   4.055 -0.0606 -0.6813 -0.5949
  620MOL0     H81785  -0.525   4.355   4.317  1.1094 -1.5692 -0.9200
  620MOL0     H81786  -0.595   4.340   4.151 -0.6588 -0.5784  0.7007
  620MOL0     H81787  -0.554   4.591   4.121 -1.2843 -2.9400  0.1207
  620MOL0     H81788  -0.456   4.589   4.263 -0.4454  0.2985  1.7657
  620MOL0     H81789  -0.747   4.524   4.259 -0.8165  2.7928  1.1761
  620MOL0     H81790  -0.648   4.534   4.414 -2.6582 -0.7932 -0.0508
  620MOL0     H81791  -0.771   4.749   4.367 -0.9070  0.1998 -1.1392
  620MOL0     H81792  -0.704   4.759   4.210  0.6266  1.7774  1.0224
  620MOL0     H81793  -0.559   4.711   4.560  2.3169  1.0043  2.1121
  620MOL0     H81794  -0.368   4.858   4.714 -3.3162  0.2477 -1.3779
  620MOL0     H81795  -0.322   5.008   4.641 -1.6221 -0.6014  0.7555
  620MOL0     H81796  -0.204   4.773   4.517  2.7897 -1.1959  0.9036
  620MOL0     H81797  -0.141   4.788   4.675 -2.0134 -1.1346  1.1074
  620MOL0     H81798  -0.114   4.980   4.434 -0.2943 -1.4842 -0.3979
  620MOL0     H81799  -0.110   5.064   4.592  4.1059  0.3719  2.0290
  620MOL0     H81800   0.088   4.853   4.500  0.5987  0.1809  0.0764
  620MOL0     H81801   0.097   4.939   4.651  0.8665  1.4805 -0.8494
  620MOL0     H81802   0.273   5.264   4.369 -1.8722 -1.3099  1.0207
  620MOL0     H81803   0.494   5.282   4.336  3.7585  0.0575  2.9824
  620MOL0     H81804   0.847   5.394   4.345  0.8487  1.7233 -0.3950
  620MOL0     H81805   1.077   5.465   4.313  1.5695  0.3443  0.0323
  620MOL0     H81806   1.250   5.340   4.052  2.2204  1.5187 -0.5427
  620MOL0     H81807   1.291   5.161   4.096  1.6794 -0.9234  2.7033
  620MOL0     H81808   1.460   5.412   4.099 -0.1356  0.5143 -0.2140
  620MOL0     H81809   1.475   5.273   3.991  1.2084  1.1327  0.5372
  620MOL0     H81810   1.490   5.132   4.201  4.8331 -2.2009  2.6169
  620MOL0     H81811   1.541   5.290   4.273 -2.8387 -1.4395  0.5746
  620MOL0     H81812   1.678   5.142   4.043 -0.6629 -0.7702  0.4663
  620MOL0     H81813   1.728   5.302   4.097 -1.9925 -0.3959 -2.3573
  620MOL0     H81814   1.793   5.037   4.215 -0.6987  0.3637 -0.8816
  620MOL0     H81815   1.785   5.168   4.329  1.5664  0.6846  0.1367
  620MOL0     H81816   1.939   5.259   4.093 -1.4040  1.3020  0.9958
  620MOL0     H81817   1.997   5.100   4.148  2.1326  1.3284  1.0906
  620MOL0     H81818   2.034   5.201   4.375  1.9133 -1.4839 -1.1786
  620MOL0     H81819   2.127   5.268   4.238 -1.1524  0.7856 -1.7901
  620MOL0     H81820   1.962   5.467   4.221  1.3676 -0.1912 -0.6474
  620MOL0     H81821   2.055   5.460   4.363  0.5642 -1.4213 -0.3240
  620MOL0     H81822   1.170   5.032   4.255 -1.1550 -1.5433  2.3051
  620MOL0     H81823   0.933   4.976   4.260  0.7445 -0.4106 -2.3450
  620MOL0     H81824   0.534   4.879   4.512 -0.1802  0.8327  5.2806
  620MOL0     H81825   0.312   4.864   4.514 -0.3086 -0.2192  0.4042
  620MOL0     H81826  -0.078   3.895   3.681 -0.3245  0.8291 -1.2760
  620MOL0     H81827   0.161   3.897   3.593 -0.2333  2.1726 -1.6008
  620MOL0     H81828   0.602   3.973   3.657 -1.5437 -1.1326 -0.4954
  620MOL0     H81829   0.802   3.974   3.527 -0.4339 -0.2230  2.6270
  620MOL0     H81830   0.936   3.992   3.300  3.9231 -1.5141  0.9122
  620MOL0     H81831   1.004   4.072   3.442 -0.4758  0.4501 -0.5770
  620MOL0     H81832   1.031   4.186   3.153 -0.6637  0.2989  0.2428
  620MOL0     H81833   1.112   4.233   3.303 -2.6139 -0.0242  1.9083
  620MOL0     H81834   1.173   3.954   3.243 -2.7563 -0.6156 -0.1304
  620MOL0     H81835   1.275   4.098   3.223 -1.4444  1.8015 -0.7940
  620MOL0     H81836   1.178   4.126   2.997 -0.7610  0.9591  0.1308
  620MOL0     H81837   1.250   3.972   3.004  0.5809  0.2275  1.1555
  620MOL0     H81838   0.838   3.876   2.976  0.1296 -0.3187 -2.5783
  620MOL0     H81839   0.660   4.327   3.323 -1.2356  1.9772  0.6113
  620MOL0     H81840   0.466   4.331   3.459  1.0189 -0.1934  0.3254
  621MOL0     O81841   6.580   0.427   8.778  0.1810 -0.1725  0.4167
  621MOL0     C81842   6.594   0.311   8.728 -0.7707  0.3179  0.4059
  621MOL0     O81843   6.499   0.226   8.679 -0.0776 -0.5759 -0.1124
  621MOL0     C81844   6.376   0.282   8.643  0.4011  0.4345  0.4957
  621MOL0     C81845   6.263   0.201   8.656  0.1641 -0.5783 -0.4214
  621MOL0     C81846   6.137   0.245   8.616 -0.4826 -0.2855  0.4161
  621MOL0     C81847   6.125   0.367   8.541 -0.6783  1.0991 -0.4217
  621MOL0     O81848   5.991   0.391   8.514 -0.2549  0.6046  0.3892
  621MOL0     C81849   5.949   0.520   8.486  1.0874 -0.1104 -0.3558
  621MOL0     C81850   5.786   0.516   8.488 -1.1323 -0.8363  0.7131
  621MOL0     C81851   5.732   0.665   8.504 -0.4006  0.8446  1.2294
  621MOL0     C81852   5.585   0.664   8.542 -0.3195 -0.1543 -0.6285
  621MOL0     C81853   5.558   0.691   8.692  0.3571 -0.4658  0.1959
  621MOL0     C81854   5.437   0.626   8.755 -0.7600 -0.2247  0.0520
  621MOL0     C81855   5.427   0.671   8.901 -0.6594 -0.4243 -0.7016
  621MOL0     C81856   5.317   0.605   8.982 -0.8442 -0.7974 -0.2586
  621MOL0     N81857   5.183   0.630   8.930  0.1238  0.4810 -0.2292
  621MOL0     C81858   5.107   0.530   8.875 -0.2393  0.3652 -0.4136
  621MOL0     C81859   4.981   0.580   8.846 -0.4502  0.1936 -0.9494
  621MOL0     C81860   4.869   0.507   8.775 -0.1075 -0.4787  0.2093
  621MOL0     C81861   4.800   0.604   8.673  0.0019 -0.9606  0.2261
  621MOL0     C81862   4.712   0.526   8.571 -0.2264 -0.5162 -0.0293
  621MOL0     C81863   4.618   0.426   8.641 -0.1464  0.2368  0.4284
  621MOL0     O81864   4.549   0.474   8.755  0.5993  0.5951 -0.3286
  621MOL0     C81865   4.450   0.397   8.821 -0.5334  0.0238  0.5243
  621MOL0     C81866   4.414   0.440   8.950 -0.6180  0.2639 -0.3796
  621MOL0     C81867   4.298   0.387   9.013  0.2161 -0.7442 -0.1049
  621MOL0     C81868   4.217   0.293   8.947 -0.5588 -0.0840  0.0567
  621MOL0     C81869   4.089   0.247   9.015  0.1832 -0.3293  0.1778
  621MOL0     O81870   4.058   0.304   9.130  0.1242  0.1087 -0.4580
  621MOL0     C81871   3.954   0.260   9.204 -0.7771  0.2051  0.1133
  621MOL0     C81872   3.838   0.207   9.156 -0.3170  0.1441 -0.5171
  621MOL0     C81873   3.737   0.169   9.243  0.0325 -0.2184 -0.2053
  621MOL0     C81874   3.747   0.189   9.383  0.2092  0.0472 -0.1585
  621MOL0     O81875   3.647   0.171   9.474  0.0977 -0.3498  0.0904
  621MOL0     C81876   3.552   0.070   9.457 -0.7654  0.3307  0.2097
  621MOL0     C81877   3.458   0.075   9.568  0.2798  0.8864  0.3401
  621MOL0     C81878   3.339  -0.015   9.562 -0.0119 -0.4468  0.2941
  621MOL0     C81879   3.242   0.025   9.675  0.5309 -0.6180 -0.0694
  621MOL0     C81880   3.191  -0.097   9.751  0.1859 -0.7361  0.4599
  621MOL0     C81881   3.090  -0.059   9.862 -0.3941  0.6299  0.0391
  621MOL0     C81882   2.994  -0.177   9.887  0.0363  0.4774 -0.2329
  621MOL0     C81883   3.052  -0.294   9.977  0.0868 -0.0451 -0.3075
  621MOL0    Cl81884   2.918  -0.408   9.961  0.2956  0.0322  0.0634
  621MOL0     C81885   3.866   0.254   9.432  0.7043 -0.8387  0.4041
  621MOL0     C81886   3.971   0.286   9.341  0.2048 -0.1852 -0.1859
  621MOL0     O81887   4.034   0.159   8.954  0.1883  0.2269 -0.0509
  621MOL0     C81888   4.258   0.246   8.820  0.0843  0.4001  0.5832
  621MOL0     C81889   4.371   0.299   8.752 -0.0601 -0.4502  0.0210
  621MOL0     N81890   4.984   0.717   8.895  0.2398  0.0935 -0.4098
  621MOL0     N81891   5.109   0.741   8.943 -0.2986  0.3977 -0.4145
  621MOL0     C81892   6.233   0.452   8.523 -0.7329  0.2181 -0.1712
  621MOL0     C81893   6.355   0.405   8.568 -0.4911 -0.5886 -0.5291
  621MOL0     C81894   6.733   0.261   8.734  0.2487 -0.0700 -0.0991
  621MOL0     C81895   6.763   0.132   8.680 -0.3170 -0.4870 -0.0499
  621MOL0     C81896   6.891   0.086   8.676 -0.9901 -0.2620  0.0533
  621MOL0     C81897   6.996   0.156   8.740 -0.0986  0.1621  0.3542
  621MOL0     O81898   7.126   0.119   8.754  0.4871 -0.4052  0.4039
  621MOL0     C81899   7.173  -0.009   8.698 -0.6345  0.0582 -0.1251
  621MOL0     C81900   7.131  -0.127   8.789 -0.4855 -0.2934 -0.6635
  621MOL0     C81901   7.192  -0.095   8.928 -0.3370 -0.2743  0.0164
  621MOL0     C81902   7.190  -0.217   9.014 -0.6747 -0.4200  0.2553
  621MOL0     C81903   7.054  -0.255   9.052 -0.9566 -0.7017  0.5222
  621MOL0     C81904   6.948  -0.285   9.093  0.1662 -0.5291 -0.7856
  621MOL0     C81905   6.961   0.272   8.810 -0.5264 -0.2781 -0.2307
  621MOL0     C81906   6.834   0.322   8.809 -0.0768 -0.9124 -0.1961
  621MOL0     H81907   6.279   0.103   8.699  1.1613 -0.8706 -1.3920
  621MOL0     H81908   6.041   0.196   8.635 -2.2827  2.2223 -1.5222
  621MOL0     H81909   5.980   0.557   8.387 -0.2924 -1.8860 -1.5159
  621MOL0     H81910   5.985   0.588   8.563 -0.6611 -0.3864  0.7484
  621MOL0     H81911   5.758   0.449   8.570 -1.2338 -3.5661 -1.4102
  621MOL0     H81912   5.748   0.466   8.398 -0.3082 -0.4394  0.1314
  621MOL0     H81913   5.751   0.713   8.408  0.7895 -1.1885  0.3847
  621MOL0     H81914   5.788   0.731   8.570  0.9180  0.5155  0.4662
  621MOL0     H81915   5.534   0.740   8.483 -2.5043  0.5903  1.9895
  621MOL0     H81916   5.545   0.566   8.515 -1.3064  0.8785 -3.1635
  621MOL0     H81917   5.546   0.798   8.712 -0.9315 -0.9674  2.4040
  621MOL0     H81918   5.646   0.652   8.744 -0.4055 -0.8222  1.2578
  621MOL0     H81919   5.459   0.519   8.752 -0.3509 -0.1599  0.6043
  621MOL0     H81920   5.351   0.653   8.694  1.3410  1.3405 -2.4264
  621MOL0     H81921   5.526   0.659   8.946  0.4059  0.3412 -2.7135
  621MOL0     H81922   5.405   0.778   8.902 -1.0417 -0.4641 -2.0919
  621MOL0     H81923   5.321   0.634   9.088 -1.3278  2.1847 -0.9655
  621MOL0     H81924   5.335   0.497   8.975  2.4212 -0.4474  1.0396
  621MOL0     H81925   5.138   0.430   8.847 -2.6196 -0.2542 -1.0558
  621MOL0     H81926   4.797   0.464   8.845 -1.1637 -1.5934 -1.4713
  621MOL0     H81927   4.895   0.423   8.710 -1.2884  0.5227 -1.6501
  621MOL0     H81928   4.869   0.645   8.600  0.2296 -0.9217  0.4611
  621MOL0     H81929   4.749   0.689   8.720  0.8721 -0.6258  0.5912
  621MOL0     H81930   4.659   0.586   8.496  1.9200 -0.4830 -1.6237
  621MOL0     H81931   4.777   0.466   8.506 -2.6117 -0.2618 -2.8768
  621MOL0     H81932   4.679   0.349   8.689  0.1686 -0.9408 -1.7411
  621MOL0     H81933   4.544   0.385   8.571 -0.4701  1.6683 -0.1034
  621MOL0     H81934   4.473   0.523   8.986 -2.1779  2.9161 -3.4110
  621MOL0     H81935   4.284   0.432   9.111  3.3032 -0.0177  0.1102
  621MOL0     H81936   3.818   0.208   9.050 -1.1408  1.3153 -0.3613
  621MOL0     H81937   3.646   0.133   9.195  1.1874 -2.5426 -0.7674
  621MOL0     H81938   3.601  -0.028   9.456 -1.2420  0.0898  0.0993
  621MOL0     H81939   3.508   0.088   9.358 -0.1040 -0.4899 -0.2458
  621MOL0     H81940   3.430   0.180   9.577 -1.2047  0.3723  2.5644
  621MOL0     H81941   3.512   0.051   9.660  0.3309 -0.7428 -0.0887
  621MOL0     H81942   3.371  -0.120   9.557 -0.0672 -0.4044 -2.7512
  621MOL0     H81943   3.286   0.016   9.472 -1.0894 -0.2898  0.9563
  621MOL0     H81944   3.298   0.090   9.742  1.5103 -0.1975 -1.2681
  621MOL0     H81945   3.163   0.083   9.626  1.0562 -1.8384 -2.4592
  621MOL0     H81946   3.273  -0.151   9.800  0.0692 -1.1634  0.1910
  621MOL0     H81947   3.152  -0.167   9.677 -0.5851 -0.4427  0.5770
  621MOL0     H81948   3.019   0.017   9.828 -0.5305  0.5657  0.1792
  621MOL0     H81949   3.142  -0.020   9.950  2.4043 -1.4285 -0.5450
  621MOL0     H81950   2.912  -0.132   9.944 -0.5681  0.9056 -1.4144
  621MOL0     H81951   2.961  -0.221   9.793  0.4480 -1.3379  0.4257
  621MOL0     H81952   3.069  -0.265  10.081 -1.0931  2.0421 -0.6263
  621MOL0     H81953   3.142  -0.337   9.933  0.0275  0.0360 -0.5093
  621MOL0     H81954   3.874   0.271   9.539 -1.8601  0.4595  0.4705
  621MOL0     H81955   4.063   0.333   9.376 -0.0552 -0.4349  0.8790
  621MOL0     H81956   4.220   0.167   8.756  1.9454 -0.7370  0.8047
  621MOL0     H81957   4.395   0.259   8.655 -1.2590 -1.5175  0.1270
  621MOL0     H81958   6.203   0.546   8.479 -0.6867  0.0427 -0.5777
  621MOL0     H81959   6.434   0.478   8.560 -0.4165 -0.7676 -1.7268
  621MOL0     H81960   6.677   0.073   8.649 -1.6974  0.6153  1.4414
  621MOL0     H81961   6.914  -0.003   8.619  0.1956 -0.6778  1.1439
  621MOL0     H81962   7.282   0.004   8.696 -0.7234  0.9314  0.3792
  621MOL0     H81963   7.145  -0.028   8.594  2.7520  1.9649 -1.5374
  621MOL0     H81964   7.022  -0.134   8.783 -0.6661  0.1624  1.3056
  621MOL0     H81965   7.165  -0.220   8.743 -0.9619 -0.4779 -0.6440
  621MOL0     H81966   7.146  -0.007   8.973  1.7338 -0.0735  1.8928
  621MOL0     H81967   7.295  -0.067   8.904 -0.9717  1.6122 -0.7095
  621MOL0     H81968   7.250  -0.302   8.980  0.9842  1.1511 -0.9939
  621MOL0     H81969   7.232  -0.185   9.110 -1.6202  0.7919  0.2838
  621MOL0     H81970   6.851  -0.300   9.136  1.0260  1.0568  1.9870
  621MOL0     H81971   7.034   0.328   8.867  1.0900 -1.3231 -1.1773
  621MOL0     H81972   6.823   0.417   8.859  1.1554 -1.3384  0.9218
  622MOL0     O81973   4.366  10.439   6.673 -0.7599 -0.0578 -0.0592
  622MOL0     C81974   4.390  10.328   6.622 -0.0079 -0.5167 -1.0110
  622MOL0     O81975   4.300  10.219   6.621  0.7553 -0.4078 -0.2914
  622MOL0     C81976   4.170  10.251   6.658  0.3483 -0.2661  0.1829
  622MOL0     C81977   4.098  10.154   6.729 -0.1190  0.3407  0.0220
  622MOL0     C81978   3.968  10.173   6.760  0.3058 -0.1160 -0.0991
  622MOL0     C81979   3.897  10.289   6.729 -0.3087  0.0205 -1.2038
  622MOL0     O81980   3.764  10.295   6.766  0.4275 -0.3217 -0.6646
  622MOL0     C81981   3.713  10.429   6.802 -0.2145 -0.5145 -0.0273
  622MOL0     C81982   3.573  10.422   6.854  0.3811 -0.2443 -0.7073
  622MOL0     C81983   3.520  10.549   6.913  0.1847 -0.0525  0.0451
  622MOL0     C81984   3.372  10.531   6.948  0.1877 -0.0734 -0.5994
  622MOL0     C81985   3.323  10.639   7.042  0.9514 -0.1054 -0.4205
  622MOL0     C81986   3.178  10.627   7.101  0.2056  0.5904 -0.6286
  622MOL0     C81987   3.164  10.711   7.223  0.1403 -0.3908 -0.0083
  622MOL0     C81988   3.025  10.705   7.283 -0.2847  0.4220  0.2251
  622MOL0     N81989   3.011  10.791   7.400 -0.4685 -0.4748 -0.5124
  622MOL0     C81990   2.989  10.929   7.399  0.4182 -0.7477  0.2668
  622MOL0     C81991   2.958  10.961   7.528 -0.5987  0.3871  0.8896
  622MOL0     C81992   2.931  11.101   7.582  0.2180 -0.0497 -0.1103
  622MOL0     C81993   3.056  11.180   7.642 -0.3133 -0.3872 -0.3617
  622MOL0     C81994   3.180  11.182   7.552 -0.6377  0.2473 -0.4143
  622MOL0     C81995   3.269  11.301   7.585 -0.1107  0.2819  0.5136
  622MOL0     O81996   3.393  11.291   7.511 -0.5160 -0.7539 -0.0685
  622MOL0     C81997   3.470  11.405   7.475 -0.0931  0.2982 -0.5670
  622MOL0     C81998   3.436  11.539   7.482  0.1188 -0.3790 -0.1205
  622MOL0     C81999   3.529  11.642   7.447  0.9812 -0.5474  0.1183
  622MOL0     C82000   3.659  11.608   7.404  0.8016 -0.6443  0.3215
  622MOL0     C82001   3.755  11.718   7.369 -0.2834 -0.2853 -0.5816
  622MOL0     O82002   3.711  11.847   7.374 -0.3446  0.5210 -0.4223
  622MOL0     C82003   3.805  11.945   7.371 -1.5447 -0.1251  0.0681
  622MOL0     C82004   3.906  11.951   7.464  0.5430 -0.1965  0.1517
  622MOL0     C82005   3.998  12.051   7.456 -1.6206  0.1701 -0.7086
  622MOL0     C82006   4.000  12.160   7.373 -0.1722  0.3990  0.9188
  622MOL0     O82007   4.100  12.254   7.390  0.3758 -0.3914 -0.5877
  622MOL0     C82008   4.132  12.327   7.276 -0.5440  0.1274 -0.7344
  622MOL0     C82009   4.270  12.393   7.295 -0.1751  0.0264 -0.5945
  622MOL0     C82010   4.241  12.543   7.332  0.5863 -0.5633 -0.0479
  622MOL0     C82011   4.383  12.622   7.348  0.5123  0.3832  0.6573
  622MOL0     C82012   4.368  12.765   7.382 -0.3749 -0.1597  0.5417
  622MOL0     C82013   4.501  12.827   7.420  0.7494 -0.8923 -0.4492
  622MOL0     C82014   4.480  12.982   7.458  0.1457 -0.2220  0.2447
  622MOL0     C82015   4.617  13.061   7.491  0.5394  0.8145 -1.0186
  622MOL0    Cl82016   4.719  13.094   7.350  0.2547 -0.2337  0.1275
  622MOL0     C82017   3.887  12.159   7.282  0.8015  0.3968 -1.0076
  622MOL0     C82018   3.796  12.053   7.281  0.2817 -0.0680 -0.1636
  622MOL0     O82019   3.868  11.685   7.334 -0.5987 -0.0022 -0.3741
  622MOL0     C82020   3.683  11.473   7.382  0.3753  0.1645 -0.0385
  622MOL0     C82021   3.594  11.373   7.429  0.4885 -0.9074 -0.0791
  622MOL0     N82022   2.955  10.845   7.599 -0.0025  0.5774  0.9430
  622MOL0     N82023   2.992  10.740   7.527  0.4446 -0.4992 -0.2807
  622MOL0     C82024   3.970  10.382   6.658 -0.0521 -0.5828  0.2113
  622MOL0     C82025   4.099  10.361   6.611 -0.4201  0.3209 -0.3541
  622MOL0     C82026   4.526  10.301   6.582 -0.5875 -0.4770 -0.1321
  622MOL0     C82027   4.630  10.394   6.602 -0.0130 -0.0144 -0.0868
  622MOL0     C82028   4.762  10.363   6.561  0.5986 -0.0226 -0.4139
  622MOL0     C82029   4.791  10.243   6.498  0.2080 -0.6694  0.2808
  622MOL0     O82030   4.917  10.204   6.458  0.3215  0.3957 -0.0975
  622MOL0     C82031   5.028  10.289   6.480 -0.8131  0.0556 -0.0491
  622MOL0     C82032   5.150  10.225   6.408 -0.3340 -0.1659  0.0497
  622MOL0     C82033   5.152  10.266   6.257  0.1670  0.0285  1.2222
  622MOL0     C82034   5.270  10.212   6.179 -0.2941 -0.5753  0.5397
  622MOL0     C82035   5.289  10.279   6.053  0.2169 -0.2224  0.9971
  622MOL0     C82036   5.318  10.330   5.952 -0.3608  0.1259 -0.6290
  622MOL0     C82037   4.690  10.149   6.478 -0.0214 -0.3385 -0.7107
  622MOL0     C82038   4.564  10.179   6.526 -0.5575  0.1784  0.2047
  622MOL0     H82039   4.158  10.069   6.760  1.1592  1.1685 -0.1134
  622MOL0     H82040   3.921  10.092   6.814  0.9631 -0.6106 -0.2536
  622MOL0     H82041   3.724  10.484   6.708 -0.9809  1.2363  0.8421
  622MOL0     H82042   3.777  10.486   6.870 -1.3201 -0.0315  0.6481
  622MOL0     H82043   3.577  10.356   6.941 -0.4494  2.7953  1.8088
  622MOL0     H82044   3.498  10.385   6.784 -3.1311  2.8674  1.0274
  622MOL0     H82045   3.516  10.632   6.841 -0.4107 -0.3400 -0.2684
  622MOL0     H82046   3.582  10.578   6.998  1.2096 -2.7749  0.3159
  622MOL0     H82047   3.314  10.509   6.859 -1.0963  1.9095 -0.3172
  622MOL0     H82048   3.363  10.433   6.995 -0.5233  0.3021  0.0720
  622MOL0     H82049   3.331  10.729   6.981  5.5415 -1.5382 -2.3735
  622MOL0     H82050   3.397  10.649   7.123  2.6776 -0.5395 -1.8685
  622MOL0     H82051   3.190  10.523   7.134  1.6749  1.2222  0.9591
  622MOL0     H82052   3.102  10.641   7.022  0.3762  0.8762 -0.7444
  622MOL0     H82053   3.235  10.690   7.303  1.0843  1.8016 -0.2060
  622MOL0     H82054   3.187  10.814   7.193  1.1376 -1.1261 -1.8934
  622MOL0     H82055   3.007  10.602   7.313  0.0904  0.3699  0.2722
  622MOL0     H82056   2.946  10.738   7.214  0.3475 -0.3022 -0.8714
  622MOL0     H82057   2.998  10.998   7.316 -2.7752 -0.6427 -0.1225
  622MOL0     H82058   2.858  11.094   7.663  0.1298 -1.8382 -0.2947
  622MOL0     H82059   2.889  11.166   7.505  2.9000  2.7484  0.6154
  622MOL0     H82060   3.085  11.136   7.738 -2.2652 -0.0358  0.4279
  622MOL0     H82061   3.021  11.281   7.664  2.6536  0.2547  2.0493
  622MOL0     H82062   3.247  11.098   7.574  0.4031  1.8111  3.1625
  622MOL0     H82063   3.153  11.189   7.446 -2.4676  2.2253  0.1087
  622MOL0     H82064   3.292  11.310   7.691 -1.2177  4.2131  0.5766
  622MOL0     H82065   3.213  11.393   7.564  2.0222  1.4983 -0.2600
  622MOL0     H82066   3.342  11.586   7.509  1.2702 -0.0616  4.0737
  622MOL0     H82067   3.507  11.748   7.445 -3.0831 -1.2470 -1.5527
  622MOL0     H82068   3.918  11.879   7.545  1.5180 -0.0896  0.1098
  622MOL0     H82069   4.073  12.045   7.534 -0.4777  0.9621 -1.7084
  622MOL0     H82070   4.051  12.398   7.260  1.2444  2.1277 -1.3916
  622MOL0     H82071   4.137  12.261   7.189  1.9245  2.3313 -2.4433
  622MOL0     H82072   4.321  12.387   7.199  1.7883  1.7755  0.2409
  622MOL0     H82073   4.337  12.339   7.363  0.8146  1.9872  0.0903
  622MOL0     H82074   4.191  12.541   7.429 -1.6037 -0.2356 -1.1070
  622MOL0     H82075   4.192  12.584   7.243  2.3822 -2.5830 -2.1138
  622MOL0     H82076   4.452  12.582   7.422  1.0633 -1.2814 -0.6644
  622MOL0     H82077   4.444  12.600   7.259  0.0235 -2.0689  0.8554
  622MOL0     H82078   4.296  12.782   7.463  0.1849 -2.9215  1.7469
  622MOL0     H82079   4.333  12.810   7.289  0.5499 -0.5627 -0.0055
  622MOL0     H82080   4.579  12.811   7.345  0.8429  0.1857 -0.6002
  622MOL0     H82081   4.533  12.780   7.514  1.0182  0.2415  0.0519
  622MOL0     H82082   4.430  13.030   7.374  2.3307  1.5764 -0.1243
  622MOL0     H82083   4.414  12.979   7.546 -0.7091 -1.9790 -0.3991
  622MOL0     H82084   4.683  13.006   7.559 -0.8711  1.3040  0.8367
  622MOL0     H82085   4.587  13.150   7.548  0.2178  0.1057 -0.0454
  622MOL0     H82086   3.864  12.248   7.224 -0.3455  2.2807  2.0954
  622MOL0     H82087   3.712  12.062   7.213 -1.2882 -0.0371  1.6911
  622MOL0     H82088   3.766  11.430   7.328  0.2070  0.3914 -0.4845
  622MOL0     H82089   3.623  11.269   7.420 -0.0712 -0.8931 -3.6759
  622MOL0     H82090   3.932  10.478   6.622  1.7107 -0.6403 -2.0384
  622MOL0     H82091   4.142  10.433   6.541 -1.5442 -0.3784 -1.8207
  622MOL0     H82092   4.610  10.494   6.639 -0.1879 -0.6309  1.5432
  622MOL0     H82093   4.839  10.436   6.583  1.1950 -0.4219 -1.1043
  622MOL0     H82094   5.044  10.304   6.587 -0.0842  1.5894 -0.3438
  622MOL0     H82095   5.008  10.392   6.447 -0.4521 -0.1226 -0.8354
  622MOL0     H82096   5.239  10.271   6.453  0.9119 -1.3209 -1.1164
  622MOL0     H82097   5.156  10.117   6.426 -0.4520 -0.5815 -2.0723
  622MOL0     H82098   5.168  10.374   6.262 -1.2252  0.2403  1.6561
  622MOL0     H82099   5.060  10.246   6.201  0.6518  2.2234 -0.4953
  622MOL0     H82100   5.361  10.228   6.238  0.5446 -1.2174 -0.5543
  622MOL0     H82101   5.268  10.104   6.162 -2.3200 -0.2787 -1.5867
  622MOL0     H82102   5.338  10.392   5.866 -1.4491  3.7501  1.4849
  622MOL0     H82103   4.715  10.051   6.439 -1.9467 -0.9948 -0.3726
  622MOL0     H82104   4.489  10.100   6.519  0.0297 -0.4034  0.3244
  623MOL0     O82105   5.479   2.909   0.353  0.0829 -0.2353 -0.2909
  623MOL0     C82106   5.513   3.019   0.319 -0.2429  0.1614 -0.3415
  623MOL0     O82107   5.463   3.142   0.378  0.1124  0.5722  0.0223
  623MOL0     C82108   5.390   3.129   0.494  0.4921 -0.2626  0.2948
  623MOL0     C82109   5.254   3.146   0.511  0.1476  0.4724 -0.0780
  623MOL0     C82110   5.182   3.131   0.635  0.1622 -0.8063  0.3569
  623MOL0     C82111   5.251   3.092   0.749  0.0667 -0.4077 -0.1664
  623MOL0     O82112   5.200   3.079   0.878  0.3428 -0.1174  0.9313
  623MOL0     C82113   5.065   3.101   0.900  0.3087  0.1953 -0.3062
  623MOL0     C82114   5.048   3.082   1.052  0.3686  0.1850  0.3123
  623MOL0     C82115   4.907   3.118   1.082 -0.2967  0.2813 -0.2143
  623MOL0     C82116   4.872   3.117   1.227 -0.1409  0.3247 -0.3379
  623MOL0     C82117   4.722   3.144   1.246  0.2963  0.6359 -0.3261
  623MOL0     C82118   4.689   3.156   1.392  0.5565  0.5969 -0.3582
  623MOL0     C82119   4.666   3.015   1.453 -0.4081  0.8306  0.3081
  623MOL0     C82120   4.604   3.017   1.595 -0.2058  0.0985  0.3373
  623MOL0     N82121   4.550   2.893   1.641 -0.0633  0.2870 -1.6500
  623MOL0     C82122   4.462   2.878   1.745 -0.2549 -0.1007 -0.2766
  623MOL0     C82123   4.438   2.747   1.749  0.0964  0.2213  0.8485
  623MOL0     C82124   4.357   2.668   1.850 -0.5823 -0.6128  0.8212
  623MOL0     C82125   4.219   2.730   1.891  0.6767  0.5956 -0.2651
  623MOL0     C82126   4.157   2.653   2.002 -0.2293 -0.4653 -0.8203
  623MOL0     C82127   4.013   2.703   2.010 -0.1635  0.2782 -0.4133
  623MOL0     O82128   3.938   2.639   1.907 -0.3096 -0.3739  0.6922
  623MOL0     C82129   3.803   2.637   1.914  0.5068 -0.4634  0.4216
  623MOL0     C82130   3.748   2.537   1.826 -0.9375  0.0177  0.1210
  623MOL0     C82131   3.610   2.524   1.814 -0.2923 -0.2712 -0.3434
  623MOL0     C82132   3.516   2.607   1.880 -0.9254 -0.8785 -0.7488
  623MOL0     C82133   3.372   2.590   1.866  0.2648  0.8336  0.2100
  623MOL0     O82134   3.320   2.489   1.797  0.4834  0.2674  0.1907
  623MOL0     C82135   3.182   2.477   1.800 -0.6617  0.0750 -0.9167
  623MOL0     C82136   3.124   2.404   1.905  0.4021 -0.4296  0.1788
  623MOL0     C82137   2.981   2.383   1.908  0.4618  0.1373 -0.7541
  623MOL0     C82138   2.898   2.444   1.812  0.0634 -0.0794  0.1376
  623MOL0     O82139   2.764   2.423   1.819  0.4161  0.3156  0.1611
  623MOL0     C82140   2.675   2.541   1.812  1.0498  1.0465  0.4563
  623MOL0     C82141   2.535   2.496   1.871  0.2306  0.0916  0.0251
  623MOL0     C82142   2.459   2.617   1.935  0.3154  0.0581 -0.4980
  623MOL0     C82143   2.322   2.572   1.997  0.2697  0.2148 -0.0195
  623MOL0     C82144   2.217   2.557   1.884 -0.4775  0.0806 -0.4631
  623MOL0     C82145   2.083   2.483   1.920 -0.0094  0.0105 -0.5090
  623MOL0     C82146   2.030   2.527   2.065  0.2653 -0.5361  0.5842
  623MOL0     C82147   1.879   2.500   2.075  0.3611 -0.1207  0.1043
  623MOL0    Cl82148   1.841   2.325   2.064 -0.0072 -0.1184 -0.2631
  623MOL0     C82149   2.963   2.533   1.716 -0.0469 -0.3104 -0.2397
  623MOL0     C82150   3.104   2.539   1.706 -0.1540 -0.3547 -0.3224
  623MOL0     O82151   3.301   2.675   1.930 -0.6466 -0.5332  0.8902
  623MOL0     C82152   3.571   2.708   1.960 -0.3499  0.8223 -2.0660
  623MOL0     C82153   3.712   2.726   1.986  1.1033  0.7983  0.0022
  623MOL0     N82154   4.509   2.683   1.648  0.1391 -0.1847  0.3759
  623MOL0     N82155   4.585   2.771   1.598  0.4501  0.0678 -0.6412
  623MOL0     C82156   5.389   3.067   0.740  0.7349 -0.2593 -0.0942
  623MOL0     C82157   5.451   3.085   0.616 -0.1456  0.0326  0.5229
  623MOL0     C82158   5.615   3.034   0.209  0.2610 -0.9493 -0.3691
  623MOL0     C82159   5.688   3.150   0.194 -0.2145 -0.4193 -0.0340
  623MOL0     C82160   5.782   3.164   0.093  1.5773 -0.0863  0.1119
  623MOL0     C82161   5.804   3.054   0.011  0.1189 -0.1486 -0.6803
  623MOL0     O82162   5.896   3.065  -0.094  0.1984  0.7266 -0.0309
  623MOL0     C82163   6.018   2.991  -0.067  0.1886  0.9278  0.0018
  623MOL0     C82164   6.122   3.092  -0.025  0.7058 -0.5243 -0.0843
  623MOL0     C82165   6.260   3.028   0.004 -0.0588  0.1976  0.5005
  623MOL0     C82166   6.341   3.150   0.057 -0.2713  0.6803  0.5891
  623MOL0     C82167   6.490   3.125   0.037 -0.2657  1.0249  0.8011
  623MOL0     C82168   6.610   3.115   0.000  0.2818 -0.4522 -0.0066
  623MOL0     C82169   5.744   2.935   0.030 -0.1423  0.1786  0.1415
  623MOL0     C82170   5.639   2.918   0.126 -0.2334  0.1877  0.5621
  623MOL0     H82171   5.197   3.183   0.426  0.9165 -1.0968 -1.3271
  623MOL0     H82172   5.078   3.164   0.633  0.0256 -1.1592 -2.3811
  623MOL0     H82173   5.006   3.030   0.841  0.2849 -0.1042  0.0767
  623MOL0     H82174   5.040   3.202   0.867  1.1494  1.1590  1.8161
  623MOL0     H82175   5.120   3.147   1.103 -1.4560  1.6338  1.1326
  623MOL0     H82176   5.063   2.977   1.078 -0.9761 -0.5964 -1.7583
  623MOL0     H82177   4.840   3.048   1.032  0.3413 -0.1253 -0.5058
  623MOL0     H82178   4.896   3.214   1.032 -0.3328 -0.8324 -2.4818
  623MOL0     H82179   4.893   3.013   1.254 -3.5777  0.3893  3.4618
  623MOL0     H82180   4.923   3.190   1.290 -0.0880  0.5010 -0.5814
  623MOL0     H82181   4.665   3.062   1.202 -0.0149  0.5326  0.2619
  623MOL0     H82182   4.697   3.239   1.200  0.9010  1.4207  0.8957
  623MOL0     H82183   4.591   3.204   1.405  1.6280  2.0126  3.8584
  623MOL0     H82184   4.762   3.214   1.448  0.7028 -0.0851  0.1671
  623MOL0     H82185   4.591   2.962   1.394 -0.0585 -0.2090  0.7603
  623MOL0     H82186   4.757   2.954   1.451 -0.9400 -0.0178 -2.5574
  623MOL0     H82187   4.524   3.093   1.595 -0.8131 -0.5310  0.2252
  623MOL0     H82188   4.680   3.038   1.670  0.1045 -0.1947  0.1072
  623MOL0     H82189   4.431   2.966   1.801  2.2268  2.1539 -2.1793
  623MOL0     H82190   4.422   2.672   1.938  0.1320 -0.2600  0.2859
  623MOL0     H82191   4.355   2.566   1.811  3.8147 -0.2639 -0.8527
  623MOL0     H82192   4.153   2.726   1.804 -1.7556 -1.0316  1.5332
  623MOL0     H82193   4.227   2.834   1.924 -0.5269  0.3561  0.8681
  623MOL0     H82194   4.177   2.549   1.976  0.0028 -0.3760 -1.0132
  623MOL0     H82195   4.221   2.664   2.090 -2.0703  0.5273  0.4641
  623MOL0     H82196   4.017   2.813   2.011 -0.3626  0.3154  1.9582
  623MOL0     H82197   3.965   2.677   2.104 -1.3225  1.0803 -0.7542
  623MOL0     H82198   3.808   2.470   1.766 -2.5707 -1.3445 -0.0516
  623MOL0     H82199   3.562   2.455   1.745 -1.8692  0.0104  0.4005
  623MOL0     H82200   3.186   2.357   1.981 -1.2233 -0.1890  1.7065
  623MOL0     H82201   2.938   2.314   1.980  0.6952 -1.1184 -1.7904
  623MOL0     H82202   2.673   2.579   1.709 -1.2922 -0.1276 -0.0126
  623MOL0     H82203   2.714   2.622   1.874  2.2005  2.8661 -2.4392
  623MOL0     H82204   2.552   2.423   1.950 -1.6245 -1.9056 -1.3174
  623MOL0     H82205   2.482   2.459   1.783 -0.1784 -1.3851  0.8605
  623MOL0     H82206   2.444   2.699   1.865 -1.1600 -0.7499 -1.1653
  623MOL0     H82207   2.518   2.659   2.017 -1.7078 -0.9764  1.5986
  623MOL0     H82208   2.345   2.481   2.052  3.2606  1.1560  0.5011
  623MOL0     H82209   2.278   2.645   2.066 -0.9778 -0.1292 -0.4219
  623MOL0     H82210   2.262   2.506   1.798 -1.1324  1.9624 -1.9929
  623MOL0     H82211   2.193   2.654   1.841 -0.2254  0.2618 -0.1955
  623MOL0     H82212   2.098   2.375   1.917  1.8314  0.1571  1.1810
  623MOL0     H82213   2.022   2.523   1.838  0.2791 -0.6816 -1.0737
  623MOL0     H82214   2.080   2.480   2.150 -0.9608  0.5677  1.9761
  623MOL0     H82215   2.050   2.634   2.082  1.5044 -0.7498  0.5567
  623MOL0     H82216   1.827   2.544   1.989 -0.8522 -1.2446  0.2194
  623MOL0     H82217   1.845   2.543   2.169 -0.3431  0.4846 -0.4119
  623MOL0     H82218   2.907   2.594   1.646  1.3385  0.7073 -0.5165
  623MOL0     H82219   3.146   2.597   1.624 -0.5511 -0.4395 -0.5902
  623MOL0     H82220   3.505   2.773   2.017 -0.6787 -2.1392  1.2878
  623MOL0     H82221   3.747   2.810   2.047 -2.5950  0.7713  2.4839
  623MOL0     H82222   5.448   3.026   0.823 -1.4981 -1.9161  0.7831
  623MOL0     H82223   5.556   3.063   0.597 -0.9037 -2.2946 -1.4518
  623MOL0     H82224   5.653   3.238   0.247  0.1198  0.7658 -1.7167
  623MOL0     H82225   5.841   3.252   0.068 -0.6670  0.9203 -2.1247
  623MOL0     H82226   6.046   2.938  -0.159 -0.5442 -0.1050  0.3596
  623MOL0     H82227   6.010   2.917   0.012  1.2553 -1.2392 -1.8200
  623MOL0     H82228   6.130   3.163  -0.108 -0.1010 -1.6718 -1.1744
  623MOL0     H82229   6.090   3.137   0.069 -2.0465 -1.8117 -0.3119
  623MOL0     H82230   6.292   2.980  -0.089 -0.0064  0.1361  0.5510
  623MOL0     H82231   6.242   2.945   0.072  1.6970 -0.0847  0.6449
  623MOL0     H82232   6.324   3.244   0.004  0.4518  1.0006  0.9097
  623MOL0     H82233   6.324   3.164   0.164 -3.9213  0.1121  0.1936
  623MOL0     H82234   6.712   3.096  -0.025  0.0855  0.0580 -1.2280
  623MOL0     H82235   5.783   2.857  -0.035 -2.2565 -0.1407 -0.8199
  623MOL0     H82236   5.576   2.830   0.138 -0.1003 -0.0726 -0.4864
  624MOL0     O82237   3.246   1.581  10.023 -0.0851  0.1663  0.4640
  624MOL0     C82238   3.328   1.485  10.020 -0.4322  0.2284  0.3529
  624MOL0     O82239   3.295   1.354  10.026  0.1167  1.2151  0.0017
  624MOL0     C82240   3.159   1.322  10.037  0.0878 -0.5697  0.0147
  624MOL0     C82241   3.093   1.352  10.159  0.2370 -0.2363  0.2298
  624MOL0     C82242   2.968   1.310  10.181 -0.2792 -0.0034  0.4794
  624MOL0     C82243   2.908   1.224  10.092 -0.5201  0.2918 -0.4004
  624MOL0     O82244   2.789   1.160  10.127 -1.1046 -0.5468  0.1693
  624MOL0     C82245   2.714   1.178  10.245 -0.4977 -0.0592 -0.2651
  624MOL0     C82246   2.569   1.151  10.210 -0.6016 -0.3949 -0.2514
  624MOL0     C82247   2.483   1.215  10.322 -0.0900  0.4967 -0.6304
  624MOL0     C82248   2.344   1.152  10.326  1.0441  0.3481  0.7985
  624MOL0     C82249   2.300   1.187  10.473  0.8231 -0.8899 -0.0430
  624MOL0     C82250   2.150   1.152  10.515  0.2105  0.5746  0.9982
  624MOL0     C82251   2.142   1.164  10.667 -0.3584  0.9023 -0.1699
  624MOL0     C82252   2.003   1.116  10.731  0.1774  0.1570  0.0408
  624MOL0     N82253   1.898   1.207  10.688 -0.1206 -0.1153 -0.4876
  624MOL0     C82254   1.848   1.318  10.757  0.0238  0.1669  0.8560
  624MOL0     C82255   1.752   1.363  10.681  0.4518 -0.7650 -0.8505
  624MOL0     C82256   1.657   1.475  10.728  0.0485 -0.7354 -0.0375
  624MOL0     C82257   1.705   1.611  10.670 -0.4043 -0.5630 -0.3367
  624MOL0     C82258   1.628   1.732  10.727 -0.3945  0.4459  0.1603
  624MOL0     C82259   1.503   1.769  10.652 -0.8157 -0.1459 -0.0412
  624MOL0     O82260   1.407   1.672  10.686 -0.0481 -0.1586 -0.2559
  624MOL0     C82261   1.285   1.691  10.626  0.1675  0.4949  0.2514
  624MOL0     C82262   1.258   1.747  10.500 -0.1534  0.6147 -0.1031
  624MOL0     C82263   1.134   1.754  10.435 -0.4797 -0.3650  0.2467
  624MOL0     C82264   1.020   1.697  10.502  0.2096 -0.4818 -0.4816
  624MOL0     C82265   0.884   1.720  10.447  0.6865  0.7415  0.5846
  624MOL0     O82266   0.777   1.700  10.528 -0.3474 -0.1290 -0.2742
  624MOL0     C82267   0.660   1.726  10.468 -0.5081 -0.2814  0.2481
  624MOL0     C82268   0.622   1.860  10.456 -1.1683 -0.4331 -0.0740
  624MOL0     C82269   0.500   1.882  10.409  0.2911  1.1218  0.3104
  624MOL0     C82270   0.416   1.782  10.357  0.4315  0.0482 -0.3016
  624MOL0     O82271   0.297   1.823  10.306 -0.5993 -0.1917  0.3706
  624MOL0     C82272   0.176   1.751  10.317  0.3377 -0.5090 -0.6882
  624MOL0     C82273   0.129   1.742  10.468  0.2976  0.3914 -1.1200
  624MOL0     C82274   0.006   1.653  10.496 -1.1414  0.7930  0.6820
  624MOL0     C82275  -0.000   1.595  10.641 -0.3882  0.2002  0.2756
  624MOL0     C82276  -0.048   1.702  10.746  0.0959  0.7131  0.2656
  624MOL0     C82277  -0.050   1.639  10.890 -0.0633  0.5713  0.2875
  624MOL0     C82278  -0.106   1.734  10.995  0.2294 -0.6024 -0.1803
  624MOL0     C82279  -0.071   1.693  11.133 -0.1710 -0.7231 -0.1739
  624MOL0    Cl82280  -0.158   1.540  11.160 -0.0146 -0.7661 -0.2331
  624MOL0     C82281   0.453   1.651  10.372 -1.1270  1.0218  0.2735
  624MOL0     C82282   0.576   1.623  10.430  0.4815  0.0076  1.2833
  624MOL0     O82283   0.882   1.742  10.327  0.6101  0.1078 -0.5759
  624MOL0     C82284   1.035   1.637  10.632 -0.8868 -0.0916  0.2045
  624MOL0     C82285   1.166   1.642  10.693  0.4638  0.5395  0.4478
  624MOL0     N82286   1.739   1.283  10.574  0.6465  0.1588 -0.3919
  624MOL0     N82287   1.830   1.194  10.574 -0.1290  0.2427 -0.2612
  624MOL0     C82288   2.969   1.193   9.967 -0.9280  0.2384 -0.4439
  624MOL0     C82289   3.090   1.257   9.934 -0.5850 -0.1879 -0.3162
  624MOL0     C82290   3.474   1.522  10.038  0.4719  0.1129 -0.3646
  624MOL0     C82291   3.576   1.428  10.004  0.1028 -0.3332  0.0275
  624MOL0     C82292   3.707   1.467   9.999  0.5141  0.7081  0.2361
  624MOL0     C82293   3.747   1.599  10.029  0.9213  0.2153 -0.8957
  624MOL0     O82294   3.872   1.648  10.024  0.1569 -0.4141 -0.3136
  624MOL0     C82295   3.947   1.673  10.155  0.5797  0.5424 -0.1823
  624MOL0     C82296   4.073   1.593  10.165 -0.0052  0.1533 -0.0573
  624MOL0     C82297   4.183   1.665  10.082 -0.1700  0.3167  0.2248
  624MOL0     C82298   4.328   1.624  10.111 -1.0496 -0.9434 -0.6032
  624MOL0     C82299   4.432   1.694  10.040 -0.2947  0.3090  0.2532
  624MOL0     C82300   4.512   1.763   9.987 -1.0271 -0.0082 -0.3622
  624MOL0     C82301   3.641   1.688  10.064 -0.1198 -0.2625 -0.1782
  624MOL0     C82302   3.509   1.654  10.065 -0.1646  0.0494 -1.4471
  624MOL0     H82303   3.144   1.408  10.236 -4.0143  0.6828  2.6658
  624MOL0     H82304   2.943   1.323  10.286 -0.7636 -1.3611  0.5510
  624MOL0     H82305   2.720   1.275  10.296  0.4576 -0.4007  0.3111
  624MOL0     H82306   2.748   1.113  10.326  0.1701  1.6512  0.8831
  624MOL0     H82307   2.548   1.045  10.193 -2.0196  0.2686 -3.4339
  624MOL0     H82308   2.550   1.184  10.108 -0.0846 -4.5178 -1.8828
  624MOL0     H82309   2.490   1.324  10.307  1.1076  0.5487  0.1578
  624MOL0     H82310   2.533   1.204  10.418 -2.8047  3.5128  1.3359
  624MOL0     H82311   2.273   1.199  10.257 -1.3638 -0.9497  2.2347
  624MOL0     H82312   2.353   1.044  10.309  2.2462  0.4184  0.8986
  624MOL0     H82313   2.320   1.292  10.493  2.1303 -1.2676  0.7711
  624MOL0     H82314   2.361   1.138  10.550 -0.2129  1.8820  2.7563
  624MOL0     H82315   2.127   1.051  10.482 -1.0058  1.8326 -2.4418
  624MOL0     H82316   2.083   1.213  10.455  1.9666  1.6933  0.0921
  624MOL0     H82317   2.208   1.090  10.712  0.3432  1.3913 -0.3877
  624MOL0     H82318   2.175   1.263  10.698  1.9631  0.5897 -1.4035
  624MOL0     H82319   2.010   1.118  10.840 -0.2963  0.9602  0.0583
  624MOL0     H82320   1.969   1.017  10.699 -1.4532  0.8357 -0.4318
  624MOL0     H82321   1.892   1.367  10.843 -1.3329 -1.0476  2.3096
  624MOL0     H82322   1.648   1.474  10.837  1.6398  1.7846  0.2102
  624MOL0     H82323   1.556   1.448  10.698  0.4013 -5.0431  1.8686
  624MOL0     H82324   1.707   1.606  10.561  2.4339 -1.1388 -0.3461
  624MOL0     H82325   1.810   1.628  10.698 -0.8020 -2.6032  2.9506
  624MOL0     H82326   1.611   1.707  10.832  1.4655 -1.2679  0.1056
  624MOL0     H82327   1.697   1.817  10.717  3.1991 -2.1504  0.9464
  624MOL0     H82328   1.517   1.783  10.544 -3.0236  1.1253 -0.2177
  624MOL0     H82329   1.462   1.862  10.691  0.9349  1.7417 -2.3983
  624MOL0     H82330   1.340   1.790  10.443 -1.5620  1.0258 -1.9417
  624MOL0     H82331   1.124   1.789  10.333 -0.7144 -3.5272 -0.9341
  624MOL0     H82332   0.674   1.946  10.498  1.0200 -0.5315 -2.3497
  624MOL0     H82333   0.459   1.982  10.415  1.9580  1.7163  3.2721
  624MOL0     H82334   0.182   1.652  10.272  0.0826 -0.6712 -0.3652
  624MOL0     H82335   0.098   1.812  10.270  0.5153  0.2671 -0.0033
  624MOL0     H82336   0.116   1.840  10.516 -2.0414  0.3902 -1.6296
  624MOL0     H82337   0.203   1.689  10.529 -2.0196 -2.1426 -0.3258
  624MOL0     H82338   0.011   1.573  10.422 -1.6430  0.3336  1.1390
  624MOL0     H82339  -0.088   1.705  10.479 -2.1185 -1.3251 -0.8008
  624MOL0     H82340  -0.071   1.513  10.653 -0.5862  0.5575  1.8089
  624MOL0     H82341   0.090   1.544  10.674 -1.6185 -2.6419 -0.4559
  624MOL0     H82342  -0.148   1.737  10.721  0.5047  1.9935  0.3428
  624MOL0     H82343   0.024   1.785  10.749  0.7554  0.4398 -3.6472
  624MOL0     H82344   0.051   1.614  10.923 -0.3460  1.6124  2.0488
  624MOL0     H82345  -0.113   1.550  10.875 -1.5571  1.9384 -2.3607
  624MOL0     H82346  -0.077   1.837  10.975 -2.4604  0.6849  1.9131
  624MOL0     H82347  -0.215   1.742  10.982  0.2650 -1.3074 -1.0534
  624MOL0     H82348  -0.109   1.773  11.196  0.4131  3.7931 -4.9131
  624MOL0     H82349   0.037   1.686  11.154  0.0325 -2.5656 -1.5415
  624MOL0     H82350   0.381   1.581  10.331 -0.6299  1.1634 -0.8679
  624MOL0     H82351   0.615   1.522  10.433 -1.3122 -0.9261 -2.0289
  624MOL0     H82352   0.951   1.586  10.678 -1.9438  1.6667  0.2926
  624MOL0     H82353   1.188   1.604  10.792  1.9862  2.3524  0.8704
  624MOL0     H82354   2.938   1.118   9.895  0.0399 -0.9350  0.3143
  624MOL0     H82355   3.137   1.241   9.837  3.0019 -0.2535  1.2871
  624MOL0     H82356   3.546   1.329   9.973 -2.7332  0.6317 -0.7060
  624MOL0     H82357   3.785   1.399   9.966  0.2372  1.2178 -1.5429
  624MOL0     H82358   3.886   1.644  10.242 -0.2060 -0.4831 -1.0530
  624MOL0     H82359   3.957   1.780  10.174  0.1119  0.4922  0.3702
  624MOL0     H82360   4.098   1.586  10.271 -0.4421  1.1461  0.1253
  624MOL0     H82361   4.051   1.496  10.120  1.8280 -0.1847 -0.3090
  624MOL0     H82362   4.188   1.770  10.110  1.5166  0.3354 -0.0815
  624MOL0     H82363   4.159   1.655   9.976 -0.0005  1.3165  0.0828
  624MOL0     H82364   4.349   1.642  10.216 -2.5921  2.9195 -0.7926
  624MOL0     H82365   4.336   1.518  10.087  1.7540 -1.3322  1.5133
  624MOL0     H82366   4.587   1.832   9.954  1.5567 -1.5902  1.8185
  624MOL0     H82367   3.673   1.784  10.103 -0.7521 -0.9254  2.1407
  624MOL0     H82368   3.430   1.723  10.092 -0.7045 -1.4705  1.2545
  625MOL0     O82369   9.591   6.462   7.723  0.1139  0.1492 -0.1350
  625MOL0     C82370   9.600   6.351   7.769 -0.7779 -0.6804  0.9551
  625MOL0     O82371   9.555   6.236   7.717 -0.4002  0.3957 -0.0926
  625MOL0     C82372   9.455   6.248   7.619  0.0651  0.1879 -0.2856
  625MOL0     C82373   9.491   6.205   7.488 -0.4656 -0.3855  0.3812
  625MOL0     C82374   9.400   6.207   7.384  0.9590 -0.1745  0.3333
  625MOL0     C82375   9.265   6.249   7.406 -0.8067  0.1014 -0.3545
  625MOL0     O82376   9.168   6.251   7.312  0.3371  0.4084 -0.9343
  625MOL0     C82377   9.206   6.305   7.184 -0.4117 -0.0996 -0.0758
  625MOL0     C82378   9.071   6.338   7.123 -0.1404 -0.6831  0.0902
  625MOL0     C82379   9.017   6.470   7.166  0.2322  0.2325 -0.1429
  625MOL0     C82380   9.009   6.494   7.319  0.4777  0.1325 -0.4248
  625MOL0     C82381   8.949   6.624   7.355 -0.0781 -0.6291 -0.1135
  625MOL0     C82382   9.050   6.728   7.324 -0.4156 -0.6470  0.0465
  625MOL0     C82383   8.984   6.866   7.305  0.6803 -0.4161 -0.1450
  625MOL0     C82384   8.927   6.914   7.435 -0.6802 -0.4957 -0.3162
  625MOL0     N82385   8.880   7.047   7.407 -0.2616  0.3109  0.4921
  625MOL0     C82386   8.959   7.157   7.404 -0.4609 -0.5575  0.4501
  625MOL0     C82387   8.888   7.265   7.371 -0.0531 -0.0708  0.5997
  625MOL0     C82388   8.948   7.404   7.363  0.4154 -0.0829  0.3813
  625MOL0     C82389   8.958   7.460   7.506  0.5715  0.3064 -0.3314
  625MOL0     C82390   8.854   7.567   7.534  0.1664 -0.6846  0.8950
  625MOL0     C82391   8.709   7.527   7.517 -0.8936  0.0896 -0.6098
  625MOL0     O82392   8.623   7.623   7.584  0.1144  0.0487  0.5199
  625MOL0     C82393   8.491   7.607   7.580 -0.2294  0.3972  0.7181
  625MOL0     C82394   8.422   7.689   7.664  0.0077 -0.8855 -0.1344
  625MOL0     C82395   8.283   7.673   7.677  0.4834 -0.2917 -0.0556
  625MOL0     C82396   8.213   7.584   7.590  0.2182 -0.3056  0.2127
  625MOL0     C82397   8.066   7.582   7.593 -0.0248 -0.1137  1.0814
  625MOL0     O82398   8.001   7.656   7.688  0.0356  0.1306 -0.4096
  625MOL0     C82399   7.865   7.658   7.703 -0.7634  0.2338 -0.5223
  625MOL0     C82400   7.800   7.658   7.832 -1.0473 -0.2004  0.3289
  625MOL0     C82401   7.661   7.663   7.852  0.9606 -0.4432  0.5469
  625MOL0     C82402   7.571   7.667   7.746 -0.4082 -0.6761 -0.5133
  625MOL0     O82403   7.431   7.681   7.750  0.1938 -0.5781  0.4201
  625MOL0     C82404   7.372   7.715   7.866  0.5029 -0.6333 -1.4495
  625MOL0     C82405   7.218   7.704   7.854 -0.0084 -0.8226  0.3136
  625MOL0     C82406   7.137   7.754   7.969  0.0964 -0.7845 -1.1874
  625MOL0     C82407   6.987   7.718   7.946 -1.5558  0.4116  0.4806
  625MOL0     C82408   6.892   7.729   8.070 -0.3154 -0.4510 -0.3002
  625MOL0     C82409   6.752   7.682   8.056 -0.1046 -0.7320  0.0406
  625MOL0     C82410   6.682   7.737   7.934  0.4222  0.7451  0.0877
  625MOL0     C82411   6.534   7.747   7.941  0.5193 -0.1268 -0.2405
  625MOL0    Cl82412   6.465   7.582   7.935 -0.2524  0.2813 -0.0145
  625MOL0     C82413   7.634   7.670   7.622  0.6562  1.0935 -0.0618
  625MOL0     C82414   7.770   7.661   7.597  0.1727  0.4175  0.2400
  625MOL0     O82415   8.008   7.508   7.512  0.6947  0.3828 -0.2490
  625MOL0     C82416   8.285   7.508   7.493  0.8812 -0.7356  0.0834
  625MOL0     C82417   8.425   7.516   7.488  0.3351 -0.0905  0.4197
  625MOL0     N82418   8.759   7.223   7.367  0.3979 -0.2322 -0.0938
  625MOL0     N82419   8.757   7.089   7.380  0.8481 -0.1868 -0.5070
  625MOL0     C82420   9.234   6.281   7.536  0.4796 -0.7946 -0.0926
  625MOL0     C82421   9.326   6.292   7.639 -0.0226  0.5828 -0.0232
  625MOL0     C82422   9.694   6.341   7.888  0.4288  0.3749  0.3636
  625MOL0     C82423   9.734   6.449   7.966  0.2079  0.5432  0.8194
  625MOL0     C82424   9.840   6.446   8.048 -0.1696 -0.4974  1.2349
  625MOL0     C82425   9.905   6.327   8.077 -0.5175  0.3079  0.5241
  625MOL0     O82426   9.997   6.343   8.174  0.8562 -0.5425  0.0734
  625MOL0     C82427  10.065   6.229   8.230 -0.0781  0.3185  0.6223
  625MOL0     C82428  10.185   6.198   8.146  0.0468 -0.0222  0.5633
  625MOL0     C82429  10.287   6.131   8.236  0.3349  1.1434  0.4282
  625MOL0     C82430  10.403   6.081   8.149 -0.2378  0.5473 -0.5977
  625MOL0     C82431  10.520   6.087   8.240 -0.7354  1.3824  0.5156
  625MOL0     C82432  10.610   6.074   8.324  0.1933 -0.0471 -0.1859
  625MOL0     C82433   9.858   6.207   8.010  0.8024  0.2170 -0.2102
  625MOL0     C82434   9.760   6.213   7.910  0.5365  0.1398 -0.1864
  625MOL0     H82435   9.590   6.165   7.468  0.4105  1.5619  0.6510
  625MOL0     H82436   9.422   6.164   7.287  0.9915 -2.1381  1.1601
  625MOL0     H82437   9.244   6.223   7.122  1.0130  1.6759 -1.6760
  625MOL0     H82438   9.287   6.378   7.188  0.2295 -0.5943 -2.4728
  625MOL0     H82439   8.993   6.266   7.151 -0.5762  0.1695  1.1320
  625MOL0     H82440   9.075   6.335   7.014 -0.9777  1.0600 -0.0337
  625MOL0     H82441   8.920   6.490   7.118  0.3435  0.8660 -0.1110
  625MOL0     H82442   9.102   6.532   7.139  3.1279 -3.3855 -0.2058
  625MOL0     H82443   8.937   6.422   7.360 -0.4565  0.4734 -1.4346
  625MOL0     H82444   9.108   6.478   7.363  0.0462 -3.4710 -0.4578
  625MOL0     H82445   8.918   6.625   7.460  1.8626 -1.0421  0.5059
  625MOL0     H82446   8.865   6.642   7.287 -1.0713 -2.3508  0.5889
  625MOL0     H82447   9.109   6.716   7.233  3.3505  2.6639  1.7368
  625MOL0     H82448   9.122   6.732   7.406 -2.5392  1.9919  1.9816
  625MOL0     H82449   9.053   6.940   7.264 -0.7884  1.5928  0.8435
  625MOL0     H82450   8.896   6.858   7.241 -0.0512 -2.1970  0.9937
  625MOL0     H82451   8.996   6.929   7.519 -1.1123 -2.4448  0.4454
  625MOL0     H82452   8.844   6.849   7.464  1.4332 -2.9511  0.5849
  625MOL0     H82453   9.066   7.160   7.424  0.2312  0.8464 -2.7796
  625MOL0     H82454   8.876   7.457   7.300  2.4240  1.6345 -0.5949
  625MOL0     H82455   9.049   7.406   7.319 -0.0942 -2.2758 -1.0356
  625MOL0     H82456   9.057   7.507   7.514  1.6464 -2.1506  2.4424
  625MOL0     H82457   8.963   7.386   7.587 -0.5231  0.5325 -0.0433
  625MOL0     H82458   8.879   7.611   7.631 -1.9626  2.0205  0.3446
  625MOL0     H82459   8.871   7.638   7.453 -0.4240 -1.8402 -0.2788
  625MOL0     H82460   8.685   7.430   7.563 -3.0828  0.7744 -0.1836
  625MOL0     H82461   8.688   7.520   7.410 -3.6315 -0.7980 -0.1048
  625MOL0     H82462   8.475   7.752   7.734  0.1944 -2.8372  1.5836
  625MOL0     H82463   8.219   7.722   7.749 -0.5888 -2.0471  0.2390
  625MOL0     H82464   7.869   7.652   7.916  0.0970 -2.8018 -0.6974
  625MOL0     H82465   7.610   7.678   7.946 -1.9080  1.0987 -1.1059
  625MOL0     H82466   7.398   7.819   7.892 -3.4126  0.5191 -1.5038
  625MOL0     H82467   7.395   7.656   7.955 -4.1931 -2.8846 -1.4369
  625MOL0     H82468   7.198   7.597   7.842 -0.7419 -0.9382  2.3113
  625MOL0     H82469   7.175   7.755   7.767 -0.7154  1.6155  1.9843
  625MOL0     H82470   7.164   7.860   7.969 -1.9918 -0.0867  2.5436
  625MOL0     H82471   7.186   7.700   8.051 -1.0519 -1.2828 -0.8042
  625MOL0     H82472   6.961   7.781   7.859  0.0334  1.1346  0.4975
  625MOL0     H82473   6.973   7.613   7.919 -1.5906  0.5794 -0.1775
  625MOL0     H82474   6.881   7.835   8.096  0.0769 -1.2287  3.6446
  625MOL0     H82475   6.938   7.684   8.159 -0.7414 -0.2073  0.0462
  625MOL0     H82476   6.705   7.716   8.149  1.1624 -0.8193  0.7538
  625MOL0     H82477   6.754   7.572   8.053  1.6054 -0.7301 -0.1431
  625MOL0     H82478   6.710   7.842   7.917 -1.2293  1.0824 -0.7539
  625MOL0     H82479   6.710   7.676   7.847 -1.4287  0.3751 -0.2949
  625MOL0     H82480   6.497   7.811   7.861  2.2073  2.5804  1.0080
  625MOL0     H82481   6.502   7.800   8.031 -2.1166  0.1522 -1.2506
  625MOL0     H82482   7.563   7.680   7.540 -0.0405  0.6193  0.4701
  625MOL0     H82483   7.798   7.646   7.493  2.2298 -4.2085  1.1689
  625MOL0     H82484   8.245   7.434   7.424 -0.1387 -0.0438 -0.0779
  625MOL0     H82485   8.459   7.441   7.417 -2.1402 -1.1370  0.2392
  625MOL0     H82486   9.135   6.324   7.541  0.6623 -0.4588  0.7598
  625MOL0     H82487   9.299   6.340   7.733  0.2572 -0.5039  0.6345
  625MOL0     H82488   9.696   6.547   7.937  0.7756  1.1198  1.9366
  625MOL0     H82489   9.877   6.537   8.093  1.1440  0.1585 -1.0096
  625MOL0     H82490   9.993   6.146   8.236 -0.9721  0.6091 -3.3705
  625MOL0     H82491  10.085   6.263   8.332 -0.1988 -0.4168  0.8984
  625MOL0     H82492  10.152   6.117   8.080  3.9838 -1.6706  0.3506
  625MOL0     H82493  10.229   6.280   8.088  1.2171 -0.5239  0.7170
  625MOL0     H82494  10.246   6.044   8.288  2.4877 -1.2473 -1.5653
  625MOL0     H82495  10.317   6.202   8.313  0.4655  1.6459 -0.0763
  625MOL0     H82496  10.382   5.985   8.100 -2.7418 -0.4071  2.0258
  625MOL0     H82497  10.421   6.166   8.083  2.0763  0.6496  0.0788
  625MOL0     H82498  10.698   6.074   8.385 -0.4850  1.1886  0.8356
  625MOL0     H82499   9.876   6.105   8.044  0.1636 -0.9158 -2.9623
  625MOL0     H82500   9.710   6.127   7.867 -0.2316  1.2803 -1.6674
  626MOL0     O82501   3.339   4.711  10.085  0.0199  0.0133  0.5106
  626MOL0     C82502   3.372   4.807  10.011 -0.7311  0.1574  1.0440
  626MOL0     O82503   3.282   4.878   9.933  0.2309  0.3775 -0.5652
  626MOL0     C82504   3.155   4.830   9.932  0.0153 -0.6715 -0.7986
  626MOL0     C82505   3.068   4.828  10.037  0.2427 -0.8396 -0.0423
  626MOL0     C82506   2.942   4.767  10.027 -0.4970 -0.7044 -1.1384
  626MOL0     C82507   2.895   4.720   9.903 -0.5492  0.7902  0.0719
  626MOL0     O82508   2.765   4.676   9.889  0.0517 -0.7163  0.4976
  626MOL0     C82509   2.682   4.661   9.997  0.9239 -0.1424  0.2264
  626MOL0     C82510   2.553   4.603   9.941 -0.5889  0.1948  0.2708
  626MOL0     C82511   2.454   4.583  10.055 -0.8036  1.0644  0.1112
  626MOL0     C82512   2.334   4.502  10.008  0.6243 -0.3617 -0.7157
  626MOL0     C82513   2.250   4.574   9.900 -0.2317  0.0565  0.0190
  626MOL0     C82514   2.121   4.637   9.948  0.2524  0.3113 -0.2661
  626MOL0     C82515   2.045   4.716   9.843 -0.4810 -0.3638 -0.4938
  626MOL0     C82516   1.900   4.767   9.887  0.4479  0.4249  0.3514
  626MOL0     N82517   1.806   4.667   9.948 -0.3185  0.1462  0.3176
  626MOL0     C82518   1.731   4.679  10.059 -0.8223 -0.3244 -0.1072
  626MOL0     C82519   1.649   4.574  10.062 -0.6611  1.0858 -0.3308
  626MOL0     C82520   1.541   4.546  10.162  0.1369  0.2032 -0.2734
  626MOL0     C82521   1.399   4.529  10.092  0.0027 -0.5113  0.1900
  626MOL0     C82522   1.302   4.474  10.190 -0.1687  0.7819 -0.0643
  626MOL0     C82523   1.156   4.467  10.133 -0.5359  0.3900 -0.8923
  626MOL0     O82524   1.081   4.425  10.248  0.2971 -0.3087 -0.2084
  626MOL0     C82525   0.953   4.394  10.230 -0.2250  0.9718 -0.4693
  626MOL0     C82526   0.871   4.372  10.341  0.2441  0.7591  0.1031
  626MOL0     C82527   0.739   4.320  10.332  0.3474 -0.0371  0.1761
  626MOL0     C82528   0.685   4.280  10.207  0.3304  0.1853  0.4033
  626MOL0     C82529   0.562   4.208  10.195  0.2334 -0.3573  0.3033
  626MOL0     O82530   0.504   4.192  10.313  0.6952  0.3082 -1.2319
  626MOL0     C82531   0.382   4.135  10.320  0.1315  0.2560 -1.0538
  626MOL0     C82532   0.354   3.996  10.337  0.3824 -0.0331 -1.0544
  626MOL0     C82533   0.221   3.953  10.360 -0.4353 -0.0917  0.6679
  626MOL0     C82534   0.112   4.042  10.367  0.0871  0.7083 -0.9476
  626MOL0     O82535  -0.003   3.998  10.427 -0.3289  0.2130 -0.3643
  626MOL0     C82536  -0.097   4.094  10.462  0.0303 -0.8493  0.4615
  626MOL0     C82537  -0.233   4.033  10.499 -0.3952  0.0147  0.0814
  626MOL0     C82538  -0.334   4.152  10.526 -0.0702  0.1391  1.1937
  626MOL0     C82539  -0.459   4.102  10.599 -0.0585 -0.5227 -0.4475
  626MOL0     C82540  -0.528   3.984  10.526 -0.3321 -0.2211 -0.5148
  626MOL0     C82541  -0.661   3.941  10.596 -0.5252 -0.4803 -0.0503
  626MOL0     C82542  -0.631   3.871  10.729 -0.4917 -0.4203  0.3616
  626MOL0     C82543  -0.751   3.777  10.762  0.1241 -0.9958  1.2848
  626MOL0    Cl82544  -0.903   3.874  10.787 -0.1312 -0.1258  0.2926
  626MOL0     C82545   0.142   4.179  10.346 -0.4202  0.1464  0.3863
  626MOL0     C82546   0.273   4.220  10.318 -0.0969  0.5125 -0.0446
  626MOL0     O82547   0.511   4.184  10.086 -0.3746  0.9509 -0.0606
  626MOL0     C82548   0.771   4.302  10.093  0.9571 -0.9795  0.8805
  626MOL0     C82549   0.901   4.360  10.112  0.3534  0.4989  0.6528
  626MOL0     N82550   1.667   4.498   9.946 -0.5783 -0.0121  0.3942
  626MOL0     N82551   1.759   4.561   9.874  0.8826  0.1221 -0.4297
  626MOL0     C82552   2.984   4.728   9.795  0.2153 -0.0774  0.1435
  626MOL0     C82553   3.111   4.790   9.810  0.3505  0.6638 -0.0556
  626MOL0     C82554   3.517   4.851  10.006  0.8758  0.7156  0.3685
  626MOL0     C82555   3.556   4.974   9.962 -0.1402 -0.1308 -0.1361
  626MOL0     C82556   3.687   5.017   9.971 -0.1651  0.1057  0.3083
  626MOL0     C82557   3.791   4.932  10.021 -0.0348 -0.0895  0.6324
  626MOL0     O82558   3.923   4.981  10.022 -0.1581 -0.2560  0.0267
  626MOL0     C82559   4.031   4.893  10.048 -0.3434  0.7076 -0.1575
  626MOL0     C82560   4.167   4.966  10.046  0.2440  0.2174 -0.7998
  626MOL0     C82561   4.295   4.878  10.069  0.2187  0.0905  0.0433
  626MOL0     C82562   4.412   4.961  10.134 -0.1809  0.7454  0.4897
  626MOL0     C82563   4.466   5.046  10.027  0.6565  0.5473 -0.8007
  626MOL0     C82564   4.499   5.093   9.924 -0.1529 -0.6891 -0.2505
  626MOL0     C82565   3.759   4.798  10.047  0.6807  0.1188 -1.0123
  626MOL0     C82566   3.624   4.752  10.031 -0.4548 -0.3271  0.0916
  626MOL0     H82567   3.118   4.860  10.128  2.9621  0.4734 -1.8586
  626MOL0     H82568   2.877   4.758  10.113 -0.6467 -1.3229 -1.3059
  626MOL0     H82569   2.653   4.758  10.040 -1.4418  0.2517 -1.9912
  626MOL0     H82570   2.730   4.599  10.073  0.8481  0.5169  0.8295
  626MOL0     H82571   2.579   4.508   9.894 -2.2849  0.2222 -0.7737
  626MOL0     H82572   2.505   4.669   9.868 -0.9878 -0.6231 -0.2238
  626MOL0     H82573   2.425   4.676  10.106 -1.9222 -0.0298  1.5634
  626MOL0     H82574   2.489   4.512  10.131 -0.7644  1.9317  0.9274
  626MOL0     H82575   2.364   4.406   9.966  2.5126  0.0413 -0.3845
  626MOL0     H82576   2.273   4.493  10.099 -0.5549  1.4479 -1.2669
  626MOL0     H82577   2.218   4.496   9.829  2.1463 -1.1907  0.1948
  626MOL0     H82578   2.302   4.654   9.846  2.3551 -2.0554 -0.9016
  626MOL0     H82579   2.157   4.703  10.028 -0.5632  0.1776  0.2216
  626MOL0     H82580   2.053   4.556   9.977 -0.6531  1.7386  1.8614
  626MOL0     H82581   2.094   4.808   9.812  0.1789 -0.6505 -0.3322
  626MOL0     H82582   2.033   4.660   9.750  2.5993  2.0245 -2.5140
  626MOL0     H82583   1.856   4.801   9.793  1.3733 -2.1918 -1.1214
  626MOL0     H82584   1.909   4.853   9.953 -0.0953 -0.2698  1.3672
  626MOL0     H82585   1.740   4.749  10.142 -2.5926  1.8914 -1.6485
  626MOL0     H82586   1.534   4.613  10.248 -1.5527 -2.1169  1.5575
  626MOL0     H82587   1.566   4.448  10.203 -4.2000 -1.1358 -0.3289
  626MOL0     H82588   1.414   4.461  10.007  0.5287 -0.4320  0.2147
  626MOL0     H82589   1.360   4.625  10.055  2.6926  1.0752  1.1363
  626MOL0     H82590   1.327   4.377  10.234 -0.6954  2.0973  3.4364
  626MOL0     H82591   1.309   4.549  10.269  1.6595  2.9472 -2.0998
  626MOL0     H82592   1.151   4.388  10.058 -1.0144 -0.1255 -0.3323
  626MOL0     H82593   1.120   4.563  10.093  0.8725  2.0703  1.5981
  626MOL0     H82594   0.916   4.394  10.437 -1.0437  1.8052  0.4854
  626MOL0     H82595   0.687   4.302  10.426 -0.1496  1.0945  0.1360
  626MOL0     H82596   0.436   3.925  10.342  0.4130  0.0614 -0.0186
  626MOL0     H82597   0.218   3.853  10.402  0.7769 -0.2767  0.3469
  626MOL0     H82598  -0.120   4.154  10.374  0.9387 -1.1391  0.0242
  626MOL0     H82599  -0.069   4.157  10.547  0.5309 -0.2054 -0.1725
  626MOL0     H82600  -0.218   3.974  10.590 -1.5906 -1.5372 -0.6749
  626MOL0     H82601  -0.277   3.958  10.433 -3.4134  0.4583  1.4090
  626MOL0     H82602  -0.356   4.192  10.426 -0.2335 -0.3736  1.0191
  626MOL0     H82603  -0.294   4.241  10.575  1.9901  0.9371 -1.6322
  626MOL0     H82604  -0.434   4.065  10.699  1.5168 -2.3528 -1.4597
  626MOL0     H82605  -0.524   4.189  10.613 -0.9094 -1.4283  1.7092
  626MOL0     H82606  -0.471   3.891  10.517 -0.9977 -0.4964 -2.3737
  626MOL0     H82607  -0.554   4.031  10.430 -1.3014 -0.0739 -0.1893
  626MOL0     H82608  -0.708   3.869  10.528 -1.3566 -0.8205  0.8577
  626MOL0     H82609  -0.731   4.024  10.608  0.0374  0.3447 -2.0223
  626MOL0     H82610  -0.536   3.817  10.738 -0.7443 -0.4987  4.8319
  626MOL0     H82611  -0.627   3.948  10.807 -3.7751 -0.1392  0.3790
  626MOL0     H82612  -0.732   3.709  10.845 -0.7692 -1.7356  0.8955
  626MOL0     H82613  -0.775   3.730  10.667  0.1173 -0.6116  1.0952
  626MOL0     H82614   0.073   4.261  10.366  0.9611  0.7216  3.2692
  626MOL0     H82615   0.285   4.327  10.304  1.4743  0.2518 -0.9272
  626MOL0     H82616   0.720   4.288   9.999 -2.7454  0.6244  2.4505
  626MOL0     H82617   0.955   4.381  10.020  2.6556  1.9049  2.2393
  626MOL0     H82618   2.957   4.702   9.693 -1.5680 -0.2735  0.6179
  626MOL0     H82619   3.173   4.800   9.721  2.8724 -0.2184  1.4840
  626MOL0     H82620   3.479   5.049   9.945 -1.0154 -0.9605  0.1118
  626MOL0     H82621   3.709   5.121   9.952 -0.3293 -0.0940 -1.0754
  626MOL0     H82622   4.043   4.795   9.999 -0.1741  0.0624  1.1281
  626MOL0     H82623   4.020   4.863  10.152 -0.1249  1.7663  0.1813
  626MOL0     H82624   4.185   5.009   9.947 -2.0940  2.1193 -0.4853
  626MOL0     H82625   4.166   5.051  10.115 -0.7251  0.5730 -1.2298
  626MOL0     H82626   4.331   4.828   9.979  3.6828  0.1733  1.2094
  626MOL0     H82627   4.274   4.799  10.142 -1.5749 -0.8136 -1.3674
  626MOL0     H82628   4.369   5.002  10.226 -1.6677  0.4022 -0.0230
  626MOL0     H82629   4.493   4.892  10.160 -0.9114 -0.9431 -1.4085
  626MOL0     H82630   4.527   5.150   9.838 -1.1097  0.7714  0.3647
  626MOL0     H82631   3.838   4.734  10.083 -0.3457  0.7608  2.8507
  626MOL0     H82632   3.609   4.645  10.041 -0.2510 -0.5418 -1.5827
  627MOL0     O82633  10.698   7.214   5.995 -1.2306 -0.2247 -0.1080
  627MOL0     C82634  10.797   7.261   5.943 -0.7256 -0.9161  0.3541
  627MOL0     O82635  10.797   7.362   5.846 -0.2052  0.0343 -0.3243
  627MOL0     C82636  10.681   7.438   5.822  0.1289 -1.8805 -0.0266
  627MOL0     C82637  10.568   7.465   5.909 -0.6931 -0.3090 -0.0756
  627MOL0     C82638  10.467   7.560   5.883 -0.4875  0.2062 -0.5404
  627MOL0     C82639  10.465   7.631   5.768  0.1157 -0.6969  0.2335
  627MOL0     O82640  10.371   7.730   5.733  0.4868 -0.1017 -0.8731
  627MOL0     C82641  10.287   7.768   5.839 -0.5067  0.8167  0.3690
  627MOL0     C82642  10.195   7.886   5.812  1.1058 -0.5661 -0.7123
  627MOL0     C82643  10.086   7.863   5.698 -0.7060  0.4326 -0.1539
  627MOL0     C82644   9.978   7.972   5.689  0.3487  0.3413 -0.0221
  627MOL0     C82645   9.874   7.956   5.571  0.3969  0.8353 -0.3149
  627MOL0     C82646   9.805   8.093   5.522 -0.1466 -0.4666 -0.1361
  627MOL0     C82647   9.681   8.062   5.444  0.5197  0.0670 -0.5794
  627MOL0     C82648   9.604   8.183   5.397 -0.9603  0.7237  1.0387
  627MOL0     N82649   9.480   8.156   5.324 -0.6682  0.5205  0.6461
  627MOL0     C82650   9.363   8.235   5.311 -0.6998  0.3669 -0.1943
  627MOL0     C82651   9.311   8.188   5.197 -0.2936  0.6084  0.3426
  627MOL0     C82652   9.193   8.258   5.136  0.1090  1.1665  0.0843
  627MOL0     C82653   9.197   8.248   4.980 -0.8470  0.3696  0.1412
  627MOL0     C82654   9.091   8.341   4.904 -0.5292  0.6340  0.0386
  627MOL0     C82655   9.028   8.278   4.781 -0.1779  0.0864  0.0330
  627MOL0     O82656   8.935   8.370   4.719 -0.2436 -0.0241  0.1665
  627MOL0     C82657   8.892   8.346   4.587 -0.4742 -0.4360 -0.2465
  627MOL0     C82658   8.779   8.416   4.554  0.5139 -0.0870 -0.1988
  627MOL0     C82659   8.719   8.392   4.433 -0.3398 -0.9127 -0.8168
  627MOL0     C82660   8.773   8.303   4.337  0.0572 -0.5924 -0.0331
  627MOL0     C82661   8.711   8.285   4.199  0.4670  0.7324 -0.3097
  627MOL0     O82662   8.588   8.336   4.189  0.6213 -0.7034  0.0578
  627MOL0     C82663   8.494   8.329   4.094  0.0888  0.3409  0.0762
  627MOL0     C82664   8.504   8.265   3.968  0.2144 -0.2362 -0.1331
  627MOL0     C82665   8.395   8.263   3.880 -0.0017 -0.0489  0.6371
  627MOL0     C82666   8.279   8.331   3.907 -0.0821  0.0777 -0.3623
  627MOL0     O82667   8.174   8.328   3.817 -0.4887  0.3940 -0.5533
  627MOL0     C82668   8.204   8.344   3.676 -0.3153  0.3296  0.8401
  627MOL0     C82669   8.078   8.361   3.594 -0.1379  0.0793 -0.0963
  627MOL0     C82670   8.016   8.495   3.631 -0.1825 -1.1291  0.1829
  627MOL0     C82671   7.901   8.529   3.536 -0.8622 -0.0065  0.1836
  627MOL0     C82672   7.855   8.679   3.536 -0.0306  0.4743 -0.3807
  627MOL0     C82673   7.725   8.694   3.445  0.0842 -0.5497  0.4076
  627MOL0     C82674   7.682   8.836   3.438 -0.4503  0.4008 -0.5740
  627MOL0     C82675   7.541   8.859   3.386 -0.0080 -0.7881  0.7748
  627MOL0    Cl82676   7.480   8.761   3.243  0.1171  0.1888  0.2635
  627MOL0     C82677   8.261   8.395   4.027 -0.5791 -0.4813 -0.1184
  627MOL0     C82678   8.371   8.390   4.120  1.0577  0.2060  0.3390
  627MOL0     O82679   8.768   8.215   4.113  0.6052 -0.5064  0.3923
  627MOL0     C82680   8.892   8.239   4.371  0.4067  0.6495 -0.5989
  627MOL0     C82681   8.954   8.260   4.493 -0.7324 -0.0328 -0.3882
  627MOL0     N82682   9.371   8.075   5.152  0.2043  0.2857 -0.2166
  627MOL0     N82683   9.475   8.058   5.232  0.1763  0.0024  0.1182
  627MOL0     C82684  10.569   7.607   5.677 -0.1360  0.9820  0.4885
  627MOL0     C82685  10.672   7.512   5.695  0.2358  1.0475  0.5443
  627MOL0     C82686  10.932   7.208   5.970  0.3146 -0.0086 -0.0572
  627MOL0     C82687  10.945   7.139   6.089  0.0028 -0.4403 -0.5445
  627MOL0     C82688  11.066   7.079   6.144  0.4037 -0.1314  0.3004
  627MOL0     C82689  11.184   7.123   6.077 -0.9302  0.4031  0.0082
  627MOL0     O82690  11.310   7.110   6.129 -0.5362  0.3571 -0.6709
  627MOL0     C82691  11.324   7.019   6.244  0.0356 -0.3521  0.5884
  627MOL0     C82692  11.470   6.998   6.283  0.8744  1.1830 -0.6424
  627MOL0     C82693  11.549   7.110   6.353 -0.3178  0.6155 -0.4723
  627MOL0     C82694  11.621   7.065   6.477 -0.0310  1.0908  0.2346
  627MOL0     C82695  11.695   7.169   6.550  0.0204  0.3516 -0.0809
  627MOL0     C82696  11.766   7.249   6.599 -0.5612 -0.3512  1.1767
  627MOL0     C82697  11.174   7.201   5.956  0.0112  0.8642 -0.4666
  627MOL0     C82698  11.049   7.244   5.910 -0.5714  0.6922  0.4591
  627MOL0     H82699  10.566   7.408   6.001 -0.0123  0.0001  0.1375
  627MOL0     H82700  10.386   7.561   5.955 -0.2900  1.2873 -0.3139
  627MOL0     H82701  10.343   7.805   5.925  1.6139  0.9120 -0.9903
  627MOL0     H82702  10.220   7.686   5.867  1.1303 -0.0880  1.8373
  627MOL0     H82703  10.255   7.976   5.804  1.0055 -0.6224 -2.5288
  627MOL0     H82704  10.122   7.887   5.893 -0.0666 -0.0462 -1.7407
  627MOL0     H82705  10.033   7.770   5.720  0.2590  0.1984  1.3337
  627MOL0     H82706  10.140   7.842   5.606  0.2430 -1.7232  0.8084
  627MOL0     H82707   9.925   7.994   5.782 -0.0346  1.1053 -0.4155
  627MOL0     H82708  10.045   8.055   5.667 -0.1526  0.6222 -0.5074
  627MOL0     H82709   9.799   7.889   5.614  1.6361 -0.1496  0.3981
  627MOL0     H82710   9.927   7.903   5.492  3.2866  0.6694  1.5632
  627MOL0     H82711   9.879   8.150   5.464 -0.2970  0.7779  0.8568
  627MOL0     H82712   9.784   8.161   5.605 -0.7170  1.8785 -2.0932
  627MOL0     H82713   9.709   7.996   5.362 -1.1616 -1.6920  0.1887
  627MOL0     H82714   9.609   8.004   5.502 -1.0703  1.0407 -1.5140
  627MOL0     H82715   9.663   8.262   5.349  0.4133  0.3925  2.1087
  627MOL0     H82716   9.587   8.223   5.497  2.7018 -0.4106  2.2751
  627MOL0     H82717   9.321   8.308   5.379 -2.5792  1.6562 -2.5991
  627MOL0     H82718   9.175   8.360   5.172 -1.7373  0.5465  1.0698
  627MOL0     H82719   9.100   8.212   5.171  1.0270  1.9536  3.9947
  627MOL0     H82720   9.192   8.145   4.941  1.6953  0.0183  0.5446
  627MOL0     H82721   9.298   8.282   4.954  0.2347 -2.7042 -0.2048
  627MOL0     H82722   9.019   8.374   4.980 -0.7631  1.5541 -0.5683
  627MOL0     H82723   9.141   8.432   4.870 -0.5509  1.4600  2.0404
  627MOL0     H82724   8.973   8.189   4.810 -3.7905  2.0380 -0.1585
  627MOL0     H82725   9.108   8.247   4.713  1.4829 -0.6073  2.2121
  627MOL0     H82726   8.738   8.486   4.627 -0.3634 -0.5740 -0.2036
  627MOL0     H82727   8.617   8.427   4.425 -0.5760 -1.1592  0.7377
  627MOL0     H82728   8.597   8.211   3.950 -0.2623 -0.7084 -1.2755
  627MOL0     H82729   8.416   8.227   3.779  0.9648 -1.2283  1.2346
  627MOL0     H82730   8.264   8.264   3.632 -0.7313  0.3473  0.2269
  627MOL0     H82731   8.250   8.443   3.669 -2.9888  1.5890 -0.5501
  627MOL0     H82732   8.008   8.281   3.619  0.9993 -0.5027  1.3642
  627MOL0     H82733   8.096   8.368   3.486 -0.9389 -0.3283 -0.2664
  627MOL0     H82734   8.093   8.572   3.619 -1.0918 -0.5202 -2.3240
  627MOL0     H82735   7.971   8.499   3.731  0.2977  2.2239  0.3802
  627MOL0     H82736   7.928   8.483   3.441 -0.5353 -0.4896  0.5073
  627MOL0     H82737   7.814   8.471   3.571  0.1455 -0.2808  2.4172
  627MOL0     H82738   7.936   8.740   3.495  1.5831 -1.0407  0.3937
  627MOL0     H82739   7.834   8.713   3.638  1.2570 -1.1783  0.4775
  627MOL0     H82740   7.647   8.638   3.496  1.1982 -0.5461  2.1961
  627MOL0     H82741   7.747   8.649   3.348  0.0567 -1.3929  0.7869
  627MOL0     H82742   7.708   8.894   3.527  4.0296 -2.2125  0.1219
  627MOL0     H82743   7.750   8.875   3.362  0.2066  0.7948  0.2021
  627MOL0     H82744   7.533   8.964   3.353 -2.4280 -0.7960  1.1267
  627MOL0     H82745   7.469   8.838   3.465 -0.7767  0.5975  0.4867
  627MOL0     H82746   8.172   8.452   4.051  0.9237  0.7313  3.2020
  627MOL0     H82747   8.355   8.430   4.219  0.4253  3.8420 -1.0786
  627MOL0     H82748   8.930   8.175   4.292  1.3384 -0.7866  0.9516
  627MOL0     H82749   9.048   8.215   4.523 -0.3828 -1.1088 -2.8722
  627MOL0     H82750  10.569   7.660   5.582 -0.5375  0.8943  0.4391
  627MOL0     H82751  10.752   7.488   5.626  1.3607  0.7446  1.9110
  627MOL0     H82752  10.857   7.113   6.148  0.8323 -1.3704  0.3151
  627MOL0     H82753  11.053   7.033   6.242 -0.9412  2.9168  1.6694
  627MOL0     H82754  11.276   6.924   6.219  0.4404 -0.7923  1.4344
  627MOL0     H82755  11.275   7.079   6.322 -0.2462  1.7056 -1.0828
  627MOL0     H82756  11.463   6.921   6.360  0.3371  0.1332 -1.7332
  627MOL0     H82757  11.537   6.966   6.203  1.8045  1.9353 -0.1987
  627MOL0     H82758  11.482   7.193   6.376  0.9969  1.4818  0.4083
  627MOL0     H82759  11.619   7.162   6.287 -0.1444  0.6978 -0.2269
  627MOL0     H82760  11.541   7.012   6.529  2.5369 -2.1563  1.2558
  627MOL0     H82761  11.695   6.985   6.465 -0.1745  1.1588 -1.2183
  627MOL0     H82762  11.838   7.325   6.622  1.2824 -1.1339 -1.4954
  627MOL0     H82763  11.260   7.230   5.897  2.6148  1.2993  3.2462
  627MOL0     H82764  11.045   7.313   5.826  0.6380  1.4903  1.0398
  628MOL0     O82765   0.959   6.633   5.825 -0.0469 -0.7701 -0.1829
  628MOL0     C82766   1.034   6.626   5.728  0.3531  0.7039 -0.0978
  628MOL0     O82767   1.000   6.639   5.595 -0.3786  0.2336  1.0874
  628MOL0     C82768   0.864   6.678   5.579 -0.2755 -0.5965 -0.0545
  628MOL0     C82769   0.824   6.819   5.566 -0.2311 -0.2622  1.0006
  628MOL0     C82770   0.688   6.852   5.547 -0.1564 -0.2093 -0.9336
  628MOL0     C82771   0.593   6.755   5.527 -0.0034  0.2386  0.0607
  628MOL0     O82772   0.468   6.778   5.491 -0.1321 -0.2076  0.3007
  628MOL0     C82773   0.418   6.906   5.509  0.5630 -1.1409 -0.7241
  628MOL0     C82774   0.267   6.914   5.482  0.0890 -0.6956  0.2683
  628MOL0     C82775   0.210   7.063   5.505  0.0339 -0.0922  0.0352
  628MOL0     C82776   0.071   7.076   5.429  0.1140  0.4000 -0.8708
  628MOL0     C82777   0.010   7.213   5.472 -0.2255  0.9051 -0.0617
  628MOL0     C82778  -0.108   7.261   5.396  0.2685 -0.2215  0.9166
  628MOL0     C82779  -0.225   7.156   5.398  0.2269 -0.2237  0.0452
  628MOL0     C82780  -0.295   7.182   5.538  0.2515 -0.0961  0.3640
  628MOL0     N82781  -0.415   7.094   5.565 -0.5804  0.4770 -0.9438
  628MOL0     C82782  -0.519   7.124   5.656 -1.2886  0.5517 -0.7834
  628MOL0     C82783  -0.591   7.004   5.667  0.6745  0.3763 -0.3017
  628MOL0     C82784  -0.711   6.978   5.758 -0.8312  0.1704  0.4021
  628MOL0     C82785  -0.839   6.982   5.677 -0.5092 -0.3842  0.8156
  628MOL0     C82786  -0.955   6.930   5.762 -1.0938 -0.0794 -0.5825
  628MOL0     C82787  -1.081   7.003   5.726 -0.4319  0.5367 -0.2929
  628MOL0     O82788  -1.188   6.947   5.807 -0.2979  0.0657 -0.5116
  628MOL0     C82789  -1.313   6.998   5.779  0.3036  0.1837 -0.9405
  628MOL0     C82790  -1.348   7.094   5.680  0.1141  0.4428  0.1135
  628MOL0     C82791  -1.481   7.134   5.666  0.2013 -0.0054  0.2377
  628MOL0     C82792  -1.585   7.080   5.746 -1.2605 -0.5384 -0.1800
  628MOL0     C82793  -1.721   7.140   5.741 -0.0264  0.2843  0.0923
  628MOL0     O82794  -1.734   7.244   5.643 -0.4926 -0.2314 -1.2056
  628MOL0     C82795  -1.857   7.282   5.610  0.1392  0.5897  0.3965
  628MOL0     C82796  -1.913   7.234   5.488  0.0657  0.0740 -0.4351
  628MOL0     C82797  -2.051   7.266   5.462 -1.3437  0.1910  0.3644
  628MOL0     C82798  -2.117   7.366   5.526  0.0025 -0.0121  0.0073
  628MOL0     O82799  -2.233   7.424   5.485  0.1939 -0.0838  0.1525
  628MOL0     C82800  -2.214   7.498   5.364 -0.2676 -0.1265  0.4216
  628MOL0     C82801  -2.340   7.568   5.333  0.5603  1.1019  0.5773
  628MOL0     C82802  -2.440   7.468   5.288 -0.3479  0.2946  0.8168
  628MOL0     C82803  -2.572   7.528   5.238 -0.2334  0.1290 -0.2235
  628MOL0     C82804  -2.677   7.436   5.173  0.3076  0.0309  0.2285
  628MOL0     C82805  -2.793   7.518   5.134 -0.1971 -0.4614  0.4942
  628MOL0     C82806  -2.871   7.438   5.033 -0.5934 -0.2776  0.5525
  628MOL0     C82807  -2.911   7.298   5.087 -0.0781 -0.0349  0.0465
  628MOL0    Cl82808  -3.008   7.231   4.953 -0.0617 -0.3583  0.1323
  628MOL0     C82809  -2.056   7.417   5.638 -0.4162 -0.7311 -0.6992
  628MOL0     C82810  -1.927   7.377   5.681  0.0083  0.3019  0.1983
  628MOL0     O82811  -1.802   7.112   5.829 -0.3185  0.6283 -0.1871
  628MOL0     C82812  -1.556   6.983   5.836 -0.2041 -0.7336  0.0764
  628MOL0     C82813  -1.418   6.948   5.855  0.6964  0.6445  0.2027
  628MOL0     N82814  -0.536   6.906   5.588 -0.1462 -0.2221 -0.1303
  628MOL0     N82815  -0.433   6.961   5.530 -0.1714  0.0625 -0.1732
  628MOL0     C82816   0.637   6.617   5.523  0.2776  0.1520  0.2298
  628MOL0     C82817   0.768   6.581   5.552 -0.4361  0.0404 -0.6048
  628MOL0     C82818   1.181   6.598   5.753 -0.8627 -0.6966  0.2692
  628MOL0     C82819   1.223   6.549   5.880  0.4172  0.1704 -0.5118
  628MOL0     C82820   1.359   6.541   5.899 -0.2728  0.4986 -0.0157
  628MOL0     C82821   1.456   6.579   5.801  1.2487 -0.1208 -0.8919
  628MOL0     O82822   1.580   6.576   5.853  0.2114  0.2094  0.1255
  628MOL0     C82823   1.679   6.506   5.780 -0.0831 -0.1272 -0.3286
  628MOL0     C82824   1.815   6.544   5.838  0.3613  0.5575 -1.3492
  628MOL0     C82825   1.878   6.668   5.780 -0.1208  0.4066 -0.3903
  628MOL0     C82826   2.034   6.666   5.786 -0.4694 -0.7765  0.6274
  628MOL0     C82827   2.090   6.798   5.737 -0.5574  0.6077 -0.1366
  628MOL0     C82828   2.141   6.902   5.702 -0.8645 -0.1500 -0.4679
  628MOL0     C82829   1.424   6.633   5.680  0.2517  0.1422 -0.6340
  628MOL0     C82830   1.281   6.642   5.662  0.0177  0.0843 -0.3577
  628MOL0     H82831   0.899   6.897   5.577  0.2728 -0.6547  0.4238
  628MOL0     H82832   0.664   6.958   5.552 -0.5426 -0.3327  0.0500
  628MOL0     H82833   0.462   6.977   5.439  1.5159 -1.0580 -0.0636
  628MOL0     H82834   0.430   6.950   5.608 -4.5363 -2.9846  1.0850
  628MOL0     H82835   0.208   6.849   5.548  1.3707 -1.7260  0.4208
  628MOL0     H82836   0.255   6.884   5.378  0.3258 -2.7877  0.8007
  628MOL0     H82837   0.276   7.146   5.477 -3.7898  3.1561 -0.3233
  628MOL0     H82838   0.186   7.093   5.608 -0.9073  1.2131 -0.5386
  628MOL0     H82839   0.086   7.078   5.321  1.6964 -0.1569 -0.6836
  628MOL0     H82840  -0.002   6.998   5.452 -1.3373  2.1946  1.0348
  628MOL0     H82841   0.091   7.285   5.452  2.9236 -2.5047 -0.7899
  628MOL0     H82842  -0.017   7.223   5.577  2.2749  3.6283  0.4632
  628MOL0     H82843  -0.079   7.281   5.293 -1.2236  1.2144  0.7239
  628MOL0     H82844  -0.136   7.357   5.441  2.6847  1.0895 -0.1388
  628MOL0     H82845  -0.287   7.183   5.312  2.1112  1.5110 -0.8777
  628MOL0     H82846  -0.195   7.052   5.386 -1.6680 -0.8006 -0.0136
  628MOL0     H82847  -0.334   7.284   5.541 -1.3139 -0.5555 -2.1537
  628MOL0     H82848  -0.218   7.164   5.614 -0.9429 -0.0817  1.6108
  628MOL0     H82849  -0.537   7.216   5.710 -1.8580  0.0576 -0.1152
  628MOL0     H82850  -0.723   7.057   5.832  0.0969  0.2654  0.4604
  628MOL0     H82851  -0.688   6.886   5.812  1.9300  0.8296  0.4851
  628MOL0     H82852  -0.829   6.920   5.588  0.3686 -1.0281  1.3400
  628MOL0     H82853  -0.855   7.084   5.641  2.2838 -0.7968 -2.0349
  628MOL0     H82854  -0.964   6.822   5.747  1.1938 -0.3837 -0.2019
  628MOL0     H82855  -0.930   6.957   5.865  5.4528  0.5832 -1.8784
  628MOL0     H82856  -1.105   6.996   5.619 -3.2483 -0.7345  0.3496
  628MOL0     H82857  -1.076   7.110   5.749  0.3549  0.8953 -1.9250
  628MOL0     H82858  -1.270   7.137   5.619 -1.2356  2.6190 -0.1783
  628MOL0     H82859  -1.505   7.207   5.589 -0.3899  0.0918  0.5034
  628MOL0     H82860  -1.856   7.164   5.428  0.0483  1.1272 -1.7101
  628MOL0     H82861  -2.103   7.221   5.378 -0.3977  0.8423 -0.5890
  628MOL0     H82862  -2.181   7.429   5.286 -1.4026 -2.9635  2.3115
  628MOL0     H82863  -2.135   7.571   5.386 -0.3260  0.4611 -1.2027
  628MOL0     H82864  -2.324   7.641   5.254 -0.9291  1.8238  0.9013
  628MOL0     H82865  -2.390   7.627   5.411 -1.1792 -1.8508  1.8818
  628MOL0     H82866  -2.473   7.408   5.374 -2.2023 -0.6222 -0.4693
  628MOL0     H82867  -2.389   7.404   5.216  1.3506  1.8709  0.5468
  628MOL0     H82868  -2.619   7.569   5.328  0.3284 -0.6932  0.4683
  628MOL0     H82869  -2.537   7.596   5.160 -1.1152  0.9581  0.0885
  628MOL0     H82870  -2.705   7.361   5.248 -0.8895  1.2275  1.0260
  628MOL0     H82871  -2.634   7.386   5.086  0.4029  0.3824  0.0718
  628MOL0     H82872  -2.752   7.608   5.086  0.6274 -1.2595 -0.3523
  628MOL0     H82873  -2.851   7.557   5.218 -0.7674 -0.9129  0.3142
  628MOL0     H82874  -2.958   7.496   5.000 -0.4626 -0.2764  0.2067
  628MOL0     H82875  -2.814   7.422   4.940 -1.3854 -0.8152  0.1443
  628MOL0     H82876  -2.954   7.305   5.188  1.7762  1.0387  0.8081
  628MOL0     H82877  -2.820   7.237   5.096  1.3049  1.8519 -0.5955
  628MOL0     H82878  -2.096   7.498   5.699 -0.9391 -2.4788  1.4197
  628MOL0     H82879  -1.891   7.409   5.779  2.8861 -4.3987  0.9779
  628MOL0     H82880  -1.634   6.951   5.903  0.8273 -1.1707  1.1015
  628MOL0     H82881  -1.383   6.876   5.928  3.2512  0.8311 -0.7186
  628MOL0     H82882   0.566   6.538   5.499 -1.7204  1.8272  0.4103
  628MOL0     H82883   0.791   6.475   5.549 -1.6045 -0.2164 -0.7977
  628MOL0     H82884   1.160   6.523   5.964  1.0355 -1.1575 -0.4302
  628MOL0     H82885   1.398   6.485   5.984  1.4027 -1.2625 -1.8340
  628MOL0     H82886   1.676   6.516   5.671 -1.7293 -3.0164 -0.6585
  628MOL0     H82887   1.661   6.403   5.811 -0.4681  0.0557  0.0631
  628MOL0     H82888   1.804   6.555   5.946 -0.9988  0.0580 -1.4157
  628MOL0     H82889   1.885   6.467   5.804  0.9982  0.0711  0.9476
  628MOL0     H82890   1.844   6.747   5.848 -2.6916 -2.6877  2.2523
  628MOL0     H82891   1.849   6.690   5.677  1.7049  2.0138 -0.6350
  628MOL0     H82892   2.065   6.659   5.891  0.5230  0.8168  0.4680
  628MOL0     H82893   2.095   6.596   5.728  2.1558  3.4939 -2.3555
  628MOL0     H82894   2.188   6.995   5.676  0.9981 -1.3591 -1.6839
  628MOL0     H82895   1.497   6.677   5.614 -0.2867  4.1419  1.1307
  628MOL0     H82896   1.242   6.688   5.571  1.6181  0.3035 -0.9708
  629MOL0     O82897   7.454   0.626   0.421  0.1628 -0.0008 -0.1181
  629MOL0     C82898   7.410   0.550   0.511 -0.7313  0.0007 -0.1042
  629MOL0     O82899   7.280   0.498   0.521 -0.2106 -0.3198  1.0091
  629MOL0     C82900   7.197   0.535   0.417  0.1177 -0.5527 -0.8607
  629MOL0     C82901   7.209   0.477   0.285 -0.9929  0.4998 -0.2056
  629MOL0     C82902   7.120   0.514   0.184 -0.5850  0.0057  0.4784
  629MOL0     C82903   7.027   0.619   0.211  0.4026  0.1609  0.4547
  629MOL0     O82904   6.938   0.668   0.114 -0.1820 -0.6595  0.2085
  629MOL0     C82905   6.929   0.633  -0.024  0.6484  0.0191 -0.5325
  629MOL0     C82906   6.862   0.735  -0.116 -0.0714 -0.1803  0.4884
  629MOL0     C82907   6.918   0.719  -0.260 -0.0097 -0.2315  0.8553
  629MOL0     C82908   6.841   0.787  -0.375 -0.2275  0.0569 -0.9028
  629MOL0     C82909   6.918   0.789  -0.501 -0.3206 -0.2965 -0.2919
  629MOL0     C82910   6.909   0.661  -0.588  0.4059 -0.5001  0.0128
  629MOL0     C82911   7.003   0.670  -0.711 -0.0686  0.0777 -0.4017
  629MOL0     C82912   6.987   0.548  -0.804  0.2078  0.4916  0.0929
  629MOL0     N82913   6.914   0.567  -0.929 -0.0916 -0.2456 -0.2328
  629MOL0     C82914   6.936   0.666  -1.026  0.0275  0.1776  0.2368
  629MOL0     C82915   6.843   0.644  -1.121 -0.5138  0.1662 -0.0812
  629MOL0     C82916   6.820   0.741  -1.240  0.0419  0.4387 -0.1098
  629MOL0     C82917   6.673   0.763  -1.274 -0.3322 -0.0666 -0.5139
  629MOL0     C82918   6.654   0.871  -1.382  0.5127  0.3533  0.3447
  629MOL0     C82919   6.515   0.863  -1.441  0.8955 -1.0197 -0.1113
  629MOL0     O82920   6.424   0.940  -1.353 -0.3655  1.0112  0.1717
  629MOL0     C82921   6.290   0.919  -1.363  0.4212 -0.8158 -0.9543
  629MOL0     C82922   6.224   0.959  -1.248 -0.5243  0.5923  0.5078
  629MOL0     C82923   6.087   0.953  -1.249 -0.0656  0.1144  0.1198
  629MOL0     C82924   6.017   0.887  -1.352  0.2786 -0.6157 -0.5791
  629MOL0     C82925   5.873   0.875  -1.335 -0.0374  0.2227  0.4025
  629MOL0     O82926   5.825   0.870  -1.213  0.3159 -0.9532  0.3501
  629MOL0     C82927   5.690   0.844  -1.192 -0.1456 -0.0076 -0.0381
  629MOL0     C82928   5.633   0.721  -1.229  0.5043 -0.0466  0.6628
  629MOL0     C82929   5.504   0.685  -1.196  0.9947 -0.1997 -0.2391
  629MOL0     C82930   5.424   0.786  -1.128 -0.1753  0.8854  0.7357
  629MOL0     O82931   5.287   0.784  -1.101 -0.6676 -0.7231 -0.1714
  629MOL0     C82932   5.212   0.685  -1.164 -0.1924  0.1116  0.2923
  629MOL0     C82933   5.077   0.664  -1.095  0.0167 -0.6351 -0.8935
  629MOL0     C82934   4.992   0.780  -1.106 -0.2219 -0.3996  0.2216
  629MOL0     C82935   4.857   0.753  -1.041  0.6193  0.3667  0.6906
  629MOL0     C82936   4.757   0.871  -1.059 -0.1891 -0.0159  0.4609
  629MOL0     C82937   4.634   0.851  -0.975  0.6428  0.0442  0.0962
  629MOL0     C82938   4.535   0.964  -0.991 -1.0689  0.0349  0.4974
  629MOL0     C82939   4.406   0.929  -0.908  0.6399 -0.4594  0.1252
  629MOL0    Cl82940   4.302   0.797  -0.977 -0.1424  0.2980  0.2658
  629MOL0     C82941   5.480   0.910  -1.085  0.1745  0.0124 -0.5954
  629MOL0     C82942   5.620   0.936  -1.118 -0.1892  0.0080 -0.0837
  629MOL0     O82943   5.809   0.856  -1.439 -0.9444 -0.0245  0.4879
  629MOL0     C82944   6.090   0.862  -1.468 -0.2604  0.0297  0.2415
  629MOL0     C82945   6.229   0.870  -1.477 -0.2641 -0.1189  0.4922
  629MOL0     N82946   6.761   0.541  -1.080  0.5752  0.7611 -0.1841
  629MOL0     N82947   6.809   0.494  -0.972  0.3687  0.2865  0.0155
  629MOL0     C82948   7.017   0.674   0.335 -0.5853 -0.4809  0.1217
  629MOL0     C82949   7.101   0.631   0.439 -0.3965 -0.4406 -0.6444
  629MOL0     C82950   7.493   0.501   0.618  0.1365 -0.3446  0.1637
  629MOL0     C82951   7.440   0.419   0.721  0.4032  0.5101  0.2130
  629MOL0     C82952   7.525   0.353   0.806  0.5052  0.0771 -1.0242
  629MOL0     C82953   7.663   0.378   0.796  0.2161 -0.0208 -0.0263
  629MOL0     O82954   7.753   0.303   0.867 -0.5581  0.1991 -0.5557
  629MOL0     C82955   7.723   0.285   1.004  0.2177  0.1597 -0.9620
  629MOL0     C82956   7.848   0.228   1.080 -1.0831  0.1911 -0.2647
  629MOL0     C82957   7.966   0.325   1.094 -0.2158  0.0422 -0.2211
  629MOL0     C82958   8.062   0.287   1.202 -0.2769 -0.1684  0.0033
  629MOL0     C82959   8.170   0.197   1.155  0.6317  0.3753  1.1219
  629MOL0     C82960   8.252   0.118   1.110 -0.2017 -0.5360  0.1220
  629MOL0     C82961   7.711   0.454   0.693  0.0126  0.4113 -0.5071
  629MOL0     C82962   7.629   0.520   0.605 -0.0587 -0.1923  0.2924
  629MOL0     H82963   7.274   0.392   0.263 -4.1747 -2.1089 -0.4550
  629MOL0     H82964   7.142   0.457   0.095 -2.7097 -0.2707  0.0714
  629MOL0     H82965   6.873   0.540  -0.036  1.2745 -0.3081 -0.9293
  629MOL0     H82966   7.032   0.617  -0.054  0.9681  4.3158 -2.5177
  629MOL0     H82967   6.889   0.833  -0.077  0.5955 -0.3872  0.5667
  629MOL0     H82968   6.754   0.718  -0.116 -0.1037  0.0278  0.6398
  629MOL0     H82969   6.925   0.612  -0.280  0.0482 -0.2498  0.9773
  629MOL0     H82970   7.011   0.776  -0.253 -0.5837  0.7177  0.9609
  629MOL0     H82971   6.747   0.736  -0.397 -0.3915  0.3006 -0.7626
  629MOL0     H82972   6.827   0.892  -0.352  2.0497  0.6090 -1.7513
  629MOL0     H82973   7.018   0.815  -0.467 -0.5342  0.2897 -0.1096
  629MOL0     H82974   6.884   0.875  -0.560 -1.5494  0.1131  0.9784
  629MOL0     H82975   6.808   0.631  -0.618  1.0203  0.4917 -3.4782
  629MOL0     H82976   6.952   0.585  -0.522  1.1310 -0.4580 -0.4076
  629MOL0     H82977   6.995   0.763  -0.767 -0.5388  2.6590  3.5755
  629MOL0     H82978   7.108   0.677  -0.680  0.0003  2.0429 -0.9631
  629MOL0     H82979   6.951   0.465  -0.742  1.1259  0.3446  0.4499
  629MOL0     H82980   7.085   0.507  -0.826  0.2656  1.1865 -1.0502
  629MOL0     H82981   7.007   0.749  -1.031 -2.2224  2.1542 -1.3745
  629MOL0     H82982   6.873   0.706  -1.328  1.1482 -0.6968  0.9753
  629MOL0     H82983   6.852   0.839  -1.203 -2.0037  0.6941  1.1505
  629MOL0     H82984   6.619   0.789  -1.182 -0.0669 -2.8510  0.5125
  629MOL0     H82985   6.629   0.670  -1.312 -1.5024  0.2649 -0.0412
  629MOL0     H82986   6.666   0.972  -1.341 -3.5516  0.4937  1.6503
  629MOL0     H82987   6.716   0.846  -1.468 -1.5025 -0.3150 -0.9774
  629MOL0     H82988   6.491   0.758  -1.458  1.1563 -0.8275 -1.8766
  629MOL0     H82989   6.520   0.897  -1.545  0.4110 -1.8655 -0.4150
  629MOL0     H82990   6.282   1.014  -1.175 -0.3747  1.1179  0.0072
  629MOL0     H82991   6.030   0.991  -1.165  1.3325  0.0698  1.1246
  629MOL0     H82992   5.697   0.655  -1.287  0.4309  0.8278 -0.4575
  629MOL0     H82993   5.470   0.586  -1.221  0.0108  0.3987 -1.3824
  629MOL0     H82994   5.269   0.591  -1.175 -1.3272 -0.3625 -2.3924
  629MOL0     H82995   5.199   0.713  -1.269 -1.9609 -0.6353  0.2818
  629MOL0     H82996   5.100   0.636  -0.992 -3.9370  1.8098  0.8793
  629MOL0     H82997   5.022   0.577  -1.133 -2.8267 -0.4228  2.2878
  629MOL0     H82998   4.979   0.805  -1.211  1.1874 -0.8626 -0.0778
  629MOL0     H82999   5.031   0.867  -1.053  0.5718  1.2261 -2.8175
  629MOL0     H83000   4.826   0.660  -1.090  0.9350  0.4346  0.3586
  629MOL0     H83001   4.868   0.731  -0.934 -0.2873 -0.8093  0.5653
  629MOL0     H83002   4.728   0.873  -1.164 -3.3028  0.6803  1.2429
  629MOL0     H83003   4.809   0.958  -1.018  2.3249 -1.2032 -0.0127
  629MOL0     H83004   4.664   0.839  -0.871 -1.2315  1.6288  0.8868
  629MOL0     H83005   4.582   0.757  -0.999  1.0381 -0.1269 -0.0961
  629MOL0     H83006   4.581   1.058  -0.959  0.3765  0.9700 -3.6969
  629MOL0     H83007   4.508   0.970  -1.097 -1.9017 -0.9900  0.6379
  629MOL0     H83008   4.336   1.012  -0.907 -0.1688 -1.1086 -0.9715
  629MOL0     H83009   4.443   0.905  -0.808  0.3846  1.7610  0.7957
  629MOL0     H83010   5.415   0.977  -1.030  1.1624  1.4826 -1.1436
  629MOL0     H83011   5.670   1.031  -1.098  2.0647 -1.1668  0.1149
  629MOL0     H83012   6.033   0.837  -1.557 -1.4467  0.5534  0.8423
  629MOL0     H83013   6.277   0.858  -1.574 -1.7816  0.7435 -0.4146
  629MOL0     H83014   6.941   0.746   0.361  1.7036  1.9788  0.4245
  629MOL0     H83015   7.092   0.669   0.540  2.4049 -0.3005 -0.3691
  629MOL0     H83016   7.336   0.398   0.741  0.7216  0.7693  2.2836
  629MOL0     H83017   7.493   0.277   0.876  1.6821 -1.3863 -2.0203
  629MOL0     H83018   7.653   0.207   1.035  2.0790 -0.1894  3.0169
  629MOL0     H83019   7.695   0.382   1.045  1.2922 -0.4546  1.3896
  629MOL0     H83020   7.812   0.194   1.178  0.9911 -1.5056 -0.0237
  629MOL0     H83021   7.886   0.137   1.035 -1.0207  0.2871 -0.4063
  629MOL0     H83022   7.913   0.417   1.120 -3.0922 -1.2879 -0.9207
  629MOL0     H83023   8.017   0.330   0.997  0.3933 -3.0246 -0.1545
  629MOL0     H83024   8.117   0.371   1.246  0.4522 -1.6023  2.0239
  629MOL0     H83025   8.003   0.240   1.282 -1.2762  0.5175 -0.3168
  629MOL0     H83026   8.319   0.043   1.075 -0.4393 -0.3081 -0.8443
  629MOL0     H83027   7.819   0.449   0.681  0.1870  0.5030  0.8936
  629MOL0     H83028   7.671   0.578   0.524  0.5241  0.7839  1.2705
  630MOL0     O83029   6.033   9.859  10.714 -0.5139  0.4135 -0.3313
  630MOL0     C83030   6.010   9.976  10.693  0.3022 -0.9890  0.3845
  630MOL0     O83031   6.078  10.086  10.726 -0.2072 -0.3804  0.0333
  630MOL0     C83032   6.200  10.093  10.783  0.7612  0.4972  0.0637
  630MOL0     C83033   6.267   9.986  10.848 -0.3564 -0.0976  0.1111
  630MOL0     C83034   6.389  10.014  10.921  0.4961  0.8326  0.3358
  630MOL0     C83035   6.458  10.134  10.907  0.2658  0.1661 -0.3494
  630MOL0     O83036   6.579  10.144  10.982 -1.1060  0.1275 -0.0502
  630MOL0     C83037   6.631  10.274  10.961  0.2021  0.3142  0.2674
  630MOL0     C83038   6.767  10.308  11.028  0.1938  0.1693  0.1201
  630MOL0     C83039   6.864  10.195  11.010  0.4315  0.1098  0.2997
  630MOL0     C83040   7.003  10.223  11.046  0.0003 -0.3678  0.3288
  630MOL0     C83041   7.014  10.240  11.198 -0.0471  0.3678 -0.2326
  630MOL0     C83042   7.164  10.271  11.238  0.8371  0.7528 -0.0919
  630MOL0     C83043   7.163  10.315  11.386  0.5940 -0.2400 -0.1615
  630MOL0     C83044   7.268  10.417  11.416 -0.1180  0.3354 -0.2369
  630MOL0     N83045   7.399  10.356  11.451  0.3293 -0.4164  0.5165
  630MOL0     C83046   7.465  10.260  11.385 -0.2474  0.0311 -0.7949
  630MOL0     C83047   7.593  10.255  11.431  0.0445 -0.0063 -0.1802
  630MOL0     C83048   7.698  10.158  11.378 -0.3981  0.3152 -0.3440
  630MOL0     C83049   7.796  10.128  11.485 -0.0401 -0.6718 -0.2104
  630MOL0     C83050   7.903  10.035  11.443 -0.1695  0.2694 -0.7713
  630MOL0     C83051   7.867   9.889  11.448 -0.3139 -0.2408  0.1928
  630MOL0     O83052   7.962   9.814  11.372  0.3681 -0.4990  0.0397
  630MOL0     C83053   8.087   9.781  11.432  0.0194 -0.5600  0.9392
  630MOL0     C83054   8.126   9.828  11.559  0.4672  0.2766  0.4273
  630MOL0     C83055   8.251   9.789  11.614 -0.2450  0.2730  0.2278
  630MOL0     C83056   8.334   9.695  11.556 -0.0653  0.6063  0.1082
  630MOL0     C83057   8.470   9.658  11.607  0.0690 -0.4976  0.2888
  630MOL0     O83058   8.532   9.557  11.529  0.2483  0.2189  0.1114
  630MOL0     C83059   8.663   9.533  11.556  0.0952  0.0036  0.4324
  630MOL0     C83060   8.693   9.443  11.661  0.0200 -0.4012 -0.6897
  630MOL0     C83061   8.833   9.414  11.687 -0.0097 -0.2803 -0.6104
  630MOL0     C83062   8.929   9.487  11.614  0.4253  0.3593 -0.2851
  630MOL0     O83063   9.065   9.502  11.651  0.1974  0.3884 -0.1470
  630MOL0     C83064   9.123   9.444  11.769 -0.4141  0.2446 -0.7862
  630MOL0     C83065   9.272   9.446  11.763 -0.5407 -0.6066 -0.0185
  630MOL0     C83066   9.331   9.407  11.905 -0.7898 -0.7697 -0.3981
  630MOL0     C83067   9.487   9.418  11.880  0.1334  0.7466 -0.7539
  630MOL0     C83068   9.558   9.359  11.999 -0.2913 -0.3166 -0.1983
  630MOL0     C83069   9.714   9.373  11.991 -0.3983 -0.5336  0.5221
  630MOL0     C83070   9.775   9.242  11.939 -0.4926 -0.6101  0.3871
  630MOL0     C83071   9.926   9.236  11.954  0.2634 -1.0297  0.1902
  630MOL0    Cl83072  10.006   9.080  11.907  0.1711  0.3587  0.1572
  630MOL0     C83073   8.898   9.571  11.510  0.2986 -0.3418 -0.4908
  630MOL0     C83074   8.758   9.590  11.479 -0.8640 -0.1126 -0.1644
  630MOL0     O83075   8.506   9.698  11.716  0.4009  0.3275 -0.1222
  630MOL0     C83076   8.303   9.674  11.421 -0.0793  0.5011  0.3553
  630MOL0     C83077   8.176   9.708  11.365  0.3495  0.4402 -0.1623
  630MOL0     N83078   7.610  10.351  11.527  0.5013 -0.3859  0.9653
  630MOL0     N83079   7.497  10.412  11.531 -0.2503 -0.4029 -0.7268
  630MOL0     C83080   6.390  10.237  10.834 -0.6121  0.3619  1.0839
  630MOL0     C83081   6.261  10.212  10.776 -0.4510 -0.2941  0.3657
  630MOL0     C83082   5.873  10.012  10.654  0.3585 -0.3150 -0.0633
  630MOL0     C83083   5.852  10.131  10.590  0.6940  0.3095  0.0061
  630MOL0     C83084   5.714  10.160  10.551  0.5320  0.1918  0.0892
  630MOL0     C83085   5.602  10.092  10.598  0.3055 -0.0934 -0.1096
  630MOL0     O83086   5.487  10.149  10.561  0.3529 -0.6395 -0.6209
  630MOL0     C83087   5.362  10.087  10.599  1.0404 -0.2287  0.4926
  630MOL0     C83088   5.261  10.192  10.656 -0.4277 -0.7126 -0.2417
  630MOL0     C83089   5.310  10.279  10.767 -1.1004  0.9995 -0.6580
  630MOL0     C83090   5.344  10.197  10.896 -0.7615 -0.0471 -0.1467
  630MOL0     C83091   5.225  10.140  10.956  0.1661 -0.1168  0.3895
  630MOL0     C83092   5.125  10.095  11.010  0.2090 -0.2222 -0.2600
  630MOL0     C83093   5.626   9.966  10.659  0.6487  0.4432  0.0577
  630MOL0     C83094   5.762   9.929  10.684 -0.0337  0.0578 -0.6318
  630MOL0     H83095   6.235   9.885  10.872  0.0612  0.3039  2.6049
  630MOL0     H83096   6.421   9.933  10.985 -2.0443  0.6779  1.5466
  630MOL0     H83097   6.555  10.348  10.991 -1.3931  1.2025 -4.9431
  630MOL0     H83098   6.648  10.294  10.855 -0.8674  0.9444  0.1946
  630MOL0     H83099   6.754  10.336  11.134  1.2033  1.4371 -0.0652
  630MOL0     H83100   6.812  10.392  10.974  0.1164 -0.0459 -0.2741
  630MOL0     H83101   6.873  10.166  10.905  0.5069  1.4421 -0.0885
  630MOL0     H83102   6.831  10.111  11.072  1.2686  0.4593  1.2408
  630MOL0     H83103   7.067  10.143  11.008 -2.7818 -2.7578  0.2854
  630MOL0     H83104   7.029  10.323  11.010 -1.3014  0.3032  1.1598
  630MOL0     H83105   6.983  10.148  11.248 -1.5789  1.1500  0.3135
  630MOL0     H83106   6.945  10.314  11.240 -1.2278 -0.9740  0.2821
  630MOL0     H83107   7.181  10.352  11.166  1.2340  1.3971  0.7008
  630MOL0     H83108   7.238  10.194  11.215 -2.7462 -3.7943  1.9630
  630MOL0     H83109   7.067  10.348  11.428 -1.0680 -2.5230 -1.8891
  630MOL0     H83110   7.182  10.225  11.446 -0.3733 -0.9969 -0.9539
  630MOL0     H83111   7.238  10.472  11.506 -0.2177 -1.4505  0.8741
  630MOL0     H83112   7.285  10.487  11.334 -0.5313  0.2806 -0.3715
  630MOL0     H83113   7.441  10.209  11.293  1.1437  0.3835 -1.3640
  630MOL0     H83114   7.745  10.195  11.286 -0.8445  0.0630 -0.6751
  630MOL0     H83115   7.641  10.068  11.356 -1.0239  0.8215 -0.8430
  630MOL0     H83116   7.742  10.093  11.574 -0.2354  2.6215  1.1036
  630MOL0     H83117   7.850  10.221  11.503 -0.8961  0.5601 -3.3047
  630MOL0     H83118   7.920  10.049  11.336 -1.0651 -2.5501 -1.3679
  630MOL0     H83119   7.995  10.056  11.498 -0.5182 -0.0122 -0.0739
  630MOL0     H83120   7.776   9.871  11.391  0.9616 -0.6855 -1.7862
  630MOL0     H83121   7.843   9.861  11.552 -2.5170  2.6710  0.5759
  630MOL0     H83122   8.067   9.891  11.625 -0.6063 -1.1006  0.8198
  630MOL0     H83123   8.281   9.819  11.714  0.0177 -2.3618  1.0117
  630MOL0     H83124   8.612   9.390  11.710  1.1424 -0.3694  1.3044
  630MOL0     H83125   8.871   9.344  11.761  1.8839 -1.8049 -2.8586
  630MOL0     H83126   9.091   9.340  11.782 -1.1624  0.6693  1.1080
  630MOL0     H83127   9.092   9.491  11.863 -0.6158 -1.4770  0.0405
  630MOL0     H83128   9.301   9.548  11.737 -1.7961  0.7200  3.2117
  630MOL0     H83129   9.291   9.373  11.684 -1.2660  0.8289 -1.5602
  630MOL0     H83130   9.298   9.307  11.936 -1.7827 -0.5979 -0.8751
  630MOL0     H83131   9.300   9.486  11.974 -0.5840 -0.5292 -0.5798
  630MOL0     H83132   9.519   9.355  11.797  0.8966 -0.0462  0.1114
  630MOL0     H83133   9.514   9.521  11.858  1.0648  0.6415 -0.1568
  630MOL0     H83134   9.527   9.257  12.021 -2.7698  0.6722  1.3422
  630MOL0     H83135   9.519   9.412  12.087 -1.7304  1.2182 -1.6687
  630MOL0     H83136   9.759   9.395  12.088  2.7190 -0.3239 -0.8593
  630MOL0     H83137   9.751   9.451  11.923  1.8885 -1.5336  0.5255
  630MOL0     H83138   9.727   9.160  11.993 -2.4204  0.4919  0.4467
  630MOL0     H83139   9.743   9.225  11.836  0.7268 -0.6026 -0.0093
  630MOL0     H83140   9.945   9.267  12.057 -0.6749  1.1319 -0.2219
  630MOL0     H83141   9.965   9.319  11.894  0.7733 -2.0495 -0.9378
  630MOL0     H83142   8.975   9.619  11.452  0.6896  2.4710  2.1126
  630MOL0     H83143   8.734   9.660  11.400  1.2544  1.1863  0.2501
  630MOL0     H83144   8.380   9.627  11.360  0.1335  0.3646  0.7218
  630MOL0     H83145   8.149   9.656  11.273  1.1178 -1.4658  0.6270
  630MOL0     H83146   6.420  10.341  10.825 -0.8751  0.4416  1.1147
  630MOL0     H83147   6.214  10.292  10.720 -1.5261 -2.0923 -1.4628
  630MOL0     H83148   5.932  10.203  10.574  0.2899  0.4942 -1.2813
  630MOL0     H83149   5.693  10.252  10.498 -0.9488 -0.8693 -1.2271
  630MOL0     H83150   5.371  10.005  10.671  0.2125  0.6463  1.6215
  630MOL0     H83151   5.310  10.053  10.509 -0.2838  1.3150  0.6328
  630MOL0     H83152   5.251  10.262  10.572  1.1650  0.1914  0.2675
  630MOL0     H83153   5.158  10.158  10.673 -0.9636  0.2139 -1.4032
  630MOL0     H83154   5.236  10.355  10.795 -2.2526 -0.8179  1.5862
  630MOL0     H83155   5.402  10.330  10.737  0.5048 -1.3435  0.0351
  630MOL0     H83156   5.417  10.118  10.878  1.7101  2.4415 -1.8289
  630MOL0     H83157   5.377  10.262  10.978 -4.0313 -1.3483  2.4152
  630MOL0     H83158   5.044  10.047  11.062 -1.1207  0.9274 -1.2085
  630MOL0     H83159   5.541   9.901  10.681 -0.5178  2.1434  0.7892
  630MOL0     H83160   5.784   9.834  10.732  0.2755 -0.3057 -1.4685
  631MOL0     O83161   4.096   2.263   0.501 -0.3688 -0.5956 -0.0559
  631MOL0     C83162   4.187   2.202   0.449  0.0026 -0.2622 -0.6908
  631MOL0     O83163   4.165   2.103   0.359  0.0206  0.0958 -0.0593
  631MOL0     C83164   4.040   2.044   0.356 -0.3956 -0.7086  0.0673
  631MOL0     C83165   4.043   1.912   0.371  0.6081  0.9808 -0.4065
  631MOL0     C83166   3.919   1.835   0.365  0.1129 -0.1750  0.8280
  631MOL0     C83167   3.800   1.908   0.351  0.1342 -0.2145  0.7547
  631MOL0     O83168   3.689   1.828   0.342  0.6547 -0.6972 -0.5943
  631MOL0     C83169   3.559   1.885   0.345 -0.4842  0.3533 -0.5454
  631MOL0     C83170   3.455   1.780   0.312 -0.1494  0.8074 -0.8784
  631MOL0     C83171   3.323   1.868   0.312 -0.0820  0.7363  0.0581
  631MOL0     C83172   3.200   1.784   0.273  0.3096  1.1697 -0.5874
  631MOL0     C83173   3.141   1.689   0.386 -0.4748 -1.1582  0.1063
  631MOL0     C83174   3.059   1.755   0.492  0.6169 -0.2164  0.0712
  631MOL0     C83175   2.996   1.660   0.587 -0.5854 -0.3256  0.2678
  631MOL0     C83176   2.912   1.550   0.525  0.5903 -0.8028 -0.1183
  631MOL0     N83177   2.795   1.591   0.443  0.0270  0.0124  0.1598
  631MOL0     C83178   2.695   1.665   0.482  0.0781 -0.5655 -0.3919
  631MOL0     C83179   2.613   1.669   0.373  0.7267 -0.2003 -0.1593
  631MOL0     C83180   2.476   1.731   0.389  0.1525  0.0946  0.4091
  631MOL0     C83181   2.377   1.615   0.421 -1.1597  0.1512 -0.6498
  631MOL0     C83182   2.392   1.568   0.566 -0.1182 -0.3519  0.2635
  631MOL0     C83183   2.262   1.546   0.633 -0.1095 -0.6507  0.6452
  631MOL0     O83184   2.206   1.430   0.574  0.3007  0.7208 -0.3916
  631MOL0     C83185   2.068   1.430   0.586 -0.4339 -0.0725 -0.6287
  631MOL0     C83186   1.999   1.471   0.699 -0.7463 -0.0272 -0.0370
  631MOL0     C83187   1.862   1.451   0.715 -0.1462 -0.0003  0.3248
  631MOL0     C83188   1.793   1.394   0.605 -0.6234  0.0218 -0.7108
  631MOL0     C83189   1.646   1.368   0.618 -0.5739  0.0642 -0.1530
  631MOL0     O83190   1.586   1.328   0.503  0.4447  0.1939 -0.2172
  631MOL0     C83191   1.453   1.296   0.516 -0.6513 -0.2915  0.2008
  631MOL0     C83192   1.361   1.349   0.435  0.8594  0.4235 -0.1471
  631MOL0     C83193   1.234   1.290   0.424 -0.2312 -0.1715  0.7322
  631MOL0     C83194   1.192   1.182   0.499  0.5376  0.4432 -0.4857
  631MOL0     O83195   1.068   1.120   0.470  0.4083  0.0839  0.3887
  631MOL0     C83196   1.004   1.045   0.576  1.1402 -0.3404 -0.1988
  631MOL0     C83197   0.871   0.986   0.513  0.7508  0.6017  0.0091
  631MOL0     C83198   0.755   1.087   0.515  0.2092  0.1159 -0.7978
  631MOL0     C83199   0.619   1.044   0.458 -0.8525  0.8610 -0.4698
  631MOL0     C83200   0.548   0.951   0.557 -0.1592 -0.4387  0.1167
  631MOL0     C83201   0.407   0.924   0.507 -0.5230 -0.5919 -0.2047
  631MOL0     C83202   0.326   0.856   0.612 -0.1269  0.0427 -0.9895
  631MOL0     C83203   0.371   0.721   0.656  0.3426  0.2240 -0.3368
  631MOL0    Cl83204   0.250   0.637   0.763  0.2204 -0.2200  0.2119
  631MOL0     C83205   1.279   1.140   0.600 -0.4743  0.0496  0.2230
  631MOL0     C83206   1.412   1.192   0.599  0.3980 -0.6061 -0.0412
  631MOL0     O83207   1.594   1.383   0.728 -0.2959 -0.4212  0.0544
  631MOL0     C83208   1.864   1.352   0.494 -0.4456  0.8870  0.4346
  631MOL0     C83209   1.999   1.372   0.487  1.1970  0.2000 -0.3155
  631MOL0     N83210   2.660   1.594   0.275  0.0035  0.5907  0.5440
  631MOL0     N83211   2.777   1.558   0.307 -0.0548  0.2634  0.0341
  631MOL0     C83212   3.798   2.053   0.327  0.1087  0.3304 -0.6246
  631MOL0     C83213   3.924   2.114   0.334  0.2671 -0.4478 -0.0274
  631MOL0     C83214   4.321   2.236   0.499  0.4971  0.6309 -0.6211
  631MOL0     C83215   4.343   2.337   0.593  0.1074  0.1919  0.3567
  631MOL0     C83216   4.472   2.358   0.649  0.0051  0.3266 -0.0413
  631MOL0     C83217   4.573   2.272   0.631  0.2853  0.9503 -0.8060
  631MOL0     O83218   4.686   2.257   0.697  0.0054  0.5587 -0.4946
  631MOL0     C83219   4.701   2.343   0.812 -0.2421  0.9156  0.4698
  631MOL0     C83220   4.817   2.298   0.899 -0.4305 -0.1705  0.3293
  631MOL0     C83221   4.835   2.371   1.031  0.5177 -0.5287 -0.3930
  631MOL0     C83222   4.935   2.294   1.115  0.3555 -0.2880 -0.9797
  631MOL0     C83223   5.071   2.267   1.067  0.2813 -0.5449  0.0959
  631MOL0     C83224   5.179   2.239   1.019 -1.0795  0.7878 -0.6712
  631MOL0     C83225   4.554   2.182   0.535 -0.1355  0.4341 -0.4487
  631MOL0     C83226   4.434   2.164   0.468 -0.3451  0.4942  0.3243
  631MOL0     H83227   4.140   1.863   0.380  1.0262  2.0001  1.0690
  631MOL0     H83228   3.913   1.727   0.358  0.8936 -0.1942  0.3040
  631MOL0     H83229   3.560   1.951   0.258 -0.5157 -2.9573 -3.2630
  631MOL0     H83230   3.545   1.927   0.445  0.5560 -1.3215  0.3512
  631MOL0     H83231   3.452   1.702   0.389  2.7472  1.5718  0.1426
  631MOL0     H83232   3.479   1.746   0.211  0.0976  0.3689 -0.6745
  631MOL0     H83233   3.326   1.943   0.233 -0.7149  0.2856 -0.4017
  631MOL0     H83234   3.310   1.928   0.402 -3.5515  1.2671 -0.6363
  631MOL0     H83235   3.121   1.857   0.248  0.8130  2.2663  0.8641
  631MOL0     H83236   3.221   1.721   0.186 -2.0186 -1.8860  0.8612
  631MOL0     H83237   3.222   1.623   0.419  3.1603  0.7780 -4.0572
  631MOL0     H83238   3.073   1.631   0.323 -0.6964  1.1709 -1.9389
  631MOL0     H83239   2.988   1.822   0.443  2.7963  1.9302 -0.3583
  631MOL0     H83240   3.121   1.822   0.552 -2.4126  0.2047  3.0264
  631MOL0     H83241   3.075   1.615   0.649  1.0162  3.6219  1.3882
  631MOL0     H83242   2.933   1.710   0.661  0.7111 -0.4186  1.4852
  631MOL0     H83243   2.868   1.504   0.614  0.8631  0.1935  0.5592
  631MOL0     H83244   2.968   1.473   0.472  0.5109  0.2729 -1.8484
  631MOL0     H83245   2.663   1.686   0.583 -2.2768 -2.4611 -0.6452
  631MOL0     H83246   2.447   1.780   0.295 -1.1530  1.1619  1.3316
  631MOL0     H83247   2.488   1.802   0.471  3.3534 -0.7163  0.7697
  631MOL0     H83248   2.401   1.532   0.354 -2.0817 -2.3640  1.9398
  631MOL0     H83249   2.277   1.647   0.389 -1.8127 -2.0514 -0.9772
  631MOL0     H83250   2.441   1.470   0.567  0.6292 -0.0003  2.0787
  631MOL0     H83251   2.448   1.643   0.623  4.4303 -3.3394  0.2278
  631MOL0     H83252   2.207   1.638   0.612  2.7114  0.8719 -0.6347
  631MOL0     H83253   2.278   1.530   0.740 -0.2108  0.3678  0.8252
  631MOL0     H83254   2.047   1.513   0.786  1.6155 -2.9798  0.2433
  631MOL0     H83255   1.810   1.477   0.806 -2.0112  0.6308 -0.8759
  631MOL0     H83256   1.388   1.431   0.368 -0.4138  1.4844  0.5790
  631MOL0     H83257   1.172   1.322   0.340 -0.2296 -1.0435  0.3854
  631MOL0     H83258   0.972   1.109   0.660  2.4510 -0.9887  0.8346
  631MOL0     H83259   1.060   0.963   0.621 -1.2538 -1.7956  0.2880
  631MOL0     H83260   0.843   0.895   0.568  2.4341  0.4594  0.6867
  631MOL0     H83261   0.890   0.960   0.409 -1.6116  1.8436 -0.7991
  631MOL0     H83262   0.786   1.173   0.455 -2.2053  0.1366 -2.1089
  631MOL0     H83263   0.743   1.122   0.617 -0.5241 -0.5597 -0.6431
  631MOL0     H83264   0.553   1.128   0.436  0.4517  1.1501 -3.7782
  631MOL0     H83265   0.640   0.981   0.371  1.5628 -1.3610  1.5736
  631MOL0     H83266   0.535   1.003   0.652 -2.3747  0.4489 -0.5953
  631MOL0     H83267   0.603   0.858   0.573 -0.4599 -0.7195 -0.4328
  631MOL0     H83268   0.412   0.863   0.416 -1.3814 -0.2855 -0.4708
  631MOL0     H83269   0.356   1.019   0.491 -0.2077 -0.0876  1.5554
  631MOL0     H83270   0.317   0.922   0.698  0.2144  1.0229 -1.6935
  631MOL0     H83271   0.225   0.843   0.571 -0.6024  2.1365 -0.5983
  631MOL0     H83272   0.466   0.739   0.708  1.5030 -1.5699 -1.7263
  631MOL0     H83273   0.393   0.662   0.567 -0.3644  1.2080 -1.1924
  631MOL0     H83274   1.248   1.064   0.671 -0.1501 -2.4731 -2.1544
  631MOL0     H83275   1.475   1.160   0.682  1.9174  2.2307  0.0215
  631MOL0     H83276   1.808   1.310   0.410  1.0079 -0.8684  0.2611
  631MOL0     H83277   2.055   1.328   0.405  0.0754 -0.4499 -0.7565
  631MOL0     H83278   3.702   2.103   0.314  0.9204  1.7610 -1.2767
  631MOL0     H83279   3.936   2.222   0.331 -1.2306 -0.1993  1.7065
  631MOL0     H83280   4.269   2.411   0.618  2.5374  3.4498 -1.4184
  631MOL0     H83281   4.484   2.453   0.699 -0.0950  0.3942 -0.1455
  631MOL0     H83282   4.611   2.345   0.875 -0.1622  2.5597  0.5677
  631MOL0     H83283   4.726   2.443   0.776 -4.2918  1.4026 -1.5884
  631MOL0     H83284   4.795   2.191   0.909 -0.1588 -0.1799  0.8563
  631MOL0     H83285   4.909   2.309   0.841 -1.5613  0.6732 -1.4083
  631MOL0     H83286   4.741   2.371   1.086 -0.2463  3.7829 -1.3357
  631MOL0     H83287   4.868   2.475   1.020  3.1793 -1.2335  0.0759
  631MOL0     H83288   4.934   2.327   1.219  1.6415 -3.9015  0.3651
  631MOL0     H83289   4.891   2.194   1.129 -1.2506  0.8664  3.8733
  631MOL0     H83290   5.279   2.229   0.981 -0.1512 -1.0531  1.9010
  631MOL0     H83291   4.635   2.113   0.516 -0.3438 -1.1513  3.3871
  631MOL0     H83292   4.434   2.094   0.385  2.3003 -1.0709  1.4895
  632MOL0     O83293   8.924   9.745   2.596 -0.5921 -0.1684 -0.1046
  632MOL0     C83294   8.923   9.643   2.657 -0.2671 -0.1226 -0.7152
  632MOL0     O83295   8.865   9.531   2.608  0.4230  0.1023  0.1529
  632MOL0     C83296   8.775   9.532   2.500 -0.5825  0.2281 -0.0581
  632MOL0     C83297   8.776   9.419   2.409 -0.4223  0.1690 -0.6947
  632MOL0     C83298   8.682   9.406   2.306 -0.0831 -0.0267 -0.1802
  632MOL0     C83299   8.581   9.502   2.293 -0.0026  0.2754 -0.4550
  632MOL0     O83300   8.489   9.479   2.197  1.0051 -0.4791 -0.3415
  632MOL0     C83301   8.350   9.532   2.198  1.4750 -1.6192  0.5253
  632MOL0     C83302   8.252   9.432   2.152 -0.4595 -0.1581 -0.9743
  632MOL0     C83303   8.110   9.481   2.129 -0.2778  0.4041 -0.3358
  632MOL0     C83304   8.046   9.539   2.254  0.0553 -0.7403 -0.3376
  632MOL0     C83305   7.891   9.539   2.261 -0.0676 -0.3317 -0.5698
  632MOL0     C83306   7.817   9.598   2.133 -0.6585  0.0373 -0.7268
  632MOL0     C83307   7.679   9.659   2.155 -0.2954 -1.1612  0.0548
  632MOL0     C83308   7.626   9.724   2.027  0.2045 -0.8543 -0.1064
  632MOL0     N83309   7.486   9.700   2.021  0.7401 -0.0410 -0.2952
  632MOL0     C83310   7.388   9.724   2.115  0.1568 -0.0276  0.6052
  632MOL0     C83311   7.280   9.671   2.060 -0.6011  0.4762  0.0375
  632MOL0     C83312   7.141   9.683   2.123  0.3777 -0.6186 -0.2915
  632MOL0     C83313   7.038   9.688   2.007  0.1280  0.4229  0.4170
  632MOL0     C83314   7.010   9.541   1.966  0.7039 -0.3229  0.0426
  632MOL0     C83315   6.871   9.481   2.002  0.3731  0.2768 -0.7803
  632MOL0     O83316   6.768   9.575   1.951  0.1457  0.4205 -0.3434
  632MOL0     C83317   6.634   9.536   1.948 -0.6480  0.8475 -0.5418
  632MOL0     C83318   6.549   9.619   1.889  0.3542  0.4237 -0.0510
  632MOL0     C83319   6.412   9.590   1.873 -0.8314 -0.3980  0.3999
  632MOL0     C83320   6.361   9.475   1.938  0.3233 -0.6207 -0.3769
  632MOL0     C83321   6.215   9.443   1.935 -0.0100  0.4649  0.2385
  632MOL0     O83322   6.125   9.535   1.876  0.1246  0.3220  0.7197
  632MOL0     C83323   5.995   9.551   1.917  0.5109 -0.0065 -0.7293
  632MOL0     C83324   5.910   9.449   1.952  0.0392  0.1106 -0.9038
  632MOL0     C83325   5.778   9.470   1.992 -0.4870  0.5539  1.0350
  632MOL0     C83326   5.728   9.601   1.991  0.1623 -0.1243  0.6775
  632MOL0     O83327   5.594   9.629   2.019 -0.1932  0.1216 -0.5039
  632MOL0     C83328   5.501   9.523   2.039 -0.9295 -0.0070  0.3251
  632MOL0     C83329   5.369   9.586   2.086  0.4586 -0.3291 -0.0327
  632MOL0     C83330   5.264   9.476   2.116 -0.7570  1.2906 -0.1570
  632MOL0     C83331   5.143   9.542   2.198  0.2926  0.2854  0.2548
  632MOL0     C83332   5.035   9.447   2.232 -0.1347 -1.3668  0.3272
  632MOL0     C83333   4.915   9.529   2.290  0.4227 -0.2382  0.3383
  632MOL0     C83334   4.793   9.432   2.315 -0.0105  0.7534 -1.4125
  632MOL0     C83335   4.665   9.507   2.347 -0.0390 -0.5053  0.0689
  632MOL0    Cl83336   4.538   9.380   2.388  0.0485  0.1549 -0.1646
  632MOL0     C83337   5.811   9.709   1.963 -0.3279  0.5047  0.2780
  632MOL0     C83338   5.946   9.683   1.928 -0.1295 -0.4284  0.4437
  632MOL0     O83339   6.175   9.346   1.997  0.0616  0.6271 -0.2569
  632MOL0     C83340   6.451   9.386   1.997 -0.7967  0.1294  0.4113
  632MOL0     C83341   6.587   9.417   2.006  0.9208 -0.5879  0.3277
  632MOL0     N83342   7.311   9.610   1.932  0.2117  0.0297  0.2377
  632MOL0     N83343   7.434   9.625   1.919 -0.1518 -1.3628  0.0812
  632MOL0     C83344   8.572   9.614   2.372 -1.5186 -0.0319 -0.3396
  632MOL0     C83345   8.672   9.632   2.478  0.2966 -0.1504  0.6493
  632MOL0     C83346   8.990   9.633   2.790  0.2122 -1.1055 -0.2985
  632MOL0     C83347   9.011   9.509   2.851 -1.0062 -1.1164  0.1693
  632MOL0     C83348   9.062   9.496   2.980 -0.0353 -0.0024 -0.5014
  632MOL0     C83349   9.103   9.614   3.052  0.2842 -0.4338  0.3529
  632MOL0     O83350   9.163   9.593   3.173 -0.2168  0.1740  0.6263
  632MOL0     C83351   9.238   9.697   3.224 -0.6691 -0.1275 -0.4468
  632MOL0     C83352   9.151   9.806   3.293 -0.1948  0.2929 -0.3335
  632MOL0     C83353   9.211   9.950   3.307  1.0405 -0.1566 -0.2066
  632MOL0     C83354   9.146  10.041   3.416 -0.0839 -0.1243  0.8505
  632MOL0     C83355   9.231  10.025   3.534 -0.4507 -1.1275  0.3430
  632MOL0     C83356   9.304  10.016   3.632 -0.2541 -0.1897 -0.2459
  632MOL0     C83357   9.094   9.736   2.986 -0.1988 -0.2269  0.1030
  632MOL0     C83358   9.031   9.749   2.860 -0.9681 -0.4643 -0.0397
  632MOL0     H83359   8.853   9.343   2.419 -1.0348 -0.2497  1.1881
  632MOL0     H83360   8.676   9.321   2.239  0.4914 -0.3305  0.1460
  632MOL0     H83361   8.327   9.622   2.141 -0.1126 -1.8361  0.7909
  632MOL0     H83362   8.323   9.559   2.300 -0.0159 -0.9855 -0.0187
  632MOL0     H83363   8.246   9.338   2.209 -1.5507 -0.2756 -1.2506
  632MOL0     H83364   8.298   9.401   2.058  3.6724 -0.3900  0.9251
  632MOL0     H83365   8.052   9.391   2.109  1.4070 -0.2296 -2.9396
  632MOL0     H83366   8.102   9.544   2.039  2.5817 -2.5899 -2.9306
  632MOL0     H83367   8.067   9.472   2.338 -1.0237  0.3008  0.7997
  632MOL0     H83368   8.098   9.632   2.280  0.0569 -0.8035 -0.1083
  632MOL0     H83369   7.857   9.592   2.351 -1.5033 -1.5543 -0.3550
  632MOL0     H83370   7.855   9.440   2.290  0.8562  0.5519  4.5275
  632MOL0     H83371   7.806   9.525   2.053 -1.7225 -1.5883  0.8153
  632MOL0     H83372   7.888   9.677   2.107 -0.4751 -0.3975 -1.5956
  632MOL0     H83373   7.624   9.575   2.197  1.0680 -0.9449  2.4712
  632MOL0     H83374   7.684   9.735   2.234  2.8010  1.0176 -1.9985
  632MOL0     H83375   7.670   9.680   1.937  0.7379 -0.8058  0.1319
  632MOL0     H83376   7.642   9.831   2.039 -1.0379 -0.9209  2.8353
  632MOL0     H83377   7.401   9.777   2.210 -0.9117 -2.0918  1.9708
  632MOL0     H83378   7.136   9.776   2.180  3.2403 -0.8738  0.5643
  632MOL0     H83379   7.118   9.596   2.184 -1.4804 -0.0630 -0.1394
  632MOL0     H83380   7.079   9.749   1.926 -1.1545  2.6697  1.3680
  632MOL0     H83381   6.949   9.740   2.044  1.6920  2.7033  1.1813
  632MOL0     H83382   7.011   9.547   1.857 -1.2950 -2.3068 -0.1702
  632MOL0     H83383   7.093   9.471   1.981  1.2250  0.0168 -1.1448
  632MOL0     H83384   6.846   9.449   2.103 -3.9854 -0.0097 -1.7323
  632MOL0     H83385   6.874   9.387   1.945  0.2179 -1.2054  1.5273
  632MOL0     H83386   6.586   9.708   1.838 -0.8349  0.6651 -0.5159
  632MOL0     H83387   6.359   9.651   1.801  0.3408 -0.8037 -0.8508
  632MOL0     H83388   5.948   9.349   1.932 -0.7483 -0.5120  0.5525
  632MOL0     H83389   5.719   9.382   2.016  0.0756 -0.6181 -1.5336
  632MOL0     H83390   5.550   9.468   2.121 -2.7385  1.6786  2.6734
  632MOL0     H83391   5.487   9.464   1.948 -2.7841  1.2829 -0.2842
  632MOL0     H83392   5.334   9.657   2.011  1.8546  0.4820  0.0532
  632MOL0     H83393   5.394   9.638   2.179 -1.7793  2.0709 -0.6559
  632MOL0     H83394   5.313   9.397   2.174 -1.0071 -0.1396 -1.8092
  632MOL0     H83395   5.222   9.430   2.027 -2.0804  3.8981 -0.9654
  632MOL0     H83396   5.186   9.586   2.289  1.0150  2.1313 -0.9200
  632MOL0     H83397   5.109   9.631   2.145  0.7832 -0.4080 -1.2672
  632MOL0     H83398   5.069   9.374   2.306 -1.6287 -2.0951  0.3326
  632MOL0     H83399   5.001   9.400   2.140  0.3407  2.4136 -2.0095
  632MOL0     H83400   4.881   9.596   2.210 -2.7039  0.8239  2.3797
  632MOL0     H83401   4.943   9.585   2.379 -0.1738  2.2065 -0.9337
  632MOL0     H83402   4.781   9.359   2.234  0.7498 -2.2085  0.9482
  632MOL0     H83403   4.814   9.378   2.408  1.4226  1.0186 -1.5517
  632MOL0     H83404   4.632   9.561   2.257  1.0586  1.9755  1.0774
  632MOL0     H83405   4.671   9.567   2.438 -0.5478  0.7391 -0.6839
  632MOL0     H83406   5.781   9.813   1.960 -0.0821  0.5972  0.9538
  632MOL0     H83407   5.997   9.771   1.890  0.6172 -0.6600  0.8808
  632MOL0     H83408   6.409   9.294   2.036 -2.1157  0.3716 -0.3625
  632MOL0     H83409   6.653   9.357   2.069  0.1108  0.5458  2.3691
  632MOL0     H83410   8.494   9.684   2.343 -1.5449 -0.0616 -0.3430
  632MOL0     H83411   8.668   9.725   2.534  1.7705  2.2724 -2.9060
  632MOL0     H83412   8.981   9.423   2.793  1.0450 -1.6434 -0.1860
  632MOL0     H83413   9.079   9.396   3.021 -2.3472  0.4870  1.8867
  632MOL0     H83414   9.300   9.742   3.146 -1.1838 -0.5755 -1.1193
  632MOL0     H83415   9.318   9.661   3.290  1.9587  0.3519 -3.1432
  632MOL0     H83416   9.055   9.810   3.240  0.5828 -1.5440 -1.9767
  632MOL0     H83417   9.123   9.775   3.394 -1.8068 -0.1142 -0.8779
  632MOL0     H83418   9.208  10.003   3.211 -0.7976 -2.2723 -1.4226
  632MOL0     H83419   9.315   9.922   3.328  0.6894 -0.7513  0.8161
  632MOL0     H83420   9.144  10.144   3.380 -5.6332  0.5224  2.1211
  632MOL0     H83421   9.042  10.015   3.434 -0.3077 -1.2196 -1.5741
  632MOL0     H83422   9.384  10.006   3.703  0.4194 -0.6100 -1.0536
  632MOL0     H83423   9.127   9.827   3.035 -2.3645  0.1352  1.0361
  632MOL0     H83424   9.004   9.844   2.816  0.5186 -0.2393 -0.5149
  633MOL0     O83425   6.807   5.897   6.314 -0.4603 -0.0236  0.0914
  633MOL0     C83426   6.761   5.998   6.267  0.0802 -0.0821  0.1086
  633MOL0     O83427   6.627   6.018   6.235 -0.0900  0.2938  0.1640
  633MOL0     C83428   6.530   5.914   6.243 -0.4828 -0.5103  0.2676
  633MOL0     C83429   6.420   5.922   6.326 -0.3816  0.5244  0.2692
  633MOL0     C83430   6.324   5.820   6.328  0.4465 -0.3095 -0.0207
  633MOL0     C83431   6.329   5.711   6.239  0.4457  0.5272  0.1678
  633MOL0     O83432   6.249   5.594   6.256  0.0875  0.7245  0.1991
  633MOL0     C83433   6.131   5.602   6.338  0.5019 -0.0884  0.3312
  633MOL0     C83434   6.024   5.511   6.275 -0.7840 -0.2450  1.3745
  633MOL0     C83435   5.898   5.499   6.360 -0.1417 -0.5160  0.7267
  633MOL0     C83436   5.789   5.438   6.279  0.2629 -0.1082 -0.7978
  633MOL0     C83437   5.675   5.374   6.370  0.7936 -0.1386 -0.3956
  633MOL0     C83438   5.587   5.485   6.431 -0.6202  0.1862 -0.0509
  633MOL0     C83439   5.469   5.416   6.511 -0.4587 -0.6856  0.2612
  633MOL0     C83440   5.352   5.508   6.543  0.2473  0.6746  0.9106
  633MOL0     N83441   5.255   5.439   6.628 -0.1525  0.2208 -0.5541
  633MOL0     C83442   5.215   5.303   6.638  0.3968 -1.0179  0.6567
  633MOL0     C83443   5.108   5.308   6.721  0.2968 -0.0593  0.0092
  633MOL0     C83444   5.020   5.185   6.733  0.2769 -0.0123 -0.0827
  633MOL0     C83445   4.867   5.208   6.769 -0.1999 -0.3960  0.6183
  633MOL0     C83446   4.792   5.255   6.639 -0.1881 -0.4854 -0.2226
  633MOL0     C83447   4.647   5.279   6.663  0.5612  0.1533  0.1861
  633MOL0     O83448   4.584   5.153   6.672 -0.0140 -0.2495 -0.1691
  633MOL0     C83449   4.445   5.144   6.700 -0.5478  0.3854 -0.2870
  633MOL0     C83450   4.362   5.266   6.723 -0.0194  0.2267 -0.6483
  633MOL0     C83451   4.228   5.254   6.732 -0.8243  0.0038  0.1065
  633MOL0     C83452   4.169   5.128   6.725  0.1433  0.8081  0.0163
  633MOL0     C83453   4.023   5.120   6.739  0.2648  1.2310 -0.2450
  633MOL0     O83454   3.955   4.995   6.770 -0.8761 -0.3427  0.1219
  633MOL0     C83455   3.824   4.994   6.800 -0.4292 -0.5916 -0.1177
  633MOL0     C83456   3.728   5.063   6.730  0.7397  0.2986  0.0670
  633MOL0     C83457   3.600   5.064   6.778  0.1819 -0.4894  0.6143
  633MOL0     C83458   3.556   4.972   6.881 -1.1949 -0.3300  0.1028
  633MOL0     O83459   3.427   4.957   6.923 -0.3486 -0.2370  0.7514
  633MOL0     C83460   3.325   5.047   6.861  0.7876  0.3133  0.4847
  633MOL0     C83461   3.202   5.047   6.955 -0.2535  0.4909 -0.5739
  633MOL0     C83462   3.065   5.107   6.904 -0.3318  0.2664  0.4497
  633MOL0     C83463   2.981   4.991   6.835 -0.7773 -0.4816 -0.2233
  633MOL0     C83464   2.855   5.038   6.774  0.7035  0.2230  0.0605
  633MOL0     C83465   2.753   5.067   6.879  0.0236  0.2595  0.3216
  633MOL0     C83466   2.637   5.149   6.823  0.0248 -0.0306 -0.3850
  633MOL0     C83467   2.518   5.161   6.923 -0.3464 -0.4937 -0.1112
  633MOL0    Cl83468   2.571   5.269   7.054 -0.0482  0.0172 -0.1288
  633MOL0     C83469   3.656   4.901   6.940  0.1576  0.9550 -0.4252
  633MOL0     C83470   3.786   4.908   6.907 -0.3603  0.7588 -0.6031
  633MOL0     O83471   3.960   5.227   6.722 -0.2996 -0.4531 -0.2395
  633MOL0     C83472   4.241   5.016   6.701 -1.0110 -0.4209  0.1775
  633MOL0     C83473   4.381   5.025   6.684  1.0066  0.2250 -0.3408
  633MOL0     N83474   5.093   5.435   6.771 -0.1823  1.3304 -0.6969
  633MOL0     N83475   5.174   5.515   6.717 -0.2164  0.0440 -0.2917
  633MOL0     C83476   6.445   5.700   6.165  0.5613  0.2193 -0.5100
  633MOL0     C83477   6.545   5.804   6.166 -0.1992  0.1461  0.2082
  633MOL0     C83478   6.859   6.107   6.236  0.0891  0.5469  0.2723
  633MOL0     C83479   6.819   6.207   6.148  0.5245  0.5853  0.1022
  633MOL0     C83480   6.910   6.303   6.109  0.5062 -0.0101  0.2503
  633MOL0     C83481   7.043   6.305   6.142 -0.2116  0.5160 -0.4186
  633MOL0     O83482   7.125   6.405   6.090  0.0214 -0.0774 -0.4779
  633MOL0     C83483   7.260   6.389   6.090 -1.1287 -0.1068 -0.4191
  633MOL0     C83484   7.331   6.526   6.050  0.3757  0.5501 -0.0156
  633MOL0     C83485   7.285   6.569   5.910  1.1812  0.7413  0.5574
  633MOL0     C83486   7.331   6.716   5.905 -0.6193 -0.0660 -0.7590
  633MOL0     C83487   7.478   6.714   5.877  0.4765 -0.7550  0.1729
  633MOL0     C83488   7.601   6.708   5.855  0.4528 -0.3403 -0.4090
  633MOL0     C83489   7.083   6.205   6.236 -0.1662 -0.1953  0.0260
  633MOL0     C83490   6.995   6.107   6.283 -0.0281 -0.4124 -0.4086
  633MOL0     H83491   6.405   6.007   6.393 -1.0567  2.7517 -2.5163
  633MOL0     H83492   6.259   5.803   6.413  0.6499 -2.3899 -0.2321
  633MOL0     H83493   6.099   5.706   6.343  3.4201  1.0246 -1.5976
  633MOL0     H83494   6.150   5.579   6.443 -0.5158 -1.4023  0.2563
  633MOL0     H83495   6.072   5.415   6.257 -0.4202  0.5504 -2.8371
  633MOL0     H83496   6.008   5.555   6.176  1.6850 -0.1070  0.9791
  633MOL0     H83497   5.858   5.596   6.389 -2.1429  0.3195 -3.9585
  633MOL0     H83498   5.920   5.439   6.449  1.4122  0.9530  1.3868
  633MOL0     H83499   5.761   5.517   6.209  4.7140  0.7791 -1.8631
  633MOL0     H83500   5.825   5.359   6.213 -0.6170 -1.9248  0.7898
  633MOL0     H83501   5.716   5.316   6.453  1.3511  0.2446 -0.4021
  633MOL0     H83502   5.613   5.305   6.312  0.7430  0.8400 -1.5550
  633MOL0     H83503   5.546   5.553   6.356  1.0718  2.6611  1.1040
  633MOL0     H83504   5.652   5.537   6.502  0.1373  0.3522 -0.8580
  633MOL0     H83505   5.427   5.340   6.444  1.4698 -1.2569 -0.3582
  633MOL0     H83506   5.512   5.365   6.598  3.7607 -1.6136 -2.1163
  633MOL0     H83507   5.294   5.542   6.456 -0.2592  1.1089  1.4150
  633MOL0     H83508   5.399   5.594   6.593  3.3811 -0.2453 -0.2369
  633MOL0     H83509   5.247   5.222   6.574 -3.5593 -1.8786 -0.5120
  633MOL0     H83510   5.064   5.124   6.812 -0.5900 -0.8940 -0.2558
  633MOL0     H83511   5.032   5.129   6.640 -0.7435 -0.0179 -0.2204
  633MOL0     H83512   4.866   5.283   6.849  0.8775 -0.1164  0.3942
  633MOL0     H83513   4.820   5.116   6.804  2.5745 -2.5208 -0.8337
  633MOL0     H83514   4.850   5.341   6.605  0.7810 -1.3182 -0.7390
  633MOL0     H83515   4.796   5.167   6.573 -2.7573 -0.8798  0.0383
  633MOL0     H83516   4.604   5.330   6.577  0.7529 -2.2541 -1.4327
  633MOL0     H83517   4.641   5.340   6.754  5.4323  0.7366  0.3718
  633MOL0     H83518   4.406   5.364   6.736  1.8684 -0.6656 -0.0964
  633MOL0     H83519   4.176   5.349   6.736 -0.9108 -0.0569  0.4613
  633MOL0     H83520   3.744   5.126   6.644  0.6998 -1.8935 -1.6434
  633MOL0     H83521   3.527   5.135   6.739  0.8536 -0.4080 -0.5472
  633MOL0     H83522   3.292   4.997   6.770  0.2651 -1.3087  1.5215
  633MOL0     H83523   3.350   5.153   6.847 -0.2209  0.3923 -0.9044
  633MOL0     H83524   3.232   5.107   7.041 -0.1588  1.7043 -1.4334
  633MOL0     H83525   3.181   4.944   6.986  3.7888 -0.6063 -1.0001
  633MOL0     H83526   3.077   5.192   6.837 -0.6491 -1.1456 -1.5067
  633MOL0     H83527   3.014   5.145   6.992  1.7883  0.7000  1.5393
  633MOL0     H83528   3.050   4.957   6.758  1.5567 -0.6644  1.8431
  633MOL0     H83529   2.960   4.907   6.902  1.9956 -1.4671 -0.4894
  633MOL0     H83530   2.827   4.957   6.706  1.0942 -0.3918  0.6271
  633MOL0     H83531   2.874   5.127   6.713 -1.5940  0.4273 -0.4337
  633MOL0     H83532   2.797   5.123   6.962 -0.1187  1.2057 -0.2260
  633MOL0     H83533   2.709   4.972   6.909 -3.9968  1.0643 -2.2398
  633MOL0     H83534   2.672   5.252   6.811 -1.9395  1.2306  3.1412
  633MOL0     H83535   2.598   5.106   6.730  0.0651 -0.7087 -0.0909
  633MOL0     H83536   2.494   5.058   6.951 -3.6547  0.3109  0.5010
  633MOL0     H83537   2.431   5.208   6.874 -1.2992 -1.6216  0.4531
  633MOL0     H83538   3.631   4.839   7.025 -0.1656 -0.4476 -1.5006
  633MOL0     H83539   3.863   4.853   6.961 -1.1045 -0.5453 -0.8487
  633MOL0     H83540   4.199   4.917   6.689 -2.0478 -0.2236  1.9858
  633MOL0     H83541   4.441   4.940   6.653  0.8809  0.6377 -1.7921
  633MOL0     H83542   6.472   5.607   6.115 -1.3256 -0.2241 -0.8068
  633MOL0     H83543   6.631   5.803   6.100 -1.2037  1.4990 -1.1904
  633MOL0     H83544   6.718   6.195   6.111  0.4584  2.1326 -0.3205
  633MOL0     H83545   6.874   6.377   6.038  0.4814  0.7217  1.0057
  633MOL0     H83546   7.299   6.304   6.034 -1.4531 -1.4196  1.2601
  633MOL0     H83547   7.293   6.353   6.188 -0.7990  0.6476 -0.2488
  633MOL0     H83548   7.300   6.594   6.129  1.3475 -0.0392  0.9018
  633MOL0     H83549   7.440   6.520   6.060  0.2799  0.3684  1.0645
  633MOL0     H83550   7.178   6.575   5.892  1.1888 -0.7123 -0.1057
  633MOL0     H83551   7.328   6.504   5.833  0.8203 -0.2963  1.2143
  633MOL0     H83552   7.285   6.775   5.825 -1.6057  0.7295  0.3672
  633MOL0     H83553   7.313   6.769   5.999  1.9765  1.8226 -1.1948
  633MOL0     H83554   7.704   6.728   5.836  0.4590  0.0002 -0.0369
  633MOL0     H83555   7.189   6.201   6.259 -0.3113 -0.2076  0.7037
  633MOL0     H83556   7.040   6.025   6.337  0.0699  1.0690  1.8921
  634MOL0     O83557   4.698   0.137   0.752  0.2570 -0.5807 -0.3605
  634MOL0     C83558   4.725   0.047   0.671  0.0691  0.2570 -0.0959
  634MOL0     O83559   4.637  -0.053   0.619 -0.2503  0.4522 -0.4283
  634MOL0     C83560   4.513  -0.065   0.668  0.0950  0.7247 -0.2308
  634MOL0     C83561   4.473  -0.195   0.691 -0.4040  0.3230  1.0643
  634MOL0     C83562   4.340  -0.226   0.717 -0.5914 -0.1204 -0.3518
  634MOL0     C83563   4.253  -0.116   0.757  1.4417 -0.9273  0.3421
  634MOL0     O83564   4.123  -0.134   0.798 -0.4200  0.0046 -0.3168
  634MOL0     C83565   4.062  -0.255   0.750 -0.9037  0.4518 -0.1348
  634MOL0     C83566   3.907  -0.258   0.775  0.5141 -0.1720  0.6279
  634MOL0     C83567   3.867  -0.280   0.920  0.2528 -0.1966  0.1852
  634MOL0     C83568   3.720  -0.287   0.927  0.8107  0.2526 -0.2785
  634MOL0     C83569   3.669  -0.235   1.068  0.1319  0.1369  0.7131
  634MOL0     C83570   3.688  -0.338   1.180 -0.4070 -0.3479 -0.2842
  634MOL0     C83571   3.580  -0.441   1.191  0.4075 -0.2458 -0.3715
  634MOL0     C83572   3.595  -0.547   1.294  0.3700  0.4726  0.4209
  634MOL0     N83573   3.583  -0.514   1.434 -1.0112 -0.1421 -0.2236
  634MOL0     C83574   3.498  -0.417   1.491 -0.1469  0.7600 -0.2585
  634MOL0     C83575   3.542  -0.404   1.624 -0.1778  0.8780  0.2068
  634MOL0     C83576   3.484  -0.334   1.742  0.3282  0.1090 -0.7142
  634MOL0     C83577   3.366  -0.420   1.791 -0.5552 -0.0968 -0.0268
  634MOL0     C83578   3.242  -0.397   1.710  0.0233  1.3082 -1.3033
  634MOL0     C83579   3.112  -0.402   1.791  0.4615 -0.0080 -0.3340
  634MOL0     O83580   3.068  -0.288   1.866  0.2322 -0.2104  0.6513
  634MOL0     C83581   2.958  -0.297   1.946 -0.4817 -0.5312 -0.0648
  634MOL0     C83582   2.939  -0.186   2.026 -0.2485  0.0929 -0.4951
  634MOL0     C83583   2.840  -0.181   2.127 -0.6121 -0.3378  0.1432
  634MOL0     C83584   2.766  -0.292   2.157  0.1212  0.1524  0.3377
  634MOL0     C83585   2.672  -0.306   2.275  0.6045  0.1759  0.0684
  634MOL0     O83586   2.576  -0.405   2.271  0.0454 -0.1788 -0.1923
  634MOL0     C83587   2.459  -0.383   2.336 -0.4302  0.1286 -0.4239
  634MOL0     C83588   2.411  -0.259   2.369  0.5898  0.5344 -0.0433
  634MOL0     C83589   2.296  -0.248   2.448  0.3111 -0.1229  0.0801
  634MOL0     C83590   2.230  -0.358   2.492 -0.1829 -0.6316 -1.4636
  634MOL0     O83591   2.130  -0.338   2.587 -0.6385  0.7091  0.2469
  634MOL0     C83592   2.029  -0.434   2.620  0.3551 -0.3990 -0.4851
  634MOL0     C83593   1.928  -0.356   2.704 -0.3967  0.3421  0.2493
  634MOL0     C83594   1.816  -0.444   2.745 -0.1536  0.0047  0.2936
  634MOL0     C83595   1.703  -0.350   2.800 -0.2723 -0.1247 -0.4665
  634MOL0     C83596   1.571  -0.411   2.838 -0.3153 -0.6285 -0.1055
  634MOL0     C83597   1.463  -0.304   2.847 -0.9175  0.7771  0.1003
  634MOL0     C83598   1.341  -0.368   2.917  0.5338 -0.3556 -0.1046
  634MOL0     C83599   1.228  -0.259   2.944  0.3186 -0.0704  1.0947
  634MOL0    Cl83600   1.094  -0.324   3.030  0.3195  0.5971  0.0228
  634MOL0     C83601   2.270  -0.490   2.453  0.2348  0.1721  0.2745
  634MOL0     C83602   2.379  -0.499   2.363 -0.6225 -0.2598 -0.0598
  634MOL0     O83603   2.704  -0.249   2.379 -0.1738 -0.3667  0.6153
  634MOL0     C83604   2.777  -0.402   2.061  0.9019  0.8599  0.3319
  634MOL0     C83605   2.867  -0.398   1.954 -0.0632  0.3261 -0.0880
  634MOL0     N83606   3.654  -0.492   1.634  0.0618  0.0072  0.3402
  634MOL0     N83607   3.680  -0.550   1.523 -0.2274  0.9086 -0.6118
  634MOL0     C83608   4.302   0.015   0.758  0.0889  0.0584  0.8048
  634MOL0     C83609   4.426   0.039   0.706 -0.8352  0.3549  0.5984
  634MOL0     C83610   4.865   0.036   0.626  0.1176 -0.4128 -1.2740
  634MOL0     C83611   4.957   0.139   0.644  0.5441 -0.4508  1.4416
  634MOL0     C83612   5.080   0.134   0.593 -0.4834  0.0160 -0.6675
  634MOL0     C83613   5.123   0.021   0.528 -1.0451  0.2453 -0.1870
  634MOL0     O83614   5.256   0.006   0.488 -0.4927  0.5590 -0.9824
  634MOL0     C83615   5.349   0.108   0.530  0.3390 -1.3237  0.1612
  634MOL0     C83616   5.488   0.072   0.471 -0.5506 -0.0203  0.0123
  634MOL0     C83617   5.546  -0.063   0.510 -0.8879 -0.1100  1.2086
  634MOL0     C83618   5.692  -0.054   0.564 -0.2305  0.5261 -0.8251
  634MOL0     C83619   5.788  -0.044   0.460  1.1841 -0.4484  0.4717
  634MOL0     C83620   5.864  -0.033   0.363 -0.3549  0.2052 -0.9794
  634MOL0     C83621   5.041  -0.089   0.510  0.1653 -0.1465  0.4841
  634MOL0     C83622   4.905  -0.083   0.557  0.0617 -0.5222 -0.4631
  634MOL0     H83623   4.539  -0.278   0.670  0.0334  1.4163 -2.4286
  634MOL0     H83624   4.309  -0.330   0.715 -2.3859  0.4002 -1.4609
  634MOL0     H83625   4.099  -0.346   0.798 -2.5782  0.7576  1.9217
  634MOL0     H83626   4.089  -0.262   0.645  1.8588 -1.1492  0.5786
  634MOL0     H83627   3.872  -0.331   0.701 -0.9264  0.3537  0.7485
  634MOL0     H83628   3.867  -0.161   0.743 -0.6453  0.2922  3.1925
  634MOL0     H83629   3.913  -0.199   0.977 -1.7664  0.6145  0.7389
  634MOL0     H83630   3.901  -0.380   0.948 -1.4387 -1.2178 -1.1430
  634MOL0     H83631   3.662  -0.226   0.856  0.0407  0.8116  0.8001
  634MOL0     H83632   3.684  -0.387   0.898  0.9936 -0.1860  0.9312
  634MOL0     H83633   3.565  -0.201   1.066  0.6337  1.7302  0.2215
  634MOL0     H83634   3.723  -0.146   1.103  1.3249 -1.1918  2.4028
  634MOL0     H83635   3.704  -0.275   1.267  1.8340  1.1425 -1.6651
  634MOL0     H83636   3.781  -0.384   1.146 -1.0063 -1.3042 -0.6948
  634MOL0     H83637   3.485  -0.389   1.205  1.3418  1.3832  0.2231
  634MOL0     H83638   3.570  -0.493   1.095  0.7355 -1.0465  0.0177
  634MOL0     H83639   3.678  -0.613   1.269 -1.3744 -0.8159 -2.5473
  634MOL0     H83640   3.521  -0.623   1.268  1.3195 -0.5086  0.4948
  634MOL0     H83641   3.411  -0.371   1.447 -2.6594 -2.9040  0.4193
  634MOL0     H83642   3.443  -0.240   1.704  0.1666  0.0028 -0.8057
  634MOL0     H83643   3.554  -0.315   1.824 -0.3013 -0.5032 -0.0225
  634MOL0     H83644   3.357  -0.383   1.894 -0.1182 -1.5216  0.5497
  634MOL0     H83645   3.396  -0.525   1.794  0.4616  0.1354 -1.2650
  634MOL0     H83646   3.257  -0.302   1.657 -1.4995  1.5220 -1.4043
  634MOL0     H83647   3.231  -0.472   1.632  1.6745  0.4712 -0.7762
  634MOL0     H83648   3.133  -0.480   1.866 -2.6566  1.5699  2.4125
  634MOL0     H83649   3.028  -0.427   1.726  0.0283 -1.5736  0.7599
  634MOL0     H83650   3.017  -0.112   2.015 -1.3674  1.4900  0.5325
  634MOL0     H83651   2.835  -0.102   2.202  2.3785 -1.1383  1.3400
  634MOL0     H83652   2.469  -0.171   2.342  0.6942  0.7503  0.8554
  634MOL0     H83653   2.256  -0.149   2.464 -2.1561 -0.9681 -0.3956
  634MOL0     H83654   2.080  -0.512   2.677  0.6859  1.4452  1.8908
  634MOL0     H83655   1.980  -0.461   2.525 -0.4575  1.2613 -0.5738
  634MOL0     H83656   1.884  -0.281   2.637 -0.6856  1.1761  1.3448
  634MOL0     H83657   1.975  -0.309   2.791  0.0218 -2.2690  1.5277
  634MOL0     H83658   1.850  -0.520   2.815  3.0255  0.1143 -0.9777
  634MOL0     H83659   1.775  -0.498   2.659 -0.6154  0.2998  0.3240
  634MOL0     H83660   1.746  -0.296   2.885 -1.3558 -1.8142  1.2671
  634MOL0     H83661   1.689  -0.272   2.726 -0.5156  1.3564  1.0742
  634MOL0     H83662   1.581  -0.471   2.928  0.8157 -1.7562 -0.9567
  634MOL0     H83663   1.550  -0.479   2.755 -0.7972  0.8235 -1.2306
  634MOL0     H83664   1.446  -0.267   2.746  0.7268  0.2124 -0.4124
  634MOL0     H83665   1.501  -0.222   2.909  0.3478  0.6425 -0.4668
  634MOL0     H83666   1.300  -0.453   2.862 -1.3762  1.8232 -2.2466
  634MOL0     H83667   1.365  -0.408   3.016 -3.4214 -1.2790  0.6257
  634MOL0     H83668   1.194  -0.219   2.848  0.5940  1.1839  1.4990
  634MOL0     H83669   1.275  -0.179   3.003  1.4478 -0.4789  0.7636
  634MOL0     H83670   2.224  -0.583   2.485  0.5246 -0.2893 -0.6002
  634MOL0     H83671   2.423  -0.595   2.335  3.2903  0.7085  1.9604
  634MOL0     H83672   2.728  -0.497   2.077  1.4641  0.3605 -0.7854
  634MOL0     H83673   2.879  -0.470   1.875 -0.6284  0.9489 -0.7626
  634MOL0     H83674   4.243   0.102   0.787 -0.0984  1.0863 -2.2987
  634MOL0     H83675   4.466   0.140   0.695 -0.3719 -0.0020 -1.4140
  634MOL0     H83676   4.928   0.226   0.703  2.4080  0.7813  0.6441
  634MOL0     H83677   5.139   0.225   0.601  1.6943 -1.3494 -0.4701
  634MOL0     H83678   5.352   0.105   0.640  0.6550 -2.1200  0.1411
  634MOL0     H83679   5.335   0.209   0.492  2.4351  0.6260  3.9549
  634MOL0     H83680   5.483   0.074   0.362 -1.7311 -1.5764  0.0084
  634MOL0     H83681   5.557   0.153   0.496 -1.9096  0.9553  0.7417
  634MOL0     H83682   5.544  -0.127   0.422  0.7858 -0.6538  1.5359
  634MOL0     H83683   5.477  -0.116   0.577 -0.6064 -1.7285  0.2617
  634MOL0     H83684   5.713   0.018   0.644  1.8257 -0.8336 -0.0816
  634MOL0     H83685   5.718  -0.152   0.605 -0.6437  0.7130 -0.0844
  634MOL0     H83686   5.945  -0.013   0.297  1.0763  1.1242  0.9581
  634MOL0     H83687   5.080  -0.176   0.459 -0.0966  0.4233 -0.7225
  634MOL0     H83688   4.838  -0.166   0.534 -1.6485  1.2476 -2.1678
  635MOL0     O83689   6.947   2.434   2.840 -0.3655 -0.0655 -0.3843
  635MOL0     C83690   7.022   2.414   2.932  0.3153  0.1626 -0.1611
  635MOL0     O83691   6.974   2.389   3.055 -0.0836  0.2421  0.3374
  635MOL0     C83692   6.845   2.351   3.078 -0.4071 -0.4360 -0.6489
  635MOL0     C83693   6.743   2.444   3.082 -0.3834  0.4855 -0.0992
  635MOL0     C83694   6.612   2.403   3.100 -0.0969 -0.3829  0.4742
  635MOL0     C83695   6.581   2.267   3.119  0.0535  0.4214  0.4209
  635MOL0     O83696   6.455   2.219   3.121 -0.4195 -0.1479  0.1590
  635MOL0     C83697   6.347   2.307   3.147 -0.1094  0.2425 -0.2332
  635MOL0     C83698   6.222   2.217   3.189  0.1735 -0.6456 -0.0305
  635MOL0     C83699   6.093   2.299   3.167 -0.1754  0.5077 -0.1888
  635MOL0     C83700   5.973   2.224   3.228  1.1100 -0.3626  0.0029
  635MOL0     C83701   5.843   2.287   3.173  0.3764  0.7443  0.3914
  635MOL0     C83702   5.800   2.432   3.217 -0.6346  0.0278 -0.3637
  635MOL0     C83703   5.660   2.466   3.171 -0.1967  0.2861  0.4762
  635MOL0     C83704   5.614   2.612   3.179  0.9884  0.1683 -0.6288
  635MOL0     N83705   5.710   2.709   3.127  0.5794  0.2019  0.1028
  635MOL0     C83706   5.715   2.735   2.995 -0.0789  0.4507  0.1608
  635MOL0     C83707   5.791   2.839   2.983  0.6210  0.8850 -0.4370
  635MOL0     C83708   5.815   2.919   2.856  0.3753  0.1455 -0.2549
  635MOL0     C83709   5.686   2.987   2.797  0.6011 -0.5986 -0.2314
  635MOL0     C83710   5.704   3.043   2.659 -1.0520  0.8812  0.3874
  635MOL0     C83711   5.583   3.100   2.594  0.4362  0.0433  0.3122
  635MOL0     O83712   5.490   2.990   2.575  0.2649 -0.0475 -0.3473
  635MOL0     C83713   5.364   3.027   2.532  0.3764  0.3918  0.8326
  635MOL0     C83714   5.333   3.153   2.471  1.0614 -0.0708 -0.1322
  635MOL0     C83715   5.198   3.178   2.432  1.2919 -0.2166 -0.1871
  635MOL0     C83716   5.090   3.084   2.452  0.0203 -0.7995 -0.2018
  635MOL0     C83717   4.953   3.119   2.419 -0.6482  0.3448  0.1581
  635MOL0     O83718   4.932   3.243   2.368 -0.0487 -0.1534  0.0378
  635MOL0     C83719   4.801   3.282   2.354 -0.8948  0.0043 -0.7929
  635MOL0     C83720   4.760   3.337   2.236  0.7054  0.3850 -0.4222
  635MOL0     C83721   4.630   3.391   2.231 -0.3928 -0.0585 -0.2632
  635MOL0     C83722   4.540   3.404   2.342  0.3122 -0.3731 -0.5383
  635MOL0     O83723   4.413   3.453   2.328 -0.2615  0.2401 -0.1773
  635MOL0     C83724   4.322   3.464   2.443 -0.1672 -0.6464 -0.0313
  635MOL0     C83725   4.213   3.574   2.414  0.0215  0.6322  0.1937
  635MOL0     C83726   4.138   3.546   2.287 -0.0786  0.3363 -0.0428
  635MOL0     C83727   4.038   3.656   2.253  0.1563  0.1536  0.0484
  635MOL0     C83728   3.946   3.618   2.139  0.2827  0.3728 -0.1516
  635MOL0     C83729   4.018   3.629   2.005 -0.8111 -0.4198 -0.3389
  635MOL0     C83730   3.922   3.588   1.886 -0.5263  0.1122  0.1058
  635MOL0     C83731   3.998   3.607   1.760  0.6776  0.3934  0.3063
  635MOL0    Cl83732   3.911   3.534   1.615  0.3736  0.3595 -0.1765
  635MOL0     C83733   4.588   3.344   2.460 -0.1207  0.1224 -0.2196
  635MOL0     C83734   4.711   3.279   2.461  0.5038 -0.0997 -0.0847
  635MOL0     O83735   4.871   3.029   2.441  0.4755 -0.8630  0.6239
  635MOL0     C83736   5.127   2.962   2.501  0.4950 -0.4098  0.1395
  635MOL0     C83737   5.263   2.934   2.539 -0.2451  0.0565  0.4817
  635MOL0     N83738   5.826   2.883   3.104 -0.0900 -0.5558  0.0842
  635MOL0     N83739   5.774   2.805   3.189  1.2652 -0.7641 -0.5651
  635MOL0     C83740   6.684   2.179   3.135 -0.4268  0.3108 -0.1915
  635MOL0     C83741   6.815   2.220   3.115  0.4911  0.4294  0.6091
  635MOL0     C83742   7.166   2.420   2.909  0.3553 -0.9709  0.0586
  635MOL0     C83743   7.244   2.394   3.020  0.0081  0.0557 -0.3607
  635MOL0     C83744   7.385   2.411   3.011 -0.9969  0.0637  0.1548
  635MOL0     C83745   7.448   2.442   2.890  1.0971 -0.5039  0.4633
  635MOL0     O83746   7.579   2.453   2.862 -0.7496 -0.2041  0.2023
  635MOL0     C83747   7.669   2.423   2.970 -0.0001  1.3053  0.6826
  635MOL0     C83748   7.815   2.429   2.922 -0.0947  0.4930 -0.1053
  635MOL0     C83749   7.867   2.298   2.877 -0.1777 -1.0985 -0.0262
  635MOL0     C83750   8.001   2.312   2.810 -0.3061 -0.1662 -0.0622
  635MOL0     C83751   8.110   2.348   2.897 -0.3942  0.3538  0.2668
  635MOL0     C83752   8.201   2.390   2.968 -0.5181 -0.2267 -0.1146
  635MOL0     C83753   7.364   2.473   2.779 -0.1777 -0.4173 -0.7011
  635MOL0     C83754   7.227   2.478   2.789  0.2622  0.2874 -0.4422
  635MOL0     H83755   6.758   2.545   3.046  0.5045  0.2651 -0.3503
  635MOL0     H83756   6.534   2.477   3.083 -1.5130 -1.9345 -0.1188
  635MOL0     H83757   6.322   2.367   3.059  0.1467  0.2479 -0.3051
  635MOL0     H83758   6.360   2.371   3.234  1.8305 -0.7007  0.2226
  635MOL0     H83759   6.238   2.183   3.291  0.2855 -0.2913  0.0710
  635MOL0     H83760   6.215   2.130   3.123  1.2098 -0.0091 -1.0229
  635MOL0     H83761   6.076   2.316   3.060  1.1720  1.0436 -0.3356
  635MOL0     H83762   6.114   2.402   3.195  0.4129  0.3580 -0.0624
  635MOL0     H83763   5.976   2.116   3.208  1.9286 -0.3752  0.1283
  635MOL0     H83764   5.974   2.236   3.337  3.2500 -2.8705  0.3733
  635MOL0     H83765   5.766   2.217   3.206  2.3765 -1.0592  1.4716
  635MOL0     H83766   5.838   2.287   3.063  0.2498  0.2504  0.3935
  635MOL0     H83767   5.879   2.498   3.179 -0.7722 -0.6868 -1.9780
  635MOL0     H83768   5.818   2.432   3.325 -0.6401 -2.8740 -0.2850
  635MOL0     H83769   5.676   2.447   3.064 -0.3827  0.0954  0.4821
  635MOL0     H83770   5.577   2.403   3.204 -2.1628  2.2710 -0.3494
  635MOL0     H83771   5.600   2.631   3.286 -0.4549 -0.2487 -0.7256
  635MOL0     H83772   5.512   2.615   3.140 -0.1832 -2.0898  1.8788
  635MOL0     H83773   5.660   2.686   2.916  1.5132 -1.2886  0.0719
  635MOL0     H83774   5.859   2.865   2.771 -1.7874 -2.0654 -0.0894
  635MOL0     H83775   5.887   2.999   2.876  0.1904  0.5600 -1.1619
  635MOL0     H83776   5.645   3.068   2.859  0.9660  0.3489 -1.1959
  635MOL0     H83777   5.610   2.909   2.798 -0.7295  0.6232  1.4463
  635MOL0     H83778   5.784   3.118   2.656 -0.8865  0.8169  2.0903
  635MOL0     H83779   5.738   2.953   2.606 -0.0545  1.6392 -0.3019
  635MOL0     H83780   5.612   3.131   2.493  3.1092 -5.3133 -0.9169
  635MOL0     H83781   5.538   3.182   2.649 -1.8094 -1.0386  0.2347
  635MOL0     H83782   5.412   3.226   2.454 -0.9109  1.4332 -4.0464
  635MOL0     H83783   5.187   3.275   2.384  0.0612 -0.6594 -0.8620
  635MOL0     H83784   4.824   3.340   2.149  2.0382 -0.8392  0.4729
  635MOL0     H83785   4.593   3.424   2.134  2.5013  4.1638 -0.1921
  635MOL0     H83786   4.381   3.498   2.529 -0.5771  0.4086 -0.1596
  635MOL0     H83787   4.279   3.366   2.464  1.8559 -1.6952 -0.4838
  635MOL0     H83788   4.267   3.669   2.408  2.3344 -0.6497 -0.5476
  635MOL0     H83789   4.136   3.585   2.491  0.2954  4.3702  0.1249
  635MOL0     H83790   4.079   3.455   2.301  2.7793 -1.3538  2.2078
  635MOL0     H83791   4.207   3.527   2.204 -0.7262  0.3431 -0.5885
  635MOL0     H83792   3.969   3.672   2.336 -2.8872 -1.0506 -2.0602
  635MOL0     H83793   4.086   3.752   2.231  1.4598 -0.1796  1.2557
  635MOL0     H83794   3.863   3.689   2.138 -0.4391 -0.4644 -0.6186
  635MOL0     H83795   3.902   3.519   2.153  1.8120 -0.3594 -0.2730
  635MOL0     H83796   4.116   3.582   2.010 -0.4807 -0.1598 -2.8533
  635MOL0     H83797   4.054   3.731   1.989 -0.1578 -0.5163  0.4909
  635MOL0     H83798   3.895   3.483   1.895 -3.2107  0.7634  0.3823
  635MOL0     H83799   3.833   3.651   1.892  0.4385  1.5573 -0.1547
  635MOL0     H83800   4.095   3.557   1.768  0.2250 -0.6075 -0.2102
  635MOL0     H83801   4.017   3.713   1.742  1.1685 -0.0001 -1.8682
  635MOL0     H83802   4.529   3.339   2.552  0.9469 -1.8960  0.3978
  635MOL0     H83803   4.749   3.227   2.549  0.7357  2.3416  1.3461
  635MOL0     H83804   5.053   2.883   2.512  1.4627 -1.3066  0.2872
  635MOL0     H83805   5.290   2.835   2.574  0.4607 -0.0592 -0.3585
  635MOL0     H83806   6.683   2.073   3.158 -0.5450  0.5098  0.7366
  635MOL0     H83807   6.892   2.144   3.120 -2.5266 -2.9517 -0.1283
  635MOL0     H83808   7.211   2.374   3.121  0.2944 -2.3926 -0.7034
  635MOL0     H83809   7.438   2.376   3.099 -0.5171 -1.6106 -0.7492
  635MOL0     H83810   7.657   2.319   3.003  0.9057  1.4103  1.3700
  635MOL0     H83811   7.643   2.494   3.049 -1.5914  0.0169  1.4005
  635MOL0     H83812   7.833   2.507   2.846  0.8059  0.9226  0.5248
  635MOL0     H83813   7.861   2.482   3.006 -1.4373 -0.4410  1.2704
  635MOL0     H83814   7.808   2.250   2.799  2.4549 -1.8779 -1.6809
  635MOL0     H83815   7.870   2.224   2.958 -0.6806 -2.1553 -0.9493
  635MOL0     H83816   8.024   2.211   2.776  0.7399 -0.1856  0.6601
  635MOL0     H83817   8.005   2.374   2.720  0.8840  0.6834  0.5483
  635MOL0     H83818   8.282   2.434   3.022  0.0486  0.8150 -1.7397
  635MOL0     H83819   7.417   2.510   2.692 -0.5207 -0.7024 -1.0298
  635MOL0     H83820   7.165   2.514   2.707 -0.1158  1.7858  0.4652
  636MOL0     O83821   9.922   7.739   2.626 -0.2287 -0.1169  0.4129
  636MOL0     C83822   9.928   7.722   2.751 -0.2769  0.5347  0.5313
  636MOL0     O83823   9.983   7.610   2.808  0.7995 -0.2420 -0.3287
  636MOL0     C83824  10.042   7.520   2.721  0.4730  0.2664  0.0570
  636MOL0     C83825  10.153   7.568   2.643  0.1642 -0.1085 -0.4812
  636MOL0     C83826  10.224   7.477   2.568  0.5678 -0.5065  0.3150
  636MOL0     C83827  10.173   7.347   2.542 -0.4606 -0.1531 -1.0999
  636MOL0     O83828  10.225   7.259   2.455  0.6992 -0.3465 -0.0344
  636MOL0     C83829  10.291   7.318   2.343  0.0723 -0.6728  0.3973
  636MOL0     C83830  10.443   7.329   2.339  0.0951 -0.0973  0.0252
  636MOL0     C83831  10.515   7.195   2.318  0.0771  0.2049  0.1151
  636MOL0     C83832  10.488   7.102   2.435  0.0411 -0.6723 -0.2854
  636MOL0     C83833  10.629   7.053   2.486 -0.1365 -0.8689  0.8186
  636MOL0     C83834  10.613   6.938   2.592 -0.2878  0.1587  0.9792
  636MOL0     C83835  10.552   6.804   2.560  0.0415 -0.0467  0.3567
  636MOL0     C83836  10.526   6.717   2.679 -0.2166  0.7653 -0.6595
  636MOL0     N83837  10.413   6.630   2.644 -0.1051  0.1036 -0.8326
  636MOL0     C83838  10.297   6.611   2.717  0.1836  0.4552 -0.2205
  636MOL0     C83839  10.234   6.512   2.657  0.4909 -0.3635 -0.0164
  636MOL0     C83840  10.098   6.461   2.692 -0.5357  0.4155 -0.1756
  636MOL0     C83841  10.115   6.310   2.700 -0.2670  0.2983 -0.4919
  636MOL0     C83842  10.006   6.229   2.775  0.2262 -0.2087 -1.0017
  636MOL0     C83843   9.858   6.253   2.724 -0.5845  0.3165 -0.3779
  636MOL0     O83844   9.786   6.357   2.804  1.0828  0.1784  0.7843
  636MOL0     C83845   9.648   6.355   2.799 -0.3416 -0.3850  0.0219
  636MOL0     C83846   9.577   6.448   2.883 -1.1469 -0.0028 -0.1591
  636MOL0     C83847   9.441   6.465   2.870 -0.2294  0.7981 -0.2037
  636MOL0     C83848   9.360   6.374   2.799  0.1547 -0.5713 -0.2640
  636MOL0     C83849   9.210   6.389   2.811  0.3197  0.2655  0.6914
  636MOL0     O83850   9.133   6.304   2.725  0.6543 -0.5251  0.2404
  636MOL0     C83851   9.001   6.294   2.756  0.9232  0.8309 -1.2534
  636MOL0     C83852   8.887   6.325   2.673 -1.1527 -0.5099  0.9179
  636MOL0     C83853   8.754   6.315   2.710  0.0927  0.1703  1.0286
  636MOL0     C83854   8.721   6.273   2.838 -0.4173 -0.4614  0.6913
  636MOL0     O83855   8.594   6.291   2.893 -0.1963 -0.5374 -0.4602
  636MOL0     C83856   8.491   6.242   2.815  0.8096  0.7814 -0.2515
  636MOL0     C83857   8.387   6.176   2.916  0.3276 -0.2976 -0.3136
  636MOL0     C83858   8.250   6.128   2.850  0.9122  0.6363  0.0081
  636MOL0     C83859   8.151   6.075   2.961 -1.0328  0.0464 -0.7018
  636MOL0     C83860   8.004   6.091   2.921 -0.1533  0.4256  0.2649
  636MOL0     C83861   7.918   5.996   3.016 -0.2912 -1.0384 -0.4741
  636MOL0     C83862   7.772   6.037   3.012 -0.8072 -0.2315  0.1006
  636MOL0     C83863   7.754   6.180   3.059  0.4968  0.7581  0.2335
  636MOL0    Cl83864   7.595   6.177   3.139 -0.0606 -0.0073 -0.8381
  636MOL0     C83865   8.820   6.250   2.930  0.3643  0.2225 -0.1958
  636MOL0     C83866   8.956   6.265   2.894  0.5067  0.8653 -0.1359
  636MOL0     O83867   9.166   6.472   2.895  0.0571  0.8486 -0.2078
  636MOL0     C83868   9.423   6.281   2.715 -0.5167  0.1697  0.1955
  636MOL0     C83869   9.566   6.268   2.715  0.6091 -0.3580  0.2143
  636MOL0     N83870  10.309   6.463   2.551  0.6931 -0.2081  0.3215
  636MOL0     N83871  10.416   6.538   2.546 -0.4136  0.6113  0.2148
  636MOL0     C83872  10.074   7.300   2.634  0.6800  0.4592 -0.5302
  636MOL0     C83873  10.008   7.384   2.726 -0.6910  0.6648 -0.1539
  636MOL0     C83874   9.865   7.826   2.842 -0.4573  0.2032  0.5177
  636MOL0     C83875   9.895   7.835   2.981  0.3169 -0.0398 -0.7547
  636MOL0     C83876   9.849   7.940   3.058 -0.5829  0.2695 -0.0607
  636MOL0     C83877   9.748   8.022   3.006  0.5075 -0.0491 -0.1999
  636MOL0     O83878   9.697   8.129   3.085  0.0030  0.1988 -0.1647
  636MOL0     C83879   9.571   8.187   3.064 -0.9624 -0.0195 -0.1928
  636MOL0     C83880   9.559   8.310   3.146  0.8249 -0.5740  0.2095
  636MOL0     C83881   9.656   8.414   3.082 -0.3305  0.1442  0.2386
  636MOL0     C83882   9.658   8.551   3.141  0.4110  0.0554  0.0185
  636MOL0     C83883   9.699   8.566   3.283 -0.8635 -0.3757  0.2671
  636MOL0     C83884   9.721   8.580   3.403  0.5083  0.4054  0.6096
  636MOL0     C83885   9.715   8.015   2.869 -0.3383 -0.4988  0.2642
  636MOL0     C83886   9.777   7.919   2.784 -0.7423  0.3265 -1.2353
  636MOL0     H83887  10.182   7.672   2.648  0.0833 -0.0832 -0.5267
  636MOL0     H83888  10.318   7.517   2.528 -0.3163 -0.9656 -2.4207
  636MOL0     H83889  10.252   7.419   2.332 -1.7557 -1.2309  1.4076
  636MOL0     H83890  10.256   7.266   2.253  0.8918 -0.1569 -0.2390
  636MOL0     H83891  10.483   7.369   2.432  1.4493  0.1371 -0.6389
  636MOL0     H83892  10.460   7.391   2.250 -2.2266  1.8702  0.8221
  636MOL0     H83893  10.621   7.223   2.309 -0.3642  2.1016  0.4662
  636MOL0     H83894  10.496   7.145   2.222  3.2800 -0.3848 -0.3580
  636MOL0     H83895  10.440   7.155   2.518 -1.8209 -2.4269 -0.1499
  636MOL0     H83896  10.415   7.026   2.406 -1.6236  0.9489 -0.4558
  636MOL0     H83897  10.689   7.130   2.534  1.1549  0.4319 -2.5739
  636MOL0     H83898  10.677   7.028   2.390 -1.4406  0.1870 -0.1504
  636MOL0     H83899  10.565   6.982   2.680 -1.4957 -0.5035  0.6805
  636MOL0     H83900  10.715   6.920   2.626 -0.7180 -1.2465  1.5961
  636MOL0     H83901  10.456   6.819   2.510 -0.2315  0.2248  0.9444
  636MOL0     H83902  10.621   6.756   2.490 -0.4310 -0.9365  0.4937
  636MOL0     H83903  10.496   6.775   2.767 -0.4958 -2.0510  1.2704
  636MOL0     H83904  10.620   6.665   2.697 -1.4360 -1.3539  0.0719
  636MOL0     H83905  10.262   6.661   2.807 -0.1836  1.0823 -0.7082
  636MOL0     H83906  10.021   6.480   2.617 -0.7990 -0.1563 -0.0583
  636MOL0     H83907  10.059   6.501   2.786 -2.2422 -1.9071  0.1942
  636MOL0     H83908  10.205   6.286   2.757  0.7903  0.3198 -2.0866
  636MOL0     H83909  10.126   6.273   2.597 -0.8196 -0.8017 -0.1678
  636MOL0     H83910  10.013   6.127   2.737 -4.9066 -0.6087 -1.5799
  636MOL0     H83911  10.018   6.231   2.884  0.1780  0.5125 -1.0055
  636MOL0     H83912   9.809   6.155   2.721  2.2885 -1.2408  0.2647
  636MOL0     H83913   9.859   6.295   2.623  0.3728  2.8493  0.6187
  636MOL0     H83914   9.639   6.516   2.940  0.4430 -1.4758 -0.0545
  636MOL0     H83915   9.404   6.544   2.934 -1.0724  2.5202 -2.7064
  636MOL0     H83916   8.910   6.352   2.570 -1.8321  1.4386  1.2340
  636MOL0     H83917   8.678   6.344   2.638 -0.1384 -2.4099  0.1207
  636MOL0     H83918   8.504   6.168   2.735 -3.3696  3.2970 -3.7191
  636MOL0     H83919   8.447   6.332   2.771  0.3104  0.6392 -0.0503
  636MOL0     H83920   8.360   6.254   2.988 -4.3315 -2.3928  0.5726
  636MOL0     H83921   8.438   6.096   2.969 -1.4314  0.2087  2.3537
  636MOL0     H83922   8.283   6.043   2.788  4.1240 -0.1097  2.4646
  636MOL0     H83923   8.195   6.201   2.789 -0.1335 -1.4935 -1.7599
  636MOL0     H83924   8.158   5.968   2.983 -1.2671 -0.2323 -1.8666
  636MOL0     H83925   8.157   6.136   3.051  0.0972  0.4053 -1.0044
  636MOL0     H83926   8.005   6.070   2.813  0.9278 -0.0701  0.3594
  636MOL0     H83927   7.972   6.195   2.927  1.2721  0.8426  1.2576
  636MOL0     H83928   7.950   6.006   3.120 -0.5979  2.1040 -0.5733
  636MOL0     H83929   7.929   5.892   2.985  0.7148 -1.2671  0.6038
  636MOL0     H83930   7.731   6.025   2.912  1.0298  1.3038 -0.8945
  636MOL0     H83931   7.719   5.968   3.078 -1.2797 -0.3866 -0.4380
  636MOL0     H83932   7.758   6.248   2.973 -0.7031  2.0743  1.1832
  636MOL0     H83933   7.837   6.210   3.124  0.3548 -1.4416  1.5221
  636MOL0     H83934   8.812   6.227   3.036  0.7780  0.1449 -0.1808
  636MOL0     H83935   9.039   6.248   2.963 -1.1334  0.7790  1.9155
  636MOL0     H83936   9.383   6.211   2.642  1.4178  0.2211 -0.9697
  636MOL0     H83937   9.610   6.200   2.643  0.1546  1.2635 -1.6783
  636MOL0     H83938  10.048   7.194   2.636  2.5580 -0.0253  0.2719
  636MOL0     H83939   9.946   7.350   2.808  0.9507  0.1857  0.9427
  636MOL0     H83940   9.967   7.763   3.019  0.2786  0.3827  0.1493
  636MOL0     H83941   9.870   7.937   3.165 -1.2726  0.0675  0.0767
  636MOL0     H83942   9.505   8.106   3.097  2.8633 -3.4864 -0.2803
  636MOL0     H83943   9.555   8.221   2.961 -2.6049  0.1432  0.0854
  636MOL0     H83944   9.459   8.352   3.131  1.0497 -0.4917 -1.2841
  636MOL0     H83945   9.580   8.283   3.250  0.6330  1.5644  0.8592
  636MOL0     H83946   9.624   8.420   2.977  1.6778 -2.3306 -0.5934
  636MOL0     H83947   9.760   8.383   3.076  0.5232  2.8967 -0.8018
  636MOL0     H83948   9.722   8.620   3.085  1.0454 -0.9770 -0.5658
  636MOL0     H83949   9.561   8.601   3.136  0.7986  0.8265  0.0226
  636MOL0     H83950   9.736   8.612   3.504 -1.3480 -0.5825  1.2520
  636MOL0     H83951   9.647   8.087   2.824  1.6610  1.0668 -0.4238
  636MOL0     H83952   9.763   7.914   2.677  0.7766 -2.9457 -1.3980
  637MOL0     O83953   8.111   6.487   2.783  0.2577  0.9969  0.0796
  637MOL0     C83954   8.106   6.410   2.689 -0.1244 -0.5659  0.5928
  637MOL0     O83955   8.011   6.315   2.656 -0.5824 -0.6704 -0.0533
  637MOL0     C83956   7.873   6.338   2.683  0.0498 -0.3212 -0.5334
  637MOL0     C83957   7.824   6.450   2.758 -0.3288  0.2721 -0.2953
  637MOL0     C83958   7.687   6.449   2.784 -0.4430  0.2005  0.8459
  637MOL0     C83959   7.606   6.350   2.728 -0.1258 -0.5996 -0.1338
  637MOL0     O83960   7.471   6.369   2.755 -1.3225  0.6275  0.1046
  637MOL0     C83961   7.407   6.241   2.777 -0.5036 -0.4563  0.4925
  637MOL0     C83962   7.278   6.271   2.835  0.5400  0.3685 -0.0041
  637MOL0     C83963   7.173   6.320   2.730  0.5584  0.2563  0.5811
  637MOL0     C83964   7.040   6.376   2.797  1.0694 -0.1173 -0.2372
  637MOL0     C83965   6.952   6.274   2.879 -0.2427 -0.4301  0.0182
  637MOL0     C83966   6.811   6.335   2.918 -0.0106 -0.1781  0.6312
  637MOL0     C83967   6.722   6.245   2.985 -0.2290 -0.4014  0.0666
  637MOL0     C83968   6.785   6.189   3.114  0.5500  0.1854  0.7263
  637MOL0     N83969   6.675   6.140   3.204 -0.5925  0.2494 -0.6576
  637MOL0     C83970   6.566   6.075   3.170 -0.1282 -0.0535  0.1730
  637MOL0     C83971   6.513   6.028   3.281 -0.9039  0.1734  0.1485
  637MOL0     C83972   6.390   5.944   3.293 -0.4203 -1.1090 -0.2917
  637MOL0     C83973   6.444   5.808   3.320 -0.3357 -0.5971 -0.1821
  637MOL0     C83974   6.326   5.722   3.353  0.9946  0.7937  0.0903
  637MOL0     C83975   6.273   5.752   3.502  0.1388 -0.2182 -0.1282
  637MOL0     O83976   6.152   5.665   3.529  0.2101 -0.3874 -0.1716
  637MOL0     C83977   6.030   5.704   3.490 -0.2911 -0.3681 -0.5903
  637MOL0     C83978   5.918   5.632   3.537  0.1102  0.0110  1.8080
  637MOL0     C83979   5.791   5.667   3.500  0.3783  0.0061 -0.9204
  637MOL0     C83980   5.772   5.785   3.425  0.1573 -0.3547 -0.2951
  637MOL0     C83981   5.631   5.829   3.398  0.1348  0.2259  0.6188
  637MOL0     O83982   5.535   5.769   3.463  0.3283 -0.8789  0.1492
  637MOL0     C83983   5.407   5.818   3.462  0.0826  0.6889 -0.4656
  637MOL0     C83984   5.365   5.952   3.478  0.1657  0.7030  0.2247
  637MOL0     C83985   5.232   5.983   3.467  0.8993 -0.0793  0.2073
  637MOL0     C83986   5.126   5.885   3.461  0.5493 -0.0973  0.4824
  637MOL0     O83987   4.988   5.902   3.443  0.5499 -0.3219 -0.0250
  637MOL0     C83988   4.935   6.025   3.497 -0.6292 -0.2926  0.1182
  637MOL0     C83989   4.798   6.020   3.442 -0.3214  0.1919 -0.0153
  637MOL0     C83990   4.713   6.145   3.470  0.3945  0.3937 -0.0003
  637MOL0     C83991   4.570   6.134   3.427  0.1838  0.0412  0.4263
  637MOL0     C83992   4.499   6.264   3.473  0.0706 -0.6427  0.1899
  637MOL0     C83993   4.350   6.266   3.458 -1.0205 -0.1497  0.5564
  637MOL0     C83994   4.311   6.274   3.305  0.2878  0.0312 -0.3716
  637MOL0     C83995   4.165   6.315   3.293 -0.3390  0.4562 -0.3365
  637MOL0    Cl83996   4.168   6.489   3.320 -0.4185 -0.3807 -0.2175
  637MOL0     C83997   5.168   5.754   3.462  0.3582  0.5708  0.1678
  637MOL0     C83998   5.305   5.720   3.460  0.1723 -0.4464 -0.0446
  637MOL0     O83999   5.615   5.919   3.321 -0.3708  0.3496  0.0724
  637MOL0     C84000   5.876   5.858   3.375 -0.3139 -0.3590 -1.0822
  637MOL0     C84001   6.004   5.818   3.412 -0.7814 -0.4899  0.7652
  637MOL0     N84002   6.593   6.074   3.387  0.6724  0.3480 -0.4200
  637MOL0     N84003   6.689   6.149   3.340 -0.3760 -0.1583  0.0872
  637MOL0     C84004   7.655   6.247   2.657 -0.7501 -0.9453  0.2004
  637MOL0     C84005   7.790   6.237   2.638 -0.1676  0.2972 -0.1256
  637MOL0     C84006   8.222   6.395   2.596  0.0414  0.0111 -0.5118
  637MOL0     C84007   8.258   6.275   2.528 -0.7548 -0.5982 -0.9506
  637MOL0     C84008   8.381   6.271   2.457  0.1312 -0.2374 -0.2247
  637MOL0     C84009   8.458   6.380   2.431 -0.8767 -0.5484 -0.3762
  637MOL0     O84010   8.570   6.360   2.357 -0.3340 -0.3035  0.1189
  637MOL0     C84011   8.676   6.463   2.356 -0.0972  0.6007 -0.1676
  637MOL0     C84012   8.765   6.418   2.250 -0.8014  0.4662  0.4105
  637MOL0     C84013   8.880   6.517   2.230 -0.8899  0.3515  0.2218
  637MOL0     C84014   8.956   6.503   2.094 -0.2923 -0.6783 -0.2436
  637MOL0     C84015   8.890   6.564   1.983  0.0570 -0.4738  0.3848
  637MOL0     C84016   8.829   6.600   1.890 -0.5470  0.4529 -0.2403
  637MOL0     C84017   8.420   6.501   2.498 -0.7342  0.5610  0.4665
  637MOL0     C84018   8.304   6.508   2.575 -0.2033  0.4686 -0.5805
  637MOL0     H84019   7.893   6.529   2.786  1.6701 -0.6255 -2.3500
  637MOL0     H84020   7.640   6.536   2.830  0.1852  0.4604  1.0111
  637MOL0     H84021   7.462   6.179   2.848  2.4081  0.3099 -0.9305
  637MOL0     H84022   7.390   6.191   2.681 -1.6094 -0.8188  0.8726
  637MOL0     H84023   7.286   6.346   2.915  0.1159  0.0065  0.3877
  637MOL0     H84024   7.238   6.176   2.872  0.5976 -1.1432 -3.4484
  637MOL0     H84025   7.158   6.243   2.653  2.3058 -2.2225  2.5278
  637MOL0     H84026   7.228   6.402   2.682  3.5564 -0.7289  2.0639
  637MOL0     H84027   7.069   6.458   2.864  2.8046 -0.9328  0.0663
  637MOL0     H84028   6.982   6.413   2.712  1.1671  0.0734 -0.2215
  637MOL0     H84029   7.009   6.254   2.970 -1.4416 -2.8774  0.3069
  637MOL0     H84030   6.941   6.183   2.820 -1.5652 -0.5223  0.3827
  637MOL0     H84031   6.762   6.383   2.833 -0.9607  0.8183  1.7126
  637MOL0     H84032   6.826   6.417   2.989 -1.5662 -2.0369  3.2943
  637MOL0     H84033   6.629   6.300   3.001  0.7875  0.9677  1.4810
  637MOL0     H84034   6.700   6.159   2.919 -0.7421  0.4377 -0.8915
  637MOL0     H84035   6.842   6.265   3.167 -1.4753  1.4045  1.2919
  637MOL0     H84036   6.844   6.099   3.096  0.6841 -0.0162  2.0378
  637MOL0     H84037   6.524   6.056   3.072 -1.7970  1.2276  0.5999
  637MOL0     H84038   6.330   5.933   3.202 -0.9908 -0.1438 -0.0492
  637MOL0     H84039   6.335   5.983   3.379  1.9810  2.0883 -0.0149
  637MOL0     H84040   6.517   5.807   3.401 -2.1132 -1.9321  1.4732
  637MOL0     H84041   6.500   5.771   3.233 -0.7508 -0.2296 -0.6163
  637MOL0     H84042   6.248   5.742   3.279  1.6585 -1.1785 -1.2118
  637MOL0     H84043   6.358   5.619   3.341 -0.7018 -0.0559  2.1468
  637MOL0     H84044   6.241   5.856   3.511 -2.3665 -0.7681 -1.5966
  637MOL0     H84045   6.345   5.730   3.581 -0.8421  4.2051  2.3310
  637MOL0     H84046   5.934   5.535   3.582  2.8872 -0.7841 -0.5956
  637MOL0     H84047   5.704   5.614   3.535 -0.1680 -0.0964 -2.3724
  637MOL0     H84048   5.449   6.021   3.475  1.0396 -0.3397 -1.8555
  637MOL0     H84049   5.214   6.089   3.455  1.8093  0.2664  1.7183
  637MOL0     H84050   4.981   6.117   3.460 -2.2541  0.7188  0.5018
  637MOL0     H84051   4.928   6.024   3.606 -0.7954 -0.1461  0.1105
  637MOL0     H84052   4.749   5.937   3.493  0.2981 -1.6115 -2.1853
  637MOL0     H84053   4.798   5.999   3.334  0.2249  2.0882 -0.4237
  637MOL0     H84054   4.760   6.235   3.428 -4.0331  1.0423 -4.4570
  637MOL0     H84055   4.714   6.165   3.578 -0.5475 -1.1869  0.3310
  637MOL0     H84056   4.560   6.114   3.320  1.3019 -1.5708  0.5785
  637MOL0     H84057   4.518   6.056   3.483  0.5300  0.2901  1.1047
  637MOL0     H84058   4.542   6.347   3.416 -1.0382  0.7657  1.3271
  637MOL0     H84059   4.527   6.268   3.579  2.3524 -0.9716 -0.3369
  637MOL0     H84060   4.296   6.340   3.519  0.7013  0.2424  1.6724
  637MOL0     H84061   4.311   6.177   3.507  0.0162 -1.5941 -1.1484
  637MOL0     H84062   4.377   6.333   3.241 -1.0721  1.1803 -0.7704
  637MOL0     H84063   4.326   6.175   3.261  1.8663 -0.3731  1.0019
  637MOL0     H84064   4.122   6.257   3.374 -1.0793  0.8597 -0.4294
  637MOL0     H84065   4.125   6.289   3.194 -3.3752  0.5708  0.7700
  637MOL0     H84066   5.096   5.673   3.463  1.5481 -0.5254  0.5779
  637MOL0     H84067   5.327   5.614   3.456 -1.6083 -0.9097  1.1372
  637MOL0     H84068   5.867   5.947   3.313  1.6980  1.1957  0.6954
  637MOL0     H84069   6.075   5.883   3.361 -0.0280  0.3703  2.7962
  637MOL0     H84070   7.590   6.179   2.604  0.4063 -0.6382 -1.7032
  637MOL0     H84071   7.838   6.149   2.596  0.0576 -0.5343  1.7718
  637MOL0     H84072   8.192   6.191   2.540 -1.0826 -0.2216 -0.0468
  637MOL0     H84073   8.406   6.176   2.411 -3.0711 -1.5511  0.5250
  637MOL0     H84074   8.721   6.462   2.455 -0.9701 -1.0484  0.2556
  637MOL0     H84075   8.633   6.559   2.326 -2.6225 -0.6643 -0.9226
  637MOL0     H84076   8.799   6.317   2.275 -2.1859 -0.2325 -0.3785
  637MOL0     H84077   8.706   6.411   2.158  1.4451 -2.2123 -0.9687
  637MOL0     H84078   8.950   6.498   2.312  0.1275 -2.2216 -1.1248
  637MOL0     H84079   8.843   6.620   2.228  0.6274  1.0926  3.4424
  637MOL0     H84080   9.057   6.544   2.101 -0.7107  0.5875 -1.3702
  637MOL0     H84081   8.966   6.398   2.064 -1.8031 -0.6791 -0.8102
  637MOL0     H84082   8.784   6.640   1.802  0.0719  2.2622  0.2271
  637MOL0     H84083   8.476   6.591   2.476 -0.6386  0.8016  1.6343
  637MOL0     H84084   8.277   6.604   2.616 -5.2683 -0.1557 -1.7874
  638MOL0     O84085   5.275   1.171   2.491 -0.4123 -0.5380  0.5132
  638MOL0     C84086   5.302   1.058   2.533  0.0522  0.3547  0.0618
  638MOL0     O84087   5.220   0.948   2.537  0.9114  0.2555 -0.2252
  638MOL0     C84088   5.089   0.959   2.501  0.2625 -0.1754 -0.4964
  638MOL0     C84089   5.014   0.851   2.469  0.0034  1.0430  0.0965
  638MOL0     C84090   4.878   0.843   2.441  0.2558 -0.4531 -0.1893
  638MOL0     C84091   4.799   0.955   2.468  0.2664 -0.1380 -0.2485
  638MOL0     O84092   4.665   0.936   2.442  0.2196 -0.5653  0.3055
  638MOL0     C84093   4.599   1.050   2.381  0.6200  0.7990  0.3496
  638MOL0     C84094   4.450   1.003   2.347  0.4594 -0.2854 -0.2331
  638MOL0     C84095   4.366   0.978   2.475  0.6577 -0.3998  0.7518
  638MOL0     C84096   4.283   1.092   2.524  0.9049  0.3467 -0.3754
  638MOL0     C84097   4.148   1.082   2.451  0.1236  0.7824 -0.4948
  638MOL0     C84098   4.070   0.965   2.496  0.4843  0.5575  0.1270
  638MOL0     C84099   3.915   0.977   2.484  0.1479 -0.8146 -0.2634
  638MOL0     C84100   3.854   1.061   2.605  0.4276  0.5475  0.3549
  638MOL0     N84101   3.712   1.079   2.561  0.0407 -0.2064  0.4998
  638MOL0     C84102   3.621   0.980   2.575 -0.6727  0.2427 -0.1061
  638MOL0     C84103   3.506   1.041   2.530 -0.3506  0.0956  0.5215
  638MOL0     C84104   3.381   0.967   2.514  0.3266  0.3476 -0.0072
  638MOL0     C84105   3.272   1.059   2.461 -0.1332  0.2191 -0.3094
  638MOL0     C84106   3.131   0.999   2.465  0.3529  0.1665  0.7435
  638MOL0     C84107   3.030   1.089   2.374  0.3614  0.5128 -0.3005
  638MOL0     O84108   2.892   1.037   2.377  0.2408  0.1510  0.2901
  638MOL0     C84109   2.817   1.041   2.490  0.5342  0.2678 -0.0949
  638MOL0     C84110   2.854   1.112   2.611  0.9553  0.3222 -0.0971
  638MOL0     C84111   2.768   1.093   2.720 -0.2619  0.0848  0.3843
  638MOL0     C84112   2.653   1.012   2.716  0.5325  0.2892 -0.5113
  638MOL0     C84113   2.565   0.988   2.836 -1.2743  0.5022  0.8895
  638MOL0     O84114   2.449   0.921   2.814 -0.4112  0.2420 -0.3728
  638MOL0     C84115   2.354   0.936   2.908 -0.6951 -0.0208 -0.5145
  638MOL0     C84116   2.315   1.066   2.937  0.8600  0.0257 -0.1581
  638MOL0     C84117   2.211   1.094   3.032  0.0731  0.2506 -0.6597
  638MOL0     C84118   2.159   0.991   3.117  0.5045  0.7177 -0.3436
  638MOL0     O84119   2.070   1.020   3.223 -0.0462 -0.0330 -0.0312
  638MOL0     C84120   2.064   0.930   3.338  0.0567 -0.5042 -0.4934
  638MOL0     C84121   1.963   0.987   3.438 -0.0872  0.7294 -0.0838
  638MOL0     C84122   1.918   0.880   3.546 -0.0242 -0.9547  0.1817
  638MOL0     C84123   1.794   0.943   3.628  0.7122 -0.0463 -0.2769
  638MOL0     C84124   1.772   0.840   3.741  0.6094  0.1543  0.1256
  638MOL0     C84125   1.638   0.872   3.814 -0.3597 -0.6504  0.5254
  638MOL0     C84126   1.607   0.778   3.934  0.1646  0.5633 -0.2605
  638MOL0     C84127   1.496   0.804   4.038 -0.1470  0.0365  1.1199
  638MOL0    Cl84128   1.398   0.956   3.994 -0.2951 -0.0232 -0.3665
  638MOL0     C84129   2.193   0.859   3.073 -0.0136  0.6560 -0.4858
  638MOL0     C84130   2.292   0.832   2.974 -0.1537  0.4898  0.1483
  638MOL0     O84131   2.609   1.032   2.940 -0.5943 -0.1336  0.1264
  638MOL0     C84132   2.620   0.943   2.599 -0.2305  0.1068 -0.8337
  638MOL0     C84133   2.702   0.961   2.488  0.0899  0.2223 -0.0316
  638MOL0     N84134   3.541   1.168   2.476  0.2633 -0.4841 -0.7353
  638MOL0     N84135   3.664   1.187   2.490 -1.1740  0.2632 -0.6262
  638MOL0     C84136   4.861   1.073   2.509  0.2864 -0.1126 -0.1406
  638MOL0     C84137   5.002   1.078   2.522 -0.3818 -0.5772 -0.8859
  638MOL0     C84138   5.445   1.042   2.578 -0.7852  0.2443  0.1828
  638MOL0     C84139   5.505   1.132   2.658 -0.2422 -0.8323 -0.8700
  638MOL0     C84140   5.638   1.123   2.698 -0.5137  0.4820 -0.7588
  638MOL0     C84141   5.710   1.011   2.657  0.1759 -0.2310  0.8038
  638MOL0     O84142   5.842   0.990   2.696 -0.5591 -0.4247 -0.5017
  638MOL0     C84143   5.942   1.041   2.606  0.1083  1.5292 -0.5860
  638MOL0     C84144   6.027   0.921   2.557 -0.0161 -0.7362 -0.1732
  638MOL0     C84145   6.132   0.973   2.458 -0.6975 -0.4981  0.3523
  638MOL0     C84146   6.264   0.902   2.468 -0.5445  0.4376 -0.8645
  638MOL0     C84147   6.357   0.959   2.579  0.1092  0.2841 -0.0924
  638MOL0     C84148   6.438   1.008   2.654 -0.5756 -0.5559  0.1318
  638MOL0     C84149   5.657   0.926   2.568  0.5784 -0.2006  0.2438
  638MOL0     C84150   5.523   0.933   2.529 -0.4856 -0.7307 -0.6597
  638MOL0     H84151   5.067   0.758   2.451  1.9881  1.6033  2.5788
  638MOL0     H84152   4.837   0.748   2.408 -0.3258 -0.1716 -0.3039
  638MOL0     H84153   4.648   1.082   2.289 -0.0734 -3.4012 -1.6865
  638MOL0     H84154   4.578   1.121   2.463 -0.3120  1.4691 -0.4446
  638MOL0     H84155   4.435   0.917   2.280 -2.0366  0.7619 -1.1426
  638MOL0     H84156   4.410   1.085   2.288  3.4581  1.7368  0.3555
  638MOL0     H84157   4.433   0.949   2.558  2.1234 -1.1813 -0.6315
  638MOL0     H84158   4.301   0.892   2.454 -2.3200  2.1515 -1.3184
  638MOL0     H84159   4.253   1.096   2.629 -1.6884  0.5448 -1.0613
  638MOL0     H84160   4.322   1.193   2.504 -1.7546  1.0953 -2.3785
  638MOL0     H84161   4.178   1.081   2.346 -1.2332  1.4564 -0.9127
  638MOL0     H84162   4.093   1.172   2.480 -0.3853 -0.0043  1.1813
  638MOL0     H84163   4.093   0.946   2.601  1.0837  2.6027  0.4104
  638MOL0     H84164   4.092   0.878   2.433  1.4703  0.0786  1.1089
  638MOL0     H84165   3.892   1.019   2.386 -2.9731  0.2234  0.8050
  638MOL0     H84166   3.867   0.879   2.487  1.3458 -1.4484 -1.1083
  638MOL0     H84167   3.899   1.160   2.600 -0.8620  1.1070 -3.0096
  638MOL0     H84168   3.866   1.005   2.698 -2.0229 -1.7218 -0.5630
  638MOL0     H84169   3.640   0.884   2.623 -0.7001 -0.6585 -1.8023
  638MOL0     H84170   3.349   0.916   2.605  1.1300 -1.6764 -0.8112
  638MOL0     H84171   3.401   0.894   2.436  0.5104  0.9467 -0.5280
  638MOL0     H84172   3.297   1.095   2.361  0.6548  2.6464  0.6831
  638MOL0     H84173   3.271   1.156   2.512 -0.7568  0.1170 -0.1173
  638MOL0     H84174   3.137   0.898   2.424 -0.6663  0.3331  0.1627
  638MOL0     H84175   3.103   0.990   2.570  0.9260  0.3521  0.9163
  638MOL0     H84176   3.071   1.092   2.273 -2.4335 -1.8162 -1.6604
  638MOL0     H84177   3.026   1.190   2.417  2.5744 -0.9235  3.8803
  638MOL0     H84178   2.948   1.166   2.608  1.5845 -0.7492 -0.1551
  638MOL0     H84179   2.794   1.158   2.802  0.8047 -0.9427  0.8902
  638MOL0     H84180   2.363   1.149   2.885  0.1561  0.7936  0.3840
  638MOL0     H84181   2.203   1.199   3.056  2.7709  0.7277 -1.5665
  638MOL0     H84182   2.165   0.931   3.378 -0.9562  0.7838  2.3456
  638MOL0     H84183   2.029   0.836   3.296 -0.8312  0.0764 -1.1070
  638MOL0     H84184   1.876   1.018   3.379  0.2238  1.3147 -0.2468
  638MOL0     H84185   1.998   1.080   3.484  2.9370  0.6095 -1.9444
  638MOL0     H84186   2.004   0.861   3.610 -1.5493 -1.2694  2.2589
  638MOL0     H84187   1.894   0.788   3.492 -0.9148 -1.2759  1.0889
  638MOL0     H84188   1.805   1.044   3.668 -0.9143 -1.1290  3.4332
  638MOL0     H84189   1.705   0.940   3.564 -0.1880  2.4925  0.7031
  638MOL0     H84190   1.854   0.854   3.812 -0.5943  0.6916  1.4525
  638MOL0     H84191   1.783   0.741   3.697  1.1859  0.9598 -1.6507
  638MOL0     H84192   1.555   0.866   3.744 -0.7776  2.9901  0.4954
  638MOL0     H84193   1.628   0.973   3.856  0.4849  0.5766 -2.0429
  638MOL0     H84194   1.576   0.685   3.886  0.4995  0.6302 -0.6071
  638MOL0     H84195   1.697   0.753   3.992  0.8430 -1.0133 -1.9078
  638MOL0     H84196   1.548   0.821   4.133 -0.3810 -0.7830  1.4033
  638MOL0     H84197   1.436   0.714   4.048 -2.2796  0.8099 -2.6295
  638MOL0     H84198   2.150   0.770   3.116  1.9890 -0.2022 -0.1259
  638MOL0     H84199   2.318   0.732   2.940  1.8665  1.7364 -2.2443
  638MOL0     H84200   2.541   0.869   2.593 -2.4361  2.0792  1.4213
  638MOL0     H84201   2.685   0.889   2.408  0.0259  0.3688 -0.1496
  638MOL0     H84202   4.795   1.152   2.541 -1.2403 -0.0599 -3.0689
  638MOL0     H84203   5.036   1.170   2.569  1.1300 -1.1801 -0.7352
  638MOL0     H84204   5.442   1.211   2.696 -1.2563 -1.7567 -0.6098
  638MOL0     H84205   5.669   1.204   2.763 -2.1468 -0.1831  0.9502
  638MOL0     H84206   6.003   1.122   2.648 -1.3006  2.2781  0.0672
  638MOL0     H84207   5.892   1.077   2.516 -1.2930 -0.7513 -0.7885
  638MOL0     H84208   6.077   0.875   2.643 -1.0367  0.4962  1.1170
  638MOL0     H84209   5.963   0.853   2.500 -0.7743  0.6778 -1.0825
  638MOL0     H84210   6.157   1.077   2.482  0.0172 -0.5051 -0.3347
  638MOL0     H84211   6.099   0.966   2.354 -2.1919 -2.9130  0.8953
  638MOL0     H84212   6.242   0.795   2.477  0.7099 -0.0450 -3.0176
  638MOL0     H84213   6.318   0.914   2.374  0.3002 -1.6901 -0.6941
  638MOL0     H84214   6.511   1.060   2.713 -0.1677  1.3039 -1.8987
  638MOL0     H84215   5.715   0.842   2.533 -2.6269 -1.7962 -1.6468
  638MOL0     H84216   5.473   0.860   2.466 -0.0627 -1.1405 -0.5219
  639MOL0     O84217   3.654   5.489   2.428 -0.4002 -0.6645  0.6234
  639MOL0     C84218   3.629   5.576   2.348 -0.0061  0.2989  0.6156
  639MOL0     O84219   3.703   5.628   2.247  0.0356  0.1358  0.3529
  639MOL0     C84220   3.833   5.579   2.223  0.2978  0.6034  0.8248
  639MOL0     C84221   3.868   5.534   2.094  1.0068  0.3273  0.8192
  639MOL0     C84222   3.993   5.477   2.064  0.6303 -0.9512  0.8258
  639MOL0     C84223   4.084   5.459   2.167 -0.8120 -0.0899  0.7574
  639MOL0     O84224   4.211   5.399   2.139  0.6190 -0.1605  0.6580
  639MOL0     C84225   4.268   5.307   2.240  0.9416 -0.5053 -0.1811
  639MOL0     C84226   4.390   5.235   2.183 -0.6558  0.5968  0.7592
  639MOL0     C84227   4.357   5.124   2.078  0.0095 -0.5108 -0.4418
  639MOL0     C84228   4.481   5.059   2.023 -0.9310 -0.3102  0.5221
  639MOL0     C84229   4.458   4.936   1.938 -0.5720  1.3102  0.2052
  639MOL0     C84230   4.591   4.894   1.875  1.2304 -0.2027  0.2101
  639MOL0     C84231   4.690   4.817   1.967  0.5808  0.3388 -0.3866
  639MOL0     C84232   4.828   4.799   1.901 -0.4633 -0.3602  0.3121
  639MOL0     N84233   4.814   4.705   1.788  0.1715 -0.0283 -0.2387
  639MOL0     C84234   4.805   4.742   1.653 -0.6539 -0.0587 -0.7675
  639MOL0     C84235   4.806   4.629   1.585 -0.7568  0.6010  0.0673
  639MOL0     C84236   4.798   4.603   1.436  0.9521  0.5531  0.1348
  639MOL0     C84237   4.650   4.573   1.395  0.0075  0.6990 -0.1793
  639MOL0     C84238   4.561   4.694   1.388 -0.0767 -0.2675 -0.7100
  639MOL0     C84239   4.410   4.666   1.387  0.2257  0.0872  0.2106
  639MOL0     O84240   4.348   4.791   1.396  0.4917 -0.7282 -0.3912
  639MOL0     C84241   4.239   4.803   1.476 -0.4982  1.4285  0.9297
  639MOL0     C84242   4.245   4.823   1.614  0.3465 -0.0665 -0.6743
  639MOL0     C84243   4.129   4.828   1.683 -0.6223 -0.5998 -0.7628
  639MOL0     C84244   4.004   4.819   1.632  0.2475  0.2940  0.0761
  639MOL0     C84245   3.893   4.852   1.721 -0.3260  0.2264 -0.2097
  639MOL0     O84246   3.769   4.854   1.662  0.2456 -0.1934 -0.3821
  639MOL0     C84247   3.647   4.885   1.722 -0.8903  0.2807 -0.0551
  639MOL0     C84248   3.627   4.958   1.837  0.1401  0.2186  0.0554
  639MOL0     C84249   3.502   4.980   1.887  0.4948  0.1488  0.2933
  639MOL0     C84250   3.391   4.920   1.827  1.0236 -0.2945  0.6113
  639MOL0     O84251   3.269   4.954   1.883 -0.0540  0.4965  0.0743
  639MOL0     C84252   3.164   4.983   1.784  0.3606  0.1052 -0.3630
  639MOL0     C84253   3.029   5.006   1.858 -0.3674 -0.2760 -1.1291
  639MOL0     C84254   2.984   4.882   1.934  0.4159  1.1360  0.6368
  639MOL0     C84255   2.841   4.878   1.982 -0.2220  0.1649 -0.6493
  639MOL0     C84256   2.730   4.851   1.885 -0.7203 -0.4838 -0.1346
  639MOL0     C84257   2.585   4.857   1.943 -0.7661  0.4884  0.1468
  639MOL0     C84258   2.508   4.775   1.843  0.3084 -0.2242  0.4482
  639MOL0     C84259   2.374   4.743   1.906 -0.5966  0.2200  0.7219
  639MOL0    Cl84260   2.257   4.660   1.795  0.1233 -0.4054  0.2092
  639MOL0     C84261   3.411   4.839   1.713 -0.2306  0.3905 -0.4328
  639MOL0     C84262   3.537   4.826   1.661 -1.0008 -0.2813 -0.0611
  639MOL0     O84263   3.914   4.874   1.841  0.0502  0.5976 -0.3252
  639MOL0     C84264   3.996   4.788   1.493  0.2638 -1.0703 -0.5430
  639MOL0     C84265   4.116   4.779   1.415 -0.1768  0.2724  1.2797
  639MOL0     N84266   4.815   4.522   1.674 -0.7448  0.0996 -0.4667
  639MOL0     N84267   4.824   4.569   1.792  0.8284  0.2554 -0.2377
  639MOL0     C84268   4.050   5.512   2.293 -0.5298  0.3556  0.9512
  639MOL0     C84269   3.922   5.559   2.320 -0.1448 -0.3124  0.2562
  639MOL0     C84270   3.482   5.606   2.346 -0.4436 -1.4960 -0.0256
  639MOL0     C84271   3.416   5.622   2.218  0.4821  0.0948 -0.7737
  639MOL0     C84272   3.276   5.653   2.223 -0.1852  0.0309 -0.1594
  639MOL0     C84273   3.207   5.661   2.348  0.3415 -0.0610  0.5812
  639MOL0     O84274   3.074   5.684   2.350 -0.1716  0.0261  0.0706
  639MOL0     C84275   2.996   5.715   2.234  0.5917  0.1732 -0.6079
  639MOL0     C84276   2.849   5.746   2.262 -0.4402 -0.8796 -0.0056
  639MOL0     C84277   2.785   5.628   2.334 -0.1037  0.0505  0.1861
  639MOL0     C84278   2.643   5.649   2.362  1.6104 -0.1129 -1.1033
  639MOL0     C84279   2.631   5.747   2.470  0.0561  0.1555 -0.3534
  639MOL0     C84280   2.608   5.834   2.553  0.4251  0.6395 -0.4869
  639MOL0     C84281   3.285   5.657   2.465  0.1924  0.2409 -0.2186
  639MOL0     C84282   3.419   5.626   2.466  0.2368 -0.6042  0.1242
  639MOL0     H84283   3.796   5.547   2.014  1.0185  0.1873  0.7845
  639MOL0     H84284   4.011   5.448   1.961  0.8446  1.0015  0.2728
  639MOL0     H84285   4.196   5.229   2.266  3.4089 -2.2607  1.9683
  639MOL0     H84286   4.285   5.370   2.328 -0.6678 -0.3089  0.0196
  639MOL0     H84287   4.439   5.177   2.262 -0.0020 -2.3282 -1.6465
  639MOL0     H84288   4.460   5.308   2.141  1.8432 -2.7634 -1.4994
  639MOL0     H84289   4.286   5.162   2.004 -1.0084  0.9498  1.2116
  639MOL0     H84290   4.296   5.052   2.135 -0.4283 -0.8143 -1.2750
  639MOL0     H84291   4.523   5.137   1.959 -0.0272  1.0117  2.5910
  639MOL0     H84292   4.541   5.038   2.112 -1.7202 -1.1519  0.8755
  639MOL0     H84293   4.391   4.962   1.855  2.2894  0.3071 -2.6334
  639MOL0     H84294   4.425   4.848   1.992  0.6459  0.3407 -0.5630
  639MOL0     H84295   4.635   4.982   1.827 -1.4520  2.2065  1.8194
  639MOL0     H84296   4.562   4.823   1.798 -0.0804  0.7072 -0.1764
  639MOL0     H84297   4.700   4.859   2.067  0.5599  0.4897 -0.4471
  639MOL0     H84298   4.655   4.716   1.993  0.1556  0.3939 -0.7280
  639MOL0     H84299   4.901   4.755   1.970  0.8772  0.8388 -0.2922
  639MOL0     H84300   4.864   4.898   1.872 -0.3991 -0.3309  0.4854
  639MOL0     H84301   4.813   4.842   1.611  0.1681 -0.4073 -1.4485
  639MOL0     H84302   4.860   4.524   1.394  2.0218  2.5889 -2.4376
  639MOL0     H84303   4.834   4.692   1.382 -1.6898  1.7820  0.2426
  639MOL0     H84304   4.600   4.502   1.462 -1.5052  2.7234  0.9495
  639MOL0     H84305   4.656   4.525   1.296 -1.5521 -2.6308  1.1971
  639MOL0     H84306   4.586   4.753   1.477 -1.7224 -0.3458 -0.1565
  639MOL0     H84307   4.597   4.738   1.294  1.2114 -2.3383 -1.2518
  639MOL0     H84308   4.385   4.601   1.471  2.9244  0.7109  1.6123
  639MOL0     H84309   4.396   4.611   1.293  0.8776  4.6240 -2.8551
  639MOL0     H84310   4.340   4.829   1.667 -0.0238 -0.6666  0.0844
  639MOL0     H84311   4.145   4.827   1.791 -1.3672 -0.1223 -0.6439
  639MOL0     H84312   3.712   4.995   1.894 -0.2406  2.2817 -0.6122
  639MOL0     H84313   3.478   5.047   1.969  1.0071  3.0123 -1.7614
  639MOL0     H84314   3.145   4.897   1.719 -1.8114  1.7359 -2.0812
  639MOL0     H84315   3.201   5.071   1.730  2.0222  0.8365  1.8231
  639MOL0     H84316   2.947   5.028   1.789 -0.8797 -1.5593 -0.9386
  639MOL0     H84317   3.028   5.096   1.921 -2.7661 -2.2300  1.8627
  639MOL0     H84318   3.047   4.862   2.022  0.5776  0.4943  0.3747
  639MOL0     H84319   2.984   4.803   1.859 -1.7363  2.0611 -0.4155
  639MOL0     H84320   2.830   4.806   2.064 -2.7994  2.0299  0.7909
  639MOL0     H84321   2.814   4.976   2.022  3.9358  0.9866  0.5932
  639MOL0     H84322   2.750   4.747   1.859  0.5135 -0.3719  0.3350
  639MOL0     H84323   2.739   4.924   1.803 -0.2608 -0.7829 -0.3510
  639MOL0     H84324   2.559   4.963   1.948 -0.2289  0.6483 -0.2723
  639MOL0     H84325   2.573   4.819   2.044 -2.5622  1.5653  0.3733
  639MOL0     H84326   2.510   4.837   1.753 -1.1125 -2.1087 -0.9789
  639MOL0     H84327   2.560   4.681   1.820  0.7293 -1.1799  4.5518
  639MOL0     H84328   2.333   4.834   1.951 -0.4301 -0.3013  1.9539
  639MOL0     H84329   2.384   4.665   1.982  0.2032  0.1165  0.5274
  639MOL0     H84330   3.325   4.786   1.673 -0.6827  1.4864 -0.9541
  639MOL0     H84331   3.545   4.764   1.573  1.8945  0.7146 -0.6104
  639MOL0     H84332   3.903   4.781   1.437 -1.1056 -0.5595  1.5599
  639MOL0     H84333   4.109   4.764   1.308 -0.0302  0.3268  1.2634
  639MOL0     H84334   4.120   5.497   2.374  0.2758 -1.8970 -0.0713
  639MOL0     H84335   3.901   5.590   2.422  1.3267  0.8521  0.2436
  639MOL0     H84336   3.463   5.619   2.120 -3.4073  2.5782 -2.9820
  639MOL0     H84337   3.212   5.663   2.136 -3.3867 -0.7742  1.9478
  639MOL0     H84338   2.991   5.616   2.187 -1.2272 -1.5976  2.9312
  639MOL0     H84339   3.039   5.795   2.173 -0.0733 -0.9174 -2.6064
  639MOL0     H84340   2.847   5.840   2.318 -0.9171 -1.6497  1.3250
  639MOL0     H84341   2.800   5.755   2.165  3.2950  0.5329 -1.9581
  639MOL0     H84342   2.838   5.602   2.427 -0.2821 -0.1699  0.2279
  639MOL0     H84343   2.801   5.540   2.271 -0.5557  0.9211 -1.1636
  639MOL0     H84344   2.584   5.687   2.278  0.3188  2.2328  0.7258
  639MOL0     H84345   2.598   5.551   2.383  1.2440 -0.1488 -2.0087
  639MOL0     H84346   2.596   5.904   2.633  2.4438 -0.9474  1.2975
  639MOL0     H84347   3.230   5.679   2.556 -1.7895 -0.0481 -1.3004
  639MOL0     H84348   3.472   5.631   2.561  0.2027  1.8773  0.0767
  640MOL0     O84349   9.114   6.627  10.692 -0.3159 -0.0156 -0.3992
  640MOL0     C84350   9.172   6.720  10.642 -0.0944  0.2380 -0.4891
  640MOL0     O84351   9.119   6.846  10.611  0.4912  0.2148 -0.6064
  640MOL0     C84352   8.993   6.880  10.635 -0.1229 -0.4014 -0.2669
  640MOL0     C84353   8.977   7.020  10.605  0.4053 -0.5499 -0.4991
  640MOL0     C84354   8.855   7.088  10.616 -0.0907 -0.3711 -0.2905
  640MOL0     C84355   8.745   7.016  10.681 -0.0157 -0.1596  0.1310
  640MOL0     O84356   8.634   7.084  10.697 -0.4277  0.1801  0.5758
  640MOL0     C84357   8.539   7.039  10.801 -0.4099 -0.1326 -0.5045
  640MOL0     C84358   8.461   7.157  10.858 -1.0069  0.0891  0.2091
  640MOL0     C84359   8.380   7.119  10.988  0.2066  0.1035  0.5844
  640MOL0     C84360   8.283   7.218  11.037 -0.7440 -1.0541  0.3208
  640MOL0     C84361   8.230   7.183  11.177  0.4148 -0.3286  0.6702
  640MOL0     C84362   8.116   7.275  11.213  0.1987 -0.5783  0.0175
  640MOL0     C84363   8.076   7.279  11.362 -0.2691 -0.2431  0.0851
  640MOL0     C84364   8.180   7.332  11.464  0.4131 -0.1109  0.0288
  640MOL0     N84365   8.135   7.325  11.605  1.0266  1.1499  0.1474
  640MOL0     C84366   8.064   7.222  11.659 -0.1304 -0.1357  0.2429
  640MOL0     C84367   8.015   7.274  11.775  0.3974  0.7775 -0.3859
  640MOL0     C84368   7.925   7.209  11.868  0.0408  1.1200 -0.3799
  640MOL0     C84369   7.775   7.236  11.827 -0.2453  0.0288 -0.1388
  640MOL0     C84370   7.746   7.127  11.715 -0.2597 -0.0205  0.0716
  640MOL0     C84371   7.602   7.135  11.666 -0.0144  0.7858 -0.2568
  640MOL0     O84372   7.511   7.093  11.771 -0.0312 -0.3697 -0.4418
  640MOL0     C84373   7.379   7.100  11.740 -0.8714 -0.5998  0.2009
  640MOL0     C84374   7.314   7.153  11.628  0.2752  0.4837  0.3688
  640MOL0     C84375   7.169   7.134  11.616  0.4409 -0.0128  0.7930
  640MOL0     C84376   7.089   7.074  11.709 -0.0758  0.1326 -0.8039
  640MOL0     C84377   6.942   7.059  11.695 -0.4573  0.5872  0.2674
  640MOL0     O84378   6.893   7.097  11.577  0.0159 -0.3264  0.9029
  640MOL0     C84379   6.758   7.082  11.560  0.8222  0.1297  0.4564
  640MOL0     C84380   6.680   7.189  11.520  0.6076  0.5183  0.1347
  640MOL0     C84381   6.545   7.165  11.472  0.1684 -0.4432  0.7613
  640MOL0     C84382   6.506   7.036  11.447  0.5066  0.5235 -1.1143
  640MOL0     O84383   6.383   7.013  11.394  0.0624 -0.8450  0.3057
  640MOL0     C84384   6.336   7.116  11.298 -0.0952  0.2314 -0.1303
  640MOL0     C84385   6.220   7.060  11.214 -0.2166  0.1768  0.8426
  640MOL0     C84386   6.125   7.171  11.155  0.1637 -0.5488 -0.0325
  640MOL0     C84387   6.002   7.122  11.071  0.1880  0.0169  0.1459
  640MOL0     C84388   6.054   7.030  10.949  0.3367  0.0081  0.5584
  640MOL0     C84389   5.951   6.993  10.847  0.8231  0.2290  0.5325
  640MOL0     C84390   5.840   6.903  10.906  0.4385 -0.0687  0.3647
  640MOL0     C84391   5.796   6.810  10.792  0.2676 -0.5209 -0.1144
  640MOL0    Cl84392   5.664   6.715  10.860  0.2157 -0.0975 -0.3491
  640MOL0     C84393   6.583   6.922  11.496  0.6954 -0.4102 -0.8309
  640MOL0     C84394   6.706   6.947  11.555  0.1657 -0.3349 -0.8071
  640MOL0     O84395   6.875   7.026  11.791  0.1913  0.0543 -0.2270
  640MOL0     C84396   7.158   7.031  11.827  0.0948 -0.3001 -0.6757
  640MOL0     C84397   7.298   7.045  11.835  0.0884 -0.8486 -0.0107
  640MOL0     N84398   8.067   7.401  11.795 -0.4138 -0.6511 -0.1573
  640MOL0     N84399   8.127   7.432  11.688  0.2135 -0.0267  0.7086
  640MOL0     C84400   8.763   6.876  10.723  0.5552  0.2832  0.5950
  640MOL0     C84401   8.885   6.818  10.698 -0.2345  0.8095 -0.5778
  640MOL0     C84402   9.312   6.693  10.624 -0.2040  0.2725 -0.0021
  640MOL0     C84403   9.402   6.801  10.597 -1.0498 -0.0897  0.0913
  640MOL0     C84404   9.545   6.781  10.582  0.4391 -0.3642 -0.3308
  640MOL0     C84405   9.591   6.652  10.567 -0.1149 -0.2752 -0.2126
  640MOL0     O84406   9.723   6.637  10.537  0.3111 -0.0223  0.1995
  640MOL0     C84407   9.795   6.507  10.546 -0.2971 -0.7708 -0.5982
  640MOL0     C84408   9.943   6.529  10.548 -0.2096  0.4365 -0.1184
  640MOL0     C84409   9.991   6.622  10.653  0.0085 -0.0977  0.2844
  640MOL0     C84410  10.129   6.582  10.709 -0.7694 -0.0391  0.1010
  640MOL0     C84411  10.241   6.603  10.612  0.2143 -0.4303 -0.1791
  640MOL0     C84412  10.340   6.606  10.545 -0.0310  0.2886  0.1468
  640MOL0     C84413   9.505   6.545  10.602 -0.3315 -0.1701  0.5108
  640MOL0     C84414   9.370   6.564  10.630 -0.4679 -0.3519 -0.1257
  640MOL0     H84415   9.061   7.087  10.587  1.5212 -1.7996 -0.0863
  640MOL0     H84416   8.849   7.185  10.569 -1.6252 -1.7597 -3.2124
  640MOL0     H84417   8.591   6.984  10.880 -2.6119  0.5021  1.4940
  640MOL0     H84418   8.476   6.966  10.751 -0.4495  0.0443 -0.7124
  640MOL0     H84419   8.388   7.181  10.781 -2.8700 -0.4079  1.7474
  640MOL0     H84420   8.527   7.242  10.879 -0.7059 -0.3709  1.1821
  640MOL0     H84421   8.460   7.098  11.060  0.2000  1.4554  1.0214
  640MOL0     H84422   8.331   7.024  10.965  0.5605  0.0515  0.0256
  640MOL0     H84423   8.325   7.319  11.032  0.7410 -1.6724 -0.4331
  640MOL0     H84424   8.195   7.209  10.973 -3.4581  3.0272  3.0403
  640MOL0     H84425   8.318   7.197  11.241 -0.1947  3.0683  0.9434
  640MOL0     H84426   8.194   7.080  11.169 -1.2223  0.3240 -1.2442
  640MOL0     H84427   8.032   7.246  11.149  0.5113 -2.0344  0.2359
  640MOL0     H84428   8.152   7.376  11.191 -2.3399  0.1398 -1.2920
  640MOL0     H84429   7.995   7.351  11.367  2.0536  2.4891  0.9171
  640MOL0     H84430   8.023   7.189  11.394 -3.8754  2.1930  1.5995
  640MOL0     H84431   8.204   7.433  11.431 -1.0591  0.0196 -0.7247
  640MOL0     H84432   8.267   7.266  11.451 -0.3867 -0.9824 -1.0834
  640MOL0     H84433   8.047   7.124  11.614  1.4019 -0.8218  1.0856
  640MOL0     H84434   7.950   7.258  11.962  0.2211  3.7177 -1.6819
  640MOL0     H84435   7.950   7.103  11.878 -0.3388  1.0218 -0.4344
  640MOL0     H84436   7.763   7.338  11.791  0.6640  1.2083  2.6599
  640MOL0     H84437   7.714   7.214  11.915 -1.3909 -0.3356 -0.9941
  640MOL0     H84438   7.803   7.156  11.626  1.5722 -0.5476  1.0357
  640MOL0     H84439   7.773   7.025  11.743 -0.0526 -0.2821 -1.0114
  640MOL0     H84440   7.602   7.056  11.591  1.7536 -2.1492  2.5778
  640MOL0     H84441   7.577   7.235  11.629  2.9417  1.8545  0.4165
  640MOL0     H84442   7.367   7.203  11.548  1.2065 -0.3202  0.4707
  640MOL0     H84443   7.120   7.181  11.532  0.7508  1.6256  1.4969
  640MOL0     H84444   6.719   7.290  11.533 -0.1110  0.5125  2.8715
  640MOL0     H84445   6.484   7.250  11.443  0.3852  0.1288  1.9341
  640MOL0     H84446   6.421   7.152  11.240 -0.3331  2.3666  0.7428
  640MOL0     H84447   6.305   7.208  11.348  0.2515  0.7550 -0.8650
  640MOL0     H84448   6.153   7.013  11.287 -1.5650  0.5264 -0.1265
  640MOL0     H84449   6.252   6.995  11.132 -2.7561 -1.0887  0.7453
  640MOL0     H84450   6.185   7.238  11.093 -1.9337 -0.0001 -1.6221
  640MOL0     H84451   6.083   7.222  11.242  0.4426 -3.2589  1.8074
  640MOL0     H84452   5.934   7.067  11.136  0.2866  0.2359  0.4345
  640MOL0     H84453   5.944   7.205  11.031  0.0501 -1.7062 -3.8145
  640MOL0     H84454   6.102   6.939  10.986 -1.1543 -0.4243  1.5367
  640MOL0     H84455   6.126   7.098  10.902 -1.2405  2.7620  1.8510
  640MOL0     H84456   5.996   6.925  10.775 -1.8125  0.2235 -1.2402
  640MOL0     H84457   5.918   7.080  10.790 -1.1998 -1.2537 -0.6873
  640MOL0     H84458   5.876   6.841  10.989 -0.4022 -0.3195  0.5427
  640MOL0     H84459   5.758   6.965  10.941 -0.3421 -0.3792 -0.8565
  640MOL0     H84460   5.878   6.753  10.747 -0.8247 -1.2403 -1.2416
  640MOL0     H84461   5.756   6.868  10.710  0.1412  0.6451  0.7496
  640MOL0     H84462   6.531   6.827  11.488 -1.1743  0.2978  1.6859
  640MOL0     H84463   6.772   6.867  11.586 -0.6339  0.4706  3.6630
  640MOL0     H84464   7.114   6.974  11.908  0.7731 -0.5571 -0.4793
  640MOL0     H84465   7.346   7.005  11.924  1.8023  2.7667  0.8656
  640MOL0     H84466   8.675   6.828  10.767 -0.4630  2.2843  0.8380
  640MOL0     H84467   8.911   6.715  10.720  4.0644  1.8630  0.2367
  640MOL0     H84468   9.368   6.904  10.603  1.0669  0.6907 -0.4715
  640MOL0     H84469   9.606   6.870  10.575  0.7951 -0.6440 -0.8403
  640MOL0     H84470   9.760   6.442  10.465  1.3353 -3.7017  0.8769
  640MOL0     H84471   9.777   6.471  10.648  1.0996  1.5435  0.5364
  640MOL0     H84472   9.990   6.430  10.555  2.7559  1.4845 -2.7938
  640MOL0     H84473   9.977   6.563  10.449  1.2402 -2.6109 -0.7914
  640MOL0     H84474   9.916   6.618  10.733  0.1466 -0.0230  0.4194
  640MOL0     H84475  10.000   6.727  10.623  0.6971  0.5107  2.4252
  640MOL0     H84476  10.151   6.636  10.801 -1.9169  2.4211 -0.9408
  640MOL0     H84477  10.125   6.475  10.728  4.1196 -0.5769 -0.7920
  640MOL0     H84478  10.428   6.624  10.487 -1.5940  1.8988 -1.8658
  640MOL0     H84479   9.539   6.442  10.596  1.5458  0.4883 -1.1564
  640MOL0     H84480   9.304   6.479  10.650 -1.0619  0.0880 -0.1717
  641MOL0     O84481   2.884   9.865   9.074  0.2930 -0.1581 -0.1212
  641MOL0     C84482   2.957   9.954   9.129  0.3497  0.1475 -0.4171
  641MOL0     O84483   2.916  10.045   9.223 -0.2023 -0.1691  0.0928
  641MOL0     C84484   2.795  10.031   9.289  0.4825 -0.7543  0.6402
  641MOL0     C84485   2.677  10.046   9.224  0.4546  0.0124 -0.1990
  641MOL0     C84486   2.555  10.053   9.290  0.1481  0.0571 -0.5406
  641MOL0     C84487   2.558  10.052   9.436  0.1446  0.1936  0.1233
  641MOL0     O84488   2.441  10.050   9.514 -0.2592 -0.1965  0.1663
  641MOL0     C84489   2.316  10.060   9.453  0.2704  0.4109 -0.3542
  641MOL0     C84490   2.205  10.066   9.558  0.4326 -0.0961 -0.2255
  641MOL0     C84491   2.065  10.058   9.486 -0.6121  0.8805 -0.2691
  641MOL0     C84492   1.962  10.112   9.577  0.6626  0.1509  0.7813
  641MOL0     C84493   1.826  10.126   9.496  0.4913  0.6679  0.2741
  641MOL0     C84494   1.759   9.999   9.477  0.3384  0.2705  0.2495
  641MOL0     C84495   1.614   9.994   9.428  0.5682 -0.6335 -0.4973
  641MOL0     C84496   1.519  10.043   9.537 -0.3489  0.5040  0.6032
  641MOL0     N84497   1.381  10.031   9.478  0.3885 -0.0099 -0.7619
  641MOL0     C84498   1.325  10.105   9.376  0.5104 -0.0713  0.4589
  641MOL0     C84499   1.195  10.057   9.371  0.5953 -0.0147  0.7807
  641MOL0     C84500   1.093  10.094   9.264 -0.1260 -0.0224 -1.1436
  641MOL0     C84501   1.144  10.047   9.128  0.0727 -0.2210 -0.1136
  641MOL0     C84502   1.131   9.891   9.105  0.2202  0.3818 -0.3518
  641MOL0     C84503   1.185   9.839   8.972  0.2955  0.5247 -0.5569
  641MOL0     O84504   1.310   9.895   8.926 -0.1223 -0.2071  1.0133
  641MOL0     C84505   1.432   9.851   8.967 -0.8935  0.7888  0.1684
  641MOL0     C84506   1.545   9.890   8.888 -0.0479  0.2497  0.2623
  641MOL0     C84507   1.674   9.850   8.919 -0.2950 -0.3736 -0.0958
  641MOL0     C84508   1.699   9.752   9.017  0.8010  0.4339 -0.4274
  641MOL0     C84509   1.833   9.688   9.028 -0.4812 -0.5208  0.0410
  641MOL0     O84510   1.912   9.682   8.913  0.1327 -0.0670 -0.0573
  641MOL0     C84511   2.035   9.618   8.897 -0.1368  0.3020  0.0912
  641MOL0     C84512   2.118   9.643   8.786  0.0478 -0.4882 -0.1164
  641MOL0     C84513   2.235   9.573   8.755  0.1025  0.1920  0.8263
  641MOL0     C84514   2.268   9.469   8.842  0.4029  0.8936 -0.5171
  641MOL0     O84515   2.378   9.377   8.835  0.6893 -1.0140  0.3783
  641MOL0     C84516   2.466   9.372   8.720 -0.8716  0.0828  0.4992
  641MOL0     C84517   2.596   9.296   8.747  0.4011 -0.2122 -0.2286
  641MOL0     C84518   2.568   9.159   8.811 -0.8505 -0.5852 -0.7318
  641MOL0     C84519   2.690   9.066   8.850 -0.3483 -0.0705 -0.3886
  641MOL0     C84520   2.769   9.119   8.969  1.0469  0.3173 -0.3446
  641MOL0     C84521   2.879   9.026   9.024 -0.8341 -0.6281  0.4311
  641MOL0     C84522   2.843   8.888   9.079 -1.4220 -0.3751 -0.0039
  641MOL0     C84523   2.734   8.895   9.183  0.2796  1.3426  1.0288
  641MOL0    Cl84524   2.802   8.942   9.343 -0.2437 -0.0068  0.1113
  641MOL0     C84525   2.202   9.452   8.960  0.4052 -0.2978 -0.2852
  641MOL0     C84526   2.082   9.522   8.988 -0.1194 -0.8355  0.2716
  641MOL0     O84527   1.862   9.640   9.136 -0.3184 -0.0319  0.0040
  641MOL0     C84528   1.593   9.712   9.106  0.0189 -0.0324 -1.0605
  641MOL0     C84529   1.466   9.768   9.077 -0.1356 -0.1769 -0.6181
  641MOL0     N84530   1.175   9.967   9.478 -1.1165 -0.7911 -0.5576
  641MOL0     N84531   1.291   9.950   9.544  0.8378 -0.8855  0.2111
  641MOL0     C84532   2.680  10.041   9.504  0.1057  0.1438  0.0686
  641MOL0     C84533   2.799  10.025   9.431  0.2280  0.3207 -0.9212
  641MOL0     C84534   3.090   9.967   9.069  0.6027  1.1442  0.0348
  641MOL0     C84535   3.154  10.085   9.068 -0.4258 -0.2306 -0.2748
  641MOL0     C84536   3.285  10.096   9.020 -0.1643  0.4778 -0.2163
  641MOL0     C84537   3.348   9.991   8.948  0.6840  0.1709  0.2596
  641MOL0     O84538   3.477   9.992   8.904 -0.4545 -0.3271 -0.1011
  641MOL0     C84539   3.571  10.095   8.962  0.0318  0.1541  0.1895
  641MOL0     C84540   3.593  10.193   8.846  0.3022 -0.9824 -0.5006
  641MOL0     C84541   3.670  10.119   8.735 -0.0176 -0.9404  0.4472
  641MOL0     C84542   3.687  10.188   8.596 -0.2811  0.4070 -0.1748
  641MOL0     C84543   3.783  10.297   8.609 -0.2163  0.4768 -0.1916
  641MOL0     C84544   3.866  10.385   8.611  0.0011  0.6197 -0.0268
  641MOL0     C84545   3.278   9.872   8.943 -0.1431  0.3484  0.6793
  641MOL0     C84546   3.153   9.854   9.006  0.1675  0.2461  0.1766
  641MOL0     H84547   2.671  10.055   9.116  0.9836  2.7773 -0.0930
  641MOL0     H84548   2.464  10.069   9.233  1.0127  1.3934 -1.5788
  641MOL0     H84549   2.305   9.967   9.397 -1.3560  0.7803 -0.7040
  641MOL0     H84550   2.318  10.153   9.394 -0.6500  1.1191  0.6848
  641MOL0     H84551   2.213  10.165   9.602 -0.2808  0.3145 -0.9793
  641MOL0     H84552   2.223   9.996   9.640  1.2788  0.2684 -0.0950
  641MOL0     H84553   2.035   9.958   9.452 -1.0089  0.4646  1.2448
  641MOL0     H84554   2.064  10.132   9.405 -1.1131  2.1402  0.8666
  641MOL0     H84555   1.946  10.049   9.665  1.3672 -0.2887  0.6028
  641MOL0     H84556   1.982  10.215   9.608 -0.8477 -0.0068  2.4712
  641MOL0     H84557   1.841  10.182   9.404 -0.7405 -1.9146 -1.5993
  641MOL0     H84558   1.757  10.186   9.556  1.5324 -1.5636  4.0298
  641MOL0     H84559   1.761   9.946   9.573 -0.3002 -0.0156  0.1085
  641MOL0     H84560   1.817   9.936   9.409  2.1999 -0.9150  2.7722
  641MOL0     H84561   1.598  10.066   9.347  1.3556 -2.0954 -2.0240
  641MOL0     H84562   1.591   9.893   9.393 -0.3017 -0.9485  0.9201
  641MOL0     H84563   1.544  10.144   9.571  0.5142  1.8550 -3.4915
  641MOL0     H84564   1.529   9.973   9.621  2.2278 -0.4518 -0.4047
  641MOL0     H84565   1.377  10.179   9.316  2.9738 -1.3862  0.8875
  641MOL0     H84566   1.084  10.203   9.269  1.4410  0.0830  0.4869
  641MOL0     H84567   0.994  10.058   9.294  0.4926  0.1501  1.3315
  641MOL0     H84568   1.248  10.080   9.114 -0.6279  2.4482  0.3331
  641MOL0     H84569   1.081  10.102   9.057 -1.7544 -0.1027  1.5222
  641MOL0     H84570   1.191   9.842   9.183  0.2132  0.1080 -0.5178
  641MOL0     H84571   1.030   9.855   9.126  1.0875 -0.6359  2.8044
  641MOL0     H84572   1.106   9.854   8.898 -1.2796 -0.9858  0.7234
  641MOL0     H84573   1.189   9.731   8.984 -1.5187  0.5373  0.6493
  641MOL0     H84574   1.531   9.953   8.801  0.7356 -3.0697 -2.4720
  641MOL0     H84575   1.755   9.885   8.857  1.1051 -1.1399  1.2221
  641MOL0     H84576   2.095   9.727   8.722  1.8857 -0.4701 -0.8098
  641MOL0     H84577   2.295   9.592   8.666 -0.9824  0.4091  0.1253
  641MOL0     H84578   2.499   9.467   8.677 -0.9940  0.1149  0.4760
  641MOL0     H84579   2.420   9.306   8.646 -1.9291  0.4467  0.8173
  641MOL0     H84580   2.667   9.353   8.808  1.3056  0.3263 -1.7166
  641MOL0     H84581   2.653   9.281   8.654  0.0570  0.7817 -0.6153
  641MOL0     H84582   2.502   9.110   8.738 -0.4999 -2.0222 -0.1279
  641MOL0     H84583   2.517   9.188   8.903  0.6649  3.7747 -1.0439
  641MOL0     H84584   2.654   8.964   8.866 -1.0380  0.0312 -1.2156
  641MOL0     H84585   2.756   9.060   8.763  0.1353 -2.6139  0.0660
  641MOL0     H84586   2.697   9.140   9.049 -2.7924 -0.2857 -3.3457
  641MOL0     H84587   2.801   9.218   8.935 -1.3315  1.4326  0.4648
  641MOL0     H84588   2.939   9.084   9.095 -3.6258  0.3467  2.1837
  641MOL0     H84589   2.945   8.996   8.942 -3.2817  1.5271 -2.6275
  641MOL0     H84590   2.807   8.822   8.999 -3.0608 -0.7039  0.9572
  641MOL0     H84591   2.930   8.841   9.125 -0.9482  1.1597  0.7131
  641MOL0     H84592   2.693   8.795   9.197  3.2610  0.2072  2.2916
  641MOL0     H84593   2.657   8.964   9.148  0.3861  1.4924  1.0884
  641MOL0     H84594   2.237   9.378   9.031  1.4521  0.8492  0.4247
  641MOL0     H84595   2.031   9.512   9.083 -0.8576 -2.2483 -0.2433
  641MOL0     H84596   1.613   9.657   9.197 -3.5133  0.0905 -0.0872
  641MOL0     H84597   1.392   9.751   9.155 -0.4476 -0.0576 -0.8836
  641MOL0     H84598   2.696  10.036   9.612 -2.0416  2.7514  0.6289
  641MOL0     H84599   2.891  10.009   9.486  0.5505  1.1876 -1.1838
  641MOL0     H84600   3.102  10.178   9.090 -3.1985 -1.2685 -1.8710
  641MOL0     H84601   3.343  10.187   9.014  1.0251 -0.2635 -0.2368
  641MOL0     H84602   3.658  10.036   8.992  0.6138 -0.6075 -2.7374
  641MOL0     H84603   3.545  10.159   9.047  0.0683  0.6499 -0.1720
  641MOL0     H84604   3.500  10.237   8.808  1.4859  1.2269 -1.0173
  641MOL0     H84605   3.651  10.277   8.883  2.5581 -1.8897 -1.7980
  641MOL0     H84606   3.612  10.031   8.707 -1.2457 -0.0853  0.2356
  641MOL0     H84607   3.771  10.091   8.766  0.3954 -2.0385 -1.7131
  641MOL0     H84608   3.717  10.111   8.524  2.7396  0.2510  1.0996
  641MOL0     H84609   3.596  10.232   8.555 -0.5507 -0.3434 -0.4158
  641MOL0     H84610   3.926  10.474   8.623  0.4596  0.3337 -0.1764
  641MOL0     H84611   3.324   9.794   8.883 -1.0130  0.1662  0.2371
  641MOL0     H84612   3.110   9.754   9.003 -1.3215  0.8204  1.2860
  642MOL0     O84613   2.534   5.230   4.805 -0.0844 -0.2654 -0.3396
  642MOL0     C84614   2.509   5.264   4.692  0.1981  0.0544 -0.0584
  642MOL0     O84615   2.383   5.283   4.651 -0.5496 -0.2782  0.2759
  642MOL0     C84616   2.295   5.326   4.749 -0.4407 -0.1053  0.6180
  642MOL0     C84617   2.313   5.401   4.863  0.4563  0.2012 -0.1948
  642MOL0     C84618   2.216   5.420   4.956  0.1394  0.3516 -0.1875
  642MOL0     C84619   2.084   5.384   4.926 -0.0589 -0.4753 -0.2676
  642MOL0     O84620   1.973   5.414   5.004 -0.1716  0.2208 -0.3639
  642MOL0     C84621   1.990   5.444   5.145 -0.3455  0.4593  0.2409
  642MOL0     C84622   1.853   5.496   5.202 -0.5315 -0.5028  0.4465
  642MOL0     C84623   1.741   5.396   5.194 -0.3292  0.3868  0.0357
  642MOL0     C84624   1.617   5.477   5.232 -0.2297 -0.5123 -0.9414
  642MOL0     C84625   1.490   5.377   5.251  0.2189  0.4813  0.1486
  642MOL0     C84626   1.359   5.452   5.234  0.0221 -0.0146 -0.3366
  642MOL0     C84627   1.228   5.364   5.225  0.0600 -0.5465  0.2128
  642MOL0     C84628   1.106   5.454   5.259  0.0408  0.2534 -0.1961
  642MOL0     N84629   0.972   5.398   5.229  0.5866 -0.1897  0.2590
  642MOL0     C84630   0.907   5.298   5.290  0.0908 -0.6744 -0.0516
  642MOL0     C84631   0.799   5.272   5.228  0.6570 -0.2856  0.7441
  642MOL0     C84632   0.704   5.157   5.250  0.5424  0.1003  0.3374
  642MOL0     C84633   0.558   5.193   5.272 -0.1143  0.6125 -0.6184
  642MOL0     C84634   0.479   5.070   5.328 -0.4627  1.5846 -0.9318
  642MOL0     C84635   0.329   5.094   5.363 -0.6890  0.9922 -0.5259
  642MOL0     O84636   0.280   4.963   5.366  0.4672 -0.1773 -0.4246
  642MOL0     C84637   0.143   4.962   5.388 -0.0357 -0.0950 -0.0612
  642MOL0     C84638   0.084   5.029   5.490  0.1376  0.0805 -0.4015
  642MOL0     C84639  -0.052   5.035   5.501 -0.6050  0.1624 -0.3868
  642MOL0     C84640  -0.129   4.950   5.423 -0.0797 -0.2001 -0.1716
  642MOL0     C84641  -0.274   4.951   5.440  0.0275  0.0992 -0.4297
  642MOL0     O84642  -0.321   5.041   5.528  0.1972 -0.1752  0.2972
  642MOL0     C84643  -0.455   5.074   5.550  0.6781  0.3555  0.3370
  642MOL0     C84644  -0.480   5.204   5.571 -1.1066 -0.0403 -0.1034
  642MOL0     C84645  -0.609   5.251   5.613  0.2102  0.0473 -0.4761
  642MOL0     C84646  -0.713   5.160   5.620 -1.3521  0.8509  0.0832
  642MOL0     O84647  -0.833   5.196   5.658 -0.6874 -0.3786  0.3353
  642MOL0     C84648  -0.871   5.150   5.792 -0.5611  0.1370 -0.3802
  642MOL0     C84649  -1.022   5.169   5.813  0.0140 -0.7950  0.5295
  642MOL0     C84650  -1.101   5.081   5.720  0.7598 -0.3782  0.0045
  642MOL0     C84651  -1.247   5.063   5.771  0.4900 -0.3870 -0.2725
  642MOL0     C84652  -1.308   4.949   5.693  0.5176  0.6361 -0.1201
  642MOL0     C84653  -1.460   4.934   5.719  0.1074 -0.4435  0.3727
  642MOL0     C84654  -1.513   4.819   5.632 -0.1129  0.1186 -0.3783
  642MOL0     C84655  -1.657   4.797   5.672  0.9567 -0.2205  0.3596
  642MOL0    Cl84656  -1.690   4.638   5.589 -0.3951 -0.1513 -0.2355
  642MOL0     C84657  -0.694   5.023   5.584 -0.1743 -0.7660  0.3044
  642MOL0     C84658  -0.561   4.981   5.554  0.3454 -0.2908 -0.7393
  642MOL0     O84659  -0.341   4.872   5.376  0.8111 -0.0075 -0.3523
  642MOL0     C84660  -0.065   4.864   5.330 -1.0094  0.7136 -0.3251
  642MOL0     C84661   0.071   4.867   5.312 -0.2260 -0.4693  0.5214
  642MOL0     N84662   0.794   5.359   5.115  0.1592 -0.1369 -0.1458
  642MOL0     N84663   0.903   5.433   5.114  0.4440  0.5652  0.1022
  642MOL0     C84664   2.059   5.319   4.803 -0.7865 -0.1348 -0.3627
  642MOL0     C84665   2.163   5.281   4.722 -0.0231 -0.0072 -0.6327
  642MOL0     C84666   2.608   5.290   4.586 -0.4205  0.7036  0.0928
  642MOL0     C84667   2.582   5.379   4.487  0.2280 -0.0310 -0.5270
  642MOL0     C84668   2.674   5.393   4.388 -0.3020 -0.3583 -0.4257
  642MOL0     C84669   2.793   5.317   4.384 -0.1968 -0.3828  0.8267
  642MOL0     O84670   2.893   5.329   4.293 -0.2900 -0.4079 -0.5224
  642MOL0     C84671   2.875   5.428   4.196 -0.0381 -0.8623  0.1799
  642MOL0     C84672   2.982   5.409   4.089  0.4053  0.7584 -0.6238
  642MOL0     C84673   2.986   5.531   3.980  0.1648  0.3653 -0.0710
  642MOL0     C84674   3.121   5.533   3.914 -0.4501  0.3951  0.6183
  642MOL0     C84675   3.128   5.650   3.826  0.2049  0.1232 -0.0688
  642MOL0     C84676   3.139   5.760   3.776 -0.0370  0.3454 -0.2573
  642MOL0     C84677   2.811   5.219   4.476 -0.3412  0.5180 -0.8198
  642MOL0     C84678   2.728   5.215   4.589 -0.7068  0.0585  0.1147
  642MOL0     H84679   2.409   5.444   4.889 -0.1593  1.3791  0.1613
  642MOL0     H84680   2.251   5.463   5.050  1.9472 -0.6891 -0.3345
  642MOL0     H84681   2.073   5.507   5.177 -0.3555 -0.2267  1.6672
  642MOL0     H84682   2.012   5.344   5.183 -0.4821 -0.6096 -2.2955
  642MOL0     H84683   1.829   5.584   5.142  2.5309  0.3079  0.2088
  642MOL0     H84684   1.868   5.538   5.302  0.1443  4.3251 -1.4152
  642MOL0     H84685   1.754   5.315   5.267 -2.7434 -0.4125 -0.3265
  642MOL0     H84686   1.742   5.351   5.095  2.1683 -0.9449  0.5804
  642MOL0     H84687   1.641   5.538   5.319  3.7752  0.9729 -2.8554
  642MOL0     H84688   1.602   5.542   5.145  0.1111  0.8732  0.0278
  642MOL0     H84689   1.499   5.338   5.353  1.3423  2.4199  0.8318
  642MOL0     H84690   1.508   5.295   5.181  0.6730  0.6660  0.0474
  642MOL0     H84691   1.368   5.512   5.143 -0.1672 -0.9054 -0.9533
  642MOL0     H84692   1.346   5.523   5.316 -0.0044  2.3604 -2.2724
  642MOL0     H84693   1.221   5.324   5.123  1.2052  2.7129 -1.2738
  642MOL0     H84694   1.241   5.281   5.295 -0.8414  0.5452  1.7369
  642MOL0     H84695   1.113   5.554   5.215 -0.1178 -0.5510 -2.1492
  642MOL0     H84696   1.116   5.454   5.368 -3.2018 -0.2835  0.1768
  642MOL0     H84697   0.940   5.246   5.379  1.7936 -1.2186 -0.9413
  642MOL0     H84698   0.748   5.111   5.339  1.2728  2.7316  1.4385
  642MOL0     H84699   0.715   5.088   5.165  1.1141  0.8354 -0.2021
  642MOL0     H84700   0.508   5.224   5.179 -0.4199 -0.4468 -0.8222
  642MOL0     H84701   0.549   5.272   5.347  1.1567  1.2207 -1.0835
  642MOL0     H84702   0.489   4.988   5.256  0.1097  1.4091 -0.6604
  642MOL0     H84703   0.524   5.030   5.419 -3.4848 -0.1626 -0.0504
  642MOL0     H84704   0.283   5.165   5.293  0.0191  0.8816 -1.1115
  642MOL0     H84705   0.324   5.140   5.463  1.3563 -1.4622  0.8303
  642MOL0     H84706   0.144   5.069   5.572  1.9667 -0.8576 -1.2385
  642MOL0     H84707  -0.088   5.094   5.584 -0.2077 -1.2292  0.8219
  642MOL0     H84708  -0.407   5.282   5.556  0.7447 -1.1496  2.3499
  642MOL0     H84709  -0.619   5.356   5.639 -0.2355 -0.1385  0.1278
  642MOL0     H84710  -0.817   5.210   5.865  0.5939 -1.4172  0.0907
  642MOL0     H84711  -0.850   5.046   5.817  1.3795  1.6811  6.2247
  642MOL0     H84712  -1.041   5.275   5.794  3.4117 -0.3756 -1.3461
  642MOL0     H84713  -1.048   5.151   5.917 -1.4904  1.1698  0.5435
  642MOL0     H84714  -1.058   4.981   5.724 -1.8677 -1.5657  1.4670
  642MOL0     H84715  -1.109   5.124   5.620  1.8828  0.8866  0.4425
  642MOL0     H84716  -1.248   5.030   5.876  1.2981  0.9010  0.1656
  642MOL0     H84717  -1.300   5.158   5.761  1.5794  0.5033  1.7807
  642MOL0     H84718  -1.258   4.856   5.721 -0.3399  0.5604  1.2078
  642MOL0     H84719  -1.304   4.967   5.585 -1.0991 -0.0605 -0.3098
  642MOL0     H84720  -1.505   5.029   5.692 -0.5560 -0.7031  0.5370
  642MOL0     H84721  -1.476   4.918   5.826  5.0918 -0.1988  1.4126
  642MOL0     H84722  -1.507   4.852   5.528 -1.4998 -0.4631 -0.6691
  642MOL0     H84723  -1.465   4.721   5.645 -1.4213 -0.9271 -2.6860
  642MOL0     H84724  -1.708   4.884   5.629  1.1379  0.0961  0.7832
  642MOL0     H84725  -1.683   4.792   5.778 -1.2452  3.6310  0.1862
  642MOL0     H84726  -0.780   4.956   5.585 -0.8927 -0.0289 -2.7188
  642MOL0     H84727  -0.536   4.880   5.523 -2.0516 -0.8509 -1.0556
  642MOL0     H84728  -0.120   4.793   5.269 -0.6700  1.1229 -1.1293
  642MOL0     H84729   0.100   4.818   5.220 -3.4025 -1.1108 -0.2633
  642MOL0     H84730   1.957   5.304   4.770 -1.0083  1.2481 -0.3800
  642MOL0     H84731   2.141   5.208   4.645  2.8604  0.7759 -2.3644
  642MOL0     H84732   2.486   5.429   4.490  0.4151  0.4171 -1.5429
  642MOL0     H84733   2.646   5.467   4.313  0.3173 -0.8632 -1.1660
  642MOL0     H84734   2.894   5.528   4.238  2.6938  1.0669 -4.7686
  642MOL0     H84735   2.774   5.431   4.154 -0.1496  1.8510  0.4253
  642MOL0     H84736   3.085   5.410   4.126  1.2955 -1.5467 -2.7309
  642MOL0     H84737   2.974   5.314   4.036  1.1514  0.6376 -0.5277
  642MOL0     H84738   2.962   5.625   4.029 -0.8478 -0.9648  2.1594
  642MOL0     H84739   2.900   5.514   3.914 -0.5494  1.3924  0.5759
  642MOL0     H84740   3.204   5.536   3.985  0.2269 -0.7545 -0.1053
  642MOL0     H84741   3.139   5.443   3.855  0.0790  0.1190  1.1938
  642MOL0     H84742   3.160   5.860   3.744 -0.9713  0.3398 -0.9177
  642MOL0     H84743   2.896   5.152   4.477 -0.8892 -0.1760  0.4107
  642MOL0     H84744   2.751   5.142   4.666 -0.9031 -1.2452 -1.0216
  643MOL0     O84745   5.855   5.026   3.877  1.4679  0.4255  0.4188
  643MOL0     C84746   5.866   5.148   3.861 -0.3881  0.9006  0.1559
  643MOL0     O84747   5.764   5.242   3.883  0.7506  0.2602  0.2314
  643MOL0     C84748   5.644   5.202   3.935 -0.4942  0.2967  0.0734
  643MOL0     C84749   5.627   5.182   4.073 -0.8728 -0.2625 -0.0236
  643MOL0     C84750   5.499   5.153   4.112  1.0606 -0.0389  0.2764
  643MOL0     C84751   5.386   5.132   4.020 -0.5307  0.0727 -0.1881
  643MOL0     O84752   5.265   5.096   4.077  0.2872  0.5177  0.6116
  643MOL0     C84753   5.144   5.118   4.001 -1.3208  0.6099  0.5855
  643MOL0     C84754   5.023   5.087   4.093  0.1035 -0.1657  0.8252
  643MOL0     C84755   4.889   5.117   4.024  0.1899  1.0905 -0.9223
  643MOL0     C84756   4.770   5.082   4.116 -0.1567  0.0784  0.3530
  643MOL0     C84757   4.636   5.133   4.075 -0.5800 -0.7664  0.2070
  643MOL0     C84758   4.538   5.097   4.184  0.0471 -0.1612  0.5478
  643MOL0     C84759   4.400   5.136   4.137 -0.6501 -0.1065  0.0182
  643MOL0     C84760   4.296   5.141   4.245 -0.1859  1.1109 -0.1576
  643MOL0     N84761   4.166   5.206   4.217 -0.1744  0.1528 -0.7066
  643MOL0     C84762   4.161   5.340   4.194 -0.9041  0.2252  0.0650
  643MOL0     C84763   4.033   5.367   4.151 -0.1595  0.1749  0.0569
  643MOL0     C84764   3.959   5.497   4.116 -0.4911 -1.0481  0.4688
  643MOL0     C84765   3.936   5.571   4.243  0.2501 -0.0093 -0.4072
  643MOL0     C84766   3.877   5.716   4.215  1.3935  0.6496  0.8090
  643MOL0     C84767   3.847   5.778   4.354 -0.8362 -0.0666 -0.6695
  643MOL0     O84768   3.820   5.914   4.329  0.0795  0.2993  0.1736
  643MOL0     C84769   3.917   6.001   4.324 -0.4770  0.5505  0.7963
  643MOL0     C84770   4.054   5.972   4.324 -0.3648  0.5800  0.4129
  643MOL0     C84771   4.153   6.070   4.322 -0.2787  0.3427  0.8116
  643MOL0     C84772   4.116   6.206   4.320  0.5078  0.9529  0.3029
  643MOL0     C84773   4.209   6.315   4.314 -1.0257  0.0230 -0.2788
  643MOL0     O84774   4.337   6.278   4.268  0.3915 -0.5470  0.5412
  643MOL0     C84775   4.431   6.370   4.297  1.0201 -0.2547 -0.8518
  643MOL0     C84776   4.464   6.406   4.430 -0.6359  0.4361 -0.3020
  643MOL0     C84777   4.574   6.487   4.456 -0.3482  0.5370  0.0977
  643MOL0     C84778   4.648   6.540   4.352  1.0004  0.0868 -0.1625
  643MOL0     O84779   4.747   6.630   4.389 -0.1707  0.9115  0.0171
  643MOL0     C84780   4.836   6.679   4.276  0.4826  0.3923 -0.2326
  643MOL0     C84781   4.909   6.807   4.312 -0.1991 -0.0629 -0.6541
  643MOL0     C84782   5.021   6.791   4.410 -0.5299 -0.4897 -0.0585
  643MOL0     C84783   5.073   6.936   4.440  0.3317  1.1501 -0.9495
  643MOL0     C84784   5.200   6.920   4.523 -0.3350  0.1050 -0.5554
  643MOL0     C84785   5.293   7.045   4.511 -0.5810  0.7619  0.7959
  643MOL0     C84786   5.395   7.061   4.623 -0.2248 -0.0464  0.1153
  643MOL0     C84787   5.509   6.959   4.621  0.9460 -0.6103 -0.4998
  643MOL0    Cl84788   5.596   6.975   4.780 -0.0847  0.2118 -0.0243
  643MOL0     C84789   4.619   6.495   4.224 -0.0498 -0.4197  0.5779
  643MOL0     C84790   4.517   6.403   4.195 -0.2375 -0.4870  0.3230
  643MOL0     O84791   4.159   6.427   4.332 -0.2351 -0.1437  0.4190
  643MOL0     C84792   3.975   6.234   4.324 -0.1289  0.4610 -0.3727
  643MOL0     C84793   3.882   6.135   4.318  0.8227 -0.5351 -0.0392
  643MOL0     N84794   3.965   5.241   4.148 -0.3357  0.0378 -0.0782
  643MOL0     N84795   4.050   5.146   4.178 -0.2286 -0.3739  0.1054
  643MOL0     C84796   5.405   5.151   3.888  0.1706  0.0967  0.0719
  643MOL0     C84797   5.537   5.180   3.851 -0.5673 -0.3573  0.3430
  643MOL0     C84798   5.996   5.192   3.804  1.2218 -0.1901  0.4682
  643MOL0     C84799   6.091   5.113   3.740 -0.0797  1.0506  0.4653
  643MOL0     C84800   6.199   5.184   3.679  0.2436  0.0445  0.2147
  643MOL0     C84801   6.225   5.322   3.706 -0.2471 -0.5159  0.4073
  643MOL0     O84802   6.339   5.390   3.657  0.0761 -0.5985  0.4736
  643MOL0     C84803   6.436   5.437   3.751 -0.3969 -0.4375  0.1267
  643MOL0     C84804   6.575   5.429   3.689 -0.2418 -0.3505  0.3995
  643MOL0     C84805   6.597   5.548   3.591 -0.1354 -0.4158  0.6440
  643MOL0     C84806   6.722   5.539   3.506  0.1840 -0.1218  0.1076
  643MOL0     C84807   6.745   5.630   3.398  0.9806  0.0818  0.0409
  643MOL0     C84808   6.763   5.703   3.303 -0.7967 -0.4370 -0.2137
  643MOL0     C84809   6.129   5.390   3.777 -0.5605  0.2499  0.9379
  643MOL0     C84810   6.018   5.325   3.821 -0.2729 -0.4315 -0.1760
  643MOL0     H84811   5.692   5.192   4.159  0.0346 -0.0693 -0.7163
  643MOL0     H84812   5.463   5.156   4.215 -2.5010  0.1204 -0.8256
  643MOL0     H84813   5.156   5.055   3.913 -0.7606 -0.0336  1.1112
  643MOL0     H84814   5.130   5.222   3.969 -0.0483  0.0568 -2.0035
  643MOL0     H84815   5.027   5.156   4.178  1.0577  0.7867  0.0314
  643MOL0     H84816   5.022   4.980   4.117 -3.0669 -0.4177  0.0605
  643MOL0     H84817   4.881   5.068   3.927 -3.0194 -0.1950 -0.1516
  643MOL0     H84818   4.885   5.223   3.997 -0.1208  0.8299 -1.9153
  643MOL0     H84819   4.777   4.972   4.118  1.3947 -0.0204 -3.3883
  643MOL0     H84820   4.790   5.123   4.216 -3.2377  2.1852  0.2380
  643MOL0     H84821   4.605   5.091   3.978 -0.0464  1.9047 -1.2107
  643MOL0     H84822   4.641   5.242   4.069  0.5880 -0.7285  1.5058
  643MOL0     H84823   4.563   5.137   4.283 -0.7544 -2.3116  1.6966
  643MOL0     H84824   4.521   4.990   4.202  0.7125 -0.2918  0.4135
  643MOL0     H84825   4.402   5.234   4.089 -1.9823 -0.1506 -0.1618
  643MOL0     H84826   4.359   5.068   4.062 -0.0612  0.1171 -0.5107
  643MOL0     H84827   4.334   5.190   4.335 -0.7699  1.6645 -0.2044
  643MOL0     H84828   4.269   5.042   4.283  1.8162  0.9524  1.0167
  643MOL0     H84829   4.243   5.410   4.203  0.0027 -0.8410  0.1730
  643MOL0     H84830   3.861   5.472   4.073 -0.9587 -0.1032  0.9670
  643MOL0     H84831   4.017   5.558   4.046  0.5870 -1.3184  1.1011
  643MOL0     H84832   4.026   5.588   4.302  1.3648  1.8675 -2.4988
  643MOL0     H84833   3.859   5.514   4.296 -0.7200  0.6383 -1.0928
  643MOL0     H84834   3.939   5.779   4.150  1.5172 -0.3971 -0.1207
  643MOL0     H84835   3.783   5.697   4.164  1.3236 -0.5094  1.3381
  643MOL0     H84836   3.933   5.764   4.420  0.2727  3.0073 -1.2898
  643MOL0     H84837   3.768   5.724   4.406 -1.8738  0.3182 -1.8002
  643MOL0     H84838   4.081   5.867   4.324 -0.4328  0.5307 -1.4128
  643MOL0     H84839   4.257   6.041   4.314  0.1994  1.2081  2.9416
  643MOL0     H84840   4.410   6.359   4.512 -2.8454 -1.2641 -2.5749
  643MOL0     H84841   4.615   6.495   4.556 -0.0600 -1.3084  0.1650
  643MOL0     H84842   4.769   6.705   4.194 -0.3323 -0.9290 -0.0194
  643MOL0     H84843   4.898   6.594   4.245  0.2082  0.2884 -0.5056
  643MOL0     H84844   4.837   6.874   4.361  0.6118  1.6832 -1.7355
  643MOL0     H84845   4.945   6.852   4.218  1.0046 -1.5010 -0.9049
  643MOL0     H84846   5.095   6.723   4.368  0.2561 -0.2011  0.8337
  643MOL0     H84847   4.986   6.737   4.499  0.1729 -2.1640 -0.7752
  643MOL0     H84848   5.093   6.996   4.350  0.1281 -0.0540 -1.8247
  643MOL0     H84849   4.989   6.981   4.494 -0.6113 -1.5291 -0.0597
  643MOL0     H84850   5.255   6.834   4.484  2.0059  0.2738  2.0817
  643MOL0     H84851   5.174   6.902   4.628  1.4521  1.8727  0.2496
  643MOL0     H84852   5.232   7.136   4.499 -1.4349  0.0490 -0.5035
  643MOL0     H84853   5.337   7.042   4.411 -0.0168  1.1675  1.0290
  643MOL0     H84854   5.436   7.163   4.616 -0.6316  0.0766 -0.5388
  643MOL0     H84855   5.347   7.048   4.721  1.0930  1.3708  1.0141
  643MOL0     H84856   5.572   6.967   4.532  1.9682  2.7138  0.3941
  643MOL0     H84857   5.467   6.858   4.617  2.2619 -1.2196  0.2889
  643MOL0     H84858   4.678   6.525   4.138  0.5469  3.2081  2.0482
  643MOL0     H84859   4.514   6.365   4.093  3.5595  0.2501 -0.2316
  643MOL0     H84860   3.929   6.331   4.344  0.0977 -0.1291  3.6769
  643MOL0     H84861   3.777   6.160   4.320  1.0030  0.5185  3.5967
  643MOL0     H84862   5.330   5.126   3.814  0.9038 -1.4289 -0.2030
  643MOL0     H84863   5.547   5.197   3.744 -3.0241  0.5032  0.1852
  643MOL0     H84864   6.082   5.006   3.725 -2.2810  1.3773 -1.0896
  643MOL0     H84865   6.281   5.126   3.637  0.2644 -1.7233  2.4869
  643MOL0     H84866   6.436   5.381   3.845  1.0401 -1.4640 -0.4512
  643MOL0     H84867   6.409   5.539   3.780 -3.2832 -0.7422 -1.1340
  643MOL0     H84868   6.659   5.428   3.758  0.1797 -1.0177 -0.1075
  643MOL0     H84869   6.581   5.345   3.619  0.5415  0.5999 -0.7032
  643MOL0     H84870   6.605   5.644   3.644 -0.4444 -0.3337  0.5408
  643MOL0     H84871   6.513   5.546   3.521  0.8009  0.8983 -0.5603
  643MOL0     H84872   6.813   5.543   3.567  0.3536  1.7641 -0.2346
  643MOL0     H84873   6.729   5.440   3.459  1.7250  0.1952 -0.4070
  643MOL0     H84874   6.781   5.777   3.227  0.6684  0.3101  0.8000
  643MOL0     H84875   6.148   5.495   3.792  0.1255  0.4153 -0.8011
  643MOL0     H84876   5.954   5.394   3.873 -0.3445 -0.0905 -0.7133
  644MOL0     O84877   4.853   6.343   6.516  0.4936 -0.1722 -0.0688
  644MOL0     C84878   4.818   6.459   6.499  0.9915  0.4281  0.2562
  644MOL0     O84879   4.685   6.503   6.487 -0.3217 -0.1337 -0.7381
  644MOL0     C84880   4.573   6.433   6.510 -0.5969  0.5043 -0.2970
  644MOL0     C84881   4.555   6.333   6.611  0.4746 -0.3228  0.0334
  644MOL0     C84882   4.421   6.287   6.622 -0.2819  0.2261 -0.0427
  644MOL0     C84883   4.312   6.333   6.545  0.1547  0.3572 -0.0673
  644MOL0     O84884   4.185   6.288   6.558 -0.8830  0.0634  0.6400
  644MOL0     C84885   4.148   6.208   6.671  0.0574  0.1982  0.5162
  644MOL0     C84886   4.175   6.057   6.652 -0.4353 -0.1815 -0.1215
  644MOL0     C84887   4.073   5.997   6.545 -0.6058  0.1460 -1.2037
  644MOL0     C84888   3.935   5.976   6.598  0.6656  0.1123  0.1230
  644MOL0     C84889   3.849   5.886   6.510  0.8926  0.2875  0.1429
  644MOL0     C84890   3.836   5.931   6.366 -0.0058  0.2919  0.4367
  644MOL0     C84891   3.741   5.845   6.293  0.6094 -0.3940 -0.4526
  644MOL0     C84892   3.751   5.860   6.142  0.3307 -0.4288  0.2920
  644MOL0     N84893   3.875   5.818   6.069  0.6008  0.3054 -0.1298
  644MOL0     C84894   3.954   5.713   6.115 -0.8462 -0.0347 -0.2829
  644MOL0     C84895   4.058   5.720   6.021 -0.0211 -0.7234  0.1112
  644MOL0     C84896   4.165   5.622   6.027  0.2980  0.5775  0.1198
  644MOL0     C84897   4.304   5.671   5.980  0.0194  0.7475 -0.1152
  644MOL0     C84898   4.397   5.542   5.959  0.1570 -0.6091  0.7470
  644MOL0     C84899   4.534   5.579   5.897 -0.4692  0.3448 -0.1557
  644MOL0     O84900   4.599   5.676   5.979  0.2294  0.2136 -0.6686
  644MOL0     C84901   4.704   5.748   5.912  0.4047  0.6707 -1.2999
  644MOL0     C84902   4.743   5.875   5.960 -0.1819 -0.3793  0.2032
  644MOL0     C84903   4.854   5.943   5.907  0.4611 -0.0358  0.4724
  644MOL0     C84904   4.930   5.885   5.814 -0.0271 -0.4126 -0.1025
  644MOL0     C84905   5.058   5.946   5.756  0.0590  0.5837 -0.4123
  644MOL0     O84906   5.101   6.062   5.814  0.1869  0.6737  0.0885
  644MOL0     C84907   5.222   6.109   5.772 -0.3582 -0.0913 -0.2019
  644MOL0     C84908   5.260   6.151   5.643 -0.1200 -0.3874 -0.5029
  644MOL0     C84909   5.392   6.190   5.619 -0.0182 -0.1027  0.3546
  644MOL0     C84910   5.493   6.186   5.714 -0.3848  0.6111  0.2457
  644MOL0     O84911   5.623   6.219   5.690 -0.1976 -0.5055 -0.2898
  644MOL0     C84912   5.708   6.128   5.754 -0.7712  0.4671  1.1998
  644MOL0     C84913   5.842   6.097   5.669  0.8742 -0.1648 -0.6839
  644MOL0     C84914   5.950   6.208   5.675  0.7641  0.4473  0.5768
  644MOL0     C84915   6.024   6.223   5.546  0.0283  0.5233  0.3502
  644MOL0     C84916   6.118   6.348   5.541 -0.2400  0.9271 -0.5848
  644MOL0     C84917   6.235   6.335   5.639 -0.0125 -0.1345 -0.1098
  644MOL0     C84918   6.337   6.450   5.619  0.4961 -0.0619 -0.6018
  644MOL0     C84919   6.275   6.584   5.636  0.4887  0.1860  0.2030
  644MOL0    Cl84920   6.392   6.724   5.583 -0.1432 -0.6983  0.3219
  644MOL0     C84921   5.453   6.140   5.842 -0.7498  1.3813  0.4881
  644MOL0     C84922   5.319   6.106   5.873 -0.2263  0.3789  0.5187
  644MOL0     O84923   5.115   5.887   5.663  1.5675 -0.2621 -1.0711
  644MOL0     C84924   4.900   5.758   5.770  0.0825  0.1372 -0.2209
  644MOL0     C84925   4.791   5.682   5.817 -0.1274 -1.1922  0.3000
  644MOL0     N84926   4.040   5.827   5.935  1.4086  0.6935  1.4234
  644MOL0     N84927   3.927   5.881   5.970 -0.1914  0.2232 -0.0252
  644MOL0     C84928   4.337   6.428   6.446  0.4564  0.4270  0.2023
  644MOL0     C84929   4.465   6.475   6.431  0.8822  0.2865  0.9579
  644MOL0     C84930   4.926   6.553   6.495 -0.0222  0.4171 -0.0634
  644MOL0     C84931   5.060   6.506   6.495  0.1051 -0.5240  0.0996
  644MOL0     C84932   5.162   6.599   6.489  0.3271 -0.8895  1.1635
  644MOL0     C84933   5.137   6.736   6.479  0.3336 -1.0634  1.0113
  644MOL0     O84934   5.234   6.834   6.481 -0.1605  0.3705 -0.0382
  644MOL0     C84935   5.280   6.879   6.608 -0.4755  0.3980 -0.3345
  644MOL0     C84936   5.421   6.923   6.613 -0.0336  0.5756  0.4406
  644MOL0     C84937   5.518   6.806   6.560  0.6395  0.2880 -0.1096
  644MOL0     C84938   5.655   6.861   6.554 -0.3968  0.8814  0.1312
  644MOL0     C84939   5.725   6.793   6.445 -0.2908 -1.0736 -0.4160
  644MOL0     C84940   5.781   6.730   6.358  0.7270  0.1699 -0.2486
  644MOL0     C84941   5.002   6.782   6.479  0.3009  0.1634 -0.8417
  644MOL0     C84942   4.899   6.689   6.493  0.9693 -0.4498 -0.2885
  644MOL0     H84943   4.635   6.307   6.678 -2.5534  2.3493  5.3612
  644MOL0     H84944   4.397   6.219   6.703 -1.4606 -1.2085 -1.5214
  644MOL0     H84945   4.042   6.225   6.692 -0.2011  1.1035 -1.2595
  644MOL0     H84946   4.203   6.241   6.759 -0.3364 -0.7168  1.1132
  644MOL0     H84947   4.165   5.998   6.744 -1.7101 -2.7829 -1.7934
  644MOL0     H84948   4.274   6.042   6.607 -0.4169  1.2305 -0.6082
  644MOL0     H84949   4.127   5.906   6.516  3.5169  2.3573 -1.2730
  644MOL0     H84950   4.092   6.060   6.458  2.3817  0.3461 -0.5196
  644MOL0     H84951   3.945   5.918   6.690 -1.2197  0.2821  0.4751
  644MOL0     H84952   3.880   6.066   6.628  2.0330  0.2556  2.4140
  644MOL0     H84953   3.753   5.889   6.563  0.1525 -0.9788 -1.0686
  644MOL0     H84954   3.873   5.779   6.511 -3.0993 -0.9313 -3.6474
  644MOL0     H84955   3.933   5.914   6.319  2.1022 -0.1569  4.4971
  644MOL0     H84956   3.822   6.039   6.360 -0.5967  0.1728 -0.5172
  644MOL0     H84957   3.756   5.738   6.313 -2.0869 -1.1460 -1.9841
  644MOL0     H84958   3.642   5.872   6.329  0.1181 -2.4946 -0.0728
  644MOL0     H84959   3.739   5.967   6.124  3.7249 -0.3581 -2.8443
  644MOL0     H84960   3.674   5.810   6.084  2.2317 -1.2397 -1.6983
  644MOL0     H84961   3.942   5.638   6.193  1.8092  0.9231  1.1825
  644MOL0     H84962   4.129   5.543   5.962  2.2889 -2.8100  2.8067
  644MOL0     H84963   4.167   5.577   6.127 -3.9618  0.6085  0.3917
  644MOL0     H84964   4.345   5.730   6.063 -1.5108  0.9204  0.5596
  644MOL0     H84965   4.292   5.735   5.892  0.7776  1.0190 -0.0348
  644MOL0     H84966   4.416   5.486   6.051 -1.7431 -3.7118 -0.6158
  644MOL0     H84967   4.353   5.478   5.883  0.2050  0.2134  0.0042
  644MOL0     H84968   4.531   5.610   5.792  0.4021  2.6991  0.4460
  644MOL0     H84969   4.580   5.480   5.900 -5.5527 -2.4160 -1.9186
  644MOL0     H84970   4.678   5.919   6.035 -2.1773  0.0164 -1.6665
  644MOL0     H84971   4.873   6.038   5.955 -4.6815  0.8923  1.2672
  644MOL0     H84972   5.181   6.168   5.571  0.5854 -0.8988 -1.4224
  644MOL0     H84973   5.414   6.239   5.525 -0.4950  0.9667  0.7825
  644MOL0     H84974   5.663   6.030   5.768  1.9336 -1.2484 -1.0163
  644MOL0     H84975   5.746   6.176   5.845 -1.4545  0.7989  1.3157
  644MOL0     H84976   5.803   6.071   5.569 -0.5285  3.0390 -1.0984
  644MOL0     H84977   5.888   6.004   5.705  1.1125  0.1862 -0.0718
  644MOL0     H84978   6.023   6.187   5.754 -0.7322 -0.8110  1.6961
  644MOL0     H84979   5.907   6.304   5.703  3.3149  1.9381 -0.3191
  644MOL0     H84980   6.090   6.136   5.537  1.8672  1.5209  2.9603
  644MOL0     H84981   5.956   6.237   5.462  0.8111  2.2426 -0.0507
  644MOL0     H84982   6.052   6.432   5.565  0.3309  1.9081 -2.3463
  644MOL0     H84983   6.160   6.359   5.441 -0.9480 -0.5177 -1.0684
  644MOL0     H84984   6.278   6.236   5.622  0.0225 -0.0760 -0.3696
  644MOL0     H84985   6.207   6.341   5.745  0.2080  0.9877 -0.1063
  644MOL0     H84986   6.409   6.436   5.701 -1.8804 -1.2007  1.4575
  644MOL0     H84987   6.375   6.437   5.518 -0.6581 -2.0726 -0.8508
  644MOL0     H84988   6.257   6.601   5.743 -1.7664 -1.7349  0.2063
  644MOL0     H84989   6.184   6.594   5.576  0.8875 -2.5563 -1.0392
  644MOL0     H84990   5.519   6.125   5.927 -0.9900  3.3456  1.0737
  644MOL0     H84991   5.298   6.072   5.974  0.9657 -1.8634  0.0868
  644MOL0     H84992   4.962   5.711   5.695  1.0968 -0.2826  0.8504
  644MOL0     H84993   4.786   5.577   5.788  2.7775 -0.7915 -2.1766
  644MOL0     H84994   4.256   6.458   6.380  0.2548 -0.1979  0.1541
  644MOL0     H84995   4.492   6.552   6.359 -2.8889  2.7303  1.8561
  644MOL0     H84996   5.075   6.398   6.495  2.2219 -0.2885 -0.4158
  644MOL0     H84997   5.264   6.570   6.465  0.7479  0.8265  0.7511
  644MOL0     H84998   5.284   6.802   6.685 -1.4126  1.3079  0.6583
  644MOL0     H84999   5.224   6.965   6.645  0.3441  0.8696 -0.1671
  644MOL0     H85000   5.425   7.007   6.543 -1.7928 -1.5948 -2.5237
  644MOL0     H85001   5.441   6.953   6.716 -1.1409 -1.1314  1.2094
  644MOL0     H85002   5.494   6.774   6.459  2.5447  1.4312 -0.9919
  644MOL0     H85003   5.515   6.724   6.632  0.4787  0.4601  0.0802
  644MOL0     H85004   5.656   6.969   6.539 -0.4949  0.9712  0.7494
  644MOL0     H85005   5.696   6.845   6.655 -1.7936  1.9639  0.9073
  644MOL0     H85006   5.823   6.667   6.282 -0.5062 -0.0707 -0.7525
  644MOL0     H85007   4.997   6.890   6.490  2.1076 -0.0248  3.5979
  644MOL0     H85008   4.798   6.727   6.503  1.8386  1.8967  0.3144
  645MOL0     O85009   4.646   5.017  10.848 -0.0484 -0.4984 -0.3462
  645MOL0     C85010   4.657   4.945  10.752  0.0817  0.5294  1.8403
  645MOL0     O85011   4.609   4.818  10.733 -0.0820  0.6489  0.3232
  645MOL0     C85012   4.511   4.780  10.826  0.0109 -0.5208  0.4949
  645MOL0     C85013   4.399   4.854  10.866 -0.1685  1.0493 -0.0271
  645MOL0     C85014   4.296   4.809  10.949  0.5826 -0.2207 -0.8849
  645MOL0     C85015   4.301   4.674  10.988  0.5477 -0.2977 -0.0775
  645MOL0     O85016   4.200   4.636  11.065  0.4725 -0.3485 -0.6610
  645MOL0     C85017   4.212   4.519  11.158  0.6502 -0.3267 -0.5408
  645MOL0     C85018   4.134   4.535  11.285 -0.0912  0.9486  0.1350
  645MOL0     C85019   3.978   4.558  11.290  0.6191 -0.2835 -0.3512
  645MOL0     C85020   3.901   4.424  11.285  0.2286  0.1513 -0.4138
  645MOL0     C85021   3.752   4.431  11.276  0.3985 -0.2992  0.1962
  645MOL0     C85022   3.690   4.306  11.330 -0.4627 -0.5297 -0.3268
  645MOL0     C85023   3.533   4.337  11.349 -0.1620  0.2808 -0.0376
  645MOL0     C85024   3.462   4.211  11.403 -0.2942  0.3332 -0.1461
  645MOL0     N85025   3.321   4.213  11.376 -0.2759 -0.0463  0.3654
  645MOL0     C85026   3.226   4.311  11.348 -0.2717 -0.7098  0.2071
  645MOL0     C85027   3.113   4.249  11.333  1.0040 -0.8848  0.1991
  645MOL0     C85028   2.981   4.333  11.321  0.3523 -0.5385  0.7873
  645MOL0     C85029   2.943   4.404  11.447 -0.2042 -0.4484 -0.9590
  645MOL0     C85030   2.857   4.538  11.428 -0.3043  0.4564 -0.6706
  645MOL0     C85031   2.709   4.503  11.437 -0.1984 -0.2219  0.3812
  645MOL0     O85032   2.629   4.621  11.457 -0.9550 -0.1678 -0.1214
  645MOL0     C85033   2.499   4.604  11.414  0.2664 -0.9803 -0.3747
  645MOL0     C85034   2.427   4.722  11.394  0.6006  1.2548  0.4340
  645MOL0     C85035   2.288   4.711  11.378  0.3468 -0.2832  0.0789
  645MOL0     C85036   2.221   4.592  11.363  0.0235  0.5092 -0.5864
  645MOL0     C85037   2.078   4.580  11.340 -1.3593 -0.0690 -0.5333
  645MOL0     O85038   2.029   4.452  11.335 -0.2978 -0.0280 -0.1897
  645MOL0     C85039   1.898   4.439  11.349 -0.1844  0.0004  0.5248
  645MOL0     C85040   1.823   4.505  11.448  0.2588  0.3701 -0.7792
  645MOL0     C85041   1.677   4.485  11.462 -0.2527  0.6557 -0.0671
  645MOL0     C85042   1.609   4.401  11.370 -0.4198 -0.1253 -0.0337
  645MOL0     O85043   1.470   4.403  11.378 -0.3457  0.1755 -0.2547
  645MOL0     C85044   1.390   4.312  11.304  0.2117  0.3289  0.4504
  645MOL0     C85045   1.258   4.318  11.400  0.0891  0.7927 -0.9084
  645MOL0     C85046   1.140   4.232  11.353  0.6665  0.2383  0.3128
  645MOL0     C85047   1.021   4.236  11.445 -1.1228  0.3410 -0.1308
  645MOL0     C85048   0.910   4.149  11.397 -0.0838  0.5182 -0.2146
  645MOL0     C85049   0.805   4.149  11.506  0.9673  0.3661 -0.3380
  645MOL0     C85050   0.689   4.056  11.452  0.3008 -0.6231  0.2344
  645MOL0     C85051   0.564   4.043  11.539  0.3369  0.4027  0.3099
  645MOL0    Cl85052   0.436   3.963  11.452 -0.3471 -0.3425  0.0436
  645MOL0     C85053   1.692   4.331  11.277  0.6389  0.6488 -0.0483
  645MOL0     C85054   1.830   4.357  11.260  1.0137  0.4863  0.4105
  645MOL0     O85055   2.006   4.685  11.335 -0.7976 -0.5586  0.2395
  645MOL0     C85056   2.296   4.478  11.394  0.3641  0.7871 -0.1497
  645MOL0     C85057   2.425   4.482  11.424  0.0150 -0.2896  0.0058
  645MOL0     N85058   3.135   4.122  11.353 -0.8746 -0.2972  0.8770
  645MOL0     N85059   3.256   4.097  11.377  0.0819  0.5471  0.3805
  645MOL0     C85060   4.418   4.598  10.948  0.8947 -0.8451 -0.2671
  645MOL0     C85061   4.520   4.650  10.869 -0.5618 -0.0573 -0.3224
  645MOL0     C85062   4.759   4.995  10.652 -1.0292 -0.0795 -0.4492
  645MOL0     C85063   4.815   4.899  10.562 -1.3276 -0.8536  1.1167
  645MOL0     C85064   4.928   4.931  10.477  0.8962  0.0572 -0.8099
  645MOL0     C85065   4.988   5.054  10.498  0.6169 -0.9854  0.9050
  645MOL0     O85066   5.097   5.109  10.422  0.0698 -0.1991  0.1958
  645MOL0     C85067   5.156   5.033  10.323 -0.8043 -0.0039  0.5191
  645MOL0     C85068   5.305   5.073  10.303 -0.1727 -0.0643 -0.4027
  645MOL0     C85069   5.316   5.221  10.242 -0.4523 -0.2770 -0.8164
  645MOL0     C85070   5.440   5.250  10.165 -0.8002  0.5377  0.4679
  645MOL0     C85071   5.420   5.207  10.028  0.9629 -0.0667 -0.6228
  645MOL0     C85072   5.378   5.186   9.908 -0.3566  0.1262  0.2957
  645MOL0     C85073   4.937   5.149  10.598  0.0121  0.1749  0.2377
  645MOL0     C85074   4.823   5.113  10.671  0.7605  0.4911 -0.8145
  645MOL0     H85075   4.399   4.954  10.823  0.8792  0.0893 -2.4445
  645MOL0     H85076   4.218   4.877  10.981  1.4043  0.9141 -1.2419
  645MOL0     H85077   4.315   4.520  11.194  1.3119 -2.4894 -2.1287
  645MOL0     H85078   4.202   4.427  11.099  0.5794  0.0818 -1.1735
  645MOL0     H85079   4.188   4.615  11.335  2.5276 -0.8466  0.3796
  645MOL0     H85080   4.150   4.444  11.343 -1.9661  0.0078 -0.7244
  645MOL0     H85081   3.941   4.635  11.222 -1.8161  0.2607  1.4441
  645MOL0     H85082   3.959   4.602  11.388  1.2439  0.4203 -0.5383
  645MOL0     H85083   3.927   4.383  11.187  0.1988 -3.8641  1.0629
  645MOL0     H85084   3.936   4.356  11.364  3.3018  3.6195  1.5217
  645MOL0     H85085   3.723   4.443  11.171  0.5499 -1.7995 -0.0450
  645MOL0     H85086   3.714   4.509  11.342 -0.6613 -0.3624 -0.3082
  645MOL0     H85087   3.741   4.282  11.423 -0.9524 -2.6736 -0.5728
  645MOL0     H85088   3.700   4.222  11.261  0.5469  0.7851 -1.8775
  645MOL0     H85089   3.511   4.424  11.412  1.2343  1.5067 -1.1574
  645MOL0     H85090   3.494   4.372  11.253  0.3977 -0.7951 -0.6709
  645MOL0     H85091   3.488   4.191  11.507 -0.7396  0.7170  0.0447
  645MOL0     H85092   3.499   4.127  11.344  2.5789 -1.2380  3.5281
  645MOL0     H85093   3.239   4.419  11.342 -0.4429 -0.7153 -0.3214
  645MOL0     H85094   2.900   4.266  11.291  0.1270  0.2030 -0.3270
  645MOL0     H85095   2.986   4.404  11.237  0.9219 -0.8839  0.5245
  645MOL0     H85096   3.033   4.437  11.501 -1.6879 -2.0638  2.8404
  645MOL0     H85097   2.903   4.339  11.526  1.6931  0.3899  0.8184
  645MOL0     H85098   2.894   4.614  11.498  1.5232 -0.0418 -1.0274
  645MOL0     H85099   2.879   4.574  11.327 -1.3217  1.0699 -0.6861
  645MOL0     H85100   2.692   4.428  11.515  0.8962 -1.2550 -0.3226
  645MOL0     H85101   2.675   4.447  11.349  1.1447  0.7952 -0.8439
  645MOL0     H85102   2.461   4.824  11.398 -1.3020  1.9309  0.7340
  645MOL0     H85103   2.239   4.808  11.373  0.2890 -0.2730  0.6764
  645MOL0     H85104   1.862   4.576  11.521  0.6582 -1.0778  0.4515
  645MOL0     H85105   1.626   4.544  11.537 -0.7004 -0.4515  0.5133
  645MOL0     H85106   1.436   4.213  11.298  0.4256  0.4855 -0.6846
  645MOL0     H85107   1.355   4.359  11.212  2.2108  1.6161  0.2928
  645MOL0     H85108   1.220   4.421  11.399 -0.8297  0.5438  1.1017
  645MOL0     H85109   1.296   4.289  11.499 -1.0135  2.0142 -0.0825
  645MOL0     H85110   1.174   4.128  11.341  4.1498  1.3233 -0.3282
  645MOL0     H85111   1.108   4.251  11.250  0.7566 -1.0684  0.0193
  645MOL0     H85112   1.054   4.201  11.543 -0.0154 -0.3697 -0.7298
  645MOL0     H85113   0.993   4.342  11.442 -1.3473  0.2811 -0.1533
  645MOL0     H85114   0.946   4.047  11.379 -1.9485 -0.1727 -0.1830
  645MOL0     H85115   0.873   4.190  11.303 -2.0439  1.2995  0.8552
  645MOL0     H85116   0.778   4.253  11.527 -0.1069  0.3918 -1.7121
  645MOL0     H85117   0.840   4.109  11.601  4.5238  1.9713 -0.8119
  645MOL0     H85118   0.651   4.098  11.359 -1.1030 -1.1743  0.5233
  645MOL0     H85119   0.718   3.953  11.432  2.1663 -0.2880  0.9744
  645MOL0     H85120   0.518   4.135  11.575  1.9333  1.5143 -0.3860
  645MOL0     H85121   0.585   3.972  11.620 -0.5340 -0.7179 -0.4149
  645MOL0     H85122   1.649   4.257  11.211  1.6181  1.2199 -1.3647
  645MOL0     H85123   1.889   4.299  11.190 -2.5368 -0.9972 -1.6526
  645MOL0     H85124   2.247   4.381  11.402 -1.1042  1.5922  1.3907
  645MOL0     H85125   2.466   4.393  11.470 -0.6680 -0.6786 -0.1227
  645MOL0     H85126   4.425   4.493  10.974 -0.6569 -0.7239  0.7876
  645MOL0     H85127   4.600   4.587  10.832  0.7400  0.5613  1.3008
  645MOL0     H85128   4.775   4.798  10.554 -2.1337 -0.4516 -0.2128
  645MOL0     H85129   4.967   4.857  10.407  3.3096  0.9114 -0.4749
  645MOL0     H85130   5.101   5.032  10.229  1.3811 -3.7802 -0.9536
  645MOL0     H85131   5.160   4.925  10.343 -0.0694 -0.0056  0.3845
  645MOL0     H85132   5.357   5.062  10.399  0.3465  1.9774 -0.4036
  645MOL0     H85133   5.359   5.007  10.234  0.0629  0.2769 -0.5497
  645MOL0     H85134   5.306   5.283  10.331  0.3249 -0.6516 -0.4559
  645MOL0     H85135   5.222   5.248  10.192 -0.4505 -1.4629 -1.5157
  645MOL0     H85136   5.464   5.356  10.157  1.5283 -0.0086 -0.4510
  645MOL0     H85137   5.530   5.206  10.207 -0.7165  0.9859  0.7678
  645MOL0     H85138   5.335   5.172   9.811 -0.5161  1.8458  0.0871
  645MOL0     H85139   4.988   5.243  10.618 -0.0891  0.2113  0.3269
  645MOL0     H85140   4.801   5.195  10.737 -1.4938 -0.7310  0.0435
  646MOL0     O85141  11.105   2.340  10.371  0.1794  0.4077  0.1442
  646MOL0     C85142  11.180   2.264  10.424  0.3089 -0.1627 -0.1053
  646MOL0     O85143  11.146   2.142  10.472 -0.4782  0.3010  0.5243
  646MOL0     C85144  11.019   2.112  10.501  0.1437  0.7229 -0.1137
  646MOL0     C85145  10.978   1.990  10.454 -0.2438  0.3679 -0.4405
  646MOL0     C85146  10.849   1.943  10.484  0.3917 -0.5186  0.4509
  646MOL0     C85147  10.760   2.023  10.551 -0.0154 -0.4227  1.0553
  646MOL0     O85148  10.634   1.976  10.575 -0.4377  0.2811 -0.2039
  646MOL0     C85149  10.533   2.062  10.606 -0.1242  0.5856 -0.0278
  646MOL0     C85150  10.492   2.148  10.484 -0.2330  0.7563  0.0707
  646MOL0     C85151  10.365   2.219  10.522 -0.1054 -0.4513 -0.1051
  646MOL0     C85152  10.290   2.258  10.393  0.1633  0.1939 -0.1906
  646MOL0     C85153  10.172   2.349  10.423  0.6970 -0.1729 -0.2685
  646MOL0     C85154  10.093   2.380  10.304  0.3800 -0.1756  0.5899
  646MOL0     C85155  10.154   2.458  10.194 -0.0878 -0.6482 -0.7435
  646MOL0     C85156  10.189   2.608  10.234 -0.4066  0.8196 -0.2302
  646MOL0     N85157  10.225   2.689  10.118  0.1083 -0.2274  0.0460
  646MOL0     C85158  10.311   2.640  10.019 -0.2274 -0.4231  0.5871
  646MOL0     C85159  10.297   2.732   9.921  0.3270 -0.2068  0.2859
  646MOL0     C85160  10.361   2.739   9.786  0.6607 -0.5235 -0.4998
  646MOL0     C85161  10.508   2.674   9.791 -0.3696  0.7549 -0.6243
  646MOL0     C85162  10.571   2.723   9.666  0.5999  0.3867 -0.5179
  646MOL0     C85163  10.722   2.740   9.695 -0.2506 -0.7572 -0.8027
  646MOL0     O85164  10.784   2.613   9.713  0.1367 -0.0883  0.0878
  646MOL0     C85165  10.922   2.610   9.747 -0.2474 -0.5254  0.2873
  646MOL0     C85166  10.971   2.506   9.825 -0.4535 -0.4770  0.2083
  646MOL0     C85167  11.108   2.493   9.849 -0.8397  0.0433 -0.7487
  646MOL0     C85168  11.199   2.592   9.811 -0.8029  0.1236  0.4260
  646MOL0     C85169  11.342   2.612   9.849  0.2053 -0.1063 -0.0569
  646MOL0     O85170  11.394   2.507   9.915 -0.0450  1.0681  0.0690
  646MOL0     C85171  11.534   2.514   9.936  0.6293  0.4447  0.1189
  646MOL0     C85172  11.574   2.500  10.065  0.3692 -0.5086 -0.1910
  646MOL0     C85173  11.710   2.488  10.091 -0.1480 -0.5003 -0.7473
  646MOL0     C85174  11.807   2.498   9.991  0.3242  0.2950 -0.7914
  646MOL0     O85175  11.925   2.459  10.036 -0.0777 -0.4700 -0.2862
  646MOL0     C85176  12.044   2.483   9.957  0.5381 -0.1634 -0.0198
  646MOL0     C85177  12.160   2.482  10.043 -0.3311 -0.4444 -0.0405
  646MOL0     C85178  12.283   2.534   9.970 -0.6360  0.0106 -0.9645
  646MOL0     C85179  12.401   2.533  10.064  0.1451  0.0525  0.3339
  646MOL0     C85180  12.526   2.615  10.018  0.2972 -0.5720  0.2910
  646MOL0     C85181  12.627   2.648  10.133 -1.1022 -0.2238 -0.6485
  646MOL0     C85182  12.709   2.522  10.155 -0.8394  0.0357 -0.0074
  646MOL0     C85183  12.801   2.474  10.036 -0.0091  0.8483 -0.3894
  646MOL0    Cl85184  12.957   2.395  10.095  0.4159 -0.1924  0.0598
  646MOL0     C85185  11.767   2.521   9.860 -0.2231  0.0239 -0.3613
  646MOL0     C85186  11.628   2.518   9.833  0.8509  0.4012  0.1578
  646MOL0     O85187  11.404   2.716   9.813 -0.5259 -0.7712 -0.1495
  646MOL0     C85188  11.145   2.704   9.749 -0.5354 -0.1659  0.2886
  646MOL0     C85189  11.015   2.708   9.708 -0.1350 -0.2886 -0.7393
  646MOL0     N85190  10.198   2.827   9.957  0.2436 -0.3456 -0.2627
  646MOL0     N85191  10.170   2.805  10.080  0.6056  0.4834 -0.3295
  646MOL0     C85192  10.809   2.144  10.601  0.1064 -0.0234  0.4435
  646MOL0     C85193  10.936   2.187  10.578 -0.4686 -0.2837 -0.1026
  646MOL0     C85194  11.318   2.304  10.435 -0.5949 -0.5137  0.1242
  646MOL0     C85195  11.412   2.210  10.467  0.9043  0.0303 -0.0140
  646MOL0     C85196  11.546   2.235  10.479 -0.2252  0.2781 -0.4799
  646MOL0     C85197  11.595   2.369  10.459  0.2611 -0.6263  0.9383
  646MOL0     O85198  11.722   2.418  10.474 -0.0197  0.2763 -0.0007
  646MOL0     C85199  11.824   2.323  10.530  0.4745 -0.1298  0.7060
  646MOL0     C85200  11.959   2.403  10.537 -0.1737 -0.7365  0.4346
  646MOL0     C85201  12.010   2.459  10.398  0.3355 -0.4917 -0.0521
  646MOL0     C85202  12.134   2.549  10.419 -0.2946 -0.1350 -0.6392
  646MOL0     C85203  12.260   2.483  10.458 -0.2827  0.4459  0.6208
  646MOL0     C85204  12.373   2.427  10.467  0.1274  0.3640 -0.1528
  646MOL0     C85205  11.503   2.465  10.415  0.1642 -0.0626  0.4182
  646MOL0     C85206  11.367   2.435  10.408 -0.2688  0.1176  0.3580
  646MOL0     H85207  11.041   1.919  10.401 -1.0648  0.3568 -1.4304
  646MOL0     H85208  10.805   1.849  10.452 -1.8621  0.7861 -0.5118
  646MOL0     H85209  10.554   2.130  10.689  2.2331  0.9550 -0.8553
  646MOL0     H85210  10.447   1.998  10.626 -0.0424 -0.0009 -1.4450
  646MOL0     H85211  10.471   2.083  10.399 -1.3750 -0.2834  1.1086
  646MOL0     H85212  10.582   2.208  10.469  0.0276  0.6866  1.2715
  646MOL0     H85213  10.398   2.305  10.580 -0.0361 -0.6011  0.0777
  646MOL0     H85214  10.309   2.155  10.590  1.0161 -0.4464  0.8474
  646MOL0     H85215  10.347   2.312  10.317  0.9117 -1.0214 -0.5141
  646MOL0     H85216  10.244   2.165  10.356 -1.3315  1.2803 -1.1997
  646MOL0     H85217  10.203   2.449  10.457  1.5188 -1.2488  2.4719
  646MOL0     H85218  10.110   2.307  10.503  1.7035  0.0204  0.6385
  646MOL0     H85219  10.000   2.424  10.341 -1.0114 -3.3891  1.2918
  646MOL0     H85220  10.054   2.285  10.266 -0.6865 -0.0949  1.4243
  646MOL0     H85221  10.239   2.405  10.152 -0.5607 -0.9700 -1.3071
  646MOL0     H85222  10.085   2.475  10.111 -0.1336  1.2047 -0.3766
  646MOL0     H85223  10.275   2.611  10.302 -1.8151  3.1731  1.6092
  646MOL0     H85224  10.107   2.654  10.289 -1.7686  0.1773 -1.6470
  646MOL0     H85225  10.361   2.545  10.006 -1.2289 -0.8305 -0.5490
  646MOL0     H85226  10.372   2.844   9.759 -1.3679 -0.1338 -0.0209
  646MOL0     H85227  10.294   2.692   9.713  0.7078 -3.2716  1.0793
  646MOL0     H85228  10.499   2.565   9.784 -3.6748  0.9811 -1.8959
  646MOL0     H85229  10.566   2.695   9.881  2.2813  0.2379 -2.1075
  646MOL0     H85230  10.556   2.651   9.585 -1.8836 -0.5214  0.6268
  646MOL0     H85231  10.528   2.818   9.632 -2.6188  0.6226  3.3658
  646MOL0     H85232  10.731   2.788   9.793 -0.2790 -1.3474 -0.5081
  646MOL0     H85233  10.765   2.801   9.615 -1.8480 -1.4791 -2.2746
  646MOL0     H85234  10.895   2.433   9.850 -0.9193 -0.1933 -0.3547
  646MOL0     H85235  11.141   2.410   9.910 -1.5700 -0.3565 -0.8933
  646MOL0     H85236  11.508   2.497  10.151  0.8797  0.8896  0.2771
  646MOL0     H85237  11.739   2.477  10.196  0.8844 -1.5160 -1.1131
  646MOL0     H85238  12.031   2.578   9.902  0.9781 -1.0627 -1.7525
  646MOL0     H85239  12.045   2.400   9.885 -1.3729  0.0513 -0.3572
  646MOL0     H85240  12.177   2.382  10.083  0.8864 -0.2652 -0.0846
  646MOL0     H85241  12.137   2.549  10.126  2.2193  0.0462  0.3493
  646MOL0     H85242  12.268   2.636   9.933  0.1017  0.9346  1.1295
  646MOL0     H85243  12.307   2.472   9.884 -1.9514 -2.9408  0.6349
  646MOL0     H85244  12.371   2.580  10.158  3.8679 -0.6221  2.0410
  646MOL0     H85245  12.430   2.431  10.088 -1.1234 -0.3711  0.1076
  646MOL0     H85246  12.493   2.719  10.008 -0.5453 -0.3817  3.6113
  646MOL0     H85247  12.575   2.576   9.929  2.2365 -0.8133  1.4002
  646MOL0     H85248  12.572   2.673  10.225  0.3849 -1.9187  0.7796
  646MOL0     H85249  12.687   2.734  10.104  1.6810 -1.1975  1.7216
  646MOL0     H85250  12.756   2.544  10.251  1.3380 -0.3729 -0.9400
  646MOL0     H85251  12.638   2.440  10.175  0.7114 -1.8115 -1.7227
  646MOL0     H85252  12.835   2.562   9.981  0.8093  1.0932  0.4791
  646MOL0     H85253  12.754   2.411   9.960  2.2581 -0.4957 -0.7753
  646MOL0     H85254  11.838   2.515   9.778  0.4890  2.8078 -0.0593
  646MOL0     H85255  11.584   2.527   9.734 -0.2519 -0.4870  0.5466
  646MOL0     H85256  11.199   2.795   9.728 -0.8584  0.6296  2.6135
  646MOL0     H85257  10.977   2.801   9.665 -1.6360 -0.9353 -0.8926
  646MOL0     H85258  10.751   2.212  10.664  2.6317  0.1638  2.7330
  646MOL0     H85259  10.974   2.282  10.614 -2.5741  1.1049 -1.3529
  646MOL0     H85260  11.378   2.110  10.490 -0.7466  0.4948 -0.3231
  646MOL0     H85261  11.619   2.160  10.507  0.7731  1.5889  0.5845
  646MOL0     H85262  11.850   2.242  10.462  0.7008  0.6112 -0.1105
  646MOL0     H85263  11.800   2.275  10.626 -1.0649 -1.7001 -0.4143
  646MOL0     H85264  11.940   2.493  10.597  2.1995  0.6969 -0.8318
  646MOL0     H85265  12.041   2.348  10.584 -0.3179 -0.4747  1.0032
  646MOL0     H85266  11.937   2.514  10.338  1.2128  0.3961 -0.3379
  646MOL0     H85267  12.036   2.377  10.331  0.7830  0.4074 -1.0134
  646MOL0     H85268  12.140   2.607  10.327 -2.3139  3.1010  1.0698
  646MOL0     H85269  12.110   2.620  10.498 -1.8675 -1.2590 -0.0432
  646MOL0     H85270  12.471   2.389  10.486  0.3100 -0.1988 -1.9927
  646MOL0     H85271  11.547   2.561  10.389 -0.9862  1.1302  2.5865
  646MOL0     H85272  11.313   2.520  10.367 -0.1356 -0.9103 -2.1329
  647MOL0     O85273  10.450   1.423   4.918 -0.2112  0.1575 -0.0553
  647MOL0     C85274  10.489   1.535   4.945  1.0471  0.1858  0.6521
  647MOL0     O85275  10.581   1.571   5.034 -0.2571 -0.4674 -0.3772
  647MOL0     C85276  10.627   1.486   5.136  1.3108 -0.0708  0.2932
  647MOL0     C85277  10.759   1.487   5.166  0.0759 -0.9664  0.3995
  647MOL0     C85278  10.813   1.424   5.272 -0.5896 -0.4130 -0.1999
  647MOL0     C85279  10.734   1.358   5.364 -1.3937  0.8343 -0.3275
  647MOL0     O85280  10.793   1.304   5.475 -0.7843  0.1651  0.2206
  647MOL0     C85281  10.724   1.229   5.576 -0.4765 -0.9970  0.1576
  647MOL0     C85282  10.832   1.170   5.675 -0.2175 -0.1918  1.0795
  647MOL0     C85283  10.763   1.076   5.777 -0.8135 -0.3517  0.1079
  647MOL0     C85284  10.857   1.022   5.886 -0.6794 -0.7484  1.2433
  647MOL0     C85285  10.781   0.943   5.985 -0.2366 -0.1059 -0.6639
  647MOL0     C85286  10.877   0.915   6.104  0.1535  0.2102  0.0889
  647MOL0     C85287  10.900   0.762   6.122 -0.0249 -0.1443  0.3520
  647MOL0     C85288  10.785   0.672   6.188  1.0944 -0.1241  0.0485
  647MOL0     N85289  10.789   0.682   6.335  0.4145 -0.3990  0.7806
  647MOL0     C85290  10.752   0.790   6.416 -0.2119  0.0944  0.5132
  647MOL0     C85291  10.740   0.733   6.537 -0.5621  0.2913  0.2690
  647MOL0     C85292  10.695   0.790   6.673 -0.4181  0.0790 -0.5412
  647MOL0     C85293  10.554   0.827   6.691 -0.2316  0.3339  0.2459
  647MOL0     C85294  10.456   0.719   6.664  0.9061  0.3355  0.4202
  647MOL0     C85295  10.401   0.649   6.791  0.3413 -0.0459  0.1589
  647MOL0     O85296  10.309   0.736   6.860  0.2871 -0.2287  0.0536
  647MOL0     C85297  10.278   0.694   6.991 -0.0753  0.1840  0.4531
  647MOL0     C85298  10.152   0.729   7.025 -0.0004  0.9984 -0.2168
  647MOL0     C85299  10.097   0.684   7.142  0.0420  0.4683 -0.7146
  647MOL0     C85300  10.167   0.597   7.233 -0.0574  0.6353 -0.7685
  647MOL0     C85301  10.103   0.549   7.361  0.3176  0.2758  0.3154
  647MOL0     O85302   9.967   0.553   7.372  0.7565 -0.3313 -0.4999
  647MOL0     C85303   9.904   0.537   7.495 -0.8177  0.3566 -0.6546
  647MOL0     C85304   9.929   0.628   7.605  0.5618 -0.2578  1.5126
  647MOL0     C85305   9.844   0.623   7.711  0.2766 -0.4459  0.8888
  647MOL0     C85306   9.745   0.538   7.722  0.3859  0.7303  0.3184
  647MOL0     O85307   9.668   0.550   7.831 -0.2779 -0.0264  0.2447
  647MOL0     C85308   9.733   0.503   7.953  0.2004  1.0639 -0.1174
  647MOL0     C85309   9.644   0.415   8.035  0.0328 -0.1382  0.1097
  647MOL0     C85310   9.587   0.299   7.948 -0.2121 -0.3176 -1.0539
  647MOL0     C85311   9.492   0.196   8.016 -0.6378 -0.9043 -0.9537
  647MOL0     C85312   9.367   0.270   8.033  0.7964 -0.7934 -0.0328
  647MOL0     C85313   9.302   0.341   7.916 -0.3831 -0.0923 -0.1666
  647MOL0     C85314   9.152   0.350   7.945 -0.0044 -0.1956  0.3451
  647MOL0     C85315   9.116   0.444   8.060  0.3214  0.1426 -0.0353
  647MOL0    Cl85316   8.936   0.452   8.082 -0.1964  0.0487  0.1479
  647MOL0     C85317   9.722   0.446   7.615  0.8190  0.2063 -1.4491
  647MOL0     C85318   9.809   0.440   7.504 -0.2282 -0.3779 -1.0571
  647MOL0     O85319  10.181   0.516   7.454  0.4944 -0.7044 -0.0818
  647MOL0     C85320  10.307   0.578   7.207 -0.1303  1.0357  0.2466
  647MOL0     C85321  10.353   0.627   7.084 -0.0946  0.2543 -0.3359
  647MOL0     N85322  10.758   0.597   6.525 -0.5294 -0.5659 -0.1575
  647MOL0     N85323  10.791   0.574   6.405  0.1489 -0.2736 -0.4159
  647MOL0     C85324  10.597   1.351   5.338  0.2559  0.6398  0.8805
  647MOL0     C85325  10.544   1.410   5.217 -0.2624  0.1695 -0.5379
  647MOL0     C85326  10.444   1.654   4.869  0.1490  0.9384  0.2649
  647MOL0     C85327  10.323   1.647   4.794 -1.0239  0.6456 -0.3661
  647MOL0     C85328  10.272   1.763   4.737 -0.5052 -0.0867 -0.1795
  647MOL0     C85329  10.349   1.883   4.748  0.2981 -0.3018 -0.6282
  647MOL0     O85330  10.311   2.001   4.688 -0.3377 -0.5683  0.2621
  647MOL0     C85331  10.183   2.003   4.626 -0.5350 -0.4799  0.2236
  647MOL0     C85332  10.176   2.137   4.551  0.8560  0.8386  0.3476
  647MOL0     C85333  10.038   2.149   4.481  0.4834  0.4890 -0.6888
  647MOL0     C85334  10.030   2.289   4.422  0.3648 -0.4295  0.3311
  647MOL0     C85335   9.901   2.302   4.362  0.0579  0.3897 -0.1070
  647MOL0     C85336   9.792   2.330   4.323  0.3713 -0.3962  0.5324
  647MOL0     C85337  10.476   1.881   4.806 -0.8130  0.0384  0.1693
  647MOL0     C85338  10.525   1.766   4.870 -0.1762 -0.4562 -0.1876
  647MOL0     H85339  10.825   1.542   5.100  0.4999 -2.8200 -0.7931
  647MOL0     H85340  10.918   1.433   5.296 -0.9003  0.0043  1.0722
  647MOL0     H85341  10.649   1.163   5.530 -0.0571 -0.9328 -0.6408
  647MOL0     H85342  10.651   1.284   5.635 -0.4259 -1.9830  1.1713
  647MOL0     H85343  10.885   1.257   5.713  2.0890  0.4321 -3.0178
  647MOL0     H85344  10.906   1.113   5.619 -1.0076  0.1394 -0.3457
  647MOL0     H85345  10.738   0.983   5.725  1.5936 -2.6723  2.8426
  647MOL0     H85346  10.668   1.113   5.819 -0.0839 -0.7917  2.2529
  647MOL0     H85347  10.939   0.961   5.846  0.6950  1.6717  0.1307
  647MOL0     H85348  10.897   1.110   5.936 -0.1609  1.0989 -2.0950
  647MOL0     H85349  10.755   0.848   5.937  0.4348 -2.1242  2.6645
  647MOL0     H85350  10.695   1.008   6.007 -2.0433 -2.8480  1.0497
  647MOL0     H85351  10.828   0.959   6.192  0.3688  2.6401 -0.9204
  647MOL0     H85352  10.974   0.960   6.085  0.8129 -2.1096 -2.7086
  647MOL0     H85353  10.919   0.719   6.023 -0.4582 -0.2058  0.2951
  647MOL0     H85354  10.987   0.744   6.187  1.0394  1.5471 -0.5357
  647MOL0     H85355  10.800   0.572   6.146  0.6826  0.4712 -1.5907
  647MOL0     H85356  10.688   0.708   6.154  1.8266  1.8754 -0.0511
  647MOL0     H85357  10.730   0.894   6.393  2.0411  0.2958 -0.9715
  647MOL0     H85358  10.759   0.878   6.690  1.3676 -0.6824 -2.8323
  647MOL0     H85359  10.722   0.733   6.763  1.3436  0.9373 -0.4665
  647MOL0     H85360  10.528   0.903   6.617 -1.4700 -1.4425 -1.2356
  647MOL0     H85361  10.546   0.862   6.794 -0.3103  4.6429 -1.0600
  647MOL0     H85362  10.368   0.757   6.611 -1.1897 -2.2212  1.8465
  647MOL0     H85363  10.486   0.648   6.587 -2.8643 -0.9057 -0.1079
  647MOL0     H85364  10.475   0.608   6.861 -0.5731 -1.3688  0.3810
  647MOL0     H85365  10.349   0.560   6.755 -0.5794  0.1772  0.9049
  647MOL0     H85366  10.094   0.777   6.947 -1.0982  0.1246  0.0446
  647MOL0     H85367   9.993   0.712   7.161  0.6187  0.9378  2.2490
  647MOL0     H85368  10.002   0.705   7.583 -0.8578  0.6739 -0.1653
  647MOL0     H85369   9.863   0.695   7.791 -0.8506 -0.2563  0.9970
  647MOL0     H85370   9.752   0.589   8.018 -0.0842 -0.2210  1.7511
  647MOL0     H85371   9.826   0.450   7.933  0.3519  0.9255  0.8862
  647MOL0     H85372   9.556   0.466   8.076 -2.3220 -1.0538 -3.3199
  647MOL0     H85373   9.706   0.368   8.111  0.1729 -1.1536 -0.6027
  647MOL0     H85374   9.675   0.249   7.906 -0.1661  0.6448 -2.1653
  647MOL0     H85375   9.547   0.337   7.853  0.8280  0.1810 -1.3169
  647MOL0     H85376   9.493   0.106   7.954  1.1144  0.4983 -3.1171
  647MOL0     H85377   9.524   0.164   8.116 -1.0394  1.2165 -0.0950
  647MOL0     H85378   9.377   0.339   8.117  1.5104 -1.6758  0.6324
  647MOL0     H85379   9.304   0.186   8.064  0.4764 -0.1653  1.0690
  647MOL0     H85380   9.315   0.291   7.820  0.7352  0.4884 -0.3346
  647MOL0     H85381   9.336   0.444   7.911  0.5861 -0.3950 -0.0127
  647MOL0     H85382   9.098   0.374   7.853  2.3378 -3.5333 -2.1326
  647MOL0     H85383   9.105   0.255   7.971 -2.4465  0.1618 -2.2058
  647MOL0     H85384   9.150   0.547   8.043 -0.0614  0.3849  0.6102
  647MOL0     H85385   9.166   0.413   8.152  2.3608  1.4655 -0.6263
  647MOL0     H85386   9.649   0.367   7.628  1.2780 -0.0944 -0.5661
  647MOL0     H85387   9.806   0.368   7.423 -1.9876 -0.9447 -0.5422
  647MOL0     H85388  10.371   0.501   7.248  0.8199  1.6482 -0.0485
  647MOL0     H85389  10.459   0.628   7.064  0.4751  2.1654  2.2358
  647MOL0     H85390  10.523   1.298   5.397 -2.9371  3.7705  0.0608
  647MOL0     H85391  10.437   1.411   5.197 -0.0056 -0.2494 -2.0551
  647MOL0     H85392  10.270   1.553   4.780 -1.1645  0.7800 -0.7460
  647MOL0     H85393  10.174   1.749   4.694  0.7287 -3.2149 -2.4135
  647MOL0     H85394  10.109   1.991   4.706 -0.0110 -1.4464  0.5726
  647MOL0     H85395  10.169   1.917   4.560  0.5576  0.4335 -1.2571
  647MOL0     H85396  10.186   2.218   4.624  3.7976  0.3419  0.6274
  647MOL0     H85397  10.257   2.147   4.479 -0.7484  0.7437 -1.5324
  647MOL0     H85398   9.955   2.130   4.550  0.4059  1.0808 -0.6200
  647MOL0     H85399  10.033   2.078   4.398 -0.5761 -0.3571  0.0726
  647MOL0     H85400  10.036   2.356   4.508 -1.8584  0.3640 -0.0759
  647MOL0     H85401  10.104   2.312   4.344 -1.0285  0.4346 -0.7840
  647MOL0     H85402   9.697   2.357   4.282  1.5333  2.2492 -0.6792
  647MOL0     H85403  10.526   1.974   4.781 -3.8068  2.4279  2.2919
  647MOL0     H85404  10.624   1.757   4.915 -0.7612  0.3903  1.3506
  648MOL0     O85405   8.572   2.100   7.171  0.3797  0.2163 -0.9173
  648MOL0     C85406   8.623   2.000   7.116 -0.0116  0.4281 -0.5959
  648MOL0     O85407   8.549   1.894   7.065 -0.1907  0.5548 -0.1046
  648MOL0     C85408   8.420   1.866   7.093  0.3874 -0.4132  0.4666
  648MOL0     C85409   8.367   1.734   7.112  0.0074  0.1569  0.4414
  648MOL0     C85410   8.229   1.710   7.130 -0.5794  0.6937  0.0867
  648MOL0     C85411   8.130   1.812   7.122  0.3246  0.1538  0.5396
  648MOL0     O85412   7.996   1.796   7.120  0.1606  0.2296 -0.0105
  648MOL0     C85413   7.944   1.659   7.117  0.2500 -0.6264  0.8071
  648MOL0     C85414   7.785   1.656   7.136 -1.1868  0.0458 -0.0320
  648MOL0     C85415   7.731   1.513   7.137  0.5801 -0.0843 -0.7506
  648MOL0     C85416   7.579   1.530   7.171  0.2697 -0.1847  0.2287
  648MOL0     C85417   7.504   1.397   7.159 -0.1869  0.6195 -0.5181
  648MOL0     C85418   7.352   1.404   7.195 -0.4641  0.4015 -0.2303
  648MOL0     C85419   7.279   1.264   7.217 -0.0502 -0.9783  0.6647
  648MOL0     C85420   7.263   1.187   7.088  0.6712 -0.2751 -0.2931
  648MOL0     N85421   7.206   1.261   6.968  0.6435 -0.7866 -0.2035
  648MOL0     C85422   7.071   1.285   6.928 -1.0582 -0.9355 -0.3017
  648MOL0     C85423   7.087   1.371   6.827 -0.1314  0.4040 -0.0635
  648MOL0     C85424   6.982   1.445   6.756 -0.6200  0.0657  0.4722
  648MOL0     C85425   6.890   1.358   6.667  0.2879 -0.0739 -0.8161
  648MOL0     C85426   6.788   1.262   6.732  0.5712  0.1932 -0.1162
  648MOL0     C85427   6.701   1.194   6.620  1.0245  0.8339  0.3067
  648MOL0     O85428   6.623   1.288   6.540  0.4724 -0.1478 -0.4929
  648MOL0     C85429   6.498   1.236   6.499 -0.2283  1.2385 -0.2106
  648MOL0     C85430   6.491   1.143   6.388 -0.4404  0.2588  0.1539
  648MOL0     C85431   6.370   1.090   6.349 -0.2824  0.2536 -0.0991
  648MOL0     C85432   6.247   1.141   6.408  0.0782 -0.0365  0.0980
  648MOL0     C85433   6.122   1.082   6.371  0.3085  0.2038  0.1121
  648MOL0     O85434   6.005   1.158   6.383  0.9033  0.4364  0.1975
  648MOL0     C85435   5.885   1.110   6.330  0.3787 -0.0252 -0.0547
  648MOL0     C85436   5.806   1.014   6.390  0.5304 -0.1500  0.6453
  648MOL0     C85437   5.684   0.966   6.346  0.3342 -0.5280  0.0577
  648MOL0     C85438   5.630   1.008   6.225  0.0700 -0.9061 -0.1856
  648MOL0     O85439   5.517   0.959   6.152 -0.0688 -0.5059 -0.0985
  648MOL0     C85440   5.446   0.860   6.218  0.4919 -0.1770  1.4597
  648MOL0     C85441   5.302   0.832   6.159  0.2997 -0.0468  0.0486
  648MOL0     C85442   5.203   0.769   6.254 -1.3176  0.7229 -0.0538
  648MOL0     C85443   5.062   0.762   6.197  0.8198  0.3695 -0.6877
  648MOL0     C85444   4.971   0.674   6.288 -0.3234  0.5864  0.1575
  648MOL0     C85445   4.845   0.630   6.199 -0.6782  0.3693 -1.3038
  648MOL0     C85446   4.768   0.523   6.273 -0.0988  0.3598  0.8607
  648MOL0     C85447   4.624   0.526   6.216 -0.1989 -0.2833  0.2748
  648MOL0    Cl85448   4.543   0.373   6.271 -0.2712  0.2008 -0.8165
  648MOL0     C85449   5.712   1.097   6.151 -0.9879 -0.1888 -0.2929
  648MOL0     C85450   5.834   1.148   6.204 -0.2749  0.2737 -1.2755
  648MOL0     O85451   6.132   0.973   6.326 -0.1861  0.0343 -0.1693
  648MOL0     C85452   6.251   1.254   6.494 -0.6269  0.4022 -1.1729
  648MOL0     C85453   6.379   1.292   6.546 -0.0173  0.1751 -1.4104
  648MOL0     N85454   7.224   1.389   6.800  0.4265  0.1049  0.2196
  648MOL0     N85455   7.291   1.320   6.884 -0.1122 -0.6581  0.4641
  648MOL0     C85456   8.186   1.948   7.118  1.1532  1.2704 -0.5400
  648MOL0     C85457   8.324   1.969   7.099  0.3060 -0.4025  0.1495
  648MOL0     C85458   8.772   2.004   7.101 -0.6527 -0.3317  0.5750
  648MOL0     C85459   8.843   1.900   7.049 -0.6397  1.1587 -0.6745
  648MOL0     C85460   8.988   1.909   7.034  0.1428  0.0159 -0.1519
  648MOL0     C85461   9.054   2.018   7.073  0.4951 -0.3797 -0.3644
  648MOL0     O85462   9.188   2.046   7.067 -0.2122 -0.5098 -0.3027
  648MOL0     C85463   9.279   1.952   7.007 -0.5281  0.3154 -0.8265
  648MOL0     C85464   9.416   2.003   7.025  0.3409 -0.0156  0.3369
  648MOL0     C85465   9.517   1.895   6.993 -0.0414  0.2042  0.1737
  648MOL0     C85466   9.661   1.951   6.988 -0.5656  0.2365 -0.0176
  648MOL0     C85467   9.752   1.836   6.964  0.9482 -0.2908 -0.5424
  648MOL0     C85468   9.818   1.737   6.946  0.6658 -0.3128 -0.4890
  648MOL0     C85469   8.986   2.126   7.125 -0.4895  0.1758 -0.9318
  648MOL0     C85470   8.845   2.121   7.131  0.4423  0.8304  0.4593
  648MOL0     H85471   8.434   1.649   7.105 -0.9770 -0.5463 -1.5302
  648MOL0     H85472   8.202   1.605   7.142  0.6941  0.5498  2.2480
  648MOL0     H85473   7.989   1.614   7.206 -1.9718 -1.5085  1.5610
  648MOL0     H85474   7.971   1.620   7.019 -0.2629  0.8433  0.0482
  648MOL0     H85475   7.736   1.718   7.061 -0.5190  1.6881  0.8437
  648MOL0     H85476   7.773   1.704   7.234  2.7605 -0.7203  1.0250
  648MOL0     H85477   7.774   1.446   7.212 -1.0514 -1.1355 -0.6936
  648MOL0     H85478   7.729   1.470   7.037 -0.7361 -0.3121 -0.6379
  648MOL0     H85479   7.576   1.562   7.276 -1.0859 -1.9998  0.7913
  648MOL0     H85480   7.528   1.610   7.117  0.9819 -0.2409 -0.5468
  648MOL0     H85481   7.554   1.317   7.215 -0.0395  0.0954 -1.3906
  648MOL0     H85482   7.517   1.366   7.055  0.9042  2.1464 -0.8729
  648MOL0     H85483   7.308   1.468   7.118 -2.9702 -3.6052 -2.5173
  648MOL0     H85484   7.345   1.450   7.294  0.0994  3.6956 -1.6083
  648MOL0     H85485   7.336   1.208   7.291  1.0716  0.7535  1.1760
  648MOL0     H85486   7.186   1.279   7.272 -0.7715  1.1002 -0.9671
  648MOL0     H85487   7.205   1.099   7.116  0.4578  0.0327  0.2580
  648MOL0     H85488   7.362   1.159   7.051  0.8960  0.4248 -0.2474
  648MOL0     H85489   6.975   1.250   6.963 -2.0100  2.4655  0.9046
  648MOL0     H85490   7.039   1.509   6.689 -0.0153  0.2401  1.1424
  648MOL0     H85491   6.920   1.497   6.830 -0.6997  1.3938 -0.4863
  648MOL0     H85492   6.959   1.284   6.627  0.1405 -2.2134  2.5433
  648MOL0     H85493   6.851   1.428   6.592 -0.8000  0.5278  0.2710
  648MOL0     H85494   6.837   1.185   6.792  1.9562  0.1772 -1.2190
  648MOL0     H85495   6.725   1.323   6.798 -0.1660 -1.3769  0.6776
  648MOL0     H85496   6.635   1.124   6.672 -0.3718  0.7164 -1.5201
  648MOL0     H85497   6.766   1.147   6.546  0.1792  1.3880 -0.8207
  648MOL0     H85498   6.586   1.103   6.354 -0.3810  1.2504 -0.9113
  648MOL0     H85499   6.363   1.004   6.283 -0.5045  3.7654 -5.2060
  648MOL0     H85500   5.846   0.975   6.484 -1.0779 -1.5209  0.8070
  648MOL0     H85501   5.638   0.892   6.411  0.9712 -1.4004 -0.4774
  648MOL0     H85502   5.429   0.887   6.323  0.2717  0.5455  1.2485
  648MOL0     H85503   5.488   0.760   6.214 -0.3252 -0.4942  0.4324
  648MOL0     H85504   5.309   0.764   6.073 -1.7438 -1.3230  0.8412
  648MOL0     H85505   5.260   0.923   6.114  1.8872  1.7485  1.9755
  648MOL0     H85506   5.213   0.819   6.351  4.8073  0.8610 -0.3655
  648MOL0     H85507   5.222   0.662   6.263 -2.8457  0.3624 -0.7898
  648MOL0     H85508   5.019   0.862   6.183 -0.1457  0.2290  0.9208
  648MOL0     H85509   5.069   0.713   6.100  3.0291  0.7694 -0.7853
  648MOL0     H85510   4.932   0.728   6.375 -0.0538 -2.3420  2.2513
  648MOL0     H85511   5.029   0.583   6.309  1.0955  1.2250 -0.8238
  648MOL0     H85512   4.875   0.589   6.102  2.7710 -0.2903 -0.0795
  648MOL0     H85513   4.790   0.718   6.165 -0.1805  1.5885  0.8756
  648MOL0     H85514   4.816   0.428   6.248 -1.8642  0.4093 -3.6451
  648MOL0     H85515   4.781   0.547   6.379  0.9344  1.3206  0.5342
  648MOL0     H85516   4.647   0.533   6.109  2.8389  1.8305  0.9142
  648MOL0     H85517   4.563   0.612   6.246 -0.2783  0.2026 -1.2115
  648MOL0     H85518   5.674   1.114   6.051  1.7517 -0.0853 -1.4032
  648MOL0     H85519   5.884   1.215   6.135  3.2631 -1.3993 -0.5744
  648MOL0     H85520   6.161   1.306   6.527  0.2508  1.7464 -0.8442
  648MOL0     H85521   6.374   1.368   6.623  0.4691 -0.6965 -0.5023
  648MOL0     H85522   8.119   2.033   7.115 -0.8949 -0.2504 -0.3026
  648MOL0     H85523   8.358   2.071   7.084 -1.5800  0.1904 -0.4615
  648MOL0     H85524   8.794   1.805   7.036 -0.4663  1.2182 -1.8516
  648MOL0     H85525   9.041   1.820   7.002 -0.5468  0.3827 -2.4641
  648MOL0     H85526   9.247   1.940   6.903  0.1728 -1.3650 -0.8882
  648MOL0     H85527   9.270   1.855   7.058  0.0701 -0.4217 -2.0709
  648MOL0     H85528   9.432   2.095   6.967  1.2742  0.0147  0.6213
  648MOL0     H85529   9.419   2.037   7.128 -2.5763  0.9960  0.1525
  648MOL0     H85530   9.488   1.831   6.909 -0.5366  0.1379  0.3902
  648MOL0     H85531   9.516   1.820   7.073  0.1479 -1.8360 -1.6415
  648MOL0     H85532   9.670   2.016   6.900 -0.4290  1.1830  0.6772
  648MOL0     H85533   9.672   2.005   7.082  1.1519 -0.1236  0.0168
  648MOL0     H85534   9.872   1.653   6.909 -2.8599 -3.4774  0.9633
  648MOL0     H85535   9.055   2.199   7.166  1.3471 -1.2238 -1.3521
  648MOL0     H85536   8.797   2.207   7.176  1.4755  2.4323 -1.3604
  649MOL0     O85537   3.327  10.352   3.783  0.5718 -0.8695  0.1322
  649MOL0     C85538   3.333  10.278   3.687 -0.4210  1.3909  0.5013
  649MOL0     O85539   3.242  10.265   3.583  0.4638 -1.0349 -0.1203
  649MOL0     C85540   3.116  10.323   3.581 -0.1769  0.5431  0.4984
  649MOL0     C85541   3.051  10.395   3.681 -0.3257  0.6533 -0.4729
  649MOL0     C85542   2.918  10.449   3.666 -0.6021 -0.0627  0.0871
  649MOL0     C85543   2.845  10.415   3.552  0.4390 -0.8120  0.4458
  649MOL0     O85544   2.710  10.441   3.527 -0.2071  0.1911  0.1043
  649MOL0     C85545   2.648  10.513   3.634 -0.2445 -0.2230 -0.2875
  649MOL0     C85546   2.497  10.528   3.595 -0.0141  0.6483  0.4079
  649MOL0     C85547   2.426  10.606   3.697  0.0613  0.4352  0.1398
  649MOL0     C85548   2.296  10.663   3.648  0.2082  0.5562  0.8855
  649MOL0     C85549   2.213  10.759   3.737  0.3700 -0.3669  0.2244
  649MOL0     C85550   2.296  10.866   3.821 -0.4432  0.2294 -0.1544
  649MOL0     C85551   2.206  10.963   3.897 -1.3682  0.1568  0.0381
  649MOL0     C85552   2.261  11.109   3.890 -0.0796 -0.7042 -0.1821
  649MOL0     N85553   2.173  11.200   3.963 -1.0321 -0.7344 -0.1128
  649MOL0     C85554   2.081  11.288   3.914 -0.2511 -0.6113  0.1645
  649MOL0     C85555   2.053  11.383   4.010  0.4520  0.0689  0.3180
  649MOL0     C85556   1.956  11.498   3.995  0.4224  0.3458  1.0152
  649MOL0     C85557   1.818  11.434   3.995  0.1760 -0.1350 -0.2310
  649MOL0     C85558   1.711  11.541   3.980 -0.1233  0.1768 -0.2660
  649MOL0     C85559   1.694  11.635   4.103  0.4643 -0.1215 -0.3722
  649MOL0     O85560   1.558  11.679   4.113  0.4221  0.0385  0.2291
  649MOL0     C85561   1.479  11.630   4.214 -0.4330  0.8190  0.1038
  649MOL0     C85562   1.366  11.700   4.245  0.1797 -0.5369  0.0358
  649MOL0     C85563   1.279  11.653   4.345 -0.2204  0.5329  0.6685
  649MOL0     C85564   1.297  11.530   4.405 -0.5486  0.1322 -0.0629
  649MOL0     C85565   1.204  11.487   4.507 -0.0566 -0.2089 -0.2126
  649MOL0     O85566   1.109  11.576   4.545  0.2380  0.0966 -0.1539
  649MOL0     C85567   1.022  11.544   4.647  0.4091 -0.1288  0.4191
  649MOL0     C85568   0.891  11.535   4.616  0.1198  0.1573  0.1744
  649MOL0     C85569   0.795  11.512   4.708  0.5924 -0.1490 -0.5777
  649MOL0     C85570   0.823  11.502   4.844  0.7610 -0.1811  0.1466
  649MOL0     O85571   0.721  11.472   4.933  0.1195 -0.0610 -0.1322
  649MOL0     C85572   0.749  11.464   5.073  0.2843  0.3256  0.0307
  649MOL0     C85573   0.636  11.417   5.166  0.3948  0.4530 -0.0560
  649MOL0     C85574   0.514  11.522   5.165 -0.0130  0.8992 -0.6536
  649MOL0     C85575   0.553  11.658   5.206  0.1892  0.0054 -0.1424
  649MOL0     C85576   0.422  11.741   5.221  0.3152 -0.2042 -0.5890
  649MOL0     C85577   0.454  11.880   5.279  0.2115  0.1473  0.2587
  649MOL0     C85578   0.335  11.970   5.310 -0.4847 -0.3436 -0.6555
  649MOL0     C85579   0.376  12.098   5.382  0.0027 -1.2548  0.0634
  649MOL0    Cl85580   0.222  12.176   5.460 -0.3119  0.1815 -0.1113
  649MOL0     C85581   0.960  11.514   4.876 -0.4918 -0.1711 -0.7275
  649MOL0     C85582   1.063  11.539   4.782 -0.3444  0.2074 -1.0275
  649MOL0     O85583   1.223  11.375   4.558 -0.2062  0.1464  0.3163
  649MOL0     C85584   1.411  11.458   4.376 -0.4778 -0.0104 -0.0428
  649MOL0     C85585   1.498  11.501   4.276  0.0355  0.1968  1.0372
  649MOL0     N85586   2.119  11.338   4.121  0.4140  0.2369 -0.0755
  649MOL0     N85587   2.189  11.234   4.094  0.1078 -0.0748 -0.9872
  649MOL0     C85588   2.908  10.341   3.452 -0.2938  0.0501 -0.0992
  649MOL0     C85589   3.044  10.302   3.462  0.1447 -0.2198  0.6060
  649MOL0     C85590   3.451  10.192   3.667 -0.8719 -0.8828  0.4284
  649MOL0     C85591   3.566  10.212   3.748 -0.2463  0.0228 -0.6171
  649MOL0     C85592   3.674  10.127   3.743  0.0344 -0.5845  0.1389
  649MOL0     C85593   3.675  10.028   3.653 -0.0425  0.5985 -0.9670
  649MOL0     O85594   3.790   9.965   3.646 -0.5129 -0.0687  0.6115
  649MOL0     C85595   3.779   9.818   3.649 -1.1120  0.9230  0.0848
  649MOL0     C85596   3.906   9.757   3.610 -0.6530 -0.3514  0.0106
  649MOL0     C85597   4.024   9.797   3.700  0.7169  0.2095  0.1721
  649MOL0     C85598   4.098   9.686   3.775  0.5287  0.1560  0.1121
  649MOL0     C85599   4.148   9.574   3.690  0.3286  0.3941  1.1855
  649MOL0     C85600   4.185   9.478   3.622 -0.0536  0.2062 -0.0116
  649MOL0     C85601   3.562   9.999   3.579 -0.0261  0.4658  0.4139
  649MOL0     C85602   3.454  10.087   3.574  0.1404 -0.4674 -0.2501
  649MOL0     H85603   3.101  10.407   3.776  0.1770 -3.3782 -0.0481
  649MOL0     H85604   2.877  10.501   3.752  0.6955  1.3348 -0.0913
  649MOL0     H85605   2.692  10.611   3.647 -2.3306  1.2406 -3.0670
  649MOL0     H85606   2.640  10.453   3.725  0.1147 -1.7788 -1.2330
  649MOL0     H85607   2.449  10.431   3.576  1.9208 -0.3345  0.3100
  649MOL0     H85608   2.488  10.583   3.501  0.8142  1.0159  0.5334
  649MOL0     H85609   2.485  10.695   3.721  1.6305 -0.6684  0.5086
  649MOL0     H85610   2.405  10.541   3.782  1.6690 -0.9114 -0.4237
  649MOL0     H85611   2.323  10.716   3.557 -0.1250  2.3268  1.7691
  649MOL0     H85612   2.229  10.586   3.607  1.5270  1.2426 -2.9106
  649MOL0     H85613   2.152  10.702   3.807 -1.8860  2.0463  0.3856
  649MOL0     H85614   2.145  10.812   3.670 -1.0767 -1.0389  1.1292
  649MOL0     H85615   2.342  10.916   3.735  2.5038 -2.3322 -0.2295
  649MOL0     H85616   2.373  10.827   3.888 -1.5815  0.3495  1.2747
  649MOL0     H85617   2.114  10.970   3.838 -1.0433 -0.3243 -0.5274
  649MOL0     H85618   2.187  10.924   3.997  1.1893  2.9692  1.8349
  649MOL0     H85619   2.267  11.142   3.785 -2.3981 -1.8400 -0.7302
  649MOL0     H85620   2.360  11.121   3.935  1.7643  1.1573 -4.1347
  649MOL0     H85621   2.051  11.302   3.811 -0.2576 -2.1646 -0.0797
  649MOL0     H85622   1.960  11.545   3.896 -1.7075  0.8412  1.1291
  649MOL0     H85623   1.963  11.569   4.079 -0.6068 -0.7744  2.0817
  649MOL0     H85624   1.810  11.375   4.088  1.5040  1.0026  0.6463
  649MOL0     H85625   1.799  11.371   3.908 -0.4259  0.1359 -0.2968
  649MOL0     H85626   1.738  11.608   3.898  1.5061  0.6138  0.5903
  649MOL0     H85627   1.612  11.495   3.966 -0.6710  0.1332  2.9712
  649MOL0     H85628   1.748  11.730   4.096 -1.1812  0.8951  0.2312
  649MOL0     H85629   1.731  11.581   4.191 -2.3677 -1.8369 -0.1033
  649MOL0     H85630   1.357  11.802   4.208  1.4647 -0.6024 -0.4798
  649MOL0     H85631   1.196  11.717   4.371 -0.6548  0.5356 -0.6433
  649MOL0     H85632   0.879  11.551   4.509 -1.2188  1.7512  0.5202
  649MOL0     H85633   0.690  11.506   4.679  1.1201 -0.5849 -2.5163
  649MOL0     H85634   0.782  11.560   5.112  0.7703 -0.0615  0.6030
  649MOL0     H85635   0.824  11.390   5.102 -0.4816 -0.1444  0.8724
  649MOL0     H85636   0.676  11.394   5.265 -1.3074 -1.4492  0.2400
  649MOL0     H85637   0.593  11.323   5.131  0.3727  1.2716 -2.3978
  649MOL0     H85638   0.445  11.477   5.236  3.0239 -0.5396  1.6187
  649MOL0     H85639   0.472  11.531   5.064 -0.0037 -1.2533 -0.9003
  649MOL0     H85640   0.598  11.660   5.306  0.8060 -0.5920 -0.3956
  649MOL0     H85641   0.616  11.706   5.130 -2.1563 -0.1961 -2.3102
  649MOL0     H85642   0.351  11.691   5.288  1.7942 -0.4484  0.8554
  649MOL0     H85643   0.380  11.760   5.122  3.0234 -3.1924 -2.5018
  649MOL0     H85644   0.531  11.923   5.215  0.7001  0.3314  0.9601
  649MOL0     H85645   0.501  11.860   5.376  2.5231 -2.3114 -1.2445
  649MOL0     H85646   0.271  11.991   5.223 -3.1549  1.2648  1.5268
  649MOL0     H85647   0.269  11.922   5.382 -0.3091  2.1738  1.3041
  649MOL0     H85648   0.421  12.172   5.314  3.2528 -2.8238  0.3160
  649MOL0     H85649   0.451  12.081   5.460  0.1972 -0.2267  0.1127
  649MOL0     H85650   0.979  11.504   4.982 -2.5911 -0.3316 -0.3145
  649MOL0     H85651   1.168  11.551   4.807 -0.2224 -1.3760 -0.6647
  649MOL0     H85652   1.427  11.367   4.434 -2.4260  0.7598  1.8045
  649MOL0     H85653   1.580  11.438   4.242  0.6580  1.0474  0.9258
  649MOL0     H85654   2.851  10.317   3.363 -1.8001  2.0836  0.2627
  649MOL0     H85655   3.078  10.255   3.370 -1.2554 -0.1650  0.0439
  649MOL0     H85656   3.564  10.299   3.813  0.3407  0.5381 -1.2764
  649MOL0     H85657   3.761  10.149   3.805  0.1303  0.2968 -0.3000
  649MOL0     H85658   3.703   9.770   3.587  3.0289 -5.2316 -1.1038
  649MOL0     H85659   3.753   9.785   3.750 -0.9841  0.1991 -0.1159
  649MOL0     H85660   3.889   9.649   3.604 -0.3785 -0.3998  0.1232
  649MOL0     H85661   3.927   9.779   3.505 -0.7070 -0.4511 -0.0221
  649MOL0     H85662   3.995   9.878   3.767 -0.0967 -0.1650  0.2840
  649MOL0     H85663   4.105   9.835   3.637 -0.0249 -1.1441 -1.6775
  649MOL0     H85664   4.182   9.739   3.819  1.0887 -0.8662  0.3180
  649MOL0     H85665   4.033   9.648   3.855 -1.5901  0.8271 -1.1999
  649MOL0     H85666   4.196   9.387   3.566 -3.1217 -0.4568  0.2792
  649MOL0     H85667   3.567   9.918   3.508 -1.3997 -0.6598  1.5379
  649MOL0     H85668   3.369  10.058   3.514  1.7423  0.6052 -3.2496
  650MOL0     O85669   1.505   5.000   1.885 -0.0904  0.3391 -0.6808
  650MOL0     C85670   1.466   4.910   1.812  0.2824 -0.3025 -0.3585
  650MOL0     O85671   1.439   4.914   1.679  0.0933  0.2090 -0.5598
  650MOL0     C85672   1.359   5.022   1.633  0.0254  0.3579  0.3303
  650MOL0     C85673   1.342   5.048   1.501  0.4277 -0.8886 -0.0758
  650MOL0     C85674   1.236   5.139   1.464 -0.5641  0.0905  0.9529
  650MOL0     C85675   1.163   5.219   1.554  0.5433 -0.4310 -0.6788
  650MOL0     O85676   1.056   5.307   1.518 -0.4698  0.2211 -0.0579
  650MOL0     C85677   0.997   5.412   1.604  0.9142  0.4129 -0.2847
  650MOL0     C85678   0.885   5.369   1.700 -0.3751  0.2387 -0.2516
  650MOL0     C85679   0.783   5.266   1.634  0.3607 -0.0380  0.2956
  650MOL0     C85680   0.721   5.311   1.505 -1.0034 -0.7998  1.2893
  650MOL0     C85681   0.618   5.211   1.462 -0.8586 -0.1012 -0.8930
  650MOL0     C85682   0.472   5.253   1.502  0.9232 -0.1020  0.2864
  650MOL0     C85683   0.386   5.128   1.491 -0.4319  1.0638  0.8308
  650MOL0     C85684   0.376   5.085   1.336  0.4129 -0.0950 -0.7183
  650MOL0     N85685   0.278   4.978   1.314 -0.5118 -0.5764 -0.0115
  650MOL0     C85686   0.146   4.984   1.303  0.6802  0.0935  0.1407
  650MOL0     C85687   0.096   4.860   1.266 -0.0351  0.5420 -0.1317
  650MOL0     C85688  -0.042   4.818   1.228  0.0414  0.2613  0.5997
  650MOL0     C85689  -0.157   4.888   1.302 -0.0150  0.1807 -0.1235
  650MOL0     C85690  -0.299   4.865   1.236  0.0145  0.2356  0.1336
  650MOL0     C85691  -0.323   4.946   1.111 -0.6011 -0.2051 -0.0856
  650MOL0     O85692  -0.446   4.909   1.043  0.8206  0.5830  1.1314
  650MOL0     C85693  -0.572   4.975   1.054  0.7441 -0.7621  0.4650
  650MOL0     C85694  -0.683   4.920   0.982 -0.8378 -0.7710 -0.2687
  650MOL0     C85695  -0.810   4.981   0.998 -0.2938  1.3195  0.2082
  650MOL0     C85696  -0.827   5.082   1.090  0.7640  0.0415 -0.0305
  650MOL0     C85697  -0.967   5.143   1.103 -0.6859 -0.1460  0.0033
  650MOL0     O85698  -1.073   5.072   1.063  0.0098  0.2770 -0.5149
  650MOL0     C85699  -1.198   5.105   1.091  0.9641 -0.5495 -1.1071
  650MOL0     C85700  -1.291   4.998   1.083  0.2373 -0.3405 -0.6129
  650MOL0     C85701  -1.426   5.015   1.114 -0.1176 -0.0767  0.0889
  650MOL0     C85702  -1.475   5.138   1.154  0.0480 -0.4788  0.0552
  650MOL0     O85703  -1.610   5.140   1.172  0.4920 -0.3611  0.0375
  650MOL0     C85704  -1.670   5.253   1.245  0.2511 -0.5272 -1.0809
  650MOL0     C85705  -1.786   5.204   1.342 -0.5062  0.6103  0.2293
  650MOL0     C85706  -1.866   5.081   1.288 -0.2629  0.0682  0.2589
  650MOL0     C85707  -1.979   5.051   1.389 -0.5093  0.5955 -0.1091
  650MOL0     C85708  -2.072   4.933   1.352  0.1096 -0.9003 -0.2725
  650MOL0     C85709  -2.197   4.998   1.285 -0.1811  0.4896 -0.3491
  650MOL0     C85710  -2.286   4.880   1.246 -0.2908 -0.3604  0.4141
  650MOL0     C85711  -2.420   4.944   1.211  0.6138  0.5620  0.9096
  650MOL0    Cl85712  -2.542   4.814   1.205  0.6233  0.3616  0.0731
  650MOL0     C85713  -1.387   5.244   1.169 -0.6168 -0.2081 -0.3068
  650MOL0     C85714  -1.255   5.229   1.133 -0.3148  0.8149  0.7396
  650MOL0     O85715  -0.966   5.248   1.163  0.4140 -0.3564 -0.1568
  650MOL0     C85716  -0.723   5.141   1.166 -1.2348  0.0926  0.6513
  650MOL0     C85717  -0.602   5.082   1.146 -0.7809  0.3033 -0.3161
  650MOL0     N85718   0.205   4.780   1.258 -0.7428 -0.0340 -0.0866
  650MOL0     N85719   0.315   4.846   1.292  0.2699  0.4059 -0.6549
  650MOL0     C85720   1.195   5.199   1.686 -0.0233 -0.3233 -0.5892
  650MOL0     C85721   1.287   5.097   1.718 -0.2357  0.3792 -0.8189
  650MOL0     C85722   1.469   4.769   1.858 -0.1897 -0.3369 -0.0277
  650MOL0     C85723   1.535   4.735   1.981 -0.1590 -0.1921  0.2752
  650MOL0     C85724   1.573   4.600   2.006  0.4024 -0.0482 -0.3717
  650MOL0     C85725   1.518   4.494   1.934 -0.2730  0.3926  0.4129
  650MOL0     O85726   1.551   4.373   1.978 -0.5542 -0.2558  0.1401
  650MOL0     C85727   1.480   4.257   1.925 -0.4041 -0.3309  0.1496
  650MOL0     C85728   1.521   4.117   1.986  0.5271  0.8512 -0.3782
  650MOL0     C85729   1.666   4.105   2.034 -0.0528  0.4294 -0.5289
  650MOL0     C85730   1.682   3.967   2.092 -0.5511  0.2840 -0.4320
  650MOL0     C85731   1.605   3.949   2.217 -0.7251  0.5843 -0.4913
  650MOL0     C85732   1.543   3.919   2.318  0.3340 -1.1398 -0.5973
  650MOL0     C85733   1.438   4.523   1.818 -0.4773 -0.0482 -0.6344
  650MOL0     C85734   1.431   4.658   1.780  0.2275 -0.3541 -0.1781
  650MOL0     H85735   1.396   4.985   1.431  1.1046 -1.0374  0.5727
  650MOL0     H85736   1.200   5.150   1.362  2.5413  2.4967 -0.0648
  650MOL0     H85737   0.956   5.488   1.536 -0.3202  0.3407  0.3614
  650MOL0     H85738   1.072   5.471   1.657  1.4164  2.6370 -3.2083
  650MOL0     H85739   0.826   5.459   1.723  0.7376  0.9251  0.0023
  650MOL0     H85740   0.920   5.331   1.797 -0.0761  3.8865  1.2543
  650MOL0     H85741   0.700   5.255   1.704 -0.7606  1.7937 -0.6625
  650MOL0     H85742   0.833   5.169   1.628  2.1205  0.5912  2.8578
  650MOL0     H85743   0.691   5.416   1.499  1.3674 -0.1495 -1.3585
  650MOL0     H85744   0.802   5.301   1.432 -3.4661 -2.7821 -1.4535
  650MOL0     H85745   0.636   5.110   1.499 -1.3293 -0.8783 -2.6772
  650MOL0     H85746   0.625   5.202   1.353  0.2889 -2.0692 -0.6898
  650MOL0     H85747   0.412   5.329   1.451 -1.0504 -2.0545 -0.4497
  650MOL0     H85748   0.470   5.293   1.604 -2.1819 -1.7568  0.9948
  650MOL0     H85749   0.437   5.047   1.545  2.4689  2.5695  0.5362
  650MOL0     H85750   0.281   5.141   1.520 -1.6058 -0.1922 -2.3655
  650MOL0     H85751   0.473   5.054   1.297  0.3222 -0.2663 -0.8064
  650MOL0     H85752   0.346   5.177   1.284  1.0770  0.1148 -0.7341
  650MOL0     H85753   0.082   5.070   1.317 -1.0662 -1.3519  1.6613
  650MOL0     H85754  -0.045   4.713   1.259 -0.8952  0.5574  1.5635
  650MOL0     H85755  -0.061   4.823   1.121  2.3294 -0.4490  0.1052
  650MOL0     H85756  -0.139   4.996   1.306  0.0031  0.1495  0.9324
  650MOL0     H85757  -0.161   4.849   1.404  1.3954 -1.6687 -0.7286
  650MOL0     H85758  -0.317   4.763   1.201 -1.0553  0.1595  0.8596
  650MOL0     H85759  -0.376   4.878   1.312  2.6268  0.2389  2.9499
  650MOL0     H85760  -0.238   4.931   1.044 -1.4756 -1.0552 -1.0389
  650MOL0     H85761  -0.312   5.053   1.135  2.7690 -0.1309 -1.4818
  650MOL0     H85762  -0.671   4.825   0.931  0.0149  0.1272 -1.7820
  650MOL0     H85763  -0.896   4.945   0.943  0.3576  0.8383 -0.5074
  650MOL0     H85764  -1.257   4.899   1.056  0.4803 -0.2846 -0.5181
  650MOL0     H85765  -1.499   4.935   1.116  1.1111 -1.2371  2.2757
  650MOL0     H85766  -1.715   5.321   1.172  1.4897  1.5465  0.0127
  650MOL0     H85767  -1.596   5.316   1.295  0.7794 -1.4423 -0.6927
  650MOL0     H85768  -1.844   5.293   1.368  0.1173  1.4440 -1.0953
  650MOL0     H85769  -1.742   5.167   1.435 -0.9763  1.4966  0.8276
  650MOL0     H85770  -1.802   4.994   1.272 -2.6861 -2.2549  2.3323
  650MOL0     H85771  -1.913   5.105   1.192  0.7985  2.4663  0.2657
  650MOL0     H85772  -1.930   5.039   1.486 -1.1798  1.8396  0.4045
  650MOL0     H85773  -2.040   5.141   1.403 -1.4724  0.5332 -3.0873
  650MOL0     H85774  -2.106   4.896   1.449  1.7901  0.7725  1.0249
  650MOL0     H85775  -2.029   4.856   1.288 -1.4499 -0.1184 -2.3908
  650MOL0     H85776  -2.185   5.051   1.189  0.7720 -1.2456 -1.2298
  650MOL0     H85777  -2.257   5.064   1.349 -1.4840 -0.3056 -0.7284
  650MOL0     H85778  -2.240   4.819   1.169  0.6195  1.0096 -0.1529
  650MOL0     H85779  -2.302   4.814   1.332  2.5329 -1.4807  0.1711
  650MOL0     H85780  -2.427   5.011   1.124 -2.4021  0.8307  1.2423
  650MOL0     H85781  -2.449   5.012   1.292  2.2505  0.9675  1.1892
  650MOL0     H85782  -1.409   5.347   1.194 -0.9637 -0.0690 -1.1466
  650MOL0     H85783  -1.185   5.311   1.141  3.9281 -2.3260 -0.3475
  650MOL0     H85784  -0.720   5.217   1.244  0.8929 -1.1174  1.8576
  650MOL0     H85785  -0.529   5.122   1.216  0.8479 -1.2569 -1.0306
  650MOL0     H85786   1.141   5.245   1.768  1.9625  0.4418  0.3509
  650MOL0     H85787   1.302   5.091   1.826 -1.4376 -1.1069 -0.7042
  650MOL0     H85788   1.576   4.809   2.048  0.6246  0.0010 -0.4095
  650MOL0     H85789   1.642   4.571   2.085 -0.8713  0.0969  0.8458
  650MOL0     H85790   1.504   4.250   1.819  1.7972  0.9357  0.4854
  650MOL0     H85791   1.373   4.262   1.944 -0.5920  0.2328 -0.9690
  650MOL0     H85792   1.446   4.101   2.064  0.6070  2.4038  0.0489
  650MOL0     H85793   1.504   4.045   1.905  1.6538  1.2408 -0.9816
  650MOL0     H85794   1.686   4.174   2.116 -0.4138 -1.1819  0.9652
  650MOL0     H85795   1.738   4.124   1.954  0.3557  2.0955  0.2039
  650MOL0     H85796   1.658   3.892   2.015  2.3910 -0.5525 -0.6339
  650MOL0     H85797   1.791   3.962   2.097 -0.3100 -1.2174 -3.8464
  650MOL0     H85798   1.482   3.897   2.403  0.2776 -2.5694 -0.9788
  650MOL0     H85799   1.406   4.447   1.747  1.4236  0.5429 -2.2218
  650MOL0     H85800   1.380   4.680   1.686  1.6109  2.8102 -0.3327
  651MOL0     O85801   4.201  10.037   1.516 -0.2850 -0.0118  0.2674
  651MOL0     C85802   4.168   9.999   1.409 -0.1790 -0.0300  0.4984
  651MOL0     O85803   4.032   9.978   1.376 -0.1514  0.2747  0.1854
  651MOL0     C85804   3.941   9.970   1.481 -0.0865  0.4734 -0.1693
  651MOL0     C85805   3.853   9.857   1.493 -0.1811  0.3488 -0.2385
  651MOL0     C85806   3.771   9.848   1.599  0.6390  0.2236  0.4395
  651MOL0     C85807   3.756   9.943   1.689 -0.3529 -0.6161 -0.9800
  651MOL0     O85808   3.669   9.932   1.792 -0.2916  0.6553  0.1931
  651MOL0     C85809   3.559   9.835   1.782 -0.1036 -0.1199 -0.6731
  651MOL0     C85810   3.449   9.872   1.883  0.4438 -0.8027 -0.7450
  651MOL0     C85811   3.377  10.000   1.851  0.3720 -0.0669 -0.3799
  651MOL0     C85812   3.299  10.059   1.970  0.2697  0.2127  0.2026
  651MOL0     C85813   3.250  10.196   1.928 -0.0248  0.0445 -0.4667
  651MOL0     C85814   3.177  10.255   2.049 -0.2416 -0.2220 -0.1280
  651MOL0     C85815   3.149  10.404   2.018 -0.3340 -0.4249 -0.5575
  651MOL0     C85816   3.097  10.477   2.142  0.5142 -0.5380  0.3037
  651MOL0     N85817   2.962  10.429   2.176  0.9085 -0.0937  0.0624
  651MOL0     C85818   2.925  10.331   2.272  0.2847 -0.0134 -0.1826
  651MOL0     C85819   2.787  10.336   2.277  0.3092 -0.4898  0.2610
  651MOL0     C85820   2.700  10.271   2.381  0.4980 -1.4143 -0.8178
  651MOL0     C85821   2.562  10.328   2.399  0.2630  0.2395 -0.6048
  651MOL0     C85822   2.495  10.263   2.526  1.1330  0.6102 -0.5717
  651MOL0     C85823   2.349  10.307   2.535  0.5119 -0.2235 -0.1156
  651MOL0     O85824   2.268  10.292   2.416  0.2901 -0.1424 -0.1495
  651MOL0     C85825   2.143  10.355   2.407  0.5318 -0.3273 -0.9676
  651MOL0     C85826   2.070  10.405   2.514 -0.1423  0.5292  0.1821
  651MOL0     C85827   1.937  10.458   2.496 -0.6498 -0.2581  0.6230
  651MOL0     C85828   1.878  10.460   2.366 -0.2363 -0.3620 -0.6296
  651MOL0     C85829   1.744  10.509   2.366  0.4542 -0.4988  0.0671
  651MOL0     O85830   1.658  10.456   2.454  0.7211 -0.3390  0.3090
  651MOL0     C85831   1.536  10.498   2.495 -0.5882  0.0935 -0.0484
  651MOL0     C85832   1.459  10.400   2.542 -0.3091  0.2739  0.0656
  651MOL0     C85833   1.331  10.412   2.591 -0.0378 -0.1882 -0.4838
  651MOL0     C85834   1.270  10.537   2.576  0.6742 -0.1419  0.3055
  651MOL0     O85835   1.144  10.546   2.640 -0.4266 -0.3762  0.1916
  651MOL0     C85836   1.074  10.673   2.640 -0.6481  0.0134  0.8755
  651MOL0     C85837   0.950  10.660   2.723 -0.1517 -0.1365  0.3547
  651MOL0     C85838   0.983  10.608   2.862  0.2154  0.5523 -0.1310
  651MOL0     C85839   0.854  10.578   2.943  0.3552  0.0276  0.9020
  651MOL0     C85840   0.750  10.696   2.945  0.3045 -0.6459 -0.3538
  651MOL0     C85841   0.674  10.685   3.081 -0.2098 -1.0033 -0.1894
  651MOL0     C85842   0.592  10.813   3.094  0.6212  0.0973 -0.2670
  651MOL0     C85843   0.520  10.827   3.231 -0.6748 -0.3530 -0.5017
  651MOL0    Cl85844   0.439  10.992   3.254  0.0397  0.2844  0.3873
  651MOL0     C85845   1.344  10.642   2.517  1.0476  0.3712 -0.4677
  651MOL0     C85846   1.472  10.622   2.476 -0.4831  0.2418 -0.4819
  651MOL0     O85847   1.713  10.584   2.270 -0.8692 -0.2919 -0.3794
  651MOL0     C85848   1.948  10.403   2.263  1.0594  0.1977 -0.4876
  651MOL0     C85849   2.073  10.350   2.287 -0.1761  0.7129 -0.7833
  651MOL0     N85850   2.743  10.418   2.176 -0.2198 -0.3826 -0.3527
  651MOL0     N85851   2.848  10.468   2.116  0.6290  0.3863  0.4277
  651MOL0     C85852   3.826  10.062   1.677 -0.0027  0.1527  0.8277
  651MOL0     C85853   3.920  10.077   1.569 -0.1384 -0.6725  0.3676
  651MOL0     C85854   4.287   9.982   1.313 -0.1773 -0.0121 -0.5078
  651MOL0     C85855   4.269   9.972   1.171  0.1721  0.3072  1.1716
  651MOL0     C85856   4.381   9.966   1.079  0.0152  0.1902  0.5152
  651MOL0     C85857   4.506   9.972   1.134 -0.0807 -0.0709 -0.1728
  651MOL0     O85858   4.615   9.967   1.059 -0.1490  0.4837  0.1504
  651MOL0     C85859   4.609   9.905   0.927  0.0064 -0.3620  0.8326
  651MOL0     C85860   4.757   9.910   0.873  0.0802  0.3524 -0.2252
  651MOL0     C85861   4.843   9.815   0.957  0.1975  0.2360 -0.2387
  651MOL0     C85862   4.992   9.824   0.927 -0.0057 -0.2165 -0.5411
  651MOL0     C85863   5.016   9.764   0.801 -0.2059  0.0968  0.7194
  651MOL0     C85864   5.039   9.730   0.687  0.5320 -0.8182  0.7223
  651MOL0     C85865   4.526   9.983   1.269 -0.4317 -0.6848 -0.0630
  651MOL0     C85866   4.416   9.987   1.359 -0.4750 -0.5562  0.4272
  651MOL0     H85867   3.848   9.776   1.421  0.3847  0.6716 -0.6491
  651MOL0     H85868   3.716   9.754   1.601  1.7311 -0.4456  0.3075
  651MOL0     H85869   3.586   9.733   1.811  0.6384  0.2821  0.1031
  651MOL0     H85870   3.515   9.843   1.682  0.0247  3.0169 -0.5812
  651MOL0     H85871   3.501   9.896   1.976 -0.8887 -0.1004 -0.1442
  651MOL0     H85872   3.385   9.785   1.902  0.0045 -0.6681 -1.5607
  651MOL0     H85873   3.307   9.985   1.769 -0.8594  0.3371  0.5730
  651MOL0     H85874   3.449  10.080   1.830 -1.1183  2.1108  2.2052
  651MOL0     H85875   3.211   9.995   1.984 -2.2139  3.2633 -0.2842
  651MOL0     H85876   3.363  10.063   2.059  1.2985  0.0094 -0.5035
  651MOL0     H85877   3.194  10.191   1.834 -0.8542  2.1822 -0.1466
  651MOL0     H85878   3.339  10.256   1.906 -1.4208  1.6171 -2.2253
  651MOL0     H85879   3.241  10.241   2.136 -2.1610 -0.9525  1.2093
  651MOL0     H85880   3.085  10.198   2.065  0.1821 -1.0700 -0.6214
  651MOL0     H85881   3.238  10.461   1.990  0.2990  0.0650  2.1717
  651MOL0     H85882   3.071  10.407   1.941 -2.1794 -1.9790  1.1354
  651MOL0     H85883   3.092  10.585   2.128  1.0139 -0.5165  0.2687
  651MOL0     H85884   3.173  10.459   2.219 -0.0026 -0.9730  0.7181
  651MOL0     H85885   2.977  10.272   2.347 -1.1503 -3.0702 -1.4165
  651MOL0     H85886   2.759  10.277   2.473  0.1019  1.7620 -0.6749
  651MOL0     H85887   2.688  10.165   2.355 -1.7510 -1.1885 -0.8429
  651MOL0     H85888   2.516  10.291   2.307  0.7989 -1.4970 -0.1935
  651MOL0     H85889   2.562  10.438   2.406  0.4708  0.1590  0.7474
  651MOL0     H85890   2.501  10.154   2.522  3.6758  0.6675  0.2148
  651MOL0     H85891   2.554  10.295   2.613 -0.1921  1.9648 -0.1240
  651MOL0     H85892   2.352  10.414   2.559 -0.4849  0.2693 -1.9793
  651MOL0     H85893   2.304  10.258   2.623  3.4826 -1.5448  0.7850
  651MOL0     H85894   2.099  10.382   2.617 -1.1750 -0.0482  0.3578
  651MOL0     H85895   1.881  10.511   2.573  1.3067  0.0437  1.9124
  651MOL0     H85896   1.511  10.305   2.555  0.1090  0.6763  1.5922
  651MOL0     H85897   1.269  10.334   2.635  0.6613 -0.5296 -0.0798
  651MOL0     H85898   1.044  10.690   2.537  1.8402  0.1472  0.1281
  651MOL0     H85899   1.128  10.761   2.676 -0.6457  0.1734  0.4732
  651MOL0     H85900   0.881  10.588   2.679  1.7881 -1.4634 -0.6756
  651MOL0     H85901   0.901  10.757   2.727 -1.1137 -0.6284  0.6664
  651MOL0     H85902   1.054  10.675   2.911 -0.5921  1.5651 -0.3212
  651MOL0     H85903   1.031  10.510   2.852 -3.3597 -1.7333  2.3721
  651MOL0     H85904   0.805  10.492   2.896 -1.0041  2.3734 -2.3019
  651MOL0     H85905   0.878  10.552   3.047 -1.0596 -1.5236  0.8793
  651MOL0     H85906   0.675  10.679   2.868 -1.9772 -0.2293  1.6559
  651MOL0     H85907   0.802  10.792   2.941 -1.4299  0.2848 -1.6447
  651MOL0     H85908   0.742  10.690   3.166  1.2837  0.4307 -1.3894
  651MOL0     H85909   0.609  10.597   3.087 -3.5432  0.9473 -3.2781
  651MOL0     H85910   0.666  10.893   3.090  0.4757  0.3328  1.1187
  651MOL0     H85911   0.524  10.813   3.009 -0.2519  0.5460  0.4132
  651MOL0     H85912   0.599  10.820   3.307  0.0714 -0.1792 -1.2385
  651MOL0     H85913   0.447  10.749   3.253  0.7404 -0.9869  2.5400
  651MOL0     H85914   1.287  10.734   2.505  0.1204 -0.3227 -1.5448
  651MOL0     H85915   1.517  10.705   2.421  1.0483  0.1753  0.6208
  651MOL0     H85916   1.904  10.391   2.164 -3.4239 -1.4161  1.4214
  651MOL0     H85917   2.125  10.318   2.197 -0.8407  1.8529 -1.5937
  651MOL0     H85918   3.823  10.141   1.750 -2.0468  1.7163 -0.8123
  651MOL0     H85919   3.985  10.162   1.552 -1.6607  0.9480  2.2216
  651MOL0     H85920   4.176   9.967   1.115  0.5307  0.1332  0.5893
  651MOL0     H85921   4.356   9.943   0.976  1.4116 -4.1484  0.9800
  651MOL0     H85922   4.555   9.965   0.854  3.6414  1.6575 -0.4673
  651MOL0     H85923   4.566   9.805   0.928 -0.1332 -0.3041  1.9740
  651MOL0     H85924   4.765   9.871   0.771  0.4270  0.5768 -0.2846
  651MOL0     H85925   4.794  10.013   0.872  0.0609  0.4091 -2.6636
  651MOL0     H85926   4.808   9.715   0.929  0.0675  0.6703 -1.7142
  651MOL0     H85927   4.823   9.828   1.064 -0.4754  0.0293 -0.3321
  651MOL0     H85928   5.020   9.930   0.926 -2.1296  0.4737 -3.9501
  651MOL0     H85929   5.040   9.771   1.009 -1.7518 -1.2353 -0.1235
  651MOL0     H85930   5.059   9.701   0.585  0.5457 -1.6945  0.9662
  651MOL0     H85931   4.622  10.007   1.314 -1.2544 -2.9105  3.3095
  651MOL0     H85932   4.439  10.002   1.465 -1.2951 -0.8008  0.6416
  652MOL0     O85933  10.319   8.077  10.151  0.5061 -0.4082 -0.8560
  652MOL0     C85934  10.229   8.148  10.107 -0.2316 -0.3316 -0.0788
  652MOL0     O85935  10.236   8.276  10.075  0.0292  0.1787  0.0964
  652MOL0     C85936  10.359   8.336  10.096  0.9219 -0.7595 -0.3631
  652MOL0     C85937  10.394   8.412   9.993  0.1463  0.3744  0.2269
  652MOL0     C85938  10.510   8.480   9.991  0.2962  0.2041  0.7835
  652MOL0     C85939  10.607   8.473  10.092 -0.1149 -0.5076  0.6300
  652MOL0     O85940  10.735   8.535  10.094  0.2158 -0.0427  0.8237
  652MOL0     C85941  10.771   8.612   9.980 -0.4242  0.0066  0.3462
  652MOL0     C85942  10.740   8.762  10.009  0.4208  0.0552  0.4256
  652MOL0     C85943  10.596   8.788  10.050  0.2084 -0.7242  0.2090
  652MOL0     C85944  10.579   8.943  10.051  0.3742  0.0749  0.3638
  652MOL0     C85945  10.438   8.983  10.096 -0.4507 -0.8464  0.2961
  652MOL0     C85946  10.323   8.924  10.014 -0.0540 -0.2776  0.0281
  652MOL0     C85947  10.197   8.989  10.073  0.5320  0.3269 -0.5967
  652MOL0     C85948  10.078   8.937   9.985 -0.2609 -0.2163  0.6662
  652MOL0     N85949   9.944   8.987  10.004  0.2435 -0.0012  0.3620
  652MOL0     C85950   9.896   9.112   9.987  0.8875  0.0660  0.0603
  652MOL0     C85951   9.765   9.116  10.018  0.6751  0.1199  0.2343
  652MOL0     C85952   9.667   9.224  10.000 -0.2056 -0.0128  0.3015
  652MOL0     C85953   9.648   9.248   9.853 -0.1278 -0.2097 -0.1819
  652MOL0     C85954   9.585   9.389   9.810  0.0901 -0.7576 -0.1417
  652MOL0     C85955   9.434   9.397   9.845  0.6028 -0.7979 -0.3718
  652MOL0     O85956   9.378   9.531   9.836  0.3388 -0.0806 -0.0705
  652MOL0     C85957   9.350   9.577   9.717 -0.3483 -0.4927  0.2833
  652MOL0     C85958   9.427   9.686   9.671 -0.0585  0.5134  0.5287
  652MOL0     C85959   9.405   9.738   9.539 -0.5108 -0.1136  0.0949
  652MOL0     C85960   9.289   9.692   9.467 -0.9959 -0.0329  0.1145
  652MOL0     C85961   9.258   9.750   9.328 -0.0738  0.0087 -0.2284
  652MOL0     O85962   9.152   9.701   9.263  0.3920  0.8458  0.6468
  652MOL0     C85963   9.105   9.753   9.140  0.0248  0.8519  0.7179
  652MOL0     C85964   9.185   9.757   9.029 -0.1783  0.0709 -0.0382
  652MOL0     C85965   9.133   9.811   8.904  0.7398  0.0933  0.1247
  652MOL0     C85966   8.999   9.847   8.893 -0.7307 -0.0978 -1.1946
  652MOL0     O85967   8.944   9.909   8.783  0.3218 -0.2545 -0.1085
  652MOL0     C85968   8.981   9.847   8.656  0.5725 -1.2368  0.2365
  652MOL0     C85969   8.877   9.896   8.549 -0.4736 -0.4248  0.3829
  652MOL0     C85970   8.891   9.834   8.404  0.0293  0.1571  0.3393
  652MOL0     C85971   9.036   9.842   8.345  0.8366  1.0603  0.3740
  652MOL0     C85972   9.097   9.980   8.337 -0.8913 -0.6071 -0.6960
  652MOL0     C85973   9.016  10.088   8.265  0.5087 -0.2465 -0.2120
  652MOL0     C85974   8.972  10.039   8.126 -0.4240  0.7042  0.3992
  652MOL0     C85975   8.893  10.144   8.049 -0.8193  0.1418 -0.8318
  652MOL0    Cl85976   8.739  10.173   8.140  0.1665  0.0614  0.0357
  652MOL0     C85977   8.918   9.850   9.007 -0.6249  0.3119 -0.3081
  652MOL0     C85978   8.966   9.797   9.127 -0.1481 -0.3304  0.1408
  652MOL0     O85979   9.330   9.837   9.284  0.0616  0.3377  0.3913
  652MOL0     C85980   9.223   9.578   9.515  0.0926  0.1389  0.2796
  652MOL0     C85981   9.255   9.522   9.640 -0.2601  0.1965 -0.1247
  652MOL0     N85982   9.731   8.989  10.062  0.2962 -0.0113  0.0315
  652MOL0     N85983   9.840   8.915  10.055  0.9808 -0.6692 -1.2599
  652MOL0     C85984  10.566   8.399  10.198 -0.3854  0.3628  0.4522
  652MOL0     C85985  10.442   8.332  10.208  0.5835 -0.2696  0.1582
  652MOL0     C85986  10.095   8.084  10.111 -0.4384  0.8208 -0.8451
  652MOL0     C85987  10.084   7.943  10.101  0.1942  0.3910 -0.5340
  652MOL0     C85988   9.966   7.878  10.124  1.0232 -0.8036 -0.3387
  652MOL0     C85989   9.853   7.962  10.149  0.5034 -0.0916 -0.6019
  652MOL0     O85990   9.743   7.898  10.194  0.3108  0.6265  0.0655
  652MOL0     C85991   9.614   7.957  10.218  0.2096 -0.0454  0.7205
  652MOL0     C85992   9.600   8.018  10.355 -0.5557  0.0674  0.2142
  652MOL0     C85993   9.631   7.915  10.471  0.7785 -0.1116 -0.4580
  652MOL0     C85994   9.516   7.816  10.494  0.7310  0.9095 -0.1398
  652MOL0     C85995   9.525   7.743  10.622 -0.3445  0.2168  0.4301
  652MOL0     C85996   9.526   7.685  10.730 -0.5150  1.2524 -0.4516
  652MOL0     C85997   9.853   8.102  10.139 -1.0260  0.3766 -0.2612
  652MOL0     C85998   9.979   8.161  10.117 -0.4088  0.0177 -0.3968
  652MOL0     H85999  10.330   8.423   9.906 -0.4522 -0.1599  0.5889
  652MOL0     H86000  10.525   8.528   9.895 -0.6914  2.6649  1.7964
  652MOL0     H86001  10.721   8.576   9.889 -0.7820  0.8497  0.2057
  652MOL0     H86002  10.878   8.609   9.954 -0.3105 -2.0090  0.8886
  652MOL0     H86003  10.755   8.817   9.915 -1.7528 -1.3079 -0.7983
  652MOL0     H86004  10.805   8.790  10.092  2.3789  0.0636 -1.0324
  652MOL0     H86005  10.568   8.736  10.142  0.5105 -2.9612 -0.8932
  652MOL0     H86006  10.531   8.749   9.970 -0.1237  0.2270 -0.0064
  652MOL0     H86007  10.645   8.990  10.125 -0.5690  0.6761  0.8411
  652MOL0     H86008  10.603   8.984   9.952 -1.8418 -0.4039 -0.4279
  652MOL0     H86009  10.432   9.091  10.081 -0.4620 -0.7044  1.2758
  652MOL0     H86010  10.428   8.969  10.204  1.0397 -3.4990  0.1897
  652MOL0     H86011  10.323   8.816  10.030  0.9530 -0.1990  0.6396
  652MOL0     H86012  10.333   8.945   9.907  0.9282  1.2053  0.3814
  652MOL0     H86013  10.183   8.954  10.176 -2.2495  0.6197 -0.8183
  652MOL0     H86014  10.211   9.097  10.071  0.2371  0.4290  1.2649
  652MOL0     H86015  10.084   8.827   9.988  0.2199 -0.3993 -3.0408
  652MOL0     H86016  10.110   8.955   9.882 -0.6498  0.0397  0.5904
  652MOL0     H86017   9.950   9.203   9.965  0.9691  0.2958  1.1837
  652MOL0     H86018   9.708   9.307  10.058  1.0087 -1.2119  1.2075
  652MOL0     H86019   9.572   9.204  10.050  0.1612 -1.7674  0.3753
  652MOL0     H86020   9.578   9.172   9.817 -0.2811  0.1787 -0.7159
  652MOL0     H86021   9.748   9.243   9.808  0.8662  0.1056  1.8767
  652MOL0     H86022   9.643   9.464   9.864  1.2683 -0.2210 -2.0796
  652MOL0     H86023   9.601   9.407   9.704 -4.3375 -0.6697 -0.9641
  652MOL0     H86024   9.413   9.365   9.947  0.9700  0.9840  0.3113
  652MOL0     H86025   9.388   9.344   9.762 -2.5465  2.1470 -0.7407
  652MOL0     H86026   9.505   9.721   9.739 -1.4562  0.1963  2.3745
  652MOL0     H86027   9.472   9.816   9.506  1.2015 -1.6798 -0.2543
  652MOL0     H86028   9.292   9.743   9.023 -0.0398  1.4879 -2.7612
  652MOL0     H86029   9.194   9.817   8.814  0.3749  2.3751 -0.0348
  652MOL0     H86030   8.964   9.739   8.661 -0.8203 -1.1607 -1.7336
  652MOL0     H86031   9.083   9.871   8.626  1.5878 -0.1313  4.0271
  652MOL0     H86032   8.882  10.005   8.542 -1.1974 -0.3503  0.9755
  652MOL0     H86033   8.777   9.876   8.589 -0.8151 -0.1132 -0.2853
  652MOL0     H86034   8.818   9.880   8.337  0.0700 -1.4876 -0.9070
  652MOL0     H86035   8.862   9.728   8.413 -2.5833  0.9578  2.9975
  652MOL0     H86036   9.089   9.772   8.411 -1.7850 -2.3872 -0.8419
  652MOL0     H86037   9.026   9.802   8.243 -2.1488  0.7783  0.7013
  652MOL0     H86038   9.195   9.976   8.288 -0.2623  1.4958  0.2907
  652MOL0     H86039   9.128  10.028   8.430 -1.0028  1.7522 -1.7865
  652MOL0     H86040   9.082  10.173   8.250 -0.2540  0.0583 -2.0934
  652MOL0     H86041   8.927  10.122   8.320  0.3375  0.5058 -0.9399
  652MOL0     H86042   9.050   9.995   8.062 -1.8766  1.3169 -1.9197
  652MOL0     H86043   8.896   9.962   8.139  1.1185 -0.7376  1.3444
  652MOL0     H86044   8.886  10.109   7.945  1.5064 -0.1320 -0.9463
  652MOL0     H86045   8.953  10.236   8.046  1.8165 -1.2711  2.6522
  652MOL0     H86046   8.814   9.881   9.000 -0.7337  0.6793  2.0653
  652MOL0     H86047   8.898   9.782   9.211 -0.8557  0.6144 -0.2526
  652MOL0     H86048   9.143   9.539   9.454  0.4086  0.2670 -0.2226
  652MOL0     H86049   9.192   9.445   9.682 -3.6266  1.5958 -2.2069
  652MOL0     H86050  10.640   8.383  10.276  0.1835  1.7388  0.2295
  652MOL0     H86051  10.415   8.286  10.302 -0.8046 -0.4049 -0.2725
  652MOL0     H86052  10.171   7.879  10.092  0.5400  0.5445  1.2150
  652MOL0     H86053   9.970   7.770  10.128 -0.5647 -0.8647  0.2864
  652MOL0     H86054   9.538   7.880  10.203 -2.2584  2.2788  0.5716
  652MOL0     H86055   9.594   8.034  10.142  1.2515 -0.2232  0.2427
  652MOL0     H86056   9.675   8.096  10.371  1.3371 -2.0320  2.1977
  652MOL0     H86057   9.500   8.060  10.374 -0.4153  0.5354 -0.0532
  652MOL0     H86058   9.644   7.962  10.569  0.4955 -1.0353  0.0336
  652MOL0     H86059   9.725   7.864  10.451 -0.2879 -2.2497 -0.2906
  652MOL0     H86060   9.423   7.872  10.482  0.1749 -0.0251 -0.3047
  652MOL0     H86061   9.524   7.740  10.415 -0.8580  0.5111  0.0459
  652MOL0     H86062   9.532   7.634  10.824  2.6561 -1.4985 -1.9295
  652MOL0     H86063   9.770   8.171  10.147 -1.1196  0.1606  0.9243
  652MOL0     H86064   9.991   8.269  10.127 -0.1992 -0.0035 -0.4078
  653MOL0     O86065   0.864   5.993  10.402 -0.3657 -0.1958 -0.1537
  653MOL0     C86066   0.872   6.117  10.390 -0.4162  0.3068  0.6573
  653MOL0     O86067   0.771   6.213  10.395  0.0190 -0.0612  0.9725
  653MOL0     C86068   0.635   6.177  10.405  0.5571  0.9655 -0.6030
  653MOL0     C86069   0.590   6.071  10.332 -0.1915  0.0153 -0.3250
  653MOL0     C86070   0.458   6.039  10.325 -0.3650 -0.6470  0.0971
  653MOL0     C86071   0.365   6.118  10.393 -0.1381 -0.0987  0.3587
  653MOL0     O86072   0.228   6.098  10.379 -0.2158  0.4572 -0.0798
  653MOL0     C86073   0.181   5.969  10.365  0.5145  0.0107  0.2626
  653MOL0     C86074   0.029   5.988  10.369 -0.0581 -1.1294 -0.1413
  653MOL0     C86075  -0.048   5.852  10.359  0.0209 -0.1054  0.2721
  653MOL0     C86076  -0.190   5.884  10.317 -0.6059  0.1520 -0.6796
  653MOL0     C86077  -0.273   5.761  10.319 -0.1716  0.0468 -0.2733
  653MOL0     C86078  -0.415   5.773  10.278 -0.2507  0.1246 -0.2141
  653MOL0     C86079  -0.497   5.649  10.317 -0.7261 -0.6559 -0.3646
  653MOL0     C86080  -0.639   5.695  10.321  0.4066  0.8409 -0.7323
  653MOL0     N86081  -0.741   5.595  10.371 -0.9079 -0.4999  0.0387
  653MOL0     C86082  -0.753   5.576  10.504 -0.2132 -0.0533  0.1616
  653MOL0     C86083  -0.870   5.509  10.524 -0.4846  0.3355 -0.3223
  653MOL0     C86084  -0.922   5.471  10.659  0.6553 -0.1605  0.5150
  653MOL0     C86085  -1.037   5.576  10.689  0.2560 -0.3410 -0.2139
  653MOL0     C86086  -1.156   5.540  10.599 -0.6900  0.1954  0.3424
  653MOL0     C86087  -1.274   5.626  10.624  0.7249 -0.3399 -0.2127
  653MOL0     O86088  -1.353   5.576  10.726  1.1826 -1.0013 -0.7501
  653MOL0     C86089  -1.488   5.612  10.750  0.3921  0.1747 -0.4201
  653MOL0     C86090  -1.544   5.735  10.705  0.2872  0.5396  0.0831
  653MOL0     C86091  -1.674   5.763  10.746 -1.0513 -0.4461 -0.3204
  653MOL0     C86092  -1.744   5.683  10.836 -0.1216 -0.1118  0.7412
  653MOL0     C86093  -1.885   5.713  10.866  0.1493 -0.0851 -0.0883
  653MOL0     O86094  -1.936   5.667  10.989  0.2053  0.2094  0.4705
  653MOL0     C86095  -2.057   5.727  11.012 -0.1811  0.7632  0.5686
  653MOL0     C86096  -2.174   5.650  11.000 -0.3825  0.0871 -0.2904
  653MOL0     C86097  -2.300   5.699  11.037 -0.0619  0.6209 -0.3210
  653MOL0     C86098  -2.312   5.833  11.077  0.0774 -0.2676 -0.3397
  653MOL0     O86099  -2.426   5.898  11.104  0.7664  0.0578 -0.4617
  653MOL0     C86100  -2.552   5.830  11.075 -0.1592  0.3742 -0.6795
  653MOL0     C86101  -2.661   5.929  11.097 -0.2729 -0.3412  0.2315
  653MOL0     C86102  -2.804   5.880  11.069 -0.0736 -0.0955  0.2151
  653MOL0     C86103  -2.903   5.992  11.097  0.3661 -0.2155  0.6076
  653MOL0     C86104  -2.907   6.029  11.243 -0.7754 -0.5165  0.0639
  653MOL0     C86105  -2.981   6.158  11.256 -0.7376 -0.3477  0.3025
  653MOL0     C86106  -3.008   6.188  11.399  0.1089 -0.2771  0.5415
  653MOL0     C86107  -3.051   6.337  11.431  0.6118  0.0478  0.0344
  653MOL0    Cl86108  -3.185   6.388  11.322  0.4292  0.2394  0.1032
  653MOL0     C86109  -2.190   5.906  11.090 -0.8826  0.0653 -0.5961
  653MOL0     C86110  -2.063   5.854  11.055  0.5801  0.1698  0.0849
  653MOL0     O86111  -1.937   5.798  10.796 -0.3484 -0.2752 -0.0377
  653MOL0     C86112  -1.683   5.568  10.890  0.0458 -0.3689  0.5769
  653MOL0     C86113  -1.555   5.537  10.846  0.2419  0.8100 -0.0933
  653MOL0     N86114  -0.925   5.487  10.391  0.0374 -0.2915  0.3301
  653MOL0     N86115  -0.849   5.553  10.306  0.5719 -0.6268 -0.2977
  653MOL0     C86116   0.410   6.225  10.467  0.2015  1.0026  0.4802
  653MOL0     C86117   0.547   6.249  10.478 -0.0350 -0.0827  0.1993
  653MOL0     C86118   1.013   6.162  10.358  0.3130  0.0426 -0.7625
  653MOL0     C86119   1.123   6.079  10.326  0.6793  0.4353 -0.2909
  653MOL0     C86120   1.243   6.139  10.282  0.9714  0.6862 -0.3356
  653MOL0     C86121   1.261   6.275  10.270  0.2540 -1.0734 -0.1747
  653MOL0     O86122   1.381   6.327  10.259  0.1708 -0.1001  0.4611
  653MOL0     C86123   1.454   6.370  10.378 -0.0476  0.1704  0.2070
  653MOL0     C86124   1.560   6.465  10.326  0.5366 -0.6385  0.0369
  653MOL0     C86125   1.677   6.394  10.252 -0.1562 -0.0410 -0.4090
  653MOL0     C86126   1.802   6.467  10.249  0.0100  0.6948  0.4333
  653MOL0     C86127   1.905   6.380  10.191 -0.3670  0.1732 -0.2558
  653MOL0     C86128   1.982   6.292  10.154 -0.0076 -0.0617 -0.0587
  653MOL0     C86129   1.148   6.359  10.303 -0.7165  0.0838  0.1572
  653MOL0     C86130   1.032   6.303  10.347 -0.0415  0.1353  0.5259
  653MOL0     H86131   0.661   6.014  10.273 -0.4285  0.4974 -1.0850
  653MOL0     H86132   0.423   5.955  10.264 -2.7492  0.6692 -0.4624
  653MOL0     H86133   0.213   5.901  10.444  0.2730 -1.2616 -0.7079
  653MOL0     H86134   0.205   5.927  10.267 -0.8640  0.6293 -0.3729
  653MOL0     H86135  -0.001   6.055  10.287 -1.5656 -0.2857  1.0462
  653MOL0     H86136   0.006   6.028  10.468 -0.6739 -2.9660  0.4937
  653MOL0     H86137  -0.038   5.798  10.453  1.0313 -0.2597  0.0821
  653MOL0     H86138   0.000   5.791  10.282  0.2418  1.6477 -1.0354
  653MOL0     H86139  -0.231   5.949  10.395 -0.0949 -1.2255  0.7792
  653MOL0     H86140  -0.196   5.926  10.216  0.3094 -1.9565 -1.6746
  653MOL0     H86141  -0.277   5.712  10.417  0.7214  0.2970 -0.1010
  653MOL0     H86142  -0.226   5.683  10.259  2.2045  1.9996 -1.1311
  653MOL0     H86143  -0.421   5.786  10.169  1.6225  1.9118 -0.1505
  653MOL0     H86144  -0.457   5.858  10.332  2.4462  0.7520  1.0295
  653MOL0     H86145  -0.480   5.565  10.249  0.1101 -2.5342  2.0018
  653MOL0     H86146  -0.464   5.608  10.414 -0.1646 -1.2417 -0.7898
  653MOL0     H86147  -0.663   5.728  10.219 -1.5879  2.1517  0.1009
  653MOL0     H86148  -0.648   5.780  10.389 -0.8367 -0.3288  0.6554
  653MOL0     H86149  -0.683   5.612  10.579  0.1256 -1.1676  0.4110
  653MOL0     H86150  -0.836   5.496  10.723  0.5740  0.4717  0.3847
  653MOL0     H86151  -0.952   5.366  10.650 -2.3297  0.7057 -0.5631
  653MOL0     H86152  -1.001   5.678  10.670  0.9628 -0.0201  2.4461
  653MOL0     H86153  -1.069   5.572  10.793 -2.0651  1.2083 -0.7894
  653MOL0     H86154  -1.126   5.554  10.495  2.4980  4.0029  1.5300
  653MOL0     H86155  -1.185   5.436  10.618  0.0068  0.3337  2.4253
  653MOL0     H86156  -1.324   5.635  10.527 -1.2028 -0.3472  0.7268
  653MOL0     H86157  -1.237   5.726  10.650  0.8520 -0.0390 -1.4706
  653MOL0     H86158  -1.485   5.792  10.633 -0.6223 -1.3638 -2.3052
  653MOL0     H86159  -1.720   5.853  10.707  0.1688  0.0280 -0.7247
  653MOL0     H86160  -2.154   5.547  10.973 -3.4174 -1.7246  3.4666
  653MOL0     H86161  -2.386   5.634  11.042  1.2517 -1.1119  2.2520
  653MOL0     H86162  -2.564   5.749  11.148  0.9410  1.5689  0.9160
  653MOL0     H86163  -2.554   5.787  10.975  0.6347 -0.3705 -0.3930
  653MOL0     H86164  -2.647   6.014  11.030  1.6473 -0.6496  0.1863
  653MOL0     H86165  -2.655   5.967  11.199 -3.2820  2.6335 -0.5210
  653MOL0     H86166  -2.823   5.788  11.125  0.9794 -1.7542 -1.9990
  653MOL0     H86167  -2.803   5.861  10.962 -0.4101 -2.2009  0.5458
  653MOL0     H86168  -2.879   6.076  11.031 -0.5379 -1.4808 -1.4223
  653MOL0     H86169  -3.007   5.962  11.080  0.0313  2.0033 -2.0967
  653MOL0     H86170  -2.811   6.033  11.296 -1.1317 -0.4448  0.7182
  653MOL0     H86171  -2.966   5.952  11.292  0.5345 -0.8098  1.2434
  653MOL0     H86172  -3.074   6.137  11.202 -1.7339  1.6172  1.1661
  653MOL0     H86173  -2.921   6.241  11.217 -0.9100 -0.1218  0.5183
  653MOL0     H86174  -3.093   6.131  11.438  1.3427 -1.2149  1.9928
  653MOL0     H86175  -2.923   6.161  11.462  0.3436 -0.8423 -0.0124
  653MOL0     H86176  -2.969   6.408  11.420  1.3655 -0.6788  0.7753
  653MOL0     H86177  -3.085   6.354  11.534  1.2863 -1.6290  0.5683
  653MOL0     H86178  -2.203   6.004  11.134  0.2111  0.6066 -1.4227
  653MOL0     H86179  -1.978   5.915  11.084  0.2541  0.6594  0.0215
  653MOL0     H86180  -1.744   5.522  10.967  0.3968 -0.7599  0.6244
  653MOL0     H86181  -1.513   5.453  10.902 -0.2313 -0.7507 -1.9745
  653MOL0     H86182   0.344   6.288  10.526 -1.2652 -0.9654  1.0463
  653MOL0     H86183   0.586   6.335  10.532 -3.2363  2.6188 -1.4159
  653MOL0     H86184   1.108   5.971  10.328 -1.3074  0.5209 -3.6881
  653MOL0     H86185   1.322   6.075  10.244 -1.2996 -1.7047 -1.3917
  653MOL0     H86186   1.490   6.291  10.444 -2.3608 -0.6687  0.5374
  653MOL0     H86187   1.388   6.421  10.448 -0.3470 -1.1291  0.9156
  653MOL0     H86188   1.518   6.535  10.254  2.7966  1.7061  0.8593
  653MOL0     H86189   1.586   6.532  10.409 -1.0463  2.3997 -1.7551
  653MOL0     H86190   1.645   6.376  10.150 -1.0407 -0.6679 -0.0344
  653MOL0     H86191   1.700   6.298  10.300  1.9999 -1.1286 -3.3755
  653MOL0     H86192   1.795   6.557  10.186  3.1739  0.7809  0.0389
  653MOL0     H86193   1.842   6.507  10.342  0.4491 -1.0706  1.0418
  653MOL0     H86194   2.054   6.215  10.132  1.5243  0.5602  2.3730
  653MOL0     H86195   1.157   6.466  10.291  0.7518 -0.2424 -2.1514
  653MOL0     H86196   0.946   6.370  10.345  0.7264  1.1637 -2.1681
  654MOL0     O86197   3.732   5.410   0.460 -0.0225  0.6671 -0.5931
  654MOL0     C86198   3.815   5.375   0.375 -0.0753  0.7478  0.0641
  654MOL0     O86199   3.785   5.306   0.269  0.0753  0.1061 -0.3247
  654MOL0     C86200   3.654   5.271   0.242  0.6793  0.6171 -0.3181
  654MOL0     C86201   3.622   5.142   0.201 -1.1392 -0.7568  0.3760
  654MOL0     C86202   3.486   5.107   0.170  0.3918 -0.2724 -0.2441
  654MOL0     C86203   3.386   5.201   0.159 -0.2938  1.0902 -0.2099
  654MOL0     O86204   3.263   5.157   0.109 -0.1481 -0.5221 -0.7684
  654MOL0     C86205   3.158   5.252   0.133  0.6705 -0.7602  0.1342
  654MOL0     C86206   3.027   5.221   0.067  0.4276  0.4324  0.0113
  654MOL0     C86207   2.976   5.092   0.134  0.0870  0.1322  0.7080
  654MOL0     C86208   2.829   5.064   0.085  0.5434  0.8770  0.1697
  654MOL0     C86209   2.757   4.963   0.176  0.3146  1.1389  0.1378
  654MOL0     C86210   2.703   5.021   0.311 -0.7243 -0.2319  0.6839
  654MOL0     C86211   2.682   4.915   0.422 -0.0631  0.1846 -0.0139
  654MOL0     C86212   2.584   4.961   0.537 -0.0852  0.4819  0.7649
  654MOL0     N86213   2.450   4.990   0.482  0.0142 -0.2016 -0.1076
  654MOL0     C86214   2.351   4.892   0.448 -0.7001 -0.4434 -0.2890
  654MOL0     C86215   2.239   4.958   0.418  1.2614 -0.4588 -0.7895
  654MOL0     C86216   2.109   4.889   0.385 -0.5706  0.5631 -0.3057
  654MOL0     C86217   1.981   4.910   0.458 -0.9992 -0.2073  0.7777
  654MOL0     C86218   1.932   5.055   0.438 -0.1273  0.4215  0.0730
  654MOL0     C86219   1.809   5.087   0.526  1.2233  0.3836  0.3164
  654MOL0     O86220   1.717   4.973   0.525 -0.6790  0.1228  0.1909
  654MOL0     C86221   1.592   4.983   0.580 -0.4751 -0.1920  0.5951
  654MOL0     C86222   1.540   4.859   0.607  0.0232 -0.6081 -0.5817
  654MOL0     C86223   1.405   4.852   0.660 -0.4282 -0.8360 -0.4834
  654MOL0     C86224   1.333   4.970   0.686  0.1192 -0.4141  0.2965
  654MOL0     C86225   1.196   4.960   0.731 -0.6177  0.5175 -1.1118
  654MOL0     O86226   1.128   4.842   0.703 -0.2216 -0.1548 -0.1043
  654MOL0     C86227   0.997   4.819   0.733  0.7187  1.0209  0.7977
  654MOL0     C86228   0.953   4.688   0.771 -0.2377 -0.1273  0.4452
  654MOL0     C86229   0.817   4.666   0.807 -0.0494  0.2709 -0.3537
  654MOL0     C86230   0.728   4.771   0.806 -0.2581  0.1213  0.2101
  654MOL0     O86231   0.606   4.741   0.856 -0.7869 -1.0838  0.7127
  654MOL0     C86232   0.543   4.833   0.944  1.0952  0.8700  0.0897
  654MOL0     C86233   0.400   4.817   0.941  0.2079 -1.2590 -0.6100
  654MOL0     C86234   0.341   4.849   0.811  1.1260  0.2294 -0.8135
  654MOL0     C86235   0.204   4.783   0.797 -0.0224  0.5361  0.7742
  654MOL0     C86236   0.105   4.855   0.697 -0.0378  0.8686 -0.9696
  654MOL0     C86237  -0.041   4.799   0.724 -0.4490  0.4263 -0.3744
  654MOL0     C86238  -0.104   4.729   0.603 -0.4422 -0.0806  0.1161
  654MOL0     C86239  -0.114   4.826   0.483 -0.1890 -0.1352  0.7702
  654MOL0    Cl86240  -0.251   4.773   0.380 -0.6658  0.0655  0.0655
  654MOL0     C86241   0.774   4.890   0.752  0.0618 -0.7545 -0.8933
  654MOL0     C86242   0.901   4.922   0.727 -0.4957 -0.3722  0.0168
  654MOL0     O86243   1.146   5.056   0.798 -0.2301  0.4493  0.1106
  654MOL0     C86244   1.394   5.097   0.663  0.3541  0.7083  0.2972
  654MOL0     C86245   1.517   5.105   0.608 -0.5010 -0.2736  0.1899
  654MOL0     N86246   2.263   5.090   0.454  0.5358  0.4063  0.2421
  654MOL0     N86247   2.391   5.109   0.478  0.4720 -0.5063 -0.2917
  654MOL0     C86248   3.424   5.331   0.206  0.5803  0.2934 -1.2043
  654MOL0     C86249   3.551   5.369   0.247 -0.7909 -0.7269 -0.3458
  654MOL0     C86250   3.959   5.414   0.405 -0.0309  0.0798  0.2415
  654MOL0     C86251   4.070   5.374   0.318  1.0768  1.0466 -0.4523
  654MOL0     C86252   4.196   5.412   0.351 -0.7297 -0.1056 -0.0899
  654MOL0     C86253   4.225   5.469   0.480 -0.4233  0.4377  0.5800
  654MOL0     O86254   4.343   5.503   0.534  0.2575 -0.4196 -0.3365
  654MOL0     C86255   4.463   5.477   0.461 -0.0010 -0.4832 -0.1462
  654MOL0     C86256   4.583   5.551   0.535  0.3867 -0.2030  0.6705
  654MOL0     C86257   4.712   5.545   0.456 -0.2543  0.3666 -1.2693
  654MOL0     C86258   4.831   5.592   0.541 -0.4710  0.2623  0.5544
  654MOL0     C86259   4.959   5.549   0.481  0.5863  0.1956 -0.3087
  654MOL0     C86260   5.069   5.517   0.434 -0.6137 -0.4348 -0.2060
  654MOL0     C86261   4.121   5.513   0.556 -0.3673  0.9051 -0.2862
  654MOL0     C86262   3.986   5.483   0.523 -0.0465 -0.3729  0.1982
  654MOL0     H86263   3.714   5.085   0.190 -1.3058 -0.7806 -1.0334
  654MOL0     H86264   3.462   5.008   0.135  3.6175 -0.7351 -1.4978
  654MOL0     H86265   3.190   5.345   0.085  1.9661 -1.9929 -1.5398
  654MOL0     H86266   3.144   5.276   0.238 -0.4953 -1.0859  0.0655
  654MOL0     H86267   3.041   5.210  -0.041  1.4646 -2.1644  0.3500
  654MOL0     H86268   2.953   5.295   0.099 -0.5492 -1.0944  1.4290
  654MOL0     H86269   2.994   5.115   0.239  2.6569  3.3428 -0.2547
  654MOL0     H86270   3.030   4.998   0.119 -2.2133 -1.3743  1.4505
  654MOL0     H86271   2.760   5.149   0.080 -0.7640  0.1738  3.4013
  654MOL0     H86272   2.841   5.024  -0.015  0.3705  0.0832  0.4593
  654MOL0     H86273   2.822   4.877   0.199 -2.0893 -0.3520  1.7163
  654MOL0     H86274   2.671   4.924   0.122  1.5317 -2.2617  0.3679
  654MOL0     H86275   2.613   5.079   0.288 -0.7627 -1.3859 -2.5295
  654MOL0     H86276   2.783   5.087   0.346  0.6492  0.0122 -2.5227
  654MOL0     H86277   2.634   4.827   0.378 -0.2180 -0.3866  1.2484
  654MOL0     H86278   2.772   4.873   0.467 -0.0182 -1.2845 -1.3916
  654MOL0     H86279   2.634   5.045   0.586 -0.4432 -0.4857  2.9016
  654MOL0     H86280   2.568   4.886   0.616 -2.8887 -2.0061 -1.9172
  654MOL0     H86281   2.362   4.784   0.451 -1.7697 -0.5909 -1.0896
  654MOL0     H86282   2.125   4.783   0.405 -3.9122  0.0332  0.1642
  654MOL0     H86283   2.095   4.880   0.277 -1.2669 -0.9873 -0.1191
  654MOL0     H86284   1.992   4.896   0.566 -1.1795  0.4331  0.8819
  654MOL0     H86285   1.908   4.841   0.414 -0.4352  0.0740 -0.6438
  654MOL0     H86286   2.010   5.127   0.464  1.3327 -0.9363 -0.3910
  654MOL0     H86287   1.930   5.050   0.329  1.2300 -1.2391  0.0865
  654MOL0     H86288   1.769   5.183   0.494  1.5309  0.3861 -0.0767
  654MOL0     H86289   1.849   5.104   0.626  3.3451 -0.4572 -0.3247
  654MOL0     H86290   1.582   4.762   0.583  1.2262 -0.5102  0.9617
  654MOL0     H86291   1.358   4.758   0.686 -1.5323 -0.1168  0.2042
  654MOL0     H86292   1.018   4.603   0.788  0.3393 -0.7667 -3.8127
  654MOL0     H86293   0.788   4.565   0.838 -0.7564  0.8563  1.0123
  654MOL0     H86294   0.551   4.938   0.912  1.1767  1.1029  0.8490
  654MOL0     H86295   0.590   4.824   1.042  0.0274  0.1455  0.5497
  654MOL0     H86296   0.347   4.876   1.017  0.1779 -1.5370 -0.4127
  654MOL0     H86297   0.383   4.713   0.969  0.6420 -1.0242  0.6042
  654MOL0     H86298   0.395   4.809   0.725 -1.2065 -0.4216 -2.0387
  654MOL0     H86299   0.322   4.956   0.808  0.3616  0.1288  0.0645
  654MOL0     H86300   0.214   4.676   0.777 -1.5406  0.5628 -0.2592
  654MOL0     H86301   0.156   4.783   0.895 -1.2414 -2.1958  0.2771
  654MOL0     H86302   0.142   4.845   0.594  3.1720  1.0716  0.0476
  654MOL0     H86303   0.106   4.962   0.717  0.2196  0.5173  1.0226
  654MOL0     H86304  -0.098   4.887   0.752 -0.9523 -0.0197  0.0253
  654MOL0     H86305  -0.035   4.739   0.816  1.3211  2.4250  0.9010
  654MOL0     H86306  -0.047   4.637   0.586 -0.0959 -0.1271  1.4450
  654MOL0     H86307  -0.201   4.688   0.631  0.3603 -0.7042  2.2096
  654MOL0     H86308  -0.015   4.820   0.436 -0.3329  1.3332  0.2334
  654MOL0     H86309  -0.127   4.929   0.518  0.2363 -0.0714  0.7527
  654MOL0     H86310   0.697   4.966   0.756  0.7904 -0.0633  1.4883
  654MOL0     H86311   0.920   5.027   0.709 -3.0133  0.2166  0.3975
  654MOL0     H86312   1.346   5.194   0.669 -2.1938 -0.4305 -0.3357
  654MOL0     H86313   1.571   5.198   0.590  1.6984 -1.5378 -0.2250
  654MOL0     H86314   3.353   5.412   0.218  2.9074  2.2834 -0.0059
  654MOL0     H86315   3.572   5.468   0.285  1.1468 -1.4464  0.6461
  654MOL0     H86316   4.056   5.321   0.225  2.0450  0.6040 -0.3562
  654MOL0     H86317   4.274   5.396   0.277  0.9747  3.3075  0.7810
  654MOL0     H86318   4.464   5.523   0.362  1.4965 -0.1770 -0.0098
  654MOL0     H86319   4.483   5.370   0.453  0.5160 -0.4507  0.5911
  654MOL0     H86320   4.543   5.651   0.557 -0.2086 -0.6138  1.4750
  654MOL0     H86321   4.591   5.500   0.631  0.5044  0.3615  0.9645
  654MOL0     H86322   4.716   5.603   0.363  0.3521 -0.3927 -1.7285
  654MOL0     H86323   4.727   5.442   0.423  1.2915 -0.1765  0.8364
  654MOL0     H86324   4.834   5.700   0.555  2.3058  0.1851  1.1548
  654MOL0     H86325   4.829   5.537   0.636  0.4302 -1.5998 -0.4471
  654MOL0     H86326   5.162   5.479   0.398  1.8814  3.2050  1.8165
  654MOL0     H86327   4.144   5.572   0.644 -0.6034 -0.5157  0.7725
  654MOL0     H86328   3.903   5.524   0.580  0.4170  1.0721 -0.1269
  655MOL0     O86329   9.218   8.628   0.411 -0.7293 -0.2982 -0.0316
  655MOL0     C86330   9.221   8.544   0.504 -0.7992  0.1465 -0.2654
  655MOL0     O86331   9.116   8.462   0.545 -0.2652  0.0840  0.1456
  655MOL0     C86332   9.000   8.472   0.473  0.8331 -0.3950  0.1449
  655MOL0     C86333   8.977   8.402   0.354 -0.3559 -0.3483 -0.6654
  655MOL0     C86334   8.853   8.414   0.292  0.9320 -0.3712  1.2280
  655MOL0     C86335   8.752   8.508   0.332  0.3970  0.4306 -0.0207
  655MOL0     O86336   8.642   8.519   0.252  0.6405  0.3032  0.0074
  655MOL0     C86337   8.538   8.602   0.302 -0.4386 -0.0686 -0.0021
  655MOL0     C86338   8.423   8.598   0.209 -0.7695  0.1576  0.1159
  655MOL0     C86339   8.313   8.699   0.244  0.6476 -0.5661 -0.0404
  655MOL0     C86340   8.207   8.700   0.132  0.3300  0.1394 -0.1455
  655MOL0     C86341   8.075   8.755   0.176 -0.8488  0.4527 -0.2468
  655MOL0     C86342   8.002   8.774   0.039 -0.2880  0.3811  0.1397
  655MOL0     C86343   7.864   8.845   0.073 -0.2295  0.3127 -0.9667
  655MOL0     C86344   7.786   8.873  -0.060 -0.4389 -0.1611 -0.1118
  655MOL0     N86345   7.645   8.897  -0.026 -0.1496  0.4665  0.0069
  655MOL0     C86346   7.582   9.010   0.020  0.1116 -0.2883  0.3477
  655MOL0     C86347   7.456   8.973   0.042 -0.0474  0.1956 -0.2216
  655MOL0     C86348   7.339   9.062   0.072 -0.9433 -0.1633 -0.4348
  655MOL0     C86349   7.243   9.071  -0.048  0.6546  0.4404  1.0077
  655MOL0     C86350   7.130   9.146   0.012 -0.9279 -0.7756  0.7734
  655MOL0     C86351   7.039   9.219  -0.097 -0.8182  0.1453 -0.0043
  655MOL0     O86352   6.984   9.127  -0.196 -0.1056  0.1452  0.4654
  655MOL0     C86353   6.877   9.043  -0.169 -0.7025 -0.3009 -0.2906
  655MOL0     C86354   6.799   9.060  -0.052  0.1602  0.6313  0.3672
  655MOL0     C86355   6.683   8.982  -0.040 -0.0435 -0.3177  0.4244
  655MOL0     C86356   6.645   8.886  -0.142  0.0100 -0.2191 -0.2461
  655MOL0     C86357   6.517   8.809  -0.128 -0.3050 -0.2778  0.9266
  655MOL0     O86358   6.454   8.810  -0.009  0.3135  0.5801 -0.9798
  655MOL0     C86359   6.355   8.726   0.017  1.2196 -0.7090  0.5067
  655MOL0     C86360   6.368   8.595   0.071 -0.2827  0.3180  0.5202
  655MOL0     C86361   6.256   8.519   0.091 -0.3986  0.1233 -0.3024
  655MOL0     C86362   6.132   8.576   0.063 -0.4205 -0.2971  0.0625
  655MOL0     O86363   6.029   8.494   0.085  0.2632  0.7313  0.3036
  655MOL0     C86364   5.944   8.477  -0.031  0.4884  0.2154  0.2839
  655MOL0     C86365   5.825   8.378  -0.001  0.4806  0.2645  0.1094
  655MOL0     C86366   5.751   8.331  -0.122  0.5897 -0.3185 -0.7002
  655MOL0     C86367   5.845   8.233  -0.191 -0.7505 -1.1058  1.1340
  655MOL0     C86368   5.788   8.163  -0.316 -0.3990  0.8763  0.4534
  655MOL0     C86369   5.876   8.058  -0.377  0.0873 -0.0758  0.3170
  655MOL0     C86370   5.822   7.998  -0.505  0.9390 -0.0898 -0.4762
  655MOL0     C86371   5.886   7.878  -0.571 -0.3386 -0.1984 -0.2280
  655MOL0    Cl86372   5.775   7.796  -0.695  0.1237 -0.2167  0.3249
  655MOL0     C86373   6.115   8.711   0.029 -0.1169  0.7544 -0.4786
  655MOL0     C86374   6.230   8.777  -0.005  0.3609 -0.1007  1.1807
  655MOL0     O86375   6.480   8.739  -0.224  0.5947 -0.2312  0.5765
  655MOL0     C86376   6.726   8.868  -0.254  0.9941 -0.0382  0.0342
  655MOL0     C86377   6.844   8.951  -0.264 -0.4717  0.0021  0.0193
  655MOL0     N86378   7.441   8.836   0.026 -0.3510  0.3929  0.7509
  655MOL0     N86379   7.557   8.795  -0.020 -0.4991  0.5683  0.5700
  655MOL0     C86380   8.776   8.581   0.447  0.2117  0.0463 -0.0148
  655MOL0     C86381   8.898   8.562   0.520 -0.1952 -0.5946 -0.1998
  655MOL0     C86382   9.347   8.538   0.589 -0.3129 -0.6118  0.3762
  655MOL0     C86383   9.349   8.470   0.709  0.2692 -0.5469 -0.1932
  655MOL0     C86384   9.461   8.449   0.781 -0.4563 -0.0934  0.3427
  655MOL0     C86385   9.574   8.532   0.761  0.2424  0.4437 -0.0528
  655MOL0     O86386   9.681   8.515   0.849 -0.5658  0.2641  0.5577
  655MOL0     C86387   9.781   8.619   0.851  0.2796 -0.4808 -0.3543
  655MOL0     C86388   9.722   8.750   0.898  0.5455 -1.1394  0.0030
  655MOL0     C86389   9.839   8.854   0.910  0.5036  0.3298  0.6923
  655MOL0     C86390   9.808   8.990   0.976  0.8396  0.2205  0.2417
  655MOL0     C86391   9.802   8.985   1.127 -0.3428 -0.6717 -0.3520
  655MOL0     C86392   9.775   8.963   1.249  0.0074 -0.1687  0.1267
  655MOL0     C86393   9.560   8.618   0.657  0.2248 -1.1858 -0.1122
  655MOL0     C86394   9.455   8.615   0.564  0.8203 -0.0969 -1.3785
  655MOL0     H86395   9.055   8.350   0.300  0.2664 -0.8478  0.6695
  655MOL0     H86396   8.832   8.360   0.200 -0.4748  2.7432 -0.4668
  655MOL0     H86397   8.557   8.710   0.306 -1.7932  0.1541  2.1845
  655MOL0     H86398   8.503   8.570   0.401  0.1801 -1.4145 -0.1980
  655MOL0     H86399   8.387   8.495   0.202  1.5934 -0.7828  0.7845
  655MOL0     H86400   8.462   8.635   0.114 -0.1816  1.5748  0.8726
  655MOL0     H86401   8.342   8.803   0.264 -0.0686  0.0626 -1.9955
  655MOL0     H86402   8.262   8.657   0.331  0.0877  0.4155  0.1285
  655MOL0     H86403   8.246   8.727   0.034 -0.5190 -0.6623 -0.7139
  655MOL0     H86404   8.180   8.596   0.114  3.8324 -0.6979 -1.3173
  655MOL0     H86405   8.085   8.858   0.212 -1.5524  0.4825 -0.1206
  655MOL0     H86406   8.022   8.691   0.247 -2.2342  0.2902 -1.3706
  655MOL0     H86407   7.989   8.681  -0.017 -1.0735  1.2337 -1.1565
  655MOL0     H86408   8.065   8.826  -0.033  0.4183  0.8917  1.0982
  655MOL0     H86409   7.807   8.789   0.148  0.0226  0.3382 -0.7539
  655MOL0     H86410   7.876   8.942   0.122  1.5207 -0.2977 -0.1120
  655MOL0     H86411   7.801   8.795  -0.136  1.3841  3.7059 -4.1210
  655MOL0     H86412   7.824   8.961  -0.112  0.4858  0.5588  1.6977
  655MOL0     H86413   7.624   9.110   0.026  3.2705 -1.5558  2.1069
  655MOL0     H86414   7.383   9.156   0.107 -2.5109 -0.0176  1.3060
  655MOL0     H86415   7.292   9.017   0.160 -0.9342  1.5665  0.5164
  655MOL0     H86416   7.218   8.968  -0.075  1.6597  0.2331  0.8355
  655MOL0     H86417   7.292   9.118  -0.134  2.3110 -1.8349  0.6092
  655MOL0     H86418   7.073   9.076   0.073 -0.7775 -0.3323  1.4327
  655MOL0     H86419   7.160   9.227   0.079  1.8876 -0.1162 -1.1027
  655MOL0     H86420   7.118   9.284  -0.137  0.2464 -0.6739  0.6805
  655MOL0     H86421   6.966   9.282  -0.046  1.6845  1.5252  2.1263
  655MOL0     H86422   6.823   9.127   0.030 -1.5358  0.0147  1.4313
  655MOL0     H86423   6.615   8.995   0.043 -2.0413  2.6095 -1.4796
  655MOL0     H86424   6.469   8.557   0.088 -0.9893 -1.5608  0.7330
  655MOL0     H86425   6.267   8.425   0.144 -1.5197 -0.2981 -0.7762
  655MOL0     H86426   6.000   8.439  -0.117  1.6451 -2.1810  1.9827
  655MOL0     H86427   5.905   8.575  -0.062  2.5766  0.8454 -0.5191
  655MOL0     H86428   5.759   8.419   0.076 -3.6059 -4.3900 -0.4184
  655MOL0     H86429   5.869   8.291   0.048 -1.5581  0.0472  1.6687
  655MOL0     H86430   5.717   8.412  -0.187  0.0223  0.3965  0.4483
  655MOL0     H86431   5.665   8.269  -0.096  0.7329 -0.1053  0.3148
  655MOL0     H86432   5.926   8.296  -0.227 -1.6081  0.2271  1.4552
  655MOL0     H86433   5.894   8.168  -0.117  2.5726  1.0640  1.0210
  655MOL0     H86434   5.783   8.236  -0.397 -0.3547  1.4435  0.9530
  655MOL0     H86435   5.691   8.115  -0.296  0.0204 -0.3258 -0.3217
  655MOL0     H86436   5.905   7.982  -0.304  1.0241 -0.8164 -0.7924
  655MOL0     H86437   5.968   8.111  -0.405 -0.2594 -0.7452 -2.3079
  655MOL0     H86438   5.724   7.966  -0.468  0.2578  1.6838 -0.6412
  655MOL0     H86439   5.810   8.078  -0.579 -0.3165 -0.1082 -0.3064
  655MOL0     H86440   5.919   7.811  -0.491  0.7925  0.2545 -0.3100
  655MOL0     H86441   5.971   7.921  -0.623  0.7774 -1.4708  0.4828
  655MOL0     H86442   6.022   8.767   0.024 -0.6492  0.0710  1.1532
  655MOL0     H86443   6.228   8.873  -0.055  0.3034 -0.5983  0.1940
  655MOL0     H86444   6.697   8.808  -0.340  0.5364  1.0002 -0.5512
  655MOL0     H86445   6.916   8.950  -0.345  2.1029  1.7571  2.1186
  655MOL0     H86446   8.704   8.654   0.484 -1.3866 -1.6718  0.3899
  655MOL0     H86447   8.916   8.628   0.604 -1.0562  0.7105 -1.0067
  655MOL0     H86448   9.265   8.409   0.741 -0.1735 -1.2730 -2.5612
  655MOL0     H86449   9.463   8.388   0.870  0.1765  0.6895  0.8803
  655MOL0     H86450   9.832   8.620   0.754 -0.0279 -0.6409 -0.5178
  655MOL0     H86451   9.863   8.591   0.918 -0.0027  2.6825  1.4983
  655MOL0     H86452   9.649   8.792   0.828 -0.2084  0.4800  1.6890
  655MOL0     H86453   9.662   8.739   0.989 -1.5286 -1.5678 -1.3417
  655MOL0     H86454   9.879   8.864   0.809 -1.9561 -0.2848 -0.4245
  655MOL0     H86455   9.918   8.803   0.966  1.2814  1.9909  1.1641
  655MOL0     H86456   9.877   9.067   0.941 -1.0515  2.4649  1.1576
  655MOL0     H86457   9.704   9.019   0.954  1.8040  2.1822 -2.2030
  655MOL0     H86458   9.752   8.931   1.348 -2.5604  0.3491 -0.2395
  655MOL0     H86459   9.641   8.688   0.639 -2.0958  1.0644 -2.7333
  655MOL0     H86460   9.462   8.682   0.479 -1.7174 -4.3622 -5.4517
  656MOL0     O86461   2.466   0.010   8.294 -0.3882 -0.7340  0.7288
  656MOL0     C86462   2.473   0.134   8.319  0.2297 -0.5597  0.2644
  656MOL0     O86463   2.369   0.219   8.341  0.4029 -0.2490 -0.4357
  656MOL0     C86464   2.239   0.169   8.322  1.0572  0.2260  0.5973
  656MOL0     C86465   2.167   0.124   8.432 -0.1305  0.1997 -0.0173
  656MOL0     C86466   2.034   0.101   8.420  0.0429  0.6735 -0.5263
  656MOL0     C86467   1.961   0.107   8.306  0.0596 -0.4769 -0.1062
  656MOL0     O86468   1.828   0.076   8.311  0.3151  0.0677 -0.1350
  656MOL0     C86469   1.755   0.076   8.185  0.8993 -0.4852 -0.5046
  656MOL0     C86470   1.697   0.212   8.142  0.1870 -0.2755 -0.3243
  656MOL0     C86471   1.612   0.293   8.243  0.1879  0.1004 -0.8342
  656MOL0     C86472   1.498   0.200   8.310  0.0865  0.1056 -0.1321
  656MOL0     C86473   1.402   0.289   8.386  0.1452  0.6447  0.3739
  656MOL0     C86474   1.269   0.220   8.402 -0.0820 -0.1921  1.2938
  656MOL0     C86475   1.170   0.296   8.491 -0.2091  0.2844  0.2789
  656MOL0     C86476   1.052   0.215   8.536  0.2584  0.5125  0.5439
  656MOL0     N86477   0.952   0.298   8.608  0.4746 -0.6337 -0.2192
  656MOL0     C86478   0.952   0.348   8.737 -1.0777  0.8119  0.2226
  656MOL0     C86479   0.828   0.395   8.759 -0.9656 -0.5269  0.2176
  656MOL0     C86480   0.783   0.443   8.893 -0.4887  0.1131 -0.2487
  656MOL0     C86481   0.744   0.326   8.986 -0.1375 -0.2829  0.0077
  656MOL0     C86482   0.594   0.330   9.028  0.2156  0.3495 -1.0250
  656MOL0     C86483   0.495   0.306   8.919 -0.8680 -1.3825  1.0855
  656MOL0     O86484   0.366   0.322   8.979  0.2957  0.2705  0.1490
  656MOL0     C86485   0.257   0.339   8.898  0.8823  0.4341  0.8921
  656MOL0     C86486   0.134   0.361   8.961  0.5342  0.8398  0.7282
  656MOL0     C86487   0.020   0.394   8.891 -0.5912 -0.9233  0.1398
  656MOL0     C86488   0.024   0.391   8.746 -0.8486  0.0608  0.2098
  656MOL0     C86489  -0.094   0.428   8.671  0.5491 -0.4476 -0.9175
  656MOL0     O86490  -0.196   0.474   8.738  0.5714 -0.2055  0.2667
  656MOL0     C86491  -0.329   0.494   8.704 -0.0907 -0.8066  1.0451
  656MOL0     C86492  -0.426   0.515   8.802  0.0659  0.1000  0.4626
  656MOL0     C86493  -0.563   0.518   8.775 -0.1677 -0.1853  0.7816
  656MOL0     C86494  -0.612   0.506   8.640 -0.7111 -0.1336 -0.0008
  656MOL0     O86495  -0.752   0.511   8.625  0.2147  0.8263  0.1221
  656MOL0     C86496  -0.789   0.531   8.493  1.3261 -0.4884 -0.0070
  656MOL0     C86497  -0.935   0.508   8.483  0.9915 -0.2316  0.5557
  656MOL0     C86498  -0.991   0.601   8.376  0.6195  0.1078 -0.2479
  656MOL0     C86499  -1.142   0.592   8.367  0.5412 -0.1433 -0.4177
  656MOL0     C86500  -1.210   0.672   8.248  0.4599 -0.3175 -1.1113
  656MOL0     C86501  -1.362   0.681   8.251 -0.0285  1.4548  0.0810
  656MOL0     C86502  -1.429   0.794   8.165  0.6322  0.2191  0.3273
  656MOL0     C86503  -1.580   0.815   8.191  0.2219 -0.1635 -0.2149
  656MOL0    Cl86504  -1.626   0.836   8.369 -0.1593  0.0031  0.3117
  656MOL0     C86505  -0.513   0.489   8.540 -1.0346  1.3222  0.4933
  656MOL0     C86506  -0.377   0.483   8.573  0.3183  0.6555 -0.3110
  656MOL0     O86507  -0.102   0.382   8.563  0.4415 -0.0275  0.8376
  656MOL0     C86508   0.146   0.362   8.683  0.4462  0.4240 -1.0862
  656MOL0     C86509   0.261   0.342   8.759 -0.4238 -0.1783  0.7675
  656MOL0     N86510   0.758   0.385   8.645  0.6150  0.6859 -0.7384
  656MOL0     N86511   0.826   0.323   8.558 -0.1015 -0.9341 -0.2552
  656MOL0     C86512   2.041   0.152   8.195  0.2463  0.4803 -0.3468
  656MOL0     C86513   2.170   0.188   8.201 -0.1857 -0.5848 -0.2152
  656MOL0     C86514   2.608   0.195   8.321  0.2893  0.1055 -0.5144
  656MOL0     C86515   2.619   0.325   8.369 -0.0471  0.1434  0.0536
  656MOL0     C86516   2.742   0.391   8.384 -0.3397  0.3114 -0.1926
  656MOL0     C86517   2.860   0.327   8.347  0.2534  0.7336 -0.1123
  656MOL0     O86518   2.984   0.381   8.366 -0.2442 -1.0669 -0.0847
  656MOL0     C86519   3.008   0.520   8.402 -0.7853  0.8271 -0.1904
  656MOL0     C86520   3.161   0.545   8.409  0.4118 -0.4964  0.8809
  656MOL0     C86521   3.223   0.526   8.276 -0.9078  0.0843  1.2529
  656MOL0     C86522   3.183   0.634   8.171 -0.4619  0.0820  0.8021
  656MOL0     C86523   3.249   0.764   8.191 -0.0571  0.3987  1.0963
  656MOL0     C86524   3.302   0.868   8.211 -0.3714 -0.4487 -0.7256
  656MOL0     C86525   2.851   0.193   8.306 -0.0446  0.1533 -1.2658
  656MOL0     C86526   2.728   0.128   8.290  0.5314 -0.5398  0.5215
  656MOL0     H86527   2.223   0.117   8.524 -2.2644 -1.2543  1.2833
  656MOL0     H86528   1.976   0.072   8.507  0.5844 -0.6391 -0.5799
  656MOL0     H86529   1.676   0.003   8.202  0.5279  0.2214  1.0489
  656MOL0     H86530   1.817   0.033   8.106  2.5971 -0.0340  0.5168
  656MOL0     H86531   1.642   0.207   8.048  0.4842 -2.2246 -0.4313
  656MOL0     H86532   1.783   0.278   8.127  1.1193 -1.0195  1.4315
  656MOL0     H86533   1.572   0.378   8.187  2.9590  0.3561 -2.5785
  656MOL0     H86534   1.670   0.330   8.328  0.9997  1.2992 -1.8951
  656MOL0     H86535   1.453   0.148   8.224  2.4244 -1.2048 -0.6384
  656MOL0     H86536   1.542   0.130   8.382 -4.9866 -5.5596 -1.7212
  656MOL0     H86537   1.398   0.386   8.335 -0.0435 -0.2001 -1.2754
  656MOL0     H86538   1.441   0.310   8.486  1.4536 -1.0974  0.2932
  656MOL0     H86539   1.289   0.121   8.442  0.6252 -0.3429  0.5980
  656MOL0     H86540   1.223   0.200   8.305 -0.5478  3.6621  0.5287
  656MOL0     H86541   1.224   0.327   8.581  2.4381  0.1036 -1.1296
  656MOL0     H86542   1.139   0.385   8.435  2.3362  0.3684 -1.1872
  656MOL0     H86543   1.085   0.132   8.599 -1.2229 -0.5341 -0.0009
  656MOL0     H86544   1.001   0.168   8.451 -2.5152 -0.5007  2.6203
  656MOL0     H86545   1.037   0.345   8.804 -1.4649  1.8130  0.7867
  656MOL0     H86546   0.704   0.518   8.879 -0.4257  0.4249  0.9943
  656MOL0     H86547   0.870   0.486   8.942 -1.0241 -0.6270  1.4244
  656MOL0     H86548   0.798   0.342   9.080  0.1131  1.1335 -0.3487
  656MOL0     H86549   0.762   0.233   8.932  0.2573 -0.0917 -0.1976
  656MOL0     H86550   0.571   0.256   9.106  0.2120  0.2329 -1.1346
  656MOL0     H86551   0.575   0.427   9.075  0.0051 -0.3975  0.5070
  656MOL0     H86552   0.514   0.209   8.874  0.9432  0.6002 -2.8848
  656MOL0     H86553   0.512   0.382   8.842  0.0100  0.8582  3.3227
  656MOL0     H86554   0.122   0.334   9.066 -1.2111  2.3891  0.9756
  656MOL0     H86555  -0.076   0.414   8.939 -0.6862  0.8982 -0.7179
  656MOL0     H86556  -0.398   0.529   8.906  1.5168 -1.5049  0.3391
  656MOL0     H86557  -0.631   0.531   8.859 -0.0399 -1.2730  1.0697
  656MOL0     H86558  -0.736   0.467   8.423  3.9947  2.7226 -1.1425
  656MOL0     H86559  -0.766   0.636   8.474 -3.5892  0.6319 -1.2495
  656MOL0     H86560  -0.984   0.519   8.580 -0.5674 -0.7894 -0.1404
  656MOL0     H86561  -0.957   0.406   8.450  0.6492 -0.3798  1.2117
  656MOL0     H86562  -0.950   0.565   8.281  0.4341  0.3678 -0.4279
  656MOL0     H86563  -0.960   0.705   8.384  0.6815  0.5767 -4.3666
  656MOL0     H86564  -1.167   0.487   8.349  1.5636  0.0884 -3.9787
  656MOL0     H86565  -1.187   0.626   8.460  0.4014  0.0095 -0.5406
  656MOL0     H86566  -1.181   0.634   8.150 -1.5347 -0.4696 -1.6971
  656MOL0     H86567  -1.175   0.774   8.261 -0.6314  0.0855 -1.2046
  656MOL0     H86568  -1.405   0.685   8.351  0.9958  0.3191  0.5777
  656MOL0     H86569  -1.392   0.584   8.210  0.5340  0.3762  2.0940
  656MOL0     H86570  -1.375   0.885   8.193 -0.6931  0.8932  0.7935
  656MOL0     H86571  -1.424   0.781   8.056 -2.2104  2.2694 -0.1623
  656MOL0     H86572  -1.624   0.722   8.154  1.6084 -1.0692  0.3592
  656MOL0     H86573  -1.604   0.912   8.146  3.3197  2.0801  2.4907
  656MOL0     H86574  -0.534   0.472   8.434  0.5136  0.8450  0.2407
  656MOL0     H86575  -0.315   0.470   8.485 -0.4933  0.8578 -0.9195
  656MOL0     H86576   0.163   0.350   8.577 -1.4532 -0.4049 -1.3433
  656MOL0     H86577   0.348   0.326   8.696 -0.6572 -2.8857  1.0220
  656MOL0     H86578   1.996   0.158   8.096 -1.4886 -0.0894  0.3813
  656MOL0     H86579   2.222   0.216   8.110  4.9737  1.9609  3.0762
  656MOL0     H86580   2.530   0.384   8.385  0.2477  0.4105  0.7445
  656MOL0     H86581   2.752   0.489   8.429  1.8070 -0.6519  1.6315
  656MOL0     H86582   2.963   0.541   8.500  1.3638  0.2296  0.9774
  656MOL0     H86583   2.960   0.591   8.333  0.8049  1.8243 -0.3188
  656MOL0     H86584   3.188   0.644   8.445 -0.1414 -0.5126  1.3533
  656MOL0     H86585   3.214   0.475   8.474  1.8264 -0.2520  0.0423
  656MOL0     H86586   3.204   0.430   8.227  1.9212  0.8781 -1.7406
  656MOL0     H86587   3.331   0.533   8.291 -0.5990 -1.3574  0.0067
  656MOL0     H86588   3.222   0.588   8.080 -0.7727  1.8948 -0.2922
  656MOL0     H86589   3.075   0.644   8.154 -0.3538  1.0441  0.6216
  656MOL0     H86590   3.338   0.968   8.222 -0.2244 -0.7192  1.7815
  656MOL0     H86591   2.936   0.129   8.284  0.5099 -0.4085  1.9603
  656MOL0     H86592   2.730   0.029   8.245 -0.9067  0.1580 -1.1592
  657MOL0     O86593   3.588  10.903   4.046 -0.5906  0.2805 -0.1933
  657MOL0     C86594   3.601  10.942   3.928  0.1399 -0.6886  0.0750
  657MOL0     O86595   3.504  10.952   3.842 -0.3514 -0.2466 -0.4633
  657MOL0     C86596   3.394  10.878   3.871 -0.0476  0.3620  0.1687
  657MOL0     C86597   3.281  10.947   3.898  0.0444  0.0569 -0.3923
  657MOL0     C86598   3.171  10.874   3.947  0.4995 -0.2508  0.5583
  657MOL0     C86599   3.183  10.740   3.971  0.3071  0.6509 -0.5268
  657MOL0     O86600   3.094  10.652   4.029  0.2871 -0.4085 -0.7597
  657MOL0     C86601   2.955  10.671   4.014  0.7626 -0.0435 -0.0878
  657MOL0     C86602   2.899  10.539   4.045  0.8729  0.3642  0.2280
  657MOL0     C86603   2.931  10.488   4.195 -0.4020 -0.8285  0.2862
  657MOL0     C86604   2.861  10.364   4.217  0.3271  0.1681  0.3659
  657MOL0     C86605   2.892  10.306   4.354  0.3600  0.2866  0.0332
  657MOL0     C86606   2.798  10.382   4.466  0.0493 -0.4355 -0.6799
  657MOL0     C86607   2.813  10.336   4.603 -0.0025 -0.3560  0.0921
  657MOL0     C86608   2.739  10.431   4.702  0.0556  0.1658  0.3782
  657MOL0     N86609   2.592  10.413   4.680  0.2205 -0.2777  0.7057
  657MOL0     C86610   2.514  10.297   4.674  0.4788  0.3002  0.0227
  657MOL0     C86611   2.390  10.334   4.662 -0.0443 -0.0362  0.2772
  657MOL0     C86612   2.271  10.241   4.684  0.7217  0.2557  0.6191
  657MOL0     C86613   2.188  10.237   4.548  0.0820 -0.6181 -0.7253
  657MOL0     C86614   2.112  10.105   4.549 -0.9778 -0.3711  0.4711
  657MOL0     C86615   2.017  10.087   4.434  0.1372 -0.6462  0.4111
  657MOL0     O86616   1.895  10.165   4.436  0.6118 -0.4143  0.1088
  657MOL0     C86617   1.787  10.091   4.472  0.0243  0.5542  0.4272
  657MOL0     C86618   1.726  10.118   4.600 -0.3932  1.1289  0.6778
  657MOL0     C86619   1.616  10.038   4.645  0.0999  0.0151  0.5432
  657MOL0     C86620   1.559   9.939   4.559  0.3978  0.3626 -0.6627
  657MOL0     C86621   1.438   9.871   4.613 -0.5326 -0.2620 -0.4379
  657MOL0     O86622   1.336   9.825   4.532  0.1128  0.0694  0.0956
  657MOL0     C86623   1.224   9.779   4.598  0.4789  0.3980 -0.1605
  657MOL0     C86624   1.126   9.871   4.638 -0.5389  0.6046  0.1242
  657MOL0     C86625   1.005   9.823   4.691 -0.5337  0.5114  0.6591
  657MOL0     C86626   0.989   9.681   4.711  0.4477 -0.4520  0.1731
  657MOL0     O86627   0.861   9.643   4.746 -0.9562 -0.5857  0.4719
  657MOL0     C86628   0.817   9.506   4.760 -0.2740  0.4985  0.6576
  657MOL0     C86629   0.678   9.502   4.819  0.2429  0.1976  0.2519
  657MOL0     C86630   0.632   9.354   4.829  0.7329 -0.6543 -0.6120
  657MOL0     C86631   0.488   9.355   4.880  0.4754 -0.3498 -0.2247
  657MOL0     C86632   0.437   9.216   4.866  0.0822  0.2824 -0.6233
  657MOL0     C86633   0.280   9.208   4.866 -0.2420 -0.8022  0.7081
  657MOL0     C86634   0.236   9.061   4.857  0.6125 -0.4610 -0.6660
  657MOL0     C86635   0.091   9.040   4.858  0.4974  0.2617  0.0041
  657MOL0    Cl86636   0.012   9.109   5.000  0.1057  0.0064 -0.5330
  657MOL0     C86637   1.092   9.594   4.674 -0.1410  0.4270 -1.0211
  657MOL0     C86638   1.204   9.644   4.611 -0.3244  0.2555 -0.1632
  657MOL0     O86639   1.435   9.862   4.737  0.5412 -0.4613 -0.1632
  657MOL0     C86640   1.609   9.926   4.428  0.6357  0.0498  0.8091
  657MOL0     C86641   1.716  10.000   4.386 -0.6270  0.1120  0.3730
  657MOL0     N86642   2.383  10.471   4.657  1.0914 -0.2508 -0.5241
  657MOL0     N86643   2.505  10.515   4.656  0.1658 -0.1507 -0.6718
  657MOL0     C86644   3.297  10.674   3.929 -0.1818 -0.0113 -0.5488
  657MOL0     C86645   3.406  10.739   3.878 -0.3002  0.0166 -0.0384
  657MOL0     C86646   3.726  10.998   3.879 -0.8456  0.1020  0.1704
  657MOL0     C86647   3.831  11.022   3.978 -0.3344  0.4641  0.3743
  657MOL0     C86648   3.956  11.045   3.930  0.2740  0.1037 -0.3983
  657MOL0     C86649   3.985  11.062   3.796  0.0368  0.2570 -0.4829
  657MOL0     O86650   4.108  11.099   3.753 -0.2519  0.2333  0.0339
  657MOL0     C86651   4.215  11.118   3.848  0.5829 -0.1762  0.0978
  657MOL0     C86652   4.272  10.982   3.890  0.3470  0.8466 -0.2965
  657MOL0     C86653   4.358  10.908   3.787  1.1907  0.0612  0.2575
  657MOL0     C86654   4.497  10.981   3.765  0.3998  0.1383 -0.0561
  657MOL0     C86655   4.581  10.886   3.683 -0.1752  0.1560  0.7116
  657MOL0     C86656   4.662  10.819   3.615  0.5682  0.5528 -0.3663
  657MOL0     C86657   3.893  11.046   3.705  1.1594  0.0463 -0.2928
  657MOL0     C86658   3.761  11.014   3.741  0.0707 -0.4762 -0.3717
  657MOL0     H86659   3.270  11.055   3.892 -2.8963 -0.0814  0.7626
  657MOL0     H86660   3.080  10.925   3.975 -1.0305 -3.2392  1.5123
  657MOL0     H86661   2.934  10.711   3.914  1.2680  1.0111  0.2111
  657MOL0     H86662   2.922  10.743   4.090 -0.3150  1.5309 -1.9442
  657MOL0     H86663   2.921  10.455   3.978 -0.5965 -2.1820  2.6925
  657MOL0     H86664   2.791  10.557   4.044  0.6986 -0.6149 -0.8628
  657MOL0     H86665   2.894  10.567   4.262 -0.8925 -0.0525 -0.8755
  657MOL0     H86666   3.038  10.478   4.213  0.0646  0.8926 -1.2228
  657MOL0     H86667   2.754  10.385   4.208  0.3786 -0.2058 -1.7610
  657MOL0     H86668   2.889  10.297   4.135 -5.0830  0.5999 -2.3059
  657MOL0     H86669   3.000  10.317   4.372  0.3432 -0.0461  0.3457
  657MOL0     H86670   2.873  10.200   4.335  1.5369  0.1179 -0.3339
  657MOL0     H86671   2.697  10.376   4.424 -0.6036  3.2566 -0.0370
  657MOL0     H86672   2.822  10.488   4.477 -0.4676 -0.3923  0.1082
  657MOL0     H86673   2.781  10.236   4.634 -0.9589  0.3972  1.6708
  657MOL0     H86674   2.922  10.350   4.609 -0.2498  2.6891 -0.8847
  657MOL0     H86675   2.764  10.532   4.669  0.7872 -0.7559 -2.1501
  657MOL0     H86676   2.777  10.402   4.800 -1.6492 -2.1497  0.4414
  657MOL0     H86677   2.553  10.196   4.683 -2.5850 -1.3326 -2.7803
  657MOL0     H86678   2.205  10.279   4.763 -0.9695 -1.5686  0.1642
  657MOL0     H86679   2.302  10.142   4.718 -0.3549  0.1639  1.4019
  657MOL0     H86680   2.261  10.250   4.468  1.8884 -1.0104  0.7961
  657MOL0     H86681   2.111  10.314   4.544  0.9002  0.3438  0.8502
  657MOL0     H86682   2.186  10.025   4.535 -0.4025  0.3446 -0.7603
  657MOL0     H86683   2.062  10.087   4.645  0.5398 -1.0884  1.1599
  657MOL0     H86684   1.991   9.983   4.416  0.4737 -0.6795  0.1058
  657MOL0     H86685   2.069  10.117   4.343 -2.3731  0.9981 -0.5956
  657MOL0     H86686   1.771  10.188   4.670  1.9982 -1.7944  2.3220
  657MOL0     H86687   1.560  10.067   4.733 -3.3266 -1.4643 -0.9484
  657MOL0     H86688   1.144   9.978   4.625  1.1053  0.5335  1.5145
  657MOL0     H86689   0.922   9.884   4.724  1.6284  3.5295  0.9337
  657MOL0     H86690   0.891   9.455   4.822  0.3202  1.2921  0.6208
  657MOL0     H86691   0.820   9.453   4.664 -1.5569 -3.4016  2.5941
  657MOL0     H86692   0.610   9.551   4.749  2.5744  1.1031 -1.5510
  657MOL0     H86693   0.674   9.547   4.918  0.3893  0.5475  0.1033
  657MOL0     H86694   0.688   9.283   4.890 -2.9596 -5.0203 -1.7250
  657MOL0     H86695   0.641   9.309   4.729  3.4022  0.1010 -0.7939
  657MOL0     H86696   0.466   9.390   4.982 -2.6638  3.1693 -1.8913
  657MOL0     H86697   0.427   9.422   4.819 -0.0100  0.5660  1.2147
  657MOL0     H86698   0.464   9.155   4.953  0.3171  3.6744  1.8872
  657MOL0     H86699   0.473   9.165   4.776  1.1492 -0.1947  0.0534
  657MOL0     H86700   0.242   9.257   4.777  2.5722  0.1744 -0.0647
  657MOL0     H86701   0.237   9.255   4.955 -1.5199  2.9723 -1.7015
  657MOL0     H86702   0.279   9.023   4.764 -1.1913 -1.3502 -1.1905
  657MOL0     H86703   0.276   9.001   4.939  0.1751  0.0584 -0.0629
  657MOL0     H86704   0.088   8.931   4.855  2.0884  0.1472  0.8884
  657MOL0     H86705   0.041   9.079   4.769 -0.0836  0.8955  0.5914
  657MOL0     H86706   1.084   9.489   4.701 -2.2417  0.9050  0.4991
  657MOL0     H86707   1.290   9.580   4.596  0.1038  1.2448 -2.4237
  657MOL0     H86708   1.562   9.861   4.354  0.5171  2.1392 -1.0572
  657MOL0     H86709   1.747   9.998   4.282  0.1838  1.0059  0.5761
  657MOL0     H86710   3.306  10.566   3.940 -1.0981  0.0116  0.6629
  657MOL0     H86711   3.501  10.687   3.870 -2.5763 -4.4945 -0.8392
  657MOL0     H86712   3.815  11.009   4.085  0.4778  0.8623  0.5523
  657MOL0     H86713   4.019  11.069   4.014 -1.4945  1.4186  0.6163
  657MOL0     H86714   4.185  11.171   3.939  1.3532  1.8487 -0.7884
  657MOL0     H86715   4.289  11.182   3.799 -0.4740  0.9556 -0.0703
  657MOL0     H86716   4.336  10.993   3.979  1.0992 -1.8285 -0.4374
  657MOL0     H86717   4.202  10.908   3.929 -0.2882  2.1680  1.2455
  657MOL0     H86718   4.305  10.895   3.693  0.3542  0.9405  0.5862
  657MOL0     H86719   4.378  10.807   3.822  2.6689 -1.3234 -4.0008
  657MOL0     H86720   4.478  11.079   3.720  1.7450  0.7462  0.6211
  657MOL0     H86721   4.545  10.992   3.863  0.6505  0.1882 -0.1821
  657MOL0     H86722   4.736  10.758   3.569  0.1850 -0.6433  0.5561
  657MOL0     H86723   3.923  11.057   3.601  2.0425 -1.6857 -0.2605
  657MOL0     H86724   3.689  10.989   3.663  0.0711 -0.5821 -0.3381
  658MOL0     O86725   1.758   8.445   8.686  0.2159 -0.6761 -0.3626
  658MOL0     C86726   1.835   8.520   8.746 -0.4626  0.2002 -0.6446
  658MOL0     O86727   1.815   8.650   8.778  0.3800 -0.2174 -0.1763
  658MOL0     C86728   1.699   8.709   8.737  0.2082  0.0452  1.1000
  658MOL0     C86729   1.674   8.738   8.606 -0.4482 -0.0235 -0.5585
  658MOL0     C86730   1.559   8.801   8.561 -0.0995  0.7760 -0.1438
  658MOL0     C86731   1.451   8.832   8.648  0.1208 -0.5068 -0.1130
  658MOL0     O86732   1.336   8.899   8.611 -0.1810 -0.5780  0.1350
  658MOL0     C86733   1.346   8.969   8.482 -0.6813  0.9112  0.0323
  658MOL0     C86734   1.218   9.057   8.476 -0.4138 -0.8740 -0.6028
  658MOL0     C86735   1.088   8.983   8.523 -0.6655 -0.7503  0.0002
  658MOL0     C86736   0.970   9.084   8.546 -1.1157 -0.4665 -0.1874
  658MOL0     C86737   0.837   9.003   8.556 -0.4628 -0.1645  1.1279
  658MOL0     C86738   0.719   9.095   8.582  0.2232  0.0304  1.4410
  658MOL0     C86739   0.592   9.032   8.641 -0.1600 -1.1036  0.9535
  658MOL0     C86740   0.474   9.118   8.639  0.4986  0.1449  0.6656
  658MOL0     N86741   0.354   9.053   8.684  0.2531 -0.6029  1.3773
  658MOL0     C86742   0.311   8.924   8.645 -0.0636 -1.0995 -0.4017
  658MOL0     C86743   0.210   8.893   8.727  0.4920 -0.4259  0.3617
  658MOL0     C86744   0.126   8.780   8.724 -0.7336 -0.5860 -0.4260
  658MOL0     C86745  -0.011   8.810   8.786  0.6949  0.2512  0.0446
  658MOL0     C86746  -0.104   8.695   8.779  0.1348  0.2986  0.3892
  658MOL0     C86747  -0.258   8.728   8.818 -0.5404  0.4235  0.6467
  658MOL0     O86748  -0.301   8.813   8.714  0.3493  0.2584 -0.5442
  658MOL0     C86749  -0.439   8.827   8.694 -0.4602 -0.5939 -0.0136
  658MOL0     C86750  -0.481   8.880   8.568 -0.3422  0.4927 -0.6272
  658MOL0     C86751  -0.612   8.878   8.528 -0.1448 -0.6320 -0.2447
  658MOL0     C86752  -0.710   8.847   8.617  0.7654  0.3975 -0.0866
  658MOL0     C86753  -0.860   8.851   8.589 -0.1185 -0.4622 -0.3451
  658MOL0     O86754  -0.901   8.898   8.464  0.2419  0.2325 -0.4052
  658MOL0     C86755  -1.034   8.918   8.437 -0.2616 -0.5538  0.5935
  658MOL0     C86756  -1.144   8.910   8.523  0.7174 -0.8408  0.6293
  658MOL0     C86757  -1.281   8.942   8.475 -0.5203  0.2130  0.3477
  658MOL0     C86758  -1.305   8.992   8.348  0.3217 -0.6906 -0.3622
  658MOL0     O86759  -1.434   9.000   8.298 -0.2750 -1.2028  0.2840
  658MOL0     C86760  -1.511   8.884   8.317 -0.0154 -0.6335 -0.4785
  658MOL0     C86761  -1.631   8.867   8.228 -0.0667 -0.0309  0.1912
  658MOL0     C86762  -1.697   8.733   8.264  0.1729  0.0411 -0.3962
  658MOL0     C86763  -1.759   8.700   8.398 -0.3288 -0.2602 -0.2619
  658MOL0     C86764  -1.819   8.559   8.410  0.5273 -0.6029  0.6130
  658MOL0     C86765  -1.859   8.531   8.562  0.4527  0.6067 -0.0223
  658MOL0     C86766  -1.951   8.410   8.569  0.1591  0.6279 -0.2655
  658MOL0     C86767  -2.078   8.402   8.483 -0.0263  0.9062  0.4852
  658MOL0    Cl86768  -2.167   8.554   8.506 -0.2035  0.1886 -0.4988
  658MOL0     C86769  -1.191   9.029   8.276 -0.3442 -0.6197 -0.2016
  658MOL0     C86770  -1.064   8.987   8.312 -0.4210 -0.3982  0.5390
  658MOL0     O86771  -0.933   8.785   8.666 -0.3522 -0.2827 -0.1564
  658MOL0     C86772  -0.670   8.814   8.751 -0.5514 -0.4167  0.8626
  658MOL0     C86773  -0.536   8.798   8.782 -0.1853 -0.0174 -0.4848
  658MOL0     N86774   0.193   8.995   8.820 -1.4135  0.5228  0.2476
  658MOL0     N86775   0.277   9.090   8.790 -0.0892  0.7304  0.0223
  658MOL0     C86776   1.469   8.787   8.781 -0.5391  0.2493  0.1237
  658MOL0     C86777   1.592   8.735   8.827  0.2125  0.1551  0.2494
  658MOL0     C86778   1.964   8.468   8.802 -0.2990 -0.9312  0.2538
  658MOL0     C86779   1.997   8.336   8.767  0.3229  0.1655 -0.4237
  658MOL0     C86780   2.117   8.284   8.815  0.0398 -0.0256 -0.1497
  658MOL0     C86781   2.207   8.358   8.899 -1.0553  0.8842 -0.5278
  658MOL0     O86782   2.319   8.300   8.948 -0.2843  0.1356  0.5359
  658MOL0     C86783   2.434   8.389   8.992  0.7870  0.3719  0.6172
  658MOL0     C86784   2.548   8.306   9.040  0.3876 -0.2268 -0.5969
  658MOL0     C86785   2.683   8.384   9.045 -0.1800  1.0069  0.4232
  658MOL0     C86786   2.792   8.279   9.065  0.8707  0.4512 -0.3054
  658MOL0     C86787   2.925   8.345   9.067 -0.9022  0.4434 -0.0994
  658MOL0     C86788   3.025   8.415   9.064 -0.8377 -0.5216 -0.1634
  658MOL0     C86789   2.173   8.497   8.925  0.1107  0.0917 -0.7599
  658MOL0     C86790   2.048   8.549   8.879  0.1101  0.1243  0.1761
  658MOL0     H86791   1.746   8.724   8.525 -1.4514 -0.1529 -1.4520
  658MOL0     H86792   1.555   8.842   8.460 -2.4274  0.1551 -0.3687
  658MOL0     H86793   1.355   8.901   8.396  0.8866 -0.0434  0.9079
  658MOL0     H86794   1.437   9.029   8.479 -1.5414  2.2596 -0.0368
  658MOL0     H86795   1.212   9.112   8.382  0.4289 -0.8758 -0.6650
  658MOL0     H86796   1.233   9.141   8.544  0.7607 -0.2848 -1.5484
  658MOL0     H86797   1.105   8.921   8.612  0.5722 -2.6256 -1.4606
  658MOL0     H86798   1.067   8.915   8.440  1.7385 -0.3139 -1.0466
  658MOL0     H86799   1.000   9.131   8.640 -0.2621 -1.4173  0.0374
  658MOL0     H86800   0.962   9.163   8.470 -2.3322  1.0133  1.4201
  658MOL0     H86801   0.851   8.933   8.638  2.2584  0.3489  1.1930
  658MOL0     H86802   0.822   8.957   8.458 -0.8305  4.3885 -1.2670
  658MOL0     H86803   0.695   9.131   8.482 -0.3201  3.6452  2.7365
  658MOL0     H86804   0.746   9.188   8.633  0.3566 -0.6124  2.5803
  658MOL0     H86805   0.567   8.949   8.574  0.4113 -0.6449  0.1609
  658MOL0     H86806   0.601   9.003   8.747 -1.0466  2.4534  2.1530
  658MOL0     H86807   0.457   9.155   8.537 -1.2789  1.0704  1.2492
  658MOL0     H86808   0.492   9.207   8.700  1.8772  0.6934 -0.4993
  658MOL0     H86809   0.365   8.864   8.573  4.4326 -0.5713  2.1097
  658MOL0     H86810   0.187   8.709   8.780  2.2909  2.4647  0.5264
  658MOL0     H86811   0.113   8.756   8.618 -2.9021  3.1123 -1.2022
  658MOL0     H86812  -0.057   8.891   8.728 -0.7573  0.0725  0.8864
  658MOL0     H86813   0.013   8.835   8.890  0.2156  3.2817 -0.4771
  658MOL0     H86814  -0.102   8.655   8.677 -2.0965 -1.6801  1.0353
  658MOL0     H86815  -0.077   8.622   8.855 -0.0679  0.0904  0.2624
  658MOL0     H86816  -0.252   8.785   8.911  0.5991 -0.4439  1.1335
  658MOL0     H86817  -0.310   8.632   8.822  1.4919 -0.7735 -0.1930
  658MOL0     H86818  -0.398   8.897   8.501 -0.4012  2.4478 -0.2896
  658MOL0     H86819  -0.630   8.900   8.423  0.0262  1.6165  0.1687
  658MOL0     H86820  -1.147   8.876   8.626 -0.1513  0.1791  0.9641
  658MOL0     H86821  -1.368   8.931   8.539 -1.0280 -1.7602 -0.6227
  658MOL0     H86822  -1.549   8.874   8.420 -1.5365  0.7230 -0.8620
  658MOL0     H86823  -1.439   8.803   8.303  1.3063  0.5658 -0.8506
  658MOL0     H86824  -1.591   8.869   8.126  2.8648 -0.6369  1.2088
  658MOL0     H86825  -1.690   8.957   8.240  1.9654  1.2421  1.2702
  658MOL0     H86826  -1.623   8.656   8.243  1.8626  0.6748  2.6073
  658MOL0     H86827  -1.779   8.715   8.194 -1.9737  0.3981  1.8642
  658MOL0     H86828  -1.684   8.720   8.475 -0.9155  2.1099 -0.2255
  658MOL0     H86829  -1.840   8.768   8.423  0.7052  0.8320  0.2186
  658MOL0     H86830  -1.750   8.485   8.368  2.5952  1.2785  0.5012
  658MOL0     H86831  -1.904   8.574   8.343 -0.5462  1.8815  2.3724
  658MOL0     H86832  -1.914   8.617   8.604 -1.6885  0.0394 -1.4902
  658MOL0     H86833  -1.771   8.508   8.622  0.8919 -0.4539 -1.0247
  658MOL0     H86834  -1.883   8.331   8.536 -0.2242  0.2001 -0.0426
  658MOL0     H86835  -1.983   8.394   8.672 -2.6443  0.0699 -1.1347
  658MOL0     H86836  -2.145   8.318   8.506  3.0081 -1.2332  2.0946
  658MOL0     H86837  -2.045   8.394   8.379  1.5169 -0.3050  1.0242
  658MOL0     H86838  -1.204   9.092   8.189 -0.1360  1.6087  1.3215
  658MOL0     H86839  -0.978   9.008   8.249 -2.0424  2.5216 -0.9435
  658MOL0     H86840  -0.737   8.801   8.835  2.1511  1.1216  3.4255
  658MOL0     H86841  -0.516   8.767   8.884 -2.1339 -0.2803 -0.1529
  658MOL0     H86842   1.389   8.786   8.854 -1.0983 -3.2790 -0.3365
  658MOL0     H86843   1.600   8.705   8.931  0.1487 -1.5662 -0.1962
  658MOL0     H86844   1.938   8.277   8.698 -0.6193 -2.4331  2.3933
  658MOL0     H86845   2.155   8.189   8.779 -0.4730  0.0790 -0.9763
  658MOL0     H86846   2.409   8.462   9.069 -1.9207  1.2516 -0.9702
  658MOL0     H86847   2.466   8.445   8.903  1.1832  0.0393  0.5453
  658MOL0     H86848   2.533   8.259   9.138  0.2014 -2.6355 -1.7112
  658MOL0     H86849   2.564   8.222   8.972  1.4600 -0.9534  0.5008
  658MOL0     H86850   2.694   8.452   9.130  5.4734 -1.5931  2.2096
  658MOL0     H86851   2.688   8.441   8.951 -2.6431  1.9316  0.7651
  658MOL0     H86852   2.766   8.228   9.157 -2.2824  1.4856 -0.5073
  658MOL0     H86853   2.791   8.209   8.981 -0.2381  1.5524 -1.2582
  658MOL0     H86854   3.111   8.479   9.063  0.2632 -1.8931 -2.5233
  658MOL0     H86855   2.249   8.549   8.981  0.2763 -2.3120  1.4348
  658MOL0     H86856   2.013   8.650   8.898 -0.0696  0.7018 -2.7984
  659MOL0     O86857   4.676   0.315   7.158  0.0083  0.5076 -0.5703
  659MOL0     C86858   4.711   0.203   7.181  0.1632  0.0298 -0.1481
  659MOL0     O86859   4.666   0.093   7.128 -0.2137  0.5171 -0.4987
  659MOL0     C86860   4.555   0.081   7.049 -0.3678 -0.1156 -0.4747
  659MOL0     C86861   4.450   0.174   7.045  0.1366  0.3847 -1.2334
  659MOL0     C86862   4.346   0.165   6.958  1.0909 -0.6477 -0.6092
  659MOL0     C86863   4.327   0.050   6.872  0.5042 -0.6823 -0.4298
  659MOL0     O86864   4.232   0.066   6.778  0.0244 -0.0400  0.5778
  659MOL0     C86865   4.164  -0.053   6.738 -0.2682 -0.4387 -0.0042
  659MOL0     C86866   4.064  -0.017   6.630  0.0886  0.4200 -0.0599
  659MOL0     C86867   4.009  -0.144   6.553  0.0720 -1.1494 -0.2236
  659MOL0     C86868   3.858  -0.176   6.602  0.0840 -0.3657  0.2238
  659MOL0     C86869   3.754  -0.104   6.508  0.0299 -0.1049  0.0754
  659MOL0     C86870   3.617  -0.108   6.568  0.5626  0.2439 -0.7753
  659MOL0     C86871   3.579  -0.259   6.583 -0.3153 -0.2545 -0.2541
  659MOL0     C86872   3.440  -0.283   6.635 -0.5665  0.1595  0.1957
  659MOL0     N86873   3.334  -0.265   6.533 -0.1157 -0.4909 -0.1431
  659MOL0     C86874   3.198  -0.273   6.551 -0.2989  0.6005  0.0079
  659MOL0     C86875   3.144  -0.282   6.429  0.2930 -0.1857 -0.8775
  659MOL0     C86876   2.990  -0.313   6.397 -0.1671 -0.1232  0.2494
  659MOL0     C86877   2.908  -0.191   6.444 -0.0826  0.4615  0.1588
  659MOL0     C86878   2.758  -0.242   6.435  0.5367 -0.2681  0.4536
  659MOL0     C86879   2.692  -0.254   6.300 -0.7781 -0.4055 -0.3632
  659MOL0     O86880   2.552  -0.274   6.316  0.3053  0.3159 -0.7683
  659MOL0     C86881   2.486  -0.342   6.218  0.1490  0.4985 -0.7108
  659MOL0     C86882   2.537  -0.372   6.087 -0.4298 -0.0799  0.1908
  659MOL0     C86883   2.454  -0.412   5.991 -0.3176  0.1855  0.4583
  659MOL0     C86884   2.317  -0.440   6.011 -0.2294 -0.4395  0.1897
  659MOL0     C86885   2.224  -0.508   5.917  0.6789 -0.0012  1.0209
  659MOL0     O86886   2.231  -0.477   5.779  0.4793 -0.4430 -0.3331
  659MOL0     C86887   2.154  -0.531   5.681  0.7325  1.2287 -0.7842
  659MOL0     C86888   2.213  -0.610   5.578 -0.0852  0.1786  0.6461
  659MOL0     C86889   2.132  -0.673   5.482 -0.6219 -0.8371 -0.2950
  659MOL0     C86890   1.994  -0.668   5.497  0.7930 -0.4514 -0.1370
  659MOL0     O86891   1.906  -0.731   5.413 -0.6058 -0.4853 -0.1324
  659MOL0     C86892   1.952  -0.868   5.379 -0.1091  0.4494 -0.5838
  659MOL0     C86893   1.849  -0.973   5.355  0.2660 -0.2109  0.1468
  659MOL0     C86894   1.758  -1.035   5.460 -0.4181 -0.4322  0.4646
  659MOL0     C86895   1.670  -0.932   5.526 -0.1303 -0.3165  0.5173
  659MOL0     C86896   1.545  -0.980   5.595  0.4936  0.3874 -0.3950
  659MOL0     C86897   1.433  -1.039   5.502  0.2649  0.6635 -0.4408
  659MOL0     C86898   1.345  -1.138   5.584 -0.1611 -0.2012  0.9364
  659MOL0     C86899   1.262  -1.082   5.692 -1.0647  0.1701 -1.2289
  659MOL0    Cl86900   1.105  -1.169   5.735 -0.2387  0.0136 -0.0342
  659MOL0     C86901   1.936  -0.581   5.592  0.4142  0.4109  0.4945
  659MOL0     C86902   2.015  -0.525   5.692  0.2432  0.4425  0.8300
  659MOL0     O86903   2.142  -0.584   5.968  0.8517 -0.4737  0.5097
  659MOL0     C86904   2.273  -0.416   6.139 -0.4090 -0.3182 -0.7782
  659MOL0     C86905   2.354  -0.371   6.242  0.3232 -0.2547 -0.2795
  659MOL0     N86906   3.248  -0.272   6.336  0.2529  0.0123 -0.6327
  659MOL0     N86907   3.356  -0.248   6.402  0.2545  0.1791  0.4764
  659MOL0     C86908   4.431  -0.052   6.881  0.3836 -0.3602  0.7362
  659MOL0     C86909   4.535  -0.031   6.965  0.3696 -0.6665  0.0414
  659MOL0     C86910   4.827   0.185   7.277 -0.1156 -0.3566  1.0564
  659MOL0     C86911   4.814   0.076   7.364 -1.3788  0.1189  0.1643
  659MOL0     C86912   4.921   0.052   7.456 -0.1315  0.8869  0.0374
  659MOL0     C86913   5.031   0.138   7.463 -0.1061  0.5128  0.1815
  659MOL0     O86914   5.136   0.116   7.550  0.5164  0.2261  0.2247
  659MOL0     C86915   5.250   0.079   7.471  0.1658  0.5071  0.0788
  659MOL0     C86916   5.376   0.093   7.559 -0.7999 -0.5561  0.7185
  659MOL0     C86917   5.508   0.062   7.479 -0.3108 -0.0598 -0.1193
  659MOL0     C86918   5.629   0.050   7.574  0.1683 -0.8905  0.5678
  659MOL0     C86919   5.617  -0.056   7.679 -0.6018  0.0953  1.2352
  659MOL0     C86920   5.602  -0.141   7.762 -0.7000  1.1887  0.2295
  659MOL0     C86921   5.031   0.249   7.382  0.3015  0.2826 -0.4169
  659MOL0     C86922   4.932   0.274   7.292  0.0903 -0.3765 -0.6467
  659MOL0     H86923   4.459   0.266   7.101  2.0758 -0.5351  0.0433
  659MOL0     H86924   4.285   0.255   6.957  0.9718 -0.4875  3.4203
  659MOL0     H86925   4.113  -0.100   6.823 -2.2404  1.3119 -0.1386
  659MOL0     H86926   4.242  -0.112   6.689 -0.6614  1.7644 -3.6331
  659MOL0     H86927   4.121   0.040   6.557 -1.5905  1.0132 -0.9542
  659MOL0     H86928   3.991   0.056   6.667  0.9676  2.3089 -1.8901
  659MOL0     H86929   4.083  -0.224   6.562  4.4939  2.3717 -1.1021
  659MOL0     H86930   4.007  -0.130   6.445  1.1533  1.6484  0.0353
  659MOL0     H86931   3.834  -0.283   6.600 -3.7117  0.2838  1.9225
  659MOL0     H86932   3.839  -0.147   6.706 -2.5060 -0.8308 -0.0464
  659MOL0     H86933   3.750  -0.139   6.404 -1.2349  0.0223  0.0721
  659MOL0     H86934   3.775   0.003   6.516 -1.8107  0.3245 -0.2782
  659MOL0     H86935   3.550  -0.065   6.493 -1.4779 -0.9527  0.2947
  659MOL0     H86936   3.615  -0.043   6.656  0.6632 -0.4380 -0.2612
  659MOL0     H86937   3.592  -0.308   6.486 -1.1838 -1.0037 -0.0027
  659MOL0     H86938   3.645  -0.307   6.657  2.6090  2.2516 -0.9996
  659MOL0     H86939   3.417  -0.218   6.720 -0.8061 -0.3626  0.5310
  659MOL0     H86940   3.437  -0.386   6.671  0.8173 -0.1955 -0.6140
  659MOL0     H86941   3.149  -0.283   6.648 -0.4527  0.7312 -0.0564
  659MOL0     H86942   2.960  -0.397   6.460  1.4611  0.4896  1.9202
  659MOL0     H86943   2.972  -0.338   6.292  0.2661 -0.1769  0.1863
  659MOL0     H86944   2.912  -0.102   6.381  2.0660  0.4651  0.2521
  659MOL0     H86945   2.933  -0.174   6.549 -2.2928 -0.5023  0.9228
  659MOL0     H86946   2.747  -0.335   6.493  1.3065 -0.3770  0.4373
  659MOL0     H86947   2.699  -0.167   6.487  0.8986 -1.0671  2.0799
  659MOL0     H86948   2.740  -0.341   6.254 -0.0610 -1.4981  2.2867
  659MOL0     H86949   2.703  -0.161   6.244 -0.4975 -0.3931 -0.2901
  659MOL0     H86950   2.644  -0.356   6.077 -0.4150  0.1345  0.6768
  659MOL0     H86951   2.500  -0.439   5.897  0.7720 -0.7536  1.2465
  659MOL0     H86952   2.320  -0.597   5.569  0.2804 -1.9963  1.3607
  659MOL0     H86953   2.173  -0.732   5.400  1.2028 -1.9445  1.3322
  659MOL0     H86954   2.013  -0.913   5.458 -3.0529 -2.1123  0.4064
  659MOL0     H86955   2.008  -0.850   5.286 -0.8257  0.9085 -0.9362
  659MOL0     H86956   1.909  -1.051   5.307 -0.7931 -1.8923  1.4342
  659MOL0     H86957   1.789  -0.935   5.272  0.7034  1.3838  0.5371
  659MOL0     H86958   1.819  -1.091   5.531 -0.5068 -0.5433  0.4542
  659MOL0     H86959   1.698  -1.106   5.403 -0.4026  0.9117 -1.3102
  659MOL0     H86960   1.737  -0.884   5.598  1.8302 -0.6487 -1.0184
  659MOL0     H86961   1.638  -0.854   5.457 -0.2324 -2.3775 -1.9265
  659MOL0     H86962   1.502  -0.898   5.654 -1.1600  1.8283 -3.3737
  659MOL0     H86963   1.581  -1.052   5.669  0.4642 -1.6350 -2.2716
  659MOL0     H86964   1.483  -1.099   5.426  0.5379  0.8428 -0.4036
  659MOL0     H86965   1.370  -0.962   5.456  0.5273  1.1629  0.0233
  659MOL0     H86966   1.292  -1.188   5.502  1.9441 -1.5562  0.3275
  659MOL0     H86967   1.407  -1.209   5.639 -1.7062 -1.8398  0.6511
  659MOL0     H86968   1.242  -0.977   5.670 -1.7293  0.3975  0.3112
  659MOL0     H86969   1.322  -1.089   5.783 -3.8880  1.2230  0.8714
  659MOL0     H86970   1.828  -0.574   5.591  0.1674 -2.2794 -0.0542
  659MOL0     H86971   1.978  -0.473   5.781 -3.5287  2.6246 -1.7202
  659MOL0     H86972   2.175  -0.437   6.181  0.1793 -0.0809  0.7831
  659MOL0     H86973   2.316  -0.371   6.344  0.2815 -0.7116 -0.2940
  659MOL0     H86974   4.438  -0.136   6.813 -0.1076  0.1092  0.0864
  659MOL0     H86975   4.615  -0.104   6.967  0.7289 -0.2685  0.4510
  659MOL0     H86976   4.727   0.012   7.360 -2.8112  1.9959 -2.1223
  659MOL0     H86977   4.913  -0.028   7.529 -0.8736  0.3434 -0.6196
  659MOL0     H86978   5.265   0.148   7.388  4.9418  0.4815  0.6523
  659MOL0     H86979   5.252  -0.019   7.423  0.7323  0.1917  0.7242
  659MOL0     H86980   5.386   0.197   7.592 -0.1382  0.0686 -1.3365
  659MOL0     H86981   5.368   0.023   7.643  1.1682 -0.8594  0.6957
  659MOL0     H86982   5.522   0.144   7.409 -0.8833  0.8951  0.8448
  659MOL0     H86983   5.511  -0.032   7.423 -0.4330  0.6061 -1.2664
  659MOL0     H86984   5.712   0.013   7.513 -0.3631 -1.4462  0.1795
  659MOL0     H86985   5.652   0.152   7.609 -0.5030  0.6746 -3.0958
  659MOL0     H86986   5.593  -0.218   7.836 -1.0124  1.0442  0.0437
  659MOL0     H86987   5.112   0.320   7.393 -0.7466  1.2454  1.5939
  659MOL0     H86988   4.922   0.359   7.225 -2.5476  0.2445  0.4200
  660MOL0     O86989   6.119   4.089   7.086 -0.2828  0.1353  0.1234
  660MOL0     C86990   6.022   4.072   7.163 -0.3607  0.6264  0.1102
  660MOL0     O86991   5.958   4.174   7.224  0.0341  0.2039 -0.3424
  660MOL0     C86992   5.975   4.298   7.174 -0.0435 -0.9360 -0.1711
  660MOL0     C86993   6.086   4.368   7.207  0.5928 -0.1043 -0.1919
  660MOL0     C86994   6.117   4.489   7.144  0.0993  0.6097 -0.1273
  660MOL0     C86995   6.027   4.541   7.047  0.6461  0.0392 -0.1696
  660MOL0     O86996   6.056   4.649   6.971 -0.6542  0.3695 -0.0991
  660MOL0     C86997   6.183   4.710   6.968 -1.3749  0.5379  0.1735
  660MOL0     C86998   6.188   4.833   6.874  0.2742 -0.0598 -0.7722
  660MOL0     C86999   6.310   4.920   6.901 -1.4718  0.2504 -0.8121
  660MOL0     C87000   6.295   5.021   7.020  0.0465 -0.0151 -0.2207
  660MOL0     C87001   6.410   5.123   7.037  0.5692  0.4156 -0.1417
  660MOL0     C87002   6.411   5.175   7.183  0.0977  0.1661 -0.5211
  660MOL0     C87003   6.496   5.299   7.177 -0.0211  0.2597 -0.1695
  660MOL0     C87004   6.533   5.348   7.314 -0.2208 -0.2176 -0.0766
  660MOL0     N87005   6.606   5.470   7.301  0.3734 -0.4391 -0.2654
  660MOL0     C87006   6.736   5.475   7.269 -0.4525  0.1035  0.2931
  660MOL0     C87007   6.765   5.608   7.253  0.6362  0.8190  0.8636
  660MOL0     C87008   6.894   5.648   7.199  0.1126  0.9986  0.2456
  660MOL0     C87009   6.954   5.767   7.276 -0.2830 -0.0525 -0.2340
  660MOL0     C87010   7.040   5.844   7.175  0.5382 -0.1331  0.6541
  660MOL0     C87011   6.963   5.955   7.097  0.0902  0.4137 -0.8537
  660MOL0     O87012   7.058   5.989   6.999  0.2008  0.3500  0.5049
  660MOL0     C87013   7.153   6.084   7.014  0.2245  0.9080 -0.6171
  660MOL0     C87014   7.243   6.100   6.918 -0.1039  0.2297  0.4900
  660MOL0     C87015   7.355   6.195   6.932 -0.0764 -0.3546  0.2581
  660MOL0     C87016   7.353   6.284   7.035  0.0142 -0.5271  0.2345
  660MOL0     C87017   7.434   6.405   7.041  0.1361  0.2070  0.5438
  660MOL0     O87018   7.535   6.416   6.944 -0.5798  0.5609  0.0890
  660MOL0     C87019   7.598   6.536   6.932  0.0910  0.3927  0.9012
  660MOL0     C87020   7.735   6.528   6.946 -0.1221  0.5388  0.5498
  660MOL0     C87021   7.812   6.639   6.920 -0.4708 -0.3560  0.3313
  660MOL0     C87022   7.748   6.762   6.888  0.0364 -0.1005 -0.1292
  660MOL0     O87023   7.821   6.870   6.844 -0.1125 -0.1141  0.4049
  660MOL0     C87024   7.794   6.950   6.726 -0.4677 -0.8667  0.8376
  660MOL0     C87025   7.844   6.888   6.594  0.3588 -0.3528  0.0711
  660MOL0     C87026   7.768   6.770   6.533  0.3281 -0.5049  0.0434
  660MOL0     C87027   7.626   6.817   6.501 -0.1195  0.4957  0.6706
  660MOL0     C87028   7.532   6.706   6.446  0.1296 -0.5258 -0.4091
  660MOL0     C87029   7.482   6.605   6.554  0.9035  0.2767  0.2146
  660MOL0     C87030   7.378   6.503   6.508  0.1532 -0.4145  0.2287
  660MOL0     C87031   7.255   6.486   6.597  0.4520  0.1930  0.3662
  660MOL0    Cl87032   7.132   6.383   6.510  0.7071  0.0602 -0.0333
  660MOL0     C87033   7.612   6.769   6.882  0.9907 -0.2887  0.0006
  660MOL0     C87034   7.529   6.652   6.899 -0.0085 -0.7913 -0.0492
  660MOL0     O87035   7.410   6.489   7.126 -0.1595  0.3490  0.0643
  660MOL0     C87036   7.255   6.270   7.130  0.8803 -0.2433 -0.2120
  660MOL0     C87037   7.156   6.169   7.123 -0.9184 -0.0597 -0.0190
  660MOL0     N87038   6.646   5.682   7.265 -1.1214  0.3236  0.0856
  660MOL0     N87039   6.554   5.596   7.304 -0.2474  0.1470  0.1511
  660MOL0     C87040   5.906   4.473   7.018  0.0089  0.6894  0.1698
  660MOL0     C87041   5.880   4.354   7.082  0.4953  1.0189  0.7547
  660MOL0     C87042   6.012   3.934   7.211 -0.0630 -1.0162 -0.3205
  660MOL0     C87043   5.954   3.907   7.340 -0.1989 -0.2622  0.4773
  660MOL0     C87044   5.917   3.774   7.380  0.2814 -0.2142  0.5823
  660MOL0     C87045   5.942   3.669   7.293 -0.2004  0.8518 -0.4552
  660MOL0     O87046   5.895   3.541   7.306 -0.5249 -0.6629  0.2914
  660MOL0     C87047   5.794   3.518   7.405  0.0696  0.3439 -0.4709
  660MOL0     C87048   5.773   3.362   7.412 -0.5617  0.0515 -0.6859
  660MOL0     C87049   5.666   3.340   7.520  0.4889  0.3058  0.2106
  660MOL0     C87050   5.528   3.374   7.455 -0.5668 -0.0631  0.5708
  660MOL0     C87051   5.417   3.318   7.526  0.7534  0.4598 -0.0413
  660MOL0     C87052   5.327   3.256   7.581  0.0005  0.1600 -1.2252
  660MOL0     C87053   6.020   3.695   7.176 -0.4859  0.8975 -0.1881
  660MOL0     C87054   6.050   3.821   7.137 -0.3784 -0.2357  0.2038
  660MOL0     H87055   6.154   4.317   7.274  0.0693  0.3439  0.6998
  660MOL0     H87056   6.210   4.536   7.172  0.4428  0.5508 -1.1300
  660MOL0     H87057   6.252   4.637   6.925 -2.0721  0.8412 -1.5668
  660MOL0     H87058   6.217   4.742   7.067  0.6382  1.1219 -0.6321
  660MOL0     H87059   6.097   4.892   6.891 -0.2376 -1.3042  1.1410
  660MOL0     H87060   6.205   4.805   6.770  0.4542  2.9792 -1.6499
  660MOL0     H87061   6.344   4.973   6.812 -0.3429  0.9329 -0.0049
  660MOL0     H87062   6.396   4.859   6.927 -1.5803  0.7781  0.9191
  660MOL0     H87063   6.202   5.077   7.001  0.0216 -0.1560 -0.5249
  660MOL0     H87064   6.276   4.966   7.112  3.4732 -1.0780 -0.0287
  660MOL0     H87065   6.408   5.206   6.965  3.2665  0.1861 -0.5991
  660MOL0     H87066   6.501   5.070   7.009  0.0812 -0.8966  0.6620
  660MOL0     H87067   6.451   5.103   7.256 -0.2893 -0.8053 -1.2332
  660MOL0     H87068   6.310   5.204   7.213  0.4940  2.3648 -1.1761
  660MOL0     H87069   6.585   5.267   7.122  0.0628  2.7294 -1.6395
  660MOL0     H87070   6.438   5.375   7.124  0.5582  0.4043 -0.6024
  660MOL0     H87071   6.592   5.278   7.373 -0.9724 -0.5208  0.3287
  660MOL0     H87072   6.437   5.366   7.364 -0.2541  2.4672 -0.9418
  660MOL0     H87073   6.801   5.391   7.250  0.7511  1.2211 -0.7981
  660MOL0     H87074   6.879   5.689   7.099 -1.7288  2.5434  1.0713
  660MOL0     H87075   6.973   5.574   7.216  0.4373  1.4953  0.9726
  660MOL0     H87076   7.012   5.741   7.365 -1.4929 -0.1807  0.5273
  660MOL0     H87077   6.874   5.832   7.312  0.6790  1.5698 -0.9030
  660MOL0     H87078   7.121   5.896   7.226 -1.4856  2.3720  1.5314
  660MOL0     H87079   7.086   5.769   7.110  0.7090  0.9834 -0.5414
  660MOL0     H87080   6.930   6.040   7.158  1.7152  1.3894 -1.2889
  660MOL0     H87081   6.885   5.906   7.038 -0.6626  0.8642 -0.2615
  660MOL0     H87082   7.238   6.038   6.829 -0.7726 -1.4023  1.6165
  660MOL0     H87083   7.432   6.205   6.856  1.2517 -1.8417  1.3557
  660MOL0     H87084   7.781   6.432   6.967  0.0826  0.8926  1.8155
  660MOL0     H87085   7.919   6.626   6.916 -0.6232 -1.5389 -0.2631
  660MOL0     H87086   7.846   7.046   6.728 -1.4724 -0.3104  2.1299
  660MOL0     H87087   7.693   6.994   6.720  0.5014  1.2631 -2.1514
  660MOL0     H87088   7.950   6.863   6.605  0.4621  0.1301  0.2167
  660MOL0     H87089   7.843   6.961   6.513 -1.2385 -1.4890 -1.0009
  660MOL0     H87090   7.781   6.689   6.605 -1.6133 -1.3593 -0.4756
  660MOL0     H87091   7.814   6.726   6.444  1.1604 -0.3365  0.3826
  660MOL0     H87092   7.579   6.846   6.596 -1.2468 -1.0328  0.6150
  660MOL0     H87093   7.640   6.907   6.441  0.7198 -1.3871 -2.1569
  660MOL0     H87094   7.584   6.643   6.373  0.6388 -0.2114 -0.3140
  660MOL0     H87095   7.464   6.751   6.373  1.6076  0.6165 -1.1292
  660MOL0     H87096   7.427   6.656   6.633 -1.6057 -2.0036  0.1083
  660MOL0     H87097   7.567   6.559   6.605 -0.4708 -1.0730  1.3921
  660MOL0     H87098   7.334   6.528   6.411 -0.7518  1.9336  1.1553
  660MOL0     H87099   7.436   6.410   6.511  0.3236 -0.2891  1.5153
  660MOL0     H87100   7.208   6.578   6.634  3.4511  1.0329  2.4638
  660MOL0     H87101   7.284   6.426   6.683  0.0237 -1.6214 -0.6951
  660MOL0     H87102   7.558   6.863   6.875  0.3918 -0.5361  1.0982
  660MOL0     H87103   7.421   6.655   6.889  0.0023  1.3762 -0.0274
  660MOL0     H87104   7.243   6.348   7.205 -0.5295 -0.2748 -0.3669
  660MOL0     H87105   7.083   6.176   7.203  0.5741 -0.1479  1.3901
  660MOL0     H87106   5.857   4.513   6.931  1.0002  0.9711 -0.2690
  660MOL0     H87107   5.792   4.299   7.048  1.9337 -0.9146 -0.0014
  660MOL0     H87108   5.933   3.982   7.415  2.2153 -0.0524  1.0168
  660MOL0     H87109   5.865   3.757   7.473  0.5162  0.0685  0.7640
  660MOL0     H87110   5.701   3.572   7.389  0.0756  0.2649 -0.7800
  660MOL0     H87111   5.832   3.550   7.503  2.8588  1.2649 -1.7291
  660MOL0     H87112   5.747   3.316   7.317  0.1767 -1.1033 -0.3506
  660MOL0     H87113   5.869   3.323   7.448 -0.0535  2.3645  0.7664
  660MOL0     H87114   5.691   3.403   7.606  4.3424  2.5176 -2.2203
  660MOL0     H87115   5.671   3.234   7.548  1.7521  0.4233  0.5006
  660MOL0     H87116   5.516   3.482   7.446 -1.6400 -0.2906 -0.9829
  660MOL0     H87117   5.519   3.330   7.356 -0.7574 -0.6500  0.8431
  660MOL0     H87118   5.241   3.214   7.630  1.1352 -0.0461  0.6908
  660MOL0     H87119   6.044   3.614   7.107 -2.2082 -0.2364  0.4720
  660MOL0     H87120   6.094   3.844   7.040 -0.6521  2.3838  0.6099
  661MOL0     O87121   1.569   6.805   3.781  0.3029 -0.1667  0.0584
  661MOL0     C87122   1.589   6.896   3.694  0.0547  0.1704 -0.1848
  661MOL0     O87123   1.504   6.989   3.652  0.2918  0.0489  0.3730
  661MOL0     C87124   1.366   6.992   3.683  0.5730  0.1190 -0.5729
  661MOL0     C87125   1.286   6.881   3.713 -0.2188  0.0687 -0.1394
  661MOL0     C87126   1.152   6.892   3.717 -0.6351  0.5643  0.2569
  661MOL0     C87127   1.081   7.009   3.706 -0.1939 -0.0407  0.4493
  661MOL0     O87128   0.947   7.012   3.707 -0.5174  0.3106  0.0221
  661MOL0     C87129   0.878   7.055   3.824  0.7769  0.6064 -0.6981
  661MOL0     C87130   0.766   7.154   3.796 -0.4919  0.8007  0.5477
  661MOL0     C87131   0.676   7.180   3.924 -0.1489 -0.0772 -0.4149
  661MOL0     C87132   0.564   7.266   3.886 -0.2901 -0.0285 -0.3578
  661MOL0     C87133   0.481   7.287   4.008 -0.9384 -0.1291  0.0071
  661MOL0     C87134   0.396   7.410   4.023 -0.5722  0.1110  0.5668
  661MOL0     C87135   0.265   7.381   3.950  0.5690 -0.5353  0.5888
  661MOL0     C87136   0.162   7.297   4.029  0.0963  0.1406  0.1946
  661MOL0     N87137   0.023   7.310   3.988 -0.2868  0.0722  0.1545
  661MOL0     C87138  -0.052   7.411   4.033 -0.1215 -0.1238  0.2481
  661MOL0     C87139  -0.162   7.402   3.968 -0.2037 -0.2358  0.3666
  661MOL0     C87140  -0.291   7.480   4.004  0.2190 -0.0081 -0.1774
  661MOL0     C87141  -0.425   7.407   3.958 -1.3570  0.1712  0.2103
  661MOL0     C87142  -0.517   7.503   3.888  0.0252 -0.4362  0.0134
  661MOL0     C87143  -0.655   7.449   3.855 -0.1467  0.4195  0.2597
  661MOL0     O87144  -0.728   7.551   3.797  0.1809  0.3241 -0.1638
  661MOL0     C87145  -0.849   7.531   3.742  0.1782  0.4098  0.5467
  661MOL0     C87146  -0.900   7.627   3.663 -0.0813  0.6817  1.0779
  661MOL0     C87147  -1.021   7.614   3.609  0.1904  0.3275  0.9816
  661MOL0     C87148  -1.100   7.506   3.620 -0.2981  0.2143 -0.6313
  661MOL0     C87149  -1.229   7.497   3.548 -0.4095  0.8228 -0.5426
  661MOL0     O87150  -1.277   7.365   3.548 -0.3915 -0.6983 -0.3234
  661MOL0     C87151  -1.400   7.344   3.493 -0.1086  0.0167 -0.3738
  661MOL0     C87152  -1.472   7.238   3.561 -0.4512 -0.4388  1.0889
  661MOL0     C87153  -1.603   7.210   3.520  0.0746 -0.0021  0.5825
  661MOL0     C87154  -1.665   7.280   3.411  0.9094  0.5584  0.1047
  661MOL0     O87155  -1.794   7.234   3.386 -0.0654 -0.4228 -0.7334
  661MOL0     C87156  -1.874   7.300   3.287  0.7371  0.0308  0.4182
  661MOL0     C87157  -2.013   7.233   3.293  0.3073  0.0811 -0.1652
  661MOL0     C87158  -2.005   7.092   3.222  0.8699 -0.6006  0.0754
  661MOL0     C87159  -2.136   7.059   3.150  0.4798  0.6338  0.7867
  661MOL0     C87160  -2.121   6.947   3.033  0.7537 -0.9172 -1.2007
  661MOL0     C87161  -2.060   6.817   3.099  0.5981  1.2266  0.2798
  661MOL0     C87162  -2.139   6.767   3.215  0.0155 -0.1168  1.2100
  661MOL0     C87163  -2.143   6.609   3.213  0.2184 -0.6935 -0.3147
  661MOL0    Cl87164  -2.248   6.552   3.355 -0.0505  0.4188 -0.4025
  661MOL0     C87165  -1.591   7.380   3.347 -0.0863  0.2885  0.2236
  661MOL0     C87166  -1.458   7.411   3.386 -0.6475  0.1150 -0.1297
  661MOL0     O87167  -1.287   7.601   3.514 -0.8584  0.1664  0.2102
  661MOL0     C87168  -1.044   7.391   3.678  0.2583 -0.7943  0.7151
  661MOL0     C87169  -0.923   7.411   3.754  0.4353 -0.8431  0.6828
  661MOL0     N87170  -0.149   7.307   3.870  0.4946 -0.5807  0.6554
  661MOL0     N87171  -0.028   7.250   3.884 -0.0439 -0.0928  0.9035
  661MOL0     C87172   1.158   7.124   3.684  0.3645 -0.0359 -0.3409
  661MOL0     C87173   1.297   7.111   3.663 -0.5946  1.0797 -0.1896
  661MOL0     C87174   1.729   6.908   3.659 -0.0441 -0.2365  0.3841
  661MOL0     C87175   1.766   7.030   3.592  0.8185 -0.2615 -0.0900
  661MOL0     C87176   1.893   7.052   3.545  0.8925  0.5978 -0.2900
  661MOL0     C87177   1.991   6.953   3.555 -0.1683 -1.1969  0.1013
  661MOL0     O87178   2.111   6.988   3.499  0.3461 -0.8301  0.2753
  661MOL0     C87179   2.219   6.975   3.588 -0.2788 -0.1210  0.3028
  661MOL0     C87180   2.340   7.058   3.543  0.4025  0.8046  0.1121
  661MOL0     C87181   2.419   6.978   3.445  0.3599 -0.2036  0.0730
  661MOL0     C87182   2.527   7.077   3.389 -0.3070  0.0850 -0.4500
  661MOL0     C87183   2.617   7.001   3.300 -0.2652 -0.3781  0.1212
  661MOL0     C87184   2.696   6.951   3.219  0.1396  0.1146 -1.1526
  661MOL0     C87185   1.959   6.838   3.624 -0.1329 -0.0022 -0.3609
  661MOL0     C87186   1.831   6.812   3.680 -0.0393  0.1382  0.3957
  661MOL0     H87187   1.339   6.789   3.738 -0.3685  0.1332  0.4306
  661MOL0     H87188   1.104   6.797   3.739 -2.1884  1.5283  1.2974
  661MOL0     H87189   0.943   7.094   3.903  0.7965 -1.9058  0.6017
  661MOL0     H87190   0.831   6.968   3.870  1.4285  0.1180 -0.9406
  661MOL0     H87191   0.702   7.109   3.720 -0.2976 -1.0395  1.4018
  661MOL0     H87192   0.806   7.247   3.754  0.9362  0.9333  2.0879
  661MOL0     H87193   0.731   7.222   4.008 -1.7034  0.2062  0.5066
  661MOL0     H87194   0.642   7.083   3.960  3.1359 -1.0173  0.4743
  661MOL0     H87195   0.600   7.362   3.847  1.0131 -0.2066  0.3706
  661MOL0     H87196   0.509   7.214   3.807  2.0956 -2.6310 -0.4697
  661MOL0     H87197   0.540   7.284   4.100 -0.1089 -2.2737 -0.5275
  661MOL0     H87198   0.416   7.200   4.024 -2.0025  0.6339 -0.0601
  661MOL0     H87199   0.445   7.504   3.994  0.3288  0.8243  3.9392
  661MOL0     H87200   0.367   7.422   4.128 -0.3459  1.7780  0.4676
  661MOL0     H87201   0.222   7.474   3.911 -0.9220 -0.1670  2.9250
  661MOL0     H87202   0.299   7.334   3.858 -2.2766  0.0840 -0.8905
  661MOL0     H87203   0.158   7.329   4.133 -4.6230  1.0855 -0.0678
  661MOL0     H87204   0.195   7.193   4.032  3.1283  0.9990  0.2070
  661MOL0     H87205  -0.038   7.477   4.118  0.0060 -2.5388  2.1884
  661MOL0     H87206  -0.296   7.575   3.949  0.8163 -0.4910 -1.0915
  661MOL0     H87207  -0.301   7.498   4.111 -2.0059 -0.1713 -0.3109
  661MOL0     H87208  -0.473   7.360   4.044 -1.0388  0.5349  0.5849
  661MOL0     H87209  -0.401   7.328   3.885 -1.3382 -0.9440  1.3922
  661MOL0     H87210  -0.530   7.596   3.943  1.7067  0.1311 -0.5117
  661MOL0     H87211  -0.463   7.516   3.794  0.4091 -1.0706  0.1360
  661MOL0     H87212  -0.700   7.416   3.949 -1.2425  2.3215  0.4392
  661MOL0     H87213  -0.653   7.358   3.794 -0.7630  1.0797 -0.7823
  661MOL0     H87214  -0.839   7.716   3.652  0.4908  0.1863  0.0944
  661MOL0     H87215  -1.070   7.702   3.568  0.2260  1.0720  2.4885
  661MOL0     H87216  -1.416   7.188   3.640  0.4353 -0.2826  0.5759
  661MOL0     H87217  -1.653   7.119   3.552  0.0734 -0.2392 -0.0657
  661MOL0     H87218  -1.824   7.295   3.190  1.6996 -0.4237  0.9174
  661MOL0     H87219  -1.882   7.405   3.317  1.0748  0.4686 -0.9488
  661MOL0     H87220  -2.073   7.304   3.235  0.6287 -0.8211 -1.6728
  661MOL0     H87221  -2.045   7.222   3.397 -1.7494 -1.2721 -0.8841
  661MOL0     H87222  -1.986   7.011   3.293  0.3914 -1.4726 -0.7711
  661MOL0     H87223  -1.919   7.102   3.154 -0.1208  0.4360 -1.0675
  661MOL0     H87224  -2.215   7.014   3.213 -0.7789 -0.6798 -1.5942
  661MOL0     H87225  -2.175   7.146   3.096  2.4215 -1.5701 -4.7812
  661MOL0     H87226  -2.051   6.999   2.966  1.9574 -0.6085  0.2401
  661MOL0     H87227  -2.219   6.935   2.985  0.3524  1.1044 -0.9751
  661MOL0     H87228  -1.955   6.811   3.129  0.8246 -0.6619 -0.7281
  661MOL0     H87229  -2.062   6.734   3.028  2.3784 -1.6563  3.3033
  661MOL0     H87230  -2.105   6.811   3.310  3.7099  0.3098 -0.1243
  661MOL0     H87231  -2.243   6.793   3.194 -0.1254 -2.1520 -0.9931
  661MOL0     H87232  -2.043   6.565   3.225 -0.3822 -1.5587  2.2674
  661MOL0     H87233  -2.178   6.575   3.116  1.6308  1.1096 -1.5259
  661MOL0     H87234  -1.638   7.428   3.262  2.1431 -0.0347 -1.2839
  661MOL0     H87235  -1.408   7.492   3.334 -0.6868 -0.4711 -1.1138
  661MOL0     H87236  -1.087   7.292   3.670  0.4602 -0.8298 -0.0726
  661MOL0     H87237  -0.883   7.324   3.805 -0.4826 -0.3243  2.3496
  661MOL0     H87238   1.101   7.216   3.683 -0.2245 -0.3606  1.0224
  661MOL0     H87239   1.361   7.195   3.636  1.5281 -1.3398 -3.4435
  661MOL0     H87240   1.698   7.114   3.584  1.8709  0.5908 -0.4395
  661MOL0     H87241   1.910   7.152   3.505  1.7893  1.3829  1.9463
  661MOL0     H87242   2.252   6.871   3.595  0.2578 -0.1107 -1.4848
  661MOL0     H87243   2.184   7.013   3.684 -1.9532 -1.2313  0.1714
  661MOL0     H87244   2.302   7.154   3.506 -1.1834  0.7134  1.4146
  661MOL0     H87245   2.404   7.082   3.628  1.3681  0.5965 -0.5294
  661MOL0     H87246   2.357   6.939   3.364  2.2239 -0.9745 -1.0473
  661MOL0     H87247   2.454   6.887   3.495 -1.3308 -0.7886  0.2377
  661MOL0     H87248   2.477   7.159   3.337  1.0836  2.3726  1.5972
  661MOL0     H87249   2.588   7.116   3.472 -0.9975 -0.4546  0.3298
  661MOL0     H87250   2.764   6.911   3.146  0.1137  0.2857 -1.2708
  661MOL0     H87251   2.043   6.769   3.638  0.2196  0.6597  0.9180
  661MOL0     H87252   1.807   6.723   3.737 -2.1500  0.1890 -0.3216
  662MOL0     O87253   9.947   4.801   8.921  0.3039  0.2122 -0.0142
  662MOL0     C87254   9.925   4.835   9.037  0.0917  0.2785 -0.9889
  662MOL0     O87255   9.800   4.844   9.090  0.6348  1.4122  0.7960
  662MOL0     C87256   9.689   4.839   9.009 -0.1146  0.0072  0.6256
  662MOL0     C87257   9.689   4.926   8.892 -0.1907 -0.4560 -0.0539
  662MOL0     C87258   9.569   4.950   8.826  0.9697 -0.8084  0.1872
  662MOL0     C87259   9.452   4.878   8.848 -0.0589  0.5434 -0.7114
  662MOL0     O87260   9.327   4.868   8.780 -0.4350  0.5209  0.3108
  662MOL0     C87261   9.313   4.963   8.684 -0.9913 -0.0309 -0.3850
  662MOL0     C87262   9.168   4.962   8.676 -0.2589  0.4146  0.6245
  662MOL0     C87263   9.103   5.093   8.609  0.4326  0.8368  0.2927
  662MOL0     C87264   8.950   5.077   8.611 -0.1917 -0.1207  0.1420
  662MOL0     C87265   8.874   5.201   8.568  0.1339 -0.0705 -1.0120
  662MOL0     C87266   8.732   5.169   8.603  0.1044 -0.6807 -0.9072
  662MOL0     C87267   8.653   5.303   8.595  0.3152 -0.7275  0.5820
  662MOL0     C87268   8.507   5.270   8.586  0.1960 -0.4613  0.2530
  662MOL0     N87269   8.425   5.393   8.586  0.3571  0.1233 -0.6183
  662MOL0     C87270   8.323   5.413   8.494 -1.0729 -0.6501  0.5881
  662MOL0     C87271   8.266   5.527   8.532  0.2227 -0.5684  0.3423
  662MOL0     C87272   8.152   5.592   8.457 -0.4293 -0.2737  0.1703
  662MOL0     C87273   8.199   5.728   8.403 -1.1233  0.2986 -0.1691
  662MOL0     C87274   8.090   5.762   8.304 -0.0378 -0.1484  0.8380
  662MOL0     C87275   8.109   5.904   8.248  0.1015 -0.0549  0.1175
  662MOL0     O87276   8.021   5.909   8.133 -0.7875 -0.3842  0.1943
  662MOL0     C87277   7.895   5.967   8.141  0.4082 -0.6604  0.4219
  662MOL0     C87278   7.820   6.007   8.251 -0.0225 -0.1543 -0.0047
  662MOL0     C87279   7.700   6.082   8.234 -0.3058 -0.0782  0.2770
  662MOL0     C87280   7.666   6.142   8.114  0.9440 -0.3854 -0.7498
  662MOL0     C87281   7.551   6.232   8.108 -0.4740  0.9181  0.3723
  662MOL0     O87282   7.505   6.285   7.992  0.1313 -0.6547 -0.4336
  662MOL0     C87283   7.420   6.396   7.976 -0.4338 -0.4692 -0.5304
  662MOL0     C87284   7.417   6.452   7.847 -0.2079  0.1527  0.5306
  662MOL0     C87285   7.343   6.567   7.808  0.0932  0.7184 -0.4431
  662MOL0     C87286   7.259   6.620   7.913  1.0185 -0.4152  0.4080
  662MOL0     O87287   7.199   6.737   7.875  0.8632 -0.0713 -0.1537
  662MOL0     C87288   7.195   6.835   7.974  0.0431 -0.3068  0.1490
  662MOL0     C87289   7.327   6.862   8.037 -0.4220 -0.3413 -0.1633
  662MOL0     C87290   7.444   6.886   7.940  0.6972  0.4489  0.2045
  662MOL0     C87291   7.578   6.901   8.012  0.6456  0.6543  0.0164
  662MOL0     C87292   7.639   6.773   8.040  0.4086  0.4277  0.5315
  662MOL0     C87293   7.697   6.702   7.910  0.1783 -1.2102  0.4242
  662MOL0     C87294   7.779   6.579   7.939  0.0552  0.8980  0.0230
  662MOL0     C87295   7.885   6.558   7.826  0.1498  0.5083 -0.1144
  662MOL0    Cl87296   8.039   6.663   7.838 -0.0569  0.0443 -0.0120
  662MOL0     C87297   7.255   6.564   8.042  0.4537  0.3358  0.4960
  662MOL0     C87298   7.333   6.451   8.076  0.6099 -0.4977  0.0478
  662MOL0     O87299   7.509   6.265   8.217 -0.5555  0.0699  0.1395
  662MOL0     C87300   7.738   6.109   8.000 -0.1763  0.6486 -0.1038
  662MOL0     C87301   7.854   6.030   8.022 -0.3900 -0.3737  0.1975
  662MOL0     N87302   8.318   5.567   8.654 -0.4367 -0.3083  1.1265
  662MOL0     N87303   8.417   5.486   8.686  0.0087 -0.1898  0.2801
  662MOL0     C87304   9.450   4.807   8.969 -0.3198 -0.3551  0.0107
  662MOL0     C87305   9.563   4.784   9.048  0.9136 -0.0039 -0.3174
  662MOL0     C87306  10.029   4.870   9.139 -0.9790  0.3861  0.8663
  662MOL0     C87307  10.172   4.859   9.101 -0.1781 -0.9342 -0.3474
  662MOL0     C87308  10.269   4.903   9.190  0.8724 -0.4911  0.6630
  662MOL0     C87309  10.234   4.946   9.316  0.6702  0.3814  0.0889
  662MOL0     O87310  10.337   4.985   9.396  0.2144  0.1705  0.9191
  662MOL0     C87311  10.316   5.013   9.535 -0.4784  0.6969 -0.4730
  662MOL0     C87312  10.451   5.056   9.600  0.1138 -0.4151  0.1419
  662MOL0     C87313  10.507   5.176   9.521  0.1932 -1.1573 -0.0394
  662MOL0     C87314  10.556   5.270   9.622  0.5378  0.5183  0.1703
  662MOL0     C87315  10.627   5.385   9.565  0.0387 -0.8030  0.0193
  662MOL0     C87316  10.700   5.477   9.538  0.0972  0.3351  0.0507
  662MOL0     C87317  10.099   4.943   9.354 -0.0414 -0.2483  0.5529
  662MOL0     C87318   9.995   4.907   9.272  0.1960 -0.0125 -0.7237
  662MOL0     H87319   9.772   4.983   8.853 -2.0615  1.5156 -1.3672
  662MOL0     H87320   9.563   5.019   8.742  2.2797  1.7196  2.0434
  662MOL0     H87321   9.361   4.927   8.593 -1.3423 -1.3103 -0.0855
  662MOL0     H87322   9.351   5.060   8.719  5.8544 -2.9310  1.9043
  662MOL0     H87323   9.117   4.933   8.768  0.0930  3.5433  1.9231
  662MOL0     H87324   9.146   4.894   8.593 -0.7584  1.4704 -0.1290
  662MOL0     H87325   9.139   5.098   8.506  1.1013  0.2830  0.4904
  662MOL0     H87326   9.136   5.177   8.671  0.9945  0.6766  0.2163
  662MOL0     H87327   8.917   4.995   8.546  0.7166 -1.3786  1.2239
  662MOL0     H87328   8.920   5.059   8.715 -3.7568 -0.1270 -0.7323
  662MOL0     H87329   8.879   5.208   8.459 -0.0125 -1.1689 -1.1043
  662MOL0     H87330   8.904   5.293   8.617  0.0084 -0.0512 -0.9708
  662MOL0     H87331   8.727   5.145   8.710 -2.7752  2.2671 -0.2175
  662MOL0     H87332   8.696   5.095   8.531 -1.9365  0.0315 -0.6665
  662MOL0     H87333   8.667   5.370   8.680 -3.6883  2.3675 -0.8561
  662MOL0     H87334   8.680   5.361   8.506 -0.2940  0.2752  1.0374
  662MOL0     H87335   8.480   5.205   8.670 -2.1074 -3.8997 -2.8197
  662MOL0     H87336   8.490   5.201   8.502 -0.9126  2.9434 -2.5725
  662MOL0     H87337   8.306   5.359   8.401  2.1497 -0.0066 -0.5040
  662MOL0     H87338   8.065   5.600   8.524 -0.1592 -0.9806  0.6090
  662MOL0     H87339   8.122   5.529   8.373 -0.6911 -1.7245  1.3120
  662MOL0     H87340   8.291   5.723   8.344 -3.5561  0.8913 -4.3773
  662MOL0     H87341   8.213   5.799   8.485  0.9828 -0.2177 -0.0255
  662MOL0     H87342   8.106   5.692   8.221 -0.4786  2.2624 -1.3981
  662MOL0     H87343   7.992   5.761   8.352 -1.2737  2.8971 -1.2937
  662MOL0     H87344   8.212   5.930   8.223 -0.2032  1.3323  0.2137
  662MOL0     H87345   8.076   5.971   8.328 -1.0561  0.2102 -0.5650
  662MOL0     H87346   7.836   5.968   8.351  0.2050  0.1879  0.0932
  662MOL0     H87347   7.653   6.098   8.331 -0.3111  1.6891  0.0228
  662MOL0     H87348   7.488   6.410   7.777 -0.6539 -0.4976  0.4570
  662MOL0     H87349   7.361   6.609   7.710  1.0822  2.5467  0.4781
  662MOL0     H87350   7.132   6.798   8.055 -0.7243  0.0680 -0.2623
  662MOL0     H87351   7.138   6.923   7.942  0.0917  0.9374  3.1452
  662MOL0     H87352   7.352   6.773   8.095  0.8385  0.7646  1.0685
  662MOL0     H87353   7.318   6.944   8.110 -1.0989 -1.5368  1.1289
  662MOL0     H87354   7.415   6.971   7.878  2.0574 -0.2810 -1.5328
  662MOL0     H87355   7.430   6.806   7.867 -0.8849  1.4052 -0.5893
  662MOL0     H87356   7.639   6.961   7.943  1.7733  0.3734  0.7400
  662MOL0     H87357   7.558   6.958   8.103 -2.7721 -1.1595  0.5820
  662MOL0     H87358   7.570   6.704   8.088 -2.6002  2.4620 -0.5950
  662MOL0     H87359   7.727   6.794   8.103  1.2069 -0.0088 -0.4143
  662MOL0     H87360   7.763   6.773   7.859  0.2863 -0.2273  1.8661
  662MOL0     H87361   7.605   6.686   7.853 -1.6043 -0.7109  2.9425
  662MOL0     H87362   7.838   6.590   8.031 -2.2400 -0.0914  1.7244
  662MOL0     H87363   7.719   6.488   7.945 -0.0720  1.0647  2.6045
  662MOL0     H87364   7.834   6.564   7.730  1.2117 -1.1759 -0.8279
  662MOL0     H87365   7.925   6.456   7.831 -1.1994 -0.0405 -0.1342
  662MOL0     H87366   7.196   6.613   8.119 -1.4840 -2.1309  0.6965
  662MOL0     H87367   7.317   6.420   8.178 -0.9161  1.4039  0.4441
  662MOL0     H87368   7.708   6.160   7.909 -0.6821  0.7626  0.1245
  662MOL0     H87369   7.925   6.034   7.940 -0.6727  2.0476  0.0160
  662MOL0     H87370   9.357   4.754   8.989 -1.6243  2.4711  2.1580
  662MOL0     H87371   9.549   4.734   9.143  0.3492  1.4057  0.3755
  662MOL0     H87372  10.192   4.847   8.995  1.4034  3.0259 -0.6361
  662MOL0     H87373  10.375   4.904   9.164  0.8967 -0.8446  0.7377
  662MOL0     H87374  10.288   4.925   9.595 -2.6753  1.5400 -0.1671
  662MOL0     H87375  10.235   5.084   9.553 -0.2279  0.5168  1.5640
  662MOL0     H87376  10.451   5.080   9.707 -0.5146  2.5366 -0.4368
  662MOL0     H87377  10.525   4.976   9.592 -0.9449 -1.3451 -0.7754
  662MOL0     H87378  10.424   5.217   9.463  1.0800 -0.7151 -1.0150
  662MOL0     H87379  10.573   5.134   9.444  1.1677  1.5298 -0.7771
  662MOL0     H87380  10.479   5.311   9.688  2.7945  0.8655  2.7975
  662MOL0     H87381  10.629   5.207   9.675  0.2963  0.6368  0.6447
  662MOL0     H87382  10.763   5.563   9.532  0.2114  0.2448 -0.0631
  662MOL0     H87383  10.072   4.970   9.455 -3.1816  3.2438 -0.9923
  662MOL0     H87384   9.891   4.908   9.304  1.2870  0.0829  3.4034
  663MOL0     O87385   5.826   2.517   0.037 -0.1905 -0.0867  0.8377
  663MOL0     C87386   5.860   2.545   0.152  0.1866  0.4475 -0.0109
  663MOL0     O87387   5.774   2.564   0.253 -0.4549 -0.5107  0.2195
  663MOL0     C87388   5.649   2.509   0.243  0.0928  0.2997  0.2179
  663MOL0     C87389   5.614   2.396   0.171  0.6597  0.5460 -0.7974
  663MOL0     C87390   5.489   2.347   0.180 -0.1237  0.1360 -0.7464
  663MOL0     C87391   5.390   2.402   0.258  0.9309 -0.9914  0.0638
  663MOL0     O87392   5.266   2.343   0.258 -0.2985  0.5374  0.4603
  663MOL0     C87393   5.163   2.399   0.340  0.7703  0.8495 -0.1097
  663MOL0     C87394   5.024   2.327   0.327 -0.0573 -0.0840  0.6611
  663MOL0     C87395   4.919   2.340   0.433  0.2758  0.8055 -0.0085
  663MOL0     C87396   4.845   2.470   0.412 -0.4741 -0.3954  0.2202
  663MOL0     C87397   4.720   2.454   0.328 -0.3855  0.2934  0.0307
  663MOL0     C87398   4.680   2.591   0.282 -0.2806  1.0476  0.1134
  663MOL0     C87399   4.551   2.572   0.188 -0.7274  0.1056  0.4038
  663MOL0     C87400   4.427   2.552   0.280 -0.9757 -0.2547  0.1773
  663MOL0     N87401   4.308   2.528   0.187  0.1717  0.2682 -0.6869
  663MOL0     C87402   4.289   2.409   0.128  0.5506  0.1233 -0.4936
  663MOL0     C87403   4.176   2.411   0.060  1.1954  0.0406  0.3389
  663MOL0     C87404   4.104   2.306  -0.020 -0.1475 -0.4058  0.1734
  663MOL0     C87405   3.949   2.336  -0.028 -0.1962 -0.0979  0.4281
  663MOL0     C87406   3.877   2.217  -0.095  0.6473 -0.3428 -0.0060
  663MOL0     C87407   3.727   2.249  -0.114  0.5164  0.7279  0.3323
  663MOL0     O87408   3.654   2.273   0.013 -0.4657 -0.1573 -0.2310
  663MOL0     C87409   3.517   2.257   0.030 -0.3079  0.2025 -0.4308
  663MOL0     C87410   3.447   2.309   0.137 -1.0656 -0.0128 -0.8587
  663MOL0     C87411   3.314   2.281   0.158 -0.6563  0.7710  0.5667
  663MOL0     C87412   3.247   2.187   0.078  0.1552  0.7945 -0.1198
  663MOL0     C87413   3.107   2.153   0.111  0.2271 -0.5099 -0.0925
  663MOL0     O87414   3.026   2.101   0.017  0.1254 -0.2541 -0.0853
  663MOL0     C87415   2.891   2.078   0.038  0.2571 -0.0888  0.1046
  663MOL0     C87416   2.793   2.134  -0.039  1.0578  0.5867 -0.5183
  663MOL0     C87417   2.651   2.103  -0.012  0.5856 -0.3388  0.0713
  663MOL0     C87418   2.610   2.026   0.101 -0.1621  0.0666  0.7588
  663MOL0     O87419   2.485   1.979   0.115 -1.0699  0.2362 -0.3796
  663MOL0     C87420   2.404   1.973  -0.008  0.0277 -0.4777 -0.6706
  663MOL0     C87421   2.294   1.867   0.026  0.8143  0.1443  1.2273
  663MOL0     C87422   2.193   1.839  -0.088 -0.5504 -0.9889 -0.5050
  663MOL0     C87423   2.077   1.746  -0.033  0.0516  0.0249  0.4493
  663MOL0     C87424   2.100   1.636   0.076 -0.5670 -0.6458  0.2070
  663MOL0     C87425   1.994   1.524   0.063 -0.3219 -0.8913  1.0266
  663MOL0     C87426   1.848   1.557   0.109 -0.1881 -0.5108 -0.4099
  663MOL0     C87427   1.778   1.420   0.114 -0.2709  0.7315  0.6353
  663MOL0    Cl87428   1.596   1.441   0.150 -0.2540 -0.2510  0.8301
  663MOL0     C87429   2.713   1.976   0.178  0.2594 -1.1229 -0.7986
  663MOL0     C87430   2.849   2.004   0.148 -0.1557  0.1633 -0.2612
  663MOL0     O87431   3.080   2.168   0.231  0.2887  0.5171 -0.1336
  663MOL0     C87432   3.323   2.124  -0.016  0.6723  1.0806  0.1787
  663MOL0     C87433   3.449   2.168  -0.051 -0.2279 -0.6383  0.1001
  663MOL0     N87434   4.134   2.546   0.077  0.6537 -0.2585 -0.1836
  663MOL0     N87435   4.203   2.608   0.165 -0.2935  0.2957 -0.3118
  663MOL0     C87436   5.422   2.518   0.330 -0.0960 -0.5847  0.5152
  663MOL0     C87437   5.555   2.566   0.327 -0.1595 -0.7915  0.0445
  663MOL0     C87438   6.002   2.581   0.175  0.8786  0.6168 -0.3939
  663MOL0     C87439   6.092   2.606   0.072  0.4265  0.7221 -0.2731
  663MOL0     C87440   6.222   2.639   0.114 -0.2168  0.2747  0.4646
  663MOL0     C87441   6.265   2.647   0.251  0.4195 -0.0919  0.0648
  663MOL0     O87442   6.390   2.679   0.301  0.3838  0.1900 -0.1575
  663MOL0     C87443   6.497   2.701   0.200  0.0843 -0.4263  0.3095
  663MOL0     C87444   6.619   2.768   0.268  0.1238 -0.9890  0.2358
  663MOL0     C87445   6.721   2.826   0.160 -0.1550 -0.5587 -0.3544
  663MOL0     C87446   6.805   2.936   0.209 -0.2539  0.1477 -0.0849
  663MOL0     C87447   6.932   2.954   0.135 -0.2377 -0.4184  0.3554
  663MOL0     C87448   7.038   2.977   0.074  0.3179  0.3635  0.2285
  663MOL0     C87449   6.171   2.626   0.349 -0.5659  0.0495  0.6612
  663MOL0     C87450   6.041   2.594   0.311  0.4395  0.2909 -0.7896
  663MOL0     H87451   5.688   2.352   0.105  1.6791  0.3864  0.4338
  663MOL0     H87452   5.452   2.260   0.127 -2.8094  1.1694 -0.7307
  663MOL0     H87453   5.143   2.506   0.326  2.0489  1.1781  0.4142
  663MOL0     H87454   5.196   2.379   0.443  0.0525  1.7693  0.3179
  663MOL0     H87455   5.051   2.221   0.331  0.4142  0.0609  1.3173
  663MOL0     H87456   4.967   2.328   0.233 -1.5133 -3.9768  1.3115
  663MOL0     H87457   4.968   2.343   0.531  0.7195  0.6316 -0.2219
  663MOL0     H87458   4.851   2.254   0.432  0.8605  0.3405 -0.1655
  663MOL0     H87459   4.823   2.516   0.509 -0.5692  0.0321 -0.0007
  663MOL0     H87460   4.900   2.543   0.352  0.3703 -0.8547  0.4220
  663MOL0     H87461   4.638   2.401   0.376  0.7948 -2.0454 -0.3794
  663MOL0     H87462   4.740   2.405   0.232 -3.9140  1.3793 -1.4417
  663MOL0     H87463   4.758   2.634   0.219 -1.3065 -0.4591 -2.2946
  663MOL0     H87464   4.662   2.652   0.372  1.6148 -0.7703  1.8241
  663MOL0     H87465   4.541   2.657   0.120  2.9464 -0.3047 -0.8603
  663MOL0     H87466   4.572   2.494   0.114  1.1356  1.7299 -0.8835
  663MOL0     H87467   4.411   2.646   0.334 -0.2035  0.3658 -0.6503
  663MOL0     H87468   4.433   2.468   0.349 -0.7230  0.6168  1.2469
  663MOL0     H87469   4.360   2.328   0.139  1.2481  0.7311 -0.4299
  663MOL0     H87470   4.138   2.211   0.024 -0.2693 -0.2520  0.5991
  663MOL0     H87471   4.134   2.315  -0.125 -3.8458  1.9200 -0.8949
  663MOL0     H87472   3.928   2.423  -0.092 -0.1452 -2.0672 -2.4644
  663MOL0     H87473   3.913   2.351   0.074 -1.0109 -0.2238  0.1664
  663MOL0     H87474   3.909   2.189  -0.196  1.0889 -1.2790  0.3870
  663MOL0     H87475   3.885   2.132  -0.027 -0.5038 -0.5759 -0.1461
  663MOL0     H87476   3.680   2.170  -0.174 -0.0845 -0.3693  2.1730
  663MOL0     H87477   3.725   2.341  -0.174  1.1755 -1.5600 -3.5749
  663MOL0     H87478   3.494   2.380   0.205 -1.3393 -0.4953 -0.1532
  663MOL0     H87479   3.275   2.335   0.244 -1.7570 -0.6494  0.9921
  663MOL0     H87480   2.816   2.197  -0.124  0.1134  1.3386 -0.2329
  663MOL0     H87481   2.582   2.166  -0.067 -0.0207  0.0083  1.1854
  663MOL0     H87482   2.467   1.934  -0.089 -1.0335 -0.2954 -1.6024
  663MOL0     H87483   2.371   2.070  -0.046  0.3528 -0.3933 -0.7400
  663MOL0     H87484   2.230   1.888   0.112 -1.8078 -0.9307 -0.3207
  663MOL0     H87485   2.342   1.769   0.037 -1.1619 -1.2359 -1.2799
  663MOL0     H87486   2.244   1.789  -0.171  2.0026 -1.1599  1.0597
  663MOL0     H87487   2.146   1.936  -0.110  1.2875  0.2133  0.5987
  663MOL0     H87488   1.998   1.814  -0.000 -0.6409 -0.3849 -0.3374
  663MOL0     H87489   2.023   1.703  -0.118 -2.1356  3.5510 -0.1523
  663MOL0     H87490   2.095   1.677   0.178  0.3011  2.1629 -0.7776
  663MOL0     H87491   2.199   1.597   0.052  0.8188  2.0792  0.9962
  663MOL0     H87492   2.032   1.430   0.104  1.3058 -1.6098 -1.7870
  663MOL0     H87493   2.001   1.491  -0.042 -0.7282  0.5563  0.5178
  663MOL0     H87494   1.847   1.619   0.200  0.9464 -1.3741  0.2133
  663MOL0     H87495   1.808   1.632   0.039  3.3256  2.3562  0.3716
  663MOL0     H87496   1.820   1.362   0.197  2.2540 -0.1609 -1.1386
  663MOL0     H87497   1.797   1.358   0.026  0.7631 -1.1054  2.0736
  663MOL0     H87498   2.685   1.895   0.245  2.0670 -1.0205  0.1445
  663MOL0     H87499   2.920   1.946   0.206 -0.3832 -0.3073 -0.4475
  663MOL0     H87500   3.277   2.052  -0.084 -3.2637  0.4920  3.1283
  663MOL0     H87501   3.491   2.121  -0.140  0.7119  2.3555 -1.1613
  663MOL0     H87502   5.360   2.583   0.391  0.8386  2.3979 -1.4713
  663MOL0     H87503   5.580   2.647   0.395 -1.5359 -0.0543 -0.2913
  663MOL0     H87504   6.060   2.604  -0.032  1.9722 -0.6540 -0.7704
  663MOL0     H87505   6.302   2.646   0.041 -0.9149 -2.6656 -0.7205
  663MOL0     H87506   6.450   2.769   0.128 -1.9384 -0.0672  1.8735
  663MOL0     H87507   6.518   2.602   0.160 -1.0197 -0.9015  0.8642
  663MOL0     H87508   6.585   2.848   0.335  0.5218 -0.4974 -0.1439
  663MOL0     H87509   6.660   2.687   0.329  1.8915 -0.6268 -0.4112
  663MOL0     H87510   6.664   2.871   0.078  0.1476  2.1431  0.8008
  663MOL0     H87511   6.783   2.746   0.119 -0.9366 -2.7747  2.4158
  663MOL0     H87512   6.744   3.027   0.206 -1.8924 -0.9278 -0.9142
  663MOL0     H87513   6.825   2.905   0.312 -0.7086 -1.9782 -0.5934
  663MOL0     H87514   7.126   3.001   0.017  0.0978  0.5533 -0.0296
  663MOL0     H87515   6.214   2.623   0.448 -0.4699 -0.4530  0.6049
  663MOL0     H87516   5.968   2.583   0.391  0.5305 -1.4470 -0.9013
  664MOL0     O87517   9.090   7.347  10.532 -0.3256  0.6219 -0.5481
  664MOL0     C87518   9.136   7.420  10.443  0.3065  0.3720 -0.7634
  664MOL0     O87519   9.059   7.486  10.349 -0.8641  0.0564 -0.4762
  664MOL0     C87520   8.926   7.498  10.369  0.6907 -0.3481 -0.2583
  664MOL0     C87521   8.842   7.492  10.257 -0.5861  0.0995 -0.5156
  664MOL0     C87522   8.705   7.506  10.273 -0.4028  0.3194  0.2017
  664MOL0     C87523   8.649   7.547  10.398  0.3026  0.0652  0.3055
  664MOL0     O87524   8.520   7.581  10.424  0.3475 -0.1250 -0.0040
  664MOL0     C87525   8.427   7.566  10.311 -0.3735 -0.6201  0.1490
  664MOL0     C87526   8.282   7.588  10.350 -0.1246 -0.0727  0.3980
  664MOL0     C87527   8.206   7.476  10.421  0.9525  0.1560  0.0229
  664MOL0     C87528   8.273   7.446  10.561  0.7569  0.2728  0.9809
  664MOL0     C87529   8.279   7.564  10.661 -0.3108 -0.0038  0.9646
  664MOL0     C87530   8.256   7.535  10.805  0.4884 -0.5883  0.1400
  664MOL0     C87531   8.107   7.486  10.836  0.4514 -0.4117  0.9467
  664MOL0     C87532   8.002   7.594  10.820 -0.1200 -0.7503  0.3031
  664MOL0     N87533   7.874   7.556  10.864  0.4583  0.5373 -0.2770
  664MOL0     C87534   7.763   7.574  10.791  0.1445 -0.4430 -0.0008
  664MOL0     C87535   7.666   7.530  10.874  0.1304 -0.5487  0.2294
  664MOL0     C87536   7.530   7.560  10.819  0.6149 -0.3210  0.5180
  664MOL0     C87537   7.413   7.495  10.895 -0.5516  0.4976  0.3040
  664MOL0     C87538   7.398   7.344  10.865  0.4456  0.0786  0.5564
  664MOL0     C87539   7.307   7.261  10.962 -0.1717 -0.0063 -0.4272
  664MOL0     O87540   7.182   7.337  10.967  0.4997  0.1178  0.3776
  664MOL0     C87541   7.075   7.324  10.876 -0.1118  0.6955 -0.7984
  664MOL0     C87542   7.026   7.205  10.813 -0.2221 -1.0865 -0.1379
  664MOL0     C87543   6.915   7.216  10.728 -0.5702  0.0032  0.0505
  664MOL0     C87544   6.842   7.330  10.708  0.6961 -0.4403  0.8166
  664MOL0     C87545   6.728   7.330  10.605 -1.1656 -0.9376 -0.3123
  664MOL0     O87546   6.673   7.450  10.576  0.2032  0.7051 -0.6698
  664MOL0     C87547   6.551   7.454  10.508  0.0017 -0.4733 -0.2809
  664MOL0     C87548   6.530   7.575  10.441  0.2843 -1.3600  0.4716
  664MOL0     C87549   6.408   7.587  10.372 -0.3099 -0.9870  0.0775
  664MOL0     C87550   6.320   7.485  10.362  1.1436  0.7468 -0.0141
  664MOL0     O87551   6.211   7.488  10.281 -0.2157  0.3657 -0.1349
  664MOL0     C87552   6.214   7.573  10.161  0.5065 -0.0065  0.4737
  664MOL0     C87553   6.089   7.539  10.079 -0.1796 -0.7724 -0.0201
  664MOL0     C87554   5.966   7.603  10.133 -0.0837 -0.0590 -0.2533
  664MOL0     C87555   5.843   7.572  10.051 -0.3053  0.7444  0.0172
  664MOL0     C87556   5.738   7.672  10.099  0.3552 -0.6812 -0.1469
  664MOL0     C87557   5.608   7.644  10.024  0.1160  0.6972  0.2009
  664MOL0     C87558   5.490   7.730  10.063 -0.8108  0.2309 -0.1120
  664MOL0     C87559   5.365   7.644  10.052  0.1031  0.1367 -0.6081
  664MOL0    Cl87560   5.339   7.611   9.885  0.1574 -0.4912  0.2567
  664MOL0     C87561   6.345   7.370  10.428  0.2658  1.4036  0.1313
  664MOL0     C87562   6.451   7.353  10.515  0.4663 -0.6463  0.8142
  664MOL0     O87563   6.707   7.220  10.552 -0.1517 -0.6735  0.1216
  664MOL0     C87564   6.886   7.445  10.773  0.0630 -0.3724 -0.3299
  664MOL0     C87565   7.003   7.442  10.855 -0.0950  0.1236  0.2589
  664MOL0     N87566   7.715   7.487  10.995 -0.1291 -0.0627  0.0912
  664MOL0     N87567   7.847   7.496  10.987 -0.1786 -0.2124  0.1667
  664MOL0     C87568   8.731   7.557  10.513  0.4262  0.6135 -0.4689
  664MOL0     C87569   8.872   7.536  10.490  0.2191 -0.2985  0.1551
  664MOL0     C87570   9.285   7.417  10.441  0.2271 -0.1153 -0.5286
  664MOL0     C87571   9.373   7.367  10.539  0.1054 -0.0748 -0.0530
  664MOL0     C87572   9.509   7.375  10.522  0.5550 -0.0653  0.2804
  664MOL0     C87573   9.564   7.420  10.404  0.0364  0.8152 -0.1733
  664MOL0     O87574   9.699   7.443  10.392  0.3960  0.2416 -0.4787
  664MOL0     C87575   9.759   7.541  10.306  0.1440 -0.1234 -0.0314
  664MOL0     C87576   9.900   7.575  10.358  0.0544 -0.1926  0.0657
  664MOL0     C87577   9.923   7.634  10.503 -0.0382  0.7844  0.4848
  664MOL0     C87578  10.079   7.619  10.533 -0.1946 -0.7164 -0.3121
  664MOL0     C87579  10.167   7.689  10.434 -0.0803  0.1161  0.4995
  664MOL0     C87580  10.238   7.728  10.348 -1.1534  0.0184  0.1805
  664MOL0     C87581   9.482   7.456  10.297 -1.0402 -0.2111 -1.2519
  664MOL0     C87582   9.346   7.469  10.323  0.8540  0.7353 -0.2013
  664MOL0     H87583   8.885   7.450  10.167 -0.2719 -1.6764  0.4182
  664MOL0     H87584   8.662   7.509  10.173  0.5584 -1.4323 -0.3034
  664MOL0     H87585   8.432   7.463  10.274  0.3434 -0.5529  0.0386
  664MOL0     H87586   8.455   7.635  10.230  0.1424  0.0457  0.8875
  664MOL0     H87587   8.216   7.605  10.265  0.1544 -0.1964  0.1542
  664MOL0     H87588   8.283   7.673  10.419 -2.1036 -0.0110  0.3935
  664MOL0     H87589   8.208   7.390  10.353  2.4890 -0.2291  0.5225
  664MOL0     H87590   8.102   7.499  10.448  1.5665  2.0322  0.9870
  664MOL0     H87591   8.220   7.365  10.612 -0.7876  2.2628  2.6935
  664MOL0     H87592   8.375   7.415  10.535  1.2442  1.7209  1.0562
  664MOL0     H87593   8.200   7.633  10.631 -1.1360 -0.1474  2.6887
  664MOL0     H87594   8.374   7.615  10.641 -3.0079  5.3127 -0.2008
  664MOL0     H87595   8.274   7.625  10.864  1.8547 -1.5122  1.2057
  664MOL0     H87596   8.333   7.464  10.838  3.9176  2.9115  0.4178
  664MOL0     H87597   8.079   7.403  10.770 -4.5936  0.4354  1.5899
  664MOL0     H87598   8.112   7.456  10.941  1.7343 -1.7299  0.5387
  664MOL0     H87599   8.006   7.618  10.713 -1.2227  1.2011  0.6667
  664MOL0     H87600   8.030   7.689  10.867  1.2814 -1.2357  0.4802
  664MOL0     H87601   7.761   7.622  10.694  0.6630  0.3102  0.3448
  664MOL0     H87602   7.529   7.518  10.718  0.5776  0.3975  0.2190
  664MOL0     H87603   7.517   7.668  10.821  0.3743 -0.3550  1.0092
  664MOL0     H87604   7.326   7.557  10.869 -0.0735  1.3460  0.6958
  664MOL0     H87605   7.418   7.511  11.003  2.8370  1.2303  0.1347
  664MOL0     H87606   7.357   7.327  10.765  1.6355 -2.6015  0.4595
  664MOL0     H87607   7.494   7.296  10.847  0.7103  0.3897  1.1049
  664MOL0     H87608   7.345   7.270  11.064  0.2554  2.2039 -0.7384
  664MOL0     H87609   7.306   7.159  10.922 -0.1934  0.0315 -0.5230
  664MOL0     H87610   7.089   7.120  10.838 -0.6789 -1.4230 -0.1138
  664MOL0     H87611   6.884   7.117  10.698 -0.0611  0.0578 -0.6675
  664MOL0     H87612   6.602   7.655  10.441 -1.5465  0.4617 -2.4370
  664MOL0     H87613   6.395   7.670  10.303 -0.8476 -1.3106 -0.2152
  664MOL0     H87614   6.301   7.539  10.104 -1.1386 -1.3206 -1.3457
  664MOL0     H87615   6.217   7.679  10.187  2.6282  0.6780 -2.1079
  664MOL0     H87616   6.072   7.431  10.086 -1.0998 -0.5721  4.6854
  664MOL0     H87617   6.107   7.569   9.976  2.1141  0.3378  0.6516
  664MOL0     H87618   5.985   7.711  10.131  3.8859 -0.6003 -2.0777
  664MOL0     H87619   5.953   7.565  10.235 -0.3578 -1.0728 -0.6580
  664MOL0     H87620   5.858   7.591   9.944 -4.7474  1.1262 -0.7553
  664MOL0     H87621   5.815   7.467  10.067 -1.6499  1.1718  0.6737
  664MOL0     H87622   5.764   7.777  10.086  0.4325 -0.7184 -0.2928
  664MOL0     H87623   5.716   7.653  10.205 -1.8035 -0.4996 -0.5119
  664MOL0     H87624   5.581   7.538  10.026 -1.6584  1.1359  1.3049
  664MOL0     H87625   5.630   7.664   9.919  0.7867  0.3843  0.2743
  664MOL0     H87626   5.504   7.766  10.165  3.0406 -0.7893 -0.1366
  664MOL0     H87627   5.490   7.823  10.005  1.0953 -0.6330 -1.6262
  664MOL0     H87628   5.280   7.703  10.089 -0.1291 -0.8914  0.5625
  664MOL0     H87629   5.365   7.557  10.119 -1.2484  0.8918  0.4330
  664MOL0     H87630   6.266   7.295  10.421 -0.5001  2.0681  1.2124
  664MOL0     H87631   6.465   7.262  10.572  1.3008  0.3640  2.2506
  664MOL0     H87632   6.833   7.539  10.768  0.0746 -0.1545  2.3568
  664MOL0     H87633   7.036   7.535  10.900 -2.3447  1.6736 -1.1016
  664MOL0     H87634   8.687   7.581  10.609  0.2269  1.4628 -0.7614
  664MOL0     H87635   8.939   7.554  10.574  0.9931  1.2662 -0.7349
  664MOL0     H87636   9.331   7.324  10.629  0.4479 -0.9121 -0.2842
  664MOL0     H87637   9.575   7.348  10.603  1.5502  0.3540 -0.3692
  664MOL0     H87638   9.697   7.630  10.289 -4.0635 -2.9464 -1.2587
  664MOL0     H87639   9.765   7.504  10.203  3.0328 -0.6581  0.2617
  664MOL0     H87640   9.949   7.478  10.353 -1.0814 -0.7323 -1.4978
  664MOL0     H87641   9.958   7.630  10.284 -0.7577 -0.0053 -0.4528
  664MOL0     H87642   9.869   7.568  10.571  0.3977 -2.7571 -2.2978
  664MOL0     H87643   9.884   7.736  10.509  0.6374  0.9969  1.4756
  664MOL0     H87644  10.111   7.652  10.632 -2.1033 -1.7226  0.6825
  664MOL0     H87645  10.098   7.511  10.533 -1.0809 -0.8729 -0.2505
  664MOL0     H87646  10.309   7.766  10.277  0.3645 -3.4141 -0.3326
  664MOL0     H87647   9.523   7.507  10.211  2.4768 -0.5470  0.0464
  664MOL0     H87648   9.289   7.536  10.259 -3.4798 -1.1970  1.2613
  665MOL0     O87649   4.234   3.461   9.755 -0.2789 -0.4347 -0.4214
  665MOL0     C87650   4.266   3.577   9.735  0.1223  0.5321  0.0009
  665MOL0     O87651   4.178   3.670   9.696 -0.2417 -1.0520 -0.7265
  665MOL0     C87652   4.048   3.644   9.655  0.0817 -0.4078  0.4368
  665MOL0     C87653   3.997   3.718   9.548  0.1247  0.6827 -0.4346
  665MOL0     C87654   3.876   3.689   9.489 -0.1329  0.7976  0.0594
  665MOL0     C87655   3.793   3.589   9.540  0.2414 -0.3683  0.2441
  665MOL0     O87656   3.672   3.592   9.476 -0.0694 -0.0089  0.0923
  665MOL0     C87657   3.622   3.463   9.442  0.1722  0.4635  0.5896
  665MOL0     C87658   3.474   3.481   9.416  0.3813  1.0414  0.6739
  665MOL0     C87659   3.428   3.342   9.387 -0.2409  0.3493  0.6351
  665MOL0     C87660   3.282   3.335   9.338  0.6427 -0.1004  0.2146
  665MOL0     C87661   3.239   3.197   9.272  0.2178  0.4331 -0.2202
  665MOL0     C87662   3.104   3.221   9.206  0.4678 -0.7227 -0.1881
  665MOL0     C87663   3.046   3.089   9.150  0.4883 -0.3360 -0.2119
  665MOL0     C87664   2.900   3.113   9.097 -0.2025 -0.1715 -0.2824
  665MOL0     N87665   2.832   2.980   9.076 -0.3417 -0.0208 -0.2291
  665MOL0     C87666   2.751   2.914   9.166 -0.3964  0.2799  0.9622
  665MOL0     C87667   2.745   2.788   9.113  0.5211  0.3688 -0.0494
  665MOL0     C87668   2.671   2.677   9.183  0.3538 -0.0764  0.0619
  665MOL0     C87669   2.512   2.686   9.163 -1.3516 -0.1307  0.0338
  665MOL0     C87670   2.440   2.581   9.248  0.5971  0.1633 -0.6650
  665MOL0     C87671   2.291   2.607   9.230 -0.3301 -0.2770 -0.3527
  665MOL0     O87672   2.223   2.483   9.244 -0.8278 -0.0185 -0.7481
  665MOL0     C87673   2.087   2.477   9.248  0.4407 -0.4133  0.8494
  665MOL0     C87674   2.001   2.589   9.222  0.2861 -0.7629  0.3143
  665MOL0     C87675   1.858   2.577   9.209  0.2945 -0.7743 -0.2466
  665MOL0     C87676   1.798   2.453   9.233  0.8262  0.0906 -0.1876
  665MOL0     C87677   1.651   2.439   9.227  0.7726 -0.5895  0.9584
  665MOL0     O87678   1.572   2.549   9.201  0.6268 -0.4433  0.3168
  665MOL0     C87679   1.443   2.525   9.199  0.4877 -0.0061 -0.2431
  665MOL0     C87680   1.380   2.441   9.100 -0.1889  0.6614 -0.8573
  665MOL0     C87681   1.244   2.423   9.106 -0.3354 -0.4332 -0.1789
  665MOL0     C87682   1.161   2.496   9.194 -0.0174  0.4413  0.1307
  665MOL0     O87683   1.025   2.507   9.189 -0.4363  0.5164 -0.3944
  665MOL0     C87684   0.960   2.426   9.088  0.7471  0.4138 -0.8993
  665MOL0     C87685   0.813   2.438   9.118  0.6086  0.5779 -0.7887
  665MOL0     C87686   0.742   2.308   9.105  0.4001  0.4432  0.7000
  665MOL0     C87687   0.592   2.320   9.104  0.2376  0.3311 -0.0365
  665MOL0     C87688   0.522   2.186   9.083  0.1293 -0.1587  0.9864
  665MOL0     C87689   0.361   2.205   9.073  0.2731 -0.0841 -0.4057
  665MOL0     C87690   0.292   2.061   9.073 -0.1949 -0.3137 -0.9794
  665MOL0     C87691   0.136   2.074   9.098 -0.7987  0.2448 -0.1579
  665MOL0    Cl87692   0.061   2.170   8.962 -0.3174  0.5963  0.0844
  665MOL0     C87693   1.219   2.567   9.299  0.4142  0.0779 -0.8234
  665MOL0     C87694   1.364   2.582   9.295  0.1606 -0.5753  0.0666
  665MOL0     O87695   1.608   2.320   9.228 -0.2160  0.7270 -0.7610
  665MOL0     C87696   1.885   2.344   9.253 -0.2444  0.2577 -0.9354
  665MOL0     C87697   2.019   2.348   9.254 -0.7132 -0.1160  0.1378
  665MOL0     N87698   2.819   2.787   9.001 -0.1910  0.2758  0.3850
  665MOL0     N87699   2.863   2.897   8.975  0.2660 -0.3927  0.4676
  665MOL0     C87700   3.833   3.522   9.657  0.2263 -0.8885  0.0922
  665MOL0     C87701   3.961   3.546   9.708 -0.6844 -0.0577  0.3995
  665MOL0     C87702   4.409   3.616   9.724 -0.4159  0.9127 -0.3769
  665MOL0     C87703   4.511   3.550   9.794 -0.1889 -0.8657  0.7299
  665MOL0     C87704   4.641   3.594   9.776 -1.3856 -0.5151 -0.4185
  665MOL0     C87705   4.675   3.705   9.694 -0.6593 -0.6033  0.2649
  665MOL0     O87706   4.810   3.734   9.691  0.0156 -0.4008 -0.6821
  665MOL0     C87707   4.856   3.838   9.597  0.5435  0.4069 -0.4648
  665MOL0     C87708   5.010   3.848   9.595  0.7879 -0.0674 -0.3484
  665MOL0     C87709   5.062   3.975   9.512 -0.2053  0.1808 -0.0024
  665MOL0     C87710   5.200   4.006   9.542  0.3182  0.0545  0.8442
  665MOL0     C87711   5.264   4.069   9.425 -0.9622  0.7415 -0.5447
  665MOL0     C87712   5.317   4.119   9.334  0.6696 -0.3266  0.2185
  665MOL0     C87713   4.577   3.769   9.617  0.4959  0.6002 -0.2828
  665MOL0     C87714   4.442   3.727   9.638 -1.2254 -0.1160  0.3534
  665MOL0     H87715   4.059   3.799   9.509  3.4664 -2.1519 -1.5947
  665MOL0     H87716   3.840   3.747   9.405  2.2043 -0.2252 -1.7608
  665MOL0     H87717   3.644   3.391   9.521  0.3262  0.8854  0.9319
  665MOL0     H87718   3.674   3.431   9.351  0.7151  0.9100  0.7425
  665MOL0     H87719   3.452   3.558   9.342 -1.7159  2.9402  3.0712
  665MOL0     H87720   3.426   3.509   9.510  0.5279 -1.5615  1.6242
  665MOL0     H87721   3.445   3.293   9.483 -0.7079 -2.2909 -0.5321
  665MOL0     H87722   3.488   3.295   9.309 -0.2814  1.6090 -0.1777
  665MOL0     H87723   3.219   3.364   9.423  1.6096  2.8041  0.0563
  665MOL0     H87724   3.271   3.420   9.270 -1.5282 -0.9606 -0.5801
  665MOL0     H87725   3.224   3.128   9.355  1.9388  0.9547  0.5564
  665MOL0     H87726   3.316   3.166   9.201  1.0060  0.1008  0.7658
  665MOL0     H87727   3.132   3.285   9.121  0.0934 -2.5585 -1.7786
  665MOL0     H87728   3.034   3.271   9.274 -0.7986 -2.0251 -0.4939
  665MOL0     H87729   3.100   3.044   9.067 -2.2616  1.2211 -3.0713
  665MOL0     H87730   3.029   3.023   9.236 -2.7302 -2.5629 -2.3499
  665MOL0     H87731   2.904   3.179   9.009  1.0267  3.3475  2.1674
  665MOL0     H87732   2.834   3.180   9.153 -0.9893 -0.1974 -1.1478
  665MOL0     H87733   2.714   2.932   9.266  0.5398  0.2425  1.3251
  665MOL0     H87734   2.701   2.687   9.288  1.9674  1.2606 -0.4813
  665MOL0     H87735   2.704   2.577   9.153  2.2040  0.8423 -1.1013
  665MOL0     H87736   2.495   2.682   9.055  2.1375  0.5562 -0.6693
  665MOL0     H87737   2.472   2.782   9.199  3.0225  1.5391  1.0759
  665MOL0     H87738   2.469   2.480   9.219  0.6776 -0.2894  0.9290
  665MOL0     H87739   2.452   2.606   9.354 -3.7781  0.2828  0.0062
  665MOL0     H87740   2.269   2.653   9.133 -0.6994 -0.2477 -0.2566
  665MOL0     H87741   2.257   2.682   9.302 -0.8134  2.2024 -2.9639
  665MOL0     H87742   2.050   2.685   9.214  0.3022 -0.7905  0.0585
  665MOL0     H87743   1.799   2.664   9.182  1.6492 -0.1330 -1.2643
  665MOL0     H87744   1.451   2.384   9.040 -0.2520 -0.8592  0.4429
  665MOL0     H87745   1.194   2.365   9.029 -0.2688  0.0663 -0.5998
  665MOL0     H87746   0.995   2.322   9.091 -0.4371 -0.0067 -0.7657
  665MOL0     H87747   0.986   2.457   8.987 -1.4344 -2.2634 -2.4439
  665MOL0     H87748   0.774   2.515   9.052  2.5670  1.1087 -1.4104
  665MOL0     H87749   0.805   2.467   9.223 -2.8168  1.3932 -1.1548
  665MOL0     H87750   0.775   2.241   9.185 -0.6700  0.3088  1.0386
  665MOL0     H87751   0.765   2.264   9.008  1.1059  0.8987  0.6500
  665MOL0     H87752   0.560   2.347   9.205  0.8781 -3.0581  1.2140
  665MOL0     H87753   0.557   2.399   9.036 -1.6625 -1.1192 -0.8204
  665MOL0     H87754   0.552   2.126   9.170 -1.3870 -1.7637  0.4537
  665MOL0     H87755   0.553   2.145   8.987 -0.0919  2.9518 -0.5367
  665MOL0     H87756   0.337   2.260   8.982  2.1064 -1.3923 -1.7438
  665MOL0     H87757   0.322   2.252   9.164 -0.1204  1.2572 -1.2451
  665MOL0     H87758   0.314   2.023   8.973 -2.6321 -1.1838 -1.2490
  665MOL0     H87759   0.338   1.989   9.141 -1.5683 -0.0866  0.2414
  665MOL0     H87760   0.124   2.130   9.191  0.4412  0.5014 -0.1419
  665MOL0     H87761   0.099   1.971   9.101  0.1738 -0.1492 -1.0441
  665MOL0     H87762   1.165   2.627   9.371 -3.0130  1.6360 -4.3165
  665MOL0     H87763   1.406   2.637   9.379  1.9433  0.6244 -1.5372
  665MOL0     H87764   1.828   2.255   9.278 -1.8431  0.8879 -2.1770
  665MOL0     H87765   2.070   2.253   9.264  0.8051  0.8632  2.5515
  665MOL0     H87766   3.763   3.455   9.705  0.2395 -1.2613 -0.3974
  665MOL0     H87767   3.997   3.500   9.799  2.4642  0.3452 -0.5110
  665MOL0     H87768   4.489   3.468   9.862 -0.9974 -1.1492  0.1374
  665MOL0     H87769   4.717   3.540   9.831 -1.5221  0.9254  1.2681
  665MOL0     H87770   4.808   3.935   9.617 -0.6489 -0.2831  0.1128
  665MOL0     H87771   4.813   3.807   9.501  0.8634 -0.0893 -0.4483
  665MOL0     H87772   5.037   3.871   9.699 -0.0249  2.2036 -0.5631
  665MOL0     H87773   5.038   3.749   9.561  2.6344 -1.2473  3.9541
  665MOL0     H87774   4.999   4.063   9.528 -0.2233  0.0617  0.6484
  665MOL0     H87775   5.055   3.946   9.407  0.2421 -3.0862  0.7551
  665MOL0     H87776   5.209   4.078   9.624 -0.7741  0.0164  1.0110
  665MOL0     H87777   5.253   3.914   9.569  0.0895 -1.6733 -3.7390
  665MOL0     H87778   5.360   4.159   9.245 -1.9924 -1.0726 -1.5146
  665MOL0     H87779   4.590   3.854   9.550  0.6203  3.7170  3.3503
  665MOL0     H87780   4.358   3.774   9.588 -0.2928 -0.1971 -1.3701
  666MOL0     O87781   0.257   7.800   2.496  0.2576 -0.0507 -0.3730
  666MOL0     C87782   0.287   7.802   2.615  0.2155  0.9214  0.7473
  666MOL0     O87783   0.199   7.784   2.711  0.9034 -0.4425 -0.1569
  666MOL0     C87784   0.069   7.784   2.677  0.6087  0.3856 -0.9884
  666MOL0     C87785  -0.002   7.904   2.646  1.0205 -0.1748 -0.4449
  666MOL0     C87786  -0.143   7.905   2.629 -0.2183 -0.2659 -0.5042
  666MOL0     C87787  -0.214   7.786   2.655  0.4563 -0.0312  0.6574
  666MOL0     O87788  -0.353   7.785   2.658  0.0005 -1.3178 -0.1268
  666MOL0     C87789  -0.421   7.839   2.546  0.3048  0.9487  0.4568
  666MOL0     C87790  -0.556   7.770   2.538  0.4545  0.9351 -0.5652
  666MOL0     C87791  -0.642   7.816   2.420 -1.0880 -0.1975  0.0682
  666MOL0     C87792  -0.774   7.734   2.405 -0.0437 -0.0465 -0.2231
  666MOL0     C87793  -0.864   7.805   2.305  0.6147 -0.1938 -0.3351
  666MOL0     C87794  -1.007   7.751   2.309 -0.9489  0.4274  0.3605
  666MOL0     C87795  -1.108   7.803   2.210 -0.4780 -0.6008  0.8393
  666MOL0     C87796  -1.260   7.759   2.241  0.2606 -0.4171 -0.1766
  666MOL0     N87797  -1.339   7.791   2.120  0.0359  0.1395 -0.1327
  666MOL0     C87798  -1.400   7.708   2.033 -0.6008 -0.2404  0.3816
  666MOL0     C87799  -1.471   7.780   1.946  0.2938  0.1572 -0.0316
  666MOL0     C87800  -1.549   7.727   1.828  0.6231  0.3333  0.2017
  666MOL0     C87801  -1.697   7.771   1.856  0.0932  0.3486 -1.1849
  666MOL0     C87802  -1.776   7.732   1.734  0.5685  0.0086 -0.2310
  666MOL0     C87803  -1.918   7.793   1.736  0.4495  0.6032 -0.2873
  666MOL0     O87804  -1.979   7.743   1.856 -0.1954 -0.4884  0.0676
  666MOL0     C87805  -2.110   7.765   1.869 -0.4193 -0.3220  0.4671
  666MOL0     C87806  -2.198   7.676   1.798 -0.6712 -0.5554 -0.5353
  666MOL0     C87807  -2.338   7.686   1.809  0.5177  0.2159  0.1397
  666MOL0     C87808  -2.394   7.765   1.913 -0.9605 -0.6593  1.0250
  666MOL0     C87809  -2.544   7.773   1.943 -0.6698 -0.4677  0.6251
  666MOL0     O87810  -2.579   7.815   2.063  0.2974  1.0988 -0.2401
  666MOL0     C87811  -2.704   7.788   2.105  1.3842  0.4009  0.2275
  666MOL0     C87812  -2.769   7.882   2.178  0.4673  0.2210  0.2152
  666MOL0     C87813  -2.891   7.862   2.253 -0.1267 -0.3993  0.7119
  666MOL0     C87814  -2.956   7.738   2.243 -0.5452  0.6356 -0.1247
  666MOL0     O87815  -3.080   7.716   2.298 -0.0142  0.4808 -0.4293
  666MOL0     C87816  -3.164   7.825   2.272 -0.1366 -0.0084  0.1577
  666MOL0     C87817  -3.313   7.810   2.320 -0.5496  0.9135 -0.4051
  666MOL0     C87818  -3.407   7.939   2.288  0.5044  0.8394  0.2277
  666MOL0     C87819  -3.359   8.073   2.338 -0.3231  0.5599 -0.2177
  666MOL0     C87820  -3.345   8.062   2.496  0.5284  0.2283 -0.1245
  666MOL0     C87821  -3.474   8.003   2.561 -1.0557  0.3517 -0.2409
  666MOL0     C87822  -3.491   8.067   2.698 -0.0024 -0.0427  0.6614
  666MOL0     C87823  -3.589   7.989   2.778  0.0663 -0.7379 -0.9923
  666MOL0    Cl87824  -3.547   7.818   2.793  0.1951  0.1675 -0.0984
  666MOL0     C87825  -2.887   7.641   2.167 -0.0058 -0.3847 -0.3828
  666MOL0     C87826  -2.771   7.666   2.098 -0.1142  0.0382  0.2822
  666MOL0     O87827  -2.624   7.753   1.850 -0.7977  0.2464  0.0352
  666MOL0     C87828  -2.298   7.844   1.995  1.3063 -0.0833  0.5429
  666MOL0     C87829  -2.162   7.849   1.964  0.2506  0.0521 -0.1023
  666MOL0     N87830  -1.466   7.911   1.991 -0.1247 -0.3950  0.7610
  666MOL0     N87831  -1.384   7.916   2.090 -0.3719  0.5919  0.3068
  666MOL0     C87832  -0.146   7.667   2.686 -0.2345  0.4857 -0.0364
  666MOL0     C87833  -0.005   7.672   2.687  0.8255  0.1312 -0.2239
  666MOL0     C87834   0.429   7.801   2.648 -0.5478 -0.2213  0.0874
  666MOL0     C87835   0.476   7.770   2.775  0.7318 -0.4970 -0.1062
  666MOL0     C87836   0.607   7.761   2.803  0.8231 -0.1482 -0.3013
  666MOL0     C87837   0.703   7.806   2.705  0.1251 -1.0610 -0.2722
  666MOL0     O87838   0.838   7.815   2.721 -0.7281 -0.0217 -0.2178
  666MOL0     C87839   0.887   7.791   2.857  0.6675  0.7870 -0.4929
  666MOL0     C87840   1.042   7.784   2.871  0.6593  0.1909  0.1939
  666MOL0     C87841   1.101   7.923   2.842 -0.1015  1.1546  0.9702
  666MOL0     C87842   1.244   7.907   2.861  0.5031  1.0910 -0.4029
  666MOL0     C87843   1.324   8.009   2.790  0.0490  0.6542  0.4110
  666MOL0     C87844   1.397   8.094   2.737 -0.0905  0.7273 -0.5830
  666MOL0     C87845   0.658   7.844   2.586 -0.5856  0.8084  0.0089
  666MOL0     C87846   0.525   7.841   2.549 -0.0201  0.0606 -0.1415
  666MOL0     H87847   0.055   7.996   2.649 -0.1449  0.5991  2.8639
  666MOL0     H87848  -0.200   7.994   2.608  0.7981  0.6446  0.4738
  666MOL0     H87849  -0.366   7.843   2.452  2.7785  3.9402  1.8527
  666MOL0     H87850  -0.454   7.939   2.578 -2.4651  0.0806  0.5958
  666MOL0     H87851  -0.613   7.765   2.631  0.6057 -0.3305 -0.5214
  666MOL0     H87852  -0.547   7.666   2.508 -1.3439  0.3208  0.8719
  666MOL0     H87853  -0.581   7.821   2.329  1.0238 -1.4013  1.3553
  666MOL0     H87854  -0.666   7.922   2.433 -2.3894 -0.3946 -0.5448
  666MOL0     H87855  -0.753   7.632   2.372 -1.0333 -0.4757  0.4281
  666MOL0     H87856  -0.814   7.733   2.506 -1.6428  0.8050 -0.8120
  666MOL0     H87857  -0.825   7.793   2.204  2.4289  0.7746  0.1910
  666MOL0     H87858  -0.876   7.912   2.328 -1.6883  0.0424 -2.2589
  666MOL0     H87859  -1.055   7.781   2.403 -1.7973 -0.3608  0.1993
  666MOL0     H87860  -1.006   7.642   2.299  1.5710  0.3068  1.3267
  666MOL0     H87861  -1.102   7.910   2.228  1.1513 -0.2692 -1.3645
  666MOL0     H87862  -1.083   7.789   2.105 -1.8278  0.9875  0.2601
  666MOL0     H87863  -1.296   7.822   2.324 -0.1273 -1.1360  0.2087
  666MOL0     H87864  -1.267   7.653   2.266  1.8386 -0.4846  0.1125
  666MOL0     H87865  -1.375   7.603   2.025  2.9815  0.5872 -1.4059
  666MOL0     H87866  -1.548   7.618   1.820 -0.0146  0.2986  0.5270
  666MOL0     H87867  -1.523   7.779   1.735 -0.9097  0.5123 -0.1662
  666MOL0     H87868  -1.701   7.880   1.854 -2.9371  0.5087  2.6227
  666MOL0     H87869  -1.734   7.751   1.957 -2.0300  3.3232 -1.2700
  666MOL0     H87870  -1.723   7.768   1.645 -0.2087  1.3727 -0.1713
  666MOL0     H87871  -1.790   7.624   1.732 -1.4526  0.0740  3.3251
  666MOL0     H87872  -1.971   7.762   1.646  0.5622 -0.2225 -0.0822
  666MOL0     H87873  -1.913   7.902   1.737 -2.2906  0.7901  1.4029
  666MOL0     H87874  -2.161   7.608   1.722 -0.2257 -1.3663  0.3850
  666MOL0     H87875  -2.409   7.627   1.752  0.9623 -0.8397  0.6489
  666MOL0     H87876  -2.711   7.973   2.193  2.8729 -1.2758  0.4681
  666MOL0     H87877  -2.930   7.943   2.314 -2.7352 -2.3451  1.8180
  666MOL0     H87878  -3.151   7.839   2.164  1.8807  2.1245  0.6237
  666MOL0     H87879  -3.114   7.912   2.314  0.7223  1.2516 -3.1604
  666MOL0     H87880  -3.308   7.795   2.428 -1.4204  3.2752  0.0384
  666MOL0     H87881  -3.354   7.715   2.283  1.0997  0.4127 -1.0174
  666MOL0     H87882  -3.513   7.930   2.310  0.1522  3.1707 -0.2759
  666MOL0     H87883  -3.399   7.942   2.179 -1.7477  0.1632  0.0031
  666MOL0     H87884  -3.266   8.101   2.289 -1.5896  3.1981 -1.3127
  666MOL0     H87885  -3.427   8.153   2.307  1.6423  3.2313  1.8399
  666MOL0     H87886  -3.318   8.162   2.532 -1.0494  1.2362 -1.6044
  666MOL0     H87887  -3.265   7.992   2.522 -1.0030 -1.9750 -1.0834
  666MOL0     H87888  -3.466   7.895   2.568 -0.3581  0.3067 -1.5195
  666MOL0     H87889  -3.562   8.030   2.501  0.2567 -0.0012 -2.4360
  666MOL0     H87890  -3.392   8.069   2.745 -0.7057 -0.6278  2.2360
  666MOL0     H87891  -3.527   8.169   2.680 -5.5440 -1.5391  1.2672
  666MOL0     H87892  -3.690   7.999   2.737  1.0513 -1.0424 -3.7003
  666MOL0     H87893  -3.587   8.027   2.880  0.8628 -2.1177 -0.4654
  666MOL0     H87894  -2.929   7.545   2.142  0.8115 -1.3493  1.7114
  666MOL0     H87895  -2.724   7.587   2.040  1.9517  2.8006 -2.1418
  666MOL0     H87896  -2.347   7.906   2.069  0.2858 -0.3819  0.1395
  666MOL0     H87897  -2.101   7.915   2.024  1.5947 -0.5997 -0.7247
  666MOL0     H87898  -0.193   7.569   2.681  1.6646 -0.4535 -0.3587
  666MOL0     H87899   0.048   7.581   2.714  0.5133  0.3200  1.0904
  666MOL0     H87900   0.399   7.754   2.850  2.4733  1.5448  2.2773
  666MOL0     H87901   0.629   7.728   2.905  1.3936  0.6913 -0.1427
  666MOL0     H87902   0.855   7.693   2.896 -2.9659  1.2734 -1.9321
  666MOL0     H87903   0.848   7.869   2.923 -0.7696 -0.3026  0.0016
  666MOL0     H87904   1.057   7.766   2.978 -0.6218 -0.3587  0.3107
  666MOL0     H87905   1.083   7.710   2.802  0.4521  2.0861 -2.0786
  666MOL0     H87906   1.053   7.999   2.905  0.9007  0.7866  2.2140
  666MOL0     H87907   1.073   7.948   2.739 -0.2148 -0.2912  0.6366
  666MOL0     H87908   1.274   7.914   2.966  2.0230 -1.7254 -0.5400
  666MOL0     H87909   1.280   7.808   2.830 -0.7685  1.1870 -2.3702
  666MOL0     H87910   1.479   8.147   2.695 -0.0681 -0.2306 -1.8326
  666MOL0     H87911   0.728   7.878   2.510 -1.0681  1.7473 -0.0447
  666MOL0     H87912   0.515   7.867   2.444  0.6717  0.2434 -0.1701
  667MOL0     O87913   1.222   4.188   7.554 -0.5914  0.3944  0.7586
  667MOL0     C87914   1.307   4.135   7.476 -0.4017  0.4891 -0.4426
  667MOL0     O87915   1.288   4.012   7.414 -0.4273 -0.7674 -0.3929
  667MOL0     C87916   1.156   3.963   7.422 -0.5912  1.2591  0.3180
  667MOL0     C87917   1.138   3.868   7.526 -0.0932  0.0961  0.4063
  667MOL0     C87918   1.004   3.814   7.526 -0.6248  0.7091  0.1633
  667MOL0     C87919   0.901   3.852   7.442  0.1596 -0.1441  0.6072
  667MOL0     O87920   0.781   3.776   7.447  0.1635  0.3576 -0.2707
  667MOL0     C87921   0.661   3.849   7.467  0.0054 -0.3353  0.2248
  667MOL0     C87922   0.545   3.755   7.466  0.1070  0.1032 -0.3183
  667MOL0     C87923   0.543   3.651   7.573  0.7868  0.4756  0.1514
  667MOL0     C87924   0.440   3.551   7.528 -0.4683 -0.5159 -0.5841
  667MOL0     C87925   0.299   3.568   7.583  0.2142 -0.0364  0.2939
  667MOL0     C87926   0.272   3.517   7.730 -0.4106 -0.3634  0.8232
  667MOL0     C87927   0.132   3.546   7.778  0.1940 -1.1425  0.0131
  667MOL0     C87928   0.128   3.504   7.933  0.5593 -0.2790  0.2085
  667MOL0     N87929   0.024   3.582   7.997 -0.1261 -0.0328 -0.3819
  667MOL0     C87930  -0.114   3.590   7.966 -0.7916 -1.1897  0.0189
  667MOL0     C87931  -0.150   3.703   8.027  0.7318  0.9991  0.1999
  667MOL0     C87932  -0.288   3.760   7.999 -0.3044 -0.4110 -0.5758
  667MOL0     C87933  -0.365   3.750   8.134 -0.6721 -0.6294  0.2370
  667MOL0     C87934  -0.498   3.817   8.143 -0.0790 -0.1128  0.0814
  667MOL0     C87935  -0.607   3.735   8.073  0.2822  0.6367 -0.3000
  667MOL0     O87936  -0.631   3.790   7.935 -0.6058  0.2794  0.1368
  667MOL0     C87937  -0.755   3.761   7.879  0.5609  0.2046 -1.1765
  667MOL0     C87938  -0.849   3.662   7.920  0.1859  0.6987  0.0311
  667MOL0     C87939  -0.972   3.653   7.851 -0.1071  0.2837  0.6080
  667MOL0     C87940  -0.996   3.736   7.742  0.8242 -0.5968 -0.2699
  667MOL0     C87941  -1.128   3.720   7.675 -0.0050 -0.9318 -0.3322
  667MOL0     O87942  -1.225   3.651   7.743 -0.7542  0.3417 -0.5683
  667MOL0     C87943  -1.344   3.630   7.688 -0.7811 -0.6388  0.6873
  667MOL0     C87944  -1.451   3.705   7.736 -0.4448  0.3751 -0.2360
  667MOL0     C87945  -1.569   3.693   7.663 -0.3508  0.2337  0.6557
  667MOL0     C87946  -1.591   3.606   7.552 -0.2576 -0.1143  1.2552
  667MOL0     O87947  -1.715   3.575   7.506 -0.1368  0.0074 -1.2661
  667MOL0     C87948  -1.720   3.580   7.368 -0.5466  0.0125 -0.0123
  667MOL0     C87949  -1.859   3.593   7.330  0.1052 -0.1203 -1.1259
  667MOL0     C87950  -1.886   3.600   7.184  0.6085 -0.1680  0.8958
  667MOL0     C87951  -2.027   3.660   7.179 -0.4898  0.0840  0.6402
  667MOL0     C87952  -2.075   3.691   7.033  0.8105 -1.0490 -0.5206
  667MOL0     C87953  -2.220   3.758   7.045 -0.0260  0.1053  0.7697
  667MOL0     C87954  -2.288   3.768   6.913  0.3150  0.7519  0.2425
  667MOL0     C87955  -2.447   3.735   6.911 -0.0812 -0.6250  0.0309
  667MOL0    Cl87956  -2.534   3.870   6.988 -0.0851 -0.0480  0.1575
  667MOL0     C87957  -1.480   3.536   7.502  0.1306  0.2130 -0.1789
  667MOL0     C87958  -1.357   3.550   7.570  0.0595 -0.1967 -0.3601
  667MOL0     O87959  -1.143   3.778   7.569 -0.1721 -0.0748 -0.2088
  667MOL0     C87960  -0.907   3.840   7.706  0.0604  0.4230  0.1328
  667MOL0     C87961  -0.793   3.849   7.778 -0.2596  0.3856 -0.2410
  667MOL0     N87962  -0.046   3.762   8.089 -0.6708  0.7018  0.9255
  667MOL0     N87963   0.055   3.687   8.076  0.0736 -0.2419 -0.3384
  667MOL0     C87964   0.927   3.959   7.356  0.3327  0.2876 -0.2810
  667MOL0     C87965   1.054   4.001   7.335 -0.5354  0.3022  0.5829
  667MOL0     C87966   1.434   4.206   7.450 -0.7606  0.0899 -0.0068
  667MOL0     C87967   1.445   4.337   7.487  0.2640 -0.1117  0.4357
  667MOL0     C87968   1.571   4.397   7.465 -0.4068  0.1848 -0.5641
  667MOL0     C87969   1.684   4.333   7.412  0.6614  0.8796  0.5082
  667MOL0     O87970   1.795   4.410   7.404 -0.3155 -0.5916  0.0162
  667MOL0     C87971   1.901   4.352   7.332  0.8725 -0.6702  0.4589
  667MOL0     C87972   2.003   4.457   7.288  0.0851 -0.6130 -0.2108
  667MOL0     C87973   2.151   4.414   7.289 -0.3993 -0.0408  0.3553
  667MOL0     C87974   2.174   4.303   7.188  0.0940 -0.0870 -0.0176
  667MOL0     C87975   2.320   4.279   7.189  0.2181 -0.7011 -0.0714
  667MOL0     C87976   2.436   4.247   7.183 -0.1534 -0.3114 -0.6276
  667MOL0     C87977   1.666   4.200   7.372 -0.2332 -0.0898 -0.0409
  667MOL0     C87978   1.542   4.136   7.392  0.3970  0.1435  0.3320
  667MOL0     H87979   1.228   3.845   7.582  1.7298 -2.4280 -3.1220
  667MOL0     H87980   0.965   3.736   7.591  1.2162 -2.5266 -2.2711
  667MOL0     H87981   0.645   3.933   7.398  1.5162  0.1975  0.4788
  667MOL0     H87982   0.669   3.887   7.569  1.4503  2.4972 -0.8193
  667MOL0     H87983   0.535   3.700   7.372  0.9909 -0.2095 -0.2351
  667MOL0     H87984   0.458   3.820   7.481  0.5545  1.2062 -2.1657
  667MOL0     H87985   0.525   3.694   7.672 -2.1062 -0.8938  0.3085
  667MOL0     H87986   0.642   3.605   7.576  0.7403  0.4077  0.7852
  667MOL0     H87987   0.434   3.536   7.420  0.7509 -1.8918 -0.4888
  667MOL0     H87988   0.465   3.453   7.571  3.0394  0.0720 -0.9760
  667MOL0     H87989   0.229   3.517   7.517  1.6578 -1.8452  0.0778
  667MOL0     H87990   0.293   3.677   7.579  1.1246  0.0249  0.5080
  667MOL0     H87991   0.347   3.560   7.796  1.8621 -1.2266 -1.0826
  667MOL0     H87992   0.287   3.409   7.731  3.2166 -0.0634 -1.8753
  667MOL0     H87993   0.097   3.649   7.769  0.4875 -1.0906 -0.6197
  667MOL0     H87994   0.060   3.487   7.721 -0.8081  1.6376 -1.8385
  667MOL0     H87995   0.221   3.526   7.986  0.5407  0.7315 -0.1474
  667MOL0     H87996   0.101   3.399   7.924 -0.0213  0.0414 -3.4530
  667MOL0     H87997  -0.186   3.526   7.917 -1.1277 -0.6578 -0.1934
  667MOL0     H87998  -0.335   3.704   7.918  0.0575  1.5702 -2.2156
  667MOL0     H87999  -0.273   3.864   7.968  0.3706 -0.1450  0.5666
  667MOL0     H88000  -0.303   3.791   8.214 -0.0332  2.5970 -1.7510
  667MOL0     H88001  -0.374   3.642   8.152 -1.0889 -0.7331 -0.5597
  667MOL0     H88002  -0.529   3.829   8.247 -1.1294  0.1767 -0.2560
  667MOL0     H88003  -0.498   3.915   8.094 -0.6195 -0.1588 -0.0160
  667MOL0     H88004  -0.700   3.732   8.130  1.2673 -0.2708  1.3388
  667MOL0     H88005  -0.581   3.630   8.056 -0.6981  0.1279  1.1736
  667MOL0     H88006  -0.831   3.593   8.002  0.5606 -1.5921 -1.8680
  667MOL0     H88007  -1.034   3.566   7.870 -2.1255  1.1336 -1.5351
  667MOL0     H88008  -1.439   3.758   7.830 -2.3269  1.0740 -0.3356
  667MOL0     H88009  -1.662   3.738   7.698 -1.1553 -0.0776 -1.0104
  667MOL0     H88010  -1.665   3.497   7.322 -0.7430 -0.4939  0.6517
  667MOL0     H88011  -1.673   3.667   7.321 -0.0414 -0.3782 -0.2393
  667MOL0     H88012  -1.892   3.685   7.381  1.6263 -0.1294 -0.0441
  667MOL0     H88013  -1.915   3.506   7.366 -0.2403 -0.4091 -2.3242
  667MOL0     H88014  -1.865   3.500   7.145 -1.1252 -1.1418  2.2995
  667MOL0     H88015  -1.814   3.668   7.140 -0.8717  2.4288  2.2391
  667MOL0     H88016  -2.087   3.577   7.217  0.2218 -0.4058  0.7115
  667MOL0     H88017  -2.039   3.753   7.235  0.6005  1.8125 -1.8147
  667MOL0     H88018  -2.077   3.599   6.974 -1.1408 -1.3183 -0.0985
  667MOL0     H88019  -2.011   3.765   6.984 -2.2480  1.1652 -1.5294
  667MOL0     H88020  -2.203   3.862   7.075 -1.1082  1.3164 -2.3833
  667MOL0     H88021  -2.277   3.706   7.123 -0.4206 -2.7022 -1.2553
  667MOL0     H88022  -2.272   3.871   6.878 -0.0868  1.2370  1.4380
  667MOL0     H88023  -2.234   3.709   6.839 -1.3785 -1.3044  0.5676
  667MOL0     H88024  -2.483   3.647   6.965 -2.8996  1.3440  1.6135
  667MOL0     H88025  -2.484   3.737   6.808 -1.7189  1.1645  0.5954
  667MOL0     H88026  -1.491   3.464   7.421  0.4114  0.2092 -0.2128
  667MOL0     H88027  -1.269   3.497   7.535 -0.1045 -0.2194 -0.7499
  667MOL0     H88028  -0.926   3.899   7.617  0.7497  0.3388 -0.0774
  667MOL0     H88029  -0.724   3.928   7.750  1.4252 -1.5385 -1.7948
  667MOL0     H88030   0.853   4.001   7.288 -2.0823  0.4191  2.2553
  667MOL0     H88031   1.072   4.073   7.256 -2.2824 -0.4600 -0.5870
  667MOL0     H88032   1.356   4.394   7.512  2.1122  2.7546  0.9868
  667MOL0     H88033   1.586   4.500   7.495  2.9300  0.4340 -2.5274
  667MOL0     H88034   1.867   4.299   7.242 -1.2092  0.0636  0.7718
  667MOL0     H88035   1.949   4.281   7.400  1.3325 -1.5367 -0.7230
  667MOL0     H88036   1.977   4.507   7.195 -1.1092 -0.6959  0.0685
  667MOL0     H88037   1.991   4.539   7.359  1.3717  0.5100 -1.2408
  667MOL0     H88038   2.182   4.373   7.385  0.9312 -0.2107 -0.1164
  667MOL0     H88039   2.221   4.494   7.262 -0.4044 -0.5231 -1.1911
  667MOL0     H88040   2.127   4.211   7.225 -1.6644  0.1522 -1.5338
  667MOL0     H88041   2.142   4.323   7.085  2.7579 -0.7312 -1.0231
  667MOL0     H88042   2.538   4.215   7.177 -1.0581 -3.5993 -0.3185
  667MOL0     H88043   1.744   4.145   7.320  0.7370  1.0967  0.1111
  667MOL0     H88044   1.531   4.033   7.361 -0.8812 -0.5018  2.6998
  668MOL0     O88045   2.612   2.331   5.515 -0.3267  0.0582 -0.3505
  668MOL0     C88046   2.563   2.370   5.408 -0.0890  0.5975 -0.1448
  668MOL0     O88047   2.431   2.404   5.384  0.6248  0.8166 -0.4304
  668MOL0     C88048   2.343   2.401   5.497  0.1694  0.8393  0.1144
  668MOL0     C88049   2.288   2.276   5.526 -0.5527  0.5930  0.0269
  668MOL0     C88050   2.199   2.257   5.629  0.0156 -0.3074 -0.7510
  668MOL0     C88051   2.159   2.364   5.707  0.1750  0.2019  0.4736
  668MOL0     O88052   2.067   2.321   5.794  0.5819  0.7817  0.0636
  668MOL0     C88053   2.008   2.407   5.896 -0.2403 -0.3971 -0.3137
  668MOL0     C88054   1.892   2.322   5.962 -0.2326 -0.9198 -1.1090
  668MOL0     C88055   1.829   2.399   6.085  0.6764 -0.4932  0.3283
  668MOL0     C88056   1.706   2.328   6.127  0.0501  0.1254  0.9196
  668MOL0     C88057   1.661   2.375   6.262  0.5849 -0.8545  0.7728
  668MOL0     C88058   1.515   2.328   6.280 -0.0200 -0.2285  0.1278
  668MOL0     C88059   1.473   2.341   6.426 -0.0407  0.3047  0.1347
  668MOL0     C88060   1.346   2.256   6.459  0.5696 -0.3804 -0.3007
  668MOL0     N88061   1.290   2.295   6.589  0.6233 -0.5186  0.4152
  668MOL0     C88062   1.354   2.310   6.711  0.0154 -0.1698 -0.2425
  668MOL0     C88063   1.260   2.357   6.791  0.1418 -0.2452 -0.0836
  668MOL0     C88064   1.298   2.383   6.931 -0.8847 -0.5963 -0.4000
  668MOL0     C88065   1.172   2.397   7.017  0.6732  0.1354 -0.5209
  668MOL0     C88066   1.210   2.475   7.143  0.0614 -0.3002  0.3064
  668MOL0     C88067   1.081   2.516   7.206 -0.5769 -0.1750 -0.0101
  668MOL0     O88068   1.002   2.407   7.240 -0.1976 -0.4979  0.4653
  668MOL0     C88069   0.873   2.431   7.264  0.7430 -0.9169  0.2115
  668MOL0     C88070   0.810   2.317   7.272 -0.4994 -0.0365  0.2955
  668MOL0     C88071   0.672   2.321   7.297  0.3821  0.3181 -0.0078
  668MOL0     C88072   0.610   2.443   7.334 -0.5741 -0.3400 -0.1382
  668MOL0     C88073   0.465   2.439   7.362 -1.0285  0.4069  0.1242
  668MOL0     O88074   0.386   2.546   7.343  0.2141 -0.1857  0.5748
  668MOL0     C88075   0.258   2.560   7.380 -0.1405 -0.2622 -0.1288
  668MOL0     C88076   0.183   2.483   7.462 -0.0912  0.2569 -0.8503
  668MOL0     C88077   0.045   2.526   7.482 -0.9184  1.5117  0.1195
  668MOL0     C88078  -0.010   2.641   7.432 -0.3464 -0.7674 -0.2936
  668MOL0     O88079  -0.137   2.688   7.451 -0.3671 -0.2961 -0.2718
  668MOL0     C88080  -0.197   2.667   7.580  0.4650 -0.3706 -0.4572
  668MOL0     C88081  -0.334   2.725   7.584 -0.0993 -0.2976  0.9199
  668MOL0     C88082  -0.383   2.759   7.726 -0.1122 -0.3491  0.4180
  668MOL0     C88083  -0.533   2.780   7.707 -0.1458  0.2822 -0.5100
  668MOL0     C88084  -0.602   2.814   7.842  0.4045  0.6890 -0.0300
  668MOL0     C88085  -0.734   2.883   7.841 -0.1064 -1.6754 -0.1091
  668MOL0     C88086  -0.848   2.800   7.781  0.3008  0.4384  0.6642
  668MOL0     C88087  -0.985   2.861   7.775 -0.1025 -0.2329  0.1774
  668MOL0    Cl88088  -1.105   2.752   7.695  0.0319 -0.2210  0.0676
  668MOL0     C88089   0.068   2.713   7.348 -0.0190 -0.2768 -0.4997
  668MOL0     C88090   0.196   2.670   7.326  0.2611  0.0698 -0.6018
  668MOL0     O88091   0.423   2.334   7.398  0.0686  0.8154  0.3032
  668MOL0     C88092   0.687   2.562   7.327  0.7029 -0.0533 -0.1245
  668MOL0     C88093   0.821   2.551   7.305 -0.3941 -0.2294  0.4197
  668MOL0     N88094   1.147   2.387   6.718  0.1063 -0.4323  0.6629
  668MOL0     N88095   1.160   2.339   6.593 -0.4236 -0.2701  0.4548
  668MOL0     C88096   2.200   2.490   5.674  0.4412  0.2110  0.2301
  668MOL0     C88097   2.292   2.506   5.571  0.0237  0.7300  1.6142
  668MOL0     C88098   2.662   2.392   5.296 -0.6400 -0.2192 -0.3640
  668MOL0     C88099   2.624   2.449   5.174  0.5387 -0.0978 -0.5754
  668MOL0     C88100   2.706   2.467   5.073 -0.3894 -0.7057 -0.0476
  668MOL0     C88101   2.848   2.440   5.083  0.3188  0.9426  0.1825
  668MOL0     O88102   2.922   2.444   4.964 -0.0134 -0.3508  0.1694
  668MOL0     C88103   3.022   2.341   4.955  0.5366 -0.1391  0.7072
  668MOL0     C88104   3.095   2.360   4.821  0.2425 -0.2056 -0.7733
  668MOL0     C88105   3.172   2.240   4.778 -0.2825 -0.0593 -0.8166
  668MOL0     C88106   3.280   2.264   4.675 -0.0135 -1.0625 -0.2975
  668MOL0     C88107   3.409   2.210   4.720 -0.4261  0.9279 -0.2654
  668MOL0     C88108   3.507   2.161   4.766 -0.6483  0.7826  0.3372
  668MOL0     C88109   2.891   2.388   5.207 -0.3254 -0.7078 -0.3639
  668MOL0     C88110   2.797   2.361   5.308 -0.1771 -0.2166  0.3547
  668MOL0     H88111   2.319   2.189   5.469 -3.5587 -1.6601  1.5984
  668MOL0     H88112   2.147   2.163   5.648 -4.1561  1.5411 -1.7710
  668MOL0     H88113   1.964   2.498   5.853  0.7265 -0.2486 -1.0295
  668MOL0     H88114   2.085   2.429   5.971 -0.3303 -1.0985 -0.0080
  668MOL0     H88115   1.924   2.226   6.003 -1.6442 -1.2124 -0.6389
  668MOL0     H88116   1.815   2.302   5.887 -0.0075 -2.7643 -0.8830
  668MOL0     H88117   1.806   2.500   6.050  0.9854 -0.9232 -1.2098
  668MOL0     H88118   1.899   2.405   6.169  0.3181 -2.2666  0.8056
  668MOL0     H88119   1.627   2.335   6.052  1.5364 -0.5152 -0.7985
  668MOL0     H88120   1.727   2.222   6.143  1.6840  0.8180  4.0763
  668MOL0     H88121   1.666   2.483   6.281 -1.2739 -1.0863  3.0613
  668MOL0     H88122   1.724   2.333   6.340  1.4860  0.9471  1.0724
  668MOL0     H88123   1.502   2.227   6.239  0.0754  0.4604 -1.6944
  668MOL0     H88124   1.469   2.401   6.213  2.3530  0.2712 -1.0516
  668MOL0     H88125   1.554   2.307   6.491 -0.7756  0.8658  1.3764
  668MOL0     H88126   1.444   2.445   6.442 -3.5902 -0.1865 -2.0150
  668MOL0     H88127   1.370   2.149   6.461 -0.9727 -0.9990 -4.5934
  668MOL0     H88128   1.266   2.275   6.387  0.6767  0.4404 -0.2061
  668MOL0     H88129   1.453   2.281   6.744 -0.3878  0.0284  1.1824
  668MOL0     H88130   1.357   2.475   6.934  0.0896 -1.2237 -0.0598
  668MOL0     H88131   1.368   2.313   6.976 -0.1092 -1.0513 -2.2274
  668MOL0     H88132   1.140   2.294   7.036 -3.1384  1.2959  0.2480
  668MOL0     H88133   1.093   2.451   6.963  1.8589  2.6376  0.1144
  668MOL0     H88134   1.284   2.425   7.206  2.2363  1.5964 -0.6067
  668MOL0     H88135   1.268   2.566   7.123 -0.4183  0.2341  1.3053
  668MOL0     H88136   1.046   2.593   7.137  0.2702 -0.5377 -0.8872
  668MOL0     H88137   1.104   2.569   7.298  0.7041  1.9247 -1.4460
  668MOL0     H88138   0.866   2.227   7.247 -1.2918 -0.7489  0.9906
  668MOL0     H88139   0.627   2.222   7.291 -0.7067  0.8837 -3.0560
  668MOL0     H88140   0.214   2.389   7.507 -2.9923 -0.0086  0.8472
  668MOL0     H88141  -0.018   2.461   7.543  0.1974 -1.7553 -1.9658
  668MOL0     H88142  -0.131   2.718   7.651 -0.5986  2.0159 -1.0620
  668MOL0     H88143  -0.212   2.559   7.585 -3.4492 -0.0357 -1.3307
  668MOL0     H88144  -0.399   2.656   7.529  1.5558  0.8068 -2.7431
  668MOL0     H88145  -0.334   2.821   7.531  0.2821 -0.2015  1.0932
  668MOL0     H88146  -0.331   2.848   7.764  0.0608  1.6806 -3.9407
  668MOL0     H88147  -0.364   2.674   7.791 -2.5756  0.6686  2.6377
  668MOL0     H88148  -0.557   2.865   7.642 -5.9514 -0.5587  0.0685
  668MOL0     H88149  -0.583   2.690   7.672 -0.9216  0.4164  0.2168
  668MOL0     H88150  -0.528   2.875   7.894  0.6928  0.7624 -0.5266
  668MOL0     H88151  -0.628   2.719   7.889 -0.3270  0.6305 -0.5245
  668MOL0     H88152  -0.719   2.978   7.789  2.1521 -0.5047  2.4300
  668MOL0     H88153  -0.766   2.899   7.945 -1.6469 -2.4070 -0.4434
  668MOL0     H88154  -0.815   2.779   7.679  2.6093 -0.0288  1.4527
  668MOL0     H88155  -0.852   2.712   7.845  1.1632  1.4026  2.0848
  668MOL0     H88156  -0.982   2.948   7.709 -0.2738 -0.8141 -0.6115
  668MOL0     H88157  -1.023   2.884   7.875  1.7091  0.2199  0.7965
  668MOL0     H88158   0.031   2.802   7.297  0.6332 -0.4041 -1.2150
  668MOL0     H88159   0.254   2.729   7.256  0.3768 -0.7270 -1.1806
  668MOL0     H88160   0.648   2.660   7.352  1.8919  1.8475 -4.7056
  668MOL0     H88161   0.886   2.638   7.305  0.1234 -0.5880  2.2169
  668MOL0     H88162   2.173   2.573   5.737 -1.9545 -0.0949 -0.2703
  668MOL0     H88163   2.317   2.607   5.540 -6.0314  2.1181  0.0524
  668MOL0     H88164   2.517   2.465   5.163 -0.4703 -2.4775  3.7909
  668MOL0     H88165   2.668   2.501   4.977 -1.5389 -0.7712  0.3731
  668MOL0     H88166   2.978   2.241   4.963  0.5178 -0.4473 -2.3057
  668MOL0     H88167   3.095   2.339   5.037  0.4839 -0.8946  0.7375
  668MOL0     H88168   3.022   2.399   4.750  0.7734  3.3918  0.4651
  668MOL0     H88169   3.161   2.444   4.845 -0.0643  0.9945 -3.6827
  668MOL0     H88170   3.113   2.153   4.747  1.7297 -2.2829  1.1568
  668MOL0     H88171   3.225   2.211   4.869 -0.2793 -0.3411 -0.9055
  668MOL0     H88172   3.267   2.238   4.570 -1.0401  2.3324 -1.1300
  668MOL0     H88173   3.291   2.372   4.663 -1.4066 -0.6182  1.9225
  668MOL0     H88174   3.608   2.130   4.783 -0.8182  0.1187  0.1519
  668MOL0     H88175   2.992   2.368   5.239  0.2786  0.2307 -1.5604
  668MOL0     H88176   2.848   2.331   5.398  1.2497  1.4008  0.1231
  669MOL0     O88177   4.394   8.291   3.562  0.3939  0.0159  0.0407
  669MOL0     C88178   4.370   8.234   3.455 -0.5653  0.1588 -0.9957
  669MOL0     O88179   4.248   8.222   3.389  0.6348 -0.1011 -0.2277
  669MOL0     C88180   4.128   8.240   3.455 -0.6115 -0.2748  0.1355
  669MOL0     C88181   4.021   8.155   3.411 -0.7041  0.1371 -0.8209
  669MOL0     C88182   3.892   8.165   3.461 -0.1027  0.2400 -0.2352
  669MOL0     C88183   3.867   8.268   3.563 -0.4065 -0.3826  0.1151
  669MOL0     O88184   3.745   8.294   3.615  0.1443  0.1746  0.6384
  669MOL0     C88185   3.636   8.262   3.525 -0.4687 -0.2961 -0.7410
  669MOL0     C88186   3.512   8.342   3.541  1.1021 -0.1238 -0.0249
  669MOL0     C88187   3.537   8.494   3.542  0.2576 -0.4510  0.2905
  669MOL0     C88188   3.407   8.572   3.508  0.5215  0.9061 -0.8877
  669MOL0     C88189   3.289   8.559   3.602 -0.1480  0.0971  0.0447
  669MOL0     C88190   3.171   8.643   3.546  0.0287 -0.2174 -0.0345
  669MOL0     C88191   3.046   8.610   3.626  0.3700  0.0884 -0.1880
  669MOL0     C88192   2.987   8.472   3.604 -0.1744  0.4925 -0.4789
  669MOL0     N88193   2.864   8.458   3.686  0.3494 -0.5710 -0.1212
  669MOL0     C88194   2.867   8.435   3.824 -0.4062  0.3884  0.3095
  669MOL0     C88195   2.740   8.437   3.864 -0.1320  0.3595 -0.5144
  669MOL0     C88196   2.687   8.406   4.002  0.5955  0.1688 -0.2909
  669MOL0     C88197   2.626   8.266   4.016  0.1668 -0.0789 -0.7896
  669MOL0     C88198   2.504   8.238   3.925  0.7094  0.3096 -0.1834
  669MOL0     C88199   2.382   8.311   3.966 -0.3640 -0.0541  0.4592
  669MOL0     O88200   2.280   8.247   3.894  0.1698  0.5360  0.4457
  669MOL0     C88201   2.153   8.296   3.875  0.5298 -0.6554 -0.0904
  669MOL0     C88202   2.053   8.219   3.821 -0.0424 -0.3676  0.4365
  669MOL0     C88203   1.922   8.275   3.799 -0.1099  0.2838  0.5462
  669MOL0     C88204   1.886   8.406   3.840  0.8437  0.3841 -0.4533
  669MOL0     C88205   1.749   8.465   3.819 -0.8520  0.6215 -1.2150
  669MOL0     O88206   1.732   8.596   3.868  0.9858 -0.1943  0.3323
  669MOL0     C88207   1.601   8.638   3.864  0.5002 -0.8117 -0.0740
  669MOL0     C88208   1.548   8.726   3.769 -0.5249  0.0238  0.5013
  669MOL0     C88209   1.416   8.776   3.773 -0.3135 -0.0148 -0.1286
  669MOL0     C88210   1.334   8.731   3.878 -0.4145 -0.2088  0.4314
  669MOL0     O88211   1.204   8.773   3.893 -0.3498  0.0307  0.3957
  669MOL0     C88212   1.175   8.907   3.866  0.2421 -0.0155 -0.3542
  669MOL0     C88213   1.039   8.934   3.933 -0.3406  0.0548 -0.3973
  669MOL0     C88214   0.961   9.049   3.873  0.0767  0.6264 -0.2016
  669MOL0     C88215   0.889   9.151   3.971 -1.2646  1.4644 -0.2782
  669MOL0     C88216   0.748   9.188   3.929  0.1416 -0.3436  0.4390
  669MOL0     C88217   0.636   9.089   3.950  0.4130 -0.0319  0.5431
  669MOL0     C88218   0.497   9.154   3.934  0.1398  0.1527  0.1283
  669MOL0     C88219   0.381   9.067   3.975  0.2600 -0.2580 -0.0935
  669MOL0    Cl88220   0.360   8.905   3.893  0.2997 -0.1453  0.0465
  669MOL0     C88221   1.376   8.629   3.961 -0.6757  0.4137  0.0224
  669MOL0     C88222   1.510   8.586   3.951 -0.1722 -0.0745  0.1935
  669MOL0     O88223   1.672   8.401   3.753 -0.0159  0.2448 -0.1680
  669MOL0     C88224   1.986   8.477   3.908 -0.1504  0.4620 -0.6119
  669MOL0     C88225   2.115   8.425   3.921  0.0309 -0.6530 -0.5345
  669MOL0     N88226   2.659   8.464   3.758  0.3129  0.0122 -1.0745
  669MOL0     N88227   2.732   8.460   3.649 -0.2048 -0.0343 -0.8159
  669MOL0     C88228   3.971   8.352   3.604 -0.4813 -0.0133 -0.3091
  669MOL0     C88229   4.102   8.336   3.554 -0.2302 -0.7037  0.0993
  669MOL0     C88230   4.486   8.167   3.394  0.2882 -0.3326  1.2068
  669MOL0     C88231   4.623   8.207   3.421  0.6165  0.1070 -0.0273
  669MOL0     C88232   4.726   8.130   3.374 -0.2585  0.4100 -0.3677
  669MOL0     C88233   4.705   8.020   3.301  0.3085 -0.0824 -0.5439
  669MOL0     O88234   4.813   7.960   3.236  0.1702 -0.5626  0.7819
  669MOL0     C88235   4.952   7.977   3.288 -0.7478 -0.0894  0.0638
  669MOL0     C88236   5.051   7.887   3.215  0.1891 -0.0432 -0.3104
  669MOL0     C88237   5.002   7.744   3.197  0.1723  0.7325 -0.0688
  669MOL0     C88238   5.077   7.668   3.091  0.9634 -0.2904  0.2120
  669MOL0     C88239   5.222   7.659   3.120 -0.2470  0.6847 -0.1868
  669MOL0     C88240   5.341   7.649   3.137 -0.2794 -0.1978  0.6821
  669MOL0     C88241   4.577   7.981   3.264 -0.1989 -0.2381  0.0071
  669MOL0     C88242   4.467   8.052   3.310  0.7589 -0.4051  0.0156
  669MOL0     H88243   4.047   8.092   3.327  1.0079  1.1964 -1.1441
  669MOL0     H88244   3.810   8.100   3.433 -0.9761  1.9278 -1.8039
  669MOL0     H88245   3.603   8.161   3.547 -1.0539 -0.3462 -1.7828
  669MOL0     H88246   3.662   8.258   3.419  0.0921 -1.8087 -0.5766
  669MOL0     H88247   3.466   8.316   3.637  0.8499  4.8311  1.4837
  669MOL0     H88248   3.431   8.312   3.474  0.0572 -1.7329  1.8490
  669MOL0     H88249   3.610   8.514   3.463  0.1349  1.8788  0.7061
  669MOL0     H88250   3.578   8.525   3.638 -1.2782 -0.6058  1.0400
  669MOL0     H88251   3.427   8.679   3.501  2.3723  0.5791 -1.1594
  669MOL0     H88252   3.375   8.532   3.411 -0.0840  0.4174 -0.4901
  669MOL0     H88253   3.312   8.581   3.707 -1.4262 -1.2155  0.6368
  669MOL0     H88254   3.258   8.455   3.598 -1.3777  0.4893 -2.6703
  669MOL0     H88255   3.140   8.619   3.443 -2.6045  0.4156  0.5301
  669MOL0     H88256   3.193   8.749   3.533  2.2291 -0.7668 -1.4966
  669MOL0     H88257   3.056   8.631   3.733  3.7975 -1.4210 -0.0885
  669MOL0     H88258   2.972   8.684   3.594  0.3956 -0.0622 -0.5973
  669MOL0     H88259   3.057   8.398   3.644 -4.4121 -3.5588  0.2655
  669MOL0     H88260   2.967   8.447   3.500  2.0424  0.0449 -0.8622
  669MOL0     H88261   2.956   8.408   3.881 -1.0627  1.1271  1.7200
  669MOL0     H88262   2.611   8.481   4.028 -0.8005 -1.0542 -0.7340
  669MOL0     H88263   2.773   8.399   4.069  0.2951  0.3584  0.1188
  669MOL0     H88264   2.595   8.265   4.121  0.2501 -2.5188 -0.7445
  669MOL0     H88265   2.704   8.191   4.003  0.7231 -0.0877  1.9762
  669MOL0     H88266   2.529   8.255   3.820  3.2090 -0.9044  0.1284
  669MOL0     H88267   2.478   8.132   3.932 -0.5582  0.5717 -0.6656
  669MOL0     H88268   2.383   8.419   3.947  0.5777  0.0564  1.0599
  669MOL0     H88269   2.366   8.299   4.074 -1.2281 -3.7125  0.0384
  669MOL0     H88270   2.084   8.124   3.778  0.6282 -1.0748  2.3795
  669MOL0     H88271   1.850   8.210   3.749 -0.1633  2.5654 -2.6960
  669MOL0     H88272   1.616   8.756   3.689 -0.3003  1.2391  1.1350
  669MOL0     H88273   1.390   8.867   3.720  0.2509 -0.0027 -0.3908
  669MOL0     H88274   1.161   8.917   3.757  0.3139  0.2885 -0.3358
  669MOL0     H88275   1.250   8.976   3.905  1.9776 -2.0139  0.0601
  669MOL0     H88276   1.069   8.962   4.035 -1.3691 -0.5412  0.0834
  669MOL0     H88277   0.993   8.836   3.946  1.1315 -0.4752  1.1045
  669MOL0     H88278   0.889   8.996   3.811 -0.2952  0.4259  0.3962
  669MOL0     H88279   1.029   9.100   3.804  1.2833 -1.7367 -0.8492
  669MOL0     H88280   0.889   9.106   4.071 -0.0147  2.3506  0.1448
  669MOL0     H88281   0.944   9.244   3.985 -2.8445  2.5108 -0.7084
  669MOL0     H88282   0.765   9.217   3.825  0.2473  2.5225  1.1763
  669MOL0     H88283   0.727   9.277   3.989 -2.3494  0.6796 -1.7733
  669MOL0     H88284   0.630   9.060   4.055 -2.9949 -0.7261  0.2849
  669MOL0     H88285   0.654   9.007   3.880  2.0621  1.4784 -0.9077
  669MOL0     H88286   0.503   9.242   3.999  2.3243  0.4848 -0.4305
  669MOL0     H88287   0.484   9.190   3.832 -2.6917  3.7068  1.5400
  669MOL0     H88288   0.288   9.124   3.964 -0.5360 -0.0655  4.9507
  669MOL0     H88289   0.384   9.056   4.084 -0.3916 -0.0893 -0.0545
  669MOL0     H88290   1.325   8.592   4.049  1.4989 -0.4658  0.9980
  669MOL0     H88291   1.554   8.517   4.022  0.1492  0.5673  0.6259
  669MOL0     H88292   1.964   8.573   3.954  0.9764 -0.1977  1.4336
  669MOL0     H88293   2.184   8.492   3.971 -0.4806  0.3742 -1.1640
  669MOL0     H88294   3.953   8.427   3.681 -1.9217  1.6022 -2.1174
  669MOL0     H88295   4.180   8.406   3.582 -2.7877  3.2177 -1.7703
  669MOL0     H88296   4.643   8.301   3.470 -0.5842  1.3018 -1.7140
  669MOL0     H88297   4.825   8.165   3.400  0.1343  0.4018 -1.7973
  669MOL0     H88298   4.957   7.946   3.393 -2.1109  0.8854  0.4413
  669MOL0     H88299   4.986   8.080   3.278 -1.7653  0.0863 -2.1004
  669MOL0     H88300   5.073   7.921   3.113  0.4400 -3.0110 -1.3343
  669MOL0     H88301   5.147   7.890   3.266  1.5942  1.1845 -2.8515
  669MOL0     H88302   4.896   7.741   3.170 -0.7603  0.4770  3.2399
  669MOL0     H88303   5.001   7.695   3.295 -0.3917 -0.0337 -0.4516
  669MOL0     H88304   5.036   7.569   3.070  2.5950 -0.9722  0.1165
  669MOL0     H88305   5.072   7.713   2.991  1.4236 -2.6430 -0.9237
  669MOL0     H88306   5.447   7.640   3.144  0.2992  3.1805 -1.6997
  669MOL0     H88307   4.572   7.888   3.207 -0.1082 -0.8203  0.9249
  669MOL0     H88308   4.367   8.015   3.288  0.7459  0.6559 -1.9610
  670MOL0     O88309   4.379   7.839   6.013 -0.3730  0.2832  0.0040
  670MOL0     C88310   4.391   7.737   5.944 -0.4470 -0.1324 -0.3027
  670MOL0     O88311   4.289   7.661   5.899 -0.0372  0.3842  0.4153
  670MOL0     C88312   4.159   7.715   5.891  0.2548 -0.4838  0.1556
  670MOL0     C88313   4.081   7.742   6.009 -0.1876 -0.7389  0.0509
  670MOL0     C88314   3.947   7.799   5.996  0.1091 -0.5941  0.6492
  670MOL0     C88315   3.899   7.845   5.865  0.1318 -0.5083 -0.3303
  670MOL0     O88316   3.772   7.913   5.857 -0.0883  0.3144 -0.4001
  670MOL0     C88317   3.716   7.943   5.733 -0.3400  0.4031 -0.1185
  670MOL0     C88318   3.581   8.022   5.752 -0.6976 -0.2139 -0.1374
  670MOL0     C88319   3.457   7.942   5.799  0.4770 -0.4898  0.4526
  670MOL0     C88320   3.329   8.021   5.768  0.9432  0.2591  0.5695
  670MOL0     C88321   3.207   7.941   5.806 -0.1069 -0.2991  0.4111
  670MOL0     C88322   3.071   8.008   5.764 -0.1645  0.2225  0.3085
  670MOL0     C88323   3.069   8.051   5.621 -0.3153 -0.7005  0.3101
  670MOL0     C88324   2.938   8.090   5.562  0.2335  0.4611 -0.0322
  670MOL0     N88325   2.838   7.980   5.546 -0.0173  0.3886 -0.0725
  670MOL0     C88326   2.722   7.958   5.621 -1.0675 -0.0588 -1.1408
  670MOL0     C88327   2.665   7.854   5.558  0.2801  0.4405  0.0417
  670MOL0     C88328   2.538   7.794   5.599  0.4574  0.6017  0.2180
  670MOL0     C88329   2.422   7.889   5.587 -0.0898 -0.2121  0.9270
  670MOL0     C88330   2.291   7.810   5.581  0.4703  0.2218 -0.4537
  670MOL0     C88331   2.230   7.767   5.724 -0.1056  0.3326 -0.1886
  670MOL0     O88332   2.104   7.711   5.703  0.0165 -0.1282 -0.0985
  670MOL0     C88333   2.020   7.686   5.818 -0.6464 -0.4508 -0.1968
  670MOL0     C88334   1.903   7.616   5.792  0.7324 -0.5794  1.0405
  670MOL0     C88335   1.809   7.601   5.894 -0.3463  0.3036 -0.0412
  670MOL0     C88336   1.835   7.635   6.026 -0.8684  0.9378 -0.1288
  670MOL0     C88337   1.734   7.595   6.133  0.4273  0.1800  0.5578
  670MOL0     O88338   1.760   7.657   6.252  0.6455  0.1267 -0.4465
  670MOL0     C88339   1.661   7.633   6.352 -0.3827 -0.5045  0.0160
  670MOL0     C88340   1.709   7.618   6.482 -0.2523 -0.2197 -0.3747
  670MOL0     C88341   1.624   7.612   6.592  0.4225 -0.2916 -0.1160
  670MOL0     C88342   1.487   7.611   6.570  0.0601  0.1641 -0.8382
  670MOL0     O88343   1.403   7.576   6.670 -0.3617  0.4031 -0.3058
  670MOL0     C88344   1.323   7.453   6.643 -0.5744 -0.8911 -0.2135
  670MOL0     C88345   1.238   7.454   6.766  0.5145  0.5466  0.3728
  670MOL0     C88346   1.122   7.350   6.765  0.7154 -0.6495  0.0384
  670MOL0     C88347   1.009   7.370   6.655  0.3707  0.3358  1.0450
  670MOL0     C88348   0.946   7.236   6.611  0.7616  0.8367 -1.1785
  670MOL0     C88349   0.874   7.168   6.742  0.2743 -0.1615 -0.3354
  670MOL0     C88350   0.839   7.022   6.701 -0.1397 -0.3865  0.2741
  670MOL0     C88351   0.765   6.945   6.809 -0.6789 -0.3021 -0.0204
  670MOL0    Cl88352   0.593   6.986   6.806 -0.0797 -0.2874  0.1908
  670MOL0     C88353   1.433   7.642   6.447 -1.2337  0.4450  0.0870
  670MOL0     C88354   1.524   7.655   6.340  0.3769  0.1019 -0.6263
  670MOL0     O88355   1.640   7.520   6.115  0.3139  0.2356  1.1914
  670MOL0     C88356   1.960   7.691   6.055  0.5629 -0.1464  1.0284
  670MOL0     C88357   2.052   7.719   5.953  1.0884 -0.3961  0.4297
  670MOL0     N88358   2.747   7.815   5.453 -0.5335  1.2412 -0.3216
  670MOL0     N88359   2.852   7.890   5.448 -0.9017  0.4839  0.5314
  670MOL0     C88360   3.980   7.819   5.756 -0.6307 -0.1331 -0.1204
  670MOL0     C88361   4.109   7.751   5.766  0.4644 -0.1630 -0.7520
  670MOL0     C88362   4.536   7.687   5.937  0.1955 -0.7188  0.2149
  670MOL0     C88363   4.560   7.566   5.869 -0.2746  0.3710  0.6267
  670MOL0     C88364   4.693   7.519   5.840  0.3830 -0.9092 -0.0981
  670MOL0     C88365   4.799   7.589   5.906 -0.3854 -0.0020 -0.1169
  670MOL0     O88366   4.923   7.530   5.886  0.1731  0.1757 -0.6712
  670MOL0     C88367   5.037   7.592   5.943 -0.4997  0.4651 -0.2315
  670MOL0     C88368   5.167   7.513   5.914  1.0219  0.0646  0.4308
  670MOL0     C88369   5.287   7.601   5.959  0.0695  0.2016  0.2009
  670MOL0     C88370   5.419   7.519   5.954 -0.4586 -0.3720 -0.0773
  670MOL0     C88371   5.531   7.592   6.018  0.2107 -0.1325 -0.6712
  670MOL0     C88372   5.615   7.646   6.089  0.2892  0.4859  0.1639
  670MOL0     C88373   4.782   7.711   5.975  0.3929 -0.4517 -0.4787
  670MOL0     C88374   4.653   7.761   5.986  0.6510 -1.1124  0.0354
  670MOL0     H88375   4.110   7.717   6.110 -0.3498 -0.0627  0.2648
  670MOL0     H88376   3.890   7.813   6.087  0.6049 -1.7228  1.1542
  670MOL0     H88377   3.703   7.864   5.658 -0.6786  0.5625 -0.2313
  670MOL0     H88378   3.787   8.015   5.692  1.1074  0.7847  2.8118
  670MOL0     H88379   3.570   8.076   5.657  4.5137 -1.9805 -2.1197
  670MOL0     H88380   3.603   8.109   5.816 -3.3882 -0.9966  2.0404
  670MOL0     H88381   3.468   7.924   5.906  1.9118  1.0162  0.6089
  670MOL0     H88382   3.452   7.845   5.748 -1.6158 -0.7725  1.1409
  670MOL0     H88383   3.335   8.115   5.823  2.6306  0.7690 -0.4223
  670MOL0     H88384   3.330   8.050   5.663  2.0280  1.9079  0.9983
  670MOL0     H88385   3.196   7.943   5.915 -1.4178 -2.8404  0.3790
  670MOL0     H88386   3.205   7.841   5.764 -1.3116 -0.5362  0.9897
  670MOL0     H88387   3.044   8.101   5.814  2.0862 -0.0763  2.2763
  670MOL0     H88388   2.994   7.934   5.788  0.2874 -0.6992 -0.9411
  670MOL0     H88389   3.137   8.135   5.608  1.3851 -2.1842 -0.8459
  670MOL0     H88390   3.117   7.969   5.568  2.6086  0.0950  1.5379
  670MOL0     H88391   2.955   8.135   5.463 -3.2486  0.2865 -0.8648
  670MOL0     H88392   2.889   8.176   5.607 -0.3647  0.6191 -0.9472
  670MOL0     H88393   2.686   8.021   5.702 -0.7497 -2.1274  0.7141
  670MOL0     H88394   2.547   7.760   5.702  0.2138 -1.6614 -0.4490
  670MOL0     H88395   2.521   7.705   5.536  1.5071  1.0802 -0.7646
  670MOL0     H88396   2.442   7.953   5.501  0.9969 -1.6480  0.0517
  670MOL0     H88397   2.426   7.957   5.673 -2.9201  0.8514  0.3166
  670MOL0     H88398   2.221   7.887   5.547 -1.8506 -1.0162  1.1687
  670MOL0     H88399   2.301   7.725   5.513  0.7867 -1.0873  1.1431
  670MOL0     H88400   2.236   7.844   5.801 -0.7182  0.7781 -0.5740
  670MOL0     H88401   2.282   7.679   5.764 -1.5201 -1.4404 -1.9911
  670MOL0     H88402   1.874   7.577   5.695 -1.6864 -2.5214  2.4225
  670MOL0     H88403   1.711   7.562   5.866  0.5205 -1.2383 -1.0928
  670MOL0     H88404   1.814   7.608   6.510 -0.1739 -0.5303 -0.7749
  670MOL0     H88405   1.674   7.600   6.688 -1.9804  1.4630  1.4729
  670MOL0     H88406   1.391   7.368   6.649 -0.3663 -0.6385  2.8358
  670MOL0     H88407   1.257   7.459   6.556 -1.1500  0.0795  0.2687
  670MOL0     H88408   1.188   7.550   6.775 -1.2727 -0.5538  3.9944
  670MOL0     H88409   1.295   7.428   6.856 -0.4698  3.2590  1.8781
  670MOL0     H88410   1.056   7.364   6.851 -0.8378 -0.6193 -1.1191
  670MOL0     H88411   1.153   7.246   6.764  1.7916 -0.3918 -3.1890
  670MOL0     H88412   0.932   7.442   6.683  1.6501  1.4121  1.9163
  670MOL0     H88413   1.059   7.411   6.567 -2.4524  2.4527  0.3065
  670MOL0     H88414   1.021   7.169   6.569 -1.3330 -0.7313 -2.6227
  670MOL0     H88415   0.866   7.247   6.537  0.1826 -1.4217 -0.9559
  670MOL0     H88416   0.780   7.219   6.765  0.5476 -0.1910  0.8896
  670MOL0     H88417   0.937   7.168   6.832 -0.8280 -1.6609  0.4840
  670MOL0     H88418   0.770   7.024   6.615 -0.9623 -2.0491  0.8497
  670MOL0     H88419   0.928   6.963   6.679 -1.3986 -2.2916  0.0068
  670MOL0     H88420   0.811   6.959   6.907  2.5056 -0.5982 -1.3302
  670MOL0     H88421   0.765   6.837   6.791  0.9121 -0.0350 -2.0392
  670MOL0     H88422   1.329   7.635   6.416 -0.8619 -1.0696 -0.9698
  670MOL0     H88423   1.471   7.678   6.248 -0.9870 -1.2153 -0.2049
  670MOL0     H88424   1.978   7.717   6.159  1.3409  2.5123  0.2974
  670MOL0     H88425   2.145   7.768   5.981 -0.0639 -0.1372  4.4729
  670MOL0     H88426   3.948   7.847   5.656 -2.3889 -0.4350  0.3345
  670MOL0     H88427   4.166   7.740   5.674  1.9270  0.8195 -0.0044
  670MOL0     H88428   4.475   7.527   5.813 -1.8485  3.1800  0.8542
  670MOL0     H88429   4.708   7.437   5.770 -1.7074 -1.0252 -0.4824
  670MOL0     H88430   5.014   7.602   6.049 -3.4842  3.5122 -0.9697
  670MOL0     H88431   5.054   7.690   5.897 -2.0406  0.4189 -0.9639
  670MOL0     H88432   5.165   7.428   5.983 -2.5935  0.3457  0.8699
  670MOL0     H88433   5.175   7.490   5.808  1.4595  1.6514  0.0881
  670MOL0     H88434   5.263   7.629   6.062 -0.9838 -1.3836  0.4130
  670MOL0     H88435   5.288   7.684   5.887 -2.0893 -0.2247 -0.4040
  670MOL0     H88436   5.408   7.420   5.997 -0.7835  1.0641  3.4594
  670MOL0     H88437   5.453   7.513   5.850 -0.8849  1.6187 -0.3793
  670MOL0     H88438   5.685   7.702   6.148 -1.4089  0.2787  2.5038
  670MOL0     H88439   4.857   7.767   6.029 -1.2098  0.0673  1.3271
  670MOL0     H88440   4.640   7.855   6.039 -1.3593 -1.1331 -0.3411
  671MOL0     O88441   6.305  10.862   8.332  0.8518 -0.0311 -0.4651
  671MOL0     C88442   6.326  10.826   8.221  0.3522  0.6319  0.0241
  671MOL0     O88443   6.232  10.823   8.120 -1.1085  0.3238 -0.0286
  671MOL0     C88444   6.101  10.853   8.135  0.4562 -0.3623  0.5074
  671MOL0     C88445   6.004  10.787   8.055 -0.8907  0.2992  0.5529
  671MOL0     C88446   5.870  10.812   8.062  0.2787  0.0414  0.0914
  671MOL0     C88447   5.825  10.917   8.152  0.2729  0.0462  0.1151
  671MOL0     O88448   5.697  10.954   8.141 -0.3844  0.5775 -0.1113
  671MOL0     C88449   5.639  11.026   8.257 -0.8637  0.2875  0.3885
  671MOL0     C88450   5.486  11.027   8.250  0.1824 -0.3266  0.2411
  671MOL0     C88451   5.436  11.129   8.139  0.9707  0.4106 -0.1103
  671MOL0     C88452   5.300  11.100   8.075 -0.2160 -1.0062  0.1165
  671MOL0     C88453   5.178  11.125   8.162 -0.1871  0.1224 -0.3942
  671MOL0     C88454   5.150  11.275   8.178  0.6362  0.6513 -0.0879
  671MOL0     C88455   5.001  11.312   8.206 -0.4576 -0.0178  0.8275
  671MOL0     C88456   4.971  11.457   8.157 -0.1579  1.4810  0.4205
  671MOL0     N88457   4.825  11.492   8.184 -0.9479 -0.2833 -0.1441
  671MOL0     C88458   4.733  11.507   8.095  0.1133 -0.0807  0.8148
  671MOL0     C88459   4.614  11.512   8.153 -0.5917 -0.1855 -0.3480
  671MOL0     C88460   4.479  11.545   8.086  0.6992  0.1301  0.1834
  671MOL0     C88461   4.350  11.477   8.150  0.1007  0.1233  0.0967
  671MOL0     C88462   4.304  11.554   8.279 -0.0247  0.8074  0.7201
  671MOL0     C88463   4.220  11.471   8.377 -0.4406  0.0905  1.0004
  671MOL0     O88464   4.080  11.479   8.340  0.2905 -0.4944 -0.4859
  671MOL0     C88465   3.983  11.429   8.420 -0.3633 -0.0442 -0.3363
  671MOL0     C88466   3.882  11.362   8.357 -0.2126  0.8486  0.2778
  671MOL0     C88467   3.790  11.298   8.439  0.3909  0.5238  0.3930
  671MOL0     C88468   3.798  11.282   8.577  0.3124 -0.2909 -0.3088
  671MOL0     C88469   3.702  11.204   8.650  0.6104 -0.0017  0.1761
  671MOL0     O88470   3.717  11.187   8.786  0.0577  0.2611 -0.1415
  671MOL0     C88471   3.632  11.130   8.882  0.2010 -0.8968  0.8509
  671MOL0     C88472   3.666  11.117   9.021  0.4870  0.0594 -0.3206
  671MOL0     C88473   3.583  11.063   9.119 -0.3237  0.0882  0.3536
  671MOL0     C88474   3.459  11.020   9.086  0.0283 -0.0840 -0.8686
  671MOL0     O88475   3.389  10.953   9.176  0.0402  0.2672  1.3656
  671MOL0     C88476   3.246  10.957   9.167 -0.0563  0.3715 -0.0160
  671MOL0     C88477   3.190  10.896   9.300  0.0616 -0.6155  0.1890
  671MOL0     C88478   3.046  10.860   9.276  0.5741 -0.1787  0.1333
  671MOL0     C88479   2.976  10.842   9.413 -0.2387 -0.5960 -0.1861
  671MOL0     C88480   2.833  10.807   9.397 -0.0695 -0.4844 -0.2597
  671MOL0     C88481   2.750  10.801   9.523  0.8348  0.2677  0.0424
  671MOL0     C88482   2.722  10.943   9.584  0.2489 -0.3735  0.1148
  671MOL0     C88483   2.638  10.942   9.713  0.5178  0.1483  0.2265
  671MOL0    Cl88484   2.463  10.941   9.663 -0.0117  0.0452 -0.4012
  671MOL0     C88485   3.433  11.014   8.952  0.1751 -0.9222  0.3490
  671MOL0     C88486   3.507  11.073   8.852 -0.0704 -0.6680  0.1171
  671MOL0     O88487   3.611  11.146   8.584  0.3343  0.0265  0.2498
  671MOL0     C88488   3.893  11.369   8.632  0.1304  1.2748 -0.1790
  671MOL0     C88489   3.988  11.433   8.557  0.5451 -0.6463  0.4683
  671MOL0     N88490   4.637  11.502   8.295 -0.4235  0.7630  0.4094
  671MOL0     N88491   4.767  11.491   8.310 -0.1129  0.5972 -0.1622
  671MOL0     C88492   5.926  10.992   8.225  0.8827  0.0424 -0.5118
  671MOL0     C88493   6.059  10.958   8.218  0.3522 -0.8118  0.2100
  671MOL0     C88494   6.460  10.764   8.196 -0.9396  0.4575  0.4838
  671MOL0     C88495   6.571  10.787   8.284  0.2632  0.2460  0.4512
  671MOL0     C88496   6.699  10.732   8.267  0.0381  0.5034  0.3337
  671MOL0     C88497   6.717  10.642   8.157  0.1419  0.5858 -0.4876
  671MOL0     O88498   6.826  10.564   8.150 -0.2183  0.3425  0.3629
  671MOL0     C88499   6.951  10.640   8.166  0.4922 -0.0758  0.7232
  671MOL0     C88500   6.987  10.734   8.045  0.4993  0.0237  0.1400
  671MOL0     C88501   7.128  10.812   8.061  0.1146  0.3752  0.3904
  671MOL0     C88502   7.243  10.715   8.110  0.3332  0.3511 -0.0934
  671MOL0     C88503   7.367  10.783   8.144 -0.8051  0.5622 -0.4529
  671MOL0     C88504   7.473  10.838   8.154  0.6707  0.1296  0.8712
  671MOL0     C88505   6.614  10.616   8.065 -0.8882 -0.2627 -0.2075
  671MOL0     C88506   6.488  10.680   8.085 -0.4603  0.2286  0.5827
  671MOL0     H88507   6.040  10.709   7.989  0.0482 -0.7186  2.2063
  671MOL0     H88508   5.802  10.758   7.996  4.2561 -1.7775 -2.9736
  671MOL0     H88509   5.667  11.130   8.244 -0.9463  0.1851 -0.6700
  671MOL0     H88510   5.676  10.981   8.350  0.9903  1.5678  0.3149
  671MOL0     H88511   5.451  11.063   8.348 -0.5303 -1.6620  0.5084
  671MOL0     H88512   5.448  10.926   8.235 -0.5144 -0.4943  2.6440
  671MOL0     H88513   5.511  11.121   8.059  0.1279  1.8795 -1.0904
  671MOL0     H88514   5.430  11.233   8.171 -3.3593  1.3341 -3.1047
  671MOL0     H88515   5.291  11.155   7.981  1.2866 -0.1117  0.4576
  671MOL0     H88516   5.305  10.994   8.048  2.0223 -0.9294  0.0144
  671MOL0     H88517   5.192  11.070   8.256 -3.4637 -2.8354 -1.4470
  671MOL0     H88518   5.094  11.078   8.111  1.0526 -1.9828 -0.6061
  671MOL0     H88519   5.174  11.335   8.090 -2.2212  3.1058  0.6199
  671MOL0     H88520   5.209  11.314   8.263  1.5244 -0.8819  0.0346
  671MOL0     H88521   4.941  11.244   8.144  0.0023 -0.4985  0.9015
  671MOL0     H88522   4.980  11.299   8.312  3.1203 -1.0582  1.5361
  671MOL0     H88523   5.005  11.472   8.054  1.1844 -0.3699  0.5457
  671MOL0     H88524   5.039  11.527   8.207 -1.1270  2.5831  0.2406
  671MOL0     H88525   4.756  11.519   7.989 -2.6701 -1.1600 -0.0049
  671MOL0     H88526   4.475  11.511   7.982  1.9439  1.7374 -0.4322
  671MOL0     H88527   4.473  11.654   8.090  4.3524  0.5700 -1.8093
  671MOL0     H88528   4.367  11.371   8.171  2.3608  0.3214 -0.4648
  671MOL0     H88529   4.267  11.489   8.081  1.0795  1.1463 -0.9474
  671MOL0     H88530   4.397  11.585   8.328  1.7881 -2.2540 -0.4806
  671MOL0     H88531   4.266  11.652   8.247  2.5088  1.5435 -0.3129
  671MOL0     H88532   4.246  11.500   8.479  1.7140 -1.9023  1.1014
  671MOL0     H88533   4.246  11.366   8.361 -0.3564  0.5874 -3.3693
  671MOL0     H88534   3.864  11.356   8.250 -1.1945 -0.6522  0.4892
  671MOL0     H88535   3.718  11.241   8.382  3.1282 -3.2433  0.3218
  671MOL0     H88536   3.764  11.156   9.047  0.7132  1.9108 -3.4489
  671MOL0     H88537   3.620  11.053   9.220 -2.1421  0.0348  1.0419
  671MOL0     H88538   3.212  10.901   9.079  0.1778 -1.3475  0.9491
  671MOL0     H88539   3.218  11.061   9.148  2.6483  1.2631  0.5534
  671MOL0     H88540   3.211  10.963   9.384  0.8499  0.8791 -1.1427
  671MOL0     H88541   3.242  10.807   9.336 -0.4431 -1.0402 -0.1218
  671MOL0     H88542   3.038  10.768   9.217 -1.9141  1.4258 -2.3052
  671MOL0     H88543   3.009  10.945   9.218  2.7727  2.1328  1.9081
  671MOL0     H88544   3.031  10.771   9.476 -0.5603 -0.6751  0.0048
  671MOL0     H88545   2.979  10.941   9.461 -3.0981 -1.1191  1.2357
  671MOL0     H88546   2.842  10.705   9.359  2.0455 -0.5502  0.2848
  671MOL0     H88547   2.776  10.875   9.334 -4.7979 -2.5282  1.3704
  671MOL0     H88548   2.789  10.737   9.603 -1.7581 -1.2102  0.2623
  671MOL0     H88549   2.650  10.759   9.504  0.2757  1.5388  0.0594
  671MOL0     H88550   2.807  11.008   9.604 -0.3053  0.0105  1.3233
  671MOL0     H88551   2.679  11.011   9.510  4.6075  2.8008  0.0864
  671MOL0     H88552   2.663  11.029   9.773  0.6505 -0.0175  0.4132
  671MOL0     H88553   2.645  10.846   9.765 -3.0699 -0.8123 -0.7130
  671MOL0     H88554   3.340  10.966   8.922  0.0183 -0.7503  0.5575
  671MOL0     H88555   3.464  11.072   8.752 -1.0730  0.9809  0.4923
  671MOL0     H88556   3.908  11.363   8.739  2.3906 -2.6727 -0.5211
  671MOL0     H88557   4.074  11.472   8.611  2.2359  0.1460 -2.5759
  671MOL0     H88558   5.906  11.082   8.281  1.4701  0.1848 -0.5214
  671MOL0     H88559   6.125  11.008   8.289 -2.3322  1.2739  1.4237
  671MOL0     H88560   6.550  10.837   8.378  0.6746  0.2198  0.5574
  671MOL0     H88561   6.769  10.752   8.347  0.0690  0.3649  0.3424
  671MOL0     H88562   7.027  10.561   8.172  0.5674 -0.1048 -0.3947
  671MOL0     H88563   6.955  10.697   8.260  2.5239 -1.2859  1.4477
  671MOL0     H88564   7.000  10.669   7.958 -0.9297 -1.7079  1.1579
  671MOL0     H88565   6.912  10.811   8.023  0.2983  0.2130  1.4124
  671MOL0     H88566   7.105  10.896   8.127 -3.1924  0.1748 -0.3476
  671MOL0     H88567   7.156  10.860   7.966  2.0265 -0.2296  0.6033
  671MOL0     H88568   7.215  10.670   8.206  1.1102  0.3037  0.1171
  671MOL0     H88569   7.260  10.632   8.041  0.2701 -0.6293  1.0254
  671MOL0     H88570   7.556  10.904   8.137 -2.0265  3.4724 -0.3128
  671MOL0     H88571   6.626  10.546   7.983 -2.0837 -1.4232  0.5632
  671MOL0     H88572   6.410  10.657   8.014 -0.0594  0.7748 -0.0581
  672MOL0     O88573   6.800   6.214   0.619  0.0120  0.1773  0.9245
  672MOL0     C88574   6.861   6.167   0.708 -0.4879  0.3061 -0.5960
  672MOL0     O88575   6.874   6.221   0.838  0.1806  0.2370  0.9009
  672MOL0     C88576   6.814   6.328   0.886 -0.5637 -0.1919  0.3171
  672MOL0     C88577   6.701   6.394   0.834 -0.1556  0.0442 -0.5366
  672MOL0     C88578   6.658   6.518   0.895 -0.6521 -0.0639  1.0583
  672MOL0     C88579   6.728   6.576   0.998  0.0005  1.0814 -0.8766
  672MOL0     O88580   6.693   6.681   1.069 -0.1779 -0.4023 -0.5925
  672MOL0     C88581   6.616   6.784   1.003  0.8157  0.4206 -0.4228
  672MOL0     C88582   6.463   6.774   1.021 -0.6954  0.0224  0.2652
  672MOL0     C88583   6.397   6.898   0.957  0.2751 -0.1661  0.7318
  672MOL0     C88584   6.249   6.927   0.984 -1.0316  0.1348 -0.0644
  672MOL0     C88585   6.224   6.948   1.138 -0.2087  1.0509  0.0984
  672MOL0     C88586   6.088   6.992   1.181  0.1871 -0.0580 -0.3583
  672MOL0     C88587   6.079   7.145   1.176 -0.3041  0.3391 -0.4346
  672MOL0     C88588   5.945   7.211   1.163 -0.0041 -1.1602  0.4901
  672MOL0     N88589   5.872   7.212   1.291 -0.5068  0.3811 -0.2479
  672MOL0     C88590   5.789   7.115   1.342  0.3898 -0.3911  0.0660
  672MOL0     C88591   5.740   7.164   1.464  0.1448  0.1757  0.5893
  672MOL0     C88592   5.642   7.102   1.567  0.3364 -0.2190  0.0515
  672MOL0     C88593   5.507   7.070   1.497 -0.7816 -0.9384 -0.8152
  672MOL0     C88594   5.446   7.180   1.409 -0.0592 -0.5177 -0.4813
  672MOL0     C88595   5.290   7.190   1.386 -0.3324  0.2137  0.0996
  672MOL0     O88596   5.234   7.060   1.372  0.2222  0.1523 -0.0217
  672MOL0     C88597   5.103   7.044   1.332 -0.2344  0.7677  0.0729
  672MOL0     C88598   5.010   7.148   1.356  0.5782 -0.3127  0.3550
  672MOL0     C88599   4.880   7.132   1.313 -0.0669  0.0060 -0.6693
  672MOL0     C88600   4.832   7.018   1.243  1.0075  1.3119  0.0163
  672MOL0     C88601   4.687   7.002   1.198 -0.1834 -1.0416 -0.0486
  672MOL0     O88602   4.604   7.088   1.254 -0.8084  0.2703  0.2237
  672MOL0     C88603   4.475   7.075   1.224  0.3390 -0.4058 -0.4377
  672MOL0     C88604   4.394   6.981   1.293 -0.2139 -0.5281  0.4813
  672MOL0     C88605   4.263   6.976   1.261  0.1191  0.2083 -0.1665
  672MOL0     C88606   4.207   7.062   1.158 -0.0925 -0.1709 -0.3604
  672MOL0     O88607   4.077   7.085   1.128  0.5869 -0.2041 -0.1493
  672MOL0     C88608   3.984   6.998   1.182 -1.5390  0.0829 -0.0026
  672MOL0     C88609   3.857   7.020   1.118  0.5936  0.4917 -0.0019
  672MOL0     C88610   3.746   6.944   1.181 -0.3331  0.2929 -0.9665
  672MOL0     C88611   3.611   6.958   1.119  0.1857  0.2762 -0.4666
  672MOL0     C88612   3.505   6.868   1.180 -0.7924 -0.9012 -0.2432
  672MOL0     C88613   3.478   6.886   1.329  0.3075 -1.0153 -0.5892
  672MOL0     C88614   3.431   7.037   1.370 -0.4623  0.0851  0.4548
  672MOL0     C88615   3.354   7.053   1.506  0.6927  0.2312  0.2327
  672MOL0    Cl88616   3.470   7.055   1.635 -0.3330 -0.4661  0.0805
  672MOL0     C88617   4.287   7.150   1.092  0.7384  0.5862 -1.0518
  672MOL0     C88618   4.421   7.157   1.126  0.4322  0.7062  0.6590
  672MOL0     O88619   4.653   6.917   1.122  0.1776 -0.0530 -0.2885
  672MOL0     C88620   4.925   6.912   1.226  0.0926  0.0888 -0.4342
  672MOL0     C88621   5.052   6.922   1.284 -0.2586 -0.0899  0.7487
  672MOL0     N88622   5.794   7.286   1.475  0.2005 -0.4553 -0.0277
  672MOL0     N88623   5.870   7.318   1.375 -0.2042  0.9591 -0.0920
  672MOL0     C88624   6.841   6.506   1.047 -0.6037 -0.2231 -0.2771
  672MOL0     C88625   6.878   6.378   0.996 -0.0399  0.4307  0.4193
  672MOL0     C88626   6.927   6.042   0.687  0.4783  0.5140  0.0837
  672MOL0     C88627   6.936   5.979   0.556 -0.1329  0.7227  0.1585
  672MOL0     C88628   7.008   5.863   0.542 -0.0461  0.3243 -0.7700
  672MOL0     C88629   7.074   5.805   0.650  0.7340 -0.6723 -0.1052
  672MOL0     O88630   7.155   5.695   0.637 -0.0771 -0.8112  0.2777
  672MOL0     C88631   7.224   5.670   0.516 -0.0259 -0.0994  0.3013
  672MOL0     C88632   7.332   5.566   0.546  0.3015 -1.0229  0.0088
  672MOL0     C88633   7.274   5.429   0.540  0.1243  0.5994  0.3607
  672MOL0     C88634   7.405   5.332   0.502  0.6479  0.1012 -0.0094
  672MOL0     C88635   7.526   5.355   0.588  0.3657 -0.2525 -0.3680
  672MOL0     C88636   7.612   5.384   0.668 -0.0293  0.0546 -0.2810
  672MOL0     C88637   7.068   5.864   0.769 -0.1403  0.3585  1.3908
  672MOL0     C88638   6.993   5.975   0.790  0.4410 -0.1849 -0.0221
  672MOL0     H88639   6.653   6.351   0.747 -0.4746  0.2828 -0.4787
  672MOL0     H88640   6.573   6.562   0.843  0.2323 -0.0785 -0.4417
  672MOL0     H88641   6.641   6.795   0.897 -1.4587  2.5350 -0.8121
  672MOL0     H88642   6.642   6.880   1.048 -2.4953  0.8071  0.8871
  672MOL0     H88643   6.442   6.758   1.127 -0.3891 -1.5082  0.1236
  672MOL0     H88644   6.420   6.690   0.965 -1.0009 -1.0466  2.0301
  672MOL0     H88645   6.414   6.899   0.849 -0.6186 -2.3581  0.5284
  672MOL0     H88646   6.450   6.992   0.978  0.1685 -0.1180  0.7854
  672MOL0     H88647   6.219   7.013   0.923  2.1352 -0.7912 -3.3144
  672MOL0     H88648   6.193   6.835   0.962 -1.2173  0.3016 -0.3002
  672MOL0     H88649   6.292   7.030   1.160 -0.3909  1.0043  0.8706
  672MOL0     H88650   6.254   6.859   1.193 -2.4953 -0.3384 -0.7540
  672MOL0     H88651   6.052   6.968   1.282 -0.1692  2.7737  0.2810
  672MOL0     H88652   6.010   6.954   1.114 -1.0471  0.8527  0.5174
  672MOL0     H88653   6.130   7.183   1.265 -4.1053 -0.2544  2.2515
  672MOL0     H88654   6.139   7.190   1.096  2.2050  1.7306  2.0702
  672MOL0     H88655   5.879   7.159   1.093 -0.3406  1.5080 -1.3168
  672MOL0     H88656   5.947   7.315   1.129 -0.1752 -1.3781 -0.2166
  672MOL0     H88657   5.747   7.029   1.291 -0.6640  0.5782 -0.7756
  672MOL0     H88658   5.626   7.180   1.642  0.2236  0.3589 -0.5604
  672MOL0     H88659   5.685   7.013   1.613 -0.3669 -1.1887 -1.0881
  672MOL0     H88660   5.440   7.042   1.578 -1.0189  1.9488  0.0733
  672MOL0     H88661   5.538   6.980   1.442  3.3347 -1.1817  1.4486
  672MOL0     H88662   5.476   7.280   1.441  0.1073 -0.6555 -0.1964
  672MOL0     H88663   5.501   7.168   1.316  0.2880 -0.2796 -0.3104
  672MOL0     H88664   5.274   7.247   1.294  1.0311  0.9496  0.2938
  672MOL0     H88665   5.238   7.241   1.467 -1.5898 -2.0846  0.8225
  672MOL0     H88666   5.036   7.244   1.399 -2.2389  0.8568 -0.3296
  672MOL0     H88667   4.807   7.209   1.337 -1.8243 -1.8854  0.3606
  672MOL0     H88668   4.415   6.909   1.372 -0.6998 -0.5176  0.6213
  672MOL0     H88669   4.197   6.912   1.319 -0.9825 -0.5934 -2.1919
  672MOL0     H88670   3.972   7.031   1.286 -3.9490  2.8316 -0.9989
  672MOL0     H88671   4.012   6.893   1.194 -0.4439  0.3595 -0.0167
  672MOL0     H88672   3.868   6.990   1.013 -1.6125  0.1950 -0.2118
  672MOL0     H88673   3.836   7.127   1.119  0.2287  0.4435  2.1499
  672MOL0     H88674   3.739   6.964   1.288 -1.1901 -2.8802 -0.2991
  672MOL0     H88675   3.771   6.837   1.180 -5.1204 -1.1175  0.8048
  672MOL0     H88676   3.575   7.061   1.125 -3.8028 -0.7753 -2.6634
  672MOL0     H88677   3.615   6.931   1.013  1.6482 -1.7078  0.0209
  672MOL0     H88678   3.534   6.765   1.156  0.3485 -0.8923  0.9875
  672MOL0     H88679   3.412   6.901   1.133 -0.2657  2.3634  0.7564
  672MOL0     H88680   3.561   6.859   1.395 -1.8319 -1.2634  2.2148
  672MOL0     H88681   3.397   6.827   1.372 -0.3799  0.1933 -0.1590
  672MOL0     H88682   3.507   7.115   1.359 -1.1440  1.2413  3.0418
  672MOL0     H88683   3.352   7.058   1.298 -3.3236  2.3919  3.9278
  672MOL0     H88684   3.291   6.966   1.527 -0.6592  0.6971 -1.6015
  672MOL0     H88685   3.293   7.142   1.488  0.4003 -0.5068 -2.9789
  672MOL0     H88686   4.237   7.195   1.006  0.2620 -0.4685 -1.3336
  672MOL0     H88687   4.485   7.219   1.064  2.9755 -1.6052  0.7532
  672MOL0     H88688   4.890   6.816   1.189 -2.4901  0.8781 -0.1970
  672MOL0     H88689   5.126   6.842   1.279  1.1418  1.1398  1.1235
  672MOL0     H88690   6.902   6.552   1.124  1.3001 -0.3793 -1.5900
  672MOL0     H88691   6.968   6.333   1.037  1.8178  4.3175  1.0587
  672MOL0     H88692   6.890   6.027   0.470  2.0066  1.6336 -0.5502
  672MOL0     H88693   7.016   5.823   0.442 -0.9549  0.0994 -0.7628
  672MOL0     H88694   7.272   5.767   0.498 -0.2415  0.0288  0.4150
  672MOL0     H88695   7.157   5.647   0.433  0.4980  1.0359 -0.4699
  672MOL0     H88696   7.421   5.578   0.484 -0.7411  3.0335 -1.0223
  672MOL0     H88697   7.362   5.581   0.650 -0.0474 -0.1286 -0.0086
  672MOL0     H88698   7.209   5.424   0.453  0.7393 -1.5995 -0.0336
  672MOL0     H88699   7.243   5.389   0.637  1.7294 -0.9410  0.3013
  672MOL0     H88700   7.367   5.231   0.520 -1.4461  0.9292  0.5238
  672MOL0     H88701   7.426   5.353   0.397 -0.3820 -1.0041 -0.4629
  672MOL0     H88702   7.693   5.404   0.735 -1.3823  3.5197  0.5214
  672MOL0     H88703   7.128   5.813   0.844  3.4957  0.1664 -1.3730
  672MOL0     H88704   6.986   6.023   0.887  0.1653  3.2477 -1.5728
  673MOL0     O88705   9.871   2.214   3.327  0.7842 -0.1164  0.4337
  673MOL0     C88706   9.932   2.102   3.324  0.0467 -0.4438  0.1584
  673MOL0     O88707   9.881   1.979   3.332 -0.3638 -0.2573 -0.0666
  673MOL0     C88708   9.742   1.973   3.343  0.4297  0.3092 -0.5884
  673MOL0     C88709   9.665   2.015   3.459  0.7802 -0.5654 -0.0459
  673MOL0     C88710   9.525   2.028   3.447  1.4113  1.0217 -0.2927
  673MOL0     C88711   9.458   1.995   3.329 -0.5193  0.8161 -0.5402
  673MOL0     O88712   9.326   2.025   3.296 -0.1622 -0.5710  0.5972
  673MOL0     C88713   9.271   2.137   3.356  0.3228  0.5701  0.6201
  673MOL0     C88714   9.171   2.089   3.462 -0.5243  0.3712 -0.5407
  673MOL0     C88715   9.061   2.014   3.393  0.2382  0.4408 -0.7964
  673MOL0     C88716   8.934   2.017   3.474  0.5466 -0.4559 -0.0266
  673MOL0     C88717   8.811   1.953   3.409 -0.4081  0.8407 -0.0359
  673MOL0     C88718   8.777   1.815   3.466 -0.9550 -0.0807 -0.2355
  673MOL0     C88719   8.716   1.731   3.354 -1.0425  0.0994  1.0946
  673MOL0     C88720   8.582   1.775   3.302  0.1223 -0.1660 -0.8178
  673MOL0     N88721   8.475   1.732   3.384  0.3418  0.3634 -1.4384
  673MOL0     C88722   8.429   1.794   3.500 -1.0245  0.5094 -0.6724
  673MOL0     C88723   8.321   1.726   3.538 -0.7497 -0.0846  0.3977
  673MOL0     C88724   8.226   1.760   3.656 -0.0342  0.7753  0.9094
  673MOL0     C88725   8.090   1.689   3.632 -0.3329  0.0793 -1.1388
  673MOL0     C88726   7.984   1.743   3.721  0.2802 -0.7453  0.0926
  673MOL0     C88727   7.857   1.652   3.722  0.1408 -0.4669 -0.1430
  673MOL0     O88728   7.803   1.638   3.585 -0.6173  0.6840  0.4105
  673MOL0     C88729   7.665   1.635   3.569  0.6874  0.8077  0.4367
  673MOL0     C88730   7.615   1.688   3.452  0.4548  0.8968  0.1030
  673MOL0     C88731   7.484   1.669   3.422  0.4590  0.0554 -0.1749
  673MOL0     C88732   7.393   1.596   3.489 -0.6694  0.8608 -0.1677
  673MOL0     C88733   7.259   1.569   3.447 -0.9085 -0.4470  0.4757
  673MOL0     O88734   7.170   1.534   3.548 -0.2148 -0.1022  0.1744
  673MOL0     C88735   7.042   1.511   3.509  0.1551 -0.1711 -1.0134
  673MOL0     C88736   6.939   1.585   3.568  0.1409 -0.0236 -0.1262
  673MOL0     C88737   6.804   1.570   3.521 -0.2730 -0.3767 -0.0019
  673MOL0     C88738   6.768   1.478   3.417 -0.0671  0.2856  0.0094
  673MOL0     O88739   6.632   1.437   3.398  0.2045  0.4954  0.0469
  673MOL0     C88740   6.601   1.345   3.297 -0.6263 -0.2793 -0.6386
  673MOL0     C88741   6.450   1.303   3.300  0.7912  0.6456 -0.5056
  673MOL0     C88742   6.365   1.403   3.218  0.0235 -0.3409 -0.1154
  673MOL0     C88743   6.220   1.353   3.189  0.1004 -0.5945 -0.0140
  673MOL0     C88744   6.123   1.464   3.206  0.4634 -1.2722 -0.1011
  673MOL0     C88745   5.983   1.425   3.166  0.6387  0.8081  0.1048
  673MOL0     C88746   5.863   1.514   3.199 -0.0310  0.5272  0.3724
  673MOL0     C88747   5.739   1.447   3.146 -0.8722  0.0648 -0.8459
  673MOL0    Cl88748   5.732   1.436   2.966 -0.4305  0.5769 -0.1583
  673MOL0     C88749   6.880   1.410   3.355  0.2975 -0.2349 -0.7334
  673MOL0     C88750   7.007   1.429   3.400 -0.1661  0.0174  0.3874
  673MOL0     O88751   7.232   1.606   3.329  0.5452  0.6356 -0.7333
  673MOL0     C88752   7.441   1.544   3.609 -1.0773  0.3617  1.2049
  673MOL0     C88753   7.570   1.569   3.648 -0.0239  0.2469  0.2625
  673MOL0     N88754   8.307   1.616   3.451  0.0069  0.3739 -0.4374
  673MOL0     N88755   8.404   1.617   3.363  0.9911  0.3873  0.0573
  673MOL0     C88756   9.540   1.932   3.231  0.0186 -0.5271 -0.3074
  673MOL0     C88757   9.677   1.920   3.239 -0.4201 -0.1037  0.0454
  673MOL0     C88758  10.079   2.110   3.353  0.1524 -0.2613  1.0049
  673MOL0     C88759  10.161   1.992   3.369  0.4266 -0.3012 -0.0887
  673MOL0     C88760  10.296   2.007   3.404  0.9624 -0.0041 -0.2702
  673MOL0     C88761  10.356   2.128   3.419 -0.3451 -0.3237 -0.2550
  673MOL0     O88762  10.488   2.144   3.458  0.0098 -0.0020 -0.7759
  673MOL0     C88763  10.550   2.037   3.519 -0.2555 -0.1825  0.9911
  673MOL0     C88764  10.665   2.109   3.581 -0.7385  0.5176 -0.1705
  673MOL0     C88765  10.771   2.000   3.637 -0.0681 -0.0614 -1.2625
  673MOL0     C88766  10.891   2.074   3.714  0.2128  0.1877  0.0180
  673MOL0     C88767  10.965   2.176   3.627 -0.6163  0.0595 -0.5613
  673MOL0     C88768  11.013   2.265   3.556 -0.5427  0.1577  0.1274
  673MOL0     C88769  10.285   2.248   3.397  0.1341  0.4634 -0.4870
  673MOL0     C88770  10.147   2.240   3.362  0.4819  0.0607  0.0821
  673MOL0     H88771   9.722   2.051   3.544  2.3470  1.5141 -1.8596
  673MOL0     H88772   9.461   2.057   3.530 -1.7740 -1.4829 -1.6608
  673MOL0     H88773   9.214   2.197   3.285 -0.3402 -0.1868  0.5024
  673MOL0     H88774   9.353   2.197   3.397 -1.5255  2.3094  1.9935
  673MOL0     H88775   9.128   2.171   3.520 -0.2454 -0.7783  1.3749
  673MOL0     H88776   9.221   2.040   3.546 -1.5146  0.5388  0.1604
  673MOL0     H88777   9.087   1.908   3.387  1.1090  0.5019  1.1632
  673MOL0     H88778   9.047   2.055   3.293  0.5123 -1.1698 -1.5291
  673MOL0     H88779   8.964   1.983   3.573  2.2067  1.8802  0.3552
  673MOL0     H88780   8.907   2.123   3.486 -0.4735 -0.9312  2.4661
  673MOL0     H88781   8.843   1.950   3.305 -0.0574 -0.4452  0.0881
  673MOL0     H88782   8.717   2.008   3.417 -1.1127 -0.2756 -0.4011
  673MOL0     H88783   8.714   1.825   3.554 -0.3810 -1.5913  0.3877
  673MOL0     H88784   8.864   1.759   3.502  0.2611  1.0932 -1.2140
  673MOL0     H88785   8.789   1.737   3.273 -1.3415  0.5439  0.8527
  673MOL0     H88786   8.714   1.628   3.390 -2.5133  1.0980  4.2126
  673MOL0     H88787   8.555   1.736   3.203 -0.5768 -2.3833  0.1868
  673MOL0     H88788   8.571   1.883   3.315 -1.1285 -0.6021  2.5502
  673MOL0     H88789   8.486   1.880   3.534  1.2653 -0.9407 -0.6629
  673MOL0     H88790   8.199   1.866   3.651 -2.7483  0.3041  3.1079
  673MOL0     H88791   8.266   1.738   3.755 -0.9495 -1.7790  0.7989
  673MOL0     H88792   8.104   1.582   3.646  0.5155  0.4379  1.1324
  673MOL0     H88793   8.050   1.707   3.531 -3.7676  2.7517  0.4616
  673MOL0     H88794   8.018   1.767   3.822 -0.0651 -0.2112  0.0867
  673MOL0     H88795   7.939   1.831   3.675 -0.4345 -1.4812 -0.6522
  673MOL0     H88796   7.780   1.693   3.788 -0.6826 -1.1472 -0.6525
  673MOL0     H88797   7.885   1.552   3.756 -0.9893 -0.8070 -0.1915
  673MOL0     H88798   7.675   1.741   3.379  2.0480  0.8341  1.3357
  673MOL0     H88799   7.458   1.717   3.329  2.0981  0.7509 -0.3036
  673MOL0     H88800   6.951   1.662   3.643  3.8731  0.4330 -1.0084
  673MOL0     H88801   6.727   1.615   3.582 -0.0627 -0.2283  0.1567
  673MOL0     H88802   6.661   1.254   3.305 -0.3307  0.0384  1.0644
  673MOL0     H88803   6.633   1.391   3.203  1.6862  2.2694  1.2329
  673MOL0     H88804   6.409   1.294   3.401  0.6772  2.7572 -0.3086
  673MOL0     H88805   6.449   1.211   3.241  0.4396  1.7071 -2.2325
  673MOL0     H88806   6.408   1.431   3.121 -1.4410 -0.6324 -0.8913
  673MOL0     H88807   6.365   1.498   3.273 -1.1998 -0.5630  0.3121
  673MOL0     H88808   6.210   1.311   3.089  1.9842 -0.4235 -0.3128
  673MOL0     H88809   6.199   1.283   3.270 -1.1175 -0.9620 -0.6266
  673MOL0     H88810   6.155   1.551   3.148 -0.7743 -1.1330 -0.6095
  673MOL0     H88811   6.112   1.498   3.310  1.9643  2.6603 -1.0629
  673MOL0     H88812   5.965   1.341   3.233  0.2168  1.6823  1.1034
  673MOL0     H88813   5.985   1.383   3.065 -0.7912  0.2050  0.3172
  673MOL0     H88814   5.857   1.512   3.309  2.0168  0.1676  0.5301
  673MOL0     H88815   5.881   1.614   3.161  1.3750  0.5574  1.0426
  673MOL0     H88816   5.651   1.505   3.176 -1.6617 -0.9704 -1.1074
  673MOL0     H88817   5.737   1.348   3.191 -1.5308  0.0285 -0.9406
  673MOL0     H88818   6.863   1.346   3.269  0.3291 -1.0576 -0.1382
  673MOL0     H88819   7.071   1.367   3.338 -0.8104 -0.1673 -0.1070
  673MOL0     H88820   7.375   1.486   3.673 -0.5344 -0.1526  1.3079
  673MOL0     H88821   7.603   1.517   3.737  1.9262 -4.1836 -2.6775
  673MOL0     H88822   9.503   1.902   3.133 -1.1419 -0.6791  0.1571
  673MOL0     H88823   9.737   1.890   3.153  0.6798 -0.1019  0.7999
  673MOL0     H88824  10.122   1.892   3.353  4.1676 -2.0105  0.3635
  673MOL0     H88825  10.341   1.910   3.419 -1.4743 -1.4084 -1.3786
  673MOL0     H88826  10.578   1.969   3.437 -0.6887  1.8437 -0.9433
  673MOL0     H88827  10.486   1.978   3.585 -3.4674 -0.9304 -2.4177
  673MOL0     H88828  10.722   2.165   3.507 -0.1307 -0.0839 -0.1730
  673MOL0     H88829  10.646   2.184   3.658 -3.3412  0.7125 -0.9354
  673MOL0     H88830  10.809   1.934   3.558  1.5894 -1.8460  0.9113
  673MOL0     H88831  10.708   1.951   3.712  0.4076 -0.4966 -1.1489
  673MOL0     H88832  10.841   2.132   3.792 -1.5597 -1.3585  0.1176
  673MOL0     H88833  10.962   1.999   3.750 -1.3528 -1.7961 -0.8333
  673MOL0     H88834  11.036   2.345   3.488 -2.0823 -1.3928 -2.3715
  673MOL0     H88835  10.339   2.341   3.413  2.2639 -0.8186  0.0703
  673MOL0     H88836  10.086   2.330   3.349  0.5346 -0.0341 -0.8615
  674MOL0     O88837   8.756   6.746   0.191 -0.3313  0.1139 -0.7098
  674MOL0     C88838   8.795   6.797   0.081 -0.0101  0.5788  0.0183
  674MOL0     O88839   8.717   6.854  -0.012  0.6539 -0.4298  0.5675
  674MOL0     C88840   8.589   6.869   0.031  1.3317  0.0490 -0.1454
  674MOL0     C88841   8.554   6.953   0.137  0.4645  0.7260 -0.6544
  674MOL0     C88842   8.418   6.964   0.167 -0.2202 -0.3135  0.1562
  674MOL0     C88843   8.322   6.891   0.105  0.6111  1.4373  0.1006
  674MOL0     O88844   8.189   6.919   0.144 -0.1302  1.1759 -0.4761
  674MOL0     C88845   8.087   6.844   0.085 -0.3153  0.3645 -0.5213
  674MOL0     C88846   7.970   6.859   0.179 -0.2029  0.2827 -0.3852
  674MOL0     C88847   7.860   6.767   0.134 -0.4642 -0.0436 -0.1979
  674MOL0     C88848   7.726   6.805   0.211 -0.3716 -0.6049  0.4421
  674MOL0     C88849   7.604   6.718   0.187 -0.5215 -0.0212 -0.0777
  674MOL0     C88850   7.494   6.759   0.287  0.4420  0.0796 -0.4072
  674MOL0     C88851   7.362   6.676   0.283 -0.3879 -0.2459 -0.3275
  674MOL0     C88852   7.311   6.669   0.134 -0.0419  0.6633 -1.4894
  674MOL0     N88853   7.272   6.800   0.092 -0.1659  0.8180  0.1209
  674MOL0     C88854   7.169   6.868   0.142  0.3551 -0.0192  0.5656
  674MOL0     C88855   7.160   6.964   0.051 -0.0326  0.7228  0.6283
  674MOL0     C88856   7.034   7.058   0.035 -0.4454  0.2434  0.3409
  674MOL0     C88857   6.909   6.967  -0.006 -1.6593 -0.5322 -0.2467
  674MOL0     C88858   6.808   7.045  -0.087  0.7283 -0.4737  0.0588
  674MOL0     C88859   6.680   6.967  -0.126 -0.2452  0.0521  0.2702
  674MOL0     O88860   6.602   7.041  -0.224 -0.9004 -0.0096 -0.4937
  674MOL0     C88861   6.508   6.970  -0.287 -0.3221  0.1402  0.2455
  674MOL0     C88862   6.477   6.832  -0.270 -0.0113  0.2688  0.7493
  674MOL0     C88863   6.368   6.782  -0.349 -0.0383 -0.4376 -0.4780
  674MOL0     C88864   6.306   6.852  -0.448  1.2445  0.0529 -0.4246
  674MOL0     C88865   6.218   6.786  -0.550  0.0286 -0.3125 -0.5404
  674MOL0     O88866   6.215   6.863  -0.667  0.9335  0.7133  0.1384
  674MOL0     C88867   6.113   6.827  -0.753  0.4003 -0.9710  1.0994
  674MOL0     C88868   6.007   6.923  -0.765 -0.3619 -0.5173 -0.3251
  674MOL0     C88869   5.905   6.911  -0.863 -0.3406  0.4573 -0.7897
  674MOL0     C88870   5.904   6.795  -0.945 -0.2368 -0.1278  0.0354
  674MOL0     O88871   5.806   6.767  -1.034 -0.1334  0.6669 -0.2171
  674MOL0     C88872   5.682   6.759  -0.980 -0.7258 -0.3590  0.0756
  674MOL0     C88873   5.589   6.777  -1.095 -0.2859  0.3170  0.1163
  674MOL0     C88874   5.438   6.795  -1.054  0.1214  0.0360 -0.1323
  674MOL0     C88875   5.354   6.800  -1.181  1.1676 -0.4929 -0.0491
  674MOL0     C88876   5.210   6.813  -1.148 -1.4443  0.3989 -0.4336
  674MOL0     C88877   5.128   6.854  -1.271  0.8969 -0.5764  0.1927
  674MOL0     C88878   4.978   6.863  -1.240  0.7254  0.3583  0.0639
  674MOL0     C88879   4.918   6.714  -1.254  0.2976  0.0993  0.6804
  674MOL0    Cl88880   4.738   6.701  -1.213  0.0698  0.2400 -0.2709
  674MOL0     C88881   6.013   6.708  -0.947 -1.5976 -1.0093 -1.0958
  674MOL0     C88882   6.114   6.717  -0.843  0.6935  0.4925  0.8675
  674MOL0     O88883   6.183   6.671  -0.540  0.1998 -0.0370 -0.6225
  674MOL0     C88884   6.335   6.987  -0.460 -0.3711 -0.1397  0.4865
  674MOL0     C88885   6.441   7.048  -0.383 -0.0847  0.5146  0.2653
  674MOL0     N88886   7.262   6.966  -0.042  0.2252 -0.4065  1.2447
  674MOL0     N88887   7.329   6.861  -0.021  0.6114  0.0097 -0.5863
  674MOL0     C88888   8.355   6.802   0.003 -0.1559  0.4093  0.1442
  674MOL0     C88889   8.484   6.798  -0.037 -0.1046  1.2053 -0.0172
  674MOL0     C88890   8.936   6.778   0.040 -0.1610 -0.7865 -0.7052
  674MOL0     C88891   9.024   6.719   0.125 -1.1771 -0.0795 -0.8395
  674MOL0     C88892   9.157   6.689   0.091 -0.3675 -0.5605 -0.5390
  674MOL0     C88893   9.204   6.721  -0.034  0.6179  0.1320 -0.5326
  674MOL0     O88894   9.329   6.669  -0.063 -0.4262 -0.2602  0.2457
  674MOL0     C88895   9.376   6.665  -0.204  0.0594  0.4765 -0.2186
  674MOL0     C88896   9.483   6.563  -0.235  0.0798 -0.1609 -0.0035
  674MOL0     C88897   9.615   6.589  -0.165  0.4074 -0.0342 -0.4074
  674MOL0     C88898   9.733   6.514  -0.227 -0.4905  0.1665  0.4499
  674MOL0     C88899   9.860   6.560  -0.175  0.3515 -0.4528 -0.2190
  674MOL0     C88900   9.966   6.589  -0.125  0.2541  0.1344 -0.1590
  674MOL0     C88901   9.111   6.787  -0.122 -1.0618 -0.2023  0.1551
  674MOL0     C88902   8.982   6.802  -0.082 -0.8239 -0.7762  0.1090
  674MOL0     H88903   8.636   7.007   0.185  0.4097 -0.5711  0.9826
  674MOL0     H88904   8.380   7.030   0.245 -0.0142  0.3498 -0.2981
  674MOL0     H88905   8.118   6.740   0.096 -1.3160  0.3221  3.0104
  674MOL0     H88906   8.064   6.868  -0.020 -4.0105  0.2004  0.1157
  674MOL0     H88907   7.942   6.965   0.176  1.2477  0.6750 -1.7589
  674MOL0     H88908   8.000   6.836   0.282 -0.0350  0.4202 -0.4027
  674MOL0     H88909   7.883   6.661   0.149  1.2167  0.5760  1.9920
  674MOL0     H88910   7.837   6.782   0.028 -1.1158 -0.1081 -0.0667
  674MOL0     H88911   7.747   6.792   0.317  1.6294 -0.6612  0.0839
  674MOL0     H88912   7.697   6.909   0.198 -0.3078 -0.2944  2.5003
  674MOL0     H88913   7.627   6.611   0.194 -1.1346 -0.5244 -3.5739
  674MOL0     H88914   7.585   6.724   0.079  1.0541 -1.2263 -0.4777
  674MOL0     H88915   7.475   6.866   0.277 -1.6903 -0.0793  1.2232
  674MOL0     H88916   7.531   6.756   0.390  0.1207  0.3926 -0.2814
  674MOL0     H88917   7.377   6.571   0.312  0.8350 -0.6877 -2.3258
  674MOL0     H88918   7.292   6.713   0.357  0.2073 -0.1530  0.1999
  674MOL0     H88919   7.222   6.606   0.142  0.4008  0.1799  0.0617
  674MOL0     H88920   7.383   6.630   0.061 -1.5959 -1.9802 -1.7754
  674MOL0     H88921   7.106   6.844   0.227  1.7317 -2.0137  1.1031
  674MOL0     H88922   7.070   7.122  -0.046  2.0740  2.0644  2.6970
  674MOL0     H88923   7.013   7.125   0.119  1.2323  0.5456  0.5560
  674MOL0     H88924   6.856   6.940   0.085  3.0255 -2.9414  2.1621
  674MOL0     H88925   6.930   6.875  -0.062 -2.0276 -1.3852  0.9784
  674MOL0     H88926   6.769   7.114  -0.012  1.6825 -0.7676  0.8452
  674MOL0     H88927   6.852   7.101  -0.171 -2.6295  1.2896 -0.7263
  674MOL0     H88928   6.615   6.943  -0.042 -1.2366  0.6663 -0.2962
  674MOL0     H88929   6.704   6.875  -0.180  1.8612 -0.6639  2.2527
  674MOL0     H88930   6.534   6.765  -0.206 -0.1586 -1.5044 -0.8794
  674MOL0     H88931   6.357   6.674  -0.339  1.9059 -0.5509  0.9775
  674MOL0     H88932   6.017   7.016  -0.710  2.7682 -0.0529 -1.5048
  674MOL0     H88933   5.823   6.981  -0.867  0.0693  0.9307 -1.1338
  674MOL0     H88934   5.666   6.851  -0.921  0.7543 -0.2237  0.3142
  674MOL0     H88935   5.662   6.671  -0.918 -2.6923  0.0083  0.0352
  674MOL0     H88936   5.598   6.684  -1.151  2.6634 -0.9198  2.3780
  674MOL0     H88937   5.631   6.858  -1.155  0.0118  0.4309  0.4757
  674MOL0     H88938   5.433   6.888  -0.997  2.1631  1.7020 -2.4317
  674MOL0     H88939   5.400   6.714  -0.992  0.1302 -0.6895 -1.0431
  674MOL0     H88940   5.389   6.888  -1.236  0.0867  0.0759  0.1342
  674MOL0     H88941   5.362   6.712  -1.245 -1.0125  1.2457 -2.9615
  674MOL0     H88942   5.191   6.880  -1.064 -0.6026 -0.8603  0.7964
  674MOL0     H88943   5.171   6.722  -1.102  0.5992  0.5710  1.8144
  674MOL0     H88944   5.150   6.796  -1.361 -1.5910 -0.4838 -0.5623
  674MOL0     H88945   5.155   6.956  -1.299 -3.1496  0.7477  0.3662
  674MOL0     H88946   4.967   6.901  -1.138  1.2876 -0.1282  0.3196
  674MOL0     H88947   4.936   6.935  -1.310  1.3745 -0.9626 -1.7691
  674MOL0     H88948   4.975   6.635  -1.205 -0.3328  0.0559  1.3646
  674MOL0     H88949   4.934   6.686  -1.358  2.5270  0.1972  0.9577
  674MOL0     H88950   6.006   6.617  -1.007 -2.4954 -0.2466 -2.1942
  674MOL0     H88951   6.200   6.652  -0.827  0.2643 -0.1635  0.5415
  674MOL0     H88952   6.279   7.052  -0.526 -1.7979 -1.1280  0.6802
  674MOL0     H88953   6.454   7.154  -0.400 -0.9190  0.1749 -3.5170
  674MOL0     H88954   8.277   6.737  -0.035 -0.4665 -0.4103  2.0332
  674MOL0     H88955   8.513   6.727  -0.114  0.5180 -0.2152  1.4439
  674MOL0     H88956   8.989   6.688   0.223 -2.4973 -0.2199 -1.3320
  674MOL0     H88957   9.215   6.637   0.166 -0.4450  1.2062  0.8047
  674MOL0     H88958   9.403   6.766  -0.236 -2.1892  1.1161 -0.2662
  674MOL0     H88959   9.288   6.634  -0.261  1.5270  0.8412 -2.8154
  674MOL0     H88960   9.451   6.462  -0.206 -0.7149  0.2826  0.6931
  674MOL0     H88961   9.493   6.563  -0.344  0.0662  1.3140 -0.0201
  674MOL0     H88962   9.617   6.549  -0.063 -1.3777 -2.2574 -1.1608
  674MOL0     H88963   9.632   6.697  -0.156  4.1590 -0.3089 -2.2931
  674MOL0     H88964   9.722   6.407  -0.210 -1.4571  0.5963  2.9638
  674MOL0     H88965   9.736   6.529  -0.336  1.6818 -1.3704  0.2374
  674MOL0     H88966  10.061   6.610  -0.081 -0.2340 -0.7985  1.4225
  674MOL0     H88967   9.152   6.830  -0.212  2.8861 -2.0619  0.8194
  674MOL0     H88968   8.917   6.853  -0.151  0.0363  1.9759  1.1863
  675MOL0     O88969   5.767   3.804   2.442 -0.1708 -0.0403 -0.2016
  675MOL0     C88970   5.804   3.907   2.499 -1.1880 -0.0615  0.5350
  675MOL0     O88971   5.729   4.016   2.532  0.3225 -0.2965 -0.9210
  675MOL0     C88972   5.594   4.022   2.498 -0.6643  0.0973  0.0220
  675MOL0     C88973   5.512   4.078   2.595  0.6905  0.7835  0.2885
  675MOL0     C88974   5.370   4.108   2.559 -0.3393  0.5383 -0.1372
  675MOL0     C88975   5.313   4.054   2.440 -0.5137 -0.3992 -0.1035
  675MOL0     O88976   5.176   4.050   2.402 -0.5304 -0.9495 -0.0503
  675MOL0     C88977   5.071   4.089   2.502 -0.6155 -0.0170 -0.0586
  675MOL0     C88978   4.937   4.045   2.465  0.3601 -0.1904 -0.9519
  675MOL0     C88979   4.834   4.071   2.573  0.1073  0.4864  0.2850
  675MOL0     C88980   4.761   4.199   2.530 -0.4817  0.6471  0.4746
  675MOL0     C88981   4.635   4.216   2.610  0.0614  0.3859 -0.3302
  675MOL0     C88982   4.610   4.371   2.626 -0.0418  0.3568  0.1581
  675MOL0     C88983   4.481   4.389   2.697 -0.0480  0.2218  0.4256
  675MOL0     C88984   4.487   4.522   2.766 -0.4036  0.0706  0.0820
  675MOL0     N88985   4.410   4.522   2.892  0.3577 -0.2969 -0.6346
  675MOL0     C88986   4.272   4.523   2.905 -0.2255 -0.0664  0.4398
  675MOL0     C88987   4.251   4.529   3.041  0.4128 -0.5237 -0.1217
  675MOL0     C88988   4.109   4.532   3.092 -0.1477  0.5829  0.0245
  675MOL0     C88989   4.070   4.399   3.158  0.0483  0.9382  0.3517
  675MOL0     C88990   3.962   4.416   3.266  0.5373 -0.5645  0.8886
  675MOL0     C88991   3.833   4.473   3.207 -0.3600  0.8965 -0.3007
  675MOL0     O88992   3.750   4.496   3.311  0.2907  0.8404  0.1546
  675MOL0     C88993   3.618   4.505   3.280 -0.2018  0.0744  0.1730
  675MOL0     C88994   3.545   4.474   3.391 -0.3948  0.0451 -0.4621
  675MOL0     C88995   3.407   4.484   3.386  0.8950 -1.0263 -0.3917
  675MOL0     C88996   3.340   4.522   3.270  0.3352 -0.1887  0.6390
  675MOL0     C88997   3.188   4.510   3.253 -0.9201  0.2454  0.1198
  675MOL0     O88998   3.130   4.397   3.317  0.7488 -0.7506  0.1949
  675MOL0     C88999   2.984   4.396   3.305  0.0129  0.2970  0.8577
  675MOL0     C89000   2.901   4.410   3.416  0.0591 -0.8176  0.2922
  675MOL0     C89001   2.760   4.395   3.410 -0.2409  0.3746 -0.8084
  675MOL0     C89002   2.699   4.379   3.293 -0.4780 -0.1407  0.1674
  675MOL0     O89003   2.565   4.357   3.266  0.2400 -0.4843 -0.1565
  675MOL0     C89004   2.487   4.295   3.367  0.3055  0.5914  0.1392
  675MOL0     C89005   2.340   4.283   3.325 -1.0307  0.6812 -0.3912
  675MOL0     C89006   2.257   4.398   3.266 -0.5368 -0.1060  0.2700
  675MOL0     C89007   2.221   4.515   3.360  0.2900 -0.5931 -0.5644
  675MOL0     C89008   2.184   4.644   3.285  0.2481 -0.3785  0.4143
  675MOL0     C89009   2.291   4.692   3.193  0.4003 -0.4069 -0.3703
  675MOL0     C89010   2.268   4.852   3.170 -0.2041 -0.5422 -0.4587
  675MOL0     C89011   2.327   4.903   3.038  0.8703  0.0678 -0.6792
  675MOL0    Cl89012   2.500   4.895   3.040 -0.1677  0.2152 -0.4168
  675MOL0     C89013   2.779   4.400   3.177  0.3955  0.1352 -0.0591
  675MOL0     C89014   2.914   4.399   3.185 -0.1840 -0.3524 -0.2640
  675MOL0     O89015   3.125   4.593   3.192  0.0244 -0.6781 -0.5026
  675MOL0     C89016   3.420   4.555   3.154 -0.3640  0.0361  0.0038
  675MOL0     C89017   3.555   4.545   3.159 -0.5550 -0.5531 -0.9753
  675MOL0     N89018   4.372   4.545   3.109  0.3812  0.0482  0.5667
  675MOL0     N89019   4.465   4.539   3.016 -0.2007 -0.5661 -0.2211
  675MOL0     C89020   5.398   3.980   2.354 -0.5387 -0.6742 -0.6259
  675MOL0     C89021   5.536   3.974   2.380  0.6567  0.3543 -0.2799
  675MOL0     C89022   5.947   3.915   2.530  0.1393  0.0400 -0.0693
  675MOL0     C89023   6.001   4.042   2.573 -0.3573  0.0585 -0.0915
  675MOL0     C89024   6.135   4.050   2.602 -0.3536 -0.5234 -0.1195
  675MOL0     C89025   6.223   3.947   2.571  1.4710  0.0185  0.7272
  675MOL0     O89026   6.358   3.967   2.577 -0.0795  0.0968  0.4026
  675MOL0     C89027   6.453   3.876   2.521  1.2165  0.0381  0.7675
  675MOL0     C89028   6.475   3.755   2.618  0.0470  0.1541 -0.8880
  675MOL0     C89029   6.624   3.713   2.605 -0.1705  0.5280 -0.4297
  675MOL0     C89030   6.649   3.566   2.643  0.0806  0.5483  1.0235
  675MOL0     C89031   6.601   3.537   2.774 -0.0855 -1.0290 -0.3083
  675MOL0     C89032   6.576   3.509   2.894  0.7333 -0.3813  0.1551
  675MOL0     C89033   6.168   3.822   2.520  0.3341  1.2474 -0.5005
  675MOL0     C89034   6.032   3.810   2.507 -1.3658 -0.4115  0.0485
  675MOL0     H89035   5.551   4.106   2.692  0.7059 -1.5575  1.0073
  675MOL0     H89036   5.312   4.160   2.635  0.5031  1.0066  0.2045
  675MOL0     H89037   5.082   4.196   2.523  6.3030 -0.1791 -0.3008
  675MOL0     H89038   5.099   4.047   2.599 -0.8485  0.2602  0.1317
  675MOL0     H89039   4.938   3.943   2.424 -0.0479  0.5329 -2.8830
  675MOL0     H89040   4.904   4.103   2.379 -0.7697  2.3275  1.0588
  675MOL0     H89041   4.871   4.075   2.675  1.4336  2.0319 -0.2120
  675MOL0     H89042   4.764   3.987   2.571 -0.7491  1.1774  0.4686
  675MOL0     H89043   4.819   4.292   2.535 -1.1612  1.0260  2.0899
  675MOL0     H89044   4.722   4.180   2.429  1.6470 -1.5574 -0.0075
  675MOL0     H89045   4.645   4.165   2.706 -1.3770  0.9784  0.1616
  675MOL0     H89046   4.555   4.169   2.553 -0.6213  0.5217  0.4922
  675MOL0     H89047   4.610   4.423   2.530 -1.8160 -0.3946 -0.2771
  675MOL0     H89048   4.694   4.408   2.687 -0.8189  1.4545  0.5857
  675MOL0     H89049   4.397   4.393   2.628  0.2228 -0.6643  0.0250
  675MOL0     H89050   4.471   4.307   2.769  2.3352 -0.7938 -0.2709
  675MOL0     H89051   4.430   4.587   2.699 -3.7107 -3.6742 -1.1239
  675MOL0     H89052   4.586   4.566   2.779 -0.2010 -0.8532  1.9790
  675MOL0     H89053   4.214   4.497   2.817 -0.6442 -1.7763  1.1741
  675MOL0     H89054   4.040   4.563   3.013 -1.5684  1.7815  1.6710
  675MOL0     H89055   4.085   4.606   3.169 -1.7694 -3.3736  3.7748
  675MOL0     H89056   4.155   4.361   3.216  1.2846  2.5111 -0.3356
  675MOL0     H89057   4.040   4.329   3.079  0.6209  1.8867 -0.7355
  675MOL0     H89058   3.944   4.318   3.311  3.2932 -0.8958  1.4154
  675MOL0     H89059   4.002   4.485   3.340 -1.3521  2.3135 -0.5666
  675MOL0     H89060   3.787   4.385   3.159  0.4855 -1.8123  3.4088
  675MOL0     H89061   3.849   4.557   3.138 -1.8973  0.6451 -1.0195
  675MOL0     H89062   3.591   4.453   3.487  2.7240 -1.1526 -2.0880
  675MOL0     H89063   3.334   4.462   3.463 -0.1633  2.5319 -0.2126
  675MOL0     H89064   2.947   4.411   3.514  0.9782 -0.7176 -0.1270
  675MOL0     H89065   2.710   4.402   3.507  0.3292  2.6756 -0.6299
  675MOL0     H89066   2.475   4.345   3.464 -1.0414 -0.5909  0.6229
  675MOL0     H89067   2.522   4.193   3.384 -1.5101 -0.5923 -2.4836
  675MOL0     H89068   2.293   4.241   3.415 -1.9176  0.5431 -0.9141
  675MOL0     H89069   2.333   4.205   3.248 -1.9512 -0.9701  1.2723
  675MOL0     H89070   2.166   4.352   3.227 -1.0288  1.4453 -0.4899
  675MOL0     H89071   2.310   4.434   3.177 -1.6260  0.6853 -0.0758
  675MOL0     H89072   2.148   4.497   3.439  0.1963  0.9618 -0.2597
  675MOL0     H89073   2.308   4.556   3.412 -0.0658 -0.6611  0.0913
  675MOL0     H89074   2.170   4.723   3.360  1.0368  1.8302 -1.6059
  675MOL0     H89075   2.090   4.640   3.230 -1.0605 -0.5160  2.5441
  675MOL0     H89076   2.284   4.626   3.106 -1.1940 -1.0154  0.1985
  675MOL0     H89077   2.390   4.686   3.239 -0.7478 -0.4953  2.2286
  675MOL0     H89078   2.162   4.878   3.180 -0.4835 -1.4859 -0.8124
  675MOL0     H89079   2.321   4.896   3.256  1.5714 -0.9066 -1.3219
  675MOL0     H89080   2.294   5.006   3.023  2.0987  0.5669 -0.1238
  675MOL0     H89081   2.293   4.842   2.953 -2.4324  0.3569  0.3204
  675MOL0     H89082   2.733   4.419   3.080  0.4863  1.7384  0.1863
  675MOL0     H89083   2.968   4.414   3.092 -0.0197 -0.8313 -0.2467
  675MOL0     H89084   3.373   4.584   3.060 -0.3826  0.5897  0.1769
  675MOL0     H89085   3.621   4.569   3.077  1.7024  3.1125  1.6060
  675MOL0     H89086   5.357   3.935   2.264 -1.3278 -2.1530  0.4261
  675MOL0     H89087   5.596   3.936   2.298  0.9937  0.1632  0.0480
  675MOL0     H89088   5.944   4.132   2.590  2.2598  1.5518  1.4062
  675MOL0     H89089   6.171   4.139   2.653 -3.0097 -0.9738  2.7922
  675MOL0     H89090   6.543   3.935   2.500  1.9685 -1.8210 -1.6253
  675MOL0     H89091   6.417   3.834   2.427 -0.9764  1.3240  0.9499
  675MOL0     H89092   6.449   3.792   2.718  2.0292 -1.3822  0.2625
  675MOL0     H89093   6.414   3.669   2.586  1.3730 -1.2985  0.3091
  675MOL0     H89094   6.681   3.785   2.666 -1.0015  0.0592  0.9253
  675MOL0     H89095   6.646   3.736   2.500 -0.5061  0.3098 -0.5470
  675MOL0     H89096   6.596   3.501   2.573  0.4694 -2.3959  3.2590
  675MOL0     H89097   6.755   3.536   2.641  0.6403  2.4540 -0.6985
  675MOL0     H89098   6.562   3.462   2.989  1.3180 -0.6493  0.1127
  675MOL0     H89099   6.231   3.738   2.494 -2.0061 -0.8534  0.2362
  675MOL0     H89100   6.001   3.714   2.467 -0.4299  0.7233 -3.7285
  676MOL0     O89101   0.816   5.150  10.269  0.0613  0.1133 -0.1060
  676MOL0     C89102   0.900   5.148  10.359 -1.0251  0.4494  1.2261
  676MOL0     O89103   0.884   5.102  10.480 -0.0627  0.1267 -0.1564
  676MOL0     C89104   0.758   5.081  10.537  0.6947 -0.0624 -0.0929
  676MOL0     C89105   0.649   5.013  10.472  0.1867 -0.0547  0.0295
  676MOL0     C89106   0.529   4.992  10.539  1.1020 -1.1802  0.3725
  676MOL0     C89107   0.515   5.034  10.672  0.0822  0.7053 -0.3713
  676MOL0     O89108   0.391   5.022  10.738 -0.4228 -0.0023 -0.0280
  676MOL0     C89109   0.285   4.939  10.676 -0.3329 -0.9850 -0.2297
  676MOL0     C89110   0.171   4.936  10.773 -0.8170 -0.3669  0.2171
  676MOL0     C89111   0.042   4.863  10.727 -0.4086 -0.3497 -0.1510
  676MOL0     C89112  -0.077   4.959  10.750  0.1532  0.3134 -0.0444
  676MOL0     C89113  -0.207   4.907  10.680 -0.3780 -0.0361 -0.2747
  676MOL0     C89114  -0.326   4.928  10.765 -0.2964  0.5724  0.1708
  676MOL0     C89115  -0.349   4.809  10.860 -0.3002  0.3755  0.3535
  676MOL0     C89116  -0.470   4.825  10.953 -0.4572  0.6202  1.4810
  676MOL0     N89117  -0.594   4.785  10.888 -0.4751 -0.5701 -0.4451
  676MOL0     C89118  -0.670   4.852  10.789  0.3500  0.3676  0.3939
  676MOL0     C89119  -0.769   4.770  10.751 -0.9506 -0.0883  0.7554
  676MOL0     C89120  -0.885   4.783  10.661  0.4344  0.5191  0.8245
  676MOL0     C89121  -1.004   4.842  10.732 -0.7230  0.1520 -0.3609
  676MOL0     C89122  -1.098   4.901  10.631  0.4849 -0.2829  0.0972
  676MOL0     C89123  -1.235   4.923  10.682  0.2650 -0.0736 -0.2965
  676MOL0     O89124  -1.248   5.037  10.768 -0.1681 -0.1343  0.6358
  676MOL0     C89125  -1.377   5.053  10.820 -0.9705 -0.3974  0.4333
  676MOL0     C89126  -1.445   5.162  10.787 -0.0554 -0.4484  0.1665
  676MOL0     C89127  -1.573   5.184  10.831  0.7512  0.1375 -0.3125
  676MOL0     C89128  -1.641   5.085  10.912  1.5864 -0.1403  1.1915
  676MOL0     C89129  -1.779   5.105  10.953 -0.0595 -0.5994  0.1063
  676MOL0     O89130  -1.855   5.000  10.986 -0.3249 -0.0177 -0.8091
  676MOL0     C89131  -1.993   5.021  11.002 -0.8643  0.5881  0.5319
  676MOL0     C89132  -2.045   5.000  11.131  0.2506 -0.6048  0.0943
  676MOL0     C89133  -2.184   5.011  11.150  0.1890 -1.4009 -0.1217
  676MOL0     C89134  -2.265   5.069  11.051  0.0681 -0.2774 -0.3156
  676MOL0     O89135  -2.402   5.079  11.074 -0.3123 -0.9139  0.4780
  676MOL0     C89136  -2.479   5.174  11.000  0.2501 -1.1255 -0.2930
  676MOL0     C89137  -2.615   5.191  11.071  0.1173 -1.0576  0.0093
  676MOL0     C89138  -2.702   5.287  10.998  0.9205  0.4463 -0.7484
  676MOL0     C89139  -2.652   5.439  11.005  0.4302 -0.6136  0.5477
  676MOL0     C89140  -2.671   5.512  10.871 -0.4447  0.0803  0.3759
  676MOL0     C89141  -2.818   5.526  10.847  0.6298  0.0604 -0.5145
  676MOL0     C89142  -2.852   5.586  10.713  0.1051  0.7924  0.0935
  676MOL0     C89143  -3.004   5.622  10.696  0.4790  0.4868 -0.3891
  676MOL0    Cl89144  -3.040   5.777  10.774 -0.3692 -0.3329 -0.0226
  676MOL0     C89145  -2.208   5.108  10.923  0.7087  0.0276  0.0135
  676MOL0     C89146  -2.077   5.076  10.906 -0.3944  0.1904  0.3854
  676MOL0     O89147  -1.814   5.222  10.951  0.1396  0.1475  0.6579
  676MOL0     C89148  -1.571   4.971  10.947  0.1670 -0.5688 -0.3607
  676MOL0     C89149  -1.431   4.956  10.906  1.7488 -0.1561 -0.3073
  676MOL0     N89150  -0.752   4.652  10.822 -0.4366 -0.2190 -0.0499
  676MOL0     N89151  -0.649   4.664  10.908  0.5771  0.3218 -0.1395
  676MOL0     C89152   0.617   5.100  10.733  0.4016  0.0534 -0.4172
  676MOL0     C89153   0.736   5.119  10.664  0.0114 -0.9088  0.1122
  676MOL0     C89154   1.033   5.212  10.338 -0.3093  0.6773  0.9968
  676MOL0     C89155   1.074   5.256  10.207  0.0116  1.1663  0.1370
  676MOL0     C89156   1.198   5.320  10.190 -0.0939 -0.3070 -0.1277
  676MOL0     C89157   1.284   5.343  10.293  0.1676 -0.1232 -0.5834
  676MOL0     O89158   1.402   5.424  10.288 -0.4027  1.4232  0.0637
  676MOL0     C89159   1.444   5.466  10.161 -1.3106  0.7300 -0.4247
  676MOL0     C89160   1.569   5.565  10.169  0.1584  0.1492 -0.4366
  676MOL0     C89161   1.684   5.519  10.265 -0.5956  0.5571 -0.4272
  676MOL0     C89162   1.753   5.384  10.231 -0.0772  0.6766  0.6534
  676MOL0     C89163   1.843   5.332  10.338 -0.0637 -0.9209  0.0229
  676MOL0     C89164   1.921   5.324  10.434  0.3936 -0.3478  0.1161
  676MOL0     C89165   1.248   5.295  10.422  0.5607 -0.2538  0.3002
  676MOL0     C89166   1.120   5.233  10.442  0.5837  0.1318 -0.2532
  676MOL0     H89167   0.661   4.973  10.372 -0.8927  1.2880 -0.6663
  676MOL0     H89168   0.450   4.955  10.474  3.4417 -0.2222 -3.3682
  676MOL0     H89169   0.318   4.834  10.671  0.2896 -0.9723  2.0524
  676MOL0     H89170   0.252   4.967  10.576  1.0800  2.0301  0.0473
  676MOL0     H89171   0.145   5.037  10.806  2.2978 -0.3070  2.9948
  676MOL0     H89172   0.201   4.876  10.859  3.2167 -0.5410 -1.0966
  676MOL0     H89173   0.033   4.776  10.793  0.5691  0.6121  1.3164
  676MOL0     H89174   0.056   4.838  10.621  0.6654  1.4957 -0.4862
  676MOL0     H89175  -0.078   4.983  10.857  2.2026  1.0005 -0.1317
  676MOL0     H89176  -0.051   5.055  10.704  1.8330  0.0405  0.2690
  676MOL0     H89177  -0.203   4.800  10.656 -2.9902 -0.3748  0.4430
  676MOL0     H89178  -0.210   4.968  10.590 -2.2171  2.4304  1.3310
  676MOL0     H89179  -0.410   4.955  10.701  1.8991  2.5359 -2.0679
  676MOL0     H89180  -0.316   5.010  10.836  1.6558 -2.8769  4.3790
  676MOL0     H89181  -0.356   4.709  10.815 -0.2430  1.5244 -2.4394
  676MOL0     H89182  -0.259   4.792  10.919 -0.2210 -3.9121 -0.6217
  676MOL0     H89183  -0.475   4.930  10.986  1.1830  2.4314 -3.1544
  676MOL0     H89184  -0.446   4.751  11.029  1.4908  1.2252  1.5147
  676MOL0     H89185  -0.672   4.955  10.754 -2.3898 -0.3749 -2.0973
  676MOL0     H89186  -0.920   4.693  10.610  2.7214 -0.6211  1.1521
  676MOL0     H89187  -0.861   4.855  10.581 -0.6493  1.8198  1.6188
  676MOL0     H89188  -0.967   4.928  10.789 -0.5561 -1.7001  2.5496
  676MOL0     H89189  -1.058   4.768  10.792 -0.4485  0.0860 -0.1950
  676MOL0     H89190  -1.068   5.004  10.609  0.5817  0.3086  2.6903
  676MOL0     H89191  -1.100   4.840  10.540 -2.2345 -0.5021  0.2360
  676MOL0     H89192  -1.270   4.834  10.734 -3.9427  1.9876  0.8080
  676MOL0     H89193  -1.303   4.944  10.599 -0.0406  1.2845  0.2648
  676MOL0     H89194  -1.398   5.229  10.716 -1.1836 -1.2395 -1.3677
  676MOL0     H89195  -1.627   5.265  10.783 -0.2207 -1.8523 -2.8203
  676MOL0     H89196  -1.991   4.965  11.218 -1.6573 -3.2897  0.3453
  676MOL0     H89197  -2.234   5.002  11.246 -0.9860  0.6688 -0.4739
  676MOL0     H89198  -2.500   5.141  10.898  1.1263  0.8123 -1.1515
  676MOL0     H89199  -2.423   5.268  11.000 -0.0695 -0.8792 -2.6928
  676MOL0     H89200  -2.615   5.225  11.175  3.4527 -0.3873 -0.0842
  676MOL0     H89201  -2.656   5.090  11.070  0.9739 -1.4599 -2.8443
  676MOL0     H89202  -2.799   5.286  11.049  1.8445 -2.0897  1.1748
  676MOL0     H89203  -2.717   5.254  10.895  1.0468  0.5843 -0.8115
  676MOL0     H89204  -2.703   5.494  11.084  0.6729  0.3051  0.0771
  676MOL0     H89205  -2.546   5.443  11.031  1.3022  0.4500 -2.7064
  676MOL0     H89206  -2.631   5.457  10.785  0.0980 -0.9881  1.2789
  676MOL0     H89207  -2.634   5.615  10.877  1.2268 -0.5389  1.9234
  676MOL0     H89208  -2.867   5.588  10.923 -2.1672 -0.0875 -2.0504
  676MOL0     H89209  -2.859   5.425  10.856 -1.2842  0.8283  0.0326
  676MOL0     H89210  -2.789   5.674  10.699  1.5369 -0.0954  0.7267
  676MOL0     H89211  -2.830   5.523  10.626 -2.6218  0.9026 -0.8010
  676MOL0     H89212  -3.065   5.536  10.729 -1.0867 -0.9377 -5.9842
  676MOL0     H89213  -3.024   5.637  10.590 -3.3005 -0.1564  0.0886
  676MOL0     H89214  -2.260   5.145  10.835  0.8835 -3.1772 -1.5870
  676MOL0     H89215  -2.039   5.102  10.808 -1.0395 -2.7811 -0.7906
  676MOL0     H89216  -1.630   4.893  10.994 -1.9060  1.2537  0.2189
  676MOL0     H89217  -1.372   4.868  10.932  4.0631  1.9257  2.1715
  676MOL0     H89218   0.607   5.134  10.835 -2.0125 -2.5102  0.3316
  676MOL0     H89219   0.817   5.174  10.711  0.0148 -0.5121 -0.3591
  676MOL0     H89220   1.002   5.240  10.127 -0.8845  0.2783  1.0848
  676MOL0     H89221   1.223   5.366  10.096 -1.8260  0.7414 -0.1326
  676MOL0     H89222   1.367   5.516  10.101 -1.6716 -2.1234 -2.5675
  676MOL0     H89223   1.475   5.377  10.105  0.7714  1.6123 -0.7737
  676MOL0     H89224   1.605   5.585  10.068 -2.4670  4.5801 -0.7653
  676MOL0     H89225   1.537   5.663  10.204  0.4422 -0.2582  1.0582
  676MOL0     H89226   1.640   5.507  10.364  0.1953 -0.1270 -0.1478
  676MOL0     H89227   1.759   5.597  10.282  0.5099 -0.4289 -0.6951
  676MOL0     H89228   1.678   5.306  10.212  0.9682 -0.1283 -0.2797
  676MOL0     H89229   1.801   5.394  10.134 -1.4315  2.2835  0.1022
  676MOL0     H89230   1.979   5.312  10.523 -0.1415 -0.7842  0.4176
  676MOL0     H89231   1.311   5.327  10.504 -1.3979  2.3559  0.9393
  676MOL0     H89232   1.099   5.205  10.545  1.5589 -0.4418 -0.1985
  677MOL0     O89233   9.185   7.371   4.705 -0.0584  0.7320  0.3676
  677MOL0     C89234   9.286   7.317   4.659  0.1325  0.5598 -0.8899
  677MOL0     O89235   9.280   7.220   4.563 -0.3715 -0.7250  0.1782
  677MOL0     C89236   9.164   7.200   4.502 -0.5446 -0.1071 -0.3309
  677MOL0     C89237   9.095   7.294   4.428 -0.2885 -0.0856 -0.1656
  677MOL0     C89238   8.981   7.268   4.358 -0.6504 -0.4165  0.7477
  677MOL0     C89239   8.919   7.144   4.373 -1.1083  0.7593  0.3470
  677MOL0     O89240   8.814   7.100   4.298 -0.1613  0.5611 -0.1608
  677MOL0     C89241   8.793   7.166   4.178  0.4469  0.2171  0.8279
  677MOL0     C89242   8.736   7.070   4.079  0.3063  0.8644  1.0002
  677MOL0     C89243   8.679   7.138   3.959  0.0560 -0.2658 -0.0324
  677MOL0     C89244   8.548   7.207   3.975 -0.8833  0.7475 -0.2987
  677MOL0     C89245   8.484   7.273   3.849 -0.2075  0.0772 -1.0008
  677MOL0     C89246   8.483   7.195   3.719  1.1456 -0.4085  0.6361
  677MOL0     C89247   8.352   7.231   3.641 -0.6035  0.5880 -0.0300
  677MOL0     C89248   8.366   7.177   3.495 -0.0192  0.9152 -0.3375
  677MOL0     N89249   8.406   7.034   3.505 -0.5878 -0.2095  0.5115
  677MOL0     C89250   8.523   6.983   3.469 -0.8493 -0.3232  0.4546
  677MOL0     C89251   8.519   6.856   3.502  0.1396  0.7247  0.4944
  677MOL0     C89252   8.628   6.754   3.499 -0.6088  0.8846  0.6825
  677MOL0     C89253   8.612   6.633   3.410  0.4745 -0.1618 -0.2013
  677MOL0     C89254   8.564   6.655   3.272  0.9730  0.3784  0.3393
  677MOL0     C89255   8.551   6.522   3.191 -0.6985 -0.1579  0.0771
  677MOL0     O89256   8.517   6.558   3.055 -0.5394 -0.6435  0.2450
  677MOL0     C89257   8.616   6.588   2.965  0.4177 -0.4650 -0.4518
  677MOL0     C89258   8.564   6.612   2.839  0.7368  0.1265  0.5015
  677MOL0     C89259   8.657   6.655   2.745  0.7600 -0.5158 -0.5033
  677MOL0     C89260   8.800   6.670   2.763 -0.0227 -0.6078 -0.7647
  677MOL0     C89261   8.891   6.721   2.658 -0.5467  0.1517  0.5697
  677MOL0     O89262   9.021   6.766   2.699 -0.2481  0.3050  0.1050
  677MOL0     C89263   9.130   6.763   2.615  0.5244 -0.3606 -0.2995
  677MOL0     C89264   9.236   6.852   2.634  0.3191  0.1880  0.9772
  677MOL0     C89265   9.350   6.850   2.559  0.3686  0.5637  0.0761
  677MOL0     C89266   9.368   6.746   2.472 -0.4078  0.1295  0.4769
  677MOL0     O89267   9.484   6.713   2.402 -0.0778 -0.3740  0.8320
  677MOL0     C89268   9.618   6.747   2.443  0.6642  0.0384  0.5581
  677MOL0     C89269   9.653   6.657   2.576 -0.7937  0.3542 -0.2888
  677MOL0     C89270   9.766   6.725   2.657  0.6812 -0.1072  0.0831
  677MOL0     C89271   9.725   6.857   2.723 -0.1828 -0.5339 -0.0837
  677MOL0     C89272   9.620   6.842   2.839 -0.3484  0.5035  0.4206
  677MOL0     C89273   9.609   6.976   2.904 -0.0306 -0.0179 -0.7735
  677MOL0     C89274   9.525   6.972   3.030 -0.6413  0.5024  0.2007
  677MOL0     C89275   9.563   6.872   3.149  0.1117 -0.8519 -0.6841
  677MOL0    Cl89276   9.740   6.888   3.174  0.4610 -0.1668  0.3767
  677MOL0     C89277   9.262   6.651   2.452 -0.1574 -0.3512 -0.6041
  677MOL0     C89278   9.143   6.661   2.522  0.5647 -0.1112 -0.1336
  677MOL0     O89279   8.851   6.724   2.537 -0.5841  0.6544 -1.0083
  677MOL0     C89280   8.844   6.631   2.887  0.0518  0.6038 -0.7099
  677MOL0     C89281   8.756   6.588   2.988 -0.6402 -0.6766  0.2636
  677MOL0     N89282   8.403   6.827   3.562 -0.7242 -0.2882 -0.7886
  677MOL0     N89283   8.332   6.939   3.564  0.8359 -0.2104 -0.5359
  677MOL0     C89284   8.985   7.044   4.444  0.3576 -0.4471 -0.0863
  677MOL0     C89285   9.108   7.068   4.506  0.0757 -0.1065  0.3260
  677MOL0     C89286   9.416   7.355   4.723  0.1633  1.0878  0.3400
  677MOL0     C89287   9.431   7.453   4.820 -0.0294 -0.2692 -0.7097
  677MOL0     C89288   9.553   7.486   4.881  0.4037  1.2260  0.7157
  677MOL0     C89289   9.666   7.406   4.844 -0.3979  0.4738  0.5213
  677MOL0     O89290   9.799   7.434   4.884  0.2203  0.0388  0.1419
  677MOL0     C89291   9.807   7.471   5.021  0.4844 -0.3540  0.6070
  677MOL0     C89292   9.923   7.390   5.074  0.6341  0.2472 -0.6589
  677MOL0     C89293  10.059   7.455   5.057  0.1482  0.8569  0.1869
  677MOL0     C89294  10.163   7.360   5.112 -0.3640  0.1568 -0.6478
  677MOL0     C89295  10.260   7.325   5.006 -0.2758  0.8322 -0.0966
  677MOL0     C89296  10.337   7.304   4.917 -0.2942  0.5048  0.5155
  677MOL0     C89297   9.652   7.318   4.742 -0.1658  0.7142 -0.1129
  677MOL0     C89298   9.527   7.283   4.680  0.4111  0.0917 -0.0239
  677MOL0     H89299   9.135   7.395   4.428  0.7962 -0.4872 -1.2816
  677MOL0     H89300   8.937   7.336   4.285 -0.3990 -1.2090 -0.1648
  677MOL0     H89301   8.891   7.189   4.137 -0.4886  0.3474 -1.5067
  677MOL0     H89302   8.731   7.253   4.202  0.5846 -0.2286  3.0146
  677MOL0     H89303   8.669   6.993   4.120  0.1215 -0.0525 -0.8940
  677MOL0     H89304   8.819   7.003   4.055 -1.0111 -1.1351  1.7454
  677MOL0     H89305   8.674   7.064   3.879 -1.6284  0.1205 -0.3176
  677MOL0     H89306   8.748   7.218   3.932  2.0633 -1.0674  2.3872
  677MOL0     H89307   8.492   7.123   4.017  0.9517 -0.1149  0.5425
  677MOL0     H89308   8.558   7.273   4.062 -0.0467  1.3450 -0.8245
  677MOL0     H89309   8.537   7.366   3.830  2.7243 -0.8803  1.4804
  677MOL0     H89310   8.382   7.299   3.880  0.4589  0.7540  0.7273
  677MOL0     H89311   8.480   7.088   3.745  2.9849 -0.3407  1.2661
  677MOL0     H89312   8.574   7.219   3.664  0.6006  3.9604  1.2974
  677MOL0     H89313   8.260   7.198   3.689 -0.5500 -0.2743 -0.4984
  677MOL0     H89314   8.344   7.339   3.625 -0.8918  0.2052 -3.0064
  677MOL0     H89315   8.435   7.244   3.442  1.1229  0.6031  0.7067
  677MOL0     H89316   8.268   7.196   3.451  0.5234  0.6501 -1.7436
  677MOL0     H89317   8.605   7.041   3.429  0.4248 -1.0583  1.8912
  677MOL0     H89318   8.631   6.723   3.604 -1.5046  0.0593  0.4864
  677MOL0     H89319   8.730   6.786   3.478  0.6918 -2.4872  1.3020
  677MOL0     H89320   8.537   6.572   3.463  0.7744 -0.9642 -0.6723
  677MOL0     H89321   8.702   6.571   3.418  0.0597 -0.8313 -0.5890
  677MOL0     H89322   8.463   6.698   3.274  0.3026 -1.0808 -0.5044
  677MOL0     H89323   8.640   6.721   3.230 -0.5324  1.6116 -0.5975
  677MOL0     H89324   8.469   6.464   3.233 -0.4629 -0.4010  0.2004
  677MOL0     H89325   8.637   6.456   3.208 -0.3290 -0.2741 -2.0077
  677MOL0     H89326   8.464   6.605   2.798  0.3167  1.2652  1.2714
  677MOL0     H89327   8.621   6.678   2.645 -0.0579  1.4185  0.1906
  677MOL0     H89328   9.231   6.931   2.708  0.5492  0.5493  0.6095
  677MOL0     H89329   9.428   6.925   2.562  2.3974 -1.4495  0.4122
  677MOL0     H89330   9.631   6.854   2.461  0.9975 -0.1781  1.7075
  677MOL0     H89331   9.697   6.714   2.375 -0.9895 -1.7635 -0.5883
  677MOL0     H89332   9.674   6.555   2.542 -2.1702  1.4286 -5.0142
  677MOL0     H89333   9.561   6.642   2.634 -0.0121 -0.0680  0.8993
  677MOL0     H89334   9.850   6.740   2.589  0.4955 -1.0729 -0.3725
  677MOL0     H89335   9.802   6.662   2.739  1.2817  2.7032  2.1375
  677MOL0     H89336   9.815   6.905   2.760  0.4027 -2.7990  1.6925
  677MOL0     H89337   9.681   6.924   2.649 -3.9129 -3.1114 -0.5259
  677MOL0     H89338   9.660   6.770   2.910  2.8082  1.7801  0.0920
  677MOL0     H89339   9.524   6.815   2.793  0.4958  0.1478 -1.2253
  677MOL0     H89340   9.569   7.057   2.842  3.2628  2.3516 -0.1367
  677MOL0     H89341   9.711   7.004   2.934 -0.0691 -1.8763  1.3169
  677MOL0     H89342   9.531   7.069   3.079  3.6620  1.1726 -1.2662
  677MOL0     H89343   9.420   6.962   3.001 -0.6326 -0.3048  0.4184
  677MOL0     H89344   9.540   6.770   3.116  0.0955 -1.0884  0.0489
  677MOL0     H89345   9.509   6.888   3.242  0.1243 -2.7497 -0.3155
  677MOL0     H89346   9.269   6.573   2.377 -0.2530  1.5281 -2.6789
  677MOL0     H89347   9.061   6.591   2.509  3.1474 -3.1885 -1.1595
  677MOL0     H89348   8.949   6.644   2.909 -0.3589  0.1357  1.9365
  677MOL0     H89349   8.790   6.556   3.085 -0.3133  0.8791  0.6989
  677MOL0     H89350   8.934   6.949   4.441  0.0995 -0.3126 -0.0077
  677MOL0     H89351   9.159   6.995   4.569  2.5276  1.9970  0.9416
  677MOL0     H89352   9.344   7.507   4.856  0.1656 -1.2493  1.3471
  677MOL0     H89353   9.552   7.570   4.950 -1.1684  3.2763 -1.6232
  677MOL0     H89354   9.720   7.444   5.081 -0.8565 -2.8485 -2.1946
  677MOL0     H89355   9.831   7.577   5.037  4.0367 -0.7387 -1.0356
  677MOL0     H89356   9.905   7.375   5.181  0.4015  1.7001 -0.4867
  677MOL0     H89357   9.922   7.290   5.030  1.6518 -0.0434 -0.0607
  677MOL0     H89358  10.076   7.547   5.113 -1.8412  2.8881 -2.2769
  677MOL0     H89359  10.069   7.465   4.948 -0.1437 -1.4955 -0.1191
  677MOL0     H89360  10.220   7.411   5.190 -0.0566 -0.7805 -0.2473
  677MOL0     H89361  10.125   7.272   5.165  3.0750 -1.5280 -0.7394
  677MOL0     H89362  10.404   7.307   4.834  1.0032  2.6084  1.5705
  677MOL0     H89363   9.742   7.279   4.696 -1.6240 -0.4152 -2.1817
  677MOL0     H89364   9.516   7.217   4.594  3.2147  0.8389 -1.0576
  678MOL0     O89365   2.916   0.408   2.742 -0.2501 -0.0874  0.8078
  678MOL0     C89366   2.884   0.326   2.658 -0.2223 -0.2275 -0.3053
  678MOL0     O89367   2.755   0.292   2.618 -0.5637  0.1130 -0.0251
  678MOL0     C89368   2.643   0.339   2.685 -0.5067 -0.6359 -0.5329
  678MOL0     C89369   2.628   0.479   2.718 -0.2447 -0.0019  0.3518
  678MOL0     C89370   2.512   0.516   2.788  0.0880  0.3616  0.6162
  678MOL0     C89371   2.405   0.426   2.817 -0.0449  0.0961 -0.5846
  678MOL0     O89372   2.291   0.480   2.876  0.4258 -0.3860  0.6713
  678MOL0     C89373   2.184   0.389   2.920  0.6822 -0.1939  0.6887
  678MOL0     C89374   2.086   0.449   3.012  0.9372  0.1349 -0.0456
  678MOL0     C89375   2.008   0.558   2.947  0.4992 -0.1746 -0.5643
  678MOL0     C89376   1.892   0.592   3.037 -0.0968  0.1159  0.4827
  678MOL0     C89377   1.831   0.728   3.029 -0.3859 -0.2061  0.5701
  678MOL0     C89378   1.736   0.764   3.143  0.4324  0.2236  0.1596
  678MOL0     C89379   1.693   0.911   3.126 -0.7969  0.4014  0.0800
  678MOL0     C89380   1.576   0.947   3.221  0.4037 -0.2054  0.2128
  678MOL0     N89381   1.453   0.861   3.190  0.2871 -0.0081  0.0464
  678MOL0     C89382   1.348   0.882   3.096 -0.6127  0.2575  0.3747
  678MOL0     C89383   1.273   0.771   3.113 -0.8556  0.1588  0.9032
  678MOL0     C89384   1.138   0.737   3.056 -0.2790  0.2412  0.6372
  678MOL0     C89385   1.053   0.849   3.001 -0.8551 -0.8065 -0.1904
  678MOL0     C89386   1.043   0.978   3.083 -0.0922  0.7420 -0.3728
  678MOL0     C89387   0.967   1.089   3.025  0.1952  0.7387  0.2584
  678MOL0     O89388   0.841   1.038   2.980  0.3617  0.6492  0.4425
  678MOL0     C89389   0.747   1.131   2.940 -0.3884  0.5962  0.0842
  678MOL0     C89390   0.772   1.272   2.938 -0.4098  0.0504  0.1709
  678MOL0     C89391   0.673   1.360   2.904 -0.5063  0.4972  0.0202
  678MOL0     C89392   0.548   1.313   2.864  0.8640 -0.2363 -0.6377
  678MOL0     C89393   0.433   1.406   2.841  1.2280 -0.5832  0.7305
  678MOL0     O89394   0.306   1.344   2.833  0.5448 -0.2876 -0.1686
  678MOL0     C89395   0.196   1.422   2.798  0.8470 -0.0881 -0.5382
  678MOL0     C89396   0.149   1.415   2.662  0.2190  0.3399 -0.2316
  678MOL0     C89397   0.029   1.479   2.624  0.0844  0.3455  0.2643
  678MOL0     C89398  -0.043   1.561   2.721  0.0699 -0.9960  0.9311
  678MOL0     O89399  -0.163   1.629   2.699  0.1099  0.2023 -0.2962
  678MOL0     C89400  -0.273   1.564   2.647  0.1756 -0.1804 -0.4360
  678MOL0     C89401  -0.392   1.662   2.615  0.1704  0.1310  0.2703
  678MOL0     C89402  -0.425   1.748   2.735  0.2090  0.2972  1.0473
  678MOL0     C89403  -0.534   1.863   2.713 -0.5616  0.4705 -0.3526
  678MOL0     C89404  -0.474   1.968   2.626 -0.2895 -0.1190  0.3366
  678MOL0     C89405  -0.561   2.090   2.617  0.1635  0.0428  1.0197
  678MOL0     C89406  -0.541   2.147   2.478  0.2619 -0.2028 -0.8446
  678MOL0     C89407  -0.603   2.287   2.469  0.1693  0.1157  0.7991
  678MOL0    Cl89408  -0.549   2.374   2.322 -0.1621 -0.1824 -0.3186
  678MOL0     C89409   0.014   1.573   2.849  0.3859  0.1308 -0.7827
  678MOL0     C89410   0.125   1.497   2.894 -0.0053  0.3601  0.0144
  678MOL0     O89411   0.443   1.527   2.852 -0.2824  0.3103  0.3523
  678MOL0     C89412   0.523   1.175   2.854  0.2869  0.4925 -0.3049
  678MOL0     C89413   0.630   1.087   2.886  0.0529  0.3313  0.9395
  678MOL0     N89414   1.334   0.683   3.207 -0.2340 -0.1141 -0.5767
  678MOL0     N89415   1.440   0.748   3.252 -0.5270 -0.1567 -0.5382
  678MOL0     C89416   2.425   0.293   2.783  0.0170  0.5465 -0.6497
  678MOL0     C89417   2.543   0.252   2.721  0.8047  0.8786  0.2103
  678MOL0     C89418   2.992   0.259   2.578 -0.0229 -0.4716  0.5447
  678MOL0     C89419   2.967   0.171   2.478 -0.3410  0.2182  0.1864
  678MOL0     C89420   3.070   0.107   2.403  0.3645  0.2656 -0.1362
  678MOL0     C89421   3.198   0.149   2.427  0.2846  0.4497 -0.1334
  678MOL0     O89422   3.305   0.099   2.366  0.8146  0.0168  0.0268
  678MOL0     C89423   3.328   0.107   2.226 -0.1956 -0.1510 -0.1173
  678MOL0     C89424   3.256   0.001   2.148 -0.3656 -0.0928  0.7788
  678MOL0     C89425   3.274  -0.002   2.001  0.8516 -0.7344  0.2883
  678MOL0     C89426   3.409   0.037   1.958  0.2854  0.3021 -0.2919
  678MOL0     C89427   3.429   0.173   1.936  0.0521 -1.0749  0.2884
  678MOL0     C89428   3.437   0.296   1.916  0.2257 -0.8408  0.7684
  678MOL0     C89429   3.224   0.254   2.526  0.3467 -0.2982  0.2819
  678MOL0     C89430   3.122   0.313   2.600  0.4401  0.1095 -0.1440
  678MOL0     H89431   2.697   0.557   2.686 -0.1741  0.8561  2.4347
  678MOL0     H89432   2.479   0.618   2.807 -3.0251 -0.2566 -0.7776
  678MOL0     H89433   2.225   0.304   2.976  1.1262 -0.5381 -0.1403
  678MOL0     H89434   2.133   0.348   2.832 -1.5123  2.1049  0.7755
  678MOL0     H89435   2.131   0.494   3.100 -0.7516  1.2379  0.3106
  678MOL0     H89436   2.024   0.368   3.051  1.6054 -0.7606 -0.7832
  678MOL0     H89437   1.964   0.522   2.853 -2.1333  1.9362 -0.2769
  678MOL0     H89438   2.066   0.650   2.938 -1.3255  1.3059  1.6655
  678MOL0     H89439   1.813   0.517   3.023 -0.1745 -0.3608  2.9677
  678MOL0     H89440   1.925   0.592   3.142  1.3450 -0.2458  0.0461
  678MOL0     H89441   1.770   0.733   2.938 -3.2928  1.5423  2.4463
  678MOL0     H89442   1.912   0.800   3.013 -0.1557 -0.5317  0.2417
  678MOL0     H89443   1.783   0.765   3.242  2.3018  3.4641 -0.5958
  678MOL0     H89444   1.650   0.697   3.138  0.7163 -0.0790 -1.3653
  678MOL0     H89445   1.774   0.976   3.160 -1.4746  1.0010  0.5896
  678MOL0     H89446   1.665   0.941   3.025 -2.4407  1.0396  0.6851
  678MOL0     H89447   1.557   1.053   3.205  0.1727  0.0779  2.1071
  678MOL0     H89448   1.612   0.944   3.325  0.6914  0.5688  0.1428
  678MOL0     H89449   1.326   0.963   3.028 -1.6990  0.5504  1.0545
  678MOL0     H89450   1.089   0.684   3.138 -1.8607  1.6251  0.6469
  678MOL0     H89451   1.144   0.670   2.969  1.2450  3.2890 -1.8151
  678MOL0     H89452   0.952   0.808   2.988 -0.0678 -2.9302  0.0229
  678MOL0     H89453   1.092   0.862   2.900 -1.5546 -1.4501 -0.5522
  678MOL0     H89454   0.989   0.946   3.172  2.1370 -0.8596  0.4890
  678MOL0     H89455   1.140   1.012   3.119  0.4783  1.0054 -2.0581
  678MOL0     H89456   1.024   1.129   2.940  1.0319  0.0618  0.4854
  678MOL0     H89457   0.958   1.163   3.105  3.3833  1.2681  0.2777
  678MOL0     H89458   0.866   1.313   2.972 -0.4902  0.2866  0.1112
  678MOL0     H89459   0.702   1.464   2.916  3.1614 -0.5604  1.8060
  678MOL0     H89460   0.198   1.357   2.584  1.5470 -0.2663  0.9964
  678MOL0     H89461  -0.015   1.464   2.526 -0.2930 -0.1719  0.5123
  678MOL0     H89462  -0.312   1.493   2.720 -3.3251  0.5147 -1.4537
  678MOL0     H89463  -0.226   1.519   2.559  1.1436  2.2097 -1.2448
  678MOL0     H89464  -0.473   1.598   2.580  1.5969 -0.8378 -1.4270
  678MOL0     H89465  -0.352   1.728   2.537  0.5198  1.5475  1.5858
  678MOL0     H89466  -0.331   1.797   2.765  0.2472  1.4271 -0.7708
  678MOL0     H89467  -0.466   1.682   2.811 -1.3027 -0.9870 -0.7970
  678MOL0     H89468  -0.633   1.824   2.686  0.1236 -0.6926 -1.3155
  678MOL0     H89469  -0.550   1.913   2.809 -0.3766 -0.3110  0.0935
  678MOL0     H89470  -0.471   1.927   2.524 -1.3196 -2.5855  1.2125
  678MOL0     H89471  -0.372   1.992   2.657 -0.9303  2.2592  0.7736
  678MOL0     H89472  -0.532   2.158   2.698  2.5878  3.8924 -2.6484
  678MOL0     H89473  -0.666   2.066   2.634  0.9067 -2.8210  2.1133
  678MOL0     H89474  -0.436   2.140   2.445  1.3555  0.0431  2.2605
  678MOL0     H89475  -0.598   2.091   2.404  0.8921  0.0534 -1.5349
  678MOL0     H89476  -0.579   2.356   2.551 -0.7058 -2.9049  3.8314
  678MOL0     H89477  -0.711   2.286   2.453  0.6387  1.2695 -3.9402
  678MOL0     H89478  -0.040   1.632   2.923 -1.3386 -3.5284  1.1752
  678MOL0     H89479   0.164   1.494   2.995  2.6852 -1.3442 -0.9804
  678MOL0     H89480   0.432   1.124   2.823  1.6021 -0.9568 -1.9974
  678MOL0     H89481   0.611   0.981   2.872 -0.1835  0.6974 -2.0335
  678MOL0     H89482   2.343   0.227   2.811  1.1956 -0.0129  1.7494
  678MOL0     H89483   2.537   0.148   2.690  0.1261  0.9593  0.0502
  678MOL0     H89484   2.876   0.120   2.446  1.3553 -1.6514 -1.9757
  678MOL0     H89485   3.034   0.038   2.327  1.5748 -1.1966  0.5707
  678MOL0     H89486   3.434   0.105   2.199 -0.6733 -1.1068 -2.0366
  678MOL0     H89487   3.286   0.202   2.193  1.1596 -0.1404 -1.9618
  678MOL0     H89488   3.292  -0.096   2.185 -1.5875 -1.4207 -1.3134
  678MOL0     H89489   3.147  -0.002   2.160 -0.4165  1.7384  0.9885
  678MOL0     H89490   3.202   0.073   1.967 -0.9942 -1.4691  2.3505
  678MOL0     H89491   3.242  -0.093   1.950 -0.8924  0.1762 -0.3272
  678MOL0     H89492   3.478  -0.015   2.025 -1.6876 -0.0535  1.5839
  678MOL0     H89493   3.420  -0.005   1.857 -0.1476  2.2191 -1.1825
  678MOL0     H89494   3.451   0.402   1.904  2.1797 -1.1988 -0.7224
  678MOL0     H89495   3.322   0.298   2.542  1.0500 -1.0446 -1.6973
  678MOL0     H89496   3.152   0.385   2.675  0.4737  0.5681 -0.5903
  679MOL0     O89497  10.639   7.772  10.662  0.6760 -0.0213  0.1391
  679MOL0     C89498  10.573   7.709  10.576 -0.6379  0.5176 -0.6623
  679MOL0     O89499  10.593   7.705  10.445  0.1490 -0.4246 -0.4875
  679MOL0     C89500  10.695   7.788  10.395 -0.1065  0.1119 -0.1006
  679MOL0     C89501  10.827   7.740  10.389 -0.0075 -0.3526 -0.0685
  679MOL0     C89502  10.932   7.823  10.343 -0.2220  0.0877  0.1808
  679MOL0     C89503  10.916   7.966  10.326  0.0182 -0.0343  0.7037
  679MOL0     O89504  11.035   8.041  10.303  0.5653  0.2850  0.0304
  679MOL0     C89505  11.029   8.172  10.362  0.7280 -0.0950  0.3895
  679MOL0     C89506  10.983   8.272  10.258  0.0244 -0.2763 -0.6321
  679MOL0     C89507  11.100   8.312  10.170 -0.4749  0.9942  0.1272
  679MOL0     C89508  11.048   8.416  10.076  0.0083 -0.2393  0.0344
  679MOL0     C89509  11.148   8.445   9.959  0.4433  0.9063 -0.4220
  679MOL0     C89510  11.294   8.459  10.012 -0.1100 -0.1551  0.3215
  679MOL0     C89511  11.379   8.496   9.890 -0.3240 -0.6914  0.6971
  679MOL0     C89512  11.529   8.487   9.924  0.3514 -0.1701 -1.0176
  679MOL0     N89513  11.625   8.491   9.819  0.3153 -0.3086 -0.3864
  679MOL0     C89514  11.709   8.599   9.786  0.2792  0.0751  0.1480
  679MOL0     C89515  11.771   8.568   9.670 -0.1005 -0.2476 -0.1740
  679MOL0     C89516  11.882   8.649   9.603  0.1740  0.3431  1.1714
  679MOL0     C89517  11.843   8.683   9.462 -0.8294  0.6736  0.2598
  679MOL0     C89518  11.735   8.783   9.450 -0.1085 -0.8822  0.2039
  679MOL0     C89519  11.589   8.733   9.464 -0.0754  0.6974  0.0660
  679MOL0     O89520  11.502   8.851   9.481  0.8298 -0.2627 -0.6727
  679MOL0     C89521  11.375   8.821   9.531 -0.0531 -0.2257 -0.0300
  679MOL0     C89522  11.323   8.695   9.562  0.6343  0.1981  0.1048
  679MOL0     C89523  11.191   8.683   9.607  0.8683  0.9986 -0.8476
  679MOL0     C89524  11.111   8.790   9.629  0.0839  0.5969  0.0848
  679MOL0     C89525  10.967   8.764   9.658 -0.7615 -0.4208 -0.6031
  679MOL0     O89526  10.889   8.857   9.613  0.0184  0.6073  0.0696
  679MOL0     C89527  10.753   8.829   9.600 -0.5278 -0.1247 -0.4681
  679MOL0     C89528  10.700   8.717   9.548 -1.1104  0.2468  0.0780
  679MOL0     C89529  10.562   8.696   9.543 -0.4444 -0.2243 -0.3633
  679MOL0     C89530  10.486   8.780   9.621 -0.3526 -0.7541  0.2117
  679MOL0     O89531  10.348   8.779   9.621  0.6474  0.3846 -0.0396
  679MOL0     C89532  10.286   8.649   9.655  0.4127 -0.0684  0.4836
  679MOL0     C89533  10.161   8.673   9.740 -0.9712 -0.8391  0.0039
  679MOL0     C89534  10.050   8.740   9.657  0.0271 -0.8262 -0.3761
  679MOL0     C89535   9.914   8.739   9.717  0.8906 -0.5846 -0.0204
  679MOL0     C89536   9.815   8.832   9.632  0.5026 -0.0649  0.6603
  679MOL0     C89537   9.673   8.848   9.687 -0.1276  0.6340 -0.5841
  679MOL0     C89538   9.584   8.910   9.586 -0.2556  0.1122 -0.1767
  679MOL0     C89539   9.533   8.811   9.484  0.0390  0.4372  0.6890
  679MOL0    Cl89540   9.415   8.897   9.388 -0.0487  0.3733  0.0047
  679MOL0     C89541  10.540   8.905   9.675 -1.0324 -0.1281 -0.8386
  679MOL0     C89542  10.680   8.921   9.670 -0.3486 -0.3064  0.2289
  679MOL0     O89543  10.929   8.659   9.712 -0.6775 -0.6028 -0.1289
  679MOL0     C89544  11.159   8.919   9.598 -0.1534  0.5336  0.3845
  679MOL0     C89545  11.286   8.930   9.544 -0.8248 -0.1281  0.4334
  679MOL0     N89546  11.722   8.448   9.631 -0.1780  0.9188 -0.2765
  679MOL0     N89547  11.642   8.393   9.720  0.1929  0.7105 -0.1544
  679MOL0     C89548  10.785   8.016  10.324 -0.0718  0.6426 -0.0349
  679MOL0     C89549  10.674   7.928  10.353 -0.1669  0.1045 -0.4997
  679MOL0     C89550  10.487   7.604  10.633  0.4860 -0.2354 -0.1476
  679MOL0     C89551  10.475   7.474  10.575 -0.0884  0.0815 -0.6921
  679MOL0     C89552  10.382   7.383  10.633  0.0591 -0.1713  0.0245
  679MOL0     C89553  10.302   7.419  10.741  0.9086  0.9990  0.3722
  679MOL0     O89554  10.202   7.330  10.777 -0.6144  0.0717  0.3863
  679MOL0     C89555  10.102   7.378  10.863  0.0906 -0.4630 -0.0971
  679MOL0     C89556  10.000   7.271  10.892  0.0689  0.2786 -0.4391
  679MOL0     C89557   9.873   7.311  10.957 -0.3443  0.2961 -0.8484
  679MOL0     C89558   9.774   7.373  10.863 -0.3655 -0.1718  0.5936
  679MOL0     C89559   9.648   7.402  10.939  0.2596 -1.0680 -0.7541
  679MOL0     C89560   9.547   7.415  11.015  1.0911 -1.0606  0.2870
  679MOL0     C89561  10.313   7.547  10.792  0.2782  0.3533 -0.8521
  679MOL0     C89562  10.409   7.635  10.743 -0.0153  0.5036  0.0112
  679MOL0     H89563  10.851   7.638  10.420 -0.6177 -0.4590  0.0654
  679MOL0     H89564  11.032   7.783  10.332  0.0442  0.9708 -0.7679
  679MOL0     H89565  11.122   8.211  10.404  0.3152  2.5627 -0.9794
  679MOL0     H89566  10.958   8.172  10.446  0.3625  1.2230  0.1024
  679MOL0     H89567  10.951   8.364  10.309  1.0242 -0.2203 -0.0715
  679MOL0     H89568  10.901   8.228  10.201 -0.6399 -0.5576  0.5085
  679MOL0     H89569  11.133   8.224  10.115 -1.5863 -0.5632  1.8429
  679MOL0     H89570  11.177   8.351  10.237  0.0768 -0.4247  0.3651
  679MOL0     H89571  10.960   8.380  10.022  2.3458 -0.4488 -4.0656
  679MOL0     H89572  11.017   8.506  10.131 -1.6673  0.3834 -1.7874
  679MOL0     H89573  11.106   8.529   9.903 -1.6283 -0.6192 -1.2957
  679MOL0     H89574  11.145   8.357   9.894 -2.1216  0.3540  0.3171
  679MOL0     H89575  11.326   8.366  10.059  3.1268  1.2994  1.2958
  679MOL0     H89576  11.290   8.537  10.089 -1.3396  2.0374 -1.7803
  679MOL0     H89577  11.341   8.430   9.811  1.2703 -2.6139  1.4358
  679MOL0     H89578  11.366   8.601   9.863  0.7995 -0.6168  0.3910
  679MOL0     H89579  11.526   8.386   9.967 -1.2953 -0.4154 -1.6272
  679MOL0     H89580  11.554   8.543  10.014  0.4799 -1.2221 -0.3764
  679MOL0     H89581  11.740   8.690   9.837  0.9421  1.1134 -1.9726
  679MOL0     H89582  11.978   8.597   9.608 -0.6456 -1.3082  0.3630
  679MOL0     H89583  11.900   8.734   9.670  2.0327 -0.5202  1.8208
  679MOL0     H89584  11.836   8.594   9.400  1.8486 -1.6103  2.9374
  679MOL0     H89585  11.938   8.723   9.428  0.1790 -1.7928  0.0036
  679MOL0     H89586  11.744   8.856   9.531  2.0909 -0.7466 -0.1137
  679MOL0     H89587  11.751   8.834   9.355  3.2793  0.9283  1.5734
  679MOL0     H89588  11.582   8.668   9.552 -0.1612 -0.3810 -0.7277
  679MOL0     H89589  11.570   8.683   9.369 -0.0492  1.5363 -0.3901
  679MOL0     H89590  11.385   8.608   9.543  1.3454  0.6485  0.3463
  679MOL0     H89591  11.146   8.586   9.625  3.0043 -0.0954 -1.0057
  679MOL0     H89592  10.765   8.642   9.503 -3.2810 -1.2139 -0.7500
  679MOL0     H89593  10.515   8.625   9.476  1.4880 -0.9521 -1.0250
  679MOL0     H89594  10.358   8.590   9.712  2.3054  0.1953 -1.4880
  679MOL0     H89595  10.261   8.601   9.559 -3.1644  0.7331  0.8663
  679MOL0     H89596  10.195   8.735   9.824  1.0568  3.4401 -3.6064
  679MOL0     H89597  10.124   8.575   9.771 -2.4729 -0.4106 -0.3346
  679MOL0     H89598  10.048   8.682   9.565 -1.4859 -2.0043  0.3501
  679MOL0     H89599  10.074   8.844   9.634 -0.4592  0.2256  3.2323
  679MOL0     H89600   9.876   8.638   9.735 -2.2246  0.6857  1.2214
  679MOL0     H89601   9.925   8.779   9.818 -3.3090 -1.6838  1.0708
  679MOL0     H89602   9.810   8.791   9.531 -3.2355  1.0342  0.2725
  679MOL0     H89603   9.868   8.928   9.628  1.4034 -0.5274  1.0847
  679MOL0     H89604   9.677   8.898   9.784  0.2722  1.4918 -1.0236
  679MOL0     H89605   9.632   8.750   9.712 -0.0251  0.3954 -1.3117
  679MOL0     H89606   9.510   8.969   9.641  2.0954  1.4723  1.7593
  679MOL0     H89607   9.650   8.975   9.528 -1.5196 -0.2161 -2.0595
  679MOL0     H89608   9.496   8.720   9.532  1.6898 -2.2583 -2.6654
  679MOL0     H89609   9.611   8.782   9.413 -0.0545 -1.2562  1.2399
  679MOL0     H89610  10.471   8.974   9.723  1.4266  0.6396  1.8492
  679MOL0     H89611  10.731   9.005   9.718  0.7025  0.1688 -1.6320
  679MOL0     H89612  11.096   9.006   9.608  0.5447  1.5858 -2.9329
  679MOL0     H89613  11.336   9.027   9.540 -0.3627 -0.3410  0.8411
  679MOL0     H89614  10.762   8.120  10.308 -0.6888  0.7761  1.5437
  679MOL0     H89615  10.573   7.965  10.339 -1.3208 -1.8586  1.9111
  679MOL0     H89616  10.527   7.460  10.481 -1.9124 -2.1625 -1.4519
  679MOL0     H89617  10.368   7.282  10.596  1.2423  0.0185 -0.9797
  679MOL0     H89618  10.043   7.455  10.814 -0.5003 -0.4756  0.5732
  679MOL0     H89619  10.144   7.414  10.958  2.5937 -0.4836 -1.1056
  679MOL0     H89620   9.965   7.231  10.796  0.7957  0.2110 -0.6913
  679MOL0     H89621  10.046   7.190  10.949 -0.5875  0.8778  0.9816
  679MOL0     H89622   9.896   7.388  11.031 -1.7744  1.2749 -1.3674
  679MOL0     H89623   9.816   7.228  10.999  1.0138  0.3737  1.3318
  679MOL0     H89624   9.815   7.464  10.816 -0.1032 -0.0282  1.0967
  679MOL0     H89625   9.754   7.303  10.781 -2.3623 -2.4008  2.8411
  679MOL0     H89626   9.459   7.434  11.072  1.7464  0.7131  0.7767
  679MOL0     H89627  10.252   7.578  10.876  1.1101 -2.8497  1.1050
  679MOL0     H89628  10.402   7.734  10.787 -3.6053  0.0348  0.7521
  680MOL0     O89629   9.147   9.104   0.491 -0.3153 -0.3175  0.4024
  680MOL0     C89630   9.195   9.021   0.415  0.3205 -0.3041  0.0725
  680MOL0     O89631   9.143   8.970   0.301 -0.0572 -0.5865  0.1328
  680MOL0     C89632   9.012   8.989   0.280 -0.3031  0.1933 -0.0913
  680MOL0     C89633   8.929   8.877   0.267  0.2119 -0.5184  0.0263
  680MOL0     C89634   8.802   8.891   0.220  0.0773  0.0853  0.0701
  680MOL0     C89635   8.739   9.014   0.195 -0.0271 -0.5510 -0.2013
  680MOL0     O89636   8.608   9.007   0.151  0.1090  0.3696 -0.2342
  680MOL0     C89637   8.530   9.124   0.162  0.3213  0.6077 -0.2367
  680MOL0     C89638   8.389   9.089   0.130 -0.2291 -0.6164  0.0391
  680MOL0     C89639   8.299   9.211   0.125 -0.9583  0.5113 -0.4107
  680MOL0     C89640   8.150   9.179   0.102  0.0176  0.2166  0.3982
  680MOL0     C89641   8.061   9.302   0.134 -0.1607  0.3844  0.3414
  680MOL0     C89642   7.909   9.279   0.122 -0.5499 -0.6149  0.5765
  680MOL0     C89643   7.820   9.403   0.128 -0.3884 -0.3919  0.4223
  680MOL0     C89644   7.841   9.489   0.253 -0.5200  0.6325 -0.1592
  680MOL0     N89645   7.718   9.541   0.303 -0.0869 -0.5159 -0.1895
  680MOL0     C89646   7.632   9.487   0.390  0.6621  0.2518 -0.0103
  680MOL0     C89647   7.522   9.571   0.407 -0.4890 -0.1140  0.4316
  680MOL0     C89648   7.404   9.544   0.493 -0.3764 -0.2413 -0.9306
  680MOL0     C89649   7.279   9.576   0.408 -0.0765  0.0732 -0.6265
  680MOL0     C89650   7.266   9.472   0.295  0.8042 -0.1268  0.0755
  680MOL0     C89651   7.130   9.499   0.221 -0.4171 -0.3487  0.0460
  680MOL0     O89652   7.042   9.404   0.267  0.0671 -0.0134 -0.3411
  680MOL0     C89653   6.919   9.400   0.205 -0.1221 -0.3244 -0.3928
  680MOL0     C89654   6.870   9.492   0.108  0.5855 -0.2662  0.8946
  680MOL0     C89655   6.737   9.473   0.057 -0.6176 -0.0543  0.2304
  680MOL0     C89656   6.651   9.376   0.106  0.3036  0.2590 -0.6354
  680MOL0     C89657   6.509   9.372   0.067  0.1934  0.3205 -0.6439
  680MOL0     O89658   6.465   9.475  -0.015 -0.0274  0.0822 -0.3107
  680MOL0     C89659   6.337   9.476  -0.066  0.0942 -0.4710 -0.8442
  680MOL0     C89660   6.268   9.361  -0.099  1.2540 -0.6388 -0.3187
  680MOL0     C89661   6.140   9.363  -0.161 -0.5650 -0.6531 -0.2195
  680MOL0     C89662   6.091   9.489  -0.218  0.1230 -0.7810  0.0553
  680MOL0     O89663   5.972   9.482  -0.285  0.6782 -0.0249  0.3293
  680MOL0     C89664   5.900   9.604  -0.300 -0.5039 -0.5285 -0.8233
  680MOL0     C89665   5.765   9.561  -0.353 -0.0348 -0.1250  1.0503
  680MOL0     C89666   5.688   9.470  -0.262 -0.2087 -0.5207  0.3437
  680MOL0     C89667   5.533   9.467  -0.290 -0.1521 -0.1749 -0.2238
  680MOL0     C89668   5.494   9.442  -0.441  0.0079  0.5420 -0.3101
  680MOL0     C89669   5.349   9.424  -0.469  0.2667 -0.1544  0.1472
  680MOL0     C89670   5.272   9.555  -0.425 -0.6019  0.5407  0.0747
  680MOL0     C89671   5.327   9.687  -0.483  0.2821  0.5277  0.7229
  680MOL0    Cl89672   5.203   9.811  -0.500  0.2017  0.0417 -0.3075
  680MOL0     C89673   6.168   9.607  -0.194 -0.1779 -0.0373  0.7889
  680MOL0     C89674   6.285   9.594  -0.115 -0.0622 -0.1617  0.5107
  680MOL0     O89675   6.433   9.293   0.134 -0.7389 -0.7177 -0.3586
  680MOL0     C89676   6.696   9.297   0.209 -0.8102  0.6940 -0.1386
  680MOL0     C89677   6.833   9.303   0.254 -0.5256  0.2303 -0.2721
  680MOL0     N89678   7.547   9.677   0.316 -0.2375 -0.0965  0.1368
  680MOL0     N89679   7.660   9.654   0.246 -0.2908  0.0921  0.8663
  680MOL0     C89680   8.824   9.129   0.207 -0.8776 -0.3672  0.2118
  680MOL0     C89681   8.957   9.120   0.256  0.2494  1.1205 -0.1530
  680MOL0     C89682   9.332   8.985   0.444 -0.7960  0.5865  0.0655
  680MOL0     C89683   9.404   8.917   0.347 -0.0060  0.0713  0.1716
  680MOL0     C89684   9.538   8.894   0.361 -0.2682  0.4546  0.7149
  680MOL0     C89685   9.612   8.929   0.474 -1.2387  0.4902  1.0274
  680MOL0     O89686   9.750   8.916   0.483  0.6302 -0.0465  0.4685
  680MOL0     C89687   9.820   8.864   0.366 -0.4469  0.2034 -0.1516
  680MOL0     C89688   9.966   8.868   0.398 -1.1821  0.5560  0.5332
  680MOL0     C89689  10.003   8.768   0.517 -0.0934  0.2664  0.4155
  680MOL0     C89690  10.157   8.775   0.535 -0.7266 -0.6557  0.7338
  680MOL0     C89691  10.220   8.668   0.622 -0.0303  1.1247  1.0663
  680MOL0     C89692  10.264   8.597   0.707  0.0156  0.1053  0.4723
  680MOL0     C89693   9.541   8.992   0.568 -0.4852  0.4831 -1.0231
  680MOL0     C89694   9.408   9.026   0.558 -0.3814  0.1998  0.1411
  680MOL0     H89695   8.980   8.781   0.263  1.7688  0.3122 -0.7058
  680MOL0     H89696   8.759   8.797   0.185  0.0050  0.3227 -0.4881
  680MOL0     H89697   8.557   9.200   0.088 -2.7741  1.6077 -0.4808
  680MOL0     H89698   8.536   9.175   0.258 -0.8899 -0.0383  0.1963
  680MOL0     H89699   8.346   9.032   0.214  1.8564 -0.3396  1.3687
  680MOL0     H89700   8.385   9.026   0.040  0.5547 -2.8601  1.4712
  680MOL0     H89701   8.337   9.279   0.048 -0.3603  0.7832  0.1090
  680MOL0     H89702   8.304   9.270   0.217 -0.5861  3.0292 -1.9629
  680MOL0     H89703   8.132   9.137   0.002  1.0965 -1.4515  0.8738
  680MOL0     H89704   8.119   9.091   0.159  1.1931 -2.3196 -2.5622
  680MOL0     H89705   8.091   9.397   0.088 -1.2574  1.4499  1.7747
  680MOL0     H89706   8.090   9.331   0.235  2.7989 -1.9949  0.3434
  680MOL0     H89707   7.872   9.210   0.199 -0.8955 -1.7930 -0.6048
  680MOL0     H89708   7.883   9.222   0.033 -0.9358 -0.9949  0.9281
  680MOL0     H89709   7.845   9.475   0.049 -2.3200  0.9984  1.0078
  680MOL0     H89710   7.716   9.377   0.107  0.3292 -3.1186 -0.1336
  680MOL0     H89711   7.919   9.563   0.236  0.0887 -0.0573 -0.4321
  680MOL0     H89712   7.874   9.426   0.336  0.9555  0.3768 -0.9145
  680MOL0     H89713   7.650   9.393   0.443  0.5056  0.5546  0.5922
  680MOL0     H89714   7.399   9.619   0.572 -0.7321  0.7382 -1.8608
  680MOL0     H89715   7.405   9.440   0.527 -1.6195 -0.7462 -2.3369
  680MOL0     H89716   7.270   9.682   0.384  2.6533  0.2538 -1.1297
  680MOL0     H89717   7.196   9.545   0.473  0.2487  1.5870  0.5777
  680MOL0     H89718   7.344   9.487   0.220 -2.0808  0.4903 -3.1055
  680MOL0     H89719   7.258   9.372   0.337  1.3134 -0.8362 -1.4658
  680MOL0     H89720   7.144   9.501   0.113 -1.0859  1.9410 -0.0343
  680MOL0     H89721   7.083   9.596   0.238  2.9282  1.6908 -1.3148
  680MOL0     H89722   6.928   9.574   0.069  3.0274 -1.7609  1.1993
  680MOL0     H89723   6.690   9.538  -0.015  0.1684 -0.2478 -0.4767
  680MOL0     H89724   6.301   9.259  -0.079 -2.4216 -2.1250 -1.0714
  680MOL0     H89725   6.075   9.278  -0.180  1.1518 -1.8767 -0.8668
  680MOL0     H89726   5.955   9.667  -0.371 -0.8355  1.0536  0.2552
  680MOL0     H89727   5.889   9.651  -0.201  1.4650 -0.0260 -0.8019
  680MOL0     H89728   5.769   9.518  -0.453 -1.1080 -0.7228  1.2472
  680MOL0     H89729   5.707   9.654  -0.362  2.0662  1.1112 -0.6210
  680MOL0     H89730   5.718   9.509  -0.164 -2.8943  2.9452 -0.0366
  680MOL0     H89731   5.721   9.366  -0.268  0.7610 -0.1635 -1.3420
  680MOL0     H89732   5.479   9.398  -0.225 -1.7557  1.7411  0.6051
  680MOL0     H89733   5.492   9.563  -0.255  2.6811  0.9992  0.1715
  680MOL0     H89734   5.541   9.353  -0.483  3.2977  2.3285 -0.7510
  680MOL0     H89735   5.536   9.529  -0.494 -0.5740  0.4340 -0.9762
  680MOL0     H89736   5.310   9.340  -0.410 -0.5081  2.2487  3.3687
  680MOL0     H89737   5.341   9.410  -0.577 -2.4891 -0.4526  0.3133
  680MOL0     H89738   5.168   9.536  -0.453 -0.4257 -2.1413  0.8904
  680MOL0     H89739   5.276   9.555  -0.315  0.6160  2.4743  0.0668
  680MOL0     H89740   5.374   9.669  -0.580  1.7574  0.4915  1.4057
  680MOL0     H89741   5.414   9.734  -0.435  1.4217  1.9935 -2.4662
  680MOL0     H89742   6.131   9.698  -0.241  1.9858  1.2799  1.5388
  680MOL0     H89743   6.341   9.687  -0.101 -0.4803 -0.0238  1.3170
  680MOL0     H89744   6.639   9.225   0.266  1.0436 -1.0287 -0.3245
  680MOL0     H89745   6.878   9.238   0.329  0.9808  0.8542 -0.5940
  680MOL0     H89746   8.787   9.231   0.204 -0.6631 -0.2878  0.2271
  680MOL0     H89747   9.022   9.205   0.270  3.6419 -1.1183 -1.1122
  680MOL0     H89748   9.359   8.870   0.260  1.7039 -3.9943  1.2672
  680MOL0     H89749   9.571   8.835   0.276 -3.2285  1.5692 -1.3954
  680MOL0     H89750   9.793   8.934   0.286 -1.1605  1.6241  1.2802
  680MOL0     H89751   9.788   8.763   0.340 -2.1536 -0.0935  2.7231
  680MOL0     H89752  10.023   8.838   0.310 -0.5681 -2.2113  1.7519
  680MOL0     H89753  10.008   8.966   0.419  0.9323 -0.1304 -0.2549
  680MOL0     H89754   9.980   8.669   0.476 -1.3151  1.1692 -1.1914
  680MOL0     H89755   9.953   8.783   0.612 -1.0330 -1.6312  0.2727
  680MOL0     H89756  10.203   8.783   0.436  0.9972  0.5734  1.5652
  680MOL0     H89757  10.191   8.870   0.579 -1.0820 -0.8887  1.5126
  680MOL0     H89758  10.277   8.546   0.800  1.9554  2.2261  1.4581
  680MOL0     H89759   9.610   9.022   0.647  0.0270 -1.9019 -0.4982
  680MOL0     H89760   9.355   9.069   0.643  0.5885 -1.2310  1.5229
  681MOL0     O89761   7.035   3.985   6.112  0.0069 -0.5102  0.3906
  681MOL0     C89762   7.140   4.034   6.068  0.4032 -0.7941 -0.0269
  681MOL0     O89763   7.147   4.072   5.937 -0.2771 -0.6947  0.3260
  681MOL0     C89764   7.035   4.043   5.856 -0.2663 -0.3735 -0.0824
  681MOL0     C89765   7.044   3.951   5.750  0.1550 -0.0361 -0.0289
  681MOL0     C89766   6.955   3.954   5.640 -0.4824 -0.1506  0.2882
  681MOL0     C89767   6.844   4.041   5.642  0.2816  0.4894  0.1900
  681MOL0     O89768   6.758   4.051   5.537  1.0395 -0.2007  0.4095
  681MOL0     C89769   6.792   4.154   5.443 -0.0776 -0.4405  0.0894
  681MOL0     C89770   6.795   4.098   5.304 -0.8805 -0.1786 -0.3796
  681MOL0     C89771   6.657   4.046   5.248 -0.0560 -0.3429 -0.1872
  681MOL0     C89772   6.700   3.995   5.108  0.8001  0.3675  0.7256
  681MOL0     C89773   6.572   3.936   5.046 -0.3550 -0.8316  0.1600
  681MOL0     C89774   6.607   3.891   4.898 -0.7205  0.5928  0.5128
  681MOL0     C89775   6.485   3.890   4.813  0.4229 -0.1965 -0.9713
  681MOL0     C89776   6.389   3.773   4.847 -0.3056 -0.3321  0.5248
  681MOL0     N89777   6.258   3.790   4.779  0.1179  0.4203 -0.2077
  681MOL0     C89778   6.213   3.763   4.648 -0.1399  0.2010 -0.5741
  681MOL0     C89779   6.088   3.809   4.646 -0.3975  0.3175 -0.1010
  681MOL0     C89780   6.005   3.806   4.515 -0.2943 -0.2861 -0.5065
  681MOL0     C89781   5.983   3.664   4.464 -0.5345 -0.2533  0.6838
  681MOL0     C89782   5.925   3.667   4.324 -0.2071 -0.3459  0.6028
  681MOL0     C89783   5.771   3.681   4.320 -0.4412  0.4978  0.1844
  681MOL0     O89784   5.712   3.549   4.334 -0.5187  0.3222 -0.2954
  681MOL0     C89785   5.582   3.513   4.293 -0.0189 -0.0014  0.3480
  681MOL0     C89786   5.477   3.587   4.341 -0.3028  0.7529 -0.0032
  681MOL0     C89787   5.349   3.546   4.307 -0.2625 -0.0867  1.0503
  681MOL0     C89788   5.325   3.427   4.231 -0.3974 -0.0036  0.8105
  681MOL0     C89789   5.196   3.384   4.193 -0.1103 -0.2241  0.6379
  681MOL0     O89790   5.191   3.261   4.138  0.1187  0.5247  0.0180
  681MOL0     C89791   5.072   3.213   4.099 -0.9128 -0.1788 -0.0601
  681MOL0     C89792   4.981   3.177   4.196  0.7915  1.1555  0.6409
  681MOL0     C89793   4.866   3.099   4.159 -0.2860 -0.2521  0.6485
  681MOL0     C89794   4.853   3.068   4.023 -0.2684  0.6691  0.1091
  681MOL0     O89795   4.751   2.990   3.993 -0.0673  0.3044  0.0921
  681MOL0     C89796   4.777   2.856   3.946  0.8763  0.0097  0.2090
  681MOL0     C89797   4.656   2.773   3.920 -0.5596  1.6154 -0.6346
  681MOL0     C89798   4.568   2.758   4.045 -0.0398 -0.8998  0.9143
  681MOL0     C89799   4.471   2.651   4.023 -0.1335  0.0517 -0.1156
  681MOL0     C89800   4.365   2.650   4.133 -0.3535  0.0138  0.1061
  681MOL0     C89801   4.265   2.532   4.140  0.3027 -0.0393  0.4466
  681MOL0     C89802   4.145   2.564   4.235  1.5821  0.3631  0.0997
  681MOL0     C89803   4.031   2.454   4.217  0.4424 -0.0168  0.6184
  681MOL0    Cl89804   3.870   2.502   4.268  0.1140 -0.4114 -0.0375
  681MOL0     C89805   4.941   3.122   3.925  0.3539  0.8492 -0.1913
  681MOL0     C89806   5.046   3.195   3.963 -0.3976 -0.0123  0.1643
  681MOL0     O89807   5.101   3.453   4.227  0.1467 -0.7588 -0.2544
  681MOL0     C89808   5.439   3.348   4.193  0.4554  0.4420  0.2741
  681MOL0     C89809   5.568   3.401   4.212  0.2366  0.6648 -0.5473
  681MOL0     N89810   6.049   3.846   4.773  0.1943  0.2256  0.0322
  681MOL0     N89811   6.144   3.816   4.852 -0.2918 -0.5585 -0.3923
  681MOL0     C89812   6.822   4.126   5.747 -0.1254  0.6951 -0.2484
  681MOL0     C89813   6.923   4.130   5.850 -0.4543 -0.6798  0.6480
  681MOL0     C89814   7.264   4.059   6.147  0.0803  0.0303 -0.2120
  681MOL0     C89815   7.375   4.128   6.090  0.0791  0.7049  0.3036
  681MOL0     C89816   7.494   4.148   6.172  0.8407 -0.8614 -1.0680
  681MOL0     C89817   7.489   4.111   6.302 -0.4582  0.2391 -0.6254
  681MOL0     O89818   7.600   4.126   6.384  0.6815  0.2941 -0.1931
  681MOL0     C89819   7.591   4.221   6.486  0.0574 -0.2047 -1.2159
  681MOL0     C89820   7.677   4.348   6.473  0.4813 -1.0483 -0.0423
  681MOL0     C89821   7.595   4.465   6.415 -0.5265 -1.2871 -0.1134
  681MOL0     C89822   7.682   4.557   6.320 -0.3837  0.3250 -0.9159
  681MOL0     C89823   7.693   4.509   6.185 -0.5753  0.1681  0.2102
  681MOL0     C89824   7.704   4.464   6.066 -0.2644 -0.4322  0.2669
  681MOL0     C89825   7.380   4.048   6.352  1.4248  0.5293 -0.2540
  681MOL0     C89826   7.275   3.996   6.272  0.1722  0.0738  0.1260
  681MOL0     H89827   7.125   3.879   5.749  0.7132  0.5451  0.8002
  681MOL0     H89828   6.985   3.891   5.557 -0.3791 -1.8061  1.5184
  681MOL0     H89829   6.892   4.196   5.458 -1.7076  4.1765 -0.3980
  681MOL0     H89830   6.724   4.239   5.441 -1.5802 -1.5963 -2.2171
  681MOL0     H89831   6.866   4.015   5.311 -1.0738 -0.1879  2.2766
  681MOL0     H89832   6.846   4.159   5.230  0.6696 -1.4437 -0.4062
  681MOL0     H89833   6.585   4.127   5.232  0.4625 -0.1904 -2.0118
  681MOL0     H89834   6.610   3.968   5.307  2.2107 -1.3525  0.3755
  681MOL0     H89835   6.742   4.078   5.051 -0.6272  0.9658  0.5069
  681MOL0     H89836   6.768   3.909   5.117  1.4982  0.7229 -0.7508
  681MOL0     H89837   6.497   4.016   5.038 -1.4877 -2.0730 -4.7913
  681MOL0     H89838   6.532   3.860   5.114 -2.7531 -0.8574 -1.1639
  681MOL0     H89839   6.653   3.793   4.909  3.4346  2.3440  0.5581
  681MOL0     H89840   6.669   3.967   4.850 -0.7906  1.0472  1.1260
  681MOL0     H89841   6.439   3.990   4.806 -1.2994 -0.9457 -0.9496
  681MOL0     H89842   6.518   3.873   4.710 -1.4555 -0.8601 -1.5080
  681MOL0     H89843   6.378   3.766   4.955 -0.4847  0.6656  0.5790
  681MOL0     H89844   6.423   3.676   4.808 -2.2594 -1.3153  1.1273
  681MOL0     H89845   6.272   3.737   4.560  0.6547 -1.3757  0.3825
  681MOL0     H89846   6.048   3.871   4.439  1.1711 -0.3975  0.1965
  681MOL0     H89847   5.910   3.854   4.540 -0.0020 -0.7048  1.5559
  681MOL0     H89848   5.928   3.601   4.535  2.7344 -1.3094  2.4876
  681MOL0     H89849   6.084   3.623   4.459  0.8669  2.5518  2.9945
  681MOL0     H89850   5.965   3.755   4.274  0.7073 -1.5920 -0.9648
  681MOL0     H89851   5.959   3.576   4.274  0.6172  0.2837 -0.0113
  681MOL0     H89852   5.741   3.726   4.225 -1.0605 -1.8454 -0.8053
  681MOL0     H89853   5.741   3.747   4.402 -0.5230  0.1567  0.4313
  681MOL0     H89854   5.491   3.675   4.403 -0.9524  0.1472  1.0374
  681MOL0     H89855   5.269   3.611   4.341  1.1956  2.0717  0.5367
  681MOL0     H89856   5.006   3.201   4.299  1.3641 -0.3641  0.8907
  681MOL0     H89857   4.820   3.052   4.245 -0.6280  0.8749  1.0917
  681MOL0     H89858   4.840   2.805   4.020 -2.6789 -1.8890  2.2142
  681MOL0     H89859   4.828   2.866   3.850 -1.0630  0.9240 -0.7842
  681MOL0     H89860   4.692   2.672   3.895 -0.8309  1.1633  0.7388
  681MOL0     H89861   4.600   2.817   3.837 -0.0125  0.9166 -1.3960
  681MOL0     H89862   4.500   2.844   4.051 -1.7147 -2.2313  1.9900
  681MOL0     H89863   4.621   2.754   4.140  2.1763  1.4720 -0.0945
  681MOL0     H89864   4.415   2.650   3.929 -0.9723 -3.2937  0.2668
  681MOL0     H89865   4.526   2.556   4.027  0.8375  0.6385  2.2784
  681MOL0     H89866   4.307   2.742   4.122  0.4354  0.6008  0.7243
  681MOL0     H89867   4.413   2.669   4.229  2.4952  0.4479 -1.2718
  681MOL0     H89868   4.317   2.444   4.178 -0.3155 -1.0195 -0.8850
  681MOL0     H89869   4.222   2.513   4.041  0.5432 -0.9993  0.5145
  681MOL0     H89870   4.185   2.558   4.337  2.8669 -0.4006 -0.4378
  681MOL0     H89871   4.093   2.658   4.218  3.5966  2.1860  3.0950
  681MOL0     H89872   4.057   2.361   4.269 -2.7524 -1.3825 -0.0140
  681MOL0     H89873   4.023   2.427   4.111 -0.8532  2.9757 -0.1209
  681MOL0     H89874   4.929   3.112   3.817  1.5341 -0.9437 -0.1975
  681MOL0     H89875   5.117   3.242   3.896  2.5784 -0.4008  2.8283
  681MOL0     H89876   5.424   3.252   4.144  0.4630  0.0713  0.9780
  681MOL0     H89877   5.655   3.344   4.182  0.6283  1.5937 -1.2467
  681MOL0     H89878   6.739   4.196   5.745 -1.9153 -1.3333 -1.9103
  681MOL0     H89879   6.914   4.204   5.929  2.1850  1.0093 -0.4929
  681MOL0     H89880   7.380   4.152   5.985 -0.8486 -3.7415 -0.9525
  681MOL0     H89881   7.577   4.205   6.133 -0.2818  0.3010 -1.8386
  681MOL0     H89882   7.646   4.177   6.570 -0.0489  1.4738 -0.2390
  681MOL0     H89883   7.486   4.227   6.517  0.0925 -1.7423 -0.7194
  681MOL0     H89884   7.711   4.385   6.570  2.9409  1.7195 -1.7836
  681MOL0     H89885   7.768   4.323   6.417  0.7483  0.5526 -0.3822
  681MOL0     H89886   7.545   4.518   6.496  1.1713 -1.2495  0.9721
  681MOL0     H89887   7.515   4.423   6.354 -1.7022  0.0044  0.4821
  681MOL0     H89888   7.645   4.660   6.319  2.3091  1.3723 -1.8056
  681MOL0     H89889   7.783   4.556   6.362 -0.3869 -2.1503 -0.8355
  681MOL0     H89890   7.734   4.443   5.966  0.6321 -2.6461  0.9432
  681MOL0     H89891   7.370   4.025   6.458 -0.7413  2.4984  0.0716
  681MOL0     H89892   7.194   3.939   6.316 -0.7044  2.3644  1.6858
  682MOL0     O89893   2.097   6.990   2.833  0.3327  0.7309  0.1312
  682MOL0     C89894   2.168   6.907   2.901  0.1124  0.2403  0.5059
  682MOL0     O89895   2.128   6.828   2.997 -0.3216  0.3314  0.1651
  682MOL0     C89896   1.998   6.839   3.040  0.2713 -0.4143 -0.0599
  682MOL0     C89897   1.892   6.809   2.949 -0.0417  0.0569 -0.2161
  682MOL0     C89898   1.760   6.808   3.001  1.5305 -0.5074  0.0407
  682MOL0     C89899   1.734   6.821   3.139  0.0122  0.1292  0.2509
  682MOL0     O89900   1.604   6.813   3.174 -0.1533  0.1373 -0.5958
  682MOL0     C89901   1.582   6.778   3.311 -0.2270  0.6098 -0.2027
  682MOL0     C89902   1.432   6.745   3.342 -0.0585 -0.4772  0.0457
  682MOL0     C89903   1.427   6.589   3.367 -0.0320  0.2712  0.5875
  682MOL0     C89904   1.285   6.560   3.418 -0.6444  0.2098 -0.1633
  682MOL0     C89905   1.266   6.416   3.473  1.3336  0.0704  0.2775
  682MOL0     C89906   1.125   6.412   3.545 -0.0574  0.5490 -0.8759
  682MOL0     C89907   1.007   6.419   3.443  0.0181  0.0954  0.5572
  682MOL0     C89908   0.866   6.390   3.497  0.3251  0.6064  0.0363
  682MOL0     N89909   0.815   6.485   3.602  0.0781 -0.5956 -0.7594
  682MOL0     C89910   0.745   6.603   3.579 -0.2006 -0.0738 -0.6877
  682MOL0     C89911   0.717   6.661   3.702 -0.6163  0.5676  0.3264
  682MOL0     C89912   0.651   6.787   3.712  0.2844  0.0730  0.3485
  682MOL0     C89913   0.498   6.783   3.689 -0.2598  0.5454  0.2908
  682MOL0     C89914   0.443   6.925   3.726 -0.5255  0.2481  0.5154
  682MOL0     C89915   0.305   6.965   3.671  0.6212  0.3496 -0.3636
  682MOL0     O89916   0.209   6.854   3.698 -0.0090 -0.1749 -0.1545
  682MOL0     C89917   0.076   6.873   3.678  1.0926  0.2876  1.0069
  682MOL0     C89918   0.001   6.758   3.694 -0.6445  0.7431  0.2343
  682MOL0     C89919  -0.136   6.760   3.681  0.0827  0.0161 -0.1823
  682MOL0     C89920  -0.201   6.877   3.645  0.5716 -0.4222 -0.9684
  682MOL0     C89921  -0.358   6.878   3.637 -0.3530 -0.4963  0.3428
  682MOL0     O89922  -0.416   6.756   3.677  0.0075 -0.0805 -0.2791
  682MOL0     C89923  -0.546   6.716   3.655 -0.1587  0.7209  1.0986
  682MOL0     C89924  -0.654   6.805   3.611 -0.2120  0.8001 -0.2269
  682MOL0     C89925  -0.782   6.760   3.583 -0.3070  0.2257  0.1142
  682MOL0     C89926  -0.814   6.636   3.601  0.2756 -0.0498 -1.0575
  682MOL0     O89927  -0.938   6.584   3.588 -0.5054 -0.7728 -0.7413
  682MOL0     C89928  -1.037   6.679   3.582 -0.5252 -0.1734  0.0805
  682MOL0     C89929  -1.170   6.596   3.565 -0.3135 -0.2558 -0.6883
  682MOL0     C89930  -1.297   6.688   3.532 -0.9298  0.5517  0.1442
  682MOL0     C89931  -1.431   6.638   3.558 -0.4056  0.6123 -0.4666
  682MOL0     C89932  -1.536   6.755   3.560 -0.5173 -0.4769  0.0972
  682MOL0     C89933  -1.670   6.691   3.580  0.6204 -0.2767  0.4657
  682MOL0     C89934  -1.785   6.792   3.559 -0.4268 -0.2273  0.6094
  682MOL0     C89935  -1.916   6.741   3.621 -0.1838  0.5540  0.0066
  682MOL0    Cl89936  -1.952   6.573   3.563 -0.1371 -0.0033 -0.0762
  682MOL0     C89937  -0.713   6.546   3.647 -0.5668 -0.7866 -0.1036
  682MOL0     C89938  -0.580   6.583   3.671  0.0801 -0.5448  0.6596
  682MOL0     O89939  -0.416   6.969   3.584 -0.1537 -0.4338  0.2911
  682MOL0     C89940  -0.126   6.994   3.619  0.3290 -0.6774 -0.7523
  682MOL0     C89941   0.016   6.990   3.641 -0.7664 -0.7165  0.1591
  682MOL0     N89942   0.796   6.580   3.790  0.0449  0.2914 -0.1552
  682MOL0     N89943   0.851   6.486   3.730 -0.0767  0.4977 -1.0377
  682MOL0     C89944   1.841   6.839   3.234 -0.4492 -0.2015 -0.2807
  682MOL0     C89945   1.972   6.849   3.180 -0.3430 -0.1997  0.6904
  682MOL0     C89946   2.309   6.915   2.852  0.6713 -0.7476 -0.1679
  682MOL0     C89947   2.402   6.842   2.925 -0.3877  0.1318  0.4699
  682MOL0     C89948   2.538   6.870   2.902 -0.2886 -0.2254  0.4946
  682MOL0     C89949   2.581   6.949   2.795  0.7592  0.4088  0.0278
  682MOL0     O89950   2.716   6.954   2.770 -0.6449  0.5726 -0.2624
  682MOL0     C89951   2.773   7.015   2.652 -0.0558 -0.3019  0.3055
  682MOL0     C89952   2.916   6.976   2.671 -0.5724 -0.4455 -0.5165
  682MOL0     C89953   3.010   7.035   2.568 -0.1137  0.4477  0.2415
  682MOL0     C89954   3.152   7.027   2.624  0.1626 -0.4984 -0.0837
  682MOL0     C89955   3.237   7.110   2.539 -0.1000  0.6817 -1.1754
  682MOL0     C89956   3.325   7.152   2.469 -0.3177 -1.6680 -0.3129
  682MOL0     C89957   2.487   7.012   2.713  0.0633 -0.1318 -0.0136
  682MOL0     C89958   2.353   6.991   2.739 -0.5049  0.0494 -0.2631
  682MOL0     H89959   1.918   6.783   2.847 -2.2776  1.8346 -1.3344
  682MOL0     H89960   1.677   6.797   2.932 -0.0018  2.6818  1.1854
  682MOL0     H89961   1.611   6.865   3.371 -0.6617  2.0233 -1.9401
  682MOL0     H89962   1.649   6.698   3.342  0.3252  1.4786  0.9182
  682MOL0     H89963   1.368   6.777   3.258  2.5388  0.0782 -1.8452
  682MOL0     H89964   1.404   6.809   3.426  0.5478 -0.4788  0.2550
  682MOL0     H89965   1.498   6.561   3.445  0.3382  0.7500  0.4283
  682MOL0     H89966   1.443   6.541   3.270  1.2486 -0.0060  0.9173
  682MOL0     H89967   1.267   6.629   3.502  1.2502  0.4004  0.1486
  682MOL0     H89968   1.216   6.576   3.335  0.8094  1.5432 -1.1696
  682MOL0     H89969   1.356   6.386   3.527  1.2668 -1.8714 -0.5861
  682MOL0     H89970   1.252   6.346   3.390 -2.9235  0.1791  0.6660
  682MOL0     H89971   1.113   6.492   3.618  2.7782  0.6056 -0.3616
  682MOL0     H89972   1.117   6.319   3.603  1.1066 -0.1347 -1.7738
  682MOL0     H89973   1.015   6.515   3.390  1.0364 -0.1502  0.2519
  682MOL0     H89974   1.019   6.338   3.371 -3.6000 -2.5307  2.5630
  682MOL0     H89975   0.868   6.292   3.545  1.6122  0.7813  0.3854
  682MOL0     H89976   0.787   6.387   3.422 -4.0453  3.0217  3.9926
  682MOL0     H89977   0.709   6.636   3.483  0.0082  0.3279 -0.6273
  682MOL0     H89978   0.707   6.848   3.641  1.9361 -0.9927  0.6794
  682MOL0     H89979   0.675   6.820   3.814  0.1747 -2.4883  1.2730
  682MOL0     H89980   0.445   6.714   3.755  3.0470  1.3042  4.1741
  682MOL0     H89981   0.497   6.754   3.584  2.7552  1.0479  0.0176
  682MOL0     H89982   0.455   6.938   3.834 -0.8513 -1.5712  0.8132
  682MOL0     H89983   0.516   6.993   3.680  0.0937 -0.6346  0.1594
  682MOL0     H89984   0.323   6.974   3.563  2.3933 -2.1454 -0.3540
  682MOL0     H89985   0.273   7.061   3.713 -1.7646 -0.8344  0.6543
  682MOL0     H89986   0.046   6.662   3.716 -1.2056  0.0312 -1.5326
  682MOL0     H89987  -0.184   6.663   3.676  1.8893 -0.8410 -1.8016
  682MOL0     H89988  -0.639   6.912   3.623  0.0463  0.9970 -1.9283
  682MOL0     H89989  -0.849   6.842   3.556  1.2569  1.2378 -0.8692
  682MOL0     H89990  -1.025   6.748   3.498  0.0104  2.3475  2.1024
  682MOL0     H89991  -1.034   6.740   3.673 -2.8486  0.3489 -0.1324
  682MOL0     H89992  -1.195   6.536   3.654  0.2559  0.9420  0.3081
  682MOL0     H89993  -1.166   6.527   3.480 -4.0201  0.0874 -1.2958
  682MOL0     H89994  -1.303   6.710   3.425 -3.2201  1.9999  0.5072
  682MOL0     H89995  -1.293   6.785   3.582  1.9442  0.1386  0.8770
  682MOL0     H89996  -1.461   6.566   3.480  0.6893 -0.4773  0.0938
  682MOL0     H89997  -1.436   6.590   3.656 -1.1772 -1.8762 -1.6519
  682MOL0     H89998  -1.545   6.803   3.462  0.9004  4.0895  1.9184
  682MOL0     H89999  -1.507   6.827   3.637  2.2561  0.1572 -1.4198
  682MOL0     H90000  -1.674   6.652   3.682 -0.9015 -1.5588 -0.0377
  682MOL0     H90001  -1.673   6.613   3.504 -1.6468  0.0346  0.1758
  682MOL0     H90002  -1.773   6.894   3.596  2.1138 -0.2568  0.0239
  682MOL0     H90003  -1.800   6.804   3.452 -0.4162 -0.9346  0.5253
  682MOL0     H90004  -2.002   6.805   3.599  0.1707  0.4930 -1.6439
  682MOL0     H90005  -1.902   6.738   3.730  0.1523  2.0527  0.0177
  682MOL0     H90006  -0.751   6.446   3.666 -0.3369 -1.2633 -1.9552
  682MOL0     H90007  -0.503   6.510   3.695  0.5138  0.1329  1.3677
  682MOL0     H90008  -0.175   7.089   3.600 -3.0464 -1.9237  0.9674
  682MOL0     H90009   0.072   7.083   3.638  0.6408 -1.5387  0.4440
  682MOL0     H90010   1.823   6.828   3.340 -1.0737 -0.5183 -0.4125
  682MOL0     H90011   2.055   6.853   3.250 -1.3469  0.1393  1.9055
  682MOL0     H90012   2.387   6.783   3.015  1.8988  2.1818  2.3311
  682MOL0     H90013   2.620   6.840   2.966  1.4899  3.0193 -0.0515
  682MOL0     H90014   2.759   7.124   2.657 -0.0199 -0.2428 -0.6794
  682MOL0     H90015   2.743   6.979   2.554  1.4457 -0.6898 -0.0241
  682MOL0     H90016   2.936   7.030   2.764 -0.9887  0.3870 -0.8973
  682MOL0     H90017   2.924   6.868   2.686 -1.3796 -0.5927 -1.1073
  682MOL0     H90018   2.981   7.137   2.542 -1.2287  0.4390  1.3476
  682MOL0     H90019   3.019   6.971   2.480  1.2015  0.2192  0.5200
  682MOL0     H90020   3.157   7.072   2.724  1.2431  2.6788 -1.4590
  682MOL0     H90021   3.191   6.925   2.623  2.1001  0.1471  1.9309
  682MOL0     H90022   3.370   7.205   2.387  1.4473 -0.8541  1.1031
  682MOL0     H90023   2.521   7.081   2.636 -2.8739  0.6041 -0.7424
  682MOL0     H90024   2.280   7.037   2.672 -0.5180  2.6877  1.4148
  683MOL0     O90025   9.002   4.636  10.039 -0.2242  0.0622  0.1598
  683MOL0     C90026   9.112   4.694  10.073  0.5842  0.1229 -0.9718
  683MOL0     O90027   9.166   4.798  10.008  0.1693 -0.8410 -0.1696
  683MOL0     C90028   9.101   4.847   9.897  0.2310 -0.0330  0.3588
  683MOL0     C90029   8.978   4.926   9.905 -1.0665  0.3562  0.5025
  683MOL0     C90030   8.923   4.985   9.791  0.1985  0.1955 -0.3356
  683MOL0     C90031   8.989   4.972   9.666  0.3554  0.7608 -0.0324
  683MOL0     O90032   8.944   5.025   9.547 -0.0466  0.1510  0.1681
  683MOL0     C90033   8.806   5.022   9.527  0.2909 -0.5405  0.0581
  683MOL0     C90034   8.731   5.153   9.565 -0.2068 -0.1529 -0.5060
  683MOL0     C90035   8.582   5.143   9.547  0.8532 -0.2875 -0.0809
  683MOL0     C90036   8.525   5.267   9.471  0.7859 -0.2708 -0.3375
  683MOL0     C90037   8.371   5.287   9.496 -0.2802 -0.1347  0.3422
  683MOL0     C90038   8.293   5.186   9.421  0.2031  0.7962 -0.1927
  683MOL0     C90039   8.142   5.194   9.456 -0.1804  0.1445  0.8196
  683MOL0     C90040   8.070   5.335   9.434 -0.2092 -0.7187  0.2028
  683MOL0     N90041   7.929   5.313   9.447  0.8411  0.1223 -0.3439
  683MOL0     C90042   7.856   5.303   9.564  0.4964 -0.0685  0.0425
  683MOL0     C90043   7.725   5.304   9.517 -0.4842  0.3472  0.9813
  683MOL0     C90044   7.612   5.333   9.613  0.4973 -0.3752 -0.0999
  683MOL0     C90045   7.564   5.482   9.626 -0.1001 -0.2065 -0.3104
  683MOL0     C90046   7.439   5.486   9.711 -1.0972 -0.2921 -0.6340
  683MOL0     C90047   7.309   5.450   9.631 -0.6524  0.1425 -0.2728
  683MOL0     O90048   7.203   5.434   9.720 -1.1687 -0.6116  0.5367
  683MOL0     C90049   7.077   5.424   9.684  0.5745 -0.0073  0.1423
  683MOL0     C90050   7.037   5.468   9.559 -0.2974  0.2322 -0.0470
  683MOL0     C90051   6.903   5.477   9.519 -0.2624 -0.2651  0.3482
  683MOL0     C90052   6.808   5.421   9.603 -0.5023 -0.0056 -0.0455
  683MOL0     C90053   6.672   5.416   9.569  0.0612 -0.1505  0.2041
  683MOL0     O90054   6.592   5.351   9.662 -0.6579 -0.0632  0.2104
  683MOL0     C90055   6.462   5.320   9.632 -0.8579 -0.1170  0.7777
  683MOL0     C90056   6.368   5.415   9.587  0.3552 -0.4393  0.2272
  683MOL0     C90057   6.245   5.365   9.552  0.1683 -0.1577 -0.6594
  683MOL0     C90058   6.222   5.224   9.556 -0.0870 -0.2191  0.1342
  683MOL0     O90059   6.103   5.180   9.514  0.9433 -0.6961  0.0443
  683MOL0     C90060   6.049   5.054   9.545 -0.2603  0.3147 -0.3312
  683MOL0     C90061   5.910   5.053   9.476  0.0211  0.5941  0.2265
  683MOL0     C90062   5.854   4.906   9.493 -0.0174 -0.0652  0.5293
  683MOL0     C90063   5.729   4.887   9.408  0.6763  0.0156 -0.7517
  683MOL0     C90064   5.681   4.746   9.421  0.2952  0.3254 -1.2225
  683MOL0     C90065   5.652   4.683   9.562  0.7386  0.6613 -1.5219
  683MOL0     C90066   5.571   4.780   9.650 -0.3290 -0.2747 -1.2126
  683MOL0     C90067   5.441   4.819   9.596  0.1845 -0.5977 -0.9246
  683MOL0    Cl90068   5.315   4.692   9.631  0.3543 -0.3345  0.3059
  683MOL0     C90069   6.310   5.140   9.618 -0.6223  0.6090  0.7599
  683MOL0     C90070   6.431   5.187   9.652  0.2156  0.5128  0.3071
  683MOL0     O90071   6.629   5.468   9.467  0.5498 -0.0965 -0.0948
  683MOL0     C90072   6.849   5.365   9.729  0.1620 -0.1791  0.4419
  683MOL0     C90073   6.983   5.367   9.773 -1.0730  0.5344 -0.6248
  683MOL0     N90074   7.722   5.309   9.376 -0.5115  0.3231  0.9603
  683MOL0     N90075   7.843   5.325   9.336 -0.1406  0.0077 -0.1861
  683MOL0     C90076   9.110   4.897   9.650 -0.2482 -0.5393 -0.9642
  683MOL0     C90077   9.156   4.833   9.767 -0.2693 -0.1534 -0.0401
  683MOL0     C90078   9.186   4.653  10.186 -0.3770  0.4551  0.6352
  683MOL0     C90079   9.127   4.630  10.310  0.0630  0.1611  0.1336
  683MOL0     C90080   9.210   4.593  10.419 -0.0696  0.0679  0.0106
  683MOL0     C90081   9.348   4.583  10.408 -0.5160  0.5861  0.1252
  683MOL0     O90082   9.426   4.565  10.528 -0.7551 -0.1001  0.6591
  683MOL0     C90083   9.572   4.559  10.510  0.2237 -0.5079  0.6561
  683MOL0     C90084   9.637   4.498  10.630  0.0253 -0.1587  0.7873
  683MOL0     C90085   9.790   4.496  10.647  0.1090  0.1146  0.0135
  683MOL0     C90086   9.863   4.410  10.541 -0.3519 -0.2028 -0.0202
  683MOL0     C90087  10.003   4.439  10.552 -0.3093 -0.1236 -0.6448
  683MOL0     C90088  10.121   4.464  10.549 -0.2094  0.4927  0.0235
  683MOL0     C90089   9.408   4.611  10.283 -0.0991 -0.4458 -0.6521
  683MOL0     C90090   9.332   4.638  10.170 -0.5649  1.0328  0.6195
  683MOL0     H90091   8.937   4.923  10.006  1.8207 -0.1374  1.7708
  683MOL0     H90092   8.838   5.053   9.799 -0.1949  0.0999 -2.9067
  683MOL0     H90093   8.754   4.949   9.590 -0.1469  1.6040  2.3510
  683MOL0     H90094   8.780   5.021   9.420  0.8095 -0.2741 -0.0713
  683MOL0     H90095   8.777   5.224   9.496  0.0192  1.4648  1.2096
  683MOL0     H90096   8.756   5.196   9.663  1.7152 -0.0822 -1.0062
  683MOL0     H90097   8.533   5.125   9.643  0.7643  0.6803  0.0706
  683MOL0     H90098   8.551   5.055   9.490 -0.4287  0.0297  0.0913
  683MOL0     H90099   8.578   5.357   9.502 -1.3066  1.1350 -0.5936
  683MOL0     H90100   8.535   5.257   9.363 -0.2931  0.6401 -0.5344
  683MOL0     H90101   8.337   5.390   9.482 -0.3617  0.3775  3.4939
  683MOL0     H90102   8.355   5.283   9.604 -0.9623  0.0888  0.2519
  683MOL0     H90103   8.333   5.086   9.439  0.1555  0.9535  0.8406
  683MOL0     H90104   8.309   5.200   9.314  0.5511  1.5627 -0.0425
  683MOL0     H90105   8.085   5.109   9.415  1.2979  0.0213 -1.1404
  683MOL0     H90106   8.144   5.180   9.564 -2.8079  0.3004  0.9421
  683MOL0     H90107   8.083   5.360   9.328 -1.4624 -1.1792 -0.0765
  683MOL0     H90108   8.107   5.419   9.492 -2.6816  1.6830 -1.4622
  683MOL0     H90109   7.900   5.292   9.662  1.4660 -1.5592 -0.5330
  683MOL0     H90110   7.647   5.302   9.712  0.9416  0.0272 -0.1269
  683MOL0     H90111   7.522   5.277   9.584 -0.7727  2.0332 -1.0742
  683MOL0     H90112   7.542   5.518   9.525  3.4228 -0.4763 -1.3120
  683MOL0     H90113   7.645   5.542   9.669  0.4486 -1.6913  0.7985
  683MOL0     H90114   7.455   5.415   9.792 -1.3701 -0.9624 -1.1564
  683MOL0     H90115   7.441   5.586   9.755  0.5705 -1.9526  3.5485
  683MOL0     H90116   7.321   5.358   9.573 -1.5951 -0.2032  0.0706
  683MOL0     H90117   7.292   5.537   9.566 -3.7019  1.0193  1.4741
  683MOL0     H90118   7.103   5.507   9.482 -1.1379 -1.6073 -1.8248
  683MOL0     H90119   6.878   5.517   9.421 -0.7344 -1.6787 -0.1265
  683MOL0     H90120   6.393   5.520   9.579  1.8870 -0.6786  1.4075
  683MOL0     H90121   6.162   5.422   9.510  0.7318 -0.3766 -2.1538
  683MOL0     H90122   6.043   5.045   9.654 -2.3311  2.4244 -0.2017
  683MOL0     H90123   6.110   4.973   9.504  1.7706  0.2078  2.5333
  683MOL0     H90124   5.913   5.074   9.369 -0.2905  0.1021  0.1164
  683MOL0     H90125   5.851   5.137   9.515 -1.0750 -1.1542  2.6135
  683MOL0     H90126   5.848   4.870   9.596  0.7479 -0.5452  0.4172
  683MOL0     H90127   5.924   4.837   9.445 -0.2410  0.0227  0.0718
  683MOL0     H90128   5.657   4.962   9.442  2.4839  1.3645  0.2713
  683MOL0     H90129   5.747   4.911   9.303  2.7389 -4.9778 -1.8518
  683MOL0     H90130   5.759   4.685   9.374  0.6850 -1.6627  1.7533
  683MOL0     H90131   5.597   4.723   9.355 -0.2194 -1.7887  0.0687
  683MOL0     H90132   5.751   4.671   9.607  0.4131 -0.7728 -1.1258
  683MOL0     H90133   5.599   4.588   9.551  1.2974  0.3055 -1.1845
  683MOL0     H90134   5.548   4.734   9.747 -0.5877  0.3964 -0.9461
  683MOL0     H90135   5.641   4.863   9.666  2.3553 -2.7425  1.1173
  683MOL0     H90136   5.455   4.853   9.493 -0.0596  1.0896 -0.4210
  683MOL0     H90137   5.400   4.907   9.646 -0.5591 -0.8944 -1.0071
  683MOL0     H90138   6.274   5.042   9.650 -2.2971  1.2508  0.9297
  683MOL0     H90139   6.501   5.122   9.704  0.6437  1.0040  0.3650
  683MOL0     H90140   6.777   5.319   9.796  1.2218 -0.4201  1.4447
  683MOL0     H90141   7.017   5.319   9.864  4.0739  2.3017 -1.3124
  683MOL0     H90142   9.163   4.890   9.555  1.4076  0.6741 -0.1846
  683MOL0     H90143   9.248   4.777   9.772 -0.1533  0.1225  1.3769
  683MOL0     H90144   9.019   4.629  10.323  0.0994  1.2180  0.6170
  683MOL0     H90145   9.167   4.571  10.516  1.3403  0.7193  0.8143
  683MOL0     H90146   9.612   4.660  10.496  0.9284 -0.4683  2.5575
  683MOL0     H90147   9.601   4.497  10.425 -1.4594 -0.4293 -0.0036
  683MOL0     H90148   9.607   4.560  10.716  0.8339 -0.3492  1.2261
  683MOL0     H90149   9.604   4.394  10.636  2.2222 -1.0562 -1.1267
  683MOL0     H90150   9.815   4.451  10.743 -0.0085  1.5834  0.7529
  683MOL0     H90151   9.843   4.592  10.651 -1.4806  1.1089 -1.4073
  683MOL0     H90152   9.831   4.312  10.576 -2.4932  1.0592  1.8377
  683MOL0     H90153   9.837   4.432  10.437  1.1848  0.6941 -0.2521
  683MOL0     H90154  10.227   4.477  10.562  0.3590 -2.5729 -0.7590
  683MOL0     H90155   9.516   4.612  10.272  0.1988 -0.7690  1.7674
  683MOL0     H90156   9.370   4.657  10.069  0.4182 -4.1156 -0.2567
  684MOL0     O90157   6.226  10.755   9.476 -0.5875 -0.5465 -0.1348
  684MOL0     C90158   6.257  10.847   9.395  0.5339  0.5010  0.6806
  684MOL0     O90159   6.176  10.904   9.296 -0.2665  0.8613 -0.5973
  684MOL0     C90160   6.053  10.855   9.275  0.1167  0.3515  0.6294
  684MOL0     C90161   6.011  10.790   9.154  1.1178  0.5755 -0.0560
  684MOL0     C90162   5.877  10.757   9.122 -1.2349  0.0495  0.3795
  684MOL0     C90163   5.787  10.776   9.220  0.2283 -0.0699  0.3383
  684MOL0     O90164   5.655  10.741   9.190  0.0455  0.5497 -0.3689
  684MOL0     C90165   5.560  10.835   9.234  0.4642 -0.3703 -0.5572
  684MOL0     C90166   5.459  10.848   9.124  0.3079  0.3619  1.3189
  684MOL0     C90167   5.373  10.725   9.113  0.3399 -0.3301 -0.3626
  684MOL0     C90168   5.280  10.729   8.990  0.2144  0.2619 -0.0205
  684MOL0     C90169   5.198  10.601   8.962 -0.1099 -0.7739  0.4903
  684MOL0     C90170   5.129  10.588   8.824 -0.6697 -0.5714 -0.5624
  684MOL0     C90171   5.058  10.455   8.801  0.0730 -0.3012 -0.2148
  684MOL0     C90172   4.976  10.472   8.664 -0.2586  1.0981  0.3669
  684MOL0     N90173   5.055  10.527   8.555  1.0444  0.7458 -0.3040
  684MOL0     C90174   5.117  10.445   8.458 -0.7795 -0.1236 -0.3728
  684MOL0     C90175   5.157  10.545   8.365  0.0943 -0.6396 -1.1753
  684MOL0     C90176   5.219  10.507   8.231 -0.2255  0.0651 -0.3375
  684MOL0     C90177   5.373  10.486   8.258 -0.4559 -0.2109  0.5757
  684MOL0     C90178   5.441  10.632   8.265  0.0396  0.7305 -0.2858
  684MOL0     C90179   5.598  10.615   8.263 -0.1718 -1.2317 -1.4337
  684MOL0     O90180   5.647  10.502   8.335  0.2245  0.0855  1.4611
  684MOL0     C90181   5.782  10.483   8.347  0.2847  0.9958  0.0966
  684MOL0     C90182   5.830  10.348   8.353 -0.0920 -0.2394  0.6850
  684MOL0     C90183   5.958  10.311   8.380 -0.3374  0.1669  0.8802
  684MOL0     C90184   6.060  10.415   8.384  0.2124  0.6651 -0.3545
  684MOL0     C90185   6.197  10.373   8.400 -0.1318  0.8174  0.5287
  684MOL0     O90186   6.237  10.271   8.318 -0.6507  0.1572 -0.1225
  684MOL0     C90187   6.378  10.255   8.300  0.7938 -0.1304  0.7715
  684MOL0     C90188   6.479  10.340   8.342 -0.2233  0.2372 -0.1634
  684MOL0     C90189   6.617  10.314   8.322  0.2188 -0.5544  0.4508
  684MOL0     C90190   6.657  10.196   8.249 -0.4642 -0.3714 -0.3251
  684MOL0     O90191   6.786  10.158   8.226 -0.2010  0.4952 -0.1619
  684MOL0     C90192   6.896  10.244   8.248 -1.2374 -0.2030 -0.3744
  684MOL0     C90193   7.037  10.186   8.225 -0.6089 -0.8018 -0.3714
  684MOL0     C90194   7.137  10.282   8.296  0.1967  0.7139  0.2682
  684MOL0     C90195   7.275  10.265   8.240 -0.3658 -0.6942  0.1516
  684MOL0     C90196   7.376  10.347   8.323 -0.3893 -0.4700 -0.0039
  684MOL0     C90197   7.421  10.285   8.455  0.7887 -0.1123  0.3540
  684MOL0     C90198   7.523  10.175   8.430  0.3631 -0.7870  0.0934
  684MOL0     C90199   7.591  10.139   8.565  0.4299  1.2342  0.2512
  684MOL0    Cl90200   7.755  10.085   8.512 -0.4423  0.4507 -0.0088
  684MOL0     C90201   6.555  10.120   8.199 -0.1975 -0.3503  0.7500
  684MOL0     C90202   6.420  10.144   8.224 -0.1957 -0.3018 -0.4044
  684MOL0     O90203   6.258  10.426   8.493 -0.0417 -0.0771 -0.0109
  684MOL0     C90204   6.021  10.547   8.400  0.6168 -0.5806  0.4982
  684MOL0     C90205   5.884  10.583   8.371 -0.0436 -0.2057  0.1644
  684MOL0     N90206   5.098  10.666   8.393 -0.6215  0.7787 -0.6678
  684MOL0     N90207   5.037  10.652   8.506 -0.6475  0.3939  0.0291
  684MOL0     C90208   5.824  10.829   9.345 -0.3742  0.1604 -0.8872
  684MOL0     C90209   5.959  10.867   9.372 -0.5467  0.0072  0.1406
  684MOL0     C90210   6.391  10.902   9.391 -0.7494 -0.4979  0.2762
  684MOL0     C90211   6.507  10.850   9.466  0.9522 -0.6472 -0.4497
  684MOL0     C90212   6.635  10.911   9.459 -0.2319 -0.1082 -0.4069
  684MOL0     C90213   6.651  11.035   9.396  0.3419  0.4241 -0.0467
  684MOL0     O90214   6.757  11.112   9.373 -0.5414  0.1815  0.3106
  684MOL0     C90215   6.893  11.049   9.405 -0.3123 -0.4333  0.2469
  684MOL0     C90216   7.009  11.147   9.373  0.0338  0.0638 -0.0912
  684MOL0     C90217   7.147  11.115   9.431  0.0204 -0.0942 -0.4014
  684MOL0     C90218   7.258  11.229   9.427 -0.5995 -0.8113 -0.0238
  684MOL0     C90219   7.211  11.342   9.517 -0.3596 -0.8709  0.8414
  684MOL0     C90220   7.164  11.432   9.584  0.1132  0.6500 -0.4113
  684MOL0     C90221   6.547  11.091   9.329  0.4548 -0.5210 -0.0375
  684MOL0     C90222   6.419  11.025   9.312  0.1856  0.0249 -0.8166
  684MOL0     H90223   6.092  10.767   9.085  0.5896 -1.4718 -0.0603
  684MOL0     H90224   5.835  10.714   9.031 -3.6389 -2.3841  2.4385
  684MOL0     H90225   5.595  10.937   9.252 -0.8730  0.0348 -0.2155
  684MOL0     H90226   5.505  10.795   9.319  0.0470  1.0332 -0.1370
  684MOL0     H90227   5.509  10.865   9.028 -0.0621 -3.7383  0.2198
  684MOL0     H90228   5.393  10.930   9.153 -0.6969 -0.1224  0.4441
  684MOL0     H90229   5.310  10.724   9.202  1.6710  2.3024  0.7433
  684MOL0     H90230   5.419  10.626   9.115 -1.4598 -1.2060 -0.4642
  684MOL0     H90231   5.216  10.816   9.007 -0.1813  0.0206 -0.2733
  684MOL0     H90232   5.330  10.740   8.894  1.5291 -1.2464  0.4502
  684MOL0     H90233   5.116  10.588   9.033 -0.6911 -1.6325 -0.3182
  684MOL0     H90234   5.266  10.515   8.962 -0.4687 -1.1210 -1.7371
  684MOL0     H90235   5.204  10.598   8.745  1.2670 -0.3709  1.2150
  684MOL0     H90236   5.053  10.666   8.808 -0.0062  0.0739 -0.5977
  684MOL0     H90237   5.123  10.368   8.787  0.5031 -0.0786  0.3462
  684MOL0     H90238   4.986  10.440   8.882 -0.1970 -0.1704 -0.4337
  684MOL0     H90239   4.887  10.535   8.682 -1.2701 -0.5591  1.4046
  684MOL0     H90240   4.943  10.369   8.650 -0.2844  1.0785  0.5598
  684MOL0     H90241   5.109  10.338   8.446 -2.8566  0.0691 -1.2021
  684MOL0     H90242   5.206  10.574   8.145 -1.3071 -0.3396 -0.5063
  684MOL0     H90243   5.186  10.412   8.189  0.0646  0.4893 -1.5747
  684MOL0     H90244   5.416  10.429   8.175  1.8054 -1.7257  2.6668
  684MOL0     H90245   5.401  10.425   8.344  0.2355 -0.8552 -0.0983
  684MOL0     H90246   5.414  10.694   8.179  2.5431  0.1821 -1.5645
  684MOL0     H90247   5.418  10.674   8.363  1.6876 -1.4396  1.1171
  684MOL0     H90248   5.636  10.695   8.327 -2.8894  1.4056 -2.8373
  684MOL0     H90249   5.648  10.625   8.166  1.2430  1.4811 -0.5415
  684MOL0     H90250   5.763  10.265   8.329  1.7266 -1.2506 -1.2453
  684MOL0     H90251   5.984  10.206   8.393  1.3035  0.4680  0.2956
  684MOL0     H90252   6.454  10.433   8.393  1.1761 -0.1849  1.3602
  684MOL0     H90253   6.687  10.393   8.348 -0.9399  0.8060 -0.3790
  684MOL0     H90254   6.893  10.267   8.355 -2.7686 -1.3875 -0.1250
  684MOL0     H90255   6.890  10.334   8.187 -2.8614  0.5228  0.7764
  684MOL0     H90256   7.052  10.165   8.119 -2.0055 -4.0340 -0.0477
  684MOL0     H90257   7.054  10.088   8.270  2.3055  0.6429  1.9944
  684MOL0     H90258   7.133  10.258   8.402  1.9194 -0.1377  0.1713
  684MOL0     H90259   7.088  10.378   8.279  0.6074  1.1080  1.2801
  684MOL0     H90260   7.297  10.160   8.219 -1.7898 -0.7137 -1.5034
  684MOL0     H90261   7.275  10.318   8.144  0.1534 -2.0874 -0.6421
  684MOL0     H90262   7.333  10.442   8.355 -0.9929 -0.4562 -0.8266
  684MOL0     H90263   7.461  10.368   8.258 -1.6418  2.7853 -0.7398
  684MOL0     H90264   7.338  10.258   8.521 -1.1456 -0.4089 -2.0639
  684MOL0     H90265   7.477  10.366   8.503 -2.6359  1.3523  2.2463
  684MOL0     H90266   7.483  10.085   8.383 -1.3976 -0.2476  0.4826
  684MOL0     H90267   7.594  10.212   8.356 -1.1348 -1.9607 -2.0667
  684MOL0     H90268   7.539  10.061   8.621 -2.0459  0.3149 -3.0334
  684MOL0     H90269   7.601  10.231   8.623 -2.3222  2.6567 -1.3175
  684MOL0     H90270   6.589  10.035   8.141 -0.6961 -1.8791  2.5974
  684MOL0     H90271   6.349  10.075   8.179  1.7815 -2.1669 -0.8610
  684MOL0     H90272   6.090  10.628   8.422 -0.8361  0.1927  2.4629
  684MOL0     H90273   5.862  10.689   8.379 -0.1487 -0.2451  0.4047
  684MOL0     H90274   5.751  10.851   9.421 -0.8966  3.4167 -2.1425
  684MOL0     H90275   5.984  10.924   9.461 -2.6260  1.5405 -0.1766
  684MOL0     H90276   6.492  10.754   9.515  0.7147 -0.4428 -0.1176
  684MOL0     H90277   6.714  10.857   9.510 -2.3546 -2.5055  0.5557
  684MOL0     H90278   6.904  10.961   9.342 -1.2040 -0.2315 -0.1956
  684MOL0     H90279   6.901  11.023   9.511  3.7263  0.2645  0.2694
  684MOL0     H90280   7.011  11.146   9.263 -2.5650 -1.8340 -0.2180
  684MOL0     H90281   6.970  11.243   9.407  2.7535  1.2537 -0.0277
  684MOL0     H90282   7.181  11.027   9.375  3.1246  1.0336 -0.4676
  684MOL0     H90283   7.130  11.085   9.535 -1.5755  0.4022 -0.4940
  684MOL0     H90284   7.353  11.193   9.470  0.0514  0.7503 -0.1043
  684MOL0     H90285   7.285  11.263   9.327 -0.0698  0.3942  0.5118
  684MOL0     H90286   7.110  11.516   9.623  0.8493  0.6591  0.6306
  684MOL0     H90287   6.576  11.174   9.265 -1.4915 -1.1010 -1.7739
  684MOL0     H90288   6.362  11.084   9.241  0.8163  0.3654 -1.0388
  685MOL0     O90289   8.954  10.514   1.315 -0.2843  0.0313  0.1318
  685MOL0     C90290   8.900  10.552   1.210 -0.5286  0.3773  0.0691
  685MOL0     O90291   8.950  10.657   1.138 -0.4728  0.0368 -0.3914
  685MOL0     C90292   9.052  10.727   1.200 -0.4962 -0.0542 -0.5019
  685MOL0     C90293   9.183  10.674   1.216  0.1954 -0.0303  0.1763
  685MOL0     C90294   9.284  10.758   1.263  1.2355  0.2627  0.5165
  685MOL0     C90295   9.254  10.879   1.326 -0.0641 -0.6881 -0.3464
  685MOL0     O90296   9.355  10.937   1.389 -0.1399  0.1691 -0.1552
  685MOL0     C90297   9.355  11.065   1.451 -0.1407  0.5699 -0.1056
  685MOL0     C90298   9.476  11.073   1.526 -0.5443 -0.4841  0.0736
  685MOL0     C90299   9.503  11.221   1.558  0.3699 -0.8331  0.4093
  685MOL0     C90300   9.645  11.231   1.623 -0.2398  0.1740 -0.0772
  685MOL0     C90301   9.670  11.378   1.671 -0.7355  0.3684  0.7657
  685MOL0     C90302   9.809  11.377   1.753  0.7759 -0.5059 -0.1280
  685MOL0     C90303   9.832  11.500   1.831 -0.8021 -0.4444 -0.5830
  685MOL0     C90304   9.934  11.587   1.753  1.1544  0.5254 -0.1082
  685MOL0     N90305   9.934  11.725   1.810  0.1841 -0.3342 -0.3581
  685MOL0     C90306  10.001  11.758   1.927 -0.6258 -0.4150  0.0984
  685MOL0     C90307   9.945  11.876   1.969 -0.2408 -0.4182 -0.4367
  685MOL0     C90308   9.969  11.941   2.099 -0.1675 -0.3194 -0.2951
  685MOL0     C90309   9.969  11.837   2.222 -0.7118 -0.6970 -0.1110
  685MOL0     C90310   9.825  11.810   2.274 -0.5753 -0.8035 -0.0009
  685MOL0     C90311   9.746  11.700   2.193 -0.3113 -0.5299 -0.6668
  685MOL0     O90312   9.807  11.570   2.221  0.6411  0.3249  0.1684
  685MOL0     C90313   9.721  11.468   2.201 -0.2914  0.5085 -0.8142
  685MOL0     C90314   9.754  11.349   2.275 -1.0636 -0.0531 -1.0098
  685MOL0     C90315   9.677  11.235   2.262  0.1683  0.0548  0.7204
  685MOL0     C90316   9.582  11.226   2.155 -0.1048  0.5576  0.7291
  685MOL0     C90317   9.503  11.102   2.130  0.3056  1.1236  0.3008
  685MOL0     O90318   9.394  11.120   2.058 -0.3879  0.1185  0.2213
  685MOL0     C90319   9.321  11.004   2.034 -0.1972 -0.4686 -0.5377
  685MOL0     C90320   9.246  10.938   2.133 -0.6658 -0.4193  0.6108
  685MOL0     C90321   9.170  10.825   2.111  1.0853 -0.0544  0.3249
  685MOL0     C90322   9.152  10.790   1.984 -1.1085 -0.0678  0.2582
  685MOL0     O90323   9.062  10.693   1.943 -0.3286 -0.1270  0.3547
  685MOL0     C90324   8.936  10.690   2.012  0.1204  0.2999  0.1568
  685MOL0     C90325   8.850  10.585   1.941  0.8812  1.3459  0.0352
  685MOL0     C90326   8.719  10.572   2.019  0.4654  0.2224 -0.5754
  685MOL0     C90327   8.618  10.482   1.938 -0.1238 -0.3992 -0.3096
  685MOL0     C90328   8.505  10.451   2.045  0.3984  0.7179 -0.1479
  685MOL0     C90329   8.424  10.336   1.997  0.7996  0.0956 -0.9122
  685MOL0     C90330   8.332  10.304   2.123 -0.1480 -0.1298  0.4272
  685MOL0     C90331   8.203  10.370   2.133  0.3623  0.2336  0.0475
  685MOL0    Cl90332   8.054  10.283   2.070  0.0486 -0.0354 -0.0728
  685MOL0     C90333   9.217  10.851   1.881  0.0431  0.1164  0.1446
  685MOL0     C90334   9.304  10.960   1.904  0.3783 -0.8045  0.5345
  685MOL0     O90335   9.545  10.996   2.170  0.4951  0.4007  0.0632
  685MOL0     C90336   9.561  11.340   2.074  0.9603  0.3052 -0.3740
  685MOL0     C90337   9.623  11.458   2.102 -0.3485 -0.0533 -0.4447
  685MOL0     N90338   9.845  11.917   1.876 -0.6197 -0.4421 -0.3180
  685MOL0     N90339   9.841  11.824   1.789 -0.2140 -0.9906 -0.3058
  685MOL0     C90340   9.131  10.935   1.303  0.5223 -0.2381  0.2918
  685MOL0     C90341   9.028  10.866   1.245  0.6838  0.4433 -0.5543
  685MOL0     C90342   8.758  10.507   1.175 -0.5459  0.7294 -0.0706
  685MOL0     C90343   8.682  10.588   1.089  0.4909  0.4973 -1.0159
  685MOL0     C90344   8.552  10.541   1.051  0.6844  0.4101 -0.5540
  685MOL0     C90345   8.492  10.427   1.116 -0.3102  0.5740 -0.1507
  685MOL0     O90346   8.370  10.368   1.076  0.0617 -0.5364  0.1218
  685MOL0     C90347   8.282  10.460   1.014 -0.2620  0.0839 -0.6928
  685MOL0     C90348   8.157  10.380   0.980 -0.4902  0.4298 -0.6807
  685MOL0     C90349   8.074  10.455   0.872  0.0221  0.3534  0.2299
  685MOL0     C90350   7.964  10.360   0.835  0.3926  0.8514  0.2229
  685MOL0     C90351   7.891  10.400   0.707  0.3327  0.1469 -0.5968
  685MOL0     C90352   7.839  10.439   0.605  0.6425 -0.1287 -0.3451
  685MOL0     C90353   8.572  10.347   1.197  0.2490  0.5442  0.4021
  685MOL0     C90354   8.706  10.383   1.223 -0.7335  0.2201 -0.4744
  685MOL0     H90355   9.199  10.575   1.174  1.9142  0.5691 -0.6958
  685MOL0     H90356   9.389  10.731   1.255  1.2507  0.5423 -0.3661
  685MOL0     H90357   9.270  11.085   1.517  0.7393 -0.1170  1.2750
  685MOL0     H90358   9.351  11.136   1.368  2.1948 -1.8336 -2.4509
  685MOL0     H90359   9.556  11.028   1.468 -0.3775  1.5373 -1.3821
  685MOL0     H90360   9.459  11.025   1.623  1.4903  0.3563  0.8955
  685MOL0     H90361   9.432  11.276   1.620 -0.9366 -0.1923 -1.5402
  685MOL0     H90362   9.501  11.288   1.472 -0.8211 -0.3295  0.8145
  685MOL0     H90363   9.658  11.161   1.706  0.0621  2.7334  2.1711
  685MOL0     H90364   9.721  11.212   1.546 -3.0748 -1.0800 -2.7672
  685MOL0     H90365   9.590  11.401   1.742 -0.8434  0.9323  0.4605
  685MOL0     H90366   9.672  11.445   1.585 -1.9831  0.4572  0.7920
  685MOL0     H90367   9.898  11.352   1.694 -1.2282 -2.5350 -2.5079
  685MOL0     H90368   9.788  11.296   1.824  1.6928 -0.3357  0.3603
  685MOL0     H90369   9.739  11.557   1.835  1.3751  3.4587  0.3044
  685MOL0     H90370   9.867  11.485   1.934 -0.7903  1.5966 -0.2372
  685MOL0     H90371   9.898  11.585   1.650 -0.7879  1.5013  0.4950
  685MOL0     H90372  10.031  11.538   1.752  1.5306  1.2573 -0.1397
  685MOL0     H90373  10.081  11.699   1.970  2.6388  3.6294  0.2056
  685MOL0     H90374   9.895  12.022   2.109  0.7926  0.3324  2.5702
  685MOL0     H90375  10.066  11.992   2.095  1.0935 -2.0786  3.3477
  685MOL0     H90376  10.020  11.884   2.307 -1.7528 -0.9449  0.6724
  685MOL0     H90377  10.022  11.744   2.200 -1.0797 -0.2987 -3.0640
  685MOL0     H90378   9.834  11.789   2.381  0.5794  1.1534  0.3378
  685MOL0     H90379   9.772  11.905   2.260  1.0244 -0.0828 -1.6485
  685MOL0     H90380   9.754  11.729   2.087  1.1320  1.4827 -0.0660
  685MOL0     H90381   9.642  11.687   2.225  0.1693 -2.9903  0.1255
  685MOL0     H90382   9.823  11.343   2.359 -0.9678  0.6886 -1.0311
  685MOL0     H90383   9.703  11.153   2.329  0.4077 -0.6063 -0.1657
  685MOL0     H90384   9.267  10.951   2.239  1.4630 -2.3412  0.5075
  685MOL0     H90385   9.112  10.780   2.191 -1.7051  0.7724 -1.1062
  685MOL0     H90386   8.884  10.787   2.012 -1.2559 -0.4037 -0.4758
  685MOL0     H90387   8.958  10.663   2.116  1.1175  1.1508  0.1773
  685MOL0     H90388   8.907  10.492   1.933 -0.7027  0.1225  1.9192
  685MOL0     H90389   8.829  10.619   1.840 -0.2514 -1.4461 -0.7571
  685MOL0     H90390   8.666  10.663   2.049  1.8182  0.1238  2.5024
  685MOL0     H90391   8.742  10.524   2.114  0.0009 -1.2415 -1.1769
  685MOL0     H90392   8.589  10.547   1.855  0.4383  1.5242  0.9542
  685MOL0     H90393   8.662  10.388   1.902  1.6740 -0.5027  1.9569
  685MOL0     H90394   8.449  10.538   2.081  2.2831  1.5303  0.9980
  685MOL0     H90395   8.563  10.429   2.135  1.5519 -2.5060 -1.5633
  685MOL0     H90396   8.491  10.252   1.974 -0.9101 -1.5795 -0.0684
  685MOL0     H90397   8.360  10.375   1.918 -1.5039  1.4852  1.4760
  685MOL0     H90398   8.304  10.199   2.110  1.3232 -0.2425 -3.1682
  685MOL0     H90399   8.389  10.329   2.213  0.9698  1.2591 -0.6102
  685MOL0     H90400   8.209  10.471   2.093 -0.2290  0.3251  0.1799
  685MOL0     H90401   8.185  10.385   2.240  0.8163 -0.3213  0.2072
  685MOL0     H90402   9.196  10.814   1.781 -3.0150 -1.5342  1.2497
  685MOL0     H90403   9.342  11.023   1.824 -0.6875  0.5642  1.0737
  685MOL0     H90404   9.484  11.336   1.998  0.7935 -1.5666 -0.1635
  685MOL0     H90405   9.609  11.540   2.032  0.1028  0.5640  0.1719
  685MOL0     H90406   9.106  11.036   1.336  0.9935  0.3109 -0.9847
  685MOL0     H90407   8.927  10.906   1.239  1.0257  1.1546 -1.8010
  685MOL0     H90408   8.723  10.686   1.067 -1.8162  1.9137  0.6212
  685MOL0     H90409   8.499  10.588   0.969 -3.8430  1.0219  2.3522
  685MOL0     H90410   8.324  10.492   0.918  0.3807 -0.1072 -0.4820
  685MOL0     H90411   8.272  10.548   1.078  1.0487 -0.5415  0.4264
  685MOL0     H90412   8.190  10.284   0.938  0.2821  0.6256 -0.5463
  685MOL0     H90413   8.092  10.360   1.066 -0.3945 -1.6185 -1.0391
  685MOL0     H90414   8.135  10.467   0.782  0.5957  1.1123  0.7168
  685MOL0     H90415   8.034  10.553   0.900 -0.2770  0.1979  0.3589
  685MOL0     H90416   8.003  10.263   0.801 -1.4995  0.0249  0.2574
  685MOL0     H90417   7.903  10.356   0.926 -0.2494  0.0032 -0.2229
  685MOL0     H90418   7.788  10.476   0.518 -3.5557 -0.8139  1.5933
  685MOL0     H90419   8.522  10.259   1.236  3.2502 -0.3740  2.5344
  685MOL0     H90420   8.761  10.323   1.295 -2.3991  1.5464  2.0480
  686MOL0     O90421   1.205   4.938   3.948  0.6387 -0.5588  0.3192
  686MOL0     C90422   1.201   5.034   3.871  0.0847  0.0881 -0.3519
  686MOL0     O90423   1.085   5.085   3.814  0.5406 -0.5228  0.2177
  686MOL0     C90424   0.964   5.031   3.853  0.1150  0.5261  0.0759
  686MOL0     C90425   0.885   5.104   3.943 -0.6057 -0.1973  0.1497
  686MOL0     C90426   0.767   5.047   3.995 -0.2027  0.3274  0.5042
  686MOL0     C90427   0.728   4.918   3.965 -0.3298 -0.5973 -0.2032
  686MOL0     O90428   0.628   4.859   4.017  0.6987  0.3970 -1.2205
  686MOL0     C90429   0.557   4.900   4.132 -0.1460 -0.6277  0.1114
  686MOL0     C90430   0.451   4.791   4.160  0.0375 -0.4073  0.2205
  686MOL0     C90431   0.324   4.784   4.070  0.0768  1.0676  0.1273
  686MOL0     C90432   0.252   4.922   4.070  0.3069  0.0589  0.2490
  686MOL0     C90433   0.107   4.910   4.029 -0.2019 -0.1640 -1.1192
  686MOL0     C90434   0.016   4.916   4.157 -0.4508 -0.0203  0.2311
  686MOL0     C90435  -0.135   4.903   4.121  0.0118  0.0022 -0.2186
  686MOL0     C90436  -0.212   4.779   4.134 -0.8946  0.0416  0.1442
  686MOL0     N90437  -0.173   4.656   4.066 -0.4790 -0.0263  0.6644
  686MOL0     C90438  -0.175   4.629   3.934 -0.4351  0.7833  0.3449
  686MOL0     C90439  -0.106   4.516   3.920 -0.4916  0.9283 -0.4359
  686MOL0     C90440  -0.075   4.450   3.788  0.3287 -0.3000 -0.4728
  686MOL0     C90441   0.077   4.458   3.762  1.0381 -0.3705  0.2258
  686MOL0     C90442   0.125   4.594   3.747  0.1521 -0.4414  0.4727
  686MOL0     C90443   0.268   4.591   3.700 -0.5108 -0.4964  0.2335
  686MOL0     O90444   0.338   4.719   3.693 -0.3109  0.0916  0.0007
  686MOL0     C90445   0.458   4.725   3.628  0.2628  0.7264 -0.3588
  686MOL0     C90446   0.509   4.621   3.541 -0.9546 -0.8894 -0.4395
  686MOL0     C90447   0.627   4.644   3.469  0.1770 -0.0204  0.7459
  686MOL0     C90448   0.706   4.760   3.479 -0.0445  0.7105  0.1609
  686MOL0     C90449   0.822   4.783   3.392  0.4154 -0.4666 -0.1238
  686MOL0     O90450   0.896   4.900   3.428 -0.5283  0.3272 -0.2157
  686MOL0     C90451   0.994   4.961   3.357 -1.1295  0.3247 -0.0785
  686MOL0     C90452   1.100   5.014   3.440 -0.2721  0.3328 -0.3506
  686MOL0     C90453   1.218   5.055   3.380  0.4647  0.3382 -0.3690
  686MOL0     C90454   1.236   5.044   3.244 -0.2241  0.4474  0.0925
  686MOL0     O90455   1.361   5.088   3.195 -0.7499  0.5721 -0.0432
  686MOL0     C90456   1.376   5.101   3.053  0.1355  0.0051  0.1504
  686MOL0     C90457   1.508   5.140   2.990 -0.4698 -0.2997  0.9036
  686MOL0     C90458   1.620   5.130   3.093  1.3247  0.4152  0.6353
  686MOL0     C90459   1.746   5.174   3.029 -0.2549  0.2846 -0.6932
  686MOL0     C90460   1.759   5.326   3.014  0.4897  0.2505 -0.7674
  686MOL0     C90461   1.908   5.369   3.022  0.4212  0.0072  0.4729
  686MOL0     C90462   1.933   5.517   2.985  0.4157  0.0467  0.0362
  686MOL0     C90463   2.074   5.552   2.928 -0.0596 -0.0252  0.2044
  686MOL0    Cl90464   2.093   5.471   2.774  0.0202 -0.0512  0.5461
  686MOL0     C90465   1.135   4.990   3.159 -0.0213  0.2215 -0.2267
  686MOL0     C90466   1.015   4.952   3.215 -0.0834 -0.5783  0.1483
  686MOL0     O90467   0.844   4.700   3.307  0.5493 -0.5803 -0.0691
  686MOL0     C90468   0.660   4.855   3.583  0.8702  0.2516  1.0414
  686MOL0     C90469   0.543   4.831   3.657  0.3034  0.1750  0.0138
  686MOL0     N90470  -0.052   4.472   4.042  0.5762 -0.1671 -0.6329
  686MOL0     N90471  -0.106   4.553   4.128  0.5990 -1.0970  0.5305
  686MOL0     C90472   0.804   4.846   3.875 -0.5536  0.3400  0.1053
  686MOL0     C90473   0.921   4.902   3.814 -0.5574 -0.7867 -0.1411
  686MOL0     C90474   1.332   5.074   3.807  0.5342 -0.1975 -0.4958
  686MOL0     C90475   1.454   4.999   3.820 -0.1232  0.0511  0.0573
  686MOL0     C90476   1.568   5.047   3.774  0.0671 -0.4069  0.0569
  686MOL0     C90477   1.568   5.167   3.702  0.1823  0.1579 -0.7995
  686MOL0     O90478   1.685   5.219   3.657 -0.1053  0.1714 -0.0188
  686MOL0     C90479   1.786   5.232   3.754 -0.0897  0.5526 -0.5929
  686MOL0     C90480   1.876   5.349   3.718 -0.8529 -0.4819 -0.7971
  686MOL0     C90481   1.966   5.391   3.841  0.3821  0.1370 -0.0673
  686MOL0     C90482   2.057   5.510   3.825  0.3543 -0.1811 -0.3900
  686MOL0     C90483   2.171   5.469   3.746 -0.5313  0.3837 -0.1694
  686MOL0     C90484   2.269   5.424   3.690 -0.0198  0.2815 -0.7575
  686MOL0     C90485   1.444   5.235   3.681  0.2035  0.1337  0.2652
  686MOL0     C90486   1.335   5.189   3.726  0.7143 -0.0095 -0.5737
  686MOL0     H90487   0.909   5.208   3.966 -1.9700 -0.1244  1.3471
  686MOL0     H90488   0.703   5.106   4.060 -0.7730  0.2300  0.0383
  686MOL0     H90489   0.510   4.998   4.122 -0.6730 -0.9844 -1.0805
  686MOL0     H90490   0.626   4.884   4.215  2.1701 -0.4999 -1.7034
  686MOL0     H90491   0.414   4.812   4.261 -0.4487 -1.7203  0.3281
  686MOL0     H90492   0.496   4.692   4.168 -1.8861 -1.4737 -1.3944
  686MOL0     H90493   0.262   4.698   4.097  0.4706  0.8347  0.3090
  686MOL0     H90494   0.360   4.757   3.970  2.8682  3.4877  0.3431
  686MOL0     H90495   0.271   4.986   4.156 -2.3013  1.1726  0.0779
  686MOL0     H90496   0.315   4.973   3.997  0.0369 -0.0398 -0.0529
  686MOL0     H90497   0.090   4.824   3.963 -0.3944  0.0959 -1.4146
  686MOL0     H90498   0.088   5.003   3.975  0.9091  1.7984  1.6745
  686MOL0     H90499   0.040   5.010   4.208 -3.2897  1.1315 -0.3377
  686MOL0     H90500   0.050   4.834   4.221  2.2815  0.1587 -0.8502
  686MOL0     H90501  -0.182   4.973   4.190  0.2052  0.9825 -1.0708
  686MOL0     H90502  -0.152   4.954   4.026 -2.1934 -2.3570 -1.2168
  686MOL0     H90503  -0.313   4.808   4.103 -0.8594  0.6509  0.5743
  686MOL0     H90504  -0.222   4.751   4.239 -1.4049  0.7602  0.2976
  686MOL0     H90505  -0.214   4.690   3.854 -1.3336  3.2918  2.5414
  686MOL0     H90506  -0.127   4.509   3.712 -1.7268  2.2278  2.5773
  686MOL0     H90507  -0.101   4.344   3.783  0.6667 -0.5561  1.9977
  686MOL0     H90508   0.107   4.384   3.686  0.3412 -1.3703  0.9004
  686MOL0     H90509   0.135   4.422   3.847  1.5518 -0.9073 -0.3383
  686MOL0     H90510   0.066   4.654   3.677  0.3436 -1.3446 -0.4822
  686MOL0     H90511   0.124   4.642   3.845 -1.2353  2.2576 -0.7718
  686MOL0     H90512   0.272   4.542   3.602 -0.5000 -1.5290  0.7397
  686MOL0     H90513   0.322   4.518   3.761  1.4512 -0.7002 -1.6377
  686MOL0     H90514   0.449   4.535   3.515  0.7526 -2.5554  0.8434
  686MOL0     H90515   0.658   4.564   3.403 -0.5421  2.0396 -2.2743
  686MOL0     H90516   1.097   5.023   3.549 -0.6790 -1.3880 -0.1829
  686MOL0     H90517   1.305   5.082   3.439  0.3269  0.8602 -0.4075
  686MOL0     H90518   1.306   5.180   3.022 -1.9017 -1.4216  0.9395
  686MOL0     H90519   1.353   5.006   3.003 -0.9554 -0.2745  1.1411
  686MOL0     H90520   1.500   5.241   2.947  1.7894 -0.6693 -0.5226
  686MOL0     H90521   1.526   5.075   2.904 -3.3219 -0.7695  0.5652
  686MOL0     H90522   1.627   5.028   3.132 -2.2956  0.0637  0.7106
  686MOL0     H90523   1.593   5.186   3.183  0.5864 -0.3242  0.8836
  686MOL0     H90524   1.834   5.135   3.081 -0.6867 -1.3880 -1.1551
  686MOL0     H90525   1.756   5.128   2.930  2.2269 -0.7145 -0.0407
  686MOL0     H90526   1.700   5.370   3.095 -1.4378 -0.2528 -1.8264
  686MOL0     H90527   1.705   5.346   2.920 -1.3787 -2.5823 -0.4159
  686MOL0     H90528   1.969   5.308   2.955 -2.4883  1.3016 -3.7484
  686MOL0     H90529   1.942   5.358   3.126 -2.0587 -2.0274  1.1454
  686MOL0     H90530   1.853   5.547   2.916  0.4551  0.9784  0.3768
  686MOL0     H90531   1.912   5.579   3.073 -2.5283 -0.2443 -0.3369
  686MOL0     H90532   2.149   5.526   3.003  0.1889 -2.4771 -0.7959
  686MOL0     H90533   2.080   5.658   2.903 -1.0080  0.0518  0.2712
  686MOL0     H90534   1.161   4.967   3.056 -1.3810 -2.2955 -0.0877
  686MOL0     H90535   0.947   4.902   3.148 -0.9809  1.1966 -0.3379
  686MOL0     H90536   0.717   4.947   3.593  1.6828 -0.0656 -0.3336
  686MOL0     H90537   0.494   4.902   3.723  1.0970 -2.1318  3.3797
  686MOL0     H90538   0.767   4.747   3.851 -1.9756  0.6453  0.9149
  686MOL0     H90539   0.982   4.854   3.739 -0.4607 -0.4224 -0.2953
  686MOL0     H90540   1.459   4.903   3.871  1.3318 -0.4355 -0.9432
  686MOL0     H90541   1.649   4.977   3.795  0.6825 -0.1089 -1.2059
  686MOL0     H90542   1.843   5.141   3.774  2.7585  2.1522 -0.8270
  686MOL0     H90543   1.733   5.246   3.849  2.9931  1.4666  1.1667
  686MOL0     H90544   1.941   5.326   3.634 -1.6645  2.3215 -2.3155
  686MOL0     H90545   1.820   5.434   3.679  1.2937  2.8899  2.7702
  686MOL0     H90546   2.022   5.304   3.877 -0.8892 -1.1824 -1.1761
  686MOL0     H90547   1.893   5.414   3.919  1.5052 -0.9437  1.3732
  686MOL0     H90548   2.005   5.595   3.780  0.5584  2.0589  3.1924
  686MOL0     H90549   2.095   5.550   3.920 -3.4922  1.0024  0.8049
  686MOL0     H90550   2.361   5.379   3.659  1.8165  1.2562  2.6687
  686MOL0     H90551   1.443   5.315   3.609  1.1322 -0.2891 -0.2330
  686MOL0     H90552   1.243   5.245   3.711  0.5732  0.4933  1.7194
  687MOL0     O90553   1.057  10.038   0.605  0.4275  0.0013 -0.0130
  687MOL0     C90554   1.149   9.995   0.532 -0.0257 -0.2490 -0.4272
  687MOL0     O90555   1.143   9.903   0.426 -0.8555 -0.6549 -0.2585
  687MOL0     C90556   1.023   9.875   0.373 -0.3065 -0.0671 -0.5189
  687MOL0     C90557   1.010   9.743   0.333  0.0592  0.2695 -0.1452
  687MOL0     C90558   0.887   9.700   0.283  0.0166  0.1966  0.4608
  687MOL0     C90559   0.777   9.788   0.261  0.0113  0.2660 -1.0468
  687MOL0     O90560   0.652   9.756   0.216 -0.2963 -0.8035 -0.7213
  687MOL0     C90561   0.635   9.625   0.177 -0.8127  1.2954  0.3818
  687MOL0     C90562   0.494   9.572   0.161  0.0096  0.0719  0.3315
  687MOL0     C90563   0.403   9.584   0.282  0.7576  0.6428 -0.1863
  687MOL0     C90564   0.266   9.530   0.247  0.2089 -0.5447  0.4333
  687MOL0     C90565   0.174   9.541   0.365  0.1602 -0.4674  0.4465
  687MOL0     C90566   0.039   9.486   0.323  0.8036 -0.0761 -0.5641
  687MOL0     C90567  -0.075   9.510   0.433 -0.3714  0.2319 -0.1149
  687MOL0     C90568  -0.221   9.486   0.388 -0.0744  0.3113 -0.2779
  687MOL0     N90569  -0.246   9.339   0.348  0.0643 -0.4417  0.3911
  687MOL0     C90570  -0.268   9.299   0.222  0.0046 -0.3372  0.0084
  687MOL0     C90571  -0.275   9.164   0.231  0.9097 -0.4639 -0.2808
  687MOL0     C90572  -0.308   9.078   0.110 -0.5835 -0.0781 -0.2613
  687MOL0     C90573  -0.404   8.971   0.142 -1.1309  0.0136  0.3006
  687MOL0     C90574  -0.556   9.022   0.152 -0.0019 -0.1795 -0.5139
  687MOL0     C90575  -0.635   8.892   0.177  0.4994 -0.3092  0.2184
  687MOL0     O90576  -0.763   8.925   0.237 -0.4901 -0.3496  0.5399
  687MOL0     C90577  -0.855   8.980   0.149  0.2483  0.5837  0.8944
  687MOL0     C90578  -0.986   9.031   0.188 -0.0513  0.3178 -0.2198
  687MOL0     C90579  -1.083   9.062   0.092  0.1116  0.5147  0.8781
  687MOL0     C90580  -1.056   9.058  -0.045 -0.4982 -0.1531  1.2684
  687MOL0     C90581  -1.159   9.094  -0.140 -0.4526  0.0282  0.5922
  687MOL0     O90582  -1.251   9.185  -0.100  0.8006 -0.0746  0.7447
  687MOL0     C90583  -1.362   9.202  -0.188  0.3789  1.1942 -0.0296
  687MOL0     C90584  -1.429   9.092  -0.254 -0.2605 -0.3862 -0.5111
  687MOL0     C90585  -1.549   9.107  -0.328  1.2104 -0.0487 -0.1238
  687MOL0     C90586  -1.607   9.236  -0.341 -0.1873  0.3804 -0.3445
  687MOL0     O90587  -1.717   9.272  -0.417 -0.6529 -0.5075  0.3436
  687MOL0     C90588  -1.805   9.166  -0.451  0.8013 -1.0586 -0.2604
  687MOL0     C90589  -1.938   9.227  -0.506 -0.4172 -0.2168  0.3682
  687MOL0     C90590  -1.930   9.246  -0.663  0.0158 -0.0776 -0.0936
  687MOL0     C90591  -2.069   9.301  -0.696 -0.2345  0.6282  0.1660
  687MOL0     C90592  -2.071   9.339  -0.849  1.2513 -0.6310  0.5037
  687MOL0     C90593  -2.087   9.221  -0.936  0.4226  1.1896  0.3241
  687MOL0     C90594  -2.075   9.243  -1.091  0.0280  0.9075  0.1176
  687MOL0     C90595  -2.198   9.296  -1.153  0.7058 -0.0144 -1.3494
  687MOL0    Cl90596  -2.183   9.329  -1.320 -0.1267  0.1818  0.3134
  687MOL0     C90597  -1.544   9.340  -0.276  0.9893 -0.7690  0.1919
  687MOL0     C90598  -1.429   9.326  -0.197 -0.8730 -0.6991  0.5535
  687MOL0     O90599  -1.132   9.066  -0.260  0.6727  0.1583  0.3823
  687MOL0     C90600  -0.928   9.011  -0.090 -0.9556  0.0799 -0.5657
  687MOL0     C90601  -0.829   8.986   0.007 -0.3412 -0.7584 -0.1685
  687MOL0     N90602  -0.241   9.123   0.360  0.2422 -0.3712 -0.0040
  687MOL0     N90603  -0.217   9.229   0.428  0.5913  0.2071  0.2615
  687MOL0     C90604   0.797   9.925   0.293 -0.4310  0.1192  1.1418
  687MOL0     C90605   0.916   9.967   0.354 -0.3922  0.1345  0.1275
  687MOL0     C90606   1.289  10.041   0.562  0.7303  0.0074  0.3847
  687MOL0     C90607   1.307  10.148   0.643 -0.2247 -1.0408  0.6978
  687MOL0     C90608   1.438  10.208   0.656  0.6391  0.0005 -0.0617
  687MOL0     C90609   1.549  10.143   0.595 -0.6110  0.6934 -0.1606
  687MOL0     O90610   1.678  10.192   0.596  0.4652  0.3504  0.4897
  687MOL0     C90611   1.705  10.301   0.692 -0.1236 -0.0384  0.4199
  687MOL0     C90612   1.860  10.315   0.702  0.7123  0.6329  0.2935
  687MOL0     C90613   1.939  10.198   0.754  0.2218  0.4822 -0.9761
  687MOL0     C90614   2.071  10.238   0.819 -0.9906  0.3238  0.4114
  687MOL0     C90615   2.165  10.294   0.715 -0.4324  0.1696  0.1419
  687MOL0     C90616   2.238  10.350   0.628  0.0610 -0.6713  0.0714
  687MOL0     C90617   1.521  10.027   0.534 -0.8604  0.4344  0.6004
  687MOL0     C90618   1.394   9.974   0.513  0.5470  1.1462 -0.7270
  687MOL0     H90619   1.100   9.683   0.335 -2.3787 -3.7947  1.8760
  687MOL0     H90620   0.877   9.596   0.254 -0.2373 -0.8457  3.8418
  687MOL0     H90621   0.682   9.563   0.253  0.2213  0.3903 -0.9440
  687MOL0     H90622   0.687   9.603   0.083  0.0472  0.6824  0.9845
  687MOL0     H90623   0.508   9.466   0.137  3.2323  0.7443 -1.2752
  687MOL0     H90624   0.437   9.619   0.080 -5.8143 -3.2921  1.8656
  687MOL0     H90625   0.392   9.684   0.323 -0.0107  1.1785 -1.6165
  687MOL0     H90626   0.434   9.519   0.364  1.3614  1.7560  0.4847
  687MOL0     H90627   0.225   9.584   0.161  0.2526 -1.5853 -0.2634
  687MOL0     H90628   0.280   9.422   0.231  1.8694 -0.6549  2.2335
  687MOL0     H90629   0.157   9.648   0.380 -2.3320 -0.5221 -1.3374
  687MOL0     H90630   0.227   9.504   0.454  3.1720 -0.6483 -1.2829
  687MOL0     H90631   0.040   9.379   0.301  2.8743 -0.2687  0.2823
  687MOL0     H90632  -0.001   9.542   0.238 -1.4593 -0.4617  0.1675
  687MOL0     H90633  -0.055   9.452   0.523  0.1870  0.7526  0.0981
  687MOL0     H90634  -0.059   9.615   0.460  0.8155  0.6840 -2.3606
  687MOL0     H90635  -0.237   9.548   0.299  0.6559  3.5188  1.6869
  687MOL0     H90636  -0.288   9.514   0.469  0.3497  0.0102  0.1865
  687MOL0     H90637  -0.273   9.356   0.130  2.6527 -1.9380 -1.2478
  687MOL0     H90638  -0.220   9.042   0.057 -1.0269 -0.2615 -0.8862
  687MOL0     H90639  -0.357   9.141   0.035  3.2204  3.8192  0.1185
  687MOL0     H90640  -0.377   8.925   0.237  0.3310  2.1363  0.9989
  687MOL0     H90641  -0.383   8.902   0.060 -1.8775 -1.2737  1.1614
  687MOL0     H90642  -0.573   9.091   0.236 -2.9910 -0.6235 -0.6491
  687MOL0     H90643  -0.580   9.066   0.055 -3.4059  0.1185  0.3561
  687MOL0     H90644  -0.575   8.840   0.252  1.5885 -1.0799 -1.1360
  687MOL0     H90645  -0.640   8.817   0.097 -0.7376 -1.7838  1.5930
  687MOL0     H90646  -1.014   9.027   0.292 -2.1303  2.3032 -0.6382
  687MOL0     H90647  -1.182   9.096   0.121 -0.5580 -1.8455  1.5758
  687MOL0     H90648  -1.406   8.986  -0.253 -2.8560 -1.0298 -0.7498
  687MOL0     H90649  -1.593   9.020  -0.376  5.0125 -0.8190 -2.6790
  687MOL0     H90650  -1.812   9.100  -0.364  2.1468 -3.5562 -1.9134
  687MOL0     H90651  -1.745   9.112  -0.526  0.2313 -0.6225 -1.0427
  687MOL0     H90652  -1.951   9.328  -0.465  2.4673  1.0548 -1.5557
  687MOL0     H90653  -2.020   9.158  -0.483 -1.5012  1.0686  0.4912
  687MOL0     H90654  -1.904   9.150  -0.709  2.2781 -0.2566  1.3944
  687MOL0     H90655  -1.848   9.314  -0.689  1.5217 -1.5507  0.6072
  687MOL0     H90656  -2.144   9.223  -0.678 -0.2722  0.6678  0.1819
  687MOL0     H90657  -2.098   9.390  -0.640 -1.9344  1.1747 -1.4641
  687MOL0     H90658  -1.986   9.404  -0.872  1.2217  0.0617  2.1986
  687MOL0     H90659  -2.152   9.412  -0.856  1.7121  0.4020  4.0538
  687MOL0     H90660  -2.183   9.171  -0.917  0.6723  0.9115  0.8660
  687MOL0     H90661  -2.013   9.145  -0.909 -2.2000 -2.5054 -1.8720
  687MOL0     H90662  -2.016   9.334  -1.106 -1.1227  1.7088  0.3166
  687MOL0     H90663  -2.035   9.161  -1.149 -1.4306  0.0433  0.2897
  687MOL0     H90664  -2.236   9.385  -1.103 -0.2699 -2.8909  3.6484
  687MOL0     H90665  -2.272   9.217  -1.136 -1.0552  1.4949 -1.6550
  687MOL0     H90666  -1.586   9.439  -0.288  1.0197 -0.5923  1.3676
  687MOL0     H90667  -1.388   9.409  -0.140  1.2298 -0.1666 -1.5900
  687MOL0     H90668  -0.894   8.987  -0.190 -2.6174 -0.6594 -0.9763
  687MOL0     H90669  -0.734   8.953  -0.035  0.3575  2.6756 -1.5882
  687MOL0     H90670   0.715   9.991   0.268 -0.2751 -0.7794 -2.1964
  687MOL0     H90671   0.921  10.072   0.382  0.5685  0.3919 -0.9464
  687MOL0     H90672   1.236  10.214   0.691 -0.2431  3.3752 -4.3961
  687MOL0     H90673   1.464  10.302   0.703 -0.9337  0.4932 -0.1407
  687MOL0     H90674   1.665  10.275   0.791  4.2499  3.2313  3.4617
  687MOL0     H90675   1.655  10.396   0.671  0.2576  0.0040 -0.3385
  687MOL0     H90676   1.908  10.339   0.606  3.5708 -0.3855  1.3744
  687MOL0     H90677   1.870  10.405   0.763 -1.5655  0.7778  0.5664
  687MOL0     H90678   1.962  10.125   0.676  1.9488  0.9212 -0.9178
  687MOL0     H90679   1.881  10.154   0.835  0.8180 -0.1289 -0.8739
  687MOL0     H90680   2.056  10.321   0.889 -2.0331  0.6347 -0.1637
  687MOL0     H90681   2.117  10.150   0.866 -2.6734 -0.2160  1.1029
  687MOL0     H90682   2.314  10.395   0.569  3.3565 -1.2915  3.4516
  687MOL0     H90683   1.606   9.976   0.489 -1.2678  0.9216 -0.7874
  687MOL0     H90684   1.385   9.889   0.446 -0.8897  0.4545  0.2915
  688MOL0     O90685   8.566   0.967   2.255  0.8472  0.0024  0.1774
  688MOL0     C90686   8.555   0.949   2.378 -0.0455 -0.3038  0.3948
  688MOL0     O90687   8.473   0.864   2.435  0.5783 -0.3324 -0.0358
  688MOL0     C90688   8.385   0.786   2.361  0.0063  0.2079  0.2262
  688MOL0     C90689   8.357   0.668   2.423  0.6121 -0.4000  0.0205
  688MOL0     C90690   8.253   0.581   2.371 -0.3197  0.0554 -0.6255
  688MOL0     C90691   8.191   0.617   2.250  0.0996  0.7573 -0.2848
  688MOL0     O90692   8.094   0.542   2.186  0.0728  0.3323  0.1117
  688MOL0     C90693   8.092   0.397   2.216  0.4547 -0.6928  0.1399
  688MOL0     C90694   7.982   0.348   2.124 -0.5382 -0.2499  0.4538
  688MOL0     C90695   7.841   0.394   2.167 -0.5645  0.3371 -0.7307
  688MOL0     C90696   7.736   0.306   2.101  0.0200  0.1241  0.2190
  688MOL0     C90697   7.596   0.316   2.170  0.1228 -0.4228  0.5285
  688MOL0     C90698   7.508   0.213   2.097 -0.7210  0.2602 -0.4429
  688MOL0     C90699   7.358   0.236   2.132  0.3171 -0.0595  0.3483
  688MOL0     C90700   7.262   0.164   2.035  0.8266  0.6810  0.9674
  688MOL0     N90701   7.132   0.225   2.037 -0.2961  0.9000  0.3807
  688MOL0     C90702   7.064   0.270   1.926  0.4813 -0.0991 -0.9060
  688MOL0     C90703   6.932   0.287   1.981  0.1828  0.5355 -0.0461
  688MOL0     C90704   6.811   0.323   1.901 -1.0287 -0.8995 -0.1262
  688MOL0     C90705   6.766   0.210   1.801 -0.2071 -0.3985 -0.2846
  688MOL0     C90706   6.668   0.105   1.860 -0.7864 -0.2858 -0.1284
  688MOL0     C90707   6.660  -0.017   1.772 -0.5447 -0.2791 -0.0736
  688MOL0     O90708   6.611  -0.006   1.638  0.3980  0.0981 -0.1857
  688MOL0     C90709   6.479   0.020   1.617 -0.4635  0.0389  0.3971
  688MOL0     C90710   6.458   0.016   1.479 -0.2411 -0.3693 -0.7373
  688MOL0     C90711   6.329   0.033   1.429 -0.1094  0.2210  0.2768
  688MOL0     C90712   6.223   0.067   1.512  0.3116  0.9138  0.7594
  688MOL0     C90713   6.079   0.077   1.471 -0.2909  0.6242  0.1739
  688MOL0     O90714   5.980   0.101   1.556 -0.5141  0.0314 -0.0271
  688MOL0     C90715   5.851   0.103   1.508 -0.2446  0.3142 -0.1649
  688MOL0     C90716   5.765   0.198   1.565  0.5257 -0.2027  0.0901
  688MOL0     C90717   5.630   0.191   1.542 -1.0116 -0.1018  0.4276
  688MOL0     C90718   5.569   0.096   1.455 -0.2762 -0.5160 -0.5418
  688MOL0     O90719   5.437   0.101   1.444  0.3385 -0.1395 -0.3699
  688MOL0     C90720   5.360   0.114   1.566  0.4785 -0.0200  0.8972
  688MOL0     C90721   5.223   0.053   1.518 -0.1523  0.6709 -0.0238
  688MOL0     C90722   5.127   0.050   1.634  0.7855 -0.3245 -0.5793
  688MOL0     C90723   4.977   0.017   1.609  0.2476 -0.3970  0.4708
  688MOL0     C90724   4.969  -0.136   1.624 -0.2486 -0.1402  0.0604
  688MOL0     C90725   4.829  -0.175   1.575 -0.9479 -0.6757 -0.2720
  688MOL0     C90726   4.820  -0.327   1.575 -0.0155 -0.6268 -0.8851
  688MOL0     C90727   4.920  -0.393   1.473 -0.2980  0.5407 -0.1787
  688MOL0    Cl90728   4.894  -0.327   1.308  0.0342 -0.5406 -0.1744
  688MOL0     C90729   5.666   0.011   1.389  0.5050  0.7014  0.4927
  688MOL0     C90730   5.800   0.014   1.415 -0.6958  0.5657 -0.2039
  688MOL0     O90731   6.066   0.059   1.344  0.5993  0.3725 -0.1752
  688MOL0     C90732   6.239   0.069   1.650  0.4232  0.4916  0.3824
  688MOL0     C90733   6.369   0.056   1.704 -0.3988 -0.1912  0.8271
  688MOL0     N90734   6.932   0.269   2.116 -0.0509  0.0357  0.2093
  688MOL0     N90735   7.056   0.224   2.144  0.8910 -1.0637 -0.4440
  688MOL0     C90736   8.215   0.744   2.205  0.2936  0.3593 -0.2372
  688MOL0     C90737   8.317   0.828   2.249 -0.4758 -0.6892 -0.5430
  688MOL0     C90738   8.659   1.008   2.467  0.4820 -0.2432  0.7668
  688MOL0     C90739   8.678   0.961   2.602  0.2366  0.0960 -0.7282
  688MOL0     C90740   8.761   1.030   2.695 -0.0029 -1.1175 -0.8747
  688MOL0     C90741   8.823   1.143   2.652 -0.2589  0.1608  0.2284
  688MOL0     O90742   8.896   1.227   2.728 -0.0574 -0.3421 -0.1928
  688MOL0     C90743   8.977   1.164   2.825  0.2716  0.0040 -0.5956
  688MOL0     C90744   9.083   1.252   2.903  0.2644  0.3425 -0.3761
  688MOL0     C90745   9.162   1.322   2.791 -0.3546 -0.2149  0.3213
  688MOL0     C90746   9.289   1.388   2.839 -0.5156 -0.3099 -0.5153
  688MOL0     C90747   9.267   1.524   2.896 -0.5919 -0.0540  0.0521
  688MOL0     C90748   9.239   1.631   2.945 -0.2366 -0.3653 -0.2567
  688MOL0     C90749   8.789   1.190   2.529  1.0230 -0.5420  0.3701
  688MOL0     C90750   8.721   1.126   2.435  0.3770  1.1354  0.2449
  688MOL0     H90751   8.419   0.643   2.509  1.8042 -0.1148 -0.7282
  688MOL0     H90752   8.231   0.490   2.427 -0.3563 -0.0586 -0.8225
  688MOL0     H90753   8.060   0.393   2.321 -0.3080  0.1927 -0.0419
  688MOL0     H90754   8.186   0.341   2.208  0.4839 -0.9920  2.0286
  688MOL0     H90755   7.981   0.241   2.146  0.5800  0.0090  1.8504
  688MOL0     H90756   7.990   0.380   2.020 -2.9908 -3.2244 -0.8220
  688MOL0     H90757   7.806   0.494   2.138 -0.1198  1.4506  2.2308
  688MOL0     H90758   7.840   0.410   2.275  2.4876 -0.3709 -0.5067
  688MOL0     H90759   7.729   0.329   1.994 -2.1331 -0.4542  0.1897
  688MOL0     H90760   7.772   0.203   2.095 -1.5256 -0.3939 -0.7211
  688MOL0     H90761   7.564   0.419   2.152  1.2921 -0.2463 -0.7559
  688MOL0     H90762   7.596   0.300   2.279 -0.2236 -1.2440  0.4094
  688MOL0     H90763   7.545   0.115   2.126  3.4075  1.8058  0.2198
  688MOL0     H90764   7.522   0.234   1.990  1.1262  0.8057 -0.1280
  688MOL0     H90765   7.330   0.220   2.236  0.9010  0.3783  0.5807
  688MOL0     H90766   7.341   0.344   2.124  0.1864 -0.0012  1.2912
  688MOL0     H90767   7.255   0.062   2.075 -1.4521  0.5489  0.3292
  688MOL0     H90768   7.285   0.156   1.928 -4.5474 -0.3689 -0.4022
  688MOL0     H90769   7.102   0.267   1.825  1.3547 -1.2695 -0.5632
  688MOL0     H90770   6.838   0.400   1.829  0.9964 -0.8747  0.5971
  688MOL0     H90771   6.731   0.357   1.967 -0.6713 -0.0506 -0.1242
  688MOL0     H90772   6.851   0.167   1.746  1.2098  1.7889  0.0915
  688MOL0     H90773   6.713   0.264   1.721 -2.1293  0.1431  1.2725
  688MOL0     H90774   6.696   0.073   1.961 -0.4380  1.2335  0.2741
  688MOL0     H90775   6.580   0.165   1.885  0.4292  0.9251  1.4397
  688MOL0     H90776   6.604  -0.094   1.825 -2.1770  0.6673 -0.3844
  688MOL0     H90777   6.761  -0.056   1.754 -0.0779  0.4451  0.8981
  688MOL0     H90778   6.548   0.002   1.419  2.7142  0.4979  3.0214
  688MOL0     H90779   6.310   0.019   1.323 -1.2043  0.1453  0.4714
  688MOL0     H90780   5.811   0.262   1.639  2.4653 -1.0494 -0.3078
  688MOL0     H90781   5.566   0.271   1.578  0.2821  2.4421 -2.4719
  688MOL0     H90782   5.347   0.216   1.604  5.4259  0.6154  1.4682
  688MOL0     H90783   5.392   0.045   1.645  1.8130 -0.6124 -0.1305
  688MOL0     H90784   5.229  -0.052   1.489  0.0205  0.8076 -0.4904
  688MOL0     H90785   5.186   0.115   1.435 -0.4645 -1.2057 -1.3644
  688MOL0     H90786   5.122   0.152   1.674 -1.7380 -0.4153 -0.4709
  688MOL0     H90787   5.170  -0.018   1.708  3.2924  0.3551 -1.3325
  688MOL0     H90788   4.900   0.066   1.669  1.8257 -0.4100  2.5909
  688MOL0     H90789   4.956   0.047   1.506 -0.1783 -2.4230 -0.0786
  688MOL0     H90790   4.986  -0.161   1.729  0.2478 -0.5908 -0.1243
  688MOL0     H90791   5.036  -0.183   1.552 -1.7408  0.7483 -2.0532
  688MOL0     H90792   4.793  -0.128   1.483  2.7643  0.9694 -1.0830
  688MOL0     H90793   4.757  -0.143   1.652  0.0097 -0.6601  0.6420
  688MOL0     H90794   4.840  -0.370   1.673  0.1082  1.7037  0.1719
  688MOL0     H90795   4.716  -0.354   1.555 -0.5907  1.5228 -1.0840
  688MOL0     H90796   4.895  -0.500   1.481 -1.9888  1.0405  3.3479
  688MOL0     H90797   5.026  -0.381   1.497  0.1742 -1.2313 -1.1418
  688MOL0     H90798   5.624  -0.050   1.309  1.4555  4.3619 -3.1620
  688MOL0     H90799   5.858  -0.066   1.371 -3.2742 -1.9806  0.6876
  688MOL0     H90800   6.164   0.089   1.726  0.5980 -1.4505  1.1413
  688MOL0     H90801   6.383   0.044   1.811 -2.7988  2.3035  1.5260
  688MOL0     H90802   8.161   0.783   2.120 -2.5759 -0.4825  1.0992
  688MOL0     H90803   8.325   0.923   2.198 -2.0657 -0.3923 -0.2955
  688MOL0     H90804   8.632   0.868   2.635  0.9631  0.3326  1.0492
  688MOL0     H90805   8.768   0.993   2.797 -0.3819 -0.9682 -0.7908
  688MOL0     H90806   9.022   1.072   2.786  0.3182 -0.7820  1.1817
  688MOL0     H90807   8.909   1.118   2.898  1.6897 -0.4120  0.4916
  688MOL0     H90808   9.015   1.311   2.965  0.6029  0.5073 -0.1598
  688MOL0     H90809   9.148   1.189   2.965  1.3906  3.8152  2.2587
  688MOL0     H90810   9.093   1.390   2.739 -5.2376 -4.4454  0.5255
  688MOL0     H90811   9.193   1.249   2.715 -1.1192  0.9525 -1.1824
  688MOL0     H90812   9.347   1.324   2.905 -0.6191  0.1962  0.0796
  688MOL0     H90813   9.351   1.405   2.750 -0.5044 -1.5306 -0.7496
  688MOL0     H90814   9.213   1.729   2.980  0.8287 -0.3282  0.4961
  688MOL0     H90815   8.825   1.288   2.501  0.1627 -0.2041  0.4174
  688MOL0     H90816   8.725   1.160   2.332 -0.3353 -1.6853 -0.8062
  689MOL0     O90817   9.467   4.677   3.572 -0.4197  0.4281 -0.4963
  689MOL0     C90818   9.456   4.694   3.452 -0.6930  0.1491 -0.8444
  689MOL0     O90819   9.342   4.722   3.382  0.0895 -0.9130  0.1106
  689MOL0     C90820   9.226   4.745   3.457 -0.6722  0.1318  0.0617
  689MOL0     C90821   9.105   4.728   3.387 -0.5101 -1.0816 -0.1663
  689MOL0     C90822   8.980   4.742   3.450  0.3832  0.0440 -0.1951
  689MOL0     C90823   8.972   4.806   3.574 -0.7589  0.5503  0.3784
  689MOL0     O90824   8.854   4.822   3.632 -0.3400 -0.7191 -0.2685
  689MOL0     C90825   8.829   4.764   3.761 -0.5433  0.1620 -0.3231
  689MOL0     C90826   8.688   4.776   3.815 -0.0977 -0.3814 -0.5943
  689MOL0     C90827   8.593   4.685   3.728 -0.1026  0.1097 -0.2702
  689MOL0     C90828   8.596   4.690   3.576  0.1310  0.2566  0.0779
  689MOL0     C90829   8.471   4.626   3.528 -0.0263 -0.2924  0.3493
  689MOL0     C90830   8.462   4.658   3.383 -0.3517 -0.7346 -0.2056
  689MOL0     C90831   8.339   4.591   3.338  0.5298 -0.6334 -0.8225
  689MOL0     C90832   8.332   4.609   3.192  0.8206 -0.6631  1.4582
  689MOL0     N90833   8.222   4.524   3.133 -0.7724 -0.3698  0.2799
  689MOL0     C90834   8.093   4.522   3.177  0.0048  0.8362  0.4915
  689MOL0     C90835   8.044   4.416   3.113  0.2882  0.0575  0.0900
  689MOL0     C90836   7.899   4.354   3.130 -0.8742 -0.5067 -0.2588
  689MOL0     C90837   7.858   4.303   2.993  0.2576 -0.1445 -0.0999
  689MOL0     C90838   7.711   4.257   3.009  0.4385 -0.6262  0.7703
  689MOL0     C90839   7.653   4.174   2.890 -0.1255 -0.3506 -0.5088
  689MOL0     O90840   7.521   4.126   2.921 -0.2354  0.0099 -0.6773
  689MOL0     C90841   7.414   4.204   2.886 -0.3745 -0.4802  0.1323
  689MOL0     C90842   7.298   4.132   2.900 -0.5332 -0.3205  0.3203
  689MOL0     C90843   7.175   4.191   2.866 -0.6215 -0.0145 -1.0300
  689MOL0     C90844   7.165   4.326   2.815  1.2187  0.0500 -0.6066
  689MOL0     C90845   7.038   4.391   2.776 -0.5079 -0.6081 -0.7909
  689MOL0     O90846   6.917   4.321   2.790  0.1508 -0.4728  0.2627
  689MOL0     C90847   6.801   4.377   2.751 -0.0007  0.5794 -0.2901
  689MOL0     C90848   6.712   4.298   2.680 -0.2829  0.7556 -0.7199
  689MOL0     C90849   6.589   4.339   2.647  0.4500 -0.3987 -0.4106
  689MOL0     C90850   6.546   4.466   2.697 -0.5268  0.0287  0.2296
  689MOL0     O90851   6.423   4.516   2.681  0.3760 -0.0063 -0.3577
  689MOL0     C90852   6.318   4.429   2.641  0.8987  0.0387  0.2666
  689MOL0     C90853   6.189   4.517   2.614  0.5797  0.1425  0.3661
  689MOL0     C90854   6.063   4.438   2.628  0.0264  0.4521 -0.3617
  689MOL0     C90855   5.939   4.528   2.630 -0.2377 -0.0899 -0.0035
  689MOL0     C90856   5.807   4.441   2.630  0.5182  0.3300 -0.2361
  689MOL0     C90857   5.680   4.528   2.631  0.2846 -0.3964 -0.3905
  689MOL0     C90858   5.559   4.430   2.617 -0.4785 -0.6276  0.0159
  689MOL0     C90859   5.448   4.489   2.543  0.3721  0.7505  0.4197
  689MOL0    Cl90860   5.344   4.578   2.654  0.1667  0.6057  0.2963
  689MOL0     C90861   6.634   4.551   2.755  0.5884 -0.0244  0.3279
  689MOL0     C90862   6.762   4.509   2.776 -0.0562 -0.2831 -0.2280
  689MOL0     O90863   7.038   4.509   2.735 -0.1333 -0.1110  0.1408
  689MOL0     C90864   7.286   4.393   2.798 -0.1314  0.3485  0.0293
  689MOL0     C90865   7.411   4.325   2.824  0.8443 -0.1060 -0.8999
  689MOL0     N90866   8.142   4.369   3.025 -0.1852 -0.8315  0.7577
  689MOL0     N90867   8.250   4.437   3.038  0.2146 -0.2374 -0.5567
  689MOL0     C90868   9.086   4.847   3.644  0.3419 -0.6566  0.6538
  689MOL0     C90869   9.213   4.818   3.585  0.0698  0.2644  0.1467
  689MOL0     C90870   9.579   4.690   3.377  0.1753 -0.4921  0.1579
  689MOL0     C90871   9.571   4.743   3.250  0.4229 -0.6768 -0.4009
  689MOL0     C90872   9.678   4.753   3.159 -0.8776  0.3993 -0.7670
  689MOL0     C90873   9.804   4.702   3.205  0.8127  0.0564 -0.1462
  689MOL0     O90874   9.905   4.727   3.118 -0.3656  0.0087  0.3403
  689MOL0     C90875  10.034   4.749   3.179  1.1904  0.9867 -0.1469
  689MOL0     C90876  10.119   4.843   3.089  0.4514  0.1127  0.6782
  689MOL0     C90877  10.262   4.855   3.121  0.2330  0.2603 -0.0748
  689MOL0     C90878  10.317   4.992   3.105 -0.3494  0.3402 -0.5101
  689MOL0     C90879  10.352   5.019   2.973 -0.9324 -0.5950  0.8537
  689MOL0     C90880  10.387   5.055   2.864  0.0258 -0.1084  0.4145
  689MOL0     C90881   9.815   4.640   3.335 -0.5670 -0.2058  0.1888
  689MOL0     C90882   9.706   4.646   3.423  0.3565  1.1199  0.1734
  689MOL0     H90883   9.115   4.698   3.283  2.7698  0.8707 -0.5328
  689MOL0     H90884   8.890   4.727   3.390 -2.2386  2.3052  2.8455
  689MOL0     H90885   8.887   4.819   3.836  2.0263  1.2027 -2.8982
  689MOL0     H90886   8.849   4.657   3.772 -5.2025 -0.8678  0.1777
  689MOL0     H90887   8.653   4.879   3.820 -0.6775 -0.6091  2.9801
  689MOL0     H90888   8.679   4.736   3.917  2.1226 -3.1420 -1.3281
  689MOL0     H90889   8.491   4.694   3.767  0.3690 -1.2109  1.3743
  689MOL0     H90890   8.607   4.578   3.748  0.1162  0.5871  2.4538
  689MOL0     H90891   8.594   4.795   3.546 -0.6344  0.2393  0.0477
  689MOL0     H90892   8.679   4.638   3.528 -1.4445 -2.9773  0.5886
  689MOL0     H90893   8.383   4.665   3.581  1.3899  2.0621  1.1280
  689MOL0     H90894   8.485   4.518   3.545  0.0192 -0.3077  0.2134
  689MOL0     H90895   8.558   4.627   3.341 -1.3157 -1.7301 -1.8340
  689MOL0     H90896   8.461   4.766   3.366  0.7946 -0.5178  0.9989
  689MOL0     H90897   8.347   4.484   3.355  0.7391 -0.1967  2.5476
  689MOL0     H90898   8.252   4.620   3.399  2.9440  1.8029  1.7955
  689MOL0     H90899   8.422   4.560   3.153  1.5348  1.1200  0.7220
  689MOL0     H90900   8.319   4.715   3.168  4.2506  0.0277  2.1069
  689MOL0     H90901   8.054   4.579   3.261  1.9590 -1.0931  2.8445
  689MOL0     H90902   7.833   4.428   3.175 -0.3266 -0.0118 -0.2535
  689MOL0     H90903   7.914   4.273   3.202 -1.2888 -0.4831 -0.1467
  689MOL0     H90904   7.931   4.224   2.975  1.3089  0.3009  1.9251
  689MOL0     H90905   7.854   4.377   2.913 -0.9609 -1.0715 -0.9463
  689MOL0     H90906   7.711   4.186   3.092 -1.7674  0.5251  1.8486
  689MOL0     H90907   7.640   4.336   3.036  0.0034 -1.0992  1.0281
  689MOL0     H90908   7.721   4.090   2.875 -0.7718 -2.0110  4.0814
  689MOL0     H90909   7.652   4.244   2.806 -0.1765  2.2867  1.5483
  689MOL0     H90910   7.301   4.040   2.958  1.4326 -0.3884  0.1788
  689MOL0     H90911   7.095   4.120   2.883 -1.2699  0.9641  0.1934
  689MOL0     H90912   6.754   4.201   2.652 -0.1450  0.6550 -0.1664
  689MOL0     H90913   6.523   4.275   2.589  1.9423  2.4746 -6.0051
  689MOL0     H90914   6.308   4.367   2.731  0.2755 -0.9791 -0.4830
  689MOL0     H90915   6.346   4.370   2.554  1.8265 -0.5520  0.9633
  689MOL0     H90916   6.195   4.566   2.517  0.5625  1.6514  1.0996
  689MOL0     H90917   6.174   4.593   2.692 -1.0567 -2.2175  2.5139
  689MOL0     H90918   6.074   4.384   2.723 -0.0412  1.2167  0.0843
  689MOL0     H90919   6.070   4.369   2.542  1.7195  1.1426 -0.8175
  689MOL0     H90920   5.937   4.593   2.718 -0.0014 -1.8220  1.3198
  689MOL0     H90921   5.939   4.597   2.544  1.1985  1.4139  1.1351
  689MOL0     H90922   5.797   4.378   2.719 -0.7372 -0.0591 -0.6356
  689MOL0     H90923   5.806   4.370   2.548  2.1207  2.2416 -2.0266
  689MOL0     H90924   5.699   4.605   2.556  0.0221 -0.8631 -0.9345
  689MOL0     H90925   5.675   4.590   2.721  1.0478  1.2317 -1.4088
  689MOL0     H90926   5.599   4.340   2.568  1.4366 -0.1429  0.6268
  689MOL0     H90927   5.531   4.389   2.714  1.8983 -2.7497 -0.0945
  689MOL0     H90928   5.389   4.412   2.492  0.7344 -0.6267  1.9797
  689MOL0     H90929   5.490   4.557   2.469  1.4540 -1.4975 -1.1374
  689MOL0     H90930   6.610   4.654   2.780  0.0495 -0.1827  0.4834
  689MOL0     H90931   6.824   4.581   2.827 -4.2364  2.3847  1.5499
  689MOL0     H90932   7.274   4.492   2.755 -1.9074  0.2688  0.2777
  689MOL0     H90933   7.498   4.388   2.806 -0.0357  1.5867  0.4778
  689MOL0     H90934   9.080   4.907   3.734 -1.2525  0.0465  0.1085
  689MOL0     H90935   9.302   4.868   3.622  0.5267  0.5334 -1.2472
  689MOL0     H90936   9.479   4.787   3.213 -1.0893 -2.4367  1.0535
  689MOL0     H90937   9.679   4.804   3.064 -0.0734  0.6445 -0.6371
  689MOL0     H90938  10.078   4.652   3.205  0.3424  0.9187  1.1081
  689MOL0     H90939  10.016   4.799   3.274 -0.3693  0.6658 -0.2547
  689MOL0     H90940  10.108   4.809   2.985 -2.7859 -1.2535  1.3239
  689MOL0     H90941  10.075   4.942   3.100  2.2586  0.8094  2.0953
  689MOL0     H90942  10.304   4.781   3.052  1.6294 -1.6537  2.6389
  689MOL0     H90943  10.285   4.825   3.224  2.9234  2.0506 -0.0648
  689MOL0     H90944  10.242   5.071   3.118 -1.0774 -0.2579 -0.9877
  689MOL0     H90945  10.411   4.999   3.159  1.3511  0.4491 -3.2673
  689MOL0     H90946  10.426   5.085   2.769 -1.7430 -0.2713 -0.3963
  689MOL0     H90947   9.911   4.604   3.372  0.4580  0.3317 -1.8385
  689MOL0     H90948   9.719   4.609   3.524  1.4164  1.4735  0.1795
  690MOL0     O90949   0.968   2.985   1.171 -0.0374 -0.3394 -0.9394
  690MOL0     C90950   1.029   3.060   1.250  0.1530 -0.4565  0.0349
  690MOL0     O90951   0.975   3.127   1.354  0.4935  0.4983 -0.7994
  690MOL0     C90952   0.837   3.108   1.391 -0.0385  0.8632  0.2124
  690MOL0     C90953   0.796   2.996   1.460  0.6979  0.3624  1.3051
  690MOL0     C90954   0.653   2.982   1.483  1.5980 -0.4780  0.3351
  690MOL0     C90955   0.560   3.092   1.469  0.2548 -0.4338  0.4287
  690MOL0     O90956   0.428   3.090   1.496 -0.0282  0.0028  0.0842
  690MOL0     C90957   0.362   2.968   1.542  0.0649  0.4717  0.0063
  690MOL0     C90958   0.364   2.853   1.435  0.0987 -0.7694 -0.9389
  690MOL0     C90959   0.306   2.904   1.304 -0.7051  0.7315  0.1246
  690MOL0     C90960   0.230   2.799   1.230  0.1400  0.5647 -0.9000
  690MOL0     C90961   0.160   2.873   1.110 -0.4268  0.9377  0.0754
  690MOL0     C90962   0.052   2.795   1.030 -0.9796  0.3854  0.2880
  690MOL0     C90963   0.109   2.736   0.897 -0.1235 -0.4616 -0.5919
  690MOL0     C90964   0.142   2.854   0.784  1.1853  0.2814  0.1045
  690MOL0     N90965   0.196   2.793   0.665  0.4544  0.0427  0.0887
  690MOL0     C90966   0.318   2.737   0.652  0.1384 -1.0492  0.6160
  690MOL0     C90967   0.332   2.725   0.521 -1.0409  1.1581  0.9184
  690MOL0     C90968   0.457   2.671   0.450 -0.1807  0.2455  0.3390
  690MOL0     C90969   0.519   2.538   0.508 -0.0089 -0.6540  0.3764
  690MOL0     C90970   0.566   2.443   0.390  1.0393  0.6982 -0.0813
  690MOL0     C90971   0.608   2.300   0.440 -0.2933 -0.3068 -0.5495
  690MOL0     O90972   0.504   2.221   0.504  0.2523  0.3968  1.3654
  690MOL0     C90973   0.400   2.173   0.424  0.0156 -0.1320  0.3626
  690MOL0     C90974   0.280   2.136   0.489 -0.1804 -0.4005  0.2560
  690MOL0     C90975   0.175   2.074   0.424  0.5503  0.5964  0.4887
  690MOL0     C90976   0.183   2.039   0.289 -0.1463 -0.1881 -0.6724
  690MOL0     C90977   0.068   1.976   0.214 -0.0454 -0.2221 -0.2909
  690MOL0     O90978  -0.043   1.944   0.291  0.1820 -0.2853 -0.0425
  690MOL0     C90979  -0.158   1.912   0.218 -0.2629  0.0840 -1.2394
  690MOL0     C90980  -0.221   1.777   0.234 -0.8237  0.9744  0.5758
  690MOL0     C90981  -0.331   1.750   0.159 -0.5991  0.2585  0.4739
  690MOL0     C90982  -0.385   1.849   0.077 -0.5261  1.1497 -0.1373
  690MOL0     O90983  -0.506   1.837   0.015 -0.1686  0.2138  0.0200
  690MOL0     C90984  -0.604   1.746   0.069  0.4263 -0.3968  0.2060
  690MOL0     C90985  -0.728   1.770  -0.018 -0.5416 -0.2049 -0.1012
  690MOL0     C90986  -0.852   1.704   0.044 -0.2425  0.0534 -0.0702
  690MOL0     C90987  -0.972   1.699  -0.045 -0.6198 -0.7992  0.8690
  690MOL0     C90988  -1.022   1.563  -0.081 -0.4678  0.8195 -0.4533
  690MOL0     C90989  -1.083   1.497   0.048 -0.1255  0.3901 -0.1005
  690MOL0     C90990  -1.100   1.347   0.031 -0.5846 -0.2046 -0.2149
  690MOL0     C90991  -1.235   1.314  -0.036  0.1699 -0.8568  0.5571
  690MOL0    Cl90992  -1.294   1.146  -0.009 -0.0140  0.0668  0.1386
  690MOL0     C90993  -0.329   1.978   0.065  0.9243  0.7286  0.3821
  690MOL0     C90994  -0.216   2.009   0.135  0.2843 -0.6978  0.3567
  690MOL0     O90995   0.077   1.961   0.094 -0.9180 -0.1454  0.0504
  690MOL0     C90996   0.304   2.058   0.225 -0.1178 -0.7374 -0.1542
  690MOL0     C90997   0.408   2.131   0.284 -0.2469  1.0455  0.3341
  690MOL0     N90998   0.216   2.758   0.463 -0.7319  0.2786  0.0900
  690MOL0     N90999   0.139   2.809   0.546 -1.0665  0.0598 -0.1421
  690MOL0     C91000   0.609   3.205   1.400  0.8089  0.7074  0.0309
  690MOL0     C91001   0.741   3.212   1.362  0.3696  1.3865 -0.0674
  690MOL0     C91002   1.176   3.071   1.213 -0.0317 -0.5936 -0.5090
  690MOL0     C91003   1.270   3.124   1.309  0.8012  0.5739  0.2334
  690MOL0     C91004   1.401   3.137   1.280 -0.7569 -0.2821  0.2231
  690MOL0     C91005   1.447   3.099   1.159 -0.6216  0.3606  0.4329
  690MOL0     O91006   1.583   3.120   1.149 -0.1944  0.3230  0.0870
  690MOL0     C91007   1.641   3.109   1.017  0.3060  0.4755  0.7833
  690MOL0     C91008   1.700   2.969   0.990 -0.8455  0.2168  0.4112
  690MOL0     C91009   1.772   2.944   0.859 -0.9253 -0.5888 -0.0983
  690MOL0     C91010   1.683   2.986   0.740 -0.4919 -0.4039 -0.1780
  690MOL0     C91011   1.742   2.948   0.610  0.0921 -0.0004 -0.0655
  690MOL0     C91012   1.794   2.900   0.511  0.0456  0.7294 -0.0260
  690MOL0     C91013   1.361   3.043   1.063  0.4814 -0.3292 -0.0443
  690MOL0     C91014   1.224   3.041   1.085 -0.5096  0.1681  0.2652
  690MOL0     H91015   0.867   2.916   1.480  2.2986  1.7698  1.5369
  690MOL0     H91016   0.616   2.894   1.534 -0.8144  1.0929  1.5248
  690MOL0     H91017   0.255   2.982   1.557  0.0554  0.8530 -0.3868
  690MOL0     H91018   0.399   2.924   1.635 -2.8543 -1.1853  0.5005
  690MOL0     H91019   0.296   2.771   1.461 -1.1187  0.4076 -0.2769
  690MOL0     H91020   0.462   2.813   1.408  0.8640  1.6248 -2.0084
  690MOL0     H91021   0.389   2.931   1.239 -0.1380 -1.8249 -0.3135
  690MOL0     H91022   0.248   2.996   1.318  1.5649  2.6826 -2.1645
  690MOL0     H91023   0.303   2.732   1.182  0.0126 -0.0599 -0.2439
  690MOL0     H91024   0.158   2.737   1.285  0.7560 -1.8612 -2.6853
  690MOL0     H91025   0.231   2.921   1.043 -1.5702 -0.5489 -2.3582
  690MOL0     H91026   0.108   2.956   1.159  0.2943  1.6211 -0.3123
  690MOL0     H91027  -0.041   2.847   1.008 -1.9999 -1.6485 -0.4910
  690MOL0     H91028   0.011   2.715   1.093 -0.2318  0.2015  0.5564
  690MOL0     H91029   0.194   2.674   0.929  0.7015  1.4442  1.0851
  690MOL0     H91030   0.025   2.684   0.851 -2.0485  0.4510  1.6820
  690MOL0     H91031   0.199   2.939   0.823 -1.2963  2.5478 -0.9288
  690MOL0     H91032   0.047   2.907   0.777  2.4695  2.6519 -0.5459
  690MOL0     H91033   0.392   2.721   0.729 -0.5276 -0.3074  1.4364
  690MOL0     H91034   0.524   2.756   0.461  1.0032 -0.3775 -1.6391
  690MOL0     H91035   0.430   2.653   0.346  0.4645  2.0374 -0.1683
  690MOL0     H91036   0.437   2.494   0.566 -0.6319 -1.5247 -1.1030
  690MOL0     H91037   0.603   2.570   0.571 -1.2601  0.7432  1.4066
  690MOL0     H91038   0.497   2.441   0.305  2.4165  2.8597 -1.3436
  690MOL0     H91039   0.655   2.491   0.348  2.3770 -2.0722 -0.6799
  690MOL0     H91040   0.686   2.309   0.516 -0.5961 -1.1845 -0.1309
  690MOL0     H91041   0.649   2.247   0.354 -2.1198  0.7854 -2.1914
  690MOL0     H91042   0.277   2.157   0.595  1.4089  0.7284  0.1208
  690MOL0     H91043   0.087   2.065   0.486  1.0870 -0.3910  1.1512
  690MOL0     H91044  -0.179   1.696   0.291 -0.1143 -2.1040 -3.8025
  690MOL0     H91045  -0.377   1.652   0.172  0.1992 -0.5382 -2.0040
  690MOL0     H91046  -0.628   1.771   0.173  2.0443  1.2001  0.2442
  690MOL0     H91047  -0.568   1.643   0.077  2.1324  0.0533 -1.1163
  690MOL0     H91048  -0.714   1.736  -0.121 -3.7560 -1.1592 -0.3110
  690MOL0     H91049  -0.742   1.879  -0.014  2.5945  0.3187  3.6222
  690MOL0     H91050  -0.882   1.755   0.136 -0.7678 -2.1362  1.0341
  690MOL0     H91051  -0.830   1.600   0.069  0.4568  0.3138  0.4319
  690MOL0     H91052  -1.043   1.768   0.001 -1.7864 -2.0188  0.9511
  690MOL0     H91053  -0.938   1.740  -0.140  0.9603  2.4195  2.6524
  690MOL0     H91054  -0.950   1.494  -0.126 -2.2513 -0.4253 -1.4864
  690MOL0     H91055  -1.101   1.575  -0.155 -0.0145 -2.9617 -1.7290
  690MOL0     H91056  -1.173   1.555   0.071  0.6263  1.2351  0.8378
  690MOL0     H91057  -1.018   1.516   0.134 -0.4127  0.9908 -0.0069
  690MOL0     H91058  -1.022   1.299  -0.029 -1.4035  1.0716 -2.3851
  690MOL0     H91059  -1.098   1.312   0.135  5.9519  0.2321  0.2343
  690MOL0     H91060  -1.229   1.335  -0.143  2.4633 -1.1933  0.5758
  690MOL0     H91061  -1.313   1.373   0.012  0.9039 -0.3148  1.1130
  690MOL0     H91062  -0.373   2.050  -0.003 -0.2485 -0.2857  0.0359
  690MOL0     H91063  -0.177   2.109   0.119  0.9870 -0.9673  0.3389
  690MOL0     H91064   0.317   2.016   0.126  1.9630  0.0151 -0.2539
  690MOL0     H91065   0.496   2.134   0.222  0.5274  0.2092  1.3605
  690MOL0     H91066   0.540   3.288   1.385 -0.3622 -0.3677 -0.7957
  690MOL0     H91067   0.783   3.301   1.314 -2.5435  3.4880  0.9977
  690MOL0     H91068   1.225   3.160   1.401 -0.5678 -0.4764  0.0092
  690MOL0     H91069   1.472   3.177   1.352 -2.9764  2.3112  1.1628
  690MOL0     H91070   1.719   3.185   1.006 -0.1112  0.6607 -1.1397
  690MOL0     H91071   1.565   3.134   0.943 -0.7023  1.0805  1.9679
  690MOL0     H91072   1.778   2.953   1.065  1.3498  0.4775 -1.6879
  690MOL0     H91073   1.630   2.889   1.014  0.3129 -0.6571  0.9421
  690MOL0     H91074   1.809   2.842   0.843 -0.7907 -1.0757  2.6786
  690MOL0     H91075   1.859   3.010   0.860 -1.2985 -0.0916 -0.2064
  690MOL0     H91076   1.586   2.935   0.741 -1.0909  0.6950 -0.8444
  690MOL0     H91077   1.663   3.093   0.733  0.1504 -0.2869 -0.1987
  690MOL0     H91078   1.849   2.866   0.426  0.8193 -0.0587  0.7663
  690MOL0     H91079   1.392   2.986   0.976 -0.2458 -0.8789  0.0511
  690MOL0     H91080   1.164   2.999   1.006  0.6215 -2.4188  0.7016
  691MOL0     O91081  10.862   2.564   2.523 -0.0429 -0.0874 -0.5699
  691MOL0     C91082  10.874   2.566   2.643  0.1523  0.2016  0.2496
  691MOL0     O91083  10.833   2.672   2.723 -0.2213  0.1074  0.7770
  691MOL0     C91084  10.804   2.792   2.657 -0.1645  0.3867 -0.6148
  691MOL0     C91085  10.672   2.817   2.606  0.3818 -0.5257 -0.1387
  691MOL0     C91086  10.662   2.931   2.520  0.1137  1.6320  0.0251
  691MOL0     C91087  10.771   3.014   2.491  1.1775  0.1999 -0.0292
  691MOL0     O91088  10.762   3.108   2.397 -0.0389 -0.2561  0.2998
  691MOL0     C91089  10.804   3.244   2.443 -0.1119  0.5230 -0.2549
  691MOL0     C91090  10.771   3.343   2.330 -0.9008 -0.6088  0.2384
  691MOL0     C91091  10.884   3.369   2.230 -0.2885 -0.1199 -0.0829
  691MOL0     C91092  10.944   3.238   2.174 -0.0831  0.4663  0.3266
  691MOL0     C91093  11.082   3.217   2.227  0.1006 -0.3312 -0.0339
  691MOL0     C91094  11.139   3.076   2.191 -0.3265  0.3751  0.4157
  691MOL0     C91095  11.295   3.076   2.211  0.4273 -0.1627 -0.5254
  691MOL0     C91096  11.337   3.056   2.359 -0.4948 -0.4538  0.2202
  691MOL0     N91097  11.470   3.000   2.379 -0.4405  0.1561  0.1699
  691MOL0     C91098  11.530   2.900   2.302 -0.0187  0.1806  0.2865
  691MOL0     C91099  11.654   2.881   2.361  0.2496  0.5962 -0.0052
  691MOL0     C91100  11.746   2.790   2.300 -0.4433 -0.2317 -0.0133
  691MOL0     C91101  11.888   2.854   2.286  0.4950 -0.0746 -0.1910
  691MOL0     C91102  11.977   2.753   2.224 -1.0833  0.4256  0.0675
  691MOL0     C91103  12.123   2.811   2.214 -0.2190 -0.0481 -0.7760
  691MOL0     O91104  12.146   2.939   2.165 -0.1298 -0.3047 -0.1667
  691MOL0     C91105  12.279   2.974   2.154 -0.1802  0.1147 -0.2222
  691MOL0     C91106  12.347   2.967   2.032 -0.1348 -0.7260  0.6117
  691MOL0     C91107  12.484   2.983   2.033  0.8912  0.1038 -0.2602
  691MOL0     C91108  12.557   3.013   2.148 -0.8781  0.1926 -0.1079
  691MOL0     C91109  12.706   3.038   2.150  0.6877 -0.4408 -0.2623
  691MOL0     O91110  12.755   3.108   2.254 -0.0074  0.8206 -0.4406
  691MOL0     C91111  12.884   3.146   2.256 -0.2258  0.7908  0.6645
  691MOL0     C91112  12.979   3.122   2.354  0.2740  0.3083 -0.8087
  691MOL0     C91113  13.118   3.153   2.343 -0.3422 -0.4780  0.5198
  691MOL0     C91114  13.166   3.216   2.229  0.7274 -0.3410 -0.6066
  691MOL0     O91115  13.296   3.250   2.210 -0.4580 -0.1728  0.3844
  691MOL0     C91116  13.348   3.335   2.311  0.0339 -0.5294 -0.0529
  691MOL0     C91117  13.440   3.438   2.257  0.4360 -0.4179  0.0910
  691MOL0     C91118  13.566   3.366   2.199  0.1933 -0.6288  0.5011
  691MOL0     C91119  13.661   3.466   2.132  0.1821  0.3703 -1.1012
  691MOL0     C91120  13.778   3.405   2.050  0.6375  0.0529  0.2803
  691MOL0     C91121  13.748   3.303   1.935  0.1530 -0.2198  1.0414
  691MOL0     C91122  13.645   3.375   1.850  0.1148  0.6893  0.3102
  691MOL0     C91123  13.701   3.479   1.754 -0.1220 -0.0872  0.7327
  691MOL0    Cl91124  13.586   3.517   1.618 -0.6419 -0.0648 -0.0041
  691MOL0     C91125  13.073   3.239   2.124 -0.1504 -0.4111 -0.4283
  691MOL0     C91126  12.940   3.194   2.141  0.2702 -0.3937 -1.0075
  691MOL0     O91127  12.762   2.995   2.049 -0.1666  0.2891  0.0114
  691MOL0     C91128  12.485   3.020   2.266 -0.8723 -0.5064  0.1241
  691MOL0     C91129  12.348   3.003   2.269 -0.2749  0.4973 -0.2567
  691MOL0     N91130  11.677   2.982   2.447  0.0738 -0.2257 -0.3724
  691MOL0     N91131  11.564   3.053   2.456  0.2020  0.3586 -0.3180
  691MOL0     C91132  10.893   2.985   2.549  0.6207  0.0720  0.8558
  691MOL0     C91133  10.914   2.879   2.636  0.5185 -0.6698 -0.3269
  691MOL0     C91134  10.927   2.437   2.694 -0.5146  0.5191 -0.1590
  691MOL0     C91135  10.942   2.417   2.837 -0.2688 -0.1268  1.1458
  691MOL0     C91136  10.992   2.294   2.882 -0.5761  0.2529  0.2166
  691MOL0     C91137  11.031   2.193   2.797 -0.5593 -0.3627 -0.6837
  691MOL0     O91138  11.087   2.093   2.863  1.0978 -0.0250  0.1531
  691MOL0     C91139  11.169   1.999   2.804 -0.0161 -0.4036  0.1178
  691MOL0     C91140  11.316   2.060   2.795 -0.1037  1.2440 -0.4547
  691MOL0     C91141  11.413   1.958   2.858 -0.7254 -0.3251 -0.1175
  691MOL0     C91142  11.433   1.833   2.767 -0.3358 -0.0848  0.4511
  691MOL0     C91143  11.533   1.871   2.667 -0.9125  0.0141 -0.3880
  691MOL0     C91144  11.614   1.878   2.576 -0.4135 -0.8617 -0.7032
  691MOL0     C91145  11.019   2.211   2.660  0.8615 -0.0545 -0.8122
  691MOL0     C91146  10.966   2.331   2.605  0.2229 -0.2566 -1.1060
  691MOL0     H91147  10.582   2.760   2.624  0.6053 -0.4875  1.1909
  691MOL0     H91148  10.564   2.954   2.481 -1.2394  2.9653  3.8068
  691MOL0     H91149  10.910   3.257   2.465  0.0579  0.2181 -0.8647
  691MOL0     H91150  10.751   3.261   2.536  0.1936 -0.4313  0.1080
  691MOL0     H91151  10.765   3.441   2.377  0.3410 -0.8668  0.9633
  691MOL0     H91152  10.678   3.304   2.287 -0.0986 -2.7288  0.3325
  691MOL0     H91153  10.959   3.423   2.289  2.4131 -3.4195 -0.2425
  691MOL0     H91154  10.837   3.431   2.153 -0.0642  2.3245  1.6232
  691MOL0     H91155  10.880   3.153   2.197  0.1163 -0.0411 -0.9008
  691MOL0     H91156  10.949   3.250   2.065 -1.3853  3.4174  0.4913
  691MOL0     H91157  11.086   3.241   2.334 -0.1466 -0.2332 -0.0455
  691MOL0     H91158  11.142   3.296   2.180  1.5139  0.9082  3.5229
  691MOL0     H91159  11.119   3.061   2.084  1.6396 -1.1923  0.2033
  691MOL0     H91160  11.083   3.010   2.257  0.1532  1.0962  1.5633
  691MOL0     H91161  11.340   3.004   2.142  2.8239  2.3738 -1.7980
  691MOL0     H91162  11.343   3.169   2.179 -0.8884  0.7810  0.1696
  691MOL0     H91163  11.274   2.985   2.412 -0.6726  0.1302  0.8083
  691MOL0     H91164  11.334   3.155   2.406 -1.2448  1.2587 -3.0933
  691MOL0     H91165  11.485   2.847   2.219  1.6423 -0.4002 -0.2870
  691MOL0     H91166  11.716   2.773   2.196  0.5056  1.5709 -0.6233
  691MOL0     H91167  11.748   2.697   2.357  0.0738 -0.2676 -0.0848
  691MOL0     H91168  11.924   2.877   2.387  0.6572 -1.3133  0.0512
  691MOL0     H91169  11.894   2.946   2.227  1.6025  1.5167  2.2129
  691MOL0     H91170  11.987   2.667   2.291  3.1235  0.1317 -0.6750
  691MOL0     H91171  11.948   2.710   2.128 -0.3046 -0.5601  0.2544
  691MOL0     H91172  12.164   2.738   2.143 -2.9370 -0.8811 -1.6130
  691MOL0     H91173  12.164   2.804   2.315 -2.8190  0.2500  0.3768
  691MOL0     H91174  12.283   2.962   1.945  1.4478  1.9809 -0.8485
  691MOL0     H91175  12.542   2.974   1.942 -1.7960  1.5643 -2.2484
  691MOL0     H91176  12.944   3.075   2.445  1.4078  1.7165  0.4003
  691MOL0     H91177  13.197   3.122   2.410 -1.0785 -1.0248  1.1534
  691MOL0     H91178  13.409   3.283   2.386  0.9021  2.8796  1.8082
  691MOL0     H91179  13.270   3.384   2.370  1.5682  0.1027  1.5587
  691MOL0     H91180  13.461   3.504   2.341  0.5653  0.6508 -0.7518
  691MOL0     H91181  13.391   3.513   2.192 -0.2166  1.3864  2.5050
  691MOL0     H91182  13.534   3.297   2.121  0.9312  1.6644 -1.9741
  691MOL0     H91183  13.625   3.308   2.271  0.1228 -2.4726 -0.8634
  691MOL0     H91184  13.609   3.533   2.063  2.2750  2.6830 -0.5677
  691MOL0     H91185  13.709   3.532   2.204  0.8772  1.6682 -2.6980
  691MOL0     H91186  13.842   3.350   2.120 -1.4654 -2.2145  0.5652
  691MOL0     H91187  13.826   3.498   2.019 -0.5612  0.6761  0.2531
  691MOL0     H91188  13.698   3.220   1.985 -0.1410 -0.3720  0.5117
  691MOL0     H91189  13.831   3.271   1.871 -0.0728  0.0689  0.6002
  691MOL0     H91190  13.593   3.298   1.791  2.4511 -0.3467 -0.5224
  691MOL0     H91191  13.567   3.411   1.917 -0.5950  2.3877 -1.3328
  691MOL0     H91192  13.792   3.443   1.703  0.2318 -1.3946  2.1908
  691MOL0     H91193  13.727   3.568   1.811  1.6833 -1.1561  1.6877
  691MOL0     H91194  13.109   3.279   2.029  0.4125  0.0979 -0.0047
  691MOL0     H91195  12.868   3.224   2.066  0.3365 -0.4090 -1.0778
  691MOL0     H91196  12.538   3.033   2.360  1.1222 -2.7473 -0.5857
  691MOL0     H91197  12.289   3.011   2.360 -0.7354  0.3251 -0.5344
  691MOL0     H91198  10.976   3.053   2.528 -0.9309  1.4961 -1.0650
  691MOL0     H91199  11.010   2.865   2.686  0.7525  0.1180 -0.5416
  691MOL0     H91200  10.927   2.503   2.901  2.4156  1.3035  0.0161
  691MOL0     H91201  10.997   2.270   2.988 -0.4077  1.7603  0.5645
  691MOL0     H91202  11.134   1.966   2.706 -1.5340  1.8059 -0.1568
  691MOL0     H91203  11.166   1.912   2.870  1.8021 -0.9821 -0.4810
  691MOL0     H91204  11.337   2.077   2.689  2.3775 -0.6098 -0.3563
  691MOL0     H91205  11.331   2.158   2.842  2.4517  0.4949  0.4802
  691MOL0     H91206  11.360   1.929   2.949  0.4848 -2.0598  0.0740
  691MOL0     H91207  11.509   2.005   2.882 -1.0790  0.7881 -0.7786
  691MOL0     H91208  11.487   1.759   2.827  0.1371  1.7466  2.4140
  691MOL0     H91209  11.354   1.785   2.709 -0.4814 -0.6415  1.0883
  691MOL0     H91210  11.688   1.895   2.501 -0.2842  2.5637  0.0373
  691MOL0     H91211  11.052   2.128   2.598  0.6326 -1.0416  0.3676
  691MOL0     H91212  10.959   2.343   2.497 -1.8645  2.0739 -0.8125
  692MOL0     O91213   7.335   0.182   1.087 -0.0744 -0.0020 -0.2678
  692MOL0     C91214   7.316   0.080   1.027  0.4236  0.2707 -0.0858
  692MOL0     O91215   7.386  -0.036   1.041 -0.2224  0.0879  0.1816
  692MOL0     C91216   7.490  -0.046   1.131 -0.3456  0.2911 -0.3543
  692MOL0     C91217   7.464  -0.021   1.267 -0.7111 -0.2451 -0.6121
  692MOL0     C91218   7.557  -0.034   1.367  0.5325  0.8697 -0.5328
  692MOL0     C91219   7.687  -0.081   1.331 -0.2057 -0.4160  0.1053
  692MOL0     O91220   7.782  -0.082   1.440 -0.4789 -0.1003 -0.0676
  692MOL0     C91221   7.917  -0.101   1.408  0.3147 -0.0228 -0.5711
  692MOL0     C91222   7.993  -0.085   1.540  0.3548 -0.3818  0.6750
  692MOL0     C91223   8.143  -0.093   1.525  1.1904  0.5312  0.9786
  692MOL0     C91224   8.219   0.037   1.531  0.0464  0.1846 -0.0172
  692MOL0     C91225   8.369   0.029   1.515 -0.0443 -0.3249 -0.1691
  692MOL0     C91226   8.437   0.166   1.484  0.3614  0.3814  0.7046
  692MOL0     C91227   8.478   0.248   1.605  0.2188  0.7781 -0.1583
  692MOL0     C91228   8.553   0.375   1.555  0.0402  0.5460 -0.1217
  692MOL0     N91229   8.466   0.491   1.555  0.6753 -0.0422  0.0606
  692MOL0     C91230   8.516   0.621   1.564  0.3473  0.1264  0.0263
  692MOL0     C91231   8.428   0.691   1.485 -0.5368  0.2162 -0.4789
  692MOL0     C91232   8.447   0.827   1.433  0.9084 -0.8711  0.4837
  692MOL0     C91233   8.312   0.879   1.377  0.5006 -0.0539 -0.6655
  692MOL0     C91234   8.300   1.026   1.365 -0.7375 -0.4922  0.0063
  692MOL0     C91235   8.171   1.069   1.311 -0.1507  0.0909  0.0083
  692MOL0     O91236   8.076   1.056   1.413  0.5047  0.8019  0.3106
  692MOL0     C91237   7.937   1.079   1.385 -0.5693  0.1149  0.4781
  692MOL0     C91238   7.876   1.083   1.263 -0.1075  0.4546 -0.3104
  692MOL0     C91239   7.740   1.108   1.241 -0.0883 -0.0734 -0.1734
  692MOL0     C91240   7.658   1.114   1.356  0.3380  0.1928  0.0047
  692MOL0     C91241   7.508   1.106   1.357 -1.1616 -0.3348  0.2293
  692MOL0     O91242   7.456   1.146   1.238  0.4706 -0.0852 -0.1099
  692MOL0     C91243   7.325   1.183   1.241  0.1569 -0.1665  0.8367
  692MOL0     C91244   7.260   1.165   1.121  0.3020 -0.2203  0.1434
  692MOL0     C91245   7.123   1.208   1.098  0.4909  0.4276 -0.2379
  692MOL0     C91246   7.044   1.252   1.206  0.3173  0.3244  0.5362
  692MOL0     O91247   6.909   1.287   1.213  0.3653  0.6231 -0.1958
  692MOL0     C91248   6.844   1.291   1.084  0.2310 -0.4532  0.2804
  692MOL0     C91249   6.704   1.339   1.091  0.0247  0.2055 -0.7355
  692MOL0     C91250   6.684   1.484   1.129 -0.2667  0.5633  0.5584
  692MOL0     C91251   6.543   1.530   1.128 -0.4983 -0.0117  0.1148
  692MOL0     C91252   6.527   1.668   1.184  0.3877 -0.5196 -0.7486
  692MOL0     C91253   6.507   1.660   1.337  0.5565 -0.0969 -0.4020
  692MOL0     C91254   6.528   1.804   1.405  0.4539 -0.5243  0.5818
  692MOL0     C91255   6.391   1.872   1.438 -0.0828 -0.4931  0.9235
  692MOL0    Cl91256   6.406   2.032   1.506  0.1902  0.0612  0.4770
  692MOL0     C91257   7.114   1.274   1.328 -0.2920 -0.2260  0.7289
  692MOL0     C91258   7.251   1.248   1.343 -0.0316 -0.7769  0.2617
  692MOL0     O91259   7.455   1.067   1.455 -0.1599  0.3206 -0.1777
  692MOL0     C91260   7.717   1.117   1.481 -0.1820 -0.2663 -0.1124
  692MOL0     C91261   7.856   1.097   1.494  0.0676 -0.4189 -0.4781
  692MOL0     N91262   8.332   0.606   1.436 -0.1069  0.2070  0.0611
  692MOL0     N91263   8.357   0.486   1.475  0.0717  0.0061  0.6779
  692MOL0     C91264   7.720  -0.103   1.200 -0.1399 -0.8039  0.1679
  692MOL0     C91265   7.623  -0.086   1.098  0.8387  0.0723 -0.7378
  692MOL0     C91266   7.206   0.077   0.935 -0.1284  0.1728  0.4446
  692MOL0     C91267   7.095   0.168   0.951  0.0342  0.9085  0.1209
  692MOL0     C91268   6.990   0.164   0.854 -0.0599  0.4965 -0.7325
  692MOL0     C91269   6.982   0.060   0.759  0.4063 -0.3071 -0.5730
  692MOL0     O91270   6.885   0.065   0.653  0.0639  0.1285 -0.0412
  692MOL0     C91271   6.777  -0.022   0.676  0.1127 -0.2831 -0.8911
  692MOL0     C91272   6.676   0.054   0.761 -0.9124 -0.3360 -0.4687
  692MOL0     C91273   6.611   0.179   0.698 -0.0270 -0.4374  0.0425
  692MOL0     C91274   6.507   0.152   0.589  0.0862  0.2190  0.0669
  692MOL0     C91275   6.412   0.045   0.620 -0.9768  0.0026  1.0101
  692MOL0     C91276   6.314  -0.022   0.645  0.9856 -0.6719 -0.3351
  692MOL0     C91277   7.081  -0.035   0.756  0.0660 -0.5075 -0.0621
  692MOL0     C91278   7.196  -0.023   0.833  0.5145 -0.2564 -0.2470
  692MOL0     H91279   7.360  -0.005   1.295 -1.2084 -0.7560 -2.0574
  692MOL0     H91280   7.526  -0.015   1.470  1.1989 -1.7397  0.2333
  692MOL0     H91281   7.949  -0.014   1.350  2.1249  0.2085  0.6683
  692MOL0     H91282   7.941  -0.195   1.357 -1.5707  1.1487 -3.8423
  692MOL0     H91283   7.956  -0.162   1.607 -2.6609 -1.6215 -2.1478
  692MOL0     H91284   7.977   0.013   1.585  4.9659  0.9587 -0.0972
  692MOL0     H91285   8.173  -0.143   1.432 -0.2994 -1.1523  1.3393
  692MOL0     H91286   8.175  -0.160   1.605  2.4399 -1.1410 -0.8216
  692MOL0     H91287   8.179   0.098   1.449  1.6159  1.5270  0.1694
  692MOL0     H91288   8.189   0.084   1.625  1.5337  2.3950 -0.5732
  692MOL0     H91289   8.402  -0.029   1.429  1.3140 -1.8311  1.2924
  692MOL0     H91290   8.412  -0.007   1.609  0.8988 -0.3601 -0.6038
  692MOL0     H91291   8.378   0.215   1.407  1.2015  0.4151  0.0672
  692MOL0     H91292   8.533   0.148   1.435 -1.8098  1.4670 -4.4988
  692MOL0     H91293   8.395   0.284   1.666 -1.1775 -1.1998 -0.7802
  692MOL0     H91294   8.543   0.181   1.662  0.4511 -0.3763 -1.6989
  692MOL0     H91295   8.594   0.367   1.454 -3.0771 -0.3242 -1.4305
  692MOL0     H91296   8.640   0.383   1.622 -0.3436 -3.6890  1.1278
  692MOL0     H91297   8.603   0.655   1.621 -0.0234  0.5118  0.3697
  692MOL0     H91298   8.518   0.825   1.350 -1.3722  0.7247 -1.6713
  692MOL0     H91299   8.484   0.895   1.509 -1.7870  0.2906  0.8649
  692MOL0     H91300   8.234   0.848   1.448  0.6804 -0.4370 -0.6326
  692MOL0     H91301   8.291   0.829   1.283  1.3116 -1.3700 -0.1722
  692MOL0     H91302   8.305   1.081   1.460 -4.5432  1.8268 -0.9615
  692MOL0     H91303   8.381   1.062   1.301 -1.9918  1.8671 -0.3456
  692MOL0     H91304   8.151   1.024   1.213 -0.0441  4.5150 -2.2693
  692MOL0     H91305   8.179   1.174   1.282  0.3450 -0.1682 -0.8173
  692MOL0     H91306   7.934   1.077   1.171 -0.5665 -2.3157 -0.5322
  692MOL0     H91307   7.686   1.122   1.147 -2.7063 -3.1151  0.6871
  692MOL0     H91308   7.301   1.124   1.030 -1.0711 -0.3558 -0.4350
  692MOL0     H91309   7.071   1.186   1.005 -1.0450  1.9858  0.1945
  692MOL0     H91310   6.835   1.188   1.047  0.7816 -1.3285  2.4179
  692MOL0     H91311   6.892   1.354   1.009 -3.0883  2.4013  0.2898
  692MOL0     H91312   6.640   1.282   1.158 -2.4021  1.1869 -2.0799
  692MOL0     H91313   6.647   1.335   0.998 -0.4091 -0.1395 -0.4583
  692MOL0     H91314   6.744   1.545   1.061  2.5196  1.7934  3.8589
  692MOL0     H91315   6.734   1.490   1.226  1.3590 -1.8541 -0.0556
  692MOL0     H91316   6.508   1.530   1.024  1.1416  2.0578 -0.4977
  692MOL0     H91317   6.472   1.466   1.181 -2.2540  2.5075  1.0277
  692MOL0     H91318   6.435   1.712   1.145 -1.6428 -1.7510  2.2742
  692MOL0     H91319   6.612   1.732   1.156  0.0373 -0.5356 -1.9143
  692MOL0     H91320   6.578   1.591   1.381  0.7506 -0.5813 -1.4300
  692MOL0     H91321   6.408   1.618   1.356  1.1994 -1.9856 -0.9415
  692MOL0     H91322   6.578   1.797   1.502  2.7265  0.6275 -0.4377
  692MOL0     H91323   6.590   1.870   1.345  0.9371 -0.7290  0.8535
  692MOL0     H91324   6.338   1.809   1.510  2.7326 -1.0320  2.6490
  692MOL0     H91325   6.323   1.873   1.352 -0.2052  0.1164  1.0194
  692MOL0     H91326   7.064   1.301   1.420 -0.9744 -1.4013  0.7338
  692MOL0     H91327   7.292   1.289   1.435 -0.1722 -0.8491  0.3565
  692MOL0     H91328   7.652   1.129   1.567 -1.1048 -4.0623 -0.1204
  692MOL0     H91329   7.902   1.106   1.592 -2.2957  0.2781  0.6597
  692MOL0     H91330   7.825  -0.123   1.179  0.9417 -0.9936  4.8061
  692MOL0     H91331   7.649  -0.095   0.993  0.9185 -0.3136 -0.6879
  692MOL0     H91332   7.102   0.239   1.032 -0.5919 -0.4969  1.4489
  692MOL0     H91333   6.922   0.248   0.862 -0.8210  0.0118 -2.0040
  692MOL0     H91334   6.817  -0.114   0.719 -1.9995 -1.2287 -0.8134
  692MOL0     H91335   6.723  -0.046   0.584 -3.8592 -1.9767  1.5841
  692MOL0     H91336   6.594  -0.015   0.786 -2.5797  0.9344 -2.0971
  692MOL0     H91337   6.731   0.090   0.849  0.4529 -1.5817 -0.7770
  692MOL0     H91338   6.678   0.256   0.658 -0.7962 -0.4092 -1.2879
  692MOL0     H91339   6.567   0.225   0.787  4.0377  0.6613  1.6884
  692MOL0     H91340   6.447   0.241   0.572  0.6486  0.3096 -1.5728
  692MOL0     H91341   6.555   0.122   0.496 -0.9063 -1.8340  0.1496
  692MOL0     H91342   6.222  -0.077   0.647  0.6442 -0.0944  1.2051
  692MOL0     H91343   7.063  -0.116   0.686 -4.3893 -1.5114  1.9031
  692MOL0     H91344   7.274  -0.095   0.815  0.8342  0.7584 -3.5563
  693MOL0     O91345  10.733   8.271   0.250  0.6708 -0.1163 -0.3598
  693MOL0     C91346  10.754   8.210   0.142  0.8060  0.0219 -0.9250
  693MOL0     O91347  10.656   8.166   0.059 -0.0895  0.1185 -0.4766
  693MOL0     C91348  10.526   8.199   0.086 -0.7337 -0.3394  0.4937
  693MOL0     C91349  10.461   8.143   0.198  0.4655 -0.4761 -0.0928
  693MOL0     C91350  10.323   8.164   0.214 -0.3373 -0.5546 -0.2818
  693MOL0     C91351  10.251   8.213   0.107 -0.7359  0.0828  0.0053
  693MOL0     O91352  10.115   8.209   0.115  0.1408  0.2189  0.2365
  693MOL0     C91353  10.043   8.255  -0.008 -0.8875  0.3400  0.5677
  693MOL0     C91354   9.899   8.281   0.004 -0.4944 -0.0775 -0.6673
  693MOL0     C91355   9.836   8.356  -0.115  0.1478  0.1545  0.3283
  693MOL0     C91356   9.679   8.347  -0.106  0.0949  0.1898 -0.1104
  693MOL0     C91357   9.621   8.401  -0.225 -0.6542 -0.4751  0.1974
  693MOL0     C91358   9.482   8.441  -0.200 -0.2446 -0.3027 -0.8621
  693MOL0     C91359   9.415   8.495  -0.326  0.3513 -0.1942 -0.2650
  693MOL0     C91360   9.269   8.526  -0.283 -0.3013  0.3066  0.0771
  693MOL0     N91361   9.203   8.585  -0.398  0.0068  0.3572  0.7983
  693MOL0     C91362   9.184   8.722  -0.421 -0.4265  0.4777 -0.4977
  693MOL0     C91363   9.124   8.724  -0.540 -0.3761 -0.2541 -0.4867
  693MOL0     C91364   9.061   8.845  -0.610  1.0214 -0.3164 -0.0195
  693MOL0     C91365   8.897   8.849  -0.612 -0.4741  0.5197  0.6779
  693MOL0     C91366   8.856   8.957  -0.707  0.0848  0.9002 -0.8948
  693MOL0     C91367   8.718   9.010  -0.693  0.2979 -0.3077 -1.0946
  693MOL0     O91368   8.631   8.900  -0.689 -0.4009 -0.1078  0.9300
  693MOL0     C91369   8.498   8.925  -0.668  0.3315 -0.0434 -0.2701
  693MOL0     C91370   8.436   9.050  -0.646 -0.2593  0.1357 -0.2279
  693MOL0     C91371   8.291   9.053  -0.638 -0.2243 -0.3365 -0.0244
  693MOL0     C91372   8.206   8.942  -0.651  0.1017 -0.2891  0.3440
  693MOL0     C91373   8.059   8.960  -0.635 -0.4318 -0.2505 -0.2498
  693MOL0     O91374   7.982   8.856  -0.680 -0.2063 -0.3328  1.0170
  693MOL0     C91375   7.863   8.828  -0.621 -0.1236 -0.3500 -0.7477
  693MOL0     C91376   7.760   8.793  -0.708  0.0631  1.0475  0.1231
  693MOL0     C91377   7.630   8.761  -0.664 -0.1458  0.4259  0.4452
  693MOL0     C91378   7.604   8.771  -0.527  1.6157 -0.0442 -0.1932
  693MOL0     O91379   7.471   8.745  -0.494  0.3833 -0.9327 -0.6277
  693MOL0     C91380   7.434   8.736  -0.357  0.0263  0.4479 -0.5767
  693MOL0     C91381   7.300   8.661  -0.347 -0.8395  0.0717  0.0494
  693MOL0     C91382   7.189   8.733  -0.426  1.1319  1.0529  0.0347
  693MOL0     C91383   7.057   8.656  -0.400 -0.5512 -0.6045  0.4382
  693MOL0     C91384   6.951   8.700  -0.501 -0.2420 -0.0479 -0.1007
  693MOL0     C91385   6.969   8.627  -0.632  0.5794 -0.0222  0.5232
  693MOL0     C91386   6.864   8.659  -0.738 -0.7302  0.1020 -0.3553
  693MOL0     C91387   6.719   8.653  -0.680  0.3206 -0.0539 -0.0313
  693MOL0    Cl91388   6.668   8.505  -0.588 -0.3956  0.1595  0.7194
  693MOL0     C91389   7.704   8.831  -0.451  0.3337  0.9334  0.0734
  693MOL0     C91390   7.832   8.859  -0.496 -0.2745 -0.0272 -0.1906
  693MOL0     O91391   8.017   9.073  -0.589  0.5042  1.3320  0.0610
  693MOL0     C91392   8.271   8.820  -0.687  0.6009 -0.5912  0.0034
  693MOL0     C91393   8.414   8.815  -0.694 -0.4926  0.4690 -0.1611
  693MOL0     N91394   9.117   8.593  -0.586 -0.2535  0.4197 -0.7539
  693MOL0     N91395   9.164   8.510  -0.506 -0.2170  0.0253 -0.4753
  693MOL0     C91396  10.321   8.261  -0.002 -0.9304  0.5172  0.6400
  693MOL0     C91397  10.455   8.252  -0.014  0.0321 -0.8137  0.0620
  693MOL0     C91398  10.893   8.198   0.092  0.7356  0.2430  0.0695
  693MOL0     C91399  11.008   8.228   0.173 -0.1909  0.0556 -0.5431
  693MOL0     C91400  11.139   8.228   0.124  0.0840  0.0790  0.5768
  693MOL0     C91401  11.168   8.181  -0.001  0.0010 -0.0347 -0.5908
  693MOL0     O91402  11.293   8.181  -0.045 -0.0156  0.0722  0.1444
  693MOL0     C91403  11.319   8.203  -0.183  0.4538 -0.3041  0.2669
  693MOL0     C91404  11.449   8.286  -0.195  0.3690 -0.2678  0.0426
  693MOL0     C91405  11.476   8.300  -0.342 -0.4059 -0.3213  0.6525
  693MOL0     C91406  11.579   8.415  -0.378  0.0791 -0.4392 -0.0269
  693MOL0     C91407  11.707   8.422  -0.301  0.2939  0.2378 -0.1915
  693MOL0     C91408  11.800   8.440  -0.220  0.3801 -0.0447  0.4107
  693MOL0     C91409  11.057   8.145  -0.082 -0.4539 -0.3447  0.5739
  693MOL0     C91410  10.924   8.157  -0.041  0.0938 -0.3574 -1.4746
  693MOL0     H91411  10.524   8.100   0.276  3.5001 -1.6916 -2.9734
  693MOL0     H91412  10.269   8.134   0.304 -2.1535  1.0928 -0.7458
  693MOL0     H91413  10.050   8.174  -0.080  2.1556 -1.2242  2.3853
  693MOL0     H91414  10.090   8.351  -0.034  1.2878 -0.3776  1.5851
  693MOL0     H91415   9.889   8.332   0.100  0.3963  0.3768 -0.8122
  693MOL0     H91416   9.838   8.190   0.011 -1.7126  0.7766  0.7837
  693MOL0     H91417   9.879   8.308  -0.203 -0.0077 -0.2331  0.4620
  693MOL0     H91418   9.866   8.461  -0.113  2.9581 -0.5757  2.3870
  693MOL0     H91419   9.637   8.246  -0.098 -1.7623  0.8567 -0.6997
  693MOL0     H91420   9.661   8.405  -0.015  1.4026  1.6709 -0.7493
  693MOL0     H91421   9.631   8.325  -0.303  0.8113 -0.4380  0.3357
  693MOL0     H91422   9.673   8.489  -0.265  2.6869 -2.8979 -1.2589
  693MOL0     H91423   9.479   8.517  -0.121 -1.2267 -1.2601  0.0510
  693MOL0     H91424   9.427   8.354  -0.165 -1.2073  0.3461 -0.7298
  693MOL0     H91425   9.471   8.581  -0.363  3.1365 -2.4740 -1.7334
  693MOL0     H91426   9.414   8.427  -0.411  2.7332 -2.3390  1.2596
  693MOL0     H91427   9.262   8.605  -0.207 -0.1139  2.0327 -1.6153
  693MOL0     H91428   9.216   8.434  -0.255 -1.1610  0.3241 -1.4117
  693MOL0     H91429   9.199   8.807  -0.355  1.1778  0.6552 -1.0459
  693MOL0     H91430   9.111   8.853  -0.707  0.4009 -4.0611 -0.7934
  693MOL0     H91431   9.086   8.934  -0.551 -3.3662  1.5733 -0.6092
  693MOL0     H91432   8.863   8.870  -0.510 -2.0989 -1.2540  0.5552
  693MOL0     H91433   8.858   8.754  -0.649  0.2099  0.7614 -0.7151
  693MOL0     H91434   8.915   9.049  -0.698  2.1961 -0.4752  0.0994
  693MOL0     H91435   8.860   8.916  -0.809 -0.8823 -0.7937 -0.2976
  693MOL0     H91436   8.690   9.070  -0.779  1.8989 -0.4647 -1.7468
  693MOL0     H91437   8.710   9.070  -0.602  1.4149 -0.8601 -0.6055
  693MOL0     H91438   8.499   9.137  -0.631  1.2272 -0.8321 -0.6620
  693MOL0     H91439   8.247   9.149  -0.611 -1.9349 -1.7759  2.8380
  693MOL0     H91440   7.791   8.796  -0.812  1.7986  4.0954  0.6132
  693MOL0     H91441   7.557   8.720  -0.732  2.4388 -0.5386 -1.9330
  693MOL0     H91442   7.432   8.833  -0.306  2.8328  0.1816  0.2329
  693MOL0     H91443   7.503   8.678  -0.295 -0.9124  0.4843  0.5443
  693MOL0     H91444   7.276   8.651  -0.241 -1.4745  0.7540 -0.0195
  693MOL0     H91445   7.305   8.563  -0.395 -1.3609  0.8383 -1.6590
  693MOL0     H91446   7.205   8.734  -0.534 -3.6714  1.2106 -0.8994
  693MOL0     H91447   7.176   8.836  -0.391 -1.4890  0.8973 -0.2411
  693MOL0     H91448   7.072   8.548  -0.411 -2.9869 -0.8588 -1.0972
  693MOL0     H91449   7.016   8.669  -0.300 -1.9394 -3.1958  0.3023
  693MOL0     H91450   6.966   8.807  -0.517  0.2379 -0.3044 -1.5016
  693MOL0     H91451   6.860   8.676  -0.445  0.5018 -3.5037 -0.1182
  693MOL0     H91452   6.985   8.519  -0.624  1.8323 -0.1352 -2.2097
  693MOL0     H91453   7.063   8.656  -0.679  0.5850 -1.7679 -0.6445
  693MOL0     H91454   6.879   8.762  -0.774  0.6209  0.4617  1.0920
  693MOL0     H91455   6.867   8.594  -0.826 -0.8369  1.0455 -1.0834
  693MOL0     H91456   6.645   8.666  -0.759 -0.2221 -0.9293  0.3219
  693MOL0     H91457   6.708   8.738  -0.612 -1.5511 -1.1626  1.1430
  693MOL0     H91458   7.681   8.867  -0.351 -1.6676  0.1668 -0.0562
  693MOL0     H91459   7.905   8.900  -0.427  1.4777 -2.3365 -0.5286
  693MOL0     H91460   8.214   8.729  -0.702  0.8333 -0.6470 -0.5895
  693MOL0     H91461   8.463   8.725  -0.731 -2.6926  0.1695 -2.6381
  693MOL0     H91462  10.287   8.311  -0.093 -1.0612  0.9978  0.9479
  693MOL0     H91463  10.506   8.281  -0.105 -0.2878 -1.9110 -0.4816
  693MOL0     H91464  10.988   8.267   0.272 -0.4081  0.1202 -0.6140
  693MOL0     H91465  11.218   8.241   0.197  2.3389  5.3123 -2.2817
  693MOL0     H91466  11.236   8.265  -0.219 -0.7174 -1.9361  0.0156
  693MOL0     H91467  11.328   8.107  -0.236  0.6059  0.5914 -1.3947
  693MOL0     H91468  11.432   8.384  -0.151  0.4083 -1.1433  2.1072
  693MOL0     H91469  11.530   8.243  -0.136  1.0445  0.6051 -0.2359
  693MOL0     H91470  11.384   8.322  -0.398 -1.2871  0.3727  2.2803
  693MOL0     H91471  11.516   8.206  -0.380  0.9251  0.7152 -0.5947
  693MOL0     H91472  11.621   8.407  -0.479 -0.3406 -2.1472 -0.1004
  693MOL0     H91473  11.524   8.510  -0.370  0.7375  0.0940 -1.4962
  693MOL0     H91474  11.880   8.456  -0.151 -0.3803  3.3836  0.6902
  693MOL0     H91475  11.074   8.119  -0.187  4.6564  2.6749  0.3002
  693MOL0     H91476  10.845   8.137  -0.113 -0.7083  1.5441 -1.1776
  694MOL0     O91477   5.020  10.482   5.133 -0.0706  0.4318  0.6010
  694MOL0     C91478   5.068  10.396   5.052  0.2833 -0.1577 -0.5006
  694MOL0     O91479   5.005  10.277   5.016  0.0847 -0.3720  0.1783
  694MOL0     C91480   4.881  10.247   5.057 -0.1689 -0.6786 -0.2939
  694MOL0     C91481   4.823  10.271   5.182  0.0010  0.1411 -0.0031
  694MOL0     C91482   4.692  10.217   5.216 -0.3448  0.7075 -1.3495
  694MOL0     C91483   4.612  10.147   5.127 -0.1921  0.2040  0.7938
  694MOL0     O91484   4.488  10.089   5.152 -0.4775  0.2527 -0.4336
  694MOL0     C91485   4.437  10.086   5.282 -0.5596 -0.2440 -0.3529
  694MOL0     C91486   4.310   9.994   5.302 -0.1984  1.0097  0.0389
  694MOL0     C91487   4.237   9.963   5.171 -0.5690 -0.7214 -0.7829
  694MOL0     C91488   4.099   9.892   5.207 -0.4825 -0.4438 -1.2130
  694MOL0     C91489   3.999   9.980   5.274  1.2724  0.1325 -0.0542
  694MOL0     C91490   3.858   9.933   5.243 -0.2414  0.5503 -0.2064
  694MOL0     C91491   3.770  10.027   5.318 -0.3005 -0.6779  0.3489
  694MOL0     C91492   3.620   9.995   5.314  0.4652 -0.8020 -0.2847
  694MOL0     N91493   3.582   9.898   5.418  0.1953  1.0459  0.1477
  694MOL0     C91494   3.545   9.936   5.545 -0.7963  1.2763 -0.0438
  694MOL0     C91495   3.512   9.825   5.606 -0.0127  0.4679 -0.2157
  694MOL0     C91496   3.499   9.834   5.750 -0.2785 -0.4582  0.5083
  694MOL0     C91497   3.465   9.702   5.811  0.4055  0.0187  0.0847
  694MOL0     C91498   3.313   9.668   5.779 -0.2387 -0.3405 -0.1879
  694MOL0     C91499   3.289   9.519   5.787 -0.2105 -0.6464 -0.4364
  694MOL0     O91500   3.159   9.503   5.847 -0.2668 -0.1650 -0.6068
  694MOL0     C91501   3.101   9.368   5.863  1.0497 -0.4822  0.6483
  694MOL0     C91502   3.010   9.350   5.962 -0.7167  0.8380  0.0669
  694MOL0     C91503   2.955   9.223   5.985 -0.4280  0.2631 -0.4430
  694MOL0     C91504   2.991   9.111   5.906  0.3431  0.7465  0.3657
  694MOL0     C91505   2.939   8.974   5.937 -0.3592 -0.7190  0.6537
  694MOL0     O91506   2.827   8.981   6.017 -0.4297  0.0403  1.0185
  694MOL0     C91507   2.785   8.854   6.056  1.2632 -0.0026  0.1976
  694MOL0     C91508   2.677   8.795   5.986  0.2780 -0.8740 -0.5003
  694MOL0     C91509   2.615   8.681   6.029 -0.0579 -0.3144  0.3655
  694MOL0     C91510   2.677   8.606   6.136  0.6131  0.8777 -0.3687
  694MOL0     O91511   2.639   8.482   6.173  0.0289 -0.4299 -0.1143
  694MOL0     C91512   2.492   8.457   6.175 -0.2478  0.1690 -0.1773
  694MOL0     C91513   2.446   8.363   6.285 -0.1009 -0.2349 -0.2142
  694MOL0     C91514   2.465   8.219   6.252  1.0989 -0.0128  0.4870
  694MOL0     C91515   2.439   8.135   6.383 -0.2993  0.0419  0.8987
  694MOL0     C91516   2.416   7.987   6.364  0.1575  0.5168 -0.0981
  694MOL0     C91517   2.270   7.955   6.321 -0.0108 -0.6529 -0.4856
  694MOL0     C91518   2.177   7.958   6.438  0.2027  0.4043  0.3823
  694MOL0     C91519   2.031   7.946   6.391 -0.2528 -0.3418  0.2435
  694MOL0    Cl91520   1.963   8.117   6.366 -0.1141 -0.0761  0.1722
  694MOL0     C91521   2.791   8.661   6.199  0.2900  0.3049 -0.0878
  694MOL0     C91522   2.836   8.788   6.161  0.0229 -0.6143 -0.0215
  694MOL0     O91523   2.994   8.874   5.892  0.0184 -0.0067  0.6939
  694MOL0     C91524   3.089   9.132   5.804 -0.0271 -0.0848  0.4857
  694MOL0     C91525   3.142   9.257   5.788 -0.3818  0.5326 -0.4470
  694MOL0     N91526   3.523   9.721   5.519 -0.2792  0.3683 -0.3088
  694MOL0     N91527   3.567   9.764   5.409  0.0647 -0.1175  0.9618
  694MOL0     C91528   4.665  10.131   5.002  0.3152  0.4769 -0.0278
  694MOL0     C91529   4.800  10.177   4.973 -0.7714  0.8471  0.1598
  694MOL0     C91530   5.208  10.413   5.014 -0.6237 -0.0886  0.3161
  694MOL0     C91531   5.280  10.528   5.044  0.3611 -0.0023 -0.0138
  694MOL0     C91532   5.413  10.540   5.017 -0.7623  0.3731 -0.2192
  694MOL0     C91533   5.484  10.433   4.948  0.8446 -0.2294  0.2473
  694MOL0     O91534   5.616  10.455   4.915  0.0045 -0.3990 -0.0492
  694MOL0     C91535   5.698  10.340   4.870 -0.6151 -1.0150 -0.0201
  694MOL0     C91536   5.848  10.376   4.878 -0.3436 -0.1488 -0.5575
  694MOL0     C91537   5.932  10.251   4.876 -0.5928  0.0955 -0.6388
  694MOL0     C91538   6.079  10.272   4.876 -0.3356 -0.3115 -0.2139
  694MOL0     C91539   6.135  10.139   4.886 -0.3847 -0.0335 -0.2156
  694MOL0     C91540   6.180  10.026   4.885  0.7035  1.3124  0.0863
  694MOL0     C91541   5.413  10.311   4.914  0.3535 -0.6031 -0.5203
  694MOL0     C91542   5.274  10.305   4.952  0.2246  0.3368  0.5081
  694MOL0     H91543   4.872  10.326   5.262 -0.9362 -1.1854  1.5459
  694MOL0     H91544   4.653  10.224   5.317 -1.9232 -0.2136 -1.8531
  694MOL0     H91545   4.405  10.187   5.309  0.0156  0.6540 -2.7881
  694MOL0     H91546   4.523  10.050   5.340 -0.6432  0.9545  0.5529
  694MOL0     H91547   4.240  10.049   5.366 -0.0095  0.3666  0.8070
  694MOL0     H91548   4.335   9.902   5.355 -1.3217  1.0427  0.6512
  694MOL0     H91549   4.307   9.906   5.109  2.4023  0.8192  0.9338
  694MOL0     H91550   4.217  10.060   5.124  0.1434  0.0142  0.3919
  694MOL0     H91551   4.055   9.862   5.111 -0.0733 -0.2550 -1.4615
  694MOL0     H91552   4.115   9.800   5.263 -0.9606 -1.6539 -2.9634
  694MOL0     H91553   4.013  10.086   5.253 -0.1249  0.4276  0.3915
  694MOL0     H91554   4.015   9.974   5.382 -2.6594  1.1002  0.7578
  694MOL0     H91555   3.836   9.831   5.276 -4.1163  0.7161 -1.7758
  694MOL0     H91556   3.835   9.947   5.137 -1.2166  3.1587  0.2836
  694MOL0     H91557   3.802  10.022   5.422  1.6835 -1.7584 -0.2564
  694MOL0     H91558   3.778  10.126   5.273 -2.0156 -0.6162  0.1100
  694MOL0     H91559   3.585   9.964   5.215  3.5408  2.0861 -2.5291
  694MOL0     H91560   3.567  10.089   5.329  0.5753 -1.1523  2.9475
  694MOL0     H91561   3.548  10.029   5.600  0.6732  1.5209 -0.4835
  694MOL0     H91562   3.433   9.915   5.783  1.9555  0.7536  2.2774
  694MOL0     H91563   3.597   9.866   5.785 -0.1200  0.9691 -1.1042
  694MOL0     H91564   3.482   9.716   5.918 -2.2261 -0.9276  0.7055
  694MOL0     H91565   3.537   9.623   5.788  0.1049 -0.1851 -0.1807
  694MOL0     H91566   3.234   9.726   5.827 -0.9960 -2.0269  0.6957
  694MOL0     H91567   3.303   9.701   5.676 -0.0246 -0.5162 -0.2667
  694MOL0     H91568   3.372   9.468   5.837 -0.8434 -1.6121 -0.3628
  694MOL0     H91569   3.291   9.482   5.684 -0.0642 -2.0307  0.0451
  694MOL0     H91570   2.980   9.434   6.024 -0.0132  0.1036  1.4451
  694MOL0     H91571   2.879   9.213   6.062  2.4065 -0.7612  2.4721
  694MOL0     H91572   2.629   8.851   5.906 -0.5189  0.4659  0.8676
  694MOL0     H91573   2.525   8.651   5.977 -1.0440  2.0345  0.5896
  694MOL0     H91574   2.464   8.412   6.079 -0.3063  2.8617 -1.5093
  694MOL0     H91575   2.436   8.550   6.187  0.4372  0.5263  0.3208
  694MOL0     H91576   2.342   8.390   6.304 -0.1179  1.3333 -2.2345
  694MOL0     H91577   2.507   8.397   6.369  0.9827 -1.0863 -0.6329
  694MOL0     H91578   2.563   8.200   6.206  0.6779  1.2340 -1.0028
  694MOL0     H91579   2.393   8.193   6.174 -0.3947  3.2394  0.6273
  694MOL0     H91580   2.527   8.151   6.447  2.0492 -0.0372 -2.0588
  694MOL0     H91581   2.349   8.182   6.424 -0.6368  0.4346 -0.2555
  694MOL0     H91582   2.427   7.933   6.458 -0.7447 -1.3790 -1.0328
  694MOL0     H91583   2.493   7.949   6.296  1.7428  0.7338  1.5143
  694MOL0     H91584   2.267   7.855   6.277 -2.9951 -0.2841 -1.3954
  694MOL0     H91585   2.239   8.032   6.249 -1.3882  0.7063  1.4636
  694MOL0     H91586   2.217   7.877   6.499  0.2530 -0.8464 -1.2446
  694MOL0     H91587   2.189   8.046   6.502  1.7310 -1.6204  3.0759
  694MOL0     H91588   1.961   7.908   6.466 -2.1179  1.9870 -0.1788
  694MOL0     H91589   2.016   7.884   6.302 -0.3207  0.8970 -0.6359
  694MOL0     H91590   2.850   8.609   6.273 -0.0632 -1.1301 -0.7821
  694MOL0     H91591   2.916   8.842   6.209 -1.0411  2.0133 -0.9908
  694MOL0     H91592   3.133   9.052   5.745  1.6667  1.8931 -1.0924
  694MOL0     H91593   3.216   9.279   5.712  0.1706  0.0903 -0.0424
  694MOL0     H91594   4.595  10.083   4.935  1.5397  1.8681 -2.4449
  694MOL0     H91595   4.841  10.148   4.877 -4.0057 -1.0542 -0.8336
  694MOL0     H91596   5.235  10.620   5.077 -2.0981 -0.4169 -1.9457
  694MOL0     H91597   5.464  10.629   5.054 -0.8949  0.6066 -0.5905
  694MOL0     H91598   5.663  10.307   4.772 -2.7637 -1.1755  0.7412
  694MOL0     H91599   5.675  10.257   4.939 -2.4253  0.5615  1.3922
  694MOL0     H91600   5.884  10.433   4.792  3.8232 -3.6891 -1.5030
  694MOL0     H91601   5.882  10.441   4.960 -0.1372  1.4078 -1.8302
  694MOL0     H91602   5.909  10.198   4.783  0.5769 -1.2239 -0.2020
  694MOL0     H91603   5.910  10.184   4.959 -1.1283  0.1236 -0.7506
  694MOL0     H91604   6.108  10.313   4.779  4.6495  0.0681  1.1946
  694MOL0     H91605   6.116  10.342   4.951 -1.8713  3.6095 -2.8191
  694MOL0     H91606   6.229   9.931   4.894  2.9100  1.9729 -3.2290
  694MOL0     H91607   5.460  10.228   4.862 -1.2257 -1.1486 -1.1572
  694MOL0     H91608   5.205  10.221   4.945 -0.9533  1.1760  1.6977
  695MOL0     O91609   8.323   3.660   8.609 -0.2618 -0.0687  0.0764
  695MOL0     C91610   8.421   3.715   8.669  0.3947  0.5843  1.2590
  695MOL0     O91611   8.441   3.854   8.660 -0.6017  0.0710  0.7195
  695MOL0     C91612   8.341   3.944   8.628  0.2362  0.0855 -0.1893
  695MOL0     C91613   8.379   4.075   8.616  0.0422 -0.1503 -0.1468
  695MOL0     C91614   8.293   4.180   8.610 -0.2950  0.5239 -0.2937
  695MOL0     C91615   8.155   4.157   8.602 -0.0650  0.1917  0.7055
  695MOL0     O91616   8.080   4.271   8.610  0.0823  0.1233  0.0899
  695MOL0     C91617   7.942   4.254   8.640 -0.0015  0.0477 -0.4378
  695MOL0     C91618   7.879   4.392   8.683  0.1260  0.2928  0.2818
  695MOL0     C91619   7.872   4.492   8.564  0.3360 -0.0249 -0.1291
  695MOL0     C91620   7.764   4.446   8.475  0.1043  0.5629 -0.0299
  695MOL0     C91621   7.733   4.536   8.356 -0.2882 -0.9120  0.0632
  695MOL0     C91622   7.683   4.671   8.404 -0.1219 -0.0531  0.1357
  695MOL0     C91623   7.643   4.771   8.291 -0.5409 -0.0507  0.3851
  695MOL0     C91624   7.583   4.887   8.366 -0.3983  0.3800  0.3694
  695MOL0     N91625   7.575   5.006   8.286 -0.5433  0.4144  0.7553
  695MOL0     C91626   7.683   5.091   8.261  0.6422  0.7865 -0.1274
  695MOL0     C91627   7.632   5.156   8.159 -0.8777 -0.5889  0.1918
  695MOL0     C91628   7.719   5.228   8.059 -0.1075 -0.7294 -0.1064
  695MOL0     C91629   7.741   5.146   7.933  0.2054  0.0326  0.7215
  695MOL0     C91630   7.830   5.029   7.944 -0.0215  0.2546  0.1529
  695MOL0     C91631   7.967   5.077   7.991  0.5356 -0.0144  0.1904
  695MOL0     O91632   8.063   4.970   7.971 -0.5320  0.0883  0.2312
  695MOL0     C91633   8.185   4.978   8.033 -0.5257  0.4283  0.0837
  695MOL0     C91634   8.266   4.862   8.024  0.1466 -0.9534  1.0205
  695MOL0     C91635   8.401   4.865   8.066 -0.0418 -0.1928 -0.2470
  695MOL0     C91636   8.454   4.976   8.139 -0.5664 -0.2229 -0.1380
  695MOL0     C91637   8.591   4.983   8.182  0.0014  0.4974 -0.1134
  695MOL0     O91638   8.665   4.873   8.147  0.4151  0.4379  0.1478
  695MOL0     C91639   8.791   4.834   8.195  0.5315  0.7907 -0.1070
  695MOL0     C91640   8.876   4.917   8.275 -0.1947 -0.7542 -0.4942
  695MOL0     C91641   9.003   4.863   8.296 -0.3558  0.1208 -0.1949
  695MOL0     C91642   9.036   4.730   8.265  0.5424  0.1011 -0.3665
  695MOL0     O91643   9.152   4.675   8.305  0.4026 -0.5378 -0.5196
  695MOL0     C91644   9.126   4.590   8.421  0.1115 -0.9968 -0.6033
  695MOL0     C91645   9.251   4.515   8.478  0.1558 -0.6142 -0.4935
  695MOL0     C91646   9.365   4.610   8.536  0.2602  0.1042  0.7178
  695MOL0     C91647   9.477   4.524   8.581 -0.1532  0.0792 -0.7271
  695MOL0     C91648   9.592   4.609   8.634 -0.4969  0.7581 -0.6834
  695MOL0     C91649   9.651   4.705   8.528 -0.4450 -0.7328  0.9338
  695MOL0     C91650   9.789   4.748   8.585  0.5312  0.5094 -0.6771
  695MOL0     C91651   9.885   4.816   8.483 -0.3836  0.1772  0.8971
  695MOL0    Cl91652  10.038   4.702   8.451  0.0087  0.3465  0.1345
  695MOL0     C91653   8.952   4.648   8.194 -0.3754  0.2702  0.1615
  695MOL0     C91654   8.828   4.700   8.152  0.2214  0.2489  0.6099
  695MOL0     O91655   8.621   5.071   8.261 -0.1660 -0.5275  0.4153
  695MOL0     C91656   8.368   5.083   8.158  0.4333  0.1436  0.1119
  695MOL0     C91657   8.238   5.086   8.102  0.8441 -0.3049  0.1496
  695MOL0     N91658   7.495   5.137   8.130 -0.0205  0.9078  0.5895
  695MOL0     N91659   7.466   5.042   8.216  0.9311 -0.0232  0.6864
  695MOL0     C91660   8.114   4.026   8.603  0.5359  0.1143 -0.0232
  695MOL0     C91661   8.202   3.919   8.618  0.4551  0.2950 -0.1584
  695MOL0     C91662   8.513   3.636   8.745  0.1716  0.4666 -0.5428
  695MOL0     C91663   8.630   3.694   8.798 -0.0418  0.3273  0.2899
  695MOL0     C91664   8.724   3.617   8.874 -0.0724 -1.0009 -0.0012
  695MOL0     C91665   8.702   3.485   8.907  0.6767 -0.0224 -0.6108
  695MOL0     O91666   8.793   3.419   8.992 -0.3045  0.1100  0.1046
  695MOL0     C91667   8.764   3.312   9.077  0.0427 -0.3567  0.1491
  695MOL0     C91668   8.672   3.342   9.195  0.1179 -0.0761 -0.0041
  695MOL0     C91669   8.695   3.262   9.335 -0.2894  0.2066  0.3211
  695MOL0     C91670   8.846   3.278   9.361 -0.4511  0.0212  0.1601
  695MOL0     C91671   8.861   3.245   9.500  0.5007 -0.0040 -0.6366
  695MOL0     C91672   8.874   3.226   9.617  0.5910  0.7415  0.3125
  695MOL0     C91673   8.586   3.430   8.857  0.3915  0.5395  0.0543
  695MOL0     C91674   8.499   3.500   8.771 -0.0625  0.6039 -0.7885
  695MOL0     H91675   8.482   4.109   8.617 -0.4613  1.8133  3.6049
  695MOL0     H91676   8.324   4.284   8.609 -1.3985  0.8875 -2.0068
  695MOL0     H91677   7.929   4.183   8.722  1.0008  2.1805  1.7012
  695MOL0     H91678   7.892   4.210   8.553  0.6586 -2.1263  0.2159
  695MOL0     H91679   7.937   4.432   8.766 -1.1634  4.0892 -0.4314
  695MOL0     H91680   7.780   4.368   8.724 -1.2566  1.8763 -1.9142
  695MOL0     H91681   7.971   4.494   8.517 -0.0741  0.2991 -0.9941
  695MOL0     H91682   7.840   4.587   8.608  0.1614 -0.7169  1.3157
  695MOL0     H91683   7.788   4.348   8.434 -1.0530  0.8361 -1.4392
  695MOL0     H91684   7.670   4.429   8.528 -0.3703  0.5392 -0.8659
  695MOL0     H91685   7.657   4.491   8.291 -0.5017 -2.1563  1.1183
  695MOL0     H91686   7.821   4.538   8.292  0.8888  0.3147  1.6504
  695MOL0     H91687   7.755   4.719   8.471  1.6556  1.7611 -2.8273
  695MOL0     H91688   7.598   4.645   8.467  0.0691  0.0335  0.4312
  695MOL0     H91689   7.731   4.809   8.238  0.2004  1.0272  2.2650
  695MOL0     H91690   7.572   4.719   8.227  1.3000 -1.5828 -0.5187
  695MOL0     H91691   7.628   4.896   8.466 -0.7839 -1.6967  0.7785
  695MOL0     H91692   7.478   4.863   8.386 -0.4434 -0.8754 -1.1892
  695MOL0     H91693   7.785   5.096   8.299  0.5519  0.2414  0.1881
  695MOL0     H91694   7.819   5.255   8.094 -0.0545 -1.6314  0.4707
  695MOL0     H91695   7.672   5.323   8.034 -2.0673 -1.4709  0.5350
  695MOL0     H91696   7.777   5.214   7.854 -1.0143 -0.9797 -0.7448
  695MOL0     H91697   7.641   5.109   7.913 -0.4564  0.5643  2.7641
  695MOL0     H91698   7.789   4.954   8.013  1.4403 -0.3181  0.4308
  695MOL0     H91699   7.851   4.988   7.845 -0.0848 -0.1525  0.3034
  695MOL0     H91700   7.968   5.100   8.098 -0.4593  1.1225 -0.0238
  695MOL0     H91701   7.989   5.168   7.934  0.5791 -0.0603  0.1339
  695MOL0     H91702   8.228   4.782   7.962  1.4265  2.0384 -4.2590
  695MOL0     H91703   8.454   4.774   8.039 -2.4704 -1.6902 -0.2506
  695MOL0     H91704   8.844   5.019   8.295 -1.5977 -1.1938 -0.3478
  695MOL0     H91705   9.071   4.924   8.355 -0.0060 -0.2247 -0.2349
  695MOL0     H91706   9.045   4.521   8.395  0.5797 -0.7320 -2.9864
  695MOL0     H91707   9.094   4.648   8.508  0.7634 -0.6368 -0.5960
  695MOL0     H91708   9.300   4.454   8.402  0.6054 -0.2754 -0.4799
  695MOL0     H91709   9.221   4.444   8.555  2.4598 -2.8833 -1.5653
  695MOL0     H91710   9.324   4.677   8.613 -0.3337  0.6678 -0.0807
  695MOL0     H91711   9.400   4.679   8.459 -0.6018  2.6881  2.4909
  695MOL0     H91712   9.440   4.467   8.666 -4.1493  1.5327 -1.2628
  695MOL0     H91713   9.511   4.452   8.506  3.2398  0.4127  0.3287
  695MOL0     H91714   9.667   4.534   8.662  1.9800  3.5888  0.8205
  695MOL0     H91715   9.560   4.652   8.729  1.6997 -0.1989  0.5791
  695MOL0     H91716   9.582   4.786   8.504  0.0775 -0.6715 -0.4553
  695MOL0     H91717   9.678   4.660   8.432 -2.5812 -2.2392  0.9609
  695MOL0     H91718   9.779   4.811   8.674  0.6800 -0.5357  0.1038
  695MOL0     H91719   9.850   4.664   8.621 -0.2409  0.5387  0.7894
  695MOL0     H91720   9.915   4.912   8.524 -0.7931  0.4429  0.5787
  695MOL0     H91721   9.825   4.829   8.393  0.2699  2.0972  0.6967
  695MOL0     H91722   8.981   4.547   8.164 -2.9738 -0.3804 -0.4846
  695MOL0     H91723   8.760   4.639   8.094  1.2505  0.2236 -0.6180
  695MOL0     H91724   8.403   5.174   8.204 -0.2604  0.5102 -0.0868
  695MOL0     H91725   8.185   5.177   8.128 -2.9345 -2.4280  0.5149
  695MOL0     H91726   8.009   3.997   8.598  0.8043 -0.7968 -0.7183
  695MOL0     H91727   8.163   3.818   8.617  0.9888  0.0527 -2.4578
  695MOL0     H91728   8.663   3.794   8.773  0.2833  0.9647  3.0100
  695MOL0     H91729   8.814   3.668   8.908 -0.6380 -0.2127  0.3797
  695MOL0     H91730   8.865   3.281   9.106  0.1061 -0.4303 -0.1511
  695MOL0     H91731   8.710   3.239   9.017 -2.4481  0.7688  0.8829
  695MOL0     H91732   8.681   3.447   9.225  1.4356 -0.3670  0.7202
  695MOL0     H91733   8.568   3.328   9.163  0.2772  2.5706 -2.1274
  695MOL0     H91734   8.662   3.158   9.327  0.3879  0.1243 -2.1946
  695MOL0     H91735   8.632   3.317   9.406  0.2362  2.0773 -0.5746
  695MOL0     H91736   8.911   3.214   9.300 -0.3925 -1.6059  1.8108
  695MOL0     H91737   8.877   3.382   9.350 -2.9663  0.9245  0.9456
  695MOL0     H91738   8.895   3.218   9.722 -1.3004  1.1368  0.7573
  695MOL0     H91739   8.551   3.330   8.878 -1.0277  0.4563 -2.3760
  695MOL0     H91740   8.421   3.445   8.721  1.1424 -1.1759 -0.7874
  696MOL0     O91741   4.250   1.582   9.171 -0.2283  0.6742  0.1627
  696MOL0     C91742   4.276   1.662   9.085 -0.3115 -0.7398 -0.2578
  696MOL0     O91743   4.202   1.682   8.971 -0.2224 -0.0858 -0.0688
  696MOL0     C91744   4.097   1.606   8.923  0.3828  0.1687 -0.0396
  696MOL0     C91745   4.035   1.503   8.986  0.0969  0.7533  0.1846
  696MOL0     C91746   3.912   1.453   8.937 -0.1831  0.7521  0.6261
  696MOL0     C91747   3.849   1.505   8.819  0.3698  0.2743 -0.3793
  696MOL0     O91748   3.738   1.440   8.759 -0.0858  0.2812  0.4940
  696MOL0     C91749   3.682   1.329   8.830  0.5104  0.8333 -0.0316
  696MOL0     C91750   3.567   1.266   8.741  0.0934  0.1048  0.3186
  696MOL0     C91751   3.431   1.355   8.738 -0.3309  1.2408 -0.2388
  696MOL0     C91752   3.334   1.314   8.620  0.2965  0.8111 -0.9221
  696MOL0     C91753   3.225   1.206   8.654 -0.4312  0.1700  1.5006
  696MOL0     C91754   3.179   1.145   8.523 -1.1454  0.3055  1.1148
  696MOL0     C91755   3.044   1.067   8.542  0.4961 -0.1217  0.0775
  696MOL0     C91756   3.034   0.954   8.442 -0.6524  0.0645 -0.3347
  696MOL0     N91757   2.901   0.894   8.443 -0.4571 -0.2819 -0.2157
  696MOL0     C91758   2.801   0.915   8.342 -0.3237  0.0709 -0.1593
  696MOL0     C91759   2.700   0.837   8.382  0.4967  0.5033  0.3402
  696MOL0     C91760   2.570   0.820   8.301  0.6305  0.4833  0.1852
  696MOL0     C91761   2.581   0.680   8.229 -0.7937  0.3894 -0.1986
  696MOL0     C91762   2.471   0.663   8.121  0.0654  0.0877 -0.4657
  696MOL0     C91763   2.330   0.657   8.199 -0.0244 -0.0708 -0.2869
  696MOL0     O91764   2.280   0.795   8.209 -0.2339  0.4144  0.5630
  696MOL0     C91765   2.165   0.818   8.280  0.1087  0.2980 -0.8364
  696MOL0     C91766   2.129   0.954   8.307 -0.2619 -0.3993  0.3464
  696MOL0     C91767   2.013   0.995   8.374  0.4672  0.2077  0.6514
  696MOL0     C91768   1.922   0.894   8.413 -0.0323 -0.3192  0.4705
  696MOL0     C91769   1.805   0.937   8.487  0.7577 -0.3591  1.0781
  696MOL0     O91770   1.807   1.063   8.557  0.1479  0.1124 -0.0531
  696MOL0     C91771   1.692   1.121   8.594  0.4257  0.0356 -0.2582
  696MOL0     C91772   1.664   1.149   8.732 -0.4400  0.5441  0.0932
  696MOL0     C91773   1.550   1.226   8.762 -1.0546 -0.4734 -0.5401
  696MOL0     C91774   1.472   1.276   8.663 -0.7301 -0.7564  0.3202
  696MOL0     O91775   1.354   1.333   8.694 -0.2232  0.5047  0.8595
  696MOL0     C91776   1.257   1.251   8.757  0.6560 -0.8412  0.1660
  696MOL0     C91777   1.161   1.192   8.658  0.1189  0.3841 -0.0454
  696MOL0     C91778   1.044   1.130   8.723 -0.0528  0.0335 -0.1896
  696MOL0     C91779   0.967   1.221   8.817  0.2965  0.5611 -0.6105
  696MOL0     C91780   0.818   1.182   8.823 -0.0462 -0.8784 -0.1076
  696MOL0     C91781   0.736   1.288   8.908 -0.0492  0.1909  0.4662
  696MOL0     C91782   0.584   1.258   8.897 -0.9486  0.7254  0.2870
  696MOL0     C91783   0.528   1.162   9.009 -1.1776  0.0821 -0.2235
  696MOL0    Cl91784   0.536   1.236   9.159  0.3730 -0.3424  0.0458
  696MOL0     C91785   1.498   1.247   8.527 -0.2438 -0.6054  0.0339
  696MOL0     C91786   1.614   1.177   8.488  0.3430  0.0860 -0.3155
  696MOL0     O91787   1.702   0.873   8.477 -0.1965  0.3449  0.2421
  696MOL0     C91788   1.957   0.760   8.389  0.6393 -0.0255  0.0488
  696MOL0     C91789   2.076   0.718   8.328 -0.8352 -0.4204  0.2701
  696MOL0     N91790   2.734   0.761   8.496 -0.2465  0.4883  0.4450
  696MOL0     N91791   2.848   0.801   8.526 -0.5154 -0.1723 -0.7971
  696MOL0     C91792   3.922   1.611   8.752 -0.5192 -0.9579 -1.1411
  696MOL0     C91793   4.045   1.659   8.802 -0.9559 -0.0039 -0.3406
  696MOL0     C91794   4.395   1.754   9.099 -0.3755  0.0947 -0.0402
  696MOL0     C91795   4.477   1.747   9.214 -0.9720  0.0684  0.8191
  696MOL0     C91796   4.596   1.824   9.223  0.2812 -0.2614  0.6015
  696MOL0     C91797   4.651   1.896   9.113 -0.0494  0.4183 -0.5853
  696MOL0     O91798   4.762   1.965   9.116 -0.8880 -0.5970 -0.8051
  696MOL0     C91799   4.839   1.986   9.238  0.2430  0.3911  0.6519
  696MOL0     C91800   4.921   2.109   9.220  0.9778  0.0851 -0.3845
  696MOL0     C91801   5.041   2.105   9.120 -0.4052  0.1694 -0.7655
  696MOL0     C91802   5.129   2.235   9.127 -0.0283 -0.0213 -0.6739
  696MOL0     C91803   5.068   2.346   9.060 -0.2182 -0.7930 -0.4931
  696MOL0     C91804   5.011   2.437   9.010  0.1162 -0.5872 -0.6865
  696MOL0     C91805   4.573   1.883   8.991 -0.1606  0.0552  0.5439
  696MOL0     C91806   4.447   1.820   8.984 -0.3753 -0.7277 -0.1942
  696MOL0     H91807   4.061   1.474   9.087  1.0609  1.2331  0.0843
  696MOL0     H91808   3.872   1.362   8.981 -1.5878 -0.0963 -2.1288
  696MOL0     H91809   3.639   1.351   8.928 -0.4856  3.0504 -0.9026
  696MOL0     H91810   3.760   1.253   8.830  0.4227  0.7124 -1.2684
  696MOL0     H91811   3.543   1.164   8.771  1.2304 -1.7759 -4.3802
  696MOL0     H91812   3.612   1.255   8.642 -3.3757 -0.1237 -1.3700
  696MOL0     H91813   3.462   1.458   8.720  0.5011  1.0054 -0.2061
  696MOL0     H91814   3.375   1.361   8.832  2.3348  2.3484  1.4229
  696MOL0     H91815   3.289   1.403   8.577 -2.0699 -1.1857 -2.9074
  696MOL0     H91816   3.400   1.269   8.545 -0.6694  0.5790 -1.6512
  696MOL0     H91817   3.138   1.256   8.697  0.6520  1.2081  2.5697
  696MOL0     H91818   3.258   1.126   8.720  0.1119 -1.0799 -0.2055
  696MOL0     H91819   3.259   1.079   8.488 -1.7919 -0.1902  0.5329
  696MOL0     H91820   3.165   1.210   8.436  1.6461 -0.5336 -0.0806
  696MOL0     H91821   3.033   1.021   8.641 -0.5631 -0.6742 -0.2876
  696MOL0     H91822   2.959   1.134   8.526  0.2532 -0.4267  0.0714
  696MOL0     H91823   3.110   0.875   8.449 -0.1292  0.5141 -0.8038
  696MOL0     H91824   3.054   0.987   8.339 -2.4436  0.3763 -0.6156
  696MOL0     H91825   2.807   0.970   8.249 -2.5337 -0.2013 -0.5256
  696MOL0     H91826   2.567   0.898   8.224  0.5889  3.0811  2.6711
  696MOL0     H91827   2.486   0.820   8.371 -0.3669 -1.2579 -0.9323
  696MOL0     H91828   2.574   0.607   8.310 -0.7486  0.8514  0.2258
  696MOL0     H91829   2.675   0.658   8.179 -1.8871  0.2992 -2.3108
  696MOL0     H91830   2.458   0.745   8.049  1.6518 -0.0586 -0.9428
  696MOL0     H91831   2.496   0.571   8.069  0.5312 -0.5074  0.7804
  696MOL0     H91832   2.337   0.614   8.300  2.9848  0.1848 -0.3052
  696MOL0     H91833   2.260   0.595   8.142 -0.3045 -0.1313  0.1218
  696MOL0     H91834   2.196   1.029   8.265 -3.7057  0.6326 -4.1640
  696MOL0     H91835   2.001   1.099   8.402 -0.9792  0.5295 -0.9842
  696MOL0     H91836   1.724   1.096   8.804 -0.8244 -0.3407 -0.2204
  696MOL0     H91837   1.526   1.249   8.866 -0.7939 -2.7976  0.1052
  696MOL0     H91838   1.217   1.307   8.842  2.1123 -1.7735  1.5283
  696MOL0     H91839   1.315   1.174   8.810  3.6983 -0.2720 -2.0888
  696MOL0     H91840   1.209   1.110   8.604  1.7399  0.8995  0.5356
  696MOL0     H91841   1.128   1.261   8.581  1.0762 -0.2887 -1.0992
  696MOL0     H91842   1.077   1.036   8.767  3.1306  0.6968 -0.9318
  696MOL0     H91843   0.981   1.104   8.637 -0.7844  0.9472  0.0381
  696MOL0     H91844   1.025   1.211   8.909 -0.2823  0.0712 -0.2915
  696MOL0     H91845   0.979   1.325   8.785 -1.5194  2.3902  3.9278
  696MOL0     H91846   0.804   1.077   8.849  0.4883 -1.1941 -1.0372
  696MOL0     H91847   0.770   1.181   8.725  0.3584  0.0292 -0.3268
  696MOL0     H91848   0.751   1.392   8.879 -2.3959 -0.0002 -1.7130
  696MOL0     H91849   0.777   1.295   9.009  2.0153  1.6974 -0.3935
  696MOL0     H91850   0.517   1.344   8.900  0.1264  1.6532 -1.0897
  696MOL0     H91851   0.567   1.209   8.800 -0.9943  0.0381  0.6359
  696MOL0     H91852   0.595   1.078   9.029 -0.2869  0.6272 -0.8249
  696MOL0     H91853   0.428   1.129   8.980 -1.6175  4.6334 -5.4359
  696MOL0     H91854   1.431   1.282   8.449 -2.2325 -2.3745  0.8472
  696MOL0     H91855   1.634   1.160   8.382 -2.0951 -2.0444 -0.5193
  696MOL0     H91856   1.890   0.681   8.421  0.6560 -0.2542 -0.4677
  696MOL0     H91857   2.084   0.612   8.308  1.7973  0.1794 -2.6565
  696MOL0     H91858   3.876   1.660   8.667  2.8316 -2.3069 -3.9764
  696MOL0     H91859   4.074   1.753   8.756 -1.1432 -0.2425 -0.9408
  696MOL0     H91860   4.437   1.701   9.304 -0.8745  0.7548  1.2193
  696MOL0     H91861   4.641   1.840   9.321  1.2073  5.0119 -0.3645
  696MOL0     H91862   4.906   1.899   9.243 -2.0016 -1.5916 -1.1706
  696MOL0     H91863   4.771   1.996   9.323  0.2643  1.6301  0.5316
  696MOL0     H91864   4.852   2.189   9.194 -1.0940 -0.7701  2.0126
  696MOL0     H91865   4.963   2.123   9.320  0.1326 -1.2474  0.1863
  696MOL0     H91866   5.006   2.086   9.018 -0.2127 -2.3362 -0.4174
  696MOL0     H91867   5.102   2.019   9.149  1.7595  2.0830  0.7560
  696MOL0     H91868   5.158   2.256   9.230 -0.0298 -1.4352 -0.3580
  696MOL0     H91869   5.223   2.215   9.076  0.5868 -2.1712  1.1192
  696MOL0     H91870   4.960   2.509   8.949 -1.6519 -1.1451  0.0510
  696MOL0     H91871   4.604   1.933   8.899 -3.9998  2.3525  0.2741
  696MOL0     H91872   4.390   1.835   8.893  0.4472 -0.4118 -0.6710
  697MOL0     O91873   8.456   3.688   0.814  0.5409  0.6007 -0.4170
  697MOL0     C91874   8.483   3.788   0.882 -0.0055 -0.2515  0.6943
  697MOL0     O91875   8.402   3.852   0.977  0.9840 -0.3784  0.9789
  697MOL0     C91876   8.268   3.805   0.986 -1.0970  0.1148 -0.6133
  697MOL0     C91877   8.224   3.779   1.113  0.1946 -0.1930 -0.5078
  697MOL0     C91878   8.086   3.748   1.129  0.1979  0.0212  1.0782
  697MOL0     C91879   7.996   3.728   1.016 -0.5169  1.0562  0.1316
  697MOL0     O91880   7.859   3.699   1.022 -0.2582 -0.4696  0.0458
  697MOL0     C91881   7.809   3.631   1.140 -0.4709  0.5749 -0.4312
  697MOL0     C91882   7.674   3.593   1.135  0.3169  0.2286 -0.7654
  697MOL0     C91883   7.579   3.713   1.119  0.4574  0.7513  0.3726
  697MOL0     C91884   7.439   3.671   1.141 -0.1681 -0.6861 -0.4281
  697MOL0     C91885   7.338   3.780   1.117  0.6868  0.6179  0.3155
  697MOL0     C91886   7.193   3.733   1.109  0.1211 -1.0150  0.0973
  697MOL0     C91887   7.106   3.856   1.059  0.6470 -0.0505 -0.4535
  697MOL0     C91888   7.114   3.882   0.910  0.0233 -0.2431  0.5248
  697MOL0     N91889   6.999   3.954   0.856 -0.2082 -0.8179  0.5535
  697MOL0     C91890   6.960   4.076   0.895  0.1803  0.1072 -0.2645
  697MOL0     C91891   6.858   4.109   0.810 -0.4640  0.6977  0.0408
  697MOL0     C91892   6.780   4.237   0.809 -0.9810 -0.2958  1.1528
  697MOL0     C91893   6.825   4.352   0.716 -0.7547 -0.0917 -0.1514
  697MOL0     C91894   6.759   4.487   0.741  0.3122  0.0992 -0.1901
  697MOL0     C91895   6.618   4.484   0.691  0.1698  0.1251 -0.4654
  697MOL0     O91896   6.586   4.623   0.718  0.2637  0.6280 -0.3846
  697MOL0     C91897   6.455   4.657   0.729  1.0779 -0.6076 -0.5151
  697MOL0     C91898   6.431   4.786   0.779 -0.2815  0.1007 -0.1648
  697MOL0     C91899   6.299   4.832   0.786  0.9263 -0.0617 -0.1967
  697MOL0     C91900   6.191   4.756   0.734 -0.3236 -0.0838 -0.2998
  697MOL0     C91901   6.053   4.813   0.738  0.1710 -0.1807 -0.7473
  697MOL0     O91902   6.037   4.949   0.720 -0.3382 -0.2543 -0.6335
  697MOL0     C91903   5.917   5.019   0.737  0.4472  0.7462 -0.4311
  697MOL0     C91904   5.910   5.144   0.670 -0.4083  1.3959 -0.1932
  697MOL0     C91905   5.790   5.220   0.673 -0.2891  0.1467 -0.2771
  697MOL0     C91906   5.680   5.173   0.748 -0.2887  0.0068  1.1118
  697MOL0     O91907   5.575   5.268   0.745  0.1789  0.1494  0.4403
  697MOL0     C91908   5.451   5.244   0.817 -0.1936  0.3355  0.3240
  697MOL0     C91909   5.348   5.360   0.813  0.7114 -1.0658  0.1280
  697MOL0     C91910   5.212   5.307   0.853  0.7663  0.7543 -0.5635
  697MOL0     C91911   5.108   5.419   0.849  0.3268 -0.3667  0.1748
  697MOL0     C91912   5.097   5.504   0.979  0.2814 -0.0027  0.0005
  697MOL0     C91913   5.018   5.439   1.089 -0.7226  0.1068  0.1175
  697MOL0     C91914   4.871   5.439   1.053 -0.1333 -0.4023 -0.7118
  697MOL0     C91915   4.792   5.525   1.154  0.3660 -0.4889 -0.3281
  697MOL0    Cl91916   4.617   5.540   1.117 -0.6822  0.4045 -0.4650
  697MOL0     C91917   5.686   5.050   0.809 -0.6605  0.7402 -0.9714
  697MOL0     C91918   5.805   4.975   0.804 -0.0341  0.5177  0.2692
  697MOL0     O91919   5.963   4.725   0.738  0.4752 -0.1328 -0.7234
  697MOL0     C91920   6.213   4.631   0.677 -0.5238  0.4481  0.0512
  697MOL0     C91921   6.346   4.583   0.681  0.5616 -0.6073  0.8151
  697MOL0     N91922   6.841   4.007   0.717  0.0967  0.2353  0.4097
  697MOL0     N91923   6.921   3.910   0.757 -0.5141  0.1845  1.2221
  697MOL0     C91924   8.047   3.769   0.891  0.3303  0.0541  0.0044
  697MOL0     C91925   8.184   3.801   0.874 -0.0544 -0.3013  0.1400
  697MOL0     C91926   8.623   3.841   0.876 -0.6359  0.1092  0.1898
  697MOL0     C91927   8.657   3.969   0.922  0.3816 -0.7946  1.0627
  697MOL0     C91928   8.789   4.024   0.896  0.0720  1.1472 -0.2839
  697MOL0     C91929   8.895   3.938   0.845 -0.4688 -0.3382 -0.3265
  697MOL0     O91930   9.015   3.996   0.847  0.0809  0.2622 -0.6362
  697MOL0     C91931   9.124   3.917   0.808  0.8241  0.3567  0.1991
  697MOL0     C91932   9.247   3.999   0.820  0.3002 -0.4538 -0.3741
  697MOL0     C91933   9.298   4.006   0.964 -0.6283 -0.2462  0.0302
  697MOL0     C91934   9.423   4.091   0.977 -0.2454 -0.1663 -0.4406
  697MOL0     C91935   9.477   4.073   1.110 -0.8299 -0.1383 -1.9028
  697MOL0     C91936   9.539   4.070   1.217  0.7845 -0.7383  0.3463
  697MOL0     C91937   8.858   3.811   0.811  0.8396 -0.0146  0.5118
  697MOL0     C91938   8.725   3.764   0.822 -0.7244 -0.8289 -0.6279
  697MOL0     H91939   8.288   3.782   1.201  1.4736  0.9005 -1.4374
  697MOL0     H91940   8.036   3.712   1.218 -2.9222  1.2166 -0.0769
  697MOL0     H91941   7.825   3.692   1.230 -0.0855 -0.8256  0.4742
  697MOL0     H91942   7.865   3.539   1.154  1.5944  1.6788 -1.0164
  697MOL0     H91943   7.642   3.530   1.219 -0.5182  1.3348 -0.2316
  697MOL0     H91944   7.655   3.532   1.046 -3.6271  0.2332 -0.1242
  697MOL0     H91945   7.585   3.763   1.022 -1.7929  1.0966  0.3719
  697MOL0     H91946   7.620   3.779   1.196  1.1198  1.0167 -0.1854
  697MOL0     H91947   7.418   3.591   1.069 -2.9951  0.1480 -0.6394
  697MOL0     H91948   7.422   3.636   1.243  1.7100 -2.5360 -0.6745
  697MOL0     H91949   7.351   3.822   1.017 -3.7680  0.7780 -0.4048
  697MOL0     H91950   7.343   3.853   1.198  0.6979  0.8946  0.0659
  697MOL0     H91951   7.153   3.702   1.206  1.1043  0.2322  0.9437
  697MOL0     H91952   7.176   3.647   1.044 -1.9740  0.0598 -0.8598
  697MOL0     H91953   7.002   3.835   1.084  1.2484  0.1519  2.6698
  697MOL0     H91954   7.136   3.941   1.121  0.4142 -0.9358  0.9161
  697MOL0     H91955   7.148   3.796   0.852 -0.5142 -0.4516  0.5151
  697MOL0     H91956   7.199   3.951   0.919  0.2223 -0.7017  2.6578
  697MOL0     H91957   7.006   4.130   0.977 -1.9666  2.8193 -0.6831
  697MOL0     H91958   6.775   4.278   0.910 -0.7253  1.3498  0.5299
  697MOL0     H91959   6.684   4.197   0.778  0.3510 -2.1751 -0.8577
  697MOL0     H91960   6.834   4.334   0.608  0.7389  1.3940 -0.3287
  697MOL0     H91961   6.929   4.377   0.743 -0.6407  2.5777 -2.5729
  697MOL0     H91962   6.762   4.514   0.847  3.2413  1.9195 -0.6149
  697MOL0     H91963   6.811   4.568   0.688 -1.0040  0.1964 -1.4145
  697MOL0     H91964   6.555   4.418   0.750 -1.3544  2.3613  0.5443
  697MOL0     H91965   6.622   4.455   0.586  0.6960  0.6453 -0.6005
  697MOL0     H91966   6.516   4.846   0.810 -1.0134  0.6698  0.7969
  697MOL0     H91967   6.283   4.937   0.809  1.1766 -0.0790  0.0617
  697MOL0     H91968   5.998   5.160   0.610  0.5908 -2.1230  0.1300
  697MOL0     H91969   5.778   5.313   0.619 -2.4315  1.2493  1.9404
  697MOL0     H91970   5.471   5.227   0.923 -1.1881  2.5236  0.9292
  697MOL0     H91971   5.408   5.153   0.774 -1.8510  2.1978 -2.2537
  697MOL0     H91972   5.346   5.403   0.713 -0.0285  0.8187  0.9126
  697MOL0     H91973   5.377   5.444   0.877  1.3716 -2.5378  1.8525
  697MOL0     H91974   5.214   5.263   0.953 -0.2527  0.2595 -0.7406
  697MOL0     H91975   5.187   5.228   0.781 -0.8230 -1.5923  2.3122
  697MOL0     H91976   5.114   5.484   0.761 -0.2687 -0.1559  0.2841
  697MOL0     H91977   5.020   5.355   0.836  1.4302 -1.7304 -1.0287
  697MOL0     H91978   5.051   5.602   0.960 -3.3763 -1.7178 -0.9425
  697MOL0     H91979   5.198   5.519   1.017 -0.1531  1.8197  0.5201
  697MOL0     H91980   5.051   5.486   1.182  1.6485  1.0153 -1.1080
  697MOL0     H91981   5.059   5.339   1.103  1.3935  0.8140 -0.5891
  697MOL0     H91982   4.845   5.468   0.951 -1.7650  0.3199 -0.1266
  697MOL0     H91983   4.843   5.334   1.064 -0.9080  0.0378  3.1522
  697MOL0     H91984   4.830   5.628   1.158 -0.2102 -0.3104  0.9236
  697MOL0     H91985   4.805   5.486   1.255 -1.1443 -2.3772 -0.8025
  697MOL0     H91986   5.601   5.013   0.865  0.3590  0.6091  0.5707
  697MOL0     H91987   5.818   4.892   0.873 -1.9808 -0.4713 -0.5063
  697MOL0     H91988   6.125   4.579   0.641 -1.1491  0.8275  0.9853
  697MOL0     H91989   6.359   4.479   0.651  0.6184 -1.0668  2.3746
  697MOL0     H91990   7.979   3.764   0.806  0.5766 -0.8440 -0.1531
  697MOL0     H91991   8.244   3.809   0.784 -0.2921  2.0534  0.1103
  697MOL0     H91992   8.585   4.023   0.983 -1.6089  0.6416 -2.2962
  697MOL0     H91993   8.809   4.126   0.927  0.2296  0.9296  0.3559
  697MOL0     H91994   9.122   3.883   0.704  0.3882 -0.9184  0.6143
  697MOL0     H91995   9.136   3.828   0.870 -0.9441 -0.6653 -0.8737
  697MOL0     H91996   9.331   3.971   0.756  0.8241  0.4845 -0.1146
  697MOL0     H91997   9.221   4.102   0.792  1.6405  0.4891  1.6142
  697MOL0     H91998   9.318   3.907   1.007  0.3991 -0.0932 -0.0781
  697MOL0     H91999   9.223   4.046   1.032 -0.2088  2.4758 -0.9825
  697MOL0     H92000   9.506   4.076   0.907 -0.8347  0.6628 -1.3348
  697MOL0     H92001   9.404   4.197   0.960  2.2999  0.9842  2.7338
  697MOL0     H92002   9.586   4.073   1.313  1.6705  4.4974  0.0434
  697MOL0     H92003   8.938   3.740   0.792 -1.2429 -2.3289 -0.0572
  697MOL0     H92004   8.689   3.664   0.797 -2.4275 -0.5420  0.4967
  698MOL0     O92005  10.401  11.147   2.175  0.7463  0.0117 -0.1297
  698MOL0     C92006  10.410  11.034   2.126  0.1472 -0.5004 -0.1416
  698MOL0     O92007  10.402  10.913   2.188  0.0779 -0.3486 -0.3816
  698MOL0     C92008  10.352  10.884   2.315 -0.5506  0.2715 -0.1049
  698MOL0     C92009  10.235  10.945   2.358  0.8349 -0.0118  0.4078
  698MOL0     C92010  10.180  10.911   2.483 -0.8654 -0.1866  0.4415
  698MOL0     C92011  10.243  10.828   2.577  0.1062  0.3688 -0.0127
  698MOL0     O92012  10.197  10.817   2.700  0.0044 -0.0628 -0.4516
  698MOL0     C92013  10.056  10.795   2.713  0.0269  0.0952  0.3087
  698MOL0     C92014  10.042  10.720   2.846  0.6458  1.2029 -0.2727
  698MOL0     C92015   9.888  10.681   2.876  0.6829  0.2181  0.2387
  698MOL0     C92016   9.854  10.607   3.002  0.4008  0.4485 -0.1750
  698MOL0     C92017   9.918  10.667   3.129 -0.5590  0.0327 -0.3305
  698MOL0     C92018   9.868  10.806   3.165 -0.1756  0.6598  0.2396
  698MOL0     C92019   9.905  10.862   3.303 -0.0553  0.9425 -0.3237
  698MOL0     C92020   9.787  10.879   3.393 -0.8652  0.3186 -0.2711
  698MOL0     N92021   9.697  10.995   3.366  0.1062  0.6417  0.2842
  698MOL0     C92022   9.730  11.113   3.301 -0.7228  1.2074  0.9013
  698MOL0     C92023   9.614  11.178   3.292  0.1943  0.0862 -0.6137
  698MOL0     C92024   9.602  11.309   3.222 -0.4709 -0.0417  0.4032
  698MOL0     C92025   9.697  11.415   3.283 -0.2439  0.0600 -0.2121
  698MOL0     C92026   9.673  11.564   3.243 -0.2166 -0.3692 -0.0024
  698MOL0     C92027   9.708  11.581   3.100  0.4510 -0.4307  0.2973
  698MOL0     O92028   9.836  11.540   3.059  0.2384 -0.3128 -0.4596
  698MOL0     C92029   9.951  11.602   3.103 -0.3355  0.6029 -0.1635
  698MOL0     C92030   9.953  11.736   3.141  0.4913  0.7684  0.6556
  698MOL0     C92031  10.070  11.796   3.181  0.1830 -0.2870  0.1592
  698MOL0     C92032  10.196  11.733   3.169  0.7454  0.0640  0.6172
  698MOL0     C92033  10.319  11.798   3.212  0.4276  0.2944 -0.2348
  698MOL0     O92034  10.435  11.724   3.222  0.2922  0.2926  0.3648
  698MOL0     C92035  10.552  11.796   3.243 -0.3019 -0.2451 -0.0452
  698MOL0     C92036  10.659  11.767   3.161 -0.5691 -0.4914 -0.1174
  698MOL0     C92037  10.784  11.816   3.187 -0.7770 -0.2624 -0.0719
  698MOL0     C92038  10.809  11.893   3.309  0.4714 -0.0802  0.4572
  698MOL0     O92039  10.938  11.932   3.341 -0.0080 -0.2240  0.0139
  698MOL0     C92040  10.961  11.981   3.473  0.7199  0.2628 -0.5060
  698MOL0     C92041  11.116  11.992   3.489  0.7962 -0.4740 -0.3211
  698MOL0     C92042  11.196  11.861   3.453 -0.1420 -0.3599 -0.9661
  698MOL0     C92043  11.346  11.880   3.521  0.6949 -0.1363  1.2598
  698MOL0     C92044  11.424  11.751   3.544  0.1974  0.6916 -0.6012
  698MOL0     C92045  11.374  11.674   3.668  0.7411  0.1991 -0.4861
  698MOL0     C92046  11.423  11.528   3.652 -0.4634 -0.3274  1.1524
  698MOL0     C92047  11.454  11.476   3.792 -0.2892  0.5011 -0.1529
  698MOL0    Cl92048  11.297  11.468   3.890  0.1277 -0.2733  0.2407
  698MOL0     C92049  10.693  11.936   3.380  0.6325  0.5394  0.2641
  698MOL0     C92050  10.575  11.871   3.354  0.5022 -0.8134 -0.5338
  698MOL0     O92051  10.305  11.918   3.240 -0.4853  0.2418  0.3051
  698MOL0     C92052  10.194  11.598   3.131  0.4743 -0.4176 -0.4324
  698MOL0     C92053  10.075  11.535   3.102 -0.0376  0.2322  0.4454
  698MOL0     N92054   9.517  11.096   3.346  0.2478 -0.6015  0.1048
  698MOL0     N92055   9.564  10.987   3.389  0.3149 -0.5411 -0.3484
  698MOL0     C92056  10.365  10.767   2.537 -0.3928 -0.7018 -0.9100
  698MOL0     C92057  10.412  10.786   2.403  0.0540 -0.1690 -0.5914
  698MOL0     C92058  10.464  11.030   1.990 -0.3062  0.7599 -0.6445
  698MOL0     C92059  10.566  10.937   1.966 -0.0822 -0.6530 -0.0897
  698MOL0     C92060  10.613  10.922   1.834 -0.0933 -0.0243  0.5937
  698MOL0     C92061  10.596  11.017   1.732  0.4952 -0.4760  0.4932
  698MOL0     O92062  10.654  10.996   1.615 -0.2681  0.1938  0.7245
  698MOL0     C92063  10.626  11.097   1.511 -0.9092  0.7920  0.1699
  698MOL0     C92064  10.718  11.220   1.506  0.3587  0.8306  0.0044
  698MOL0     C92065  10.863  11.182   1.479 -1.0063 -0.7194 -0.1912
  698MOL0     C92066  10.946  11.314   1.468  0.6196  0.4122  0.4792
  698MOL0     C92067  11.082  11.279   1.477  0.2737  0.2230 -0.0775
  698MOL0     C92068  11.203  11.253   1.459  0.2286  0.2874  0.6374
  698MOL0     C92069  10.501  11.119   1.769  0.4257  0.1332  0.8441
  698MOL0     C92070  10.438  11.132   1.892  0.0005 -0.3482 -0.6386
  698MOL0     H92071  10.173  11.010   2.297  1.7141  0.0502 -0.4478
  698MOL0     H92072  10.090  10.968   2.503  0.4737  2.9138 -1.6138
  698MOL0     H92073  10.023  10.730   2.631 -1.8967 -0.6343  1.5764
  698MOL0     H92074   9.993  10.883   2.731 -2.9405 -2.2693  2.6291
  698MOL0     H92075  10.079  10.777   2.931  1.5701  0.0766  0.1105
  698MOL0     H92076  10.105  10.631   2.844  3.0296  2.8026  0.2036
  698MOL0     H92077   9.850  10.635   2.784  0.2109 -0.2857  0.6836
  698MOL0     H92078   9.833  10.775   2.874  0.0989 -0.0829  1.6107
  698MOL0     H92079   9.745  10.598   3.008  0.2063  1.9039 -1.0285
  698MOL0     H92080   9.884  10.502   2.994 -1.8635 -0.1734 -1.5067
  698MOL0     H92081  10.027  10.663   3.123 -0.5289 -1.8522  0.5161
  698MOL0     H92082   9.894  10.600   3.212 -1.0788 -0.6919 -1.0541
  698MOL0     H92083   9.759  10.809   3.168 -0.2096 -0.6178  2.9634
  698MOL0     H92084   9.895  10.879   3.088 -0.8834  1.3053  0.5969
  698MOL0     H92085   9.980  10.801   3.355  2.3820  1.4970 -2.9626
  698MOL0     H92086   9.948  10.960   3.281  0.7716  0.5738 -0.3814
  698MOL0     H92087   9.829  10.887   3.494 -0.3400 -2.6219 -0.1858
  698MOL0     H92088   9.734  10.783   3.391  0.2852 -0.3281 -0.1718
  698MOL0     H92089   9.821  11.159   3.264 -0.2809 -0.0411  0.3696
  698MOL0     H92090   9.495  11.334   3.225 -0.4829  0.6601 -2.8279
  698MOL0     H92091   9.631  11.293   3.118 -0.3186  0.3527  0.3805
  698MOL0     H92092   9.802  11.386   3.274 -0.5991 -1.9813  1.5576
  698MOL0     H92093   9.679  11.411   3.390 -0.5918  0.4397 -0.2509
  698MOL0     H92094   9.568  11.590   3.258  1.0199  3.6232  3.8911
  698MOL0     H92095   9.728  11.638   3.301 -2.5546  0.1527  1.6998
  698MOL0     H92096   9.700  11.687   3.073  1.6810 -0.5501 -0.6424
  698MOL0     H92097   9.635  11.516   3.051  2.8698 -2.3579 -0.9443
  698MOL0     H92098   9.864  11.796   3.126  0.3085  0.0557 -1.3576
  698MOL0     H92099  10.059  11.902   3.202 -0.2828 -0.7251  2.3948
  698MOL0     H92100  10.641  11.712   3.069 -1.1891 -0.5585  0.0409
  698MOL0     H92101  10.877  11.793   3.136  0.2064 -0.8063  1.8784
  698MOL0     H92102  10.914  11.917   3.548 -2.3550  2.5727 -0.2515
  698MOL0     H92103  10.904  12.073   3.485 -1.0684 -0.9872  1.3021
  698MOL0     H92104  11.136  12.033   3.588 -1.0597 -0.0656 -0.0740
  698MOL0     H92105  11.145  12.074   3.422 -3.8065  2.4129  0.7211
  698MOL0     H92106  11.190  11.846   3.345 -1.1520  1.2264 -1.1570
  698MOL0     H92107  11.141  11.779   3.501 -0.4875  0.5261  0.1910
  698MOL0     H92108  11.406  11.938   3.450 -1.5370 -0.2146 -0.7999
  698MOL0     H92109  11.347  11.943   3.610  1.0026 -0.3086  1.3794
  698MOL0     H92110  11.527  11.786   3.554  0.4277  0.3273 -1.5776
  698MOL0     H92111  11.414  11.688   3.455 -0.0839 -0.7805  0.4332
  698MOL0     H92112  11.265  11.670   3.672  0.7523  0.7037  2.2630
  698MOL0     H92113  11.416  11.707   3.763  0.0524 -0.9370  0.2333
  698MOL0     H92114  11.347  11.469   3.600 -0.4009 -0.8799  1.6789
  698MOL0     H92115  11.508  11.516   3.584 -0.3022 -0.0898  1.3083
  698MOL0     H92116  11.527  11.546   3.833 -0.2405  0.8004 -0.7427
  698MOL0     H92117  11.493  11.374   3.793  1.1460  0.9982 -1.4641
  698MOL0     H92118  10.693  12.001   3.467  0.3281  1.0804 -0.1336
  698MOL0     H92119  10.494  11.889   3.423  1.1340 -0.0063  0.0086
  698MOL0     H92120  10.286  11.541   3.119  0.8673  0.2889 -0.9267
  698MOL0     H92121  10.084  11.431   3.071 -0.9268  0.3956 -0.3913
  698MOL0     H92122  10.416  10.711   2.614 -1.1695  2.0269  1.8006
  698MOL0     H92123  10.498  10.723   2.384  1.2631  2.0718 -3.2947
  698MOL0     H92124  10.605  10.869   2.042 -0.9680 -1.4178 -0.3054
  698MOL0     H92125  10.692  10.851   1.810 -0.5296 -0.0807 -0.7899
  698MOL0     H92126  10.521  11.129   1.516 -0.9290  0.5660  2.0435
  698MOL0     H92127  10.628  11.060   1.408 -0.1233 -0.4721  0.6209
  698MOL0     H92128  10.686  11.277   1.419  1.4253  0.8978 -0.3684
  698MOL0     H92129  10.717  11.282   1.596  0.4470 -1.7228  1.8921
  698MOL0     H92130  10.873  11.117   1.391  1.6941 -2.1434  1.0394
  698MOL0     H92131  10.896  11.107   1.552  0.5343 -1.0152 -1.1394
  698MOL0     H92132  10.922  11.362   1.373  1.6376 -0.6613 -0.3442
  698MOL0     H92133  10.930  11.387   1.548  0.6794 -0.1502  1.0174
  698MOL0     H92134  11.304  11.224   1.440 -0.1115 -0.2486 -0.4720
  698MOL0     H92135  10.469  11.189   1.692  1.9065 -0.7501 -0.6541
  698MOL0     H92136  10.354  11.197   1.914 -1.1168 -1.1914 -2.1769
  699MOL0     O92137   1.819   9.828   0.072 -0.3328  0.2000 -0.0101
  699MOL0     C92138   1.719   9.888   0.117 -0.0588  0.4362 -0.8085
  699MOL0     O92139   1.719  10.004   0.190 -0.3084  0.7111 -0.0124
  699MOL0     C92140   1.846  10.065   0.212 -0.0844 -0.2476 -0.1650
  699MOL0     C92141   1.931  10.110   0.109 -0.2691  0.1963 -0.3229
  699MOL0     C92142   2.046  10.184   0.140  0.0974  0.1433  0.2454
  699MOL0     C92143   2.081  10.206   0.272 -0.0487  0.1882 -0.4980
  699MOL0     O92144   2.195  10.268   0.313  0.0573 -0.3730  0.6819
  699MOL0     C92145   2.306  10.280   0.218 -0.1989  0.2883  0.1561
  699MOL0     C92146   2.317  10.419   0.184 -0.2684  0.3633  0.4786
  699MOL0     C92147   2.438  10.453   0.105 -0.9776  0.8974  0.2104
  699MOL0     C92148   2.477  10.596   0.080  0.1079 -0.3957 -0.5331
  699MOL0     C92149   2.604  10.589  -0.006 -0.0739 -0.6556 -0.2166
  699MOL0     C92150   2.673  10.722   0.004 -0.3247 -0.5551 -0.2450
  699MOL0     C92151   2.807  10.719  -0.072 -0.9069 -0.4319  1.3310
  699MOL0     C92152   2.798  10.704  -0.228  0.1447  0.2397 -0.1335
  699MOL0     N92153   2.747  10.821  -0.301 -0.0468  0.2068 -0.5146
  699MOL0     C92154   2.612  10.831  -0.334 -0.2873 -0.2002  0.4024
  699MOL0     C92155   2.600  10.940  -0.412 -0.7638  0.2290  0.3308
  699MOL0     C92156   2.465  10.973  -0.480  0.1031 -0.0932  0.1188
  699MOL0     C92157   2.372  11.036  -0.380  0.2692  0.2468 -0.2154
  699MOL0     C92158   2.224  11.035  -0.414  0.4699  0.2650 -0.7861
  699MOL0     C92159   2.149  10.907  -0.391  0.4053  0.5281 -0.2473
  699MOL0     O92160   2.140  10.887  -0.246  0.1997  0.4298 -0.1128
  699MOL0     C92161   2.046  10.801  -0.185  0.3402 -0.1341 -0.4027
  699MOL0     C92162   2.029  10.812  -0.055 -0.2038 -0.4165 -1.2307
  699MOL0     C92163   1.943  10.739   0.017 -0.5619  0.1412 -0.3451
  699MOL0     C92164   1.870  10.634  -0.041 -0.0929  0.3628 -0.0490
  699MOL0     C92165   1.779  10.549   0.038  0.4702 -0.5904 -0.2248
  699MOL0     O92166   1.763  10.420  -0.018  0.0869 -0.1969  0.3752
  699MOL0     C92167   1.643  10.356   0.012 -1.0343  0.8813  0.8834
  699MOL0     C92168   1.565  10.319  -0.095  0.1757 -0.4082  0.2372
  699MOL0     C92169   1.448  10.254  -0.081  1.0567 -0.1114  0.2384
  699MOL0     C92170   1.402  10.225   0.052 -0.5939  0.1457 -0.0824
  699MOL0     O92171   1.284  10.161   0.088 -0.2360  1.0251 -0.4937
  699MOL0     C92172   1.164  10.165   0.003 -0.5990  0.3937  0.9132
  699MOL0     C92173   1.044  10.205   0.088  0.1360  0.2430  0.2688
  699MOL0     C92174   0.923  10.248   0.005  0.0969 -0.3282 -0.6098
  699MOL0     C92175   0.796  10.238   0.082  0.0982 -0.0964 -0.2753
  699MOL0     C92176   0.684  10.288  -0.006  0.0705 -0.5096 -0.1695
  699MOL0     C92177   0.549  10.282   0.063  0.9183  0.0002  0.4698
  699MOL0     C92178   0.440  10.329  -0.039 -0.1260  0.2871  0.1038
  699MOL0     C92179   0.300  10.350   0.023 -0.0038 -0.0011  0.6659
  699MOL0    Cl92180   0.164  10.367  -0.099  0.5135  0.1143 -0.2582
  699MOL0     C92181   1.484  10.248   0.157  0.2613  0.4246  0.7595
  699MOL0     C92182   1.599  10.318   0.136 -1.3805 -0.1414  0.7759
  699MOL0     O92183   1.722  10.591   0.134 -0.1246 -0.4476 -0.1093
  699MOL0     C92184   1.882  10.624  -0.181 -0.2842 -0.0360 -0.4464
  699MOL0     C92185   1.965  10.710  -0.256 -0.0656  0.1231  0.0048
  699MOL0     N92186   2.726  11.001  -0.420 -0.1884  0.1247 -0.6538
  699MOL0     N92187   2.809  10.935  -0.346 -0.2694  0.1390  0.5864
  699MOL0     C92188   2.002  10.152   0.378  0.1645 -0.4468  0.6325
  699MOL0     C92189   1.886  10.087   0.342 -0.9828 -0.0522  0.4044
  699MOL0     C92190   1.585   9.829   0.086 -0.3450 -0.3371  0.8668
  699MOL0     C92191   1.465   9.879   0.135 -0.3040  0.1223 -0.3317
  699MOL0     C92192   1.337   9.815   0.122  0.7689 -0.6073  0.2170
  699MOL0     C92193   1.331   9.699   0.039  1.1084  0.0581  0.1039
  699MOL0     O92194   1.208   9.652   0.018 -1.1173 -0.0243  0.4354
  699MOL0     C92195   1.186   9.532  -0.061 -0.9047  0.3900 -1.0868
  699MOL0     C92196   1.036   9.513  -0.076 -0.6869  0.0630 -0.1453
  699MOL0     C92197   1.003   9.433  -0.205  1.2585  0.6146 -0.5932
  699MOL0     C92198   0.859   9.441  -0.260 -0.6476  0.2019 -0.1767
  699MOL0     C92199   0.771   9.373  -0.164  0.3569  0.2005  0.4316
  699MOL0     C92200   0.701   9.305  -0.083 -0.9902 -0.4623 -0.1840
  699MOL0     C92201   1.449   9.656  -0.021  0.4275 -0.3194  0.1933
  699MOL0     C92202   1.575   9.711   0.011  0.6646  0.0487  0.1005
  699MOL0     H92203   1.910  10.094   0.004 -1.3524 -1.5053  0.1184
  699MOL0     H92204   2.108  10.209   0.054 -0.7683 -2.1299 -1.1457
  699MOL0     H92205   2.304  10.225   0.123  4.9759 -0.0157 -0.0502
  699MOL0     H92206   2.396  10.240   0.265 -0.3734  0.1261  0.3560
  699MOL0     H92207   2.317  10.482   0.273  2.8243  0.3832  0.5635
  699MOL0     H92208   2.230  10.443   0.121  0.1135 -3.1719 -1.6592
  699MOL0     H92209   2.438  10.392   0.014  0.7545  0.8678  0.1952
  699MOL0     H92210   2.522  10.409   0.159 -0.7341  0.6650 -0.3428
  699MOL0     H92211   2.394  10.653   0.038 -1.2635 -0.9790  1.2731
  699MOL0     H92212   2.502  10.643   0.175 -0.3208  1.2516 -1.2092
  699MOL0     H92213   2.571  10.571  -0.108  0.3782  1.4517 -0.7820
  699MOL0     H92214   2.674  10.512   0.028 -1.2831 -1.0135  1.5985
  699MOL0     H92215   2.693  10.756   0.106 -1.1750  0.9433 -0.5323
  699MOL0     H92216   2.604  10.799  -0.034 -3.0060 -2.4478  0.4708
  699MOL0     H92217   2.859  10.815  -0.057  2.0878 -1.4473 -1.4327
  699MOL0     H92218   2.876  10.639  -0.044 -0.1889 -0.7677 -1.1391
  699MOL0     H92219   2.731  10.623  -0.259 -0.9236  0.6293  1.0799
  699MOL0     H92220   2.897  10.682  -0.267 -0.8508 -0.4485 -2.4398
  699MOL0     H92221   2.527  10.770  -0.305  1.0414 -1.5065  1.7359
  699MOL0     H92222   2.427  10.875  -0.511  2.8292 -1.2167  0.0271
  699MOL0     H92223   2.494  11.039  -0.562  2.2887  0.0316  0.9058
  699MOL0     H92224   2.411  11.139  -0.380  0.5084  0.2161 -2.9659
  699MOL0     H92225   2.385  10.989  -0.282 -1.2872 -0.1781 -0.1871
  699MOL0     H92226   2.175  11.114  -0.356 -2.2919 -1.6272 -0.3086
  699MOL0     H92227   2.206  11.040  -0.522  0.6187 -4.0623 -1.2022
  699MOL0     H92228   2.215  10.833  -0.438 -0.5857 -1.0028  0.7171
  699MOL0     H92229   2.047  10.900  -0.430 -0.2765 -2.7572  1.7587
  699MOL0     H92230   2.086  10.890  -0.004 -0.7035  0.1467 -1.5291
  699MOL0     H92231   1.927  10.767   0.121 -1.2500 -2.3557  0.2775
  699MOL0     H92232   1.602  10.364  -0.187 -2.0333  3.3711  0.9702
  699MOL0     H92233   1.391  10.215  -0.165  0.3949  0.3089  0.4802
  699MOL0     H92234   1.148  10.074  -0.056 -1.0566  2.8635 -3.1691
  699MOL0     H92235   1.171  10.247  -0.069 -1.6082  0.4561  0.8720
  699MOL0     H92236   1.079  10.278   0.161 -0.6374 -0.6523  1.5684
  699MOL0     H92237   1.014  10.114   0.140 -1.6382  1.9111  2.3513
  699MOL0     H92238   0.924  10.190  -0.088  2.9088  0.4439 -1.1577
  699MOL0     H92239   0.942  10.352  -0.021  1.0292 -0.3725 -0.1240
  699MOL0     H92240   0.785  10.136   0.119 -0.9405  0.7406  1.9156
  699MOL0     H92241   0.810  10.306   0.168  3.8640  2.7416 -2.7593
  699MOL0     H92242   0.675  10.232  -0.100  0.8841  2.4314 -2.1600
  699MOL0     H92243   0.694  10.388  -0.049 -5.0024 -0.4583 -1.9902
  699MOL0     H92244   0.533  10.348   0.148  1.4487 -2.0265  2.2380
  699MOL0     H92245   0.532  10.178   0.093  0.5279 -0.9168 -2.5236
  699MOL0     H92246   0.473  10.416  -0.096  0.0841 -1.5158 -2.7282
  699MOL0     H92247   0.437  10.254  -0.119 -1.9164  1.2739 -0.8414
  699MOL0     H92248   0.303  10.446   0.075 -0.6628  0.9126 -0.9173
  699MOL0     H92249   0.287  10.266   0.092 -2.4238  0.8317  1.3158
  699MOL0     H92250   1.447  10.227   0.257 -0.9963 -0.5391  0.1226
  699MOL0     H92251   1.665  10.345   0.218  1.1681 -0.6204 -1.0069
  699MOL0     H92252   1.824  10.554  -0.241 -2.4384  1.0129  0.3350
  699MOL0     H92253   1.953  10.699  -0.363  1.0355  0.2831 -0.1474
  699MOL0     H92254   2.018  10.178   0.483  0.0073  1.2264  0.2671
  699MOL0     H92255   1.829  10.063   0.431  0.9125 -1.3353  1.3511
  699MOL0     H92256   1.459   9.972   0.190 -3.8901 -0.2642  0.2133
  699MOL0     H92257   1.250   9.850   0.176 -1.1693 -2.5473 -1.4782
  699MOL0     H92258   1.217   9.446  -0.001 -3.1102 -1.2793 -2.1663
  699MOL0     H92259   1.243   9.535  -0.155  0.9677 -0.4072 -0.0318
  699MOL0     H92260   0.993   9.458   0.008  2.0005  0.4929  1.6406
  699MOL0     H92261   0.984   9.609  -0.067  0.0003  0.3073  1.5153
  699MOL0     H92262   1.022   9.326  -0.192  1.3656  0.5876 -0.9864
  699MOL0     H92263   1.073   9.474  -0.278  0.5559  1.5974 -0.7323
  699MOL0     H92264   0.829   9.544  -0.280  0.9995  0.5697 -0.9590
  699MOL0     H92265   0.867   9.383  -0.352 -3.5716 -1.8254  0.7232
  699MOL0     H92266   0.634   9.271  -0.006 -0.1105 -2.3275 -0.1888
  699MOL0     H92267   1.451   9.578  -0.096  0.4000 -0.4184  0.2961
  699MOL0     H92268   1.666   9.660  -0.016 -1.1298 -2.2761 -2.1182
  700MOL0     O92269   0.534   6.396   2.096 -0.5266 -0.0340  0.1712
  700MOL0     C92270   0.632   6.330   2.111 -0.3942 -0.9196  0.4014
  700MOL0     O92271   0.642   6.206   2.083 -0.0791 -0.4328 -0.0457
  700MOL0     C92272   0.535   6.144   2.025 -0.5511 -0.4561  0.5676
  700MOL0     C92273   0.521   6.007   2.073  1.0738 -0.6010 -0.9855
  700MOL0     C92274   0.431   5.928   2.009  0.6321 -0.5357  0.2803
  700MOL0     C92275   0.348   5.970   1.907  0.2500  1.1030  0.2783
  700MOL0     O92276   0.262   5.874   1.858  0.3302 -0.2985 -0.4714
  700MOL0     C92277   0.177   5.925   1.755 -0.0603 -0.1535  0.1917
  700MOL0     C92278   0.092   5.815   1.707  0.2884 -0.5613  0.6659
  700MOL0     C92279   0.023   5.843   1.566  0.4028 -0.0782 -0.1605
  700MOL0     C92280  -0.090   5.740   1.554  0.4386 -0.3047 -0.5815
  700MOL0     C92281  -0.139   5.746   1.403 -0.1328  0.0720 -0.0847
  700MOL0     C92282  -0.196   5.882   1.357 -0.7385  0.0979  0.1234
  700MOL0     C92283  -0.245   5.875   1.210 -0.8932 -0.4854 -0.7775
  700MOL0     C92284  -0.315   6.000   1.157 -0.2529 -0.3569  0.0739
  700MOL0     N92285  -0.455   5.988   1.146  0.6887  0.0307 -0.1496
  700MOL0     C92286  -0.525   5.951   1.031 -0.3652  0.6581 -0.1312
  700MOL0     C92287  -0.650   5.922   1.076  0.1246 -0.0592  0.0393
  700MOL0     C92288  -0.758   5.864   0.993  0.3780  0.5721 -0.4612
  700MOL0     C92289  -0.803   5.972   0.902  0.2528 -0.4388 -0.4156
  700MOL0     C92290  -0.917   5.937   0.797  0.0715 -0.1941 -0.2131
  700MOL0     C92291  -1.048   5.896   0.857 -0.2051  0.2302  0.3047
  700MOL0     O92292  -1.041   5.761   0.913 -0.3320 -0.3087 -0.4748
  700MOL0     C92293  -1.140   5.721   1.000 -0.1980  0.7907  0.1993
  700MOL0     C92294  -1.261   5.763   0.980  0.5557  0.5393  0.1454
  700MOL0     C92295  -1.366   5.732   1.070 -0.3908  0.0429 -0.0009
  700MOL0     C92296  -1.345   5.650   1.181  0.2597  0.0032 -0.1749
  700MOL0     C92297  -1.448   5.611   1.270 -0.0568  0.6881 -0.1857
  700MOL0     O92298  -1.574   5.630   1.226  0.1063 -0.0222  0.5982
  700MOL0     C92299  -1.690   5.607   1.296  0.6086  0.1540 -0.8256
  700MOL0     C92300  -1.702   5.572   1.430 -0.0160  0.0109  0.3661
  700MOL0     C92301  -1.828   5.558   1.487 -0.5460  0.4308  0.0728
  700MOL0     C92302  -1.946   5.573   1.412  0.0488 -0.0796  0.5311
  700MOL0     O92303  -2.073   5.560   1.453 -0.2002  0.9415 -0.2185
  700MOL0     C92304  -2.087   5.529   1.589 -0.7436 -0.1837  0.6472
  700MOL0     C92305  -2.225   5.563   1.640 -0.1446  0.1020  0.4678
  700MOL0     C92306  -2.344   5.539   1.544 -0.2313 -0.2492  0.3135
  700MOL0     C92307  -2.476   5.568   1.607 -0.6010 -0.4294  0.2067
  700MOL0     C92308  -2.528   5.458   1.696 -0.5179  0.4816  0.2913
  700MOL0     C92309  -2.644   5.512   1.771 -0.2328  0.2139  0.3676
  700MOL0     C92310  -2.776   5.522   1.695  0.1351  0.5495  1.8959
  700MOL0     C92311  -2.880   5.553   1.803  0.0737 -0.1933 -0.5336
  700MOL0    Cl92312  -3.032   5.605   1.732  0.2047  0.3407 -0.5302
  700MOL0     C92313  -1.932   5.601   1.281  0.2759 -0.8182  0.2027
  700MOL0     C92314  -1.809   5.623   1.223 -0.0399  0.8263  0.3024
  700MOL0     O92315  -1.409   5.556   1.372  0.5591 -0.4350  0.3655
  700MOL0     C92316  -1.207   5.609   1.199  1.1369 -0.2938  0.5647
  700MOL0     C92317  -1.107   5.646   1.108 -0.0995 -0.4090 -0.8889
  700MOL0     N92318  -0.655   5.951   1.214 -0.0435  0.1461  0.0571
  700MOL0     N92319  -0.540   5.988   1.249  0.2053 -0.2214 -0.7631
  700MOL0     C92320   0.371   6.091   1.847  0.0789 -0.2661 -0.7736
  700MOL0     C92321   0.460   6.183   1.910  0.3782 -0.3177 -0.3805
  700MOL0     C92322   0.750   6.405   2.169  0.6764  0.3163 -0.1618
  700MOL0     C92323   0.750   6.545   2.163 -0.1844  0.6278 -0.0618
  700MOL0     C92324   0.863   6.623   2.181 -0.4262 -0.2353  0.3667
  700MOL0     C92325   0.981   6.554   2.218 -0.2616  0.0523  0.0960
  700MOL0     O92326   1.084   6.623   2.263  0.5300 -0.3063 -0.1301
  700MOL0     C92327   1.122   6.593   2.398 -0.3861 -0.1965  0.1847
  700MOL0     C92328   1.191   6.718   2.452  0.1009  0.0504 -0.2692
  700MOL0     C92329   1.095   6.840   2.447 -0.6197 -0.0529  0.1840
  700MOL0     C92330   1.151   6.962   2.518  0.5235  0.7057  0.3013
  700MOL0     C92331   1.277   6.999   2.461  0.1581  0.6284  0.4576
  700MOL0     C92332   1.386   7.033   2.412  0.0607 -0.5012  1.3554
  700MOL0     C92333   0.978   6.420   2.224  0.2266  0.2149 -0.5907
  700MOL0     C92334   0.871   6.343   2.195  0.2305  0.3257  0.7188
  700MOL0     H92335   0.578   5.961   2.153  0.4423 -2.6538 -1.6652
  700MOL0     H92336   0.439   5.825   2.042 -0.5813 -1.0339 -0.8778
  700MOL0     H92337   0.241   5.956   1.671  0.1066  0.9134  0.6968
  700MOL0     H92338   0.118   6.008   1.795 -0.9224 -0.0942 -1.1297
  700MOL0     H92339   0.020   5.799   1.787 -2.8185  0.6682 -1.6783
  700MOL0     H92340   0.148   5.722   1.711  0.3722 -0.5567 -0.2731
  700MOL0     H92341   0.101   5.833   1.489 -0.3401  0.0610 -0.9476
  700MOL0     H92342  -0.009   5.948   1.563  1.9172  0.4351  0.6388
  700MOL0     H92343  -0.073   5.636   1.582 -1.3380 -0.9155 -1.6021
  700MOL0     H92344  -0.168   5.774   1.623  2.7412  1.2664  1.4187
  700MOL0     H92345  -0.225   5.680   1.390 -1.1949  1.4973 -0.5616
  700MOL0     H92346  -0.051   5.733   1.339  1.5404  2.3248  1.6007
  700MOL0     H92347  -0.114   5.953   1.369 -1.7149  0.9379  2.6682
  700MOL0     H92348  -0.281   5.908   1.422 -0.3198 -0.4700  0.9155
  700MOL0     H92349  -0.164   5.862   1.138  1.0549  0.1483  1.1841
  700MOL0     H92350  -0.309   5.786   1.206  1.6338 -2.4687  0.2244
  700MOL0     H92351  -0.265   6.018   1.061  0.4929 -2.5493  0.0037
  700MOL0     H92352  -0.290   6.077   1.231 -0.7051 -0.7622  0.6592
  700MOL0     H92353  -0.481   5.945   0.932 -0.3240  1.0550 -0.1391
  700MOL0     H92354  -0.839   5.829   1.058 -0.1999  5.7519  2.1224
  700MOL0     H92355  -0.729   5.777   0.934  1.1317 -0.6446  1.5668
  700MOL0     H92356  -0.716   6.006   0.846  0.2462  0.7360  0.2550
  700MOL0     H92357  -0.839   6.057   0.960 -0.8938 -0.9452 -0.3501
  700MOL0     H92358  -0.941   6.016   0.724 -1.8052  0.0784  0.6244
  700MOL0     H92359  -0.880   5.853   0.737 -3.6056 -2.3275  0.1414
  700MOL0     H92360  -1.125   5.901   0.780 -2.3046  2.8185  2.3602
  700MOL0     H92361  -1.076   5.962   0.940 -1.2969 -0.2256  0.3110
  700MOL0     H92362  -1.291   5.821   0.893 -0.0188 -0.6086 -0.4424
  700MOL0     H92363  -1.467   5.755   1.039 -0.2459  2.1141  0.9014
  700MOL0     H92364  -1.616   5.573   1.496 -0.3054  1.4422  0.7613
  700MOL0     H92365  -1.834   5.543   1.594  0.6824 -0.2887  0.0650
  700MOL0     H92366  -2.027   5.588   1.660 -1.4621  0.2474  0.9076
  700MOL0     H92367  -2.068   5.422   1.599 -1.6172 -0.3426  0.7019
  700MOL0     H92368  -2.224   5.668   1.670 -2.2768  0.4557 -0.5099
  700MOL0     H92369  -2.242   5.505   1.731 -0.1202 -0.6831 -0.0180
  700MOL0     H92370  -2.349   5.436   1.506 -1.0269 -0.3655  0.7190
  700MOL0     H92371  -2.335   5.613   1.464 -3.4930  1.6603  1.4996
  700MOL0     H92372  -2.469   5.661   1.665  0.4623 -0.8157  0.7266
  700MOL0     H92373  -2.552   5.580   1.530 -1.6781 -0.8850  1.1604
  700MOL0     H92374  -2.455   5.429   1.773  0.1534  0.0462 -0.4960
  700MOL0     H92375  -2.567   5.368   1.648  2.0209 -0.6850  0.2640
  700MOL0     H92376  -2.618   5.610   1.811 -1.7796  0.8410 -0.0982
  700MOL0     H92377  -2.656   5.442   1.854 -3.5629 -1.2979 -1.1956
  700MOL0     H92378  -2.756   5.607   1.628  0.1190 -2.4508 -2.3440
  700MOL0     H92379  -2.802   5.441   1.627 -0.0147  2.1386 -0.0383
  700MOL0     H92380  -2.841   5.627   1.873 -1.0143 -0.3330  0.2395
  700MOL0     H92381  -2.909   5.465   1.860  0.7913 -0.4013 -0.4778
  700MOL0     H92382  -2.022   5.626   1.226  2.2801  0.2135 -2.9015
  700MOL0     H92383  -1.815   5.656   1.120 -0.2566 -1.3733 -0.4560
  700MOL0     H92384  -1.191   5.541   1.282  0.0104  1.0395  1.9163
  700MOL0     H92385  -1.003   5.614   1.116 -0.1421 -0.1289  1.3411
  700MOL0     H92386   0.305   6.119   1.765 -0.7073  1.1138  0.2705
  700MOL0     H92387   0.474   6.284   1.872 -1.2415  0.1017  0.0782
  700MOL0     H92388   0.660   6.598   2.135 -0.2498  1.0038  0.8456
  700MOL0     H92389   0.852   6.729   2.161  0.9941 -0.3645 -1.2794
  700MOL0     H92390   1.190   6.509   2.414 -0.9273 -0.0184  4.9583
  700MOL0     H92391   1.030   6.572   2.454 -0.1964 -0.1038  0.5347
  700MOL0     H92392   1.230   6.700   2.553  0.3720  0.1525 -0.3561
  700MOL0     H92393   1.278   6.740   2.390  0.8280 -2.0409 -0.0647
  700MOL0     H92394   1.004   6.813   2.502  1.6972  0.7494  4.9362
  700MOL0     H92395   1.084   6.869   2.342  2.2773  0.7924  0.0185
  700MOL0     H92396   1.078   7.041   2.500 -2.8814 -2.8277 -3.1643
  700MOL0     H92397   1.176   6.937   2.622  1.6441 -0.6206 -0.2503
  700MOL0     H92398   1.476   7.069   2.367 -0.2409 -0.0109  1.1472
  700MOL0     H92399   1.064   6.362   2.256 -1.8104 -4.1459 -2.2107
  700MOL0     H92400   0.877   6.235   2.196  1.3262  0.3787  0.7234
  701MOL0     O92401   3.615  11.012   8.052  0.3939  0.0861 -0.5027
  701MOL0     C92402   3.681  10.961   8.147 -0.4651  0.5549  0.5951
  701MOL0     O92403   3.623  10.891   8.245  0.1026  0.7670 -0.6188
  701MOL0     C92404   3.483  10.895   8.240 -0.4458 -0.3470 -0.9271
  701MOL0     C92405   3.399  10.823   8.160  0.5230 -0.4103  0.6745
  701MOL0     C92406   3.261  10.831   8.176  0.4009  0.5176  0.6816
  701MOL0     C92407   3.204  10.905   8.279  0.5040 -0.1251 -0.2934
  701MOL0     O92408   3.069  10.927   8.304 -0.5780  0.3025  0.1153
  701MOL0     C92409   2.970  10.906   8.205 -0.1399  0.7802  0.1347
  701MOL0     C92410   2.847  10.999   8.246  0.0364  0.7099 -1.2936
  701MOL0     C92411   2.784  10.947   8.379  0.6083 -0.1848  0.5000
  701MOL0     C92412   2.693  10.829   8.365 -0.5389  0.2252  0.3232
  701MOL0     C92413   2.655  10.764   8.498  0.1900  0.0195 -0.8204
  701MOL0     C92414   2.557  10.853   8.588  0.2660  0.4203 -0.2076
  701MOL0     C92415   2.425  10.875   8.504 -0.2403 -0.0434  1.0198
  701MOL0     C92416   2.311  10.917   8.594  0.1742 -0.3653 -0.0232
  701MOL0     N92417   2.180  10.882   8.539  0.5486  0.5035  0.3480
  701MOL0     C92418   2.095  10.964   8.459 -0.5355 -1.2386 -0.2583
  701MOL0     C92419   2.010  10.883   8.401  0.4413  0.1528  0.0400
  701MOL0     C92420   1.903  10.924   8.320 -0.5151  0.8182  0.3472
  701MOL0     C92421   1.784  10.973   8.406 -0.6970  0.1445  0.1496
  701MOL0     C92422   1.645  10.951   8.345 -1.0972  0.4925  0.3372
  701MOL0     C92423   1.533  10.965   8.444 -0.6718 -0.5182 -0.2613
  701MOL0     O92424   1.415  10.923   8.382 -0.3377 -0.2025  0.4256
  701MOL0     C92425   1.309  10.887   8.466 -0.1733  0.4495  0.8234
  701MOL0     C92426   1.306  10.917   8.609 -0.6499 -0.2268  0.3772
  701MOL0     C92427   1.196  10.881   8.685 -0.1731 -0.5948 -0.2107
  701MOL0     C92428   1.077  10.826   8.629 -0.4288  0.0632 -0.7873
  701MOL0     C92429   0.958  10.800   8.715  0.6207  0.3109  0.0668
  701MOL0     O92430   0.839  10.772   8.648 -0.3420 -0.0733 -0.0979
  701MOL0     C92431   0.722  10.733   8.710 -0.7579 -0.0194 -0.0686
  701MOL0     C92432   0.707  10.655   8.836  0.8833 -0.3558 -0.2359
  701MOL0     C92433   0.574  10.633   8.882  0.5610 -0.0831  0.2930
  701MOL0     C92434   0.460  10.672   8.813  0.4798  0.7599  0.7652
  701MOL0     O92435   0.337  10.653   8.873  0.1791  0.0301 -0.1028
  701MOL0     C92436   0.220  10.703   8.808  0.3474 -0.2078 -0.1095
  701MOL0     C92437   0.108  10.670   8.907 -0.5721 -0.0100  0.2586
  701MOL0     C92438  -0.030  10.732   8.866  0.4016  0.3251 -0.0636
  701MOL0     C92439  -0.102  10.664   8.751 -0.4454 -0.4328  0.9094
  701MOL0     C92440  -0.250  10.679   8.778 -0.0896  0.5202  0.5008
  701MOL0     C92441  -0.345  10.671   8.655 -0.3318 -0.0614  0.6342
  701MOL0     C92442  -0.481  10.733   8.689  0.1210 -0.8642  1.0605
  701MOL0     C92443  -0.563  10.750   8.558  0.0443  0.0470  0.6697
  701MOL0    Cl92444  -0.728  10.812   8.583  0.1677  0.2688  0.8836
  701MOL0     C92445   0.479  10.728   8.680  0.2313 -0.1078 -0.3593
  701MOL0     C92446   0.606  10.758   8.631 -0.7749  0.1414 -0.7524
  701MOL0     O92447   0.967  10.813   8.839  0.3893  0.6060 -0.6165
  701MOL0     C92448   1.096  10.793   8.493  0.4973  0.8349  1.6392
  701MOL0     C92449   1.203  10.814   8.410  1.1136 -0.1924  0.6133
  701MOL0     N92450   2.029  10.753   8.439 -0.4497 -0.0620  0.3077
  701MOL0     N92451   2.135  10.754   8.514  0.5196 -0.7952  0.4762
  701MOL0     C92452   3.286  10.971   8.361  0.2448  0.1692  0.0358
  701MOL0     C92453   3.426  10.967   8.343  0.2546 -0.1052  0.7160
  701MOL0     C92454   3.830  10.970   8.163  0.0982 -0.1995  0.6385
  701MOL0     C92455   3.896  11.028   8.053 -0.1934  0.7250  0.1622
  701MOL0     C92456   4.034  11.039   8.056 -0.2492 -0.0454 -0.1002
  701MOL0     C92457   4.111  11.002   8.165 -0.1135 -0.7263 -0.1221
  701MOL0     O92458   4.249  11.018   8.161 -0.1939 -0.3100 -0.0986
  701MOL0     C92459   4.324  11.013   8.285 -0.3627  0.8247  0.1365
  701MOL0     C92460   4.476  10.994   8.265 -0.1418  0.3983  0.3519
  701MOL0     C92461   4.540  11.119   8.193 -0.1803 -0.2614  0.4015
  701MOL0     C92462   4.677  11.093   8.123  0.0016  0.2744 -0.0856
  701MOL0     C92463   4.779  11.057   8.226  0.2690 -0.4230 -0.5595
  701MOL0     C92464   4.854  11.019   8.313  0.1941 -0.2141  0.5514
  701MOL0     C92465   4.042  10.957   8.283  0.4624  0.7213  0.7741
  701MOL0     C92466   3.909  10.928   8.277  0.1761 -1.3289 -0.6195
  701MOL0     H92467   3.449  10.763   8.084 -1.4626 -1.5576  0.2113
  701MOL0     H92468   3.194  10.779   8.108 -0.5255  3.0640 -0.5168
  701MOL0     H92469   2.933  10.803   8.198 -1.6344  1.1996  1.2468
  701MOL0     H92470   3.022  10.942   8.116  4.7233 -1.1094  1.9023
  701MOL0     H92471   2.771  11.007   8.168  1.0843  2.5145 -2.1924
  701MOL0     H92472   2.892  11.097   8.266  2.1086 -0.2694 -0.9184
  701MOL0     H92473   2.732  11.022   8.440 -0.6200 -2.1440  1.9837
  701MOL0     H92474   2.865  10.916   8.446  0.1538 -2.7832 -0.0755
  701MOL0     H92475   2.602  10.851   8.308 -0.7125 -0.4793  0.3279
  701MOL0     H92476   2.748  10.758   8.303  0.9329  1.0853  0.5909
  701MOL0     H92477   2.746  10.741   8.554 -1.1772  2.9857  3.1362
  701MOL0     H92478   2.597  10.674   8.478 -1.1091  0.5470  0.3543
  701MOL0     H92479   2.608  10.940   8.631  1.5374 -1.1845  1.7062
  701MOL0     H92480   2.529  10.809   8.685 -2.6287  0.7603 -0.7899
  701MOL0     H92481   2.442  10.958   8.435  0.2801  1.6360  3.0647
  701MOL0     H92482   2.402  10.785   8.446  0.8793  1.2609 -1.6150
  701MOL0     H92483   2.303  11.024   8.617 -3.5007 -0.7615  1.1210
  701MOL0     H92484   2.319  10.866   8.691  1.7249 -0.4614 -0.1739
  701MOL0     H92485   2.101  11.072   8.463 -2.7765 -1.1011  0.6391
  701MOL0     H92486   1.865  10.833   8.274  0.7023 -0.3381  1.5652
  701MOL0     H92487   1.928  10.995   8.240  0.9740 -0.0404  0.0267
  701MOL0     H92488   1.802  11.077   8.435 -0.3854 -0.1622  1.0958
  701MOL0     H92489   1.776  10.916   8.499 -0.4549 -0.2063 -0.0436
  701MOL0     H92490   1.638  11.021   8.261  2.9838 -0.8525 -1.4116
  701MOL0     H92491   1.640  10.851   8.300 -1.5052 -0.2567  1.9749
  701MOL0     H92492   1.535  11.068   8.481  0.5156 -0.6426  0.0506
  701MOL0     H92493   1.550  10.894   8.525  0.1340 -0.2170 -0.1649
  701MOL0     H92494   1.391  10.965   8.657 -0.0294 -2.0406  1.1672
  701MOL0     H92495   1.199  10.909   8.790 -0.0391 -3.6998  0.6993
  701MOL0     H92496   0.787  10.617   8.899  1.2208  0.2838 -0.2730
  701MOL0     H92497   0.552  10.586   8.977  1.1253 -1.0806 -0.0545
  701MOL0     H92498   0.203  10.655   8.711 -0.6291  0.3303 -0.2166
  701MOL0     H92499   0.220  10.811   8.794  0.0903 -0.1694  0.1750
  701MOL0     H92500   0.139  10.722   8.998 -1.5763  0.9874  0.0528
  701MOL0     H92501   0.086  10.564   8.923 -3.3627  0.2827 -1.1063
  701MOL0     H92502  -0.014  10.839   8.853  0.6119  0.3501  0.3786
  701MOL0     H92503  -0.095  10.727   8.955 -0.0198  0.2852 -0.3715
  701MOL0     H92504  -0.063  10.695   8.653  2.6636  0.7799  2.3887
  701MOL0     H92505  -0.070  10.560   8.765  7.5055  1.1943 -0.0279
  701MOL0     H92506  -0.265  10.775   8.829 -0.5746  0.4233  0.5525
  701MOL0     H92507  -0.279  10.596   8.843  0.2518 -0.3120 -0.3964
  701MOL0     H92508  -0.351  10.568   8.619 -0.6528  1.0055 -2.6599
  701MOL0     H92509  -0.290  10.726   8.578  0.8998 -0.8842  0.9027
  701MOL0     H92510  -0.531  10.676   8.769  0.8572  0.3490  2.4365
  701MOL0     H92511  -0.465  10.833   8.730 -0.2565 -0.6966  0.7986
  701MOL0     H92512  -0.584  10.653   8.511 -2.7327  2.0864 -2.8499
  701MOL0     H92513  -0.509  10.808   8.482 -2.8669  0.6350 -1.1316
  701MOL0     H92514   0.389  10.755   8.626  0.0524  0.3571  0.1605
  701MOL0     H92515   0.628  10.790   8.529  0.5917 -1.3411 -0.9465
  701MOL0     H92516   1.011  10.762   8.433  2.7270 -0.4981 -0.9937
  701MOL0     H92517   1.211  10.786   8.306  2.5872  2.4250 -0.0749
  701MOL0     H92518   3.255  11.040   8.438  1.5932  0.0065  0.7504
  701MOL0     H92519   3.488  11.029   8.407 -0.6038  0.2815  1.1906
  701MOL0     H92520   3.841  11.053   7.962 -0.7637 -1.3047 -0.1016
  701MOL0     H92521   4.086  11.091   7.977 -0.9364  2.0568  0.7420
  701MOL0     H92522   4.307  10.921   8.343  2.3424 -0.4941 -1.0018
  701MOL0     H92523   4.306  11.096   8.354  0.5694  1.8170 -0.7766
  701MOL0     H92524   4.513  10.969   8.365 -0.9832 -2.0459  0.1099
  701MOL0     H92525   4.490  10.903   8.207  0.4973  0.0961  0.9588
  701MOL0     H92526   4.554  11.197   8.268  3.6399  2.1182 -2.4105
  701MOL0     H92527   4.478  11.169   8.117  0.7168  0.4525  0.1139
  701MOL0     H92528   4.668  10.999   8.068  2.1875  0.1057 -0.2263
  701MOL0     H92529   4.708  11.176   8.059  1.2634 -1.7207 -2.2260
  701MOL0     H92530   4.930  10.974   8.374  4.7480  2.7627 -2.2693
  701MOL0     H92531   4.102  10.931   8.370  1.9223  2.9980  0.5407
  701MOL0     H92532   3.863  10.890   8.368  0.7137  3.4122  1.9258
  702MOL0     O92533   7.892  10.179   2.942  0.2358 -1.0995  0.4567
  702MOL0     C92534   7.903  10.234   3.048  0.6420  1.0511  0.8991
  702MOL0     O92535   7.805  10.247   3.137  0.1241  0.2549 -0.2112
  702MOL0     C92536   7.689  10.181   3.101  0.4046 -0.9408  0.3651
  702MOL0     C92537   7.576  10.266   3.082  0.6696  0.0834  0.5561
  702MOL0     C92538   7.456  10.199   3.061 -0.7038  0.3918 -0.3749
  702MOL0     C92539   7.446  10.052   3.058 -0.2640  0.0468  0.6166
  702MOL0     O92540   7.328   9.977   3.030 -0.6203  0.0540 -0.1207
  702MOL0     C92541   7.202  10.026   3.069 -0.3616 -0.4264  0.7533
  702MOL0     C92542   7.088   9.945   3.015 -0.3300  0.4106 -0.8603
  702MOL0     C92543   6.953   9.994   3.076 -0.1470  0.1656  0.0678
  702MOL0     C92544   6.841   9.955   2.989  0.0340 -0.1558 -0.2081
  702MOL0     C92545   6.702   9.983   3.026 -0.3057 -0.1472 -0.3537
  702MOL0     C92546   6.651  10.129   2.998 -0.6118 -0.6356 -0.2373
  702MOL0     C92547   6.507  10.144   3.042  0.1636  0.1131 -0.1028
  702MOL0     C92548   6.409  10.118   2.928 -0.9289  0.3336  0.1742
  702MOL0     N92549   6.324   9.998   2.937  0.7353 -0.2334  0.1884
  702MOL0     C92550   6.255   9.954   3.050 -0.3715  0.8122  0.1515
  702MOL0     C92551   6.163   9.865   2.997  0.7254  0.0042  0.6610
  702MOL0     C92552   6.062   9.782   3.079  0.4837  0.2654 -0.5081
  702MOL0     C92553   5.939   9.864   3.121 -0.2869  0.2680 -0.3591
  702MOL0     C92554   5.959   9.966   3.240 -0.7767 -0.2133 -0.4232
  702MOL0     C92555   5.816  10.029   3.276 -0.2870  0.9599 -0.7324
  702MOL0     O92556   5.753   9.944   3.372  0.2100  0.4816  0.2847
  702MOL0     C92557   5.623   9.969   3.402 -0.0731  0.7235  0.4763
  702MOL0     C92558   5.563   9.886   3.496  0.3997 -0.1100  0.2156
  702MOL0     C92559   5.430   9.902   3.537  0.6352 -0.1450 -0.8671
  702MOL0     C92560   5.348  10.006   3.481  0.1564 -0.1020 -0.1792
  702MOL0     C92561   5.203  10.007   3.513 -0.3281 -0.1970 -0.3808
  702MOL0     O92562   5.168   9.957   3.637  0.0662 -0.6391  0.2354
  702MOL0     C92563   5.031   9.957   3.660 -0.1882 -0.6091  0.5863
  702MOL0     C92564   4.965  10.075   3.704 -0.0856 -0.5245 -0.6873
  702MOL0     C92565   4.821  10.076   3.716  0.4471  0.7575 -0.1788
  702MOL0     C92566   4.741   9.965   3.683 -0.3133  0.0339  0.5119
  702MOL0     O92567   4.602   9.965   3.684  0.3212 -0.6868  0.2536
  702MOL0     C92568   4.544  10.060   3.592  0.6504  0.1213  0.0311
  702MOL0     C92569   4.411   9.991   3.546 -0.0047 -0.1009  0.1463
  702MOL0     C92570   4.438   9.888   3.434 -0.5079  0.3950 -0.6596
  702MOL0     C92571   4.297   9.813   3.399  0.5894 -1.1426  0.5549
  702MOL0     C92572   4.283   9.741   3.264 -0.8164  0.0286 -0.8748
  702MOL0     C92573   4.404   9.647   3.241  0.2718 -0.0303 -0.0862
  702MOL0     C92574   4.385   9.570   3.116  0.0038 -0.5966 -0.4193
  702MOL0     C92575   4.479   9.451   3.107  0.1997  0.0077  1.3760
  702MOL0    Cl92576   4.438   9.364   2.955 -0.2714  0.2477 -0.4339
  702MOL0     C92577   4.807   9.850   3.649 -0.4355 -0.1081  0.0152
  702MOL0     C92578   4.946   9.849   3.632 -0.2090  0.8235 -0.1303
  702MOL0     O92579   5.119  10.040   3.421  0.2259  0.3870  0.2293
  702MOL0     C92580   5.413  10.090   3.389 -0.3749  0.7649  0.5978
  702MOL0     C92581   5.549  10.071   3.348 -1.1056  0.0619 -0.4239
  702MOL0     N92582   6.168   9.872   2.859 -0.2326  0.1740 -0.1444
  702MOL0     N92583   6.273   9.942   2.830 -0.3784  0.3946  0.2984
  702MOL0     C92584   7.557   9.974   3.091  0.0089 -0.1251 -0.0589
  702MOL0     C92585   7.680  10.043   3.108  0.3609 -0.1776 -0.1635
  702MOL0     C92586   8.037  10.266   3.083 -0.5214  0.0933  0.3710
  702MOL0     C92587   8.121  10.347   3.009  0.3812 -0.7986 -0.7537
  702MOL0     C92588   8.256  10.367   3.043 -0.1399 -0.5664 -0.6793
  702MOL0     C92589   8.312  10.308   3.154 -0.1387  0.9295 -0.1624
  702MOL0     O92590   8.447  10.325   3.189  0.0075  0.5507 -0.2593
  702MOL0     C92591   8.544  10.363   3.095  0.7073  0.2177  0.1993
  702MOL0     C92592   8.681  10.405   3.159 -0.0841  0.3349  0.1805
  702MOL0     C92593   8.733  10.323   3.282  0.2590  0.3857  0.0163
  702MOL0     C92594   8.840  10.389   3.356 -0.5193 -0.6770  0.4096
  702MOL0     C92595   8.966  10.374   3.278  0.7463  0.3268  0.0313
  702MOL0     C92596   9.076  10.385   3.229 -0.4662 -0.0141  0.6193
  702MOL0     C92597   8.225  10.239   3.239  0.5168 -0.4648 -0.8619
  702MOL0     C92598   8.092  10.217   3.207  0.0288  0.3377 -0.0840
  702MOL0     H92599   7.585  10.374   3.076 -2.3784  0.3360 -2.1779
  702MOL0     H92600   7.369  10.255   3.029 -1.7333 -1.0438 -0.2274
  702MOL0     H92601   7.190  10.126   3.026 -0.3346 -0.6446  0.2284
  702MOL0     H92602   7.202  10.038   3.177 -0.2225  0.0365  0.7023
  702MOL0     H92603   7.110   9.838   3.025 -1.6769  0.3247  3.0335
  702MOL0     H92604   7.090   9.964   2.908 -0.7960  1.7899 -0.6435
  702MOL0     H92605   6.958  10.103   3.087 -0.3089 -0.0097  2.4530
  702MOL0     H92606   6.934   9.954   3.176  0.2789 -2.1835 -0.7240
  702MOL0     H92607   6.867   9.982   2.886  2.4819 -3.3287 -0.5710
  702MOL0     H92608   6.851   9.846   2.992 -0.9726 -0.2590  3.1230
  702MOL0     H92609   6.698   9.948   3.130  1.2459 -1.3654 -0.6660
  702MOL0     H92610   6.649   9.916   2.958 -0.3037 -2.9343  2.1702
  702MOL0     H92611   6.663  10.144   2.890 -1.3168  0.1131 -0.2232
  702MOL0     H92612   6.710  10.197   3.060 -2.0115 -0.6899  1.2226
  702MOL0     H92613   6.484  10.098   3.139 -1.5781  2.8647  0.9000
  702MOL0     H92614   6.495  10.250   3.067  0.3430 -0.2273  1.5163
  702MOL0     H92615   6.460  10.120   2.831 -0.0529  0.3896  0.6276
  702MOL0     H92616   6.338  10.201   2.936 -3.5206 -1.4563 -2.2943
  702MOL0     H92617   6.273   9.972   3.156 -2.3164  1.3057  0.4441
  702MOL0     H92618   6.112   9.735   3.165  1.9516  1.3975 -0.6999
  702MOL0     H92619   6.033   9.700   3.012  1.9387  0.4310 -1.3770
  702MOL0     H92620   5.860   9.795   3.150  0.8643 -1.1650 -0.5644
  702MOL0     H92621   5.897   9.918   3.035 -1.4789 -0.1056 -0.0219
  702MOL0     H92622   6.000   9.914   3.327 -1.2002 -0.6022 -0.4535
  702MOL0     H92623   6.021  10.054   3.218 -1.1318 -0.5291 -3.0709
  702MOL0     H92624   5.755  10.031   3.185 -0.3084  2.1588 -0.7007
  702MOL0     H92625   5.825  10.127   3.323 -1.8283 -0.0610  1.9455
  702MOL0     H92626   5.619   9.804   3.541 -0.9266 -0.2295  1.7173
  702MOL0     H92627   5.381   9.821   3.590  0.7933  0.8836  0.9188
  702MOL0     H92628   5.015  10.167   3.732  0.7748 -0.3254 -2.7124
  702MOL0     H92629   4.763  10.158   3.756  0.3758 -0.2492  1.8980
  702MOL0     H92630   4.609  10.072   3.505 -2.3269 -0.0123 -2.3747
  702MOL0     H92631   4.532  10.155   3.646 -1.1578 -0.0654  0.0400
  702MOL0     H92632   4.362  10.080   3.503  3.7645  0.9854 -2.3345
  702MOL0     H92633   4.348   9.943   3.621 -0.1179  0.5188  0.4564
  702MOL0     H92634   4.509   9.814   3.470  0.0640  1.7955  1.2265
  702MOL0     H92635   4.486   9.942   3.352  0.5488 -0.6808 -0.7709
  702MOL0     H92636   4.271   9.747   3.482 -0.4431 -1.4420  0.0183
  702MOL0     H92637   4.219   9.890   3.404  0.3686 -1.4262  1.6414
  702MOL0     H92638   4.268   9.813   3.183 -0.0176  0.9307 -0.2490
  702MOL0     H92639   4.191   9.682   3.267  0.4626 -2.0669 -0.7129
  702MOL0     H92640   4.423   9.581   3.326  1.3380 -0.3943 -0.5879
  702MOL0     H92641   4.497   9.703   3.224  1.4838 -1.3491  1.8001
  702MOL0     H92642   4.285   9.526   3.108 -1.2364  1.5956  1.7309
  702MOL0     H92643   4.402   9.637   3.031  1.0614 -2.5876 -1.8460
  702MOL0     H92644   4.463   9.393   3.198  2.3915  1.9962  3.1687
  702MOL0     H92645   4.585   9.477   3.107  0.6177 -1.2699 -1.6231
  702MOL0     H92646   4.743   9.765   3.624 -2.2481  1.0024  0.6670
  702MOL0     H92647   5.003   9.762   3.601 -0.8095  0.8817 -1.4935
  702MOL0     H92648   5.367  10.166   3.326 -1.3012 -1.0066 -0.9676
  702MOL0     H92649   5.583  10.143   3.274  0.1565 -0.9276 -0.8532
  702MOL0     H92650   7.549   9.866   3.101  0.7346 -0.1646  0.1910
  702MOL0     H92651   7.769   9.984   3.127  0.7221 -0.1097 -1.5085
  702MOL0     H92652   8.079  10.384   2.916  2.3106  0.4211 -1.2053
  702MOL0     H92653   8.304  10.425   2.964 -0.4970 -3.7874 -3.5328
  702MOL0     H92654   8.502  10.449   3.042 -0.6632  0.7453  2.0481
  702MOL0     H92655   8.561  10.284   3.022  1.6677 -0.6659  1.3352
  702MOL0     H92656   8.755  10.397   3.079 -2.4937 -1.7857 -2.0627
  702MOL0     H92657   8.661  10.505   3.201 -0.9766  1.4206 -2.5649
  702MOL0     H92658   8.764  10.219   3.272  1.0736 -0.1362  5.1018
  702MOL0     H92659   8.651  10.320   3.354  0.0421 -0.3672 -0.2518
  702MOL0     H92660   8.824  10.496   3.367  1.8258 -0.0603 -1.4033
  702MOL0     H92661   8.845  10.339   3.454  0.4559 -1.8437 -0.1978
  702MOL0     H92662   9.175  10.365   3.194 -0.6404 -0.4544  0.3803
  702MOL0     H92663   8.261  10.194   3.331 -1.9237  2.5607  1.8239
  702MOL0     H92664   8.027  10.159   3.272  1.4457 -0.2699  0.8393
  703MOL0     O92665   0.305   8.095   7.927 -0.3745 -0.6259  0.1904
  703MOL0     C92666   0.345   8.155   8.027 -0.0083 -0.0626  0.1905
  703MOL0     O92667   0.261   8.237   8.115 -0.2287 -0.2947 -0.4746
  703MOL0     C92668   0.129   8.263   8.079  0.4254 -0.4318 -0.1371
  703MOL0     C92669   0.102   8.314   7.950 -0.0194 -0.5329  0.0110
  703MOL0     C92670  -0.025   8.350   7.901  1.0500  0.4887  0.4898
  703MOL0     C92671  -0.136   8.328   7.985  0.0253 -0.0330  0.0343
  703MOL0     O92672  -0.267   8.358   7.958  0.1959  0.2307 -0.0129
  703MOL0     C92673  -0.312   8.363   7.829 -0.7504 -0.2703 -0.7224
  703MOL0     C92674  -0.460   8.389   7.819 -0.3791 -0.4448 -0.3313
  703MOL0     C92675  -0.510   8.380   7.676 -0.1598 -0.3198  0.5952
  703MOL0     C92676  -0.649   8.448   7.677 -0.3566  1.1732 -0.0007
  703MOL0     C92677  -0.693   8.481   7.539  0.1119 -0.4118 -0.3931
  703MOL0     C92678  -0.831   8.557   7.538 -0.3760 -0.8081 -0.0806
  703MOL0     C92679  -0.943   8.491   7.620 -0.0216 -0.1041  0.0457
  703MOL0     C92680  -1.048   8.600   7.658  0.8845  0.3729 -0.6383
  703MOL0     N92681  -1.171   8.523   7.667 -0.9616 -0.3668 -0.4289
  703MOL0     C92682  -1.211   8.441   7.774 -0.4819 -0.6653  0.6526
  703MOL0     C92683  -1.322   8.389   7.718  0.6236 -0.0511  0.2120
  703MOL0     C92684  -1.415   8.305   7.795 -0.3075 -0.5923 -0.3333
  703MOL0     C92685  -1.355   8.168   7.826  0.0094 -0.0670 -0.6704
  703MOL0     C92686  -1.330   8.090   7.693  0.3561  1.0722  0.3229
  703MOL0     C92687  -1.258   7.951   7.716 -0.2402 -0.3873  0.1613
  703MOL0     O92688  -1.137   7.980   7.783 -0.6287  0.0459 -0.3611
  703MOL0     C92689  -1.013   7.982   7.714  0.5657  0.1911 -0.0090
  703MOL0     C92690  -0.932   7.871   7.707 -0.7920 -0.1852 -0.0707
  703MOL0     C92691  -0.799   7.879   7.653  0.2962  0.6762  0.4657
  703MOL0     C92692  -0.754   7.998   7.595 -0.3800 -0.5260  0.3714
  703MOL0     C92693  -0.615   8.011   7.538  0.1987 -0.2135  0.1416
  703MOL0     O92694  -0.534   7.925   7.587  0.2187 -0.0713  0.8530
  703MOL0     C92695  -0.402   7.922   7.545  0.1406 -0.3144  0.4429
  703MOL0     C92696  -0.312   7.861   7.633  0.2250  0.6440  0.0572
  703MOL0     C92697  -0.180   7.839   7.594 -0.4124 -0.6220 -0.5265
  703MOL0     C92698  -0.124   7.891   7.476  0.8916  0.3448 -0.7327
  703MOL0     O92699   0.005   7.868   7.439  0.7307 -0.5624 -0.3595
  703MOL0     C92700   0.092   7.822   7.541  0.1442  0.5212  0.0025
  703MOL0     C92701   0.223   7.805   7.467 -0.8027 -0.4475  0.1950
  703MOL0     C92702   0.341   7.769   7.566  0.0838 -0.0754  0.0725
  703MOL0     C92703   0.479   7.755   7.503  0.2284 -0.7597  0.2767
  703MOL0     C92704   0.569   7.684   7.594 -0.0683 -0.0689 -0.7036
  703MOL0     C92705   0.704   7.671   7.533 -0.6413  0.2380  0.2630
  703MOL0     C92706   0.799   7.646   7.650 -0.4411 -0.4369  0.3716
  703MOL0     C92707   0.936   7.600   7.590 -0.0626 -0.6442  0.2604
  703MOL0    Cl92708   1.039   7.540   7.723 -0.5956 -0.2322 -0.2922
  703MOL0     C92709  -0.211   7.951   7.382  0.6344 -0.4078 -0.6124
  703MOL0     C92710  -0.351   7.954   7.415  0.6126 -0.0789 -0.3189
  703MOL0     O92711  -0.595   8.091   7.450  0.2862  0.1383 -0.5804
  703MOL0     C92712  -0.847   8.106   7.583  0.0263 -0.3370  0.0173
  703MOL0     C92713  -0.970   8.101   7.654  0.2249  0.6744 -0.2074
  703MOL0     N92714  -1.337   8.415   7.587  0.4144 -0.0341  0.2683
  703MOL0     N92715  -1.248   8.500   7.556 -0.1169  0.5928  0.4163
  703MOL0     C92716  -0.117   8.273   8.116 -0.5834  0.5699  0.1925
  703MOL0     C92717   0.017   8.238   8.156 -0.2410  1.0906 -0.4834
  703MOL0     C92718   0.494   8.151   8.053  0.3392 -0.6824  0.4749
  703MOL0     C92719   0.543   8.252   8.138 -0.9270 -0.1371 -0.5528
  703MOL0     C92720   0.684   8.254   8.172  0.2893  0.0655  0.3104
  703MOL0     C92721   0.770   8.157   8.110 -0.2827 -0.8529 -0.8896
  703MOL0     O92722   0.906   8.159   8.120  0.0908  0.6836 -0.2581
  703MOL0     C92723   0.963   8.255   8.205  0.0019 -0.6638  0.0817
  703MOL0     C92724   1.118   8.243   8.181  0.0057 -0.0318  0.4206
  703MOL0     C92725   1.192   8.320   8.295 -0.4595  0.6115  1.0781
  703MOL0     C92726   1.346   8.338   8.258 -0.2434 -0.1911  0.5430
  703MOL0     C92727   1.438   8.381   8.359 -0.0821 -0.0115 -0.0507
  703MOL0     C92728   1.521   8.435   8.423  0.3735  0.8482  0.1245
  703MOL0     C92729   0.717   8.060   8.028 -0.3550 -0.8138  0.4710
  703MOL0     C92730   0.580   8.050   8.004 -0.0472 -0.4640 -0.5784
  703MOL0     H92731   0.192   8.328   7.892 -0.1830 -1.4688 -0.4827
  703MOL0     H92732  -0.043   8.400   7.806  1.2307  0.0914  0.2426
  703MOL0     H92733  -0.296   8.272   7.771 -0.8393  0.2298 -1.5482
  703MOL0     H92734  -0.269   8.448   7.776 -0.8498 -0.5439 -1.2512
  703MOL0     H92735  -0.485   8.484   7.867  0.4609 -1.1550  1.5859
  703MOL0     H92736  -0.509   8.308   7.874  0.1554 -0.0019  0.8115
  703MOL0     H92737  -0.527   8.278   7.642  0.4951 -0.0947 -0.4272
  703MOL0     H92738  -0.436   8.432   7.615 -0.1561  2.5379  2.7800
  703MOL0     H92739  -0.718   8.379   7.726 -0.2978 -0.6802 -2.3919
  703MOL0     H92740  -0.634   8.537   7.740  0.7366 -1.0158  3.0496
  703MOL0     H92741  -0.701   8.386   7.485 -0.8392 -1.0226  0.7903
  703MOL0     H92742  -0.618   8.549   7.496 -0.2164 -0.7801 -1.5891
  703MOL0     H92743  -0.852   8.572   7.432 -0.1159  2.3299  0.2097
  703MOL0     H92744  -0.816   8.659   7.575 -0.8528 -1.1650  1.1266
  703MOL0     H92745  -0.979   8.399   7.573  0.9719  1.0060 -3.1122
  703MOL0     H92746  -0.897   8.468   7.717  1.2479  2.4993  0.1347
  703MOL0     H92747  -1.047   8.663   7.569  1.1453  1.1170 -0.1129
  703MOL0     H92748  -1.023   8.665   7.743 -1.1414 -0.5174  0.7376
  703MOL0     H92749  -1.176   8.443   7.877  0.9665  2.0106  0.2003
  703MOL0     H92750  -1.505   8.288   7.735  0.5725 -2.3827 -1.2297
  703MOL0     H92751  -1.440   8.361   7.885 -0.4784 -0.7790 -0.2642
  703MOL0     H92752  -1.423   8.111   7.891 -0.4063 -0.6231 -1.5739
  703MOL0     H92753  -1.261   8.171   7.883 -1.5250  0.4971  2.0096
  703MOL0     H92754  -1.426   8.089   7.640 -0.2089  1.0372  1.3229
  703MOL0     H92755  -1.260   8.148   7.631  1.3383  0.7766  1.1315
  703MOL0     H92756  -1.257   7.908   7.616 -0.0392 -0.1915  0.0782
  703MOL0     H92757  -1.316   7.889   7.785 -1.4239  1.3509  0.8344
  703MOL0     H92758  -0.967   7.781   7.757 -0.7727  1.0225  2.2972
  703MOL0     H92759  -0.739   7.790   7.667  4.0875  2.9768  0.0875
  703MOL0     H92760  -0.340   7.796   7.715  0.9669 -0.1269 -0.2833
  703MOL0     H92761  -0.120   7.782   7.665 -2.3088 -3.0210 -0.7199
  703MOL0     H92762   0.055   7.724   7.574  2.6002  0.0974  1.7544
  703MOL0     H92763   0.099   7.890   7.626  2.2887  1.5501 -0.9248
  703MOL0     H92764   0.251   7.899   7.419 -3.1008  0.8051  1.1529
  703MOL0     H92765   0.222   7.722   7.396  2.0156 -0.8608  0.5151
  703MOL0     H92766   0.301   7.683   7.620  1.7442  0.0809  1.6236
  703MOL0     H92767   0.339   7.846   7.644 -1.3867 -1.2789  1.2906
  703MOL0     H92768   0.470   7.690   7.415 -2.0936 -0.9733  0.5921
  703MOL0     H92769   0.514   7.854   7.474 -1.2835 -0.9073 -2.4149
  703MOL0     H92770   0.534   7.583   7.617  1.5375  0.0010  2.6192
  703MOL0     H92771   0.571   7.739   7.688 -0.9358  0.9447 -1.2572
  703MOL0     H92772   0.730   7.772   7.501 -0.3943 -0.5506 -2.1592
  703MOL0     H92773   0.725   7.599   7.454  2.9973  0.9746  0.4238
  703MOL0     H92774   0.812   7.733   7.716 -2.1073 -0.7495  1.1864
  703MOL0     H92775   0.760   7.579   7.727  3.1472  0.8463  3.6066
  703MOL0     H92776   0.992   7.671   7.528  0.9948 -2.4844 -1.0097
  703MOL0     H92777   0.914   7.515   7.524 -0.4519  0.0856 -0.5711
  703MOL0     H92778  -0.169   7.990   7.289  1.4845  0.0028 -0.0754
  703MOL0     H92779  -0.409   7.983   7.328  0.2460 -0.8106 -0.3250
  703MOL0     H92780  -0.824   8.194   7.523 -5.2957 -0.1728 -2.3503
  703MOL0     H92781  -1.026   8.194   7.649 -1.0205 -0.1024 -3.7418
  703MOL0     H92782  -0.207   8.267   8.177 -1.3806  1.1291 -0.8959
  703MOL0     H92783   0.033   8.210   8.259  1.8268  2.0452 -0.4913
  703MOL0     H92784   0.478   8.333   8.169  1.6182  2.1851 -0.8269
  703MOL0     H92785   0.720   8.342   8.225  0.7150  0.2112 -0.2077
  703MOL0     H92786   0.943   8.229   8.310  1.0267 -0.2493  0.3847
  703MOL0     H92787   0.916   8.354   8.194  0.4922 -0.4424 -0.0389
  703MOL0     H92788   1.154   8.140   8.189 -3.3675 -1.2809  0.8660
  703MOL0     H92789   1.146   8.287   8.085 -1.0911 -1.6634 -0.6977
  703MOL0     H92790   1.185   8.277   8.395  0.2415  0.7447  1.1841
  703MOL0     H92791   1.157   8.423   8.305  0.9401  1.1643  0.5093
  703MOL0     H92792   1.382   8.240   8.224 -0.9721 -0.0525 -0.6907
  703MOL0     H92793   1.359   8.406   8.173 -0.6196  1.4237  1.7391
  703MOL0     H92794   1.607   8.486   8.462  3.3472 -2.3136 -1.6896
  703MOL0     H92795   0.781   7.976   8.002  2.4480  1.1495  0.5177
  703MOL0     H92796   0.532   7.971   7.949 -1.1502 -0.3754  0.2395
  704MOL0     O92797   3.754   1.372   6.129  0.2211 -0.3503 -0.6743
  704MOL0     C92798   3.821   1.443   6.214  0.3766  0.6681  0.9598
  704MOL0     O92799   3.764   1.506   6.324 -0.3476 -0.2714  0.3120
  704MOL0     C92800   3.639   1.469   6.355 -0.0640  0.2015  0.5836
  704MOL0     C92801   3.535   1.514   6.280 -0.0799  0.0511 -0.1787
  704MOL0     C92802   3.403   1.463   6.309 -0.4295  1.2556  0.4100
  704MOL0     C92803   3.378   1.391   6.427  0.5637  1.5261  0.1362
  704MOL0     O92804   3.251   1.338   6.436 -0.4488  0.1229 -0.2251
  704MOL0     C92805   3.222   1.304   6.576 -0.1375  0.0261 -0.0180
  704MOL0     C92806   3.072   1.278   6.590 -0.0867  0.2879  0.0138
  704MOL0     C92807   3.053   1.222   6.724  1.1111  0.5458  0.1631
  704MOL0     C92808   2.903   1.233   6.765 -0.5811  0.5808 -0.5859
  704MOL0     C92809   2.813   1.164   6.667 -0.1630 -0.2217  0.9140
  704MOL0     C92810   2.677   1.137   6.736  0.1420  0.2198 -0.3268
  704MOL0     C92811   2.574   1.070   6.634  0.4383  1.0569  0.3050
  704MOL0     C92812   2.451   1.024   6.706 -0.5747  0.7561  0.6641
  704MOL0     N92813   2.369   1.127   6.766  1.1450 -0.3241  0.3627
  704MOL0     C92814   2.242   1.162   6.716  0.1124 -0.3618  0.5380
  704MOL0     C92815   2.180   1.220   6.818 -0.3083  0.1041  0.7224
  704MOL0     C92816   2.032   1.260   6.828  0.3260 -0.2379 -0.1465
  704MOL0     C92817   1.987   1.274   6.978  0.2393  0.3001 -0.4266
  704MOL0     C92818   1.829   1.271   6.998 -0.1269 -0.1073  0.1870
  704MOL0     C92819   1.765   1.408   6.986 -1.3805  0.4724 -0.1345
  704MOL0     O92820   1.624   1.407   7.012  0.2590 -0.3782 -0.1528
  704MOL0     C92821   1.546   1.520   6.980  0.1037  0.5407  0.6315
  704MOL0     C92822   1.590   1.621   6.894 -0.1176 -0.1872  0.1520
  704MOL0     C92823   1.509   1.732   6.864  0.8727 -0.5364 -0.6436
  704MOL0     C92824   1.378   1.739   6.919 -0.1408  0.5809  0.1986
  704MOL0     C92825   1.294   1.851   6.902 -0.6779  0.1714 -1.2514
  704MOL0     O92826   1.173   1.837   6.958 -0.0777  0.2983 -0.6295
  704MOL0     C92827   1.071   1.932   6.945 -0.1360 -0.3226  1.1375
  704MOL0     C92828   0.983   1.927   7.042  1.2352 -0.1438  0.1697
  704MOL0     C92829   0.872   2.021   7.044 -0.0607 -0.4387 -0.3510
  704MOL0     C92830   0.857   2.118   6.946  0.8469 -0.3155 -0.4235
  704MOL0     O92831   0.762   2.217   6.978  0.0543 -0.3953 -0.4817
  704MOL0     C92832   0.775   2.338   6.913  0.0033 -0.7420 -0.2045
  704MOL0     C92833   0.632   2.391   6.871 -0.9047  0.0167 -0.5487
  704MOL0     C92834   0.534   2.403   6.980  0.7090  0.4246 -0.3833
  704MOL0     C92835   0.389   2.411   6.922  0.5074 -0.1560  0.2468
  704MOL0     C92836   0.282   2.465   7.013 -0.2331 -0.3525 -0.9936
  704MOL0     C92837   0.143   2.436   6.954  0.3947  0.1687  0.0892
  704MOL0     C92838   0.041   2.482   7.057 -0.1270  0.5087  0.4557
  704MOL0     C92839  -0.104   2.461   7.024 -0.0293 -0.0056  0.4422
  704MOL0    Cl92840  -0.123   2.540   6.863  0.0820  0.0051 -0.4611
  704MOL0     C92841   0.949   2.108   6.838 -0.4613  0.5522  0.0910
  704MOL0     C92842   1.046   2.020   6.835 -0.3307 -0.0461 -0.5105
  704MOL0     O92843   1.328   1.942   6.831 -0.4912  0.1704 -0.6466
  704MOL0     C92844   1.332   1.630   7.000 -0.4088 -0.4875  0.0074
  704MOL0     C92845   1.416   1.525   7.030 -0.2783  0.3559  0.2998
  704MOL0     N92846   2.270   1.219   6.928 -0.2841  0.2176  0.4524
  704MOL0     N92847   2.378   1.173   6.893 -0.0321 -0.1623  0.0229
  704MOL0     C92848   3.482   1.370   6.515 -0.1806  0.6424 -0.1631
  704MOL0     C92849   3.616   1.392   6.468 -0.2409 -0.1364 -0.0209
  704MOL0     C92850   3.966   1.462   6.199  0.5786  0.1029  0.4541
  704MOL0     C92851   4.036   1.542   6.298  0.9334  0.3487  0.2034
  704MOL0     C92852   4.176   1.567   6.288 -0.4082  0.4582 -0.2211
  704MOL0     C92853   4.249   1.510   6.188  0.1537  0.0388  0.2315
  704MOL0     O92854   4.385   1.525   6.190 -0.4865 -0.1261  0.2310
  704MOL0     C92855   4.457   1.545   6.067  0.3986 -0.2907  0.4247
  704MOL0     C92856   4.582   1.624   6.110  1.4631  0.4294 -0.1572
  704MOL0     C92857   4.670   1.550   6.203 -0.7490 -0.0229 -0.6329
  704MOL0     C92858   4.709   1.410   6.162  0.2720 -0.2028 -0.7349
  704MOL0     C92859   4.789   1.413   6.041  0.6264  0.3041  0.1139
  704MOL0     C92860   4.859   1.406   5.940 -0.1015  0.8010 -0.0703
  704MOL0     C92861   4.177   1.436   6.088 -0.0573 -0.3156  0.0898
  704MOL0     C92862   4.038   1.404   6.091  0.6213  0.4140 -0.8630
  704MOL0     H92863   3.561   1.572   6.192  2.8188 -2.0738 -0.8842
  704MOL0     H92864   3.309   1.466   6.255 -1.5326 -0.4211  2.0956
  704MOL0     H92865   3.255   1.383   6.644  1.2975 -1.4614  1.0608
  704MOL0     H92866   3.277   1.212   6.598  0.5125  0.3647 -0.1995
  704MOL0     H92867   3.031   1.210   6.515  0.3152  0.5341 -0.4439
  704MOL0     H92868   3.018   1.373   6.588 -1.0655 -0.2010  1.7052
  704MOL0     H92869   3.108   1.280   6.799  0.3203  4.1547 -1.7946
  704MOL0     H92870   3.100   1.123   6.718  2.3385  1.0441  1.0465
  704MOL0     H92871   2.894   1.194   6.867  0.8633 -0.5431 -0.8571
  704MOL0     H92872   2.874   1.339   6.773 -1.7098  0.3395 -1.2520
  704MOL0     H92873   2.859   1.069   6.638 -2.3553 -1.7319  2.0165
  704MOL0     H92874   2.800   1.240   6.590 -3.0416 -1.4666  0.0246
  704MOL0     H92875   2.642   1.231   6.779  2.6247 -0.0339  2.5971
  704MOL0     H92876   2.686   1.063   6.816 -0.8341 -1.4600 -1.6975
  704MOL0     H92877   2.544   1.139   6.555  1.4593 -0.5304 -1.5469
  704MOL0     H92878   2.629   0.987   6.588 -1.2880  0.8408 -1.4793
  704MOL0     H92879   2.480   0.950   6.781 -1.1034 -0.5911 -0.4081
  704MOL0     H92880   2.391   0.981   6.625 -0.6512  1.7630  0.1737
  704MOL0     H92881   2.223   1.155   6.610  1.4096  1.3070  0.1454
  704MOL0     H92882   1.966   1.188   6.778 -0.0309  1.3008 -2.0271
  704MOL0     H92883   2.029   1.351   6.767 -1.6012 -0.4938 -0.4783
  704MOL0     H92884   2.027   1.367   7.019 -1.7133  0.1880  1.9636
  704MOL0     H92885   2.029   1.192   7.036 -0.4582 -0.3038 -0.7530
  704MOL0     H92886   1.781   1.201   6.930 -1.8927  0.5217  0.7470
  704MOL0     H92887   1.805   1.242   7.101 -0.6854 -1.0759 -0.2006
  704MOL0     H92888   1.780   1.439   6.883  1.6335  0.0665  0.1112
  704MOL0     H92889   1.819   1.477   7.051  0.6833 -1.2952  0.1355
  704MOL0     H92890   1.680   1.609   6.834 -0.8345 -0.8642 -0.8193
  704MOL0     H92891   1.547   1.809   6.798 -2.4853  0.1580 -1.9682
  704MOL0     H92892   0.976   1.861   7.128  1.5635  3.0009  2.8086
  704MOL0     H92893   0.797   2.016   7.122  0.2006  0.4987 -0.0230
  704MOL0     H92894   0.837   2.330   6.824 -1.7589  0.4846 -1.6195
  704MOL0     H92895   0.821   2.411   6.981 -1.2757 -1.3010  1.3314
  704MOL0     H92896   0.607   2.312   6.799 -1.6566 -2.6141  2.3728
  704MOL0     H92897   0.650   2.483   6.815  0.4536 -1.1800 -2.2227
  704MOL0     H92898   0.553   2.492   7.040 -1.1325 -0.2969  1.3611
  704MOL0     H92899   0.536   2.323   7.054 -0.2880  0.9917  0.2916
  704MOL0     H92900   0.390   2.472   6.830 -2.8983 -1.7885 -1.0683
  704MOL0     H92901   0.362   2.309   6.891  1.6026 -0.5939  0.7017
  704MOL0     H92902   0.297   2.572   7.033 -2.2196 -0.4947  1.7422
  704MOL0     H92903   0.291   2.412   7.108 -0.2496 -0.2161 -0.9159
  704MOL0     H92904   0.135   2.328   6.935  1.4469 -0.2177  1.6206
  704MOL0     H92905   0.128   2.485   6.857  1.0863  0.0429 -0.0868
  704MOL0     H92906   0.060   2.435   7.154  0.2156  1.3993  0.8219
  704MOL0     H92907   0.054   2.590   7.057  0.1297  0.4887 -0.4746
  704MOL0     H92908  -0.169   2.501   7.103  1.1444  1.2146  0.8283
  704MOL0     H92909  -0.122   2.354   7.014  2.8357 -0.3716 -1.9796
  704MOL0     H92910   0.946   2.182   6.759  1.3357 -0.6470 -1.1573
  704MOL0     H92911   1.120   2.029   6.755  2.3495  0.7389  1.8799
  704MOL0     H92912   1.230   1.637   7.036 -0.2671 -2.7786  1.0340
  704MOL0     H92913   1.382   1.455   7.106 -0.4614  2.2867  2.1144
  704MOL0     H92914   3.474   1.325   6.613 -3.3143  2.6019  0.6036
  704MOL0     H92915   3.698   1.344   6.519  0.2542  0.1196 -0.5715
  704MOL0     H92916   3.979   1.592   6.374 -1.1211  0.7679 -1.5138
  704MOL0     H92917   4.224   1.634   6.359 -1.6035  1.8464 -0.6774
  704MOL0     H92918   4.388   1.590   5.995  3.1576 -1.3933 -3.2429
  704MOL0     H92919   4.485   1.451   6.018 -0.7919 -0.6569  0.3976
  704MOL0     H92920   4.636   1.656   6.021 -0.3184  2.7248 -0.5200
  704MOL0     H92921   4.542   1.711   6.163 -0.5700 -0.3235 -0.3749
  704MOL0     H92922   4.628   1.549   6.304  1.1720 -0.6122  0.2167
  704MOL0     H92923   4.756   1.614   6.224 -2.1783  1.5516  0.6131
  704MOL0     H92924   4.760   1.357   6.242  2.5007  2.4591 -0.2439
  704MOL0     H92925   4.618   1.351   6.147  1.4904 -2.7788  1.2543
  704MOL0     H92926   4.932   1.403   5.862  2.4935 -0.0939  2.2230
  704MOL0     H92927   4.241   1.398   6.008  0.4154  0.9384 -0.1593
  704MOL0     H92928   3.985   1.348   6.014 -0.7612  2.1266 -1.2248
  705MOL0     O92929   4.778  10.961   6.246 -0.4728 -0.4804 -0.6317
  705MOL0     C92930   4.811  10.848   6.226 -0.3269  0.7448  0.4874
  705MOL0     O92931   4.735  10.738   6.242 -0.3282 -0.1078 -0.7860
  705MOL0     C92932   4.599  10.745   6.254 -0.1277 -0.9680 -0.2767
  705MOL0     C92933   4.532  10.635   6.323  0.3158 -0.3909  0.8965
  705MOL0     C92934   4.398  10.636   6.361  0.4297  0.3126 -0.4605
  705MOL0     C92935   4.327  10.748   6.340  0.3457  0.3298  0.4833
  705MOL0     O92936   4.197  10.753   6.393  0.2992  0.8486 -0.3535
  705MOL0     C92937   4.102  10.717   6.288 -0.2477 -0.7655 -0.0295
  705MOL0     C92938   3.977  10.675   6.374 -1.1731  0.3955  0.0767
  705MOL0     C92939   3.850  10.711   6.317 -0.4136  0.1919 -0.1280
  705MOL0     C92940   3.742  10.666   6.422 -0.4186  0.3476  0.2239
  705MOL0     C92941   3.601  10.632   6.367 -0.7709  0.7439 -1.0665
  705MOL0     C92942   3.523  10.586   6.494  0.1768  0.0214 -0.7836
  705MOL0     C92943   3.366  10.576   6.454 -0.7118 -0.4141  0.7260
  705MOL0     C92944   3.283  10.554   6.585  0.3043  0.0484 -0.8888
  705MOL0     N92945   3.133  10.565   6.570  0.5589  0.1900  0.1723
  705MOL0     C92946   3.056  10.489   6.487  1.2880 -0.1013 -0.9370
  705MOL0     C92947   2.931  10.511   6.523 -0.6046  0.1748 -0.0693
  705MOL0     C92948   2.807  10.460   6.449  0.5615 -0.4817 -0.3854
  705MOL0     C92949   2.752  10.556   6.339  0.5565  0.2000 -0.3977
  705MOL0     C92950   2.612  10.506   6.290 -0.0575 -0.6069 -1.0748
  705MOL0     C92951   2.493  10.539   6.385 -1.3503 -0.8608  0.4712
  705MOL0     O92952   2.378  10.491   6.320 -0.1150  0.0688  0.3539
  705MOL0     C92953   2.252  10.505   6.373  0.3141 -0.3622 -0.7624
  705MOL0     C92954   2.227  10.532   6.510  0.1817  1.0748  0.5093
  705MOL0     C92955   2.102  10.546   6.559  0.2813 -0.0255 -0.6174
  705MOL0     C92956   1.996  10.561   6.469  0.1868  0.2778  0.1924
  705MOL0     C92957   1.866  10.606   6.526  0.3649 -0.3214  0.5426
  705MOL0     O92958   1.772  10.655   6.428  0.3947  0.2519  0.4116
  705MOL0     C92959   1.659  10.729   6.468 -0.0798  0.4463  0.0567
  705MOL0     C92960   1.537  10.715   6.395 -1.0511 -0.1988  0.7749
  705MOL0     C92961   1.432  10.806   6.417 -0.0049 -0.1219 -0.2163
  705MOL0     C92962   1.435  10.891   6.529 -0.5609 -0.0972 -0.2452
  705MOL0     O92963   1.326  10.965   6.574  0.3680 -0.3480  0.1504
  705MOL0     C92964   1.190  10.938   6.529 -0.6151  0.2620  0.2069
  705MOL0     C92965   1.094  11.050   6.570 -0.4711  0.5443  0.1678
  705MOL0     C92966   0.965  11.013   6.500  0.7061  0.2310  1.0783
  705MOL0     C92967   0.866  11.124   6.514  0.6752  0.0378  0.2253
  705MOL0     C92968   0.813  11.118   6.659 -0.1951  0.4691 -0.2876
  705MOL0     C92969   0.736  11.249   6.699  0.3620  0.6732 -0.6612
  705MOL0     C92970   0.663  11.222   6.831  0.7810 -0.0151  0.0980
  705MOL0     C92971   0.588  11.343   6.889  0.0634 -0.2293 -0.5943
  705MOL0    Cl92972   0.496  11.267   7.024 -0.0228  0.0950 -0.2481
  705MOL0     C92973   1.547  10.893   6.618 -0.5686 -0.3284  0.4167
  705MOL0     C92974   1.661  10.816   6.583 -1.4818 -0.5414  0.2572
  705MOL0     O92975   1.850  10.600   6.648  0.6460 -0.1143 -0.3282
  705MOL0     C92976   2.018  10.552   6.330  0.2746 -0.2101 -0.4996
  705MOL0     C92977   2.143  10.505   6.281 -0.7395 -0.6506  0.4023
  705MOL0     N92978   2.934  10.589   6.630  0.0055  0.6004 -0.2226
  705MOL0     N92979   3.056  10.626   6.662  0.6353  0.0972  0.2876
  705MOL0     C92980   4.386  10.858   6.268  0.5899  0.1558  0.2419
  705MOL0     C92981   4.519  10.858   6.220  0.5559 -0.0843 -0.5716
  705MOL0     C92982   4.954  10.816   6.176  0.3546  0.1689  0.0539
  705MOL0     C92983   5.004  10.691   6.191 -0.0673  0.6488 -0.4859
  705MOL0     C92984   5.121  10.659   6.135 -1.2731  0.7622  0.7720
  705MOL0     C92985   5.203  10.751   6.073 -0.0653  0.7500  0.1428
  705MOL0     O92986   5.320  10.715   6.008 -0.0803  0.0164 -0.2584
  705MOL0     C92987   5.417  10.645   6.095  0.3365  0.8695  0.6883
  705MOL0     C92988   5.540  10.603   6.026  0.3986  0.3841 -0.3106
  705MOL0     C92989   5.645  10.557   6.124 -0.4844 -0.5519 -0.1176
  705MOL0     C92990   5.609  10.432   6.201  0.6730 -0.2870 -0.0092
  705MOL0     C92991   5.624  10.306   6.118 -0.6973  0.5237 -0.0428
  705MOL0     C92992   5.636  10.210   6.046 -0.9170 -0.1178  0.0825
  705MOL0     C92993   5.157  10.883   6.070  0.1372  0.2309  0.3451
  705MOL0     C92994   5.029  10.914   6.113 -0.1567  0.8244 -0.4312
  705MOL0     H92995   4.590  10.547   6.348  1.3852 -0.1123 -0.4623
  705MOL0     H92996   4.344  10.554   6.407 -0.1630 -1.0908 -3.4556
  705MOL0     H92997   4.131  10.632   6.226 -0.1248  0.3243 -1.5275
  705MOL0     H92998   4.085  10.804   6.223 -1.3223 -0.4337  0.6708
  705MOL0     H92999   3.996  10.722   6.471 -3.9318 -1.4706  1.6568
  705MOL0     H93000   3.983  10.567   6.392 -0.6585  0.0965 -1.6591
  705MOL0     H93001   3.840  10.661   6.221  1.6493  0.6374 -0.6197
  705MOL0     H93002   3.837  10.819   6.303  0.2863  0.1000 -1.6514
  705MOL0     H93003   3.778  10.575   6.471  0.2190 -0.7637 -2.1682
  705MOL0     H93004   3.743  10.735   6.507  1.4583 -2.6315  2.8213
  705MOL0     H93005   3.611  10.548   6.298 -3.7027 -2.5998  2.1317
  705MOL0     H93006   3.566  10.723   6.318  0.5076  1.9901  0.2030
  705MOL0     H93007   3.542  10.653   6.578 -0.8606  0.2594 -0.7275
  705MOL0     H93008   3.553  10.490   6.538  0.7415 -1.2241 -3.6460
  705MOL0     H93009   3.331  10.675   6.423  0.4508 -0.1819  0.0790
  705MOL0     H93010   3.349  10.508   6.371  2.1780  0.5690 -0.8142
  705MOL0     H93011   3.305  10.627   6.664  1.0675  0.0762 -1.1256
  705MOL0     H93012   3.310  10.458   6.629  0.5750 -0.5141 -2.2236
  705MOL0     H93013   3.101  10.413   6.424  2.4773 -0.0287 -0.1977
  705MOL0     H93014   2.736  10.426   6.525 -0.0433  1.4044 -0.0638
  705MOL0     H93015   2.843  10.374   6.392  0.8149  0.2849 -1.4008
  705MOL0     H93016   2.820  10.558   6.253  0.7246  1.0658 -0.2559
  705MOL0     H93017   2.749  10.662   6.369 -0.4718  0.6136 -1.8267
  705MOL0     H93018   2.591  10.543   6.189  1.4149 -1.2961 -1.6671
  705MOL0     H93019   2.620  10.398   6.279 -1.3014 -0.7237 -0.9818
  705MOL0     H93020   2.490  10.647   6.405 -0.1818 -1.1937  2.7812
  705MOL0     H93021   2.505  10.495   6.485  2.8540 -1.8947 -0.2877
  705MOL0     H93022   2.306  10.522   6.584  0.9392  1.4551 -0.2328
  705MOL0     H93023   2.086  10.561   6.665 -0.4424  2.0697 -0.9762
  705MOL0     H93024   1.530  10.650   6.308 -0.2858  0.0008  0.5605
  705MOL0     H93025   1.348  10.802   6.348  0.8357  1.1691 -1.3799
  705MOL0     H93026   1.158  10.838   6.560 -0.9454 -0.4242 -2.0861
  705MOL0     H93027   1.191  10.939   6.419  0.5670 -1.1449  0.1648
  705MOL0     H93028   1.136  11.142   6.531  2.1206 -1.1737 -1.4076
  705MOL0     H93029   1.077  11.048   6.679 -1.7749  0.0702 -0.0193
  705MOL0     H93030   0.916  10.925   6.544 -0.6466 -0.3153 -1.3345
  705MOL0     H93031   0.982  11.003   6.392 -1.1277 -0.7258  0.8408
  705MOL0     H93032   0.905  11.226   6.505 -0.4234  0.4054 -0.5654
  705MOL0     H93033   0.781  11.114   6.447  0.7692  0.1162  0.0955
  705MOL0     H93034   0.893  11.114   6.733  0.0237  0.8867 -0.4967
  705MOL0     H93035   0.745  11.033   6.665 -0.4661  0.6793 -0.3735
  705MOL0     H93036   0.662  11.272   6.622 -2.7756  0.7201  2.1567
  705MOL0     H93037   0.809  11.327   6.721  1.1862 -0.2912  0.1730
  705MOL0     H93038   0.586  11.148   6.804  0.1567  0.2489  1.1080
  705MOL0     H93039   0.729  11.171   6.902  3.4861  0.7797 -1.6850
  705MOL0     H93040   0.528  11.385   6.808 -1.2313 -0.1559  0.3596
  705MOL0     H93041   0.655  11.421   6.923  0.7487  0.3871 -3.1479
  705MOL0     H93042   1.542  10.961   6.702  3.2900 -0.1975  0.6955
  705MOL0     H93043   1.752  10.840   6.638 -0.9964 -1.5695 -0.0625
  705MOL0     H93044   1.939  10.566   6.257 -0.6993  0.9872  0.7433
  705MOL0     H93045   2.157  10.479   6.177 -0.1423 -0.8785  0.5352
  705MOL0     H93046   4.321  10.940   6.237  0.5828  0.2728  0.5633
  705MOL0     H93047   4.560  10.934   6.155  1.4250 -1.7368 -2.0104
  705MOL0     H93048   4.932  10.623   6.235 -0.5546  1.6374  0.2824
  705MOL0     H93049   5.145  10.554   6.137  0.3034  1.1028  1.2245
  705MOL0     H93050   5.364  10.555   6.129 -1.9222  1.0552 -1.9037
  705MOL0     H93051   5.454  10.709   6.175  2.4106 -2.4177  2.5644
  705MOL0     H93052   5.505  10.533   5.950 -1.7224  1.2812 -0.2185
  705MOL0     H93053   5.581  10.686   5.968  2.2827 -0.3140 -0.0761
  705MOL0     H93054   5.675  10.635   6.195 -0.5281 -2.5619  2.2136
  705MOL0     H93055   5.732  10.537   6.061  1.2633 -0.1777  2.0399
  705MOL0     H93056   5.680  10.430   6.284  0.9595  0.7146 -0.2120
  705MOL0     H93057   5.507  10.440   6.240 -0.2814 -2.2591 -1.8930
  705MOL0     H93058   5.642  10.122   5.986  1.5082  0.0095  0.0484
  705MOL0     H93059   5.222  10.956   6.022  0.1520 -0.6324 -1.0038
  705MOL0     H93060   5.003  11.019   6.123  1.0911  1.0105  1.3567
  706MOL0     O93061  10.169   4.714   2.032 -0.3278  0.5816 -0.3841
  706MOL0     C93062  10.127   4.733   2.148 -0.3505 -0.4107  0.1689
  706MOL0     O93063  10.203   4.709   2.266 -0.9180 -0.0256  0.2848
  706MOL0     C93064  10.336   4.673   2.262  0.0629 -0.7901 -0.5463
  706MOL0     C93065  10.426   4.718   2.164 -0.0112  1.0255 -0.1640
  706MOL0     C93066  10.561   4.674   2.172  0.1460  0.3925  0.3016
  706MOL0     C93067  10.608   4.589   2.278  0.1212  0.2032 -0.6456
  706MOL0     O93068  10.737   4.542   2.274  0.4236  0.4991 -0.8935
  706MOL0     C93069  10.844   4.630   2.262  0.2461  0.1077  0.7692
  706MOL0     C93070  10.867   4.694   2.402  0.3750  0.3449  0.5742
  706MOL0     C93071  11.000   4.768   2.398  0.0367 -0.2900 -0.0117
  706MOL0     C93072  10.999   4.865   2.518  0.2962 -0.0175 -0.6205
  706MOL0     C93073  11.133   4.928   2.538  0.7078  0.2869  0.2094
  706MOL0     C93074  11.112   5.054   2.632  0.2248  1.4461  0.2558
  706MOL0     C93075  11.240   5.125   2.642  0.0556 -0.7506 -0.0162
  706MOL0     C93076  11.333   5.063   2.743  0.4637  0.1275 -0.0243
  706MOL0     N93077  11.481   5.108   2.745  0.0801 -0.2796  1.0402
  706MOL0     C93078  11.522   5.234   2.778  0.0043  0.2175 -0.6599
  706MOL0     C93079  11.659   5.225   2.784  0.6335 -0.0947 -0.4939
  706MOL0     C93080  11.753   5.341   2.814  0.5062 -0.1375  0.4111
  706MOL0     C93081  11.866   5.352   2.710 -0.3790 -0.9258 -1.1289
  706MOL0     C93082  11.842   5.423   2.574 -0.2413 -0.4869 -0.5428
  706MOL0     C93083  11.715   5.376   2.499 -0.0835  0.2831  1.1979
  706MOL0     O93084  11.588   5.424   2.547  0.2534 -0.5532  0.0168
  706MOL0     C93085  11.473   5.388   2.475 -0.5871 -0.2270 -0.1076
  706MOL0     C93086  11.471   5.320   2.361  0.3734  0.2993 -0.1379
  706MOL0     C93087  11.354   5.279   2.301  0.7518  0.0547 -0.8127
  706MOL0     C93088  11.229   5.336   2.343 -0.1028 -0.6278 -0.4975
  706MOL0     C93089  11.101   5.296   2.280  0.1368  0.5015 -1.1327
  706MOL0     O93090  11.101   5.211   2.172 -0.3587  0.0938  0.2656
  706MOL0     C93091  10.978   5.176   2.125  0.1745  0.0331 -0.5736
  706MOL0     C93092  10.920   5.240   2.016 -0.3701 -0.0782  0.0861
  706MOL0     C93093  10.794   5.205   1.969  0.5797 -0.8529 -0.3972
  706MOL0     C93094  10.724   5.115   2.036  0.4302  0.2705 -0.8306
  706MOL0     O93095  10.604   5.105   1.982 -0.1160 -0.3151  0.2762
  706MOL0     C93096  10.488   5.053   2.060 -0.4549  0.1656 -0.0686
  706MOL0     C93097  10.376   5.018   1.956  0.1661 -0.4610 -0.0965
  706MOL0     C93098  10.349   5.128   1.853  0.1402  0.8000 -0.4589
  706MOL0     C93099  10.264   5.090   1.737 -0.5008  0.6142  0.3654
  706MOL0     C93100  10.254   5.188   1.621  0.9244 -0.4298 -0.0975
  706MOL0     C93101  10.172   5.309   1.655 -0.0450 -0.8499 -0.1706
  706MOL0     C93102  10.182   5.421   1.552 -0.2299 -0.3804  0.5072
  706MOL0     C93103  10.072   5.523   1.571 -0.0687 -0.8672  0.7602
  706MOL0    Cl93104  10.086   5.629   1.711  0.3784 -0.1630  0.0509
  706MOL0     C93105  10.771   5.047   2.152 -0.0697  0.2381  0.2585
  706MOL0     C93106  10.901   5.078   2.193 -1.4069  0.3818 -0.3726
  706MOL0     O93107  10.998   5.340   2.336 -0.5774 -0.1197  0.0244
  706MOL0     C93108  11.232   5.423   2.456 -0.3331  0.4021 -0.2303
  706MOL0     C93109  11.353   5.450   2.514  0.3910  0.1950  0.1370
  706MOL0     N93110  11.699   5.100   2.747 -0.3824 -0.4869  0.1178
  706MOL0     N93111  11.593   5.034   2.724 -0.3126  0.2555  0.2771
  706MOL0     C93112  10.513   4.540   2.375 -0.1370  0.6525  0.2048
  706MOL0     C93113  10.378   4.584   2.369  0.2964 -0.4126 -0.3607
  706MOL0     C93114   9.984   4.768   2.161 -0.4847 -0.3543  0.2993
  706MOL0     C93115   9.904   4.790   2.040  0.0607  0.6157  0.1750
  706MOL0     C93116   9.773   4.833   2.050 -1.2948  0.1682 -0.0658
  706MOL0     C93117   9.712   4.861   2.175 -0.4170  0.8369  0.5982
  706MOL0     O93118   9.576   4.894   2.172  0.5633 -0.2300 -0.1254
  706MOL0     C93119   9.508   4.944   2.288 -0.0172  0.1101  0.2148
  706MOL0     C93120   9.538   5.096   2.305 -0.4620  0.5040  0.3430
  706MOL0     C93121   9.468   5.174   2.198  0.1283 -0.9674 -0.5371
  706MOL0     C93122   9.460   5.323   2.206 -0.5326 -0.9245  0.1285
  706MOL0     C93123   9.599   5.373   2.202 -0.1325  0.2897  0.2513
  706MOL0     C93124   9.721   5.402   2.198 -0.1400 -0.1038  0.0958
  706MOL0     C93125   9.786   4.837   2.289 -0.7766 -0.1479  0.6669
  706MOL0     C93126   9.923   4.806   2.282 -0.3755  0.1456  1.0832
  706MOL0     H93127  10.390   4.787   2.089  1.5676  1.1783 -0.8141
  706MOL0     H93128  10.629   4.710   2.095  0.8025 -0.0912  0.6477
  706MOL0     H93129  10.841   4.705   2.183  0.9394 -1.6109 -0.9780
  706MOL0     H93130  10.924   4.558   2.242  0.8846  1.4862 -2.0973
  706MOL0     H93131  10.876   4.613   2.475  0.9506 -1.2805 -1.2118
  706MOL0     H93132  10.788   4.760   2.438  1.2361  1.1398  1.0471
  706MOL0     H93133  11.016   4.824   2.306  0.2837  3.9441  2.3689
  706MOL0     H93134  11.077   4.692   2.416 -1.2948 -0.9394  3.7857
  706MOL0     H93135  10.918   4.938   2.507  0.7378  0.5801  0.0196
  706MOL0     H93136  10.975   4.796   2.600 -0.8764 -0.0913 -1.0114
  706MOL0     H93137  11.169   4.963   2.441  1.5129  2.4522  1.2098
  706MOL0     H93138  11.205   4.857   2.580  0.5134 -0.1366 -0.1623
  706MOL0     H93139  11.086   5.016   2.731  0.9934  1.3531  0.4272
  706MOL0     H93140  11.025   5.111   2.599 -0.6301  0.9453  1.5796
  706MOL0     H93141  11.294   5.130   2.547  0.2829 -0.2224  0.1330
  706MOL0     H93142  11.229   5.226   2.684  0.3897 -2.6356  5.2885
  706MOL0     H93143  11.337   4.954   2.730 -2.2325 -0.0844  0.4257
  706MOL0     H93144  11.289   5.079   2.842  0.9842 -0.4327  0.3065
  706MOL0     H93145  11.462   5.318   2.812  0.8452  0.0422  1.3820
  706MOL0     H93146  11.799   5.325   2.913 -1.4483 -1.1923  1.2089
  706MOL0     H93147  11.700   5.437   2.807  2.3541  0.9761  0.7998
  706MOL0     H93148  11.901   5.252   2.684  0.8890 -0.4532 -1.2918
  706MOL0     H93149  11.947   5.408   2.757 -2.5611  2.3658 -0.9300
  706MOL0     H93150  11.824   5.530   2.592  0.4190 -0.6668  1.3562
  706MOL0     H93151  11.923   5.413   2.501 -0.1655 -0.1948 -0.5011
  706MOL0     H93152  11.713   5.266   2.502 -0.3745  0.2565  0.2350
  706MOL0     H93153  11.721   5.401   2.393  0.0015 -2.1491  0.5567
  706MOL0     H93154  11.564   5.284   2.316 -0.1480  0.0633 -1.0562
  706MOL0     H93155  11.350   5.223   2.208  0.2624  0.4149 -1.0103
  706MOL0     H93156  10.973   5.324   1.972  0.3803  1.2797  3.2425
  706MOL0     H93157  10.748   5.260   1.887  1.9109  0.1407 -0.5198
  706MOL0     H93158  10.456   5.136   2.124 -0.9011  0.1026 -0.2025
  706MOL0     H93159  10.512   4.966   2.120  2.2105 -0.3893 -1.7940
  706MOL0     H93160  10.284   4.998   2.011 -0.3708  3.5454  0.7635
  706MOL0     H93161  10.399   4.925   1.904 -1.2807 -1.2371  0.5906
  706MOL0     H93162  10.447   5.157   1.813 -0.0675  2.0044 -0.1262
  706MOL0     H93163  10.296   5.209   1.905 -1.5482 -2.0850  2.7189
  706MOL0     H93164  10.297   4.995   1.693 -0.5747  0.7112  0.0976
  706MOL0     H93165  10.164   5.072   1.777 -1.9170  2.4538 -2.0240
  706MOL0     H93166  10.213   5.146   1.529  0.7889 -0.5440  0.0139
  706MOL0     H93167  10.355   5.222   1.598  0.5706  0.7405 -0.0059
  706MOL0     H93168  10.209   5.350   1.750  0.2074 -3.0188  0.7390
  706MOL0     H93169  10.064   5.287   1.661 -0.3526  0.3746 -1.0450
  706MOL0     H93170  10.283   5.462   1.551 -0.7519  1.0189 -1.2647
  706MOL0     H93171  10.166   5.378   1.452 -0.4216  0.2997  0.2394
  706MOL0     H93172   9.971   5.482   1.576  0.1796 -1.6237 -0.1413
  706MOL0     H93173  10.074   5.586   1.482 -0.0857  0.2838  1.5471
  706MOL0     H93174  10.708   4.985   2.215  0.5880 -0.3428  0.3568
  706MOL0     H93175  10.944   5.035   2.284 -2.6419  0.3092  0.1966
  706MOL0     H93176  11.140   5.470   2.489 -0.2460 -1.7904  3.8487
  706MOL0     H93177  11.371   5.530   2.585 -0.7075  1.0440 -0.5095
  706MOL0     H93178  10.550   4.464   2.442 -0.0344 -0.9777 -1.6104
  706MOL0     H93179  10.301   4.551   2.438 -0.7612 -1.2408 -1.8884
  706MOL0     H93180   9.950   4.780   1.942 -2.5710 -4.4552 -0.8857
  706MOL0     H93181   9.707   4.854   1.966 -1.6661  0.9702  0.4195
  706MOL0     H93182   9.538   4.885   2.375  1.8211  0.6097 -0.0220
  706MOL0     H93183   9.401   4.926   2.279 -0.4467  0.5278  3.3527
  706MOL0     H93184   9.508   5.130   2.405 -0.2961 -0.6718  0.8066
  706MOL0     H93185   9.646   5.114   2.303 -0.0911 -1.5573 -0.4685
  706MOL0     H93186   9.368   5.129   2.200  0.7949 -2.4796  0.7338
  706MOL0     H93187   9.520   5.150   2.104 -0.4648 -2.6906 -0.4753
  706MOL0     H93188   9.399   5.364   2.125 -2.2268 -1.2822  1.1782
  706MOL0     H93189   9.417   5.356   2.301 -0.1271 -2.7284  0.9977
  706MOL0     H93190   9.826   5.420   2.203 -0.4151  1.6025  4.3188
  706MOL0     H93191   9.749   4.864   2.388 -1.2882 -0.0764  0.4591
  706MOL0     H93192   9.975   4.807   2.377  1.1676 -1.8795  0.3292
  707MOL0     O93193   3.157   5.483  10.712  0.3405  1.2584  0.0265
  707MOL0     C93194   3.271   5.426  10.698 -0.4471 -0.6663  0.3139
  707MOL0     O93195   3.298   5.363  10.586  0.4384 -0.0879 -0.1592
  707MOL0     C93196   3.226   5.367  10.474  0.3493  0.4223  0.3946
  707MOL0     C93197   3.226   5.249  10.390  0.5314  0.2564 -0.0330
  707MOL0     C93198   3.161   5.243  10.263 -0.1130  0.1528  0.2472
  707MOL0     C93199   3.084   5.352  10.225 -0.4748  0.1021 -0.3231
  707MOL0     O93200   3.009   5.336  10.112 -0.3424 -0.2832 -0.0514
  707MOL0     C93201   3.085   5.328   9.988  0.0075 -0.6039 -1.4357
  707MOL0     C93202   3.037   5.214   9.888 -0.2765 -0.0085  0.2032
  707MOL0     C93203   2.905   5.244   9.829  0.8737  0.3970  0.1589
  707MOL0     C93204   2.793   5.222   9.923 -0.3476 -0.7686  0.2214
  707MOL0     C93205   2.655   5.228   9.856 -0.3533 -0.4595  0.4576
  707MOL0     C93206   2.621   5.105   9.766 -1.3779 -1.0591  0.1277
  707MOL0     C93207   2.487   5.119   9.709 -0.2957  0.2060 -0.0113
  707MOL0     C93208   2.377   5.102   9.819  0.3014  0.3137  1.0436
  707MOL0     N93209   2.240   5.085   9.762 -0.0700  0.3835 -0.1044
  707MOL0     C93210   2.209   5.074   9.631  0.4729 -0.2930  0.1913
  707MOL0     C93211   2.072   5.072   9.627 -0.4131 -0.3197  0.8695
  707MOL0     C93212   1.988   5.060   9.497  0.2045 -0.8523 -0.1660
  707MOL0     C93213   1.841   5.046   9.538 -0.2583 -0.4581  0.0644
  707MOL0     C93214   1.752   5.008   9.421  0.1718  0.1100 -0.2710
  707MOL0     C93215   1.604   4.994   9.476 -0.6077  0.5778 -0.5365
  707MOL0     O93216   1.607   4.907   9.594  0.1533 -0.3723  0.3832
  707MOL0     C93217   1.488   4.852   9.631  0.1127  0.5478  0.9856
  707MOL0     C93218   1.493   4.751   9.726 -0.4691 -0.0951  0.2248
  707MOL0     C93219   1.378   4.681   9.759 -0.3092  0.2336 -0.6421
  707MOL0     C93220   1.254   4.717   9.708 -0.7756 -0.6644  0.7815
  707MOL0     C93221   1.120   4.654   9.743 -0.4077 -0.3544 -0.2510
  707MOL0     O93222   1.004   4.708   9.690 -0.4714  0.7596  0.1127
  707MOL0     C93223   0.885   4.676   9.748 -0.1661 -0.1769  0.4358
  707MOL0     C93224   0.834   4.766   9.842 -0.5073  0.5250 -0.4299
  707MOL0     C93225   0.712   4.741   9.909  0.3813 -0.0715 -0.1234
  707MOL0     C93226   0.637   4.624   9.886  0.2454 -0.5299  0.6499
  707MOL0     O93227   0.520   4.603   9.959 -0.7975  0.0558  0.1483
  707MOL0     C93228   0.432   4.483   9.944  0.1313 -1.1315  0.0642
  707MOL0     C93229   0.292   4.524   9.991 -1.1025 -0.4999  1.1474
  707MOL0     C93230   0.189   4.410   9.993 -0.3086 -0.1383 -0.3827
  707MOL0     C93231   0.062   4.466  10.063  0.6295  0.3933 -0.3901
  707MOL0     C93232  -0.055   4.368  10.070 -0.5197  0.2228 -0.1027
  707MOL0     C93233  -0.194   4.433  10.057 -0.5495  0.0002 -0.5799
  707MOL0     C93234  -0.308   4.334  10.086  0.2667 -0.0934  0.5160
  707MOL0     C93235  -0.443   4.398  10.078  0.0916 -0.1493  0.7862
  707MOL0    Cl93236  -0.553   4.275  10.151 -0.5770 -0.7060 -0.0894
  707MOL0     C93237   0.680   4.537   9.778 -0.2535  1.2015  0.0566
  707MOL0     C93238   0.802   4.563   9.714 -0.6521  0.6756 -0.7271
  707MOL0     O93239   1.124   4.555   9.819 -0.0658  0.3099  0.1275
  707MOL0     C93240   1.249   4.826   9.624 -0.3971 -0.0586 -0.9011
  707MOL0     C93241   1.365   4.889   9.577 -0.0730 -0.1160  0.6197
  707MOL0     N93242   2.029   5.079   9.758  0.0231  0.3977 -0.4920
  707MOL0     N93243   2.126   5.090   9.834 -0.0368  0.1619 -0.2473
  707MOL0     C93244   3.089   5.471  10.299  0.0538  0.4389  0.4090
  707MOL0     C93245   3.171   5.482  10.419 -0.0204 -0.2783  0.1007
  707MOL0     C93246   3.369   5.419  10.797 -1.0492 -0.5117 -0.3822
  707MOL0     C93247   3.492   5.360  10.775 -0.5221  0.6601 -0.5703
  707MOL0     C93248   3.589   5.359  10.872 -0.6630 -0.6299 -0.9737
  707MOL0     C93249   3.554   5.399  11.000 -0.4198  0.0458 -0.7276
  707MOL0     O93250   3.638   5.384  11.107 -0.4872  0.5551  0.7107
  707MOL0     C93251   3.757   5.301  11.090 -0.0817 -0.0739  0.1025
  707MOL0     C93252   3.868   5.408  11.049  0.4759  0.2391 -0.4064
  707MOL0     C93253   3.962   5.437  11.171  0.0405 -0.6141  0.2796
  707MOL0     C93254   4.076   5.530  11.117 -0.0170  0.0455  0.2092
  707MOL0     C93255   4.147   5.592  11.229  0.3054  0.3750  0.8649
  707MOL0     C93256   4.190   5.645  11.325  0.3434 -0.5616 -0.7211
  707MOL0     C93257   3.433   5.465  11.020  0.6996  0.3257  0.2084
  707MOL0     C93258   3.343   5.476  10.920  1.3125 -0.6628 -0.1939
  707MOL0     H93259   3.300   5.176  10.421  2.2297  2.2313  0.7564
  707MOL0     H93260   3.151   5.160  10.194 -3.3991 -0.4698  1.2726
  707MOL0     H93261   3.191   5.311  10.007 -0.3406 -2.3576 -0.9057
  707MOL0     H93262   3.082   5.430   9.948 -0.5028  0.2476  0.6320
  707MOL0     H93263   3.040   5.116   9.935  0.0807  1.7460  4.1969
  707MOL0     H93264   3.112   5.213   9.808 -1.2051 -0.6809 -0.6765
  707MOL0     H93265   2.889   5.168   9.752 -0.8252  0.7282  0.1504
  707MOL0     H93266   2.904   5.341   9.777 -0.7909  1.0381  1.2914
  707MOL0     H93267   2.800   5.127   9.976 -1.3081  0.1848  2.1560
  707MOL0     H93268   2.801   5.297  10.002 -1.3807 -0.5370  0.1167
  707MOL0     H93269   2.646   5.318   9.793 -1.0341 -0.1899  0.9202
  707MOL0     H93270   2.582   5.232   9.937  0.2641  0.5771  0.9849
  707MOL0     H93271   2.635   5.016   9.828  2.1326 -0.8483 -0.1242
  707MOL0     H93272   2.698   5.102   9.688 -0.2010 -1.3770  1.2579
  707MOL0     H93273   2.485   5.212   9.652  4.0859 -0.1390 -1.1058
  707MOL0     H93274   2.471   5.032   9.644 -2.2177 -2.7142  3.9095
  707MOL0     H93275   2.365   5.185   9.890 -2.4854  1.7038 -0.8477
  707MOL0     H93276   2.405   5.019   9.884 -0.2522 -1.6265 -1.0864
  707MOL0     H93277   2.281   5.066   9.551  0.4944 -0.8483  0.2579
  707MOL0     H93278   2.014   4.966   9.447  2.6452  0.8624 -2.4291
  707MOL0     H93279   2.011   5.151   9.440  1.0991 -0.8185  0.2162
  707MOL0     H93280   1.818   5.145   9.578  0.2442  0.4372 -1.7555
  707MOL0     H93281   1.836   4.973   9.620  2.0337  0.6492  1.2732
  707MOL0     H93282   1.753   5.082   9.340  0.8164  0.1594 -0.2218
  707MOL0     H93283   1.787   4.916   9.373  0.4054 -1.0424  1.9897
  707MOL0     H93284   1.540   4.954   9.397 -1.6393  2.1884 -0.5822
  707MOL0     H93285   1.556   5.093   9.483 -0.3742  0.6173  0.8217
  707MOL0     H93286   1.590   4.735   9.771 -0.2167 -0.8548 -0.5626
  707MOL0     H93287   1.381   4.603   9.835 -1.1738  2.8316  2.2573
  707MOL0     H93288   0.877   4.866   9.836  0.2753  0.1274 -1.9069
  707MOL0     H93289   0.670   4.819   9.972 -0.9600  0.1952 -1.2872
  707MOL0     H93290   0.477   4.409  10.011 -0.5549 -0.1269  1.7001
  707MOL0     H93291   0.418   4.443   9.843  0.7299 -1.5844  0.1532
  707MOL0     H93292   0.251   4.591   9.914 -2.7491 -3.3038 -0.6102
  707MOL0     H93293   0.301   4.579  10.085 -1.6420  0.1726  0.8187
  707MOL0     H93294   0.227   4.327  10.055  2.3798  1.2678  0.0158
  707MOL0     H93295   0.165   4.367   9.896 -0.4728 -0.1204 -0.3490
  707MOL0     H93296   0.076   4.508  10.163 -1.5646 -3.1003  1.5771
  707MOL0     H93297   0.026   4.545   9.996  0.7432  0.6660 -0.1349
  707MOL0     H93298  -0.045   4.305  10.159  0.2651 -0.1370 -0.4374
  707MOL0     H93299  -0.052   4.294   9.989  2.1789 -0.1318  0.2342
  707MOL0     H93300  -0.207   4.465   9.953 -0.1645 -0.5896 -0.8165
  707MOL0     H93301  -0.192   4.517  10.127 -0.4098 -0.1841 -0.3609
  707MOL0     H93302  -0.301   4.246  10.022  0.5506  0.9673 -0.9696
  707MOL0     H93303  -0.296   4.306  10.192 -1.4267  2.3381  1.4421
  707MOL0     H93304  -0.462   4.405   9.971  0.2970 -1.2764  0.6649
  707MOL0     H93305  -0.448   4.487  10.142  3.5002 -0.0818  1.1618
  707MOL0     H93306   0.610   4.462   9.744  1.0290  0.3936 -0.8718
  707MOL0     H93307   0.846   4.501   9.636  0.1862 -0.6486  0.7440
  707MOL0     H93308   1.161   4.878   9.590 -0.9640 -2.2530 -3.0820
  707MOL0     H93309   1.355   4.965   9.500  1.3501  3.2449  3.5094
  707MOL0     H93310   3.036   5.561  10.270  1.7907  2.3572  2.7962
  707MOL0     H93311   3.178   5.578  10.470  0.5573 -0.7096  0.8670
  707MOL0     H93312   3.526   5.314  10.682  4.4612 -0.8571  1.6356
  707MOL0     H93313   3.685   5.325  10.836 -0.4853 -2.6286  1.1347
  707MOL0     H93314   3.737   5.227  11.012 -0.4924 -1.0647  1.1288
  707MOL0     H93315   3.777   5.257  11.188  1.9232 -1.7898 -1.0084
  707MOL0     H93316   3.930   5.368  10.969 -0.0296  0.4126 -0.8948
  707MOL0     H93317   3.827   5.507  11.022 -2.3531 -0.3041  1.4633
  707MOL0     H93318   3.991   5.338  11.207  1.4112 -0.1216  0.6182
  707MOL0     H93319   3.907   5.487  11.252  2.8342 -0.4428  2.2208
  707MOL0     H93320   4.143   5.482  11.045  0.5232  0.3580  0.4979
  707MOL0     H93321   4.028   5.613  11.065 -2.1106 -1.2577 -0.1018
  707MOL0     H93322   4.232   5.689  11.413 -3.3502  1.4448  0.2738
  707MOL0     H93323   3.408   5.490  11.122 -1.0822 -1.0898  0.1941
  707MOL0     H93324   3.253   5.527  10.952  0.6349 -2.2628  0.5511
  708MOL0     O93325   3.994  10.963  10.071 -0.0302 -1.0522 -0.1337
  708MOL0     C93326   4.051  11.034  10.155 -0.0961 -0.0984  0.5344
  708MOL0     O93327   4.008  11.069  10.283  0.0100 -0.4713  0.2078
  708MOL0     C93328   3.880  11.026  10.309  0.3197 -0.8393  0.2311
  708MOL0     C93329   3.794  11.123  10.352  0.9361 -0.0827  0.4319
  708MOL0     C93330   3.664  11.086  10.387 -0.8271 -0.5039  0.6694
  708MOL0     C93331   3.619  10.959  10.380 -0.3646  0.5085  0.4252
  708MOL0     O93332   3.488  10.929  10.413 -0.2487 -0.2427 -0.0451
  708MOL0     C93333   3.431  10.798  10.386  0.2928 -0.2978 -0.3154
  708MOL0     C93334   3.391  10.777  10.237  0.3643 -0.4490  0.4380
  708MOL0     C93335   3.311  10.645  10.229  0.1378 -0.0001  0.5186
  708MOL0     C93336   3.288  10.630  10.080 -0.1486  1.3527 -0.3867
  708MOL0     C93337   3.222  10.493  10.054 -0.0726  0.7430  0.7427
  708MOL0     C93338   3.109  10.464  10.151  0.5512 -0.6477 -1.0336
  708MOL0     C93339   3.029  10.340  10.098  0.7668  0.0799  0.1880
  708MOL0     C93340   2.903  10.301  10.179 -0.0848  0.4396  1.1743
  708MOL0     N93341   2.803  10.412  10.187  1.2800 -0.0900  0.3227
  708MOL0     C93342   2.758  10.488  10.075 -0.0054  0.2944  0.1194
  708MOL0     C93343   2.663  10.570  10.116 -1.1476 -0.2168  0.0561
  708MOL0     C93344   2.584  10.653  10.019  0.7645  0.0950 -0.4482
  708MOL0     C93345   2.436  10.673  10.057  0.0528  0.0550 -0.3719
  708MOL0     C93346   2.382  10.754   9.944  0.0500  0.4539  0.0965
  708MOL0     C93347   2.234  10.788   9.980 -0.3588 -0.4259 -0.4067
  708MOL0     O93348   2.158  10.675  10.019  0.3601 -0.2511 -0.5541
  708MOL0     C93349   2.023  10.695  10.058  0.1681 -0.3074  0.4057
  708MOL0     C93350   1.960  10.593  10.132 -0.3704  0.6189  0.9963
  708MOL0     C93351   1.826  10.595  10.156  0.7415  0.5141  0.5001
  708MOL0     C93352   1.748  10.707  10.119 -0.4967  0.2543 -0.6252
  708MOL0     C93353   1.602  10.710  10.176  0.0643  0.8051  0.1605
  708MOL0     O93354   1.532  10.595  10.176  0.7109 -0.1005  0.5184
  708MOL0     C93355   1.406  10.587  10.222  0.1860  0.8137 -0.2081
  708MOL0     C93356   1.382  10.535  10.355  0.3285  0.0434 -0.8035
  708MOL0     C93357   1.252  10.527  10.395 -0.4024  0.6124  0.4787
  708MOL0     C93358   1.137  10.566  10.322  0.1195 -0.4559  0.5539
  708MOL0     O93359   1.002  10.561  10.359 -0.3900  0.0201 -0.3065
  708MOL0     C93360   0.980  10.480  10.474 -0.1254  1.0035  0.5516
  708MOL0     C93361   0.834  10.438  10.472 -0.5765  0.4362  0.3415
  708MOL0     C93362   0.738  10.546  10.516 -0.0729  0.0097  0.8541
  708MOL0     C93363   0.589  10.498  10.509 -0.5820 -0.4213  0.0304
  708MOL0     C93364   0.498  10.602  10.572 -0.0296 -0.1909 -0.8387
  708MOL0     C93365   0.361  10.599  10.506  0.4654 -0.3801 -0.5683
  708MOL0     C93366   0.269  10.479  10.560 -0.0929  0.3829 -0.4934
  708MOL0     C93367   0.230  10.484  10.706  0.5233 -0.1982 -0.2867
  708MOL0    Cl93368   0.081  10.584  10.723 -0.1014  0.0965  0.2509
  708MOL0     C93369   1.159  10.627  10.197 -1.4152  0.1489 -0.1072
  708MOL0     C93370   1.293  10.643  10.146 -0.2810 -0.3635 -0.2273
  708MOL0     O93371   1.553  10.821  10.195 -0.0949  0.0107 -0.1704
  708MOL0     C93372   1.804  10.807  10.047  0.9898  0.9964 -0.1085
  708MOL0     C93373   1.939  10.806  10.015 -0.4754  0.9207  0.3243
  708MOL0     N93374   2.659  10.557  10.250  0.1779 -0.2342 -0.4423
  708MOL0     N93375   2.746  10.473  10.298  0.5428  0.6648  0.1952
  708MOL0     C93376   3.706  10.857  10.335  0.2183 -0.2161 -0.0553
  708MOL0     C93377   3.840  10.896  10.294  0.3736  0.4306  0.0138
  708MOL0     C93378   4.188  11.078  10.100 -0.2884  0.2199  0.0155
  708MOL0     C93379   4.241  11.044   9.976  0.6843 -0.4323  1.0031
  708MOL0     C93380   4.361  11.097   9.920  0.0828 -0.1381 -0.8553
  708MOL0     C93381   4.433  11.181  10.004  0.4944 -0.2612  0.4183
  708MOL0     O93382   4.553  11.241   9.978  0.0449 -0.4899 -0.5558
  708MOL0     C93383   4.650  11.187   9.880 -0.4512  0.0042  0.1135
  708MOL0     C93384   4.679  11.284   9.755  0.1970  0.1062 -0.1368
  708MOL0     C93385   4.736  11.203   9.629  1.1554  0.0851  0.1288
  708MOL0     C93386   4.749  11.291   9.500  0.8119 -0.1631  0.2180
  708MOL0     C93387   4.809  11.424   9.529 -0.9181  0.3523 -0.4125
  708MOL0     C93388   4.874  11.524   9.552  0.4334  0.5800 -0.5553
  708MOL0     C93389   4.385  11.216  10.129  0.2861 -0.7524  0.8981
  708MOL0     C93390   4.264  11.164  10.185  0.2752  0.0583  0.3065
  708MOL0     H93391   3.825  11.227  10.358  0.2103  0.0818  2.0231
  708MOL0     H93392   3.595  11.156  10.433  0.9423  2.2241 -0.5619
  708MOL0     H93393   3.338  10.796  10.444 -1.7292  1.2357 -3.2675
  708MOL0     H93394   3.492  10.719  10.431  1.8508  0.4870 -0.9633
  708MOL0     H93395   3.481  10.788  10.176  1.8057  1.1864  2.7093
  708MOL0     H93396   3.320  10.853  10.202  2.8183  1.5297 -0.5367
  708MOL0     H93397   3.217  10.668  10.280  0.2512  0.6143  0.4652
  708MOL0     H93398   3.354  10.559  10.281 -0.2486 -0.5479 -0.0605
  708MOL0     H93399   3.229  10.714  10.041 -1.7045  0.6952  0.4632
  708MOL0     H93400   3.389  10.630  10.037  1.4996 -0.5554  3.1075
  708MOL0     H93401   3.304  10.422  10.071  0.3548  1.0540  0.0420
  708MOL0     H93402   3.193  10.478   9.950  4.3823 -1.0517 -0.5013
  708MOL0     H93403   3.050  10.555  10.140  0.0759 -0.9793 -1.2613
  708MOL0     H93404   3.136  10.452  10.256 -0.6738 -0.6678 -0.6998
  708MOL0     H93405   2.997  10.366   9.996  0.5487  2.8335  0.8929
  708MOL0     H93406   3.087  10.248  10.096 -0.4860 -0.7355 -0.7071
  708MOL0     H93407   2.943  10.265  10.275  1.5153 -0.8292  0.0961
  708MOL0     H93408   2.868  10.216  10.119 -1.2386  1.2930  0.6094
  708MOL0     H93409   2.799  10.488   9.974  1.1033  0.3654  0.5492
  708MOL0     H93410   2.600  10.594   9.929 -1.0976 -1.6592  0.3108
  708MOL0     H93411   2.628  10.753  10.008  0.0386  0.7231  1.8215
  708MOL0     H93412   2.428  10.723  10.154 -0.4338 -0.7364  0.0137
  708MOL0     H93413   2.386  10.577  10.073  0.9195 -0.4745 -0.8009
  708MOL0     H93414   2.440  10.847   9.943  1.9093 -0.6053  1.6016
  708MOL0     H93415   2.379  10.703   9.847 -1.5332 -2.4942  1.5713
  708MOL0     H93416   2.185  10.848   9.902 -0.3135 -1.1752 -1.0269
  708MOL0     H93417   2.238  10.847  10.072  3.4685  0.3358 -0.9204
  708MOL0     H93418   2.017  10.504  10.159 -1.2635 -1.1384 -2.3211
  708MOL0     H93419   1.778  10.511  10.206  0.5616  0.0725 -0.3961
  708MOL0     H93420   1.470  10.503  10.409 -1.3321 -0.6521  1.6666
  708MOL0     H93421   1.230  10.497  10.497  0.7882  1.0331  0.8687
  708MOL0     H93422   0.996  10.543  10.562 -0.5734 -0.5501  1.7836
  708MOL0     H93423   1.049  10.395  10.482 -1.1126  0.2575  1.3928
  708MOL0     H93424   0.831  10.349  10.536  1.8711  0.8418  1.1189
  708MOL0     H93425   0.806  10.394  10.375 -3.0426  1.5941  0.4417
  708MOL0     H93426   0.763  10.637  10.461  2.1030 -0.6365  0.6602
  708MOL0     H93427   0.769  10.563  10.620 -0.9503  0.0574  1.1164
  708MOL0     H93428   0.555  10.483  10.406  0.5712  0.7344 -0.5463
  708MOL0     H93429   0.584  10.409  10.573  3.4562  1.0894  2.8934
  708MOL0     H93430   0.525  10.707  10.561 -1.6477  0.4086  0.5782
  708MOL0     H93431   0.501  10.589  10.681 -1.7160  0.4206 -0.6982
  708MOL0     H93432   0.360  10.601  10.397 -0.9884  1.9501 -0.5787
  708MOL0     H93433   0.318  10.698  10.522  0.8368  0.4210 -3.8198
  708MOL0     H93434   0.176  10.473  10.503 -2.0716  1.7025  2.3700
  708MOL0     H93435   0.327  10.389  10.538 -0.5195  0.3380 -1.5151
  708MOL0     H93436   0.316  10.527  10.758 -0.2561  3.3480 -1.6118
  708MOL0     H93437   0.206  10.387  10.749 -0.3392  0.0288 -0.2312
  708MOL0     H93438   1.066  10.655  10.148 -0.6911  1.0244 -1.0154
  708MOL0     H93439   1.309  10.702  10.056  2.5965  0.4679  0.7459
  708MOL0     H93440   1.740  10.887  10.012  0.2386 -0.0096 -1.1095
  708MOL0     H93441   1.985  10.877   9.948  0.6147  0.2984  0.3924
  708MOL0     H93442   3.671  10.756  10.316  1.2184 -0.3092 -1.5500
  708MOL0     H93443   3.908  10.817  10.262  1.4157  0.4039  2.1452
  708MOL0     H93444   4.184  10.971   9.918 -3.5436  1.6746  2.0800
  708MOL0     H93445   4.400  11.075   9.822  2.7020 -0.8011  0.2501
  708MOL0     H93446   4.631  11.087   9.839 -0.8461 -0.1409  0.6363
  708MOL0     H93447   4.747  11.171   9.927  0.7279 -0.7147 -2.4097
  708MOL0     H93448   4.586  11.331   9.722  1.4006  2.5991 -0.1938
  708MOL0     H93449   4.737  11.371   9.786  2.0164 -1.9717  2.7506
  708MOL0     H93450   4.664  11.127   9.599  0.0047  1.9560 -2.1958
  708MOL0     H93451   4.832  11.167   9.667  1.8592  1.7348  0.0041
  708MOL0     H93452   4.810  11.232   9.432 -0.7580 -2.1130  0.4315
  708MOL0     H93453   4.653  11.309   9.451  0.4620  1.0134  1.2692
  708MOL0     H93454   4.913  11.622   9.571 -0.8361  0.5706  2.7339
  708MOL0     H93455   4.456  11.274  10.186  0.8767 -0.2243 -0.3311
  708MOL0     H93456   4.239  11.177  10.290  0.0120 -2.8380  0.6929
  709MOL0     O93457   8.196   6.458   4.465  0.2653  0.3112 -0.2130
  709MOL0     C93458   8.188   6.524   4.571  0.1820  0.0963 -0.3681
  709MOL0     O93459   8.108   6.621   4.595 -0.3973 -0.2837 -0.9080
  709MOL0     C93460   8.016   6.648   4.503  0.4818 -0.3657 -0.1670
  709MOL0     C93461   8.039   6.679   4.362  0.1134 -0.2505 -0.0616
  709MOL0     C93462   7.940   6.710   4.273  0.1847 -0.5697  1.3466
  709MOL0     C93463   7.808   6.721   4.326  0.2633  0.0532 -0.3858
  709MOL0     O93464   7.712   6.777   4.241  0.2440  0.2158  0.6495
  709MOL0     C93465   7.596   6.826   4.306  0.4333 -0.2449  0.1401
  709MOL0     C93466   7.494   6.884   4.210 -0.5140  0.1519 -0.3766
  709MOL0     C93467   7.414   6.777   4.133 -0.2847 -0.0661 -0.0200
  709MOL0     C93468   7.328   6.864   4.034  0.7877 -0.0376 -0.3911
  709MOL0     C93469   7.272   6.773   3.930 -0.1115  0.7045 -0.8158
  709MOL0     C93470   7.140   6.816   3.863 -0.0034 -0.8750  0.8937
  709MOL0     C93471   7.023   6.786   3.960  0.3738 -0.6070 -0.4528
  709MOL0     C93472   6.882   6.842   3.915  0.9366  0.4898  0.4112
  709MOL0     N93473   6.822   6.755   3.816 -0.2054  0.0692  0.4994
  709MOL0     C93474   6.819   6.616   3.821 -0.3807  0.3664  0.6646
  709MOL0     C93475   6.748   6.585   3.714  0.0596 -0.0735 -0.4497
  709MOL0     C93476   6.733   6.442   3.681 -0.3812 -0.4148  0.3818
  709MOL0     C93477   6.589   6.391   3.711 -0.1319 -0.7853 -0.0600
  709MOL0     C93478   6.541   6.390   3.856  0.5347  0.0122  1.0979
  709MOL0     C93479   6.411   6.315   3.878  0.3165  0.0444  0.5050
  709MOL0     O93480   6.311   6.355   3.781  0.4388 -0.7222  0.0094
  709MOL0     C93481   6.178   6.371   3.818 -0.1081  0.8834 -0.5538
  709MOL0     C93482   6.115   6.482   3.768  0.0697  0.7633 -0.6053
  709MOL0     C93483   5.990   6.518   3.815  0.0228 -0.5467 -0.0520
  709MOL0     C93484   5.920   6.431   3.905  0.5779 -0.3128 -0.2940
  709MOL0     C93485   5.783   6.460   3.957  0.8333 -0.5391  0.3106
  709MOL0     O93486   5.722   6.362   4.035  0.2832  0.5439  0.3309
  709MOL0     C93487   5.592   6.376   4.073 -0.2977  0.7455 -0.1301
  709MOL0     C93488   5.566   6.346   4.201  0.0996  0.0617 -0.0973
  709MOL0     C93489   5.443   6.345   4.261  1.3169  0.0154  0.2309
  709MOL0     C93490   5.337   6.375   4.174 -0.0494 -0.2072 -0.6601
  709MOL0     O93491   5.206   6.360   4.205 -0.3213  0.2063  0.0100
  709MOL0     C93492   5.166   6.344   4.343 -0.1805  0.0461  0.1536
  709MOL0     C93493   5.010   6.323   4.365 -0.1307 -0.5412  0.1453
  709MOL0     C93494   4.967   6.191   4.304  0.3223 -0.1718  0.2705
  709MOL0     C93495   4.809   6.197   4.289  0.5590  0.1656  0.4784
  709MOL0     C93496   4.724   6.073   4.254  0.3873  0.0626 -0.3597
  709MOL0     C93497   4.705   5.980   4.368  0.1854 -0.2186 -0.6498
  709MOL0     C93498   4.608   6.041   4.469 -0.6812  0.0881  0.7224
  709MOL0     C93499   4.528   5.943   4.549 -0.0882 -1.1269 -0.3149
  709MOL0    Cl93500   4.431   5.852   4.424 -0.3126 -0.0675  0.3680
  709MOL0     C93501   5.354   6.410   4.045  0.4129 -0.8088 -0.1954
  709MOL0     C93502   5.485   6.406   3.983  0.0235 -0.1313 -0.5885
  709MOL0     O93503   5.729   6.564   3.922 -0.6431 -0.0392 -0.5140
  709MOL0     C93504   5.984   6.316   3.947  0.5186  0.7321 -0.5553
  709MOL0     C93505   6.110   6.285   3.900  0.0757  0.5404  0.0983
  709MOL0     N93506   6.701   6.695   3.643  0.0621 -0.2509 -0.2991
  709MOL0     N93507   6.760   6.793   3.704 -0.0162 -0.6317  0.0071
  709MOL0     C93508   7.779   6.678   4.452  0.0463 -0.1345 -0.8511
  709MOL0     C93509   7.883   6.640   4.543 -1.1288  0.4560  0.4169
  709MOL0     C93510   8.305   6.516   4.668  0.5520 -0.3387  0.4562
  709MOL0     C93511   8.434   6.487   4.627  0.5407 -0.2469  0.7591
  709MOL0     C93512   8.534   6.461   4.717 -0.0022  0.9181 -0.2364
  709MOL0     C93513   8.500   6.467   4.862 -0.1783  0.1126 -0.5766
  709MOL0     O93514   8.585   6.448   4.965 -0.1766 -0.1631  1.2185
  709MOL0     C93515   8.714   6.400   4.936 -0.0932  0.3305 -0.3739
  709MOL0     C93516   8.790   6.409   5.060  0.0872 -0.6325 -0.0638
  709MOL0     C93517   8.790   6.286   5.154 -0.5663 -0.3330  0.8575
  709MOL0     C93518   8.918   6.199   5.148 -0.8254 -0.7783 -0.0216
  709MOL0     C93519   8.952   6.164   5.288 -0.3650  0.2429 -0.7170
  709MOL0     C93520   8.996   6.110   5.393 -0.0470  0.0557 -0.4912
  709MOL0     C93521   8.369   6.483   4.903  0.0464 -0.1528 -0.2466
  709MOL0     C93522   8.270   6.516   4.808  0.0267  0.7053  0.3125
  709MOL0     H93523   8.139   6.674   4.319  0.3783 -0.2102  0.5310
  709MOL0     H93524   7.968   6.740   4.172 -0.2189  0.9536  1.6642
  709MOL0     H93525   7.623   6.896   4.385 -2.7034  0.1864  0.9875
  709MOL0     H93526   7.540   6.748   4.359  1.0657  0.1242  1.3953
  709MOL0     H93527   7.540   6.962   4.148 -2.0496  0.9167 -0.5952
  709MOL0     H93528   7.421   6.943   4.265 -0.2586 -0.1579  0.3037
  709MOL0     H93529   7.354   6.714   4.199 -0.8808  0.9819  0.4702
  709MOL0     H93530   7.476   6.713   4.070  1.3692 -1.6316  2.9982
  709MOL0     H93531   7.255   6.925   4.089  3.2081  2.2188  0.5164
  709MOL0     H93532   7.394   6.927   3.974  0.3508  1.2808  0.4791
  709MOL0     H93533   7.254   6.673   3.973  2.5050 -0.5327 -2.3331
  709MOL0     H93534   7.351   6.747   3.859  0.1567  0.1248 -0.3223
  709MOL0     H93535   7.120   6.756   3.774 -1.4522  0.4315  0.2941
  709MOL0     H93536   7.148   6.922   3.838 -0.0192 -0.9716  0.4779
  709MOL0     H93537   7.022   6.677   3.966  4.1979 -0.7738 -0.0826
  709MOL0     H93538   7.056   6.831   4.054  2.8179 -2.7191 -0.1717
  709MOL0     H93539   6.904   6.938   3.866  1.6449  0.7938  1.2818
  709MOL0     H93540   6.807   6.852   3.994 -1.2805  1.5444 -1.7058
  709MOL0     H93541   6.860   6.551   3.898  0.4835  0.3720  0.2239
  709MOL0     H93542   6.815   6.386   3.729  1.8936  0.5781 -2.0694
  709MOL0     H93543   6.738   6.440   3.572 -3.2054 -1.1501  0.2100
  709MOL0     H93544   6.595   6.289   3.674  3.3940 -0.0872 -1.8561
  709MOL0     H93545   6.521   6.454   3.652  1.8644 -1.0387 -2.8358
  709MOL0     H93546   6.618   6.348   3.920  1.7909  0.7908  0.1432
  709MOL0     H93547   6.530   6.497   3.875 -2.5423 -0.1051  0.6237
  709MOL0     H93548   6.381   6.333   3.981  0.3524 -0.2256  0.5645
  709MOL0     H93549   6.424   6.206   3.882  1.0282  0.1300  4.2948
  709MOL0     H93550   6.159   6.555   3.701 -2.0627  3.7074  0.9400
  709MOL0     H93551   5.949   6.611   3.775  0.8423 -1.5790 -3.6949
  709MOL0     H93552   5.652   6.303   4.252 -0.0386 -0.2491 -0.1247
  709MOL0     H93553   5.439   6.330   4.368 -0.2731  3.9984  0.9051
  709MOL0     H93554   5.201   6.429   4.402  0.9249 -1.3439  1.6092
  709MOL0     H93555   5.211   6.255   4.388 -1.2690 -0.7119 -0.2136
  709MOL0     H93556   4.965   6.410   4.316  1.2228 -0.7236 -1.5054
  709MOL0     H93557   4.988   6.331   4.472 -1.3744  0.1785 -0.1455
  709MOL0     H93558   4.994   6.105   4.365  1.6612 -0.3860 -0.5627
  709MOL0     H93559   5.008   6.179   4.203 -0.0529  0.2116  0.0728
  709MOL0     H93560   4.767   6.248   4.375 -1.9113  0.3362 -0.7530
  709MOL0     H93561   4.788   6.264   4.206 -3.2642  0.7860  1.7814
  709MOL0     H93562   4.771   6.025   4.167  0.9233  1.8125 -1.0704
  709MOL0     H93563   4.631   6.109   4.210 -0.4758 -1.4252  0.1893
  709MOL0     H93564   4.797   5.960   4.423 -0.2538 -0.1897  0.1234
  709MOL0     H93565   4.664   5.884   4.334 -0.1521 -0.5096  0.5172
  709MOL0     H93566   4.673   6.095   4.538  1.7330  1.0306 -2.0627
  709MOL0     H93567   4.543   6.117   4.426  0.0893  0.8221  0.8334
  709MOL0     H93568   4.470   5.994   4.626  0.3600 -1.0652 -0.0110
  709MOL0     H93569   4.595   5.873   4.600  1.1352 -1.1472 -1.8758
  709MOL0     H93570   5.266   6.446   3.992  0.8897  3.6085  1.5750
  709MOL0     H93571   5.497   6.421   3.876 -3.8956  2.8121 -0.8462
  709MOL0     H93572   5.937   6.246   4.016  4.1993  0.1556  1.6686
  709MOL0     H93573   6.158   6.193   3.932  0.3841 -0.1588 -2.1791
  709MOL0     H93574   7.678   6.667   4.491  0.8789 -0.3295  1.4117
  709MOL0     H93575   7.849   6.606   4.641  0.1703 -2.0977  0.0495
  709MOL0     H93576   8.461   6.494   4.522 -0.9107  1.5460  0.4550
  709MOL0     H93577   8.631   6.433   4.679 -1.3297 -1.7767 -1.9249
  709MOL0     H93578   8.764   6.459   4.858  1.5649 -0.3504  0.1233
  709MOL0     H93579   8.707   6.300   4.891 -0.2516 -0.2076  0.8150
  709MOL0     H93580   8.893   6.431   5.031 -0.0251  0.8054  0.5875
  709MOL0     H93581   8.758   6.499   5.113  0.6114  0.4672 -1.5380
  709MOL0     H93582   8.706   6.216   5.145 -2.3300  1.7604  0.1369
  709MOL0     H93583   8.775   6.332   5.253 -2.7153  1.1434 -0.0781
  709MOL0     H93584   8.888   6.111   5.091 -2.6232  0.1689 -0.5815
  709MOL0     H93585   9.001   6.260   5.110 -0.1481 -1.3163  0.5425
  709MOL0     H93586   9.052   6.077   5.478 -1.3094 -1.3880 -0.1750
  709MOL0     H93587   8.346   6.480   5.009 -0.2359  1.6491 -0.2258
  709MOL0     H93588   8.167   6.529   4.839 -0.1171 -3.9894  2.6294
  710MOL0     O93589   1.951   1.012   9.204 -0.3260 -0.6350 -0.1948
  710MOL0     C93590   1.936   1.036   9.083  0.0333 -0.1347 -0.6150
  710MOL0     O93591   1.821   1.095   9.026 -0.4557 -0.0544  1.4883
  710MOL0     C93592   1.768   1.180   9.118  0.0394 -0.6124  0.3545
  710MOL0     C93593   1.685   1.131   9.218  0.3315 -0.3697  0.8161
  710MOL0     C93594   1.600   1.213   9.300 -0.5865  0.2894  0.7562
  710MOL0     C93595   1.624   1.347   9.286 -0.0468  0.1156  0.5215
  710MOL0     O93596   1.537   1.417   9.370  0.4022  0.4031 -0.0903
  710MOL0     C93597   1.545   1.558   9.356  0.0815 -0.4807 -0.0228
  710MOL0     C93598   1.449   1.625   9.457 -0.2971  0.2820 -0.1748
  710MOL0     C93599   1.315   1.560   9.453  0.1439  0.2838  0.2361
  710MOL0     C93600   1.218   1.634   9.542  1.0361  0.1868 -0.9722
  710MOL0     C93601   1.080   1.550   9.541  0.3514 -0.4037 -0.1854
  710MOL0     C93602   1.089   1.415   9.625  0.2031  0.5664 -0.0295
  710MOL0     C93603   0.946   1.357   9.651 -0.2416 -0.6061  0.1086
  710MOL0     C93604   0.865   1.435   9.754 -0.3892 -0.5030  0.5936
  710MOL0     N93605   0.750   1.376   9.819  0.7781  0.7550  0.0702
  710MOL0     C93606   0.655   1.307   9.753  0.7857 -0.1548  0.3395
  710MOL0     C93607   0.567   1.262   9.843  0.1175 -0.2517 -0.0915
  710MOL0     C93608   0.472   1.162   9.819  0.2864  0.5406  0.3078
  710MOL0     C93609   0.342   1.166   9.901 -0.9121  1.4048 -0.0688
  710MOL0     C93610   0.254   1.030   9.879  0.2655 -0.2248  0.7637
  710MOL0     C93611   0.123   1.049   9.953  0.5430 -0.0133  0.0389
  710MOL0     O93612   0.031   1.106   9.864 -0.3025 -0.2013  0.6108
  710MOL0     C93613  -0.093   1.141   9.889 -0.6622 -0.0787 -0.1778
  710MOL0     C93614  -0.161   1.219   9.808  0.5822  1.6274  0.2085
  710MOL0     C93615  -0.298   1.254   9.830 -0.2170 -0.6170 -0.2938
  710MOL0     C93616  -0.360   1.210   9.946  0.7922  0.0451 -0.0157
  710MOL0     C93617  -0.502   1.253   9.981  0.2991 -0.1367 -0.3614
  710MOL0     O93618  -0.568   1.190  10.076  0.8994  0.0359  0.0008
  710MOL0     C93619  -0.696   1.221  10.098 -0.5898  0.3352 -0.1493
  710MOL0     C93620  -0.734   1.348  10.150  0.1048  0.5477  0.1437
  710MOL0     C93621  -0.870   1.367  10.181 -0.1306  1.2840  0.6150
  710MOL0     C93622  -0.966   1.267  10.148 -0.3722  0.1852  0.7523
  710MOL0     O93623  -1.100   1.273  10.172 -0.5057  0.4328  0.7785
  710MOL0     C93624  -1.158   1.397  10.223 -0.0132  0.1596 -0.2823
  710MOL0     C93625  -1.302   1.367  10.211  0.2101  0.3745  0.0169
  710MOL0     C93626  -1.377   1.491  10.272 -0.1149 -0.2660  0.1630
  710MOL0     C93627  -1.530   1.468  10.262 -0.2969 -0.3705 -0.4170
  710MOL0     C93628  -1.606   1.576  10.322  0.8038 -0.5097 -0.1867
  710MOL0     C93629  -1.754   1.538  10.352  0.1905  0.5723  0.4517
  710MOL0     C93630  -1.840   1.531  10.229 -0.3865  0.9622  0.5284
  710MOL0     C93631  -1.932   1.660  10.204 -0.0749  0.3170  0.2035
  710MOL0    Cl93632  -2.039   1.647  10.067 -0.5699  0.3809  0.2566
  710MOL0     C93633  -0.928   1.146  10.086  0.5246  0.7768  0.2501
  710MOL0     C93634  -0.792   1.122  10.056 -0.1631 -1.2577  0.0208
  710MOL0     O93635  -0.551   1.344   9.913  0.5398 -0.2244  0.7166
  710MOL0     C93636  -0.286   1.135  10.039  0.2011  0.1194  0.1408
  710MOL0     C93637  -0.157   1.101  10.013 -0.9884  0.0170 -0.3398
  710MOL0     N93638   0.595   1.325   9.955  0.3689  0.0164 -0.3197
  710MOL0     N93639   0.707   1.394   9.945  0.1224  0.0049  0.2528
  710MOL0     C93640   1.713   1.403   9.192 -0.0515  0.2348 -0.2740
  710MOL0     C93641   1.779   1.320   9.101  0.2574  0.8742  0.1332
  710MOL0     C93642   2.050   1.010   8.993 -0.0129 -0.8233 -0.4199
  710MOL0     C93643   2.174   0.967   9.047  0.1714  0.3004  0.9616
  710MOL0     C93644   2.275   0.942   8.950 -0.7918  0.3487 -1.2224
  710MOL0     C93645   2.280   0.967   8.818  0.6506 -0.9873 -0.4067
  710MOL0     O93646   2.391   0.936   8.741  0.3864 -0.4110 -0.1898
  710MOL0     C93647   2.388   0.937   8.597  0.7244 -0.2197  0.5471
  710MOL0     C93648   2.382   1.079   8.540  0.7037  0.1814 -0.7308
  710MOL0     C93649   2.502   1.166   8.582 -0.6561 -0.3794 -0.0992
  710MOL0     C93650   2.590   1.218   8.469  0.2971  0.4405 -0.1208
  710MOL0     C93651   2.689   1.321   8.513  0.1861  0.2245  0.1894
  710MOL0     C93652   2.777   1.395   8.551  0.5395 -0.3225  0.3623
  710MOL0     C93653   2.154   1.010   8.766  0.3859 -0.1549 -0.8434
  710MOL0     C93654   2.041   1.045   8.856 -0.0057  1.2228  1.3423
  710MOL0     H93655   1.680   1.022   9.222  0.8383 -0.4130  0.4019
  710MOL0     H93656   1.525   1.177   9.369 -2.6176  0.8455 -1.0664
  710MOL0     H93657   1.510   1.584   9.255 -0.7873 -1.0851  0.1121
  710MOL0     H93658   1.648   1.595   9.362 -0.6059  1.2437  3.0426
  710MOL0     H93659   1.446   1.731   9.431 -0.4871 -0.3942 -3.3065
  710MOL0     H93660   1.486   1.596   9.556  2.3723 -0.4164 -1.2897
  710MOL0     H93661   1.326   1.459   9.493  3.6647  0.5397  0.1993
  710MOL0     H93662   1.283   1.563   9.348  0.7128 -0.7332  0.0193
  710MOL0     H93663   1.258   1.647   9.643  5.0044 -3.2456 -1.8239
  710MOL0     H93664   1.200   1.733   9.499 -0.3380 -0.2908 -1.5599
  710MOL0     H93665   1.060   1.539   9.434  3.2661 -2.9304 -0.6075
  710MOL0     H93666   0.998   1.612   9.579  2.2694  2.2376 -0.0459
  710MOL0     H93667   1.136   1.448   9.717 -0.2201 -1.4565  0.9599
  710MOL0     H93668   1.154   1.346   9.571 -0.1075  0.1876  0.0817
  710MOL0     H93669   0.904   1.345   9.551  1.7359  1.9599 -1.1635
  710MOL0     H93670   0.957   1.257   9.692 -0.0538 -0.7111 -0.1921
  710MOL0     H93671   0.833   1.526   9.701  1.4771  1.2493  2.3026
  710MOL0     H93672   0.922   1.472   9.840 -0.7564 -0.5380  0.8546
  710MOL0     H93673   0.664   1.259   9.656  1.2513 -0.1273  0.3637
  710MOL0     H93674   0.526   1.068   9.827 -1.7059 -0.6346  0.6240
  710MOL0     H93675   0.437   1.175   9.716 -1.2411  0.2985  0.7698
  710MOL0     H93676   0.288   1.252   9.861 -3.7082  0.7604  2.0732
  710MOL0     H93677   0.369   1.176  10.007  1.4149  0.4049 -0.4917
  710MOL0     H93678   0.229   1.026   9.772 -2.4410  2.7226  1.1479
  710MOL0     H93679   0.306   0.944   9.922 -0.9810  0.2757  3.4679
  710MOL0     H93680   0.127   1.114  10.040 -0.9263 -0.9697  0.8632
  710MOL0     H93681   0.083   0.954   9.989  0.1833 -0.2539 -0.9646
  710MOL0     H93682  -0.105   1.254   9.721 -1.0175  2.2913 -0.6038
  710MOL0     H93683  -0.344   1.307   9.747 -0.8945 -1.6847 -0.6208
  710MOL0     H93684  -0.654   1.420  10.164  1.3064 -1.2911  4.3172
  710MOL0     H93685  -0.897   1.460  10.228 -3.5952  0.6007  0.2177
  710MOL0     H93686  -1.120   1.476  10.158  0.0672 -0.0061 -0.4336
  710MOL0     H93687  -1.132   1.415  10.328 -0.0915 -0.0720 -0.2228
  710MOL0     H93688  -1.323   1.281  10.275  1.6997 -2.0102 -2.5123
  710MOL0     H93689  -1.337   1.346  10.110  0.5415  0.2090 -0.0640
  710MOL0     H93690  -1.340   1.576  10.214 -0.9605  0.4464  0.6448
  710MOL0     H93691  -1.339   1.507  10.374 -1.0923  3.1794  0.1094
  710MOL0     H93692  -1.559   1.456  10.157  1.5048 -2.2873 -0.7576
  710MOL0     H93693  -1.554   1.371  10.305  1.8557 -1.8136 -2.1867
  710MOL0     H93694  -1.594   1.668  10.264  1.6355 -0.2978  0.3081
  710MOL0     H93695  -1.561   1.601  10.419  0.5193  1.0483 -0.4297
  710MOL0     H93696  -1.802   1.613  10.415  1.4346  2.2747 -0.5661
  710MOL0     H93697  -1.760   1.450  10.417  0.4278 -1.6956 -2.3733
  710MOL0     H93698  -1.784   1.524  10.135 -0.2465 -0.7608  0.7224
  710MOL0     H93699  -1.914   1.452  10.246 -1.1292  1.9965  2.4801
  710MOL0     H93700  -1.869   1.746  10.180 -0.9043  0.7698 -0.4154
  710MOL0     H93701  -1.985   1.695  10.294 -1.1999 -1.5494  0.3253
  710MOL0     H93702  -0.994   1.066  10.054  0.2785  1.9672 -2.5626
  710MOL0     H93703  -0.749   1.041   9.998 -0.8759  0.5498 -3.2992
  710MOL0     H93704  -0.334   1.101  10.130 -1.5474  2.9442  0.3830
  710MOL0     H93705  -0.118   1.044  10.097  1.2900 -1.1296 -2.0661
  710MOL0     H93706   1.731   1.510   9.183 -1.0070  0.3657 -0.7934
  710MOL0     H93707   1.847   1.368   9.031  3.1644 -1.0181  1.4504
  710MOL0     H93708   2.177   0.939   9.152 -3.5320 -1.7699  0.6766
  710MOL0     H93709   2.362   0.903   9.002 -3.4231 -3.3932  0.8713
  710MOL0     H93710   2.304   0.882   8.553  0.1020  0.8758  0.3403
  710MOL0     H93711   2.476   0.878   8.570 -1.0828 -2.9593  0.2440
  710MOL0     H93712   2.392   1.072   8.432  0.2553  1.1458 -0.8430
  710MOL0     H93713   2.283   1.125   8.543  1.0827  1.0679 -1.5154
  710MOL0     H93714   2.565   1.110   8.652 -0.3061 -0.2121 -0.2778
  710MOL0     H93715   2.465   1.251   8.640  2.5049  0.3770  1.0277
  710MOL0     H93716   2.633   1.134   8.413  0.6052  2.5954 -3.4066
  710MOL0     H93717   2.527   1.275   8.401 -0.2079  1.6888  1.3369
  710MOL0     H93718   2.864   1.453   8.574  1.2591 -1.3792  0.3695
  710MOL0     H93719   2.143   1.017   8.658  2.0241  2.4696 -0.9270
  710MOL0     H93720   1.956   1.075   8.797  1.0651 -0.6611 -1.3700
  711MOL0     O93721  10.313  10.041  10.903  0.0168 -0.0941  0.1247
  711MOL0     C93722  10.240  10.124  10.850  0.7481 -0.3178  0.6885
  711MOL0     O93723  10.263  10.184  10.734 -0.5766 -0.3306  0.4429
  711MOL0     C93724  10.342  10.127  10.637  0.7683 -0.1519 -0.5319
  711MOL0     C93725  10.416  10.224  10.573 -0.1321 -0.5202 -0.3649
  711MOL0     C93726  10.515  10.177  10.479  1.0031  0.3129  0.7334
  711MOL0     C93727  10.529  10.042  10.448  0.0537  0.7848  0.4613
  711MOL0     O93728  10.624   9.991  10.367  0.3493  0.2501 -0.0165
  711MOL0     C93729  10.747  10.067  10.343 -0.4915 -0.8829  0.6071
  711MOL0     C93730  10.748  10.165  10.224 -0.2397  0.2346  0.9920
  711MOL0     C93731  10.719  10.093  10.087  0.0015 -0.9549  0.2371
  711MOL0     C93732  10.838  10.016  10.049  0.7191  0.6066 -0.0099
  711MOL0     C93733  10.847   9.945   9.907  0.1289 -0.7462  0.6238
  711MOL0     C93734  10.828  10.043   9.785 -0.1555 -0.5094 -0.4361
  711MOL0     C93735  10.800   9.957   9.650 -0.5232  0.1510  0.1452
  711MOL0     C93736  10.762  10.043   9.531 -0.4400  0.5616 -0.0954
  711MOL0     N93737  10.641  10.120   9.554 -0.0957 -1.0089  0.0421
  711MOL0     C93738  10.526  10.081   9.621 -0.4060 -0.9233  0.5069
  711MOL0     C93739  10.449  10.191   9.617  0.2853  0.1378  0.1079
  711MOL0     C93740  10.305  10.208   9.662 -0.7047 -1.0469  0.1357
  711MOL0     C93741  10.223  10.084   9.633 -0.2342 -0.5676 -0.3530
  711MOL0     C93742  10.077  10.108   9.670 -0.7991 -0.1880 -0.3429
  711MOL0     C93743   9.998   9.976   9.646 -0.0816 -1.0109  0.3323
  711MOL0     O93744   9.979   9.977   9.501  0.3838 -0.1779  0.1592
  711MOL0     C93745   9.912   9.881   9.442 -0.0935 -0.2596  0.3435
  711MOL0     C93746   9.839   9.784   9.508  0.0133 -0.3925 -0.0288
  711MOL0     C93747   9.778   9.679   9.439  0.2027 -0.7267  0.7073
  711MOL0     C93748   9.782   9.671   9.304 -0.8604 -0.3645  0.6422
  711MOL0     C93749   9.714   9.548   9.246  0.2278  0.1928  0.7736
  711MOL0     O93750   9.643   9.467   9.323  0.2161  0.5383  0.3010
  711MOL0     C93751   9.530   9.407   9.263  0.7795  0.3925 -0.6885
  711MOL0     C93752   9.510   9.269   9.282  0.2739  0.3308 -0.0683
  711MOL0     C93753   9.383   9.216   9.243  0.0654 -0.2712 -0.3342
  711MOL0     C93754   9.281   9.292   9.178 -0.1992  0.4220  0.8159
  711MOL0     O93755   9.177   9.221   9.125 -0.4805  1.0702 -0.3181
  711MOL0     C93756   9.047   9.278   9.081  0.6317 -0.2221 -0.0395
  711MOL0     C93757   8.932   9.262   9.183  0.4631 -0.1802  0.2089
  711MOL0     C93758   8.937   9.371   9.291  0.2880  0.3146  0.4347
  711MOL0     C93759   8.826   9.356   9.408 -0.1235  0.2237 -0.5486
  711MOL0     C93760   8.851   9.465   9.518 -0.3047  0.9263  0.8467
  711MOL0     C93761   8.841   9.607   9.464 -0.0761  0.6042 -0.2369
  711MOL0     C93762   8.890   9.709   9.573  0.5228  0.0378  0.4194
  711MOL0     C93763   8.951   9.847   9.516  0.8155 -0.3265 -0.3507
  711MOL0    Cl93764   8.828   9.952   9.427 -0.3589  0.0547 -0.3343
  711MOL0     C93765   9.310   9.426   9.143  0.0769 -0.0294 -0.2462
  711MOL0     C93766   9.432   9.481   9.188 -0.8616  0.9626 -0.5109
  711MOL0     O93767   9.727   9.530   9.127  0.2126  0.2821 -0.0447
  711MOL0     C93768   9.851   9.770   9.236 -0.4824  0.4319  0.1092
  711MOL0     C93769   9.919   9.873   9.302  0.8043 -0.1255 -0.8975
  711MOL0     N93770  10.515  10.291   9.549 -0.3872 -0.1123 -0.3267
  711MOL0     N93771  10.638  10.253   9.527  0.1207 -0.2034 -0.2439
  711MOL0     C93772  10.446   9.945  10.516  0.1835  0.3421  0.5798
  711MOL0     C93773  10.354   9.994  10.613  0.7191 -0.3369  1.0364
  711MOL0     C93774  10.118  10.168  10.917  0.1290 -0.1433  0.2796
  711MOL0     C93775  10.018  10.256  10.859  0.1865 -0.6523 -0.1411
  711MOL0     C93776   9.910  10.296  10.930  0.5862 -1.3454 -0.1390
  711MOL0     C93777   9.891  10.261  11.070 -0.3975 -0.6258 -0.0789
  711MOL0     O93778   9.786  10.309  11.143 -0.1874  0.8678 -0.4410
  711MOL0     C93779   9.779  10.264  11.285 -0.4622  0.6851  0.3061
  711MOL0     C93780   9.711  10.125  11.305 -0.3973 -0.6427 -0.1733
  711MOL0     C93781   9.560  10.124  11.253 -0.1623 -0.2374 -0.1263
  711MOL0     C93782   9.466  10.206  11.344 -0.1795  0.3612  0.0388
  711MOL0     C93783   9.331  10.171  11.300  0.0016 -0.0883 -0.1247
  711MOL0     C93784   9.220  10.149  11.261  0.3188  0.0969 -0.3284
  711MOL0     C93785   9.982  10.166  11.121 -0.2334  0.2491 -0.0719
  711MOL0     C93786  10.091  10.121  11.049  0.2142  0.0548  0.7914
  711MOL0     H93787  10.399  10.326  10.605  3.1009  0.2425 -0.7802
  711MOL0     H93788  10.586  10.246  10.434  1.1095 -1.4081 -1.9570
  711MOL0     H93789  10.821   9.990  10.323  2.0122  1.8716 -1.9032
  711MOL0     H93790  10.786  10.125  10.427  0.8183  0.4665 -0.8595
  711MOL0     H93791  10.843  10.219  10.217 -1.5775  2.6489  0.0337
  711MOL0     H93792  10.685  10.253  10.242  2.7589  2.6459  0.5525
  711MOL0     H93793  10.703  10.168  10.009  1.0354 -1.7160 -0.7580
  711MOL0     H93794  10.632  10.027  10.091  0.0167 -1.0830 -1.1341
  711MOL0     H93795  10.932  10.071  10.061  1.6997 -0.8071 -0.9955
  711MOL0     H93796  10.823   9.935  10.120  0.4747 -0.1806 -0.9419
  711MOL0     H93797  10.779   9.859   9.908 -0.5910 -0.1867  0.7755
  711MOL0     H93798  10.948   9.903   9.907  0.7138  0.2884  4.1435
  711MOL0     H93799  10.918  10.103   9.770 -1.4490  1.3066 -1.3586
  711MOL0     H93800  10.745  10.112   9.804 -0.3426 -0.3334 -1.7937
  711MOL0     H93801  10.885   9.895   9.621 -0.9258 -0.2379 -0.2172
  711MOL0     H93802  10.718   9.887   9.669 -1.6521  1.5835  0.7927
  711MOL0     H93803  10.749   9.979   9.443 -0.3720  1.7610 -1.0154
  711MOL0     H93804  10.849  10.106   9.510  2.6361 -2.8884  1.3282
  711MOL0     H93805  10.502   9.980   9.655  2.3688 -0.9986  2.5650
  711MOL0     H93806  10.263  10.294   9.608  0.6491  1.1682  2.3468
  711MOL0     H93807  10.304  10.224   9.771  1.7084  3.9664 -0.2625
  711MOL0     H93808  10.272  10.006   9.692  1.8394 -1.2522 -2.8280
  711MOL0     H93809  10.233  10.059   9.527 -0.4109 -0.7980 -0.3170
  711MOL0     H93810  10.082  10.130   9.777 -0.6619  2.4802 -0.8299
  711MOL0     H93811  10.036  10.197   9.620 -1.7910  2.2605  4.2320
  711MOL0     H93812   9.910   9.987   9.710 -0.7852  0.5249 -0.8144
  711MOL0     H93813  10.068   9.895   9.668  4.1651  1.4754 -2.7092
  711MOL0     H93814   9.833   9.785   9.617 -0.3174 -0.6129 -0.0436
  711MOL0     H93815   9.728   9.600   9.495  0.3586  0.5452  2.7591
  711MOL0     H93816   9.584   9.213   9.338  0.3465  3.0078  2.7552
  711MOL0     H93817   9.361   9.110   9.254  3.6464 -1.0163  1.3354
  711MOL0     H93818   9.001   9.216   9.003 -3.4314  3.0917 -0.6226
  711MOL0     H93819   9.059   9.380   9.045 -0.8631  0.4220  1.1731
  711MOL0     H93820   8.943   9.164   9.231 -0.0141 -0.1076  0.4699
  711MOL0     H93821   8.834   9.270   9.135  0.9577  2.4579 -0.5418
  711MOL0     H93822   8.915   9.470   9.251 -2.5941  0.5553  2.2648
  711MOL0     H93823   9.037   9.373   9.335  0.2786  0.4510  0.4502
  711MOL0     H93824   8.729   9.380   9.362 -1.2520  1.6766  2.3467
  711MOL0     H93825   8.839   9.255   9.447 -2.3042  0.8429  2.0568
  711MOL0     H93826   8.956   9.461   9.547  0.0478  3.4161  0.1065
  711MOL0     H93827   8.779   9.459   9.601 -1.0674  0.5553  0.1682
  711MOL0     H93828   8.736   9.620   9.436 -0.1347 -2.0135 -1.5081
  711MOL0     H93829   8.916   9.621   9.385 -1.7693 -2.4488 -2.5799
  711MOL0     H93830   8.819   9.719   9.655 -0.2969 -0.7275 -0.1871
  711MOL0     H93831   8.979   9.662   9.617  1.9094 -0.3636 -2.5683
  711MOL0     H93832   9.029   9.821   9.444  0.9334 -1.8489  0.2877
  711MOL0     H93833   8.997   9.914   9.589  1.5575  0.7007 -1.7138
  711MOL0     H93834   9.235   9.468   9.077  1.1969 -2.5249 -3.3428
  711MOL0     H93835   9.446   9.588   9.171  0.8431  0.8694  0.1510
  711MOL0     H93836   9.843   9.783   9.129  1.2668 -0.6300 -0.1939
  711MOL0     H93837   9.965   9.961   9.258  1.2916 -0.3311 -0.8059
  711MOL0     H93838  10.458   9.838  10.502 -3.4544  0.2210 -4.1626
  711MOL0     H93839  10.298   9.931  10.681 -0.0626 -1.5055 -0.6082
  711MOL0     H93840  10.021  10.307  10.764 -2.8391 -0.8294 -0.4225
  711MOL0     H93841   9.840  10.371  10.893  0.3785 -0.9808  0.9572
  711MOL0     H93842   9.718  10.341  11.334 -1.0425  0.2193  0.3299
  711MOL0     H93843   9.881  10.266  11.327 -1.4391  0.0080  2.9254
  711MOL0     H93844   9.767  10.050  11.250  0.2739 -1.8537  2.0573
  711MOL0     H93845   9.715  10.102  11.412 -2.3360 -1.9814 -0.3380
  711MOL0     H93846   9.517  10.024  11.240 -1.5657  0.4190 -0.8981
  711MOL0     H93847   9.557  10.181  11.159  0.2270 -1.0486 -0.6362
  711MOL0     H93848   9.478  10.169  11.447  1.5560  1.7530  0.3876
  711MOL0     H93849   9.480  10.314  11.342  1.2661  0.3215  2.9387
  711MOL0     H93850   9.123  10.130  11.220  1.3198  0.8677 -3.3079
  711MOL0     H93851   9.993  10.132  11.224 -1.1453  0.4261  0.0896
  711MOL0     H93852  10.158  10.047  11.092 -1.5729 -2.1845 -0.0126
  712MOL0     O93853  10.657   9.547   4.549  0.0987  0.0628 -0.1799
  712MOL0     C93854  10.707   9.449   4.608  0.3664  0.0791  0.5415
  712MOL0     O93855  10.652   9.325   4.627  0.3466  0.4112  0.6840
  712MOL0     C93856  10.542   9.284   4.558  0.3063 -0.2116  0.1442
  712MOL0     C93857  10.491   9.335   4.438  0.3673 -0.3762 -0.3206
  712MOL0     C93858  10.366   9.300   4.390 -0.4692  0.0780 -0.5805
  712MOL0     C93859  10.279   9.221   4.470 -0.0236  0.0149 -0.2701
  712MOL0     O93860  10.155   9.193   4.410  0.0550 -0.0880 -0.2833
  712MOL0     C93861  10.040   9.187   4.498  0.1223  0.6190  0.4017
  712MOL0     C93862   9.991   9.323   4.550  0.2691 -0.5484 -0.1916
  712MOL0     C93863   9.943   9.408   4.435 -0.5194 -0.9719 -0.5021
  712MOL0     C93864  10.051   9.481   4.346 -0.5142  0.2941 -0.3701
  712MOL0     C93865   9.991   9.551   4.222  0.1348  0.4524  0.5707
  712MOL0     C93866   9.884   9.656   4.264 -0.0358 -0.3847 -0.3473
  712MOL0     C93867   9.806   9.725   4.147  0.0547 -0.0546  0.5164
  712MOL0     C93868   9.896   9.805   4.057  0.3783 -0.1184 -0.2051
  712MOL0     N93869   9.966   9.915   4.126 -0.1161  0.5742 -0.0367
  712MOL0     C93870   9.938  10.049   4.106  0.3520 -0.6812 -0.5889
  712MOL0     C93871  10.025  10.124   4.181  0.0355  1.0386 -0.1462
  712MOL0     C93872  10.025  10.273   4.187 -0.6831  0.6210 -1.6766
  712MOL0     C93873  10.125  10.335   4.088 -0.0327  0.3049 -0.1999
  712MOL0     C93874  10.083  10.470   4.041 -0.2282 -0.4913  0.2841
  712MOL0     C93875  10.183  10.535   3.933  0.1420  0.1137 -0.8128
  712MOL0     O93876  10.152  10.466   3.807  0.6148 -0.6381 -0.3737
  712MOL0     C93877  10.233  10.508   3.704 -0.7767 -0.1134  0.3510
  712MOL0     C93878  10.192  10.612   3.623  0.1634  0.0860  0.4832
  712MOL0     C93879  10.261  10.641   3.503 -0.1047 -1.2672  0.2525
  712MOL0     C93880  10.381  10.569   3.464  0.2060  0.3776  0.2012
  712MOL0     C93881  10.452  10.592   3.336 -1.1149 -0.7952  0.7955
  712MOL0     O93882  10.395  10.679   3.248  0.7729 -0.2180 -0.4488
  712MOL0     C93883  10.471  10.720   3.138 -0.4551 -1.4345  0.2364
  712MOL0     C93884  10.404  10.751   3.018  0.0770 -1.0603 -0.1077
  712MOL0     C93885  10.480  10.800   2.906 -0.5496 -0.7048  0.1428
  712MOL0     C93886  10.621  10.835   2.918 -0.0518 -0.6087 -0.6808
  712MOL0     O93887  10.701  10.878   2.823  0.0397  0.5053  0.5381
  712MOL0     C93888  10.650  10.927   2.700  0.6300 -0.7898 -0.0066
  712MOL0     C93889  10.757  10.937   2.591 -0.2091 -0.6231  1.1613
  712MOL0     C93890  10.703  10.996   2.452  0.6512  0.2246 -0.9268
  712MOL0     C93891  10.819  11.002   2.353  0.5926  1.0188 -0.4624
  712MOL0     C93892  10.793  11.090   2.233  0.4900  0.2268 -0.2773
  712MOL0     C93893  10.898  11.071   2.114  0.7087  0.0652 -0.0426
  712MOL0     C93894  10.873  11.174   2.001 -0.5162 -0.1433  0.4051
  712MOL0     C93895  10.995  11.165   1.916  0.7059 -0.5012  0.6658
  712MOL0    Cl93896  10.992  11.015   1.817  0.1187 -0.2119  0.1597
  712MOL0     C93897  10.677  10.808   3.042 -0.2526  0.0830 -0.4514
  712MOL0     C93898  10.606  10.753   3.147  0.0565 -0.2865 -1.0068
  712MOL0     O93899  10.553  10.536   3.319 -0.6943 -0.4372 -0.3767
  712MOL0     C93900  10.412  10.460   3.547 -0.4675  0.3745  0.5054
  712MOL0     C93901  10.345  10.431   3.666 -0.2645 -0.0337  0.4809
  712MOL0     N93902  10.112  10.033   4.229 -0.3711 -0.0552  0.1809
  712MOL0     N93903  10.084   9.909   4.194 -0.1428 -0.1900 -0.0416
  712MOL0     C93904  10.323   9.168   4.590 -0.3707  0.3953 -0.1118
  712MOL0     C93905  10.456   9.195   4.634 -0.0577  0.0723  0.3723
  712MOL0     C93906  10.827   9.470   4.690  0.5705 -1.0903  0.7596
  712MOL0     C93907  10.868   9.386   4.788 -0.2505  0.4908  0.0658
  712MOL0     C93908  10.998   9.391   4.841  0.7592 -0.9934  0.3748
  712MOL0     C93909  11.082   9.499   4.812 -0.1404 -0.1693 -0.2935
  712MOL0     O93910  11.208   9.498   4.854 -0.3650 -0.2739  0.5928
  712MOL0     C93911  11.278   9.629   4.843 -0.4555 -0.4145 -0.9547
  712MOL0     C93912  11.397   9.615   4.936 -0.7714 -1.0562  0.0623
  712MOL0     C93913  11.486   9.748   4.940  0.4162  0.4009 -0.2581
  712MOL0     C93914  11.625   9.707   4.968  0.7524 -0.3493 -0.3202
  712MOL0     C93915  11.657   9.642   5.103  0.2830 -0.3775 -0.1676
  712MOL0     C93916  11.689   9.583   5.206 -0.6789 -0.3627  0.8223
  712MOL0     C93917  11.038   9.585   4.709  0.6140 -0.1686  0.9850
  712MOL0     C93918  10.912   9.568   4.649  0.7788  0.0034 -0.4955
  712MOL0     H93919  10.555   9.406   4.386  0.3499  0.0955  0.2866
  712MOL0     H93920  10.340   9.336   4.291 -0.8630 -1.1014 -0.9260
  712MOL0     H93921  10.071   9.121   4.579 -2.1297 -0.0090  0.8221
  712MOL0     H93922   9.953   9.138   4.453 -0.9983  0.8144  2.2554
  712MOL0     H93923  10.068   9.379   4.604 -1.3141  1.0285  0.5316
  712MOL0     H93924   9.904   9.313   4.615 -2.0148 -4.5245 -3.3230
  712MOL0     H93925   9.876   9.485   4.476  1.1732 -1.3406  3.3010
  712MOL0     H93926   9.882   9.338   4.376 -1.4086 -2.1307  1.6771
  712MOL0     H93927  10.108   9.558   4.398 -0.9989  1.5213 -1.5852
  712MOL0     H93928  10.118   9.401   4.316  1.2926  1.1965  1.0913
  712MOL0     H93929   9.942   9.479   4.155  2.1595 -1.9247  1.5096
  712MOL0     H93930  10.064   9.606   4.162  1.7968  0.2450  2.3357
  712MOL0     H93931   9.929   9.726   4.335 -2.5127 -1.4879  2.5155
  712MOL0     H93932   9.804   9.600   4.312 -0.6169  0.1863 -0.6358
  712MOL0     H93933   9.748   9.656   4.084  1.3099 -0.1534 -0.5777
  712MOL0     H93934   9.733   9.787   4.199 -0.8485 -1.1846  0.6478
  712MOL0     H93935   9.833   9.839   3.974  0.3587 -0.1199 -0.1914
  712MOL0     H93936   9.972   9.743   4.007 -0.7096  0.0903 -2.2409
  712MOL0     H93937   9.854  10.097   4.056 -0.2853  0.7744  1.7091
  712MOL0     H93938  10.046  10.298   4.291 -1.3623  0.2546 -1.4406
  712MOL0     H93939   9.923  10.308   4.164 -0.6129  4.4211  2.4771
  712MOL0     H93940  10.139  10.267   4.004  3.6796  0.8094 -0.1893
  712MOL0     H93941  10.223  10.347   4.136 -0.4255 -0.5327  0.8433
  712MOL0     H93942   9.985  10.459   3.994  0.2103  4.0981 -2.2802
  712MOL0     H93943  10.083  10.531   4.132  0.8335  0.2990 -0.2337
  712MOL0     H93944  10.284  10.511   3.966  1.0871  0.1858 -3.3847
  712MOL0     H93945  10.165  10.642   3.922  0.4376  0.4257  1.4352
  712MOL0     H93946  10.095  10.653   3.648 -0.4615 -0.5383 -0.7908
  712MOL0     H93947  10.219  10.712   3.434 -0.0168 -0.5998  0.8759
  712MOL0     H93948  10.300  10.717   3.017 -0.7494  1.2851 -1.7958
  712MOL0     H93949  10.423  10.809   2.814 -0.0997 -0.0064 -0.0736
  712MOL0     H93950  10.595  11.021   2.710  3.1012  0.7667 -0.2314
  712MOL0     H93951  10.588  10.844   2.661 -0.1378  0.0360 -0.5930
  712MOL0     H93952  10.793  10.837   2.563  0.5533 -0.3063  1.0073
  712MOL0     H93953  10.834  11.004   2.631 -0.3878  1.6787 -2.0015
  712MOL0     H93954  10.648  11.088   2.472  1.1731  0.2245  0.6616
  712MOL0     H93955  10.626  10.929   2.412  0.5439 -2.5205  3.2432
  712MOL0     H93956  10.910  11.028   2.407  0.0802  0.3112  0.7728
  712MOL0     H93957  10.833  10.897   2.324 -0.2655  1.2860 -1.9784
  712MOL0     H93958  10.810  11.192   2.268  0.3626  1.2165 -2.9183
  712MOL0     H93959  10.687  11.088   2.207 -0.0939  0.3451  1.8518
  712MOL0     H93960  10.887  10.966   2.085 -2.3835  0.8390 -2.2574
  712MOL0     H93961  10.994  11.090   2.162  0.8966 -3.8600  1.4563
  712MOL0     H93962  10.785  11.148   1.942  0.4583  1.1892 -1.7237
  712MOL0     H93963  10.864  11.273   2.047  1.5537  0.4052 -0.2691
  712MOL0     H93964  11.079  11.166   1.986  2.3536 -1.0108 -1.2154
  712MOL0     H93965  11.006  11.251   1.849 -0.8262 -0.6892  0.1308
  712MOL0     H93966  10.784  10.819   3.055  0.1050 -1.9631 -1.2722
  712MOL0     H93967  10.665  10.733   3.236 -0.2498 -0.2125 -0.7864
  712MOL0     H93968  10.488  10.391   3.512 -0.8165 -0.0230  0.5157
  712MOL0     H93969  10.366  10.340   3.720 -0.9701 -1.0234 -0.8411
  712MOL0     H93970  10.250   9.109   4.645 -2.0303  1.2640 -1.3012
  712MOL0     H93971  10.483   9.150   4.729 -3.2831 -2.8798  0.0842
  712MOL0     H93972  10.800   9.306   4.818 -0.6280  0.0460 -1.8471
  712MOL0     H93973  11.032   9.320   4.916  3.1200 -1.2548 -0.8619
  712MOL0     H93974  11.218   9.710   4.886  1.9062  0.6374  0.5743
  712MOL0     H93975  11.313   9.650   4.741 -0.4210 -1.6216 -1.2059
  712MOL0     H93976  11.379   9.591   5.041  2.3399 -1.3332  0.6286
  712MOL0     H93977  11.458   9.532   4.900  1.5500  0.1859  0.9451
  712MOL0     H93978  11.454   9.811   5.023  2.2513  0.1622  0.6745
  712MOL0     H93979  11.485   9.801   4.844  1.4334  2.4885  0.8156
  712MOL0     H93980  11.666   9.641   4.891  1.1502 -0.1931 -0.2484
  712MOL0     H93981  11.679   9.802   4.963  0.5953 -0.1481  1.2101
  712MOL0     H93982  11.712   9.519   5.289  0.8428  1.8282  2.2105
  712MOL0     H93983  11.105   9.654   4.659 -0.7453  1.4144  1.2525
  712MOL0     H93984  10.890   9.637   4.567  2.1277 -1.3214 -2.0308
  713MOL0     O93985   0.667   7.734   6.460  0.0556 -0.1885  0.5001
  713MOL0     C93986   0.706   7.793   6.557  1.1366  0.8719  0.0365
  713MOL0     O93987   0.624   7.836   6.666  1.1141 -0.0519  0.0918
  713MOL0     C93988   0.501   7.764   6.679  0.3008 -0.0587 -0.3344
  713MOL0     C93989   0.515   7.627   6.709 -0.0769 -0.9886  0.3680
  713MOL0     C93990   0.405   7.539   6.712  0.3616  0.2991  0.1505
  713MOL0     C93991   0.277   7.581   6.687  0.4737 -0.7562 -0.3286
  713MOL0     O93992   0.169   7.505   6.710 -0.6032  0.0271 -0.0201
  713MOL0     C93993   0.148   7.403   6.611 -0.0783  0.1280  0.3236
  713MOL0     C93994   0.074   7.293   6.678  0.6526  0.2906 -0.4411
  713MOL0     C93995   0.152   7.217   6.793 -0.2971 -0.2140  0.2676
  713MOL0     C93996   0.061   7.123   6.870  0.1547 -0.0047 -0.7428
  713MOL0     C93997   0.120   7.055   6.996  0.4110  0.4649  0.8983
  713MOL0     C93998   0.257   6.990   6.977  0.8105  0.0804 -0.1899
  713MOL0     C93999   0.258   6.875   6.866 -0.1742 -0.4209 -0.1151
  713MOL0     C94000   0.139   6.775   6.871  0.2853 -0.2809 -0.6557
  713MOL0     N94001   0.154   6.691   6.993  0.3160 -0.8418 -0.1203
  713MOL0     C94002   0.200   6.562   7.000 -0.3560  0.3758  0.2758
  713MOL0     C94003   0.192   6.525   7.137 -0.5766  0.2013 -1.0225
  713MOL0     C94004   0.234   6.400   7.204  0.1655 -0.4424 -0.0514
  713MOL0     C94005   0.124   6.293   7.189 -0.1887 -0.1409 -0.6067
  713MOL0     C94006   0.172   6.160   7.237 -0.1394  1.0170 -0.1858
  713MOL0     C94007   0.050   6.055   7.240  0.1632  0.6333 -0.3738
  713MOL0     O94008  -0.045   6.079   7.344 -0.3277 -0.0815  0.3441
  713MOL0     C94009  -0.162   6.145   7.327  0.2740 -0.0238  0.7161
  713MOL0     C94010  -0.191   6.207   7.205  0.8917  0.0426  0.6878
  713MOL0     C94011  -0.309   6.289   7.206 -0.5032  0.0309  0.2200
  713MOL0     C94012  -0.395   6.306   7.318  0.6696 -0.5943 -0.1568
  713MOL0     C94013  -0.517   6.390   7.312 -0.3008  0.7432 -0.2357
  713MOL0     O94014  -0.630   6.353   7.394 -0.6071 -0.2958  0.0107
  713MOL0     C94015  -0.745   6.426   7.379  0.0323 -0.2369  0.2953
  713MOL0     C94016  -0.791   6.470   7.254  0.7651 -0.1588  0.3370
  713MOL0     C94017  -0.919   6.530   7.235  0.0113 -0.6629 -1.3822
  713MOL0     C94018  -1.001   6.545   7.348  0.2595 -0.7233 -0.9713
  713MOL0     O94019  -1.117   6.613   7.330 -0.0909 -0.2513  0.0286
  713MOL0     C94020  -1.124   6.738   7.392  0.5876 -0.4143 -0.1077
  713MOL0     C94021  -1.268   6.777   7.422  0.9338  0.0821 -0.1000
  713MOL0     C94022  -1.295   6.918   7.455  1.0695 -0.4092  0.1532
  713MOL0     C94023  -1.449   6.936   7.460  0.1147 -0.5149 -0.5396
  713MOL0     C94024  -1.496   7.081   7.495 -0.4848  0.1487 -0.8005
  713MOL0     C94025  -1.649   7.086   7.481  0.6220  0.3816  0.5319
  713MOL0     C94026  -1.700   7.233   7.502 -0.1154  0.4612 -0.4993
  713MOL0     C94027  -1.852   7.226   7.469 -0.3683 -0.1401  0.2948
  713MOL0    Cl94028  -1.951   7.360   7.539 -0.2176  0.2240  0.0492
  713MOL0     C94029  -0.956   6.498   7.472 -0.2971 -0.3202 -0.2743
  713MOL0     C94030  -0.830   6.432   7.483  0.6089  0.5160  0.4609
  713MOL0     O94031  -0.511   6.484   7.237  0.2422 -0.1262 -0.3379
  713MOL0     C94032  -0.358   6.244   7.436  0.4706 -0.2046 -0.7497
  713MOL0     C94033  -0.239   6.163   7.444  0.0384 -0.4213 -0.3619
  713MOL0     N94034   0.151   6.638   7.205  0.4605  0.3015 -0.1966
  713MOL0     N94035   0.109   6.727   7.126  0.3049 -0.9716  0.2362
  713MOL0     C94036   0.264   7.723   6.666  0.1010 -0.0823 -0.0769
  713MOL0     C94037   0.370   7.811   6.663 -0.3435 -0.3181 -0.3138
  713MOL0     C94038   0.848   7.833   6.562 -0.4286  0.1588  0.1481
  713MOL0     C94039   0.913   7.866   6.681 -0.5497 -0.1272  0.2980
  713MOL0     C94040   1.040   7.916   6.672 -0.4181  0.2871  0.8009
  713MOL0     C94041   1.123   7.928   6.560 -0.3363  0.5468  0.2935
  713MOL0     O94042   1.244   7.991   6.566 -0.0283 -0.0825 -0.3081
  713MOL0     C94043   1.339   7.998   6.449  0.7090  0.4969  0.0889
  713MOL0     C94044   1.462   8.070   6.497 -0.9791  0.6765 -0.7547
  713MOL0     C94045   1.538   7.989   6.603 -0.1692  0.2835 -0.5271
  713MOL0     C94046   1.684   8.042   6.606 -0.0970 -0.8438  0.1666
  713MOL0     C94047   1.766   7.988   6.716 -1.0043 -0.1270 -0.0502
  713MOL0     C94048   1.847   7.929   6.783  0.3536  0.0890  0.2520
  713MOL0     C94049   1.060   7.895   6.444  0.1408  0.1902 -0.2075
  713MOL0     C94050   0.929   7.848   6.443  0.0997 -0.0658 -0.3156
  713MOL0     H94051   0.617   7.596   6.728  0.6178 -0.5583 -2.2425
  713MOL0     H94052   0.414   7.436   6.746 -1.3845  0.5923  1.6893
  713MOL0     H94053   0.243   7.359   6.577 -0.2394 -0.5361  0.7228
  713MOL0     H94054   0.101   7.434   6.517  2.2410 -1.0067 -1.3368
  713MOL0     H94055   0.037   7.218   6.607 -0.4637 -0.0460  0.4615
  713MOL0     H94056  -0.023   7.328   6.716 -1.3917 -1.4313 -3.6145
  713MOL0     H94057   0.186   7.299   6.857 -1.2046  1.9493 -1.8710
  713MOL0     H94058   0.245   7.169   6.764 -0.8529  0.0307 -2.1032
  713MOL0     H94059  -0.031   7.177   6.894  0.4025  0.6206 -1.1913
  713MOL0     H94060   0.029   7.039   6.807  1.0320 -0.7563 -0.2108
  713MOL0     H94061   0.047   6.976   7.017 -1.1845 -0.4842 -5.8436
  713MOL0     H94062   0.119   7.117   7.086 -3.1726  1.3541  0.3951
  713MOL0     H94063   0.289   6.962   7.078 -0.1504  0.1629  0.1512
  713MOL0     H94064   0.324   7.071   6.948  1.1326  0.1979  0.8279
  713MOL0     H94065   0.254   6.924   6.769 -0.7048 -2.7544 -1.3506
  713MOL0     H94066   0.352   6.819   6.874 -0.3084 -0.6640 -0.2264
  713MOL0     H94067   0.138   6.713   6.781  0.0088 -0.0806 -0.7915
  713MOL0     H94068   0.041   6.822   6.862 -0.2339 -1.5770 -2.3089
  713MOL0     H94069   0.239   6.515   6.911  0.3598 -1.4764  1.5061
  713MOL0     H94070   0.246   6.420   7.311  1.9137  1.7206 -0.5853
  713MOL0     H94071   0.327   6.365   7.158 -0.4819  1.2947 -2.9065
  713MOL0     H94072   0.078   6.293   7.090  0.1410  3.1476 -0.8889
  713MOL0     H94073   0.038   6.315   7.253 -0.6770 -3.2723 -0.0187
  713MOL0     H94074   0.240   6.121   7.160 -1.4854  0.4820 -1.1513
  713MOL0     H94075   0.217   6.163   7.336  0.1665 -1.0326 -0.2234
  713MOL0     H94076   0.096   5.958   7.261  0.1028  1.1643  2.4992
  713MOL0     H94077  -0.002   6.045   7.144 -0.1126 -1.1459 -0.0756
  713MOL0     H94078  -0.135   6.212   7.113  0.3833  2.5177  0.4574
  713MOL0     H94079  -0.347   6.340   7.118 -1.5243  1.7523  1.5978
  713MOL0     H94080  -0.724   6.456   7.169  0.7761  3.3998 -0.3972
  713MOL0     H94081  -0.951   6.576   7.142 -0.7918  0.2290 -0.6837
  713MOL0     H94082  -1.068   6.812   7.335 -1.0845  0.8992 -0.1082
  713MOL0     H94083  -1.070   6.735   7.487 -1.1412  0.5217  0.9575
  713MOL0     H94084  -1.299   6.713   7.505  2.3155  0.7363  0.9690
  713MOL0     H94085  -1.321   6.753   7.329  2.0415 -0.0625 -0.7057
  713MOL0     H94086  -1.265   6.985   7.374  0.3056  1.4916  1.3800
  713MOL0     H94087  -1.242   6.937   7.548  2.3265 -4.0734  0.3468
  713MOL0     H94088  -1.502   6.903   7.370 -2.0125  0.5238  0.2622
  713MOL0     H94089  -1.484   6.871   7.540 -2.2005  2.9114  1.4959
  713MOL0     H94090  -1.454   7.159   7.431  1.5501 -0.0335  0.2368
  713MOL0     H94091  -1.473   7.101   7.600  2.6867  0.7052 -1.5265
  713MOL0     H94092  -1.691   7.020   7.557 -1.1305 -1.5577 -1.9360
  713MOL0     H94093  -1.680   7.067   7.378  1.8933  1.1981 -0.0330
  713MOL0     H94094  -1.690   7.268   7.605  0.0075  0.1037 -0.3881
  713MOL0     H94095  -1.642   7.297   7.435 -0.3738  1.9864  0.6597
  713MOL0     H94096  -1.891   7.136   7.519  0.8030 -1.0356 -0.3532
  713MOL0     H94097  -1.872   7.222   7.362 -1.3893 -0.9618  0.4958
  713MOL0     H94098  -1.020   6.517   7.558 -0.1246  1.0413 -0.4197
  713MOL0     H94099  -0.803   6.379   7.574 -2.3076  0.9546  1.6925
  713MOL0     H94100  -0.425   6.258   7.520  0.0683 -0.2624 -1.0607
  713MOL0     H94101  -0.208   6.123   7.540  0.6952  2.3146  0.6654
  713MOL0     H94102   0.162   7.760   6.667 -0.1517 -0.5410  3.3169
  713MOL0     H94103   0.361   7.919   6.655  1.3664 -0.1725 -0.9309
  713MOL0     H94104   0.869   7.849   6.778 -0.4985  0.3372  0.4046
  713MOL0     H94105   1.092   7.952   6.761  1.5749  1.1641 -0.6527
  713MOL0     H94106   1.291   8.064   6.376  1.0051 -0.8201 -1.3542
  713MOL0     H94107   1.362   7.902   6.402  0.4863  0.2547  0.4663
  713MOL0     H94108   1.532   8.083   6.414  1.8112  1.2703  1.5526
  713MOL0     H94109   1.440   8.172   6.529 -0.7051  0.5559 -0.1744
  713MOL0     H94110   1.541   7.880   6.594  0.6384  0.1435  1.0032
  713MOL0     H94111   1.493   8.014   6.700  0.2651  0.1857 -0.3020
  713MOL0     H94112   1.725   8.018   6.508 -0.5423  0.6028 -0.4022
  713MOL0     H94113   1.682   8.149   6.629  0.4939 -0.1494 -2.5881
  713MOL0     H94114   1.940   7.881   6.806  0.4440 -0.6910 -1.5451
  713MOL0     H94115   1.119   7.900   6.353  1.9615  1.7681  0.9732
  713MOL0     H94116   0.901   7.814   6.344  1.7262 -1.1960 -0.4282
  714MOL0     O94117   0.754   3.367   2.004 -0.2716  0.5118  0.2346
  714MOL0     C94118   0.763   3.280   1.919  0.3934  0.4603  0.9147
  714MOL0     O94119   0.655   3.220   1.857  0.3717  0.3526 -0.5687
  714MOL0     C94120   0.538   3.274   1.900  0.4643  0.1443  0.2795
  714MOL0     C94121   0.471   3.377   1.824  0.4817 -0.0031  0.2544
  714MOL0     C94122   0.357   3.435   1.874 -0.3462  0.6079 -0.6094
  714MOL0     C94123   0.309   3.389   1.997 -0.2198  0.7046 -0.9464
  714MOL0     O94124   0.190   3.428   2.052  0.0266 -0.0785 -0.4509
  714MOL0     C94125   0.131   3.552   1.999 -0.7630  0.1580  0.0526
  714MOL0     C94126   0.017   3.591   2.091  0.2781 -0.6106  0.6211
  714MOL0     C94127  -0.008   3.744   2.079  0.0324 -0.6030 -0.1111
  714MOL0     C94128  -0.124   3.804   2.163  1.2428 -0.8741 -0.4147
  714MOL0     C94129  -0.263   3.761   2.117  0.2550  0.5101  0.1408
  714MOL0     C94130  -0.369   3.858   2.177  0.2262 -0.1800 -0.4917
  714MOL0     C94131  -0.517   3.824   2.142  0.1909  0.6755 -0.5043
  714MOL0     C94132  -0.545   3.864   1.995 -1.1107 -0.6741 -0.9109
  714MOL0     N94133  -0.675   3.858   1.947  0.0711 -1.3280  0.7013
  714MOL0     C94134  -0.760   3.971   1.924 -0.8780  0.2106  0.7439
  714MOL0     C94135  -0.857   3.927   1.841 -0.4914 -0.0181  0.1756
  714MOL0     C94136  -0.962   4.008   1.782  0.1415  0.3294  0.0959
  714MOL0     C94137  -1.078   4.033   1.877  0.0072 -0.4568 -0.2174
  714MOL0     C94138  -1.206   3.957   1.842 -1.2122  0.3111 -0.3384
  714MOL0     C94139  -1.290   4.017   1.732 -0.3030  0.3193  0.1717
  714MOL0     O94140  -1.399   3.925   1.702 -0.2956 -0.7643 -0.5232
  714MOL0     C94141  -1.514   3.982   1.663 -0.4796  0.0281  0.4117
  714MOL0     C94142  -1.529   4.112   1.611  0.3132 -0.0981  0.2434
  714MOL0     C94143  -1.651   4.160   1.562  0.5726 -0.9903 -0.8882
  714MOL0     C94144  -1.768   4.073   1.563  0.1848 -0.5464  0.6190
  714MOL0     C94145  -1.900   4.126   1.514 -0.4752  0.3150 -0.0793
  714MOL0     O94146  -1.987   4.031   1.485 -0.0640  0.2867 -0.0918
  714MOL0     C94147  -2.113   4.065   1.439 -0.2020  0.1207 -0.0276
  714MOL0     C94148  -2.229   4.042   1.528 -0.2829  0.0322  0.3351
  714MOL0     C94149  -2.365   4.065   1.482 -0.6427 -0.5064  0.2544
  714MOL0     C94150  -2.383   4.102   1.347  0.3896 -0.3165  0.0495
  714MOL0     O94151  -2.509   4.114   1.288 -0.5548 -0.5242  0.4147
  714MOL0     C94152  -2.632   4.100   1.368 -0.3127  0.5230  0.6489
  714MOL0     C94153  -2.766   4.119   1.299 -0.9556 -0.4598 -0.3960
  714MOL0     C94154  -2.879   4.119   1.400 -0.1248  0.4221 -0.0868
  714MOL0     C94155  -3.013   4.095   1.326  0.1587  0.5883  0.1748
  714MOL0     C94156  -3.135   4.091   1.405 -0.6642 -0.1886 -0.1717
  714MOL0     C94157  -3.267   4.063   1.331  0.2935  0.8184  0.4346
  714MOL0     C94158  -3.310   4.172   1.229  0.0015  0.0349 -0.2666
  714MOL0     C94159  -3.416   4.123   1.132  0.7039  0.4157  0.1814
  714MOL0    Cl94160  -3.547   4.038   1.212  0.0467 -0.0560 -0.2984
  714MOL0     C94161  -2.271   4.134   1.270  0.4590  0.5664 -0.3186
  714MOL0     C94162  -2.136   4.124   1.316 -0.1968 -0.0704 -0.1093
  714MOL0     O94163  -1.907   4.247   1.493 -0.3307 -0.0436 -0.0507
  714MOL0     C94164  -1.753   3.936   1.609 -0.2759  0.3055 -1.0474
  714MOL0     C94165  -1.627   3.902   1.658 -0.1657 -0.5114 -0.5801
  714MOL0     N94166  -0.825   3.797   1.806 -0.4445  0.5817 -0.1830
  714MOL0     N94167  -0.720   3.757   1.873  0.4900 -0.0893  0.5461
  714MOL0     C94168   0.378   3.297   2.077 -0.2369 -0.2895  0.3624
  714MOL0     C94169   0.491   3.233   2.027  0.2909  0.7007  0.5825
  714MOL0     C94170   0.897   3.249   1.867 -0.8188  0.1340  0.8963
  714MOL0     C94171   0.918   3.190   1.744  0.3062 -0.6122  0.2382
  714MOL0     C94172   1.047   3.181   1.697 -0.4902  0.3738 -0.8612
  714MOL0     C94173   1.162   3.213   1.769 -0.0285  0.3312 -0.0036
  714MOL0     O94174   1.293   3.205   1.711  0.5465 -0.2181  0.3963
  714MOL0     C94175   1.415   3.242   1.782 -0.0340 -0.5660 -0.3546
  714MOL0     C94176   1.535   3.248   1.685 -0.4472  0.2154 -0.0367
  714MOL0     C94177   1.662   3.289   1.752 -0.3975 -1.1672  0.0400
  714MOL0     C94178   1.774   3.308   1.648  0.4548  0.4234 -0.1599
  714MOL0     C94179   1.892   3.360   1.710 -0.7606 -1.0758 -0.2938
  714MOL0     C94180   2.004   3.393   1.750  0.6455 -0.8194 -0.8722
  714MOL0     C94181   1.143   3.268   1.891  0.0993  0.8583  0.6876
  714MOL0     C94182   1.014   3.286   1.939  0.6831 -0.4701  0.2035
  714MOL0     H94183   0.510   3.424   1.734 -0.8754  0.0377 -0.3276
  714MOL0     H94184   0.303   3.493   1.800 -0.7090  2.9368  1.3376
  714MOL0     H94185   0.105   3.535   1.894  1.1729  2.4859 -0.9203
  714MOL0     H94186   0.204   3.633   1.987 -0.8961  0.2203 -0.3633
  714MOL0     H94187   0.033   3.567   2.197  1.3846  3.2129  1.4949
  714MOL0     H94188  -0.069   3.533   2.058 -0.7652  0.7042  0.9130
  714MOL0     H94189  -0.032   3.766   1.975 -0.2917 -2.1677 -0.3873
  714MOL0     H94190   0.086   3.792   2.108 -0.3035 -1.1999  2.1986
  714MOL0     H94191  -0.108   3.781   2.269  0.5988 -1.7767 -0.5080
  714MOL0     H94192  -0.123   3.914   2.158  1.3309 -0.4567  4.3965
  714MOL0     H94193  -0.282   3.665   2.165 -2.3001 -0.2975 -2.2169
  714MOL0     H94194  -0.263   3.757   2.007  0.3079 -0.4056  0.1729
  714MOL0     H94195  -0.346   3.961   2.147 -0.9357 -0.0458 -0.9757
  714MOL0     H94196  -0.355   3.849   2.286 -4.8471 -0.2179  0.3943
  714MOL0     H94197  -0.544   3.720   2.163 -0.4523  0.8541 -0.4128
  714MOL0     H94198  -0.585   3.879   2.208 -0.1813 -0.0222 -0.2966
  714MOL0     H94199  -0.479   3.807   1.928  1.7190  0.2393  0.9201
  714MOL0     H94200  -0.514   3.968   1.979 -2.0680 -0.2077  0.1183
  714MOL0     H94201  -0.732   4.071   1.956  2.2347 -0.2079 -0.3525
  714MOL0     H94202  -1.008   3.959   1.695 -0.7208  1.9515 -0.4045
  714MOL0     H94203  -0.925   4.105   1.747 -0.1805  0.3417 -0.2209
  714MOL0     H94204  -1.104   4.139   1.885  0.0043 -0.5703  2.0780
  714MOL0     H94205  -1.044   4.002   1.976  1.4144  0.4305 -0.3912
  714MOL0     H94206  -1.167   3.856   1.822  1.1785  1.3539 -1.4353
  714MOL0     H94207  -1.267   3.961   1.933 -1.0211  1.6421 -0.2528
  714MOL0     H94208  -1.222   4.025   1.647  1.3645  1.2071  1.5414
  714MOL0     H94209  -1.323   4.117   1.761  1.4761  0.6501  1.1382
  714MOL0     H94210  -1.453   4.190   1.609 -0.6097  0.8946  1.5536
  714MOL0     H94211  -1.653   4.266   1.538  1.1163 -1.1576 -1.6797
  714MOL0     H94212  -2.222   3.984   1.620  0.8689 -3.3282 -1.6861
  714MOL0     H94213  -2.451   4.056   1.549 -0.9716 -1.8094 -0.3069
  714MOL0     H94214  -2.628   4.172   1.450  1.7059  1.6844 -0.3798
  714MOL0     H94215  -2.628   3.997   1.404  2.7882  0.2803 -0.0705
  714MOL0     H94216  -2.777   4.041   1.223  1.5288  1.7797 -3.3630
  714MOL0     H94217  -2.750   4.213   1.245  1.2257 -0.9537 -0.7409
  714MOL0     H94218  -2.874   4.218   1.448  0.7607  1.3318 -1.9525
  714MOL0     H94219  -2.860   4.047   1.479 -0.9510  0.1541 -0.1214
  714MOL0     H94220  -3.031   4.175   1.254 -1.5328 -0.0747 -0.1975
  714MOL0     H94221  -3.007   4.006   1.263 -2.0814 -0.4455  1.2745
  714MOL0     H94222  -3.138   4.189   1.453  0.1844  1.7293 -3.7101
  714MOL0     H94223  -3.125   4.015   1.483  2.2139 -1.5313 -1.7058
  714MOL0     H94224  -3.344   4.053   1.409 -0.3818  1.0159 -0.1942
  714MOL0     H94225  -3.261   3.967   1.279  1.5085  1.8813 -1.5062
  714MOL0     H94226  -3.331   4.261   1.289 -1.0065 -0.1463 -0.3402
  714MOL0     H94227  -3.217   4.191   1.175  0.2732  0.3683  0.2990
  714MOL0     H94228  -3.378   4.063   1.048  1.9564  0.3078  0.8070
  714MOL0     H94229  -3.458   4.211   1.082  3.3302  0.1771 -2.7586
  714MOL0     H94230  -2.268   4.175   1.170 -1.8107  0.1685 -0.5913
  714MOL0     H94231  -2.053   4.150   1.252 -1.1265  1.8303 -0.6285
  714MOL0     H94232  -1.841   3.873   1.606 -1.2398  1.6117 -0.7685
  714MOL0     H94233  -1.618   3.803   1.701 -2.0712  0.3179  1.9544
  714MOL0     H94234   0.342   3.270   2.175 -0.3318 -0.3590  0.3092
  714MOL0     H94235   0.543   3.159   2.086  0.7428 -1.1795 -2.0263
  714MOL0     H94236   0.828   3.164   1.689 -0.6502  0.6954  1.1151
  714MOL0     H94237   1.056   3.154   1.592 -1.6412 -1.8169 -0.4582
  714MOL0     H94238   1.436   3.170   1.862  0.5192  0.2925  0.2881
  714MOL0     H94239   1.397   3.332   1.842 -0.6832 -0.6195 -0.4623
  714MOL0     H94240   1.554   3.153   1.636 -2.5813 -0.3790  0.1885
  714MOL0     H94241   1.506   3.323   1.610 -0.1251  2.8499  2.2915
  714MOL0     H94242   1.684   3.217   1.831  0.2698  1.2493  2.2187
  714MOL0     H94243   1.643   3.381   1.809  1.6198 -1.2025  0.8322
  714MOL0     H94244   1.796   3.210   1.603  2.0417 -0.0985  1.6162
  714MOL0     H94245   1.741   3.392   1.586 -0.8066  1.1346  1.4096
  714MOL0     H94246   2.092   3.445   1.782 -0.7614  0.1183  1.8787
  714MOL0     H94247   1.230   3.292   1.952  0.8106 -1.7486  0.8281
  714MOL0     H94248   0.995   3.334   2.035 -1.0627  4.1031 -2.1079
  715MOL0     O94249  10.847   5.658   3.192 -0.2011  0.7693  0.3762
  715MOL0     C94250  10.940   5.598   3.236 -0.2208 -0.7648 -1.1892
  715MOL0     O94251  10.939   5.472   3.279 -0.0481  0.8224  0.3346
  715MOL0     C94252  10.843   5.376   3.284  0.2664 -0.3168 -0.1835
  715MOL0     C94253  10.857   5.272   3.379 -0.6172 -0.0914  0.4333
  715MOL0     C94254  10.758   5.181   3.399  0.5800  0.5876  1.1272
  715MOL0     C94255  10.641   5.188   3.315 -0.1658  0.0189  0.0900
  715MOL0     O94256  10.552   5.083   3.332 -1.1165 -0.2919 -0.1847
  715MOL0     C94257  10.509   5.063   3.465 -0.3549 -0.1609  0.1733
  715MOL0     C94258  10.368   5.011   3.458  0.1000 -0.1843 -0.0492
  715MOL0     C94259  10.313   4.986   3.600 -0.9312  0.0528 -0.0406
  715MOL0     C94260  10.170   4.934   3.583 -0.0599 -0.5123 -0.4771
  715MOL0     C94261  10.110   4.884   3.718  0.2235  0.0245 -0.3030
  715MOL0     C94262   9.975   4.812   3.700 -0.3864 -0.0723  0.0147
  715MOL0     C94263   9.905   4.760   3.828  0.0025 -0.8143 -1.3120
  715MOL0     C94264   9.754   4.733   3.804 -0.7491 -0.6724  0.1546
  715MOL0     N94265   9.681   4.663   3.910 -0.1422  0.9921 -0.3467
  715MOL0     C94266   9.586   4.563   3.894 -0.5624 -0.0809 -0.0122
  715MOL0     C94267   9.550   4.518   4.015  0.4989 -0.4161 -0.6786
  715MOL0     C94268   9.441   4.406   4.044 -0.7498 -0.2486 -0.5802
  715MOL0     C94269   9.308   4.472   4.088  0.0030  0.0471 -0.0421
  715MOL0     C94270   9.245   4.580   3.994 -0.2208 -0.5642  0.0971
  715MOL0     C94271   9.092   4.588   4.010 -0.3536  0.2739  0.1549
  715MOL0     O94272   9.030   4.466   3.954  0.7407 -0.1813  0.5902
  715MOL0     C94273   8.894   4.443   3.971 -0.7631 -0.6933  0.0234
  715MOL0     C94274   8.812   4.516   4.059 -0.1627  0.4354 -0.2392
  715MOL0     C94275   8.679   4.482   4.071  0.5861 -1.1328 -0.3241
  715MOL0     C94276   8.623   4.377   3.994 -0.7969  0.4175  0.6455
  715MOL0     C94277   8.473   4.361   3.996 -0.2798  0.2081 -0.1581
  715MOL0     O94278   8.395   4.450   4.075  0.9793 -0.2031 -0.7805
  715MOL0     C94279   8.257   4.439   4.060  0.2029  0.4623 -0.3456
  715MOL0     C94280   8.177   4.429   4.175  0.4613  0.6871 -0.2476
  715MOL0     C94281   8.037   4.424   4.165 -0.6380  1.0756  0.1030
  715MOL0     C94282   7.971   4.411   4.042 -0.5287  0.0303  0.4486
  715MOL0     O94283   7.835   4.396   4.026 -0.2682 -0.4102 -0.6520
  715MOL0     C94284   7.755   4.389   4.142 -0.3787 -0.4911  0.2955
  715MOL0     C94285   7.609   4.358   4.104  0.1895 -0.5526 -0.3971
  715MOL0     C94286   7.520   4.394   4.215  0.1150 -0.7229 -0.0857
  715MOL0     C94287   7.380   4.332   4.211 -0.1662  0.3515 -0.3256
  715MOL0     C94288   7.368   4.181   4.196  0.5623 -0.5631 -0.8444
  715MOL0     C94289   7.221   4.130   4.198 -0.1008  0.0268 -0.2651
  715MOL0     C94290   7.206   3.981   4.233  0.9228  0.6333  0.9038
  715MOL0     C94291   7.157   3.960   4.374 -0.7272 -0.0351 -1.2496
  715MOL0    Cl94292   6.986   3.906   4.376 -0.0440 -0.4285 -0.0929
  715MOL0     C94293   8.046   4.414   3.925 -0.8023 -0.9445 -0.3126
  715MOL0     C94294   8.192   4.440   3.931  0.7643  0.2535  0.1179
  715MOL0     O94295   8.417   4.272   3.923  0.4589 -0.1638 -0.2981
  715MOL0     C94296   8.708   4.312   3.903  0.2542 -0.2334 -0.2262
  715MOL0     C94297   8.842   4.336   3.899  0.6032  0.3407 -0.4287
  715MOL0     N94298   9.606   4.608   4.110 -0.1664  0.1645  0.3928
  715MOL0     N94299   9.692   4.687   4.050  0.0158 -0.7933  0.6841
  715MOL0     C94300  10.632   5.280   3.210 -0.0792 -0.2147  0.6803
  715MOL0     C94301  10.731   5.380   3.192  0.5614  0.1303 -0.7042
  715MOL0     C94302  11.061   5.695   3.242 -0.0127  0.9714 -0.1594
  715MOL0     C94303  11.069   5.820   3.168 -0.2921  0.7158  0.6741
  715MOL0     C94304  11.186   5.895   3.170 -0.8901 -0.3855 -0.2175
  715MOL0     C94305  11.292   5.863   3.246 -0.2875  0.1550 -0.2259
  715MOL0     O94306  11.398   5.951   3.260 -0.6408  0.1482  0.7766
  715MOL0     C94307  11.504   5.931   3.356 -0.5045 -0.1819  0.0771
  715MOL0     C94308  11.598   6.055   3.353  0.3133 -0.7150 -0.1690
  715MOL0     C94309  11.684   6.077   3.479 -0.1884  0.2974 -1.2546
  715MOL0     C94310  11.779   6.197   3.478  0.2486  1.1290  0.6703
  715MOL0     C94311  11.766   6.300   3.576 -1.1131  0.8480 -0.6977
  715MOL0     C94312  11.749   6.382   3.666  0.9040 -0.4689  0.3008
  715MOL0     C94313  11.293   5.731   3.308  0.3682  0.2362  0.6571
  715MOL0     C94314  11.187   5.653   3.302  1.2420  0.0434  0.1769
  715MOL0     H94315  10.946   5.262   3.440 -1.8410  2.8821  2.9591
  715MOL0     H94316  10.776   5.116   3.484  1.7284 -1.7733 -0.7735
  715MOL0     H94317  10.515   5.152   3.528  1.8254  0.4902 -0.8612
  715MOL0     H94318  10.568   4.991   3.524 -2.2740 -2.5878 -0.6799
  715MOL0     H94319  10.376   4.916   3.405  2.9796 -1.1087  1.8495
  715MOL0     H94320  10.307   5.078   3.395 -2.4394 -2.4843 -0.2336
  715MOL0     H94321  10.307   5.079   3.657  3.3009  0.6671 -0.2825
  715MOL0     H94322  10.372   4.905   3.645  1.4309  0.6128 -1.9309
  715MOL0     H94323  10.104   5.005   3.534  1.1416  1.3582  0.4958
  715MOL0     H94324  10.178   4.848   3.516 -0.9847 -1.3768  0.4696
  715MOL0     H94325  10.093   4.966   3.788 -3.6096 -1.9171  1.3682
  715MOL0     H94326  10.181   4.810   3.756  0.4029 -0.7818 -2.1151
  715MOL0     H94327   9.990   4.730   3.630  0.1115 -0.6138  0.7341
  715MOL0     H94328   9.902   4.879   3.654 -0.2439  0.2809  0.2921
  715MOL0     H94329   9.953   4.664   3.850 -0.4816 -0.6218  0.7876
  715MOL0     H94330   9.917   4.839   3.903  0.5407  0.3350 -2.5753
  715MOL0     H94331   9.750   4.673   3.713  0.0925  3.3354 -2.7804
  715MOL0     H94332   9.699   4.827   3.795 -0.4368  0.1225  4.5020
  715MOL0     H94333   9.540   4.512   3.810 -1.5434 -1.9642  1.5921
  715MOL0     H94334   9.478   4.322   4.103 -2.9730 -1.4947 -0.8392
  715MOL0     H94335   9.415   4.357   3.949 -2.4300  0.8223 -0.7325
  715MOL0     H94336   9.316   4.502   4.193 -2.1412 -0.9843  0.4779
  715MOL0     H94337   9.237   4.389   4.099  0.7810 -0.6371 -0.0259
  715MOL0     H94338   9.293   4.671   4.031 -0.5508 -0.7673  1.0401
  715MOL0     H94339   9.281   4.568   3.891  0.9125  0.2792  0.3679
  715MOL0     H94340   9.050   4.680   3.969 -0.9433  0.9502  2.1701
  715MOL0     H94341   9.074   4.597   4.117  1.2499  1.6439  0.3524
  715MOL0     H94342   8.844   4.605   4.112 -0.4645 -1.0898  2.7136
  715MOL0     H94343   8.614   4.535   4.140  1.5037 -1.2193  0.6290
  715MOL0     H94344   8.239   4.429   4.264  0.5420 -0.2630 -0.2994
  715MOL0     H94345   7.978   4.419   4.256 -2.1586 -0.3761 -0.9068
  715MOL0     H94346   7.767   4.485   4.194  2.0335 -1.4832  1.7670
  715MOL0     H94347   7.797   4.320   4.217 -2.6115  2.2718  4.5194
  715MOL0     H94348   7.613   4.253   4.072  0.3589 -0.3225 -1.1474
  715MOL0     H94349   7.569   4.422   4.025  0.3293 -0.3151 -0.2762
  715MOL0     H94350   7.511   4.501   4.237  0.5323 -0.8637  0.8201
  715MOL0     H94351   7.567   4.354   4.306 -0.9615 -0.4504  0.5946
  715MOL0     H94352   7.330   4.372   4.300  0.9610  1.3466 -0.1049
  715MOL0     H94353   7.330   4.371   4.122  1.5728  0.0780 -1.4649
  715MOL0     H94354   7.428   4.127   4.270 -0.0643 -2.1892 -1.4788
  715MOL0     H94355   7.416   4.146   4.105  0.7532 -1.2739 -0.4767
  715MOL0     H94356   7.195   4.147   4.093 -1.0828 -0.5339 -0.1249
  715MOL0     H94357   7.161   4.200   4.255  2.9910  2.9405 -0.2723
  715MOL0     H94358   7.135   3.938   4.162  0.3727 -0.1872  1.9218
  715MOL0     H94359   7.299   3.925   4.220  0.4439  0.4166 -2.8145
  715MOL0     H94360   7.172   4.045   4.441  0.9187 -1.1030 -0.1785
  715MOL0     H94361   7.219   3.884   4.423 -0.4884  0.7201 -0.3454
  715MOL0     H94362   7.992   4.394   3.834 -1.1888  1.6036 -0.7183
  715MOL0     H94363   8.252   4.468   3.845  2.2721 -3.1334 -0.0951
  715MOL0     H94364   8.678   4.238   3.829  0.1892 -0.5706  0.1316
  715MOL0     H94365   8.894   4.279   3.822  5.3161  0.8211  2.0463
  715MOL0     H94366  10.540   5.284   3.152 -0.5598  1.2684  1.4796
  715MOL0     H94367  10.707   5.462   3.125 -0.9017  0.0800 -0.2675
  715MOL0     H94368  10.994   5.863   3.102  1.0171  0.5203 -1.0114
  715MOL0     H94369  11.187   5.974   3.095  2.1962 -2.7628 -2.9644
  715MOL0     H94370  11.564   5.843   3.331 -0.6566 -0.1065 -0.5799
  715MOL0     H94371  11.452   5.945   3.451  1.1004  1.5815  0.7637
  715MOL0     H94372  11.661   6.054   3.264 -2.5495  0.3910 -2.3946
  715MOL0     H94373  11.532   6.143   3.350  3.2204  1.6783  1.0615
  715MOL0     H94374  11.756   5.995   3.487 -0.7593 -0.0466  1.9037
  715MOL0     H94375  11.612   6.075   3.561 -0.6263 -1.7715 -1.6494
  715MOL0     H94376  11.882   6.163   3.496  0.0283  0.2069  0.2872
  715MOL0     H94377  11.771   6.241   3.378  0.1172  0.1746  0.2452
  715MOL0     H94378  11.750   6.451   3.748  1.1174 -0.7947  0.5750
  715MOL0     H94379  11.381   5.699   3.365  0.6023 -0.5733 -0.1417
  715MOL0     H94380  11.196   5.556   3.350  0.4594  1.1914  2.8360
  716MOL0     O94381   7.499   9.017   8.649  0.1949 -0.4981  0.6217
  716MOL0     C94382   7.545   9.106   8.716 -0.4954  0.1979  0.0692
  716MOL0     O94383   7.485   9.220   8.758  0.4181 -0.2627  0.0729
  716MOL0     C94384   7.344   9.231   8.751  0.3498 -0.6008 -0.6958
  716MOL0     C94385   7.248   9.136   8.730  0.2979  0.0316 -1.0642
  716MOL0     C94386   7.110   9.175   8.735  0.1851  0.1665  0.7229
  716MOL0     C94387   7.072   9.300   8.778  0.6541 -0.4339 -0.2512
  716MOL0     O94388   6.942   9.350   8.802 -0.1746  0.5292  0.2827
  716MOL0     C94389   6.828   9.294   8.731  0.0376  0.5872  0.4114
  716MOL0     C94390   6.703   9.382   8.763 -0.7960  0.3783 -0.5952
  716MOL0     C94391   6.584   9.354   8.680 -0.4663  0.1189 -0.0509
  716MOL0     C94392   6.467   9.422   8.738  0.5169 -0.5220 -0.6230
  716MOL0     C94393   6.360   9.439   8.629 -0.0335  0.6872 -0.3514
  716MOL0     C94394   6.227   9.480   8.696  0.0236  0.3687  0.1612
  716MOL0     C94395   6.130   9.536   8.595 -0.4421 -0.7279  0.4436
  716MOL0     C94396   5.989   9.569   8.645  0.6289 -0.4503 -0.4303
  716MOL0     N94397   5.915   9.445   8.684 -0.3238  0.2028  0.0636
  716MOL0     C94398   5.843   9.360   8.610 -0.3411 -0.4561  0.0999
  716MOL0     C94399   5.789   9.265   8.692  0.0068 -0.2591  0.1370
  716MOL0     C94400   5.699   9.155   8.643  0.3511  0.6964  0.3608
  716MOL0     C94401   5.580   9.111   8.731 -0.1138  0.1309  0.3984
  716MOL0     C94402   5.480   9.026   8.642 -0.0749 -0.1025  0.0660
  716MOL0     C94403   5.358   8.997   8.719 -0.2986  1.0881 -1.4946
  716MOL0     O94404   5.274   8.916   8.625  0.4947 -0.2485 -0.1645
  716MOL0     C94405   5.143   8.895   8.662 -0.1867 -0.1137  0.3437
  716MOL0     C94406   5.078   8.939   8.779  0.4540  0.2176 -0.1582
  716MOL0     C94407   4.938   8.921   8.785  0.1236  0.6454  1.2300
  716MOL0     C94408   4.871   8.846   8.695 -0.2568 -0.0474  0.0823
  716MOL0     C94409   4.717   8.831   8.713  0.0500 -0.8398  0.4467
  716MOL0     O94410   4.662   8.742   8.635 -0.0186  0.2138  0.9820
  716MOL0     C94411   4.528   8.734   8.635  0.0346 -0.6098  0.2171
  716MOL0     C94412   4.457   8.709   8.760 -1.2195 -0.4836  0.3259
  716MOL0     C94413   4.322   8.719   8.763 -0.5533 -0.3980 -0.2351
  716MOL0     C94414   4.250   8.748   8.653  0.6001  0.4765 -0.1057
  716MOL0     O94415   4.117   8.771   8.662  0.0057  0.3188  0.3122
  716MOL0     C94416   4.021   8.774   8.547 -0.5041  0.1298 -0.1670
  716MOL0     C94417   3.870   8.756   8.571  0.7648  0.4964 -0.9288
  716MOL0     C94418   3.850   8.641   8.669 -0.2110 -0.9701 -0.4198
  716MOL0     C94419   3.697   8.623   8.702  0.0508  0.8930 -0.4923
  716MOL0     C94420   3.678   8.492   8.782 -0.4319  0.1037  0.5328
  716MOL0     C94421   3.543   8.487   8.855  0.1122  0.0329  0.1198
  716MOL0     C94422   3.538   8.362   8.941  0.0011  0.3542  0.3531
  716MOL0     C94423   3.392   8.338   8.993  0.1972  0.2678 -0.2551
  716MOL0    Cl94424   3.324   8.210   8.894 -0.0850  0.1485 -0.3400
  716MOL0     C94425   4.308   8.747   8.528 -0.0204 -0.8337  0.0743
  716MOL0     C94426   4.449   8.745   8.519  0.1933  0.6876  0.7635
  716MOL0     O94427   4.652   8.905   8.792 -0.4566  0.0933  0.2139
  716MOL0     C94428   4.936   8.786   8.577 -0.0673 -0.2579 -0.5798
  716MOL0     C94429   5.071   8.817   8.564 -0.2568 -0.0118  0.2881
  716MOL0     N94430   5.841   9.290   8.816 -0.6985 -0.5382 -0.0152
  716MOL0     N94431   5.913   9.400   8.811 -0.1586  0.7554  0.2014
  716MOL0     C94432   7.172   9.388   8.807 -0.1586 -0.0090  0.4220
  716MOL0     C94433   7.310   9.355   8.790  1.0863 -0.4137 -0.4596
  716MOL0     C94434   7.688   9.089   8.755 -0.2583  0.5475  0.3783
  716MOL0     C94435   7.754   9.199   8.802  0.3131 -0.9866  0.0669
  716MOL0     C94436   7.883   9.197   8.847 -0.0493  0.1849  0.3266
  716MOL0     C94437   7.961   9.078   8.830  0.0958 -0.1045  0.3575
  716MOL0     O94438   8.080   9.071   8.898 -0.4048  0.2079  0.0534
  716MOL0     C94439   8.163   8.954   8.889 -0.7627 -0.8346 -0.3730
  716MOL0     C94440   8.273   8.976   8.984 -0.5259 -0.2227 -0.9016
  716MOL0     C94441   8.360   8.851   8.984 -0.3014  0.0520  0.2921
  716MOL0     C94442   8.465   8.847   9.091 -0.7820  0.1948 -1.1847
  716MOL0     C94443   8.575   8.753   9.059  0.7533  0.0163 -0.7881
  716MOL0     C94444   8.656   8.661   9.031  0.3894 -0.0269 -0.2699
  716MOL0     C94445   7.894   8.968   8.778 -1.0146  0.6363 -0.5305
  716MOL0     C94446   7.759   8.974   8.741  0.0248 -0.0586 -0.8727
  716MOL0     H94447   7.275   9.036   8.698 -0.2421  0.3980 -2.7880
  716MOL0     H94448   7.031   9.104   8.712  0.0847  0.2957  0.6681
  716MOL0     H94449   6.808   9.190   8.759  2.5759 -0.5677 -1.6075
  716MOL0     H94450   6.848   9.297   8.623  0.9478 -1.0994  0.4925
  716MOL0     H94451   6.726   9.485   8.736 -0.3737  0.2367 -0.7991
  716MOL0     H94452   6.688   9.366   8.870  0.1259 -1.1532 -0.6586
  716MOL0     H94453   6.568   9.246   8.688 -0.7163  0.0273 -1.4802
  716MOL0     H94454   6.602   9.383   8.576  1.7993 -1.3853 -0.1527
  716MOL0     H94455   6.430   9.358   8.818 -1.6135  0.9741 -0.3389
  716MOL0     H94456   6.492   9.519   8.783 -0.5919 -0.9320  0.9285
  716MOL0     H94457   6.348   9.350   8.567  0.6801 -0.7715  1.5158
  716MOL0     H94458   6.407   9.518   8.569  2.6991  1.8455  2.9828
  716MOL0     H94459   6.250   9.553   8.774  3.2482 -0.3626  0.0409
  716MOL0     H94460   6.181   9.399   8.753 -4.1804  2.6654  0.4450
  716MOL0     H94461   6.182   9.627   8.563  0.3276 -1.5134 -0.6054
  716MOL0     H94462   6.121   9.477   8.503  0.5607  0.9590 -0.7761
  716MOL0     H94463   5.943   9.623   8.562 -1.0640 -2.3835 -0.8336
  716MOL0     H94464   5.986   9.632   8.735  0.7620  1.8986 -1.9961
  716MOL0     H94465   5.825   9.364   8.503 -0.3895 -2.6096 -0.0038
  716MOL0     H94466   5.761   9.066   8.624 -0.6394 -0.0439  0.4985
  716MOL0     H94467   5.665   9.189   8.545  0.9931  1.3960  0.3730
  716MOL0     H94468   5.538   9.206   8.764 -2.5590 -1.1677  1.3105
  716MOL0     H94469   5.612   9.053   8.818 -2.0225  0.1617  1.1821
  716MOL0     H94470   5.453   9.088   8.555 -0.6901  0.6542  0.7814
  716MOL0     H94471   5.528   8.934   8.607 -0.1896 -0.3494  0.5614
  716MOL0     H94472   5.312   9.090   8.754 -0.6486  1.3228 -2.5451
  716MOL0     H94473   5.387   8.932   8.802  1.6278  0.4836 -2.5870
  716MOL0     H94474   5.136   8.991   8.855  0.5975  0.5302 -0.4773
  716MOL0     H94475   4.890   8.974   8.866  2.2093  2.2519  1.5110
  716MOL0     H94476   4.508   8.687   8.854 -0.3030 -1.5362 -0.3977
  716MOL0     H94477   4.278   8.722   8.862 -0.3958  0.6522 -0.1766
  716MOL0     H94478   4.051   8.694   8.478 -1.3521  0.9997 -1.5789
  716MOL0     H94479   4.042   8.869   8.498  1.7478 -1.2686 -2.1811
  716MOL0     H94480   3.807   8.738   8.483  0.8463  5.9808 -2.5085
  716MOL0     H94481   3.822   8.839   8.624 -2.1089 -1.8740  0.4435
  716MOL0     H94482   3.894   8.668   8.765 -1.1751  0.6916 -0.4168
  716MOL0     H94483   3.886   8.547   8.626 -1.6409 -1.3262 -0.9117
  716MOL0     H94484   3.678   8.704   8.772  0.2859 -1.6950  2.8313
  716MOL0     H94485   3.628   8.631   8.618 -1.7560 -0.4853  0.7809
  716MOL0     H94486   3.755   8.465   8.855 -1.1266 -2.7190  0.3501
  716MOL0     H94487   3.686   8.407   8.713 -4.4512 -2.7096  3.0533
  716MOL0     H94488   3.462   8.476   8.781 -0.0461 -3.4003  0.6235
  716MOL0     H94489   3.527   8.573   8.920  0.3542 -0.1253  0.3873
  716MOL0     H94490   3.574   8.275   8.886 -0.5692 -1.5064  2.7343
  716MOL0     H94491   3.597   8.387   9.030  1.1334  1.5585 -0.7048
  716MOL0     H94492   3.338   8.432   8.983  0.7224  0.8310  1.7653
  716MOL0     H94493   3.399   8.321   9.101  0.4336  0.7420 -0.1975
  716MOL0     H94494   4.261   8.758   8.431  1.1423 -0.2216 -0.4409
  716MOL0     H94495   4.492   8.750   8.419  1.7776 -2.9348  1.1164
  716MOL0     H94496   4.877   8.741   8.498 -1.8046  0.7849  0.0601
  716MOL0     H94497   5.122   8.787   8.473 -0.1303  0.0134  0.3504
  716MOL0     H94498   7.150   9.487   8.844 -1.2820 -0.9425  2.4234
  716MOL0     H94499   7.386   9.430   8.811 -0.3994  0.7467  1.0078
  716MOL0     H94500   7.694   9.288   8.820 -3.1670 -3.7112  3.5348
  716MOL0     H94501   7.936   9.280   8.893  2.1344 -0.4516 -0.8504
  716MOL0     H94502   8.205   8.946   8.788 -0.9842  0.2681 -0.5697
  716MOL0     H94503   8.115   8.858   8.913 -0.6186 -0.0958  3.4792
  716MOL0     H94504   8.339   9.055   8.948  0.4868 -0.8032 -0.3527
  716MOL0     H94505   8.239   9.010   9.082  2.2212  2.5663 -0.7858
  716MOL0     H94506   8.405   8.825   8.888 -2.5456 -1.4798 -0.4175
  716MOL0     H94507   8.291   8.769   9.002 -1.5550  0.7424 -1.1427
  716MOL0     H94508   8.503   8.949   9.102  0.7147 -0.5276  0.8599
  716MOL0     H94509   8.416   8.809   9.181  0.3947  0.0128 -0.5984
  716MOL0     H94510   8.726   8.589   8.993  1.9899  2.5040 -2.4350
  716MOL0     H94511   7.947   8.877   8.754  0.1479  0.3244  2.7437
  716MOL0     H94512   7.706   8.884   8.713  1.1357 -0.6080 -1.2509
  717MOL0     O94513   0.005   5.232   4.834  0.1258 -0.2045 -0.4467
  717MOL0     C94514   0.064   5.158   4.919  0.0701 -0.1286  0.5142
  717MOL0     O94515   0.006   5.109   5.028  0.3569  0.0822 -0.0538
  717MOL0     C94516  -0.128   5.138   5.051  0.9405 -0.2315 -0.1172
  717MOL0     C94517  -0.158   5.219   5.159  0.0899 -0.0326  0.0431
  717MOL0     C94518  -0.294   5.251   5.184  0.0328  0.3354 -0.8905
  717MOL0     C94519  -0.398   5.189   5.109  0.3220 -0.7320 -0.5974
  717MOL0     O94520  -0.524   5.216   5.153 -0.2475 -0.8786  0.2510
  717MOL0     C94521  -0.623   5.116   5.148  0.5020 -0.3563 -0.2391
  717MOL0     C94522  -0.743   5.155   5.231  0.4045 -0.3431 -0.2183
  717MOL0     C94523  -0.870   5.058   5.207  0.4308  0.0872 -0.3617
  717MOL0     C94524  -0.943   5.062   5.075  0.3096 -0.7393 -1.0912
  717MOL0     C94525  -1.052   4.956   5.075 -0.0287  0.3887  0.9065
  717MOL0     C94526  -1.148   4.972   4.958 -0.9203 -0.7209  0.6049
  717MOL0     C94527  -1.274   4.893   4.959  0.6830  0.7039 -0.1977
  717MOL0     C94528  -1.330   4.858   4.826 -0.4447  0.1931  1.1905
  717MOL0     N94529  -1.381   4.974   4.760  0.4120 -0.4197  0.2418
  717MOL0     C94530  -1.499   5.037   4.778  0.3397 -0.3873 -0.2076
  717MOL0     C94531  -1.500   5.140   4.687  0.1508 -0.3043 -0.0931
  717MOL0     C94532  -1.616   5.234   4.649  0.9475 -0.5715  0.2693
  717MOL0     C94533  -1.733   5.154   4.591  1.1345  0.1813  0.8739
  717MOL0     C94534  -1.777   5.190   4.449 -0.2462  1.0404  0.4571
  717MOL0     C94535  -1.932   5.175   4.424 -0.3445 -0.0791 -0.3051
  717MOL0     O94536  -1.999   5.238   4.523  0.2567  0.3507 -0.1262
  717MOL0     C94537  -2.133   5.241   4.520 -0.3152 -1.2480  0.4458
  717MOL0     C94538  -2.214   5.194   4.413  0.2062  0.4626  0.7367
  717MOL0     C94539  -2.354   5.191   4.423  0.5160  0.2030 -0.5263
  717MOL0     C94540  -2.417   5.248   4.538 -0.5395  0.7331  0.4301
  717MOL0     C94541  -2.565   5.236   4.544  1.0390 -0.9315 -0.1556
  717MOL0     O94542  -2.626   5.311   4.640  0.0773 -0.0124  0.7788
  717MOL0     C94543  -2.759   5.331   4.645 -0.4875  0.2236 -0.0206
  717MOL0     C94544  -2.850   5.338   4.537  0.1126  0.1858  1.1342
  717MOL0     C94545  -2.973   5.401   4.547 -0.1934 -0.7052  0.4133
  717MOL0     C94546  -3.005   5.455   4.670  0.0234 -0.2340  0.1772
  717MOL0     O94547  -3.116   5.527   4.693  0.1401  0.1198 -0.4527
  717MOL0     C94548  -3.223   5.529   4.595 -0.0434  0.6174 -0.9927
  717MOL0     C94549  -3.341   5.610   4.634  0.6761  0.2989 -0.1750
  717MOL0     C94550  -3.464   5.581   4.557  1.0664 -0.2260  0.9892
  717MOL0     C94551  -3.450   5.601   4.409  0.4920 -0.1629  0.2868
  717MOL0     C94552  -3.588   5.573   4.358  0.3267 -0.6415  0.5718
  717MOL0     C94553  -3.683   5.686   4.380  0.4998  0.0056  0.2566
  717MOL0     C94554  -3.810   5.653   4.311 -0.0388 -0.0785  0.7545
  717MOL0     C94555  -3.906   5.771   4.294 -0.0130 -0.2132 -0.0343
  717MOL0    Cl94556  -3.832   5.894   4.184 -0.1972 -0.6026 -0.0159
  717MOL0     C94557  -2.923   5.443   4.777  0.1157 -0.0646 -0.0817
  717MOL0     C94558  -2.802   5.378   4.763  0.0797  0.4400  0.4030
  717MOL0     O94559  -2.618   5.166   4.461  0.0549 -0.1709  0.6206
  717MOL0     C94560  -2.335   5.313   4.632 -0.1080  1.2858  0.2329
  717MOL0     C94561  -2.198   5.307   4.625  0.3446 -0.0551 -0.3518
  717MOL0     N94562  -1.386   5.136   4.618 -0.2010 -0.0378 -0.2647
  717MOL0     N94563  -1.309   5.033   4.663  0.5181 -0.3909  1.1689
  717MOL0     C94564  -0.361   5.105   4.999  0.6008 -0.4446  0.0493
  717MOL0     C94565  -0.229   5.081   4.972 -0.1073 -0.0415 -0.2149
  717MOL0     C94566   0.198   5.118   4.897  0.5413  0.5415 -0.0470
  717MOL0     C94567   0.277   5.187   4.800 -0.5107  0.1570  0.7231
  717MOL0     C94568   0.412   5.156   4.775 -0.2463 -0.5268  0.3774
  717MOL0     C94569   0.483   5.069   4.869  0.4696 -0.4454 -0.7192
  717MOL0     O94570   0.611   5.047   4.871  0.3643  0.0839 -0.2997
  717MOL0     C94571   0.696   5.146   4.808  0.9067 -0.5871  0.1347
  717MOL0     C94572   0.847   5.127   4.840 -0.1481  0.4044 -0.9574
  717MOL0     C94573   0.897   4.990   4.776  0.6122 -1.2088  0.6055
  717MOL0     C94574   1.040   4.967   4.780  0.5302  0.2626 -0.2003
  717MOL0     C94575   1.107   5.041   4.666  0.2292  0.1928 -0.0836
  717MOL0     C94576   1.153   5.113   4.580 -0.1068  0.2478 -0.4911
  717MOL0     C94577   0.405   5.005   4.964 -0.3173  0.3798  0.1213
  717MOL0     C94578   0.262   5.024   4.979 -0.7740  0.0845 -0.3243
  717MOL0     H94579  -0.078   5.254   5.223 -1.4184  0.7036  1.6077
  717MOL0     H94580  -0.319   5.322   5.262 -2.2635 -0.8289 -0.4799
  717MOL0     H94581  -0.594   5.014   5.177  0.7018 -0.0795  0.5798
  717MOL0     H94582  -0.664   5.104   5.048  0.3758 -1.0106 -0.1158
  717MOL0     H94583  -0.763   5.257   5.198  2.0321  0.7079  1.7667
  717MOL0     H94584  -0.720   5.146   5.337 -0.5070 -1.8983 -0.1175
  717MOL0     H94585  -0.940   5.078   5.288  1.5896 -2.2134  1.3260
  717MOL0     H94586  -0.837   4.957   5.235 -1.5819  0.1057  2.5687
  717MOL0     H94587  -0.982   5.164   5.068 -0.3991 -0.8220  1.0035
  717MOL0     H94588  -0.871   5.046   4.995 -1.9459 -2.5183 -2.9215
  717MOL0     H94589  -1.099   4.964   5.173 -0.5956 -0.8664  0.7609
  717MOL0     H94590  -1.004   4.857   5.079  1.5504  1.1438  1.2677
  717MOL0     H94591  -1.091   4.959   4.866 -0.3605  0.1080  0.8200
  717MOL0     H94592  -1.183   5.076   4.958  1.4256  0.1795  2.1372
  717MOL0     H94593  -1.276   4.808   5.028 -0.4471  1.7701  1.1588
  717MOL0     H94594  -1.344   4.959   5.013  0.0533 -2.1925  2.8733
  717MOL0     H94595  -1.406   4.779   4.833  0.9042 -1.2629  0.0666
  717MOL0     H94596  -1.244   4.819   4.771 -1.2580  1.1971 -0.9522
  717MOL0     H94597  -1.581   5.013   4.844  1.1543 -1.9244  0.2841
  717MOL0     H94598  -1.589   5.320   4.586 -0.1934 -0.7365 -0.4897
  717MOL0     H94599  -1.651   5.285   4.739  0.2697 -0.7044  0.0866
  717MOL0     H94600  -1.809   5.172   4.668  1.8601  1.0556  1.4133
  717MOL0     H94601  -1.720   5.046   4.596 -0.5525 -0.0724  0.3764
  717MOL0     H94602  -1.742   5.289   4.417 -0.0873  0.4892 -1.1864
  717MOL0     H94603  -1.728   5.121   4.379  0.9965  0.7962  1.5475
  717MOL0     H94604  -1.945   5.067   4.427 -0.7720 -0.0351  2.8680
  717MOL0     H94605  -1.959   5.225   4.330 -1.3198  1.7914  0.8897
  717MOL0     H94606  -2.172   5.127   4.339 -2.0173 -0.6376  0.3684
  717MOL0     H94607  -2.409   5.127   4.353  1.5951 -1.7377  0.3166
  717MOL0     H94608  -2.822   5.293   4.443 -1.5100  1.4455 -0.0124
  717MOL0     H94609  -3.048   5.385   4.470 -0.7737  0.4841  0.7092
  717MOL0     H94610  -3.257   5.426   4.577 -0.2514  0.6987 -1.0546
  717MOL0     H94611  -3.182   5.564   4.500  1.5649 -1.1108 -1.0156
  717MOL0     H94612  -3.314   5.715   4.620  1.8224  0.2509  1.4498
  717MOL0     H94613  -3.355   5.586   4.740  3.4562 -1.2215 -0.0355
  717MOL0     H94614  -3.552   5.627   4.603  2.1066  0.7838  2.0316
  717MOL0     H94615  -3.488   5.474   4.560  3.9291 -0.9568  0.2914
  717MOL0     H94616  -3.414   5.696   4.369  1.1509 -0.2630  0.6436
  717MOL0     H94617  -3.391   5.518   4.370 -0.9154 -0.8132 -0.5379
  717MOL0     H94618  -3.623   5.478   4.399  2.9478 -1.9224  0.0523
  717MOL0     H94619  -3.568   5.559   4.252  3.9785 -1.3546  1.1980
  717MOL0     H94620  -3.632   5.768   4.328 -2.6447  0.8406 -1.7883
  717MOL0     H94621  -3.701   5.712   4.484  0.4661  1.1225 -0.0119
  717MOL0     H94622  -3.793   5.593   4.221 -0.1384 -0.2975  0.8808
  717MOL0     H94623  -3.857   5.581   4.379 -0.7079  0.7756  1.2160
  717MOL0     H94624  -3.925   5.824   4.388  0.8179 -1.6742  0.9976
  717MOL0     H94625  -4.002   5.732   4.260 -1.0318  1.4290  0.8123
  717MOL0     H94626  -2.949   5.483   4.874 -1.0074 -0.1603 -0.3341
  717MOL0     H94627  -2.736   5.369   4.848  0.6515 -1.3133 -0.1895
  717MOL0     H94628  -2.378   5.343   4.727 -1.0781  0.2237  0.1463
  717MOL0     H94629  -2.134   5.336   4.707 -1.1690  0.7549  0.5899
  717MOL0     H94630  -0.437   5.062   4.935  1.6567  0.8052 -2.1693
  717MOL0     H94631  -0.194   5.028   4.885  1.3655 -2.2255  1.5790
  717MOL0     H94632   0.224   5.258   4.737 -2.2300  2.3690  4.3811
  717MOL0     H94633   0.464   5.213   4.698  2.3672  0.7129  2.8698
  717MOL0     H94634   0.665   5.243   4.846  1.8555  0.2768 -1.2112
  717MOL0     H94635   0.667   5.141   4.703 -2.0085  0.8038  0.7833
  717MOL0     H94636   0.909   5.201   4.789 -0.1636  1.0252 -0.1026
  717MOL0     H94637   0.866   5.122   4.948 -2.8450 -0.9140 -0.4600
  717MOL0     H94638   0.859   4.976   4.675  1.3094 -0.5990  0.2428
  717MOL0     H94639   0.851   4.911   4.836  3.1017 -2.7303  0.6343
  717MOL0     H94640   1.080   5.001   4.876  0.1677  2.7246 -0.8324
  717MOL0     H94641   1.066   4.861   4.781 -0.0652  0.0619 -1.9906
  717MOL0     H94642   1.210   5.178   4.515 -0.1685  2.2357  1.3290
  717MOL0     H94643   0.459   4.950   5.040  0.6365  2.5500  1.0906
  717MOL0     H94644   0.206   4.968   5.054 -2.7482  1.5630 -0.5858
  718MOL0     O94645   8.858   4.676   2.026  0.0061  1.0953  0.0652
  718MOL0     C94646   8.963   4.737   2.001  0.0135  0.1373 -0.0093
  718MOL0     O94647   8.977   4.845   1.918  0.5844 -0.1880 -0.6739
  718MOL0     C94648   8.862   4.905   1.864  0.0278 -0.0083 -0.5102
  718MOL0     C94649   8.745   4.959   1.926 -0.5866  0.3359  0.2191
  718MOL0     C94650   8.638   5.014   1.849  0.1632 -0.8633  0.7195
  718MOL0     C94651   8.642   5.016   1.712 -0.0888  0.9340 -0.2365
  718MOL0     O94652   8.529   5.061   1.647 -0.3484  1.2828  0.6123
  718MOL0     C94653   8.500   5.021   1.513 -0.2638  0.5268 -0.3320
  718MOL0     C94654   8.358   5.049   1.462 -0.4583  0.2009 -0.3623
  718MOL0     C94655   8.339   5.194   1.479 -0.1517 -1.0173  0.3291
  718MOL0     C94656   8.203   5.236   1.427 -0.3103 -0.1660  0.4010
  718MOL0     C94657   8.185   5.393   1.411  0.3407 -0.0264 -0.8460
  718MOL0     C94658   8.061   5.426   1.340 -0.4449  0.5485 -1.1522
  718MOL0     C94659   8.055   5.571   1.307  0.5974 -0.3312  0.1946
  718MOL0     C94660   7.957   5.605   1.198 -0.2564  1.2438 -0.4693
  718MOL0     N94661   7.941   5.748   1.181 -1.2522 -0.3847  0.3202
  718MOL0     C94662   7.835   5.804   1.128  0.4509  0.0182  1.1351
  718MOL0     C94663   7.838   5.939   1.149 -0.2656 -0.0379 -0.4628
  718MOL0     C94664   7.732   6.034   1.104 -0.7871 -0.7608  1.0046
  718MOL0     C94665   7.782   6.118   0.985  0.3181  0.3239  0.0566
  718MOL0     C94666   7.887   6.231   1.012  0.2566  1.7528 -1.3607
  718MOL0     C94667   7.835   6.372   1.030  0.6159 -1.2341 -0.1814
  718MOL0     O94668   7.736   6.371   1.132  0.4329 -0.1000 -0.4537
  718MOL0     C94669   7.619   6.451   1.122 -0.7448 -0.0946  1.1962
  718MOL0     C94670   7.601   6.562   1.040 -0.6468  0.3888 -0.3089
  718MOL0     C94671   7.486   6.639   1.039  1.0377  0.0501 -0.8765
  718MOL0     C94672   7.383   6.607   1.129 -0.2283 -0.9141  0.2104
  718MOL0     C94673   7.260   6.693   1.141  0.1213  0.4670 -0.1428
  718MOL0     O94674   7.235   6.785   1.045 -0.1652 -0.6162 -0.1042
  718MOL0     C94675   7.134   6.880   1.073 -0.9248  0.1979 -0.2441
  718MOL0     C94676   7.014   6.869   1.011  0.1496  0.9636 -0.2444
  718MOL0     C94677   6.921   6.973   1.029 -0.0602 -0.4433  0.9161
  718MOL0     C94678   6.942   7.083   1.111  0.1644 -0.1435  0.0734
  718MOL0     O94679   6.839   7.172   1.105 -0.3588 -0.9189 -0.0881
  718MOL0     C94680   6.845   7.301   1.168  0.5504  0.8467  0.3778
  718MOL0     C94681   6.711   7.365   1.170  0.6413 -0.0303  0.7713
  718MOL0     C94682   6.643   7.376   1.031  0.6433  0.3044 -0.2080
  718MOL0     C94683   6.577   7.251   0.987  0.2705 -0.0101 -0.0722
  718MOL0     C94684   6.572   7.231   0.834 -0.1810 -0.0646 -0.4414
  718MOL0     C94685   6.491   7.328   0.757 -0.1551  0.5245  0.7913
  718MOL0     C94686   6.480   7.282   0.611  0.4443  0.8107 -0.5198
  718MOL0     C94687   6.403   7.155   0.588  0.2426 -0.3539 -0.4145
  718MOL0    Cl94688   6.233   7.173   0.664 -0.2156  0.5560  0.3004
  718MOL0     C94689   7.058   7.086   1.186  0.1433  0.8528 -0.0460
  718MOL0     C94690   7.158   6.985   1.162 -0.3165  0.5357 -0.9228
  718MOL0     O94691   7.193   6.673   1.238  1.1932  0.1413 -0.2827
  718MOL0     C94692   7.401   6.500   1.215  0.2186  0.5217 -0.4116
  718MOL0     C94693   7.515   6.420   1.204 -0.9867  0.2639  0.6843
  718MOL0     N94694   7.968   5.965   1.194 -0.4109  0.6833 -0.1369
  718MOL0     N94695   8.027   5.854   1.217  0.4178  0.6500 -0.1547
  718MOL0     C94696   8.755   4.964   1.647 -0.6520 -0.4891 -0.2021
  718MOL0     C94697   8.865   4.919   1.728  0.3263  0.0504 -0.0653
  718MOL0     C94698   9.084   4.692   2.070  0.4938  0.2297  0.0150
  718MOL0     C94699   9.209   4.742   2.050  0.1823 -0.1358 -0.4056
  718MOL0     C94700   9.325   4.694   2.119 -0.7814  0.4347 -0.5974
  718MOL0     C94701   9.310   4.580   2.205 -0.1877  0.5820 -0.4449
  718MOL0     O94702   9.416   4.516   2.267 -0.4979  0.0336  0.3222
  718MOL0     C94703   9.542   4.571   2.278 -0.0396  0.3486 -0.7008
  718MOL0     C94704   9.620   4.465   2.361  1.3688 -0.6131 -0.0939
  718MOL0     C94705   9.728   4.523   2.448  0.1579 -0.0827 -0.9908
  718MOL0     C94706   9.855   4.435   2.450  0.3699 -0.1393 -0.2581
  718MOL0     C94707   9.965   4.500   2.526 -0.1586  0.0022  0.4954
  718MOL0     C94708  10.052   4.565   2.572 -0.1788  0.1597 -0.0695
  718MOL0     C94709   9.185   4.520   2.212 -0.2912 -0.1285 -0.8480
  718MOL0     C94710   9.070   4.575   2.158 -0.3246  0.0180  0.2259
  718MOL0     H94711   8.742   4.968   2.034 -0.2260  2.1325  0.1065
  718MOL0     H94712   8.553   5.066   1.891  1.1077 -0.5096  2.2897
  718MOL0     H94713   8.514   4.914   1.532 -0.7716  0.2812 -1.2737
  718MOL0     H94714   8.574   5.051   1.437 -0.9918 -1.7132 -2.0446
  718MOL0     H94715   8.284   4.992   1.518  1.0286 -0.0364  1.4531
  718MOL0     H94716   8.346   5.026   1.355  0.4228 -3.0180  0.1393
  718MOL0     H94717   8.416   5.249   1.424 -2.0021  1.2490 -0.1374
  718MOL0     H94718   8.344   5.234   1.581  0.6425  2.0598 -0.8197
  718MOL0     H94719   8.201   5.196   1.326  0.1400 -0.3731  0.4697
  718MOL0     H94720   8.120   5.197   1.487 -0.1623 -2.4235 -0.7888
  718MOL0     H94721   8.270   5.438   1.358 -0.1992  1.5549 -0.4150
  718MOL0     H94722   8.180   5.440   1.510  0.0948  2.0344 -1.7772
  718MOL0     H94723   7.978   5.395   1.404  0.3125  0.7009 -0.0684
  718MOL0     H94724   8.052   5.363   1.251 -1.2676 -2.9089  1.1856
  718MOL0     H94725   8.026   5.632   1.392 -0.2462 -0.2278 -0.1592
  718MOL0     H94726   8.158   5.593   1.278  1.2844 -2.5762  0.7194
  718MOL0     H94727   7.858   5.572   1.233  0.4596 -0.1039  0.3618
  718MOL0     H94728   7.975   5.543   1.110 -2.1598 -0.2923  0.1559
  718MOL0     H94729   7.747   5.752   1.088  3.1275 -0.9788 -4.5304
  718MOL0     H94730   7.685   6.096   1.181 -1.4133  2.6845 -1.8937
  718MOL0     H94731   7.656   5.969   1.059 -0.3813  0.0560 -0.9318
  718MOL0     H94732   7.701   6.163   0.927  0.7327 -0.6456 -1.3160
  718MOL0     H94733   7.830   6.047   0.917  0.2055 -0.8596  1.1635
  718MOL0     H94734   7.928   6.215   1.112  0.1992 -0.4132 -1.6446
  718MOL0     H94735   7.975   6.223   0.947  2.1019 -1.0728  1.2470
  718MOL0     H94736   7.785   6.392   0.935  1.1864 -0.5403 -0.3435
  718MOL0     H94737   7.905   6.452   1.056 -1.2364  0.6492 -0.6340
  718MOL0     H94738   7.686   6.606   0.987 -1.0343  1.6803  0.0986
  718MOL0     H94739   7.470   6.721   0.971  2.5057 -0.0865 -1.4347
  718MOL0     H94740   7.002   6.789   0.937 -2.6173  0.5787  0.5200
  718MOL0     H94741   6.836   6.977   0.962  2.2710  0.9538 -2.2026
  718MOL0     H94742   6.920   7.358   1.113  0.2853  1.3944  0.5697
  718MOL0     H94743   6.876   7.298   1.273  1.8010 -1.0014 -0.0028
  718MOL0     H94744   6.717   7.468   1.207  0.7651 -0.5105  2.1121
  718MOL0     H94745   6.640   7.312   1.234  0.1566 -1.7181 -1.0557
  718MOL0     H94746   6.719   7.416   0.964 -1.1289  2.7140 -0.9098
  718MOL0     H94747   6.560   7.445   1.046 -0.7680 -1.9774  4.4793
  718MOL0     H94748   6.617   7.158   1.030 -3.1541 -1.8601 -0.5296
  718MOL0     H94749   6.474   7.243   1.021  0.1349 -0.0957 -0.4921
  718MOL0     H94750   6.536   7.129   0.816 -0.1585 -0.6117  2.1246
  718MOL0     H94751   6.674   7.219   0.795 -0.1941 -1.4950 -0.0885
  718MOL0     H94752   6.534   7.429   0.755 -2.4472  1.5510 -1.6304
  718MOL0     H94753   6.388   7.342   0.793  0.2484 -1.1127  2.7629
  718MOL0     H94754   6.425   7.367   0.569 -1.3211  0.5323  1.0862
  718MOL0     H94755   6.578   7.265   0.566  0.5410  0.1380 -0.0719
  718MOL0     H94756   6.450   7.065   0.628 -0.1391 -0.7673 -0.8687
  718MOL0     H94757   6.403   7.135   0.480 -1.6015  0.1729 -0.5529
  718MOL0     H94758   7.074   7.174   1.247 -2.6181  0.3679  1.5268
  718MOL0     H94759   7.257   6.992   1.207  1.0811 -2.4249 -3.2237
  718MOL0     H94760   7.320   6.475   1.283 -1.5415  3.0874 -1.4133
  718MOL0     H94761   7.533   6.333   1.266 -2.0914 -2.5467 -2.6212
  718MOL0     H94762   8.770   4.966   1.540  2.5274 -1.8092  0.0979
  718MOL0     H94763   8.950   4.874   1.677 -0.0055  0.2419 -0.8123
  718MOL0     H94764   9.208   4.814   1.969 -3.2643 -0.1917 -0.5671
  718MOL0     H94765   9.424   4.731   2.092  0.3485 -2.9842 -1.6137
  718MOL0     H94766   9.526   4.662   2.337  0.2607  0.4259 -0.7365
  718MOL0     H94767   9.592   4.596   2.184  1.5907 -1.1161 -0.2748
  718MOL0     H94768   9.555   4.417   2.435  0.9437  2.1852  1.4672
  718MOL0     H94769   9.657   4.395   2.285 -0.2274 -2.1503  0.4756
  718MOL0     H94770   9.699   4.533   2.553 -2.2252  0.0704 -1.6042
  718MOL0     H94771   9.768   4.622   2.425  3.7345 -1.3226 -0.8846
  718MOL0     H94772   9.838   4.335   2.490  2.0338 -0.2657  0.1942
  718MOL0     H94773   9.892   4.431   2.347  2.8598 -1.8383  0.6052
  718MOL0     H94774  10.133   4.627   2.603  2.5023 -1.7156 -2.7367
  718MOL0     H94775   9.182   4.430   2.273  1.3799  1.9214  2.5135
  718MOL0     H94776   8.980   4.526   2.196  1.7122 -2.8398  1.7531
  719MOL0     O94777   0.810   7.028   8.928  0.0330  0.3255 -0.3479
  719MOL0     C94778   0.868   6.976   8.833  0.1167  0.5699  0.4950
  719MOL0     O94779   0.816   6.916   8.727 -0.0327 -0.0146  0.0273
  719MOL0     C94780   0.679   6.928   8.705 -0.0529  0.5631 -0.1032
  719MOL0     C94781   0.647   6.956   8.571  0.6538 -0.0156 -0.0622
  719MOL0     C94782   0.510   6.975   8.536 -0.3882  0.2511 -0.5071
  719MOL0     C94783   0.409   6.952   8.633 -0.0415 -0.9447 -0.3431
  719MOL0     O94784   0.268   6.975   8.615 -0.2343 -0.0823  0.3400
  719MOL0     C94785   0.219   6.983   8.481 -0.1992 -0.1327 -0.1433
  719MOL0     C94786   0.067   6.973   8.468  0.1812  0.4368 -0.6939
  719MOL0     C94787  -0.013   7.067   8.561 -0.5296  0.2843  0.3646
  719MOL0     C94788  -0.144   7.112   8.499 -0.2363 -0.1405  0.1092
  719MOL0     C94789  -0.239   6.997   8.448  0.3389  0.7675 -0.5258
  719MOL0     C94790  -0.357   7.068   8.367 -0.0556 -0.3854 -0.5767
  719MOL0     C94791  -0.471   7.091   8.467 -0.4669  0.0267 -0.0217
  719MOL0     C94792  -0.580   7.185   8.404 -0.5659 -0.3447  0.8065
  719MOL0     N94793  -0.685   7.204   8.499 -0.6005  0.0381  0.2299
  719MOL0     C94794  -0.777   7.107   8.538  0.3399  0.5593 -1.1366
  719MOL0     C94795  -0.880   7.180   8.588 -0.0659 -0.3761 -0.5740
  719MOL0     C94796  -1.016   7.132   8.638  0.6993 -0.4125 -0.2041
  719MOL0     C94797  -1.133   7.150   8.542  0.7234 -0.1682 -0.1237
  719MOL0     C94798  -1.259   7.158   8.625 -0.4122 -0.1408 -1.1207
  719MOL0     C94799  -1.294   7.021   8.689  0.0731  0.0631 -0.0040
  719MOL0     O94800  -1.432   7.029   8.741  0.0524  0.4597  0.6272
  719MOL0     C94801  -1.525   6.957   8.666  0.0066  0.7207 -0.6261
  719MOL0     C94802  -1.535   6.827   8.696  0.3049  1.3545 -0.4424
  719MOL0     C94803  -1.639   6.756   8.637  0.5490  0.6203 -0.8859
  719MOL0     C94804  -1.737   6.811   8.550  0.0779  0.3814 -0.0690
  719MOL0     C94805  -1.856   6.729   8.512  0.2536 -0.4751 -0.6694
  719MOL0     O94806  -1.882   6.615   8.583  0.0184 -0.6420  0.2243
  719MOL0     C94807  -1.992   6.541   8.544 -1.0668 -0.2195  0.2318
  719MOL0     C94808  -2.086   6.514   8.642  0.2204  0.2801  0.3908
  719MOL0     C94809  -2.214   6.455   8.600  0.6727  0.4767  0.6607
  719MOL0     C94810  -2.239   6.418   8.468  0.3749 -0.2433  0.6314
  719MOL0     O94811  -2.359   6.370   8.434  0.3624 -0.4208 -0.1924
  719MOL0     C94812  -2.421   6.407   8.313 -0.0908  0.5619  0.1939
  719MOL0     C94813  -2.552   6.344   8.289 -0.1313  0.0475 -0.2664
  719MOL0     C94814  -2.626   6.377   8.165  0.3805 -0.4372 -0.1670
  719MOL0     C94815  -2.776   6.339   8.169 -0.0784  0.6823  0.4999
  719MOL0     C94816  -2.840   6.384   8.039  0.1811 -0.2372  1.0145
  719MOL0     C94817  -2.987   6.357   8.018  0.1519  0.0977  0.6419
  719MOL0     C94818  -3.027   6.207   8.009  0.2531  0.5210  0.2177
  719MOL0     C94819  -3.005   6.147   7.873 -0.0993  0.3898 -0.1995
  719MOL0    Cl94820  -3.124   6.207   7.746  0.0142 -0.3848  0.0807
  719MOL0     C94821  -2.134   6.448   8.376 -0.5538  0.2210  0.0403
  719MOL0     C94822  -2.015   6.502   8.414 -0.0330  0.6480  0.9348
  719MOL0     O94823  -1.929   6.778   8.423  0.4571 -0.0626  0.0109
  719MOL0     C94824  -1.718   6.948   8.528 -0.6445  0.5647  0.5060
  719MOL0     C94825  -1.612   7.021   8.580  0.1332  0.1665  0.0332
  719MOL0     N94826  -0.862   7.314   8.580 -0.3854 -0.5073  0.2151
  719MOL0     N94827  -0.745   7.328   8.528 -0.4024 -0.0700 -0.5348
  719MOL0     C94828   0.443   6.928   8.769  0.9413  0.0376 -0.7686
  719MOL0     C94829   0.569   6.918   8.800  0.0789 -0.9421 -0.1704
  719MOL0     C94830   1.016   6.959   8.864 -0.5033  0.1109 -0.2807
  719MOL0     C94831   1.094   6.890   8.764  0.1995 -0.4430 -0.3208
  719MOL0     C94832   1.234   6.889   8.781  0.5319 -0.2168  0.0824
  719MOL0     C94833   1.297   6.929   8.907 -0.3718 -0.1262 -0.4121
  719MOL0     O94834   1.431   6.913   8.936 -0.1980 -0.0553  0.4156
  719MOL0     C94835   1.510   6.861   8.824 -0.3239 -0.2393  0.0449
  719MOL0     C94836   1.659   6.837   8.867 -0.0329  0.6651 -0.1128
  719MOL0     C94837   1.739   6.964   8.889  0.6581 -0.2315 -0.0880
  719MOL0     C94838   1.894   6.932   8.914  0.3930 -0.3894 -0.0644
  719MOL0     C94839   1.968   7.052   8.940 -0.1498  0.0769 -0.0178
  719MOL0     C94840   2.031   7.146   8.962  0.2671  0.2612 -0.1568
  719MOL0     C94841   1.223   7.000   9.001 -0.9494 -0.3126 -0.2372
  719MOL0     C94842   1.089   7.013   8.974  1.0030 -0.0082 -0.4086
  719MOL0     H94843   0.724   6.966   8.495 -0.8299 -0.2117 -1.6548
  719MOL0     H94844   0.478   6.990   8.434 -1.9174 -0.5107 -0.1745
  719MOL0     H94845   0.253   6.891   8.432  0.1232 -0.5319  0.7999
  719MOL0     H94846   0.260   7.076   8.440  0.6545 -0.9144 -1.1303
  719MOL0     H94847   0.028   6.872   8.478  0.2466  0.1045 -3.2305
  719MOL0     H94848   0.046   7.003   8.365 -1.8121  3.3729  0.4060
  719MOL0     H94849   0.044   7.157   8.587  0.6244  0.5840 -2.7820
  719MOL0     H94850  -0.037   7.011   8.651 -1.3496 -0.2608 -0.1798
  719MOL0     H94851  -0.196   7.185   8.561  0.0382  1.6039 -1.6262
  719MOL0     H94852  -0.112   7.177   8.417  0.9628 -0.1003  0.5911
  719MOL0     H94853  -0.273   6.940   8.535  0.5351  3.0015  1.1000
  719MOL0     H94854  -0.185   6.930   8.381 -1.6135 -1.1756 -0.2781
  719MOL0     H94855  -0.398   7.005   8.288 -0.4981 -1.7932  0.7205
  719MOL0     H94856  -0.315   7.161   8.327  0.3703 -1.7408 -3.5024
  719MOL0     H94857  -0.514   6.994   8.495 -1.9889 -0.1279 -2.5439
  719MOL0     H94858  -0.433   7.143   8.555 -1.5140  0.7575  0.0146
  719MOL0     H94859  -0.617   7.135   8.314  3.8708 -1.8587 -0.4202
  719MOL0     H94860  -0.530   7.275   8.367  2.1602 -2.3150 -0.6876
  719MOL0     H94861  -0.759   7.001   8.526 -0.4614  0.3363 -0.4485
  719MOL0     H94862  -1.047   7.180   8.731 -0.2073 -0.6002 -0.3988
  719MOL0     H94863  -1.003   7.024   8.651  2.9076 -0.7050 -3.6273
  719MOL0     H94864  -1.142   7.067   8.471 -0.3589 -1.6451  1.6419
  719MOL0     H94865  -1.129   7.243   8.485 -2.2923 -0.7037 -1.3954
  719MOL0     H94866  -1.241   7.233   8.703  0.6273  0.2815 -1.7506
  719MOL0     H94867  -1.345   7.204   8.575 -1.2361  0.0964  0.4701
  719MOL0     H94868  -1.224   6.998   8.771 -0.3341  0.5298  0.4788
  719MOL0     H94869  -1.291   6.955   8.602 -3.1804  1.9843 -1.7584
  719MOL0     H94870  -1.459   6.780   8.758 -0.3147  0.9501  0.0189
  719MOL0     H94871  -1.649   6.650   8.655  1.4965  0.1009 -3.0968
  719MOL0     H94872  -2.053   6.540   8.743 -0.3403  0.4438  0.5336
  719MOL0     H94873  -2.281   6.417   8.676  3.0539 -2.7806  1.3481
  719MOL0     H94874  -2.361   6.384   8.225 -2.1704 -2.1384 -0.6489
  719MOL0     H94875  -2.434   6.515   8.321  0.0565  0.4851  2.0754
  719MOL0     H94876  -2.607   6.385   8.375 -0.4083  1.1205 -0.9365
  719MOL0     H94877  -2.549   6.235   8.288 -0.5942  0.0348 -0.6567
  719MOL0     H94878  -2.578   6.311   8.093 -2.0479 -3.2613  0.5690
  719MOL0     H94879  -2.619   6.482   8.135 -0.0625  0.2834  2.0799
  719MOL0     H94880  -2.792   6.235   8.198 -2.1661  0.6889 -0.4687
  719MOL0     H94881  -2.821   6.397   8.251 -2.7592 -1.6183  0.7821
  719MOL0     H94882  -2.785   6.353   7.950 -1.5465 -1.8686  0.4310
  719MOL0     H94883  -2.841   6.493   8.040 -0.5864 -0.2233  0.5260
  719MOL0     H94884  -3.017   6.408   7.926 -1.9691 -1.9767  0.0709
  719MOL0     H94885  -3.039   6.412   8.097  1.8405  0.6479  1.3965
  719MOL0     H94886  -2.978   6.148   8.087  0.5234  1.0491  0.4542
  719MOL0     H94887  -3.134   6.210   8.028  0.2852 -2.0790  1.1510
  719MOL0     H94888  -3.024   6.039   7.875 -0.5902  0.4113 -1.9906
  719MOL0     H94889  -2.901   6.155   7.841 -0.4093 -1.0697 -1.7392
  719MOL0     H94890  -2.149   6.431   8.270  0.5875  0.4673 -0.1694
  719MOL0     H94891  -1.942   6.527   8.338 -1.1989 -1.4798 -0.9870
  719MOL0     H94892  -1.795   6.995   8.467 -2.8820  0.6818  3.2150
  719MOL0     H94893  -1.597   7.126   8.560 -1.6799  0.6280  0.9132
  719MOL0     H94894   0.361   6.930   8.841  0.7865 -3.0747 -0.7042
  719MOL0     H94895   0.585   6.902   8.906 -1.9607 -1.0900  0.1511
  719MOL0     H94896   1.049   6.856   8.671 -0.0750  0.2283 -0.4446
  719MOL0     H94897   1.291   6.855   8.695  2.7911  1.2945  0.8723
  719MOL0     H94898   1.502   6.940   8.748  1.1280  0.8441  0.9779
  719MOL0     H94899   1.468   6.765   8.792 -1.9159 -0.3022  2.1370
  719MOL0     H94900   1.663   6.772   8.955 -3.0316  0.5574  0.0670
  719MOL0     H94901   1.712   6.784   8.787  0.4512  2.1294 -0.7937
  719MOL0     H94902   1.696   7.024   8.970 -1.3565 -1.2474 -0.3551
  719MOL0     H94903   1.724   7.023   8.799 -0.4480 -1.7910 -0.9694
  719MOL0     H94904   1.892   6.877   9.009 -3.8747 -3.0327 -1.4217
  719MOL0     H94905   1.946   6.884   8.832  1.9574  4.3809 -2.2356
  719MOL0     H94906   2.087   7.236   8.980 -0.7330  1.6748 -3.3490
  719MOL0     H94907   1.250   7.043   9.097 -0.5007 -1.2298  0.0554
  719MOL0     H94908   1.025   7.063   9.047  3.2792 -0.6510  2.2064
  720MOL0     O94909   9.280   1.339   6.686 -0.5652  0.0226  0.4930
  720MOL0     C94910   9.322   1.450   6.662  0.8325 -0.7913  0.5564
  720MOL0     O94911   9.248   1.565   6.642 -0.4548  0.6013  0.0472
  720MOL0     C94912   9.109   1.557   6.644  0.7087 -0.5943 -0.8788
  720MOL0     C94913   9.030   1.455   6.587 -0.0174 -1.0293 -0.0363
  720MOL0     C94914   8.890   1.459   6.596 -0.0179 -0.0131  0.9298
  720MOL0     C94915   8.824   1.560   6.666 -0.4381  0.8898 -0.5591
  720MOL0     O94916   8.690   1.535   6.698  0.4212  0.2090  0.5011
  720MOL0     C94917   8.601   1.647   6.728  0.8478 -0.0129  0.6003
  720MOL0     C94918   8.449   1.603   6.742  0.5061  0.3426  0.6471
  720MOL0     C94919   8.408   1.527   6.611  0.9132 -0.0467 -0.2639
  720MOL0     C94920   8.390   1.626   6.498  1.3253 -0.6012 -0.1597
  720MOL0     C94921   8.300   1.567   6.390 -0.0056  0.0523  0.0713
  720MOL0     C94922   8.349   1.435   6.337 -0.6804  0.0842  0.2721
  720MOL0     C94923   8.289   1.386   6.196  0.4178 -0.1187  0.0510
  720MOL0     C94924   8.180   1.274   6.201 -0.3133 -0.0057 -0.6958
  720MOL0     N94925   8.068   1.301   6.295  0.3357 -0.0312 -0.5504
  720MOL0     C94926   8.066   1.267   6.430  0.1794 -0.0439  0.1183
  720MOL0     C94927   7.958   1.324   6.493  0.6164 -0.0983 -0.2744
  720MOL0     C94928   7.920   1.315   6.638 -0.1150  0.8513 -0.4676
  720MOL0     C94929   7.776   1.269   6.660 -0.2539 -0.0803  0.2545
  720MOL0     C94930   7.675   1.377   6.626  0.7729  0.6068  0.4850
  720MOL0     C94931   7.543   1.326   6.681  0.5442 -0.1377  0.4389
  720MOL0     O94932   7.501   1.208   6.600  0.7407 -0.2389  0.0951
  720MOL0     C94933   7.382   1.216   6.530  0.1006  0.5305  0.0569
  720MOL0     C94934   7.299   1.107   6.533  0.1133 -0.1080  0.0098
  720MOL0     C94935   7.176   1.102   6.462 -0.0905  0.4974 -0.9484
  720MOL0     C94936   7.131   1.207   6.385 -0.1304 -0.1408  0.8375
  720MOL0     C94937   7.017   1.212   6.299  0.7578  0.8056 -0.5972
  720MOL0     O94938   6.989   1.326   6.238  0.5167 -0.3076 -0.6058
  720MOL0     C94939   6.869   1.337   6.176 -0.5591  0.2779  0.2640
  720MOL0     C94940   6.749   1.349   6.250  0.1654  0.5643 -0.6593
  720MOL0     C94941   6.627   1.364   6.183  0.1206  0.3427 -0.5300
  720MOL0     C94942   6.619   1.378   6.045  0.5691  0.4741 -0.2023
  720MOL0     O94943   6.509   1.407   5.967  0.4999 -0.4598  1.3159
  720MOL0     C94944   6.377   1.358   6.015  0.5294 -0.9473  0.0963
  720MOL0     C94945   6.288   1.377   5.889  0.4422 -0.3847  0.8658
  720MOL0     C94946   6.145   1.309   5.904 -0.4965 -1.0268  0.3585
  720MOL0     C94947   6.061   1.320   5.780 -0.0682  0.4322  1.1399
  720MOL0     C94948   5.910   1.282   5.811 -0.2272  0.1111  0.2890
  720MOL0     C94949   5.809   1.312   5.696 -0.1328 -0.6109 -0.2435
  720MOL0     C94950   5.671   1.301   5.749  0.0779 -1.4763  0.7894
  720MOL0     C94951   5.574   1.249   5.649  0.5857  0.0398 -0.2661
  720MOL0    Cl94952   5.403   1.287   5.708 -0.2512  0.0095  0.1501
  720MOL0     C94953   6.742   1.372   5.977 -0.0203  0.5230  0.4802
  720MOL0     C94954   6.861   1.360   6.040  0.0652  0.2780 -0.5953
  720MOL0     O94955   6.933   1.123   6.311 -0.0579  0.0225  0.1020
  720MOL0     C94956   7.225   1.315   6.382  0.1059 -0.4446 -0.1462
  720MOL0     C94957   7.346   1.318   6.449 -0.0500 -0.3398  0.1422
  720MOL0     N94958   7.893   1.385   6.388 -0.2213 -0.0541 -0.4906
  720MOL0     N94959   7.956   1.370   6.278 -0.3013  0.1972  0.0076
  720MOL0     C94960   8.900   1.659   6.722 -0.1329 -0.5822 -0.0439
  720MOL0     C94961   9.038   1.666   6.708  0.4559 -0.3293 -0.2400
  720MOL0     C94962   9.472   1.467   6.633 -0.3502 -0.1982 -0.6892
  720MOL0     C94963   9.524   1.594   6.616  0.3735  0.1438  0.3352
  720MOL0     C94964   9.663   1.598   6.603  0.2880  0.1896 -0.6690
  720MOL0     C94965   9.749   1.491   6.600 -0.3721  0.8579  0.1464
  720MOL0     O94966   9.885   1.515   6.573 -0.5280  0.4794 -0.0777
  720MOL0     C94967   9.968   1.401   6.541  0.2954 -0.4589 -0.4555
  720MOL0     C94968  10.112   1.442   6.538 -0.2689 -0.1488 -0.5040
  720MOL0     C94969  10.212   1.327   6.525 -0.4175 -0.1602  0.2307
  720MOL0     C94970  10.364   1.373   6.525  0.5232  0.9478  0.7216
  720MOL0     C94971  10.400   1.473   6.424  0.6116 -0.5139  0.3123
  720MOL0     C94972  10.423   1.561   6.341  0.1369 -0.0920 -0.0259
  720MOL0     C94973   9.690   1.359   6.622  0.2895  0.0058  0.0689
  720MOL0     C94974   9.550   1.347   6.638  0.5184  0.6385  0.4675
  720MOL0     H94975   9.084   1.382   6.529  1.6219 -1.0731  1.4514
  720MOL0     H94976   8.834   1.374   6.559  0.2684  0.4586 -0.6813
  720MOL0     H94977   8.600   1.712   6.640 -1.2266 -1.7715 -0.7860
  720MOL0     H94978   8.645   1.703   6.811  2.0981 -1.0283  0.6520
  720MOL0     H94979   8.383   1.689   6.756  1.1835  1.2270 -1.2958
  720MOL0     H94980   8.438   1.543   6.833 -1.2661  0.8473  0.7921
  720MOL0     H94981   8.308   1.485   6.628 -0.6144  1.8993 -3.5004
  720MOL0     H94982   8.474   1.440   6.598  1.7262  0.5384 -0.1277
  720MOL0     H94983   8.343   1.717   6.535 -1.7138 -0.3782 -3.8722
  720MOL0     H94984   8.483   1.655   6.448  1.7855 -1.0325  0.4319
  720MOL0     H94985   8.288   1.644   6.313  0.3396 -0.5146 -0.5687
  720MOL0     H94986   8.203   1.547   6.436  0.6899  2.3042  2.7424
  720MOL0     H94987   8.336   1.356   6.412  2.7755 -3.3035 -2.2915
  720MOL0     H94988   8.455   1.449   6.316 -0.3109 -1.0251  1.3082
  720MOL0     H94989   8.231   1.465   6.146  1.4289 -0.0137 -0.9851
  720MOL0     H94990   8.364   1.364   6.120 -0.2975  2.6467 -1.6015
  720MOL0     H94991   8.226   1.181   6.236  0.4756  1.8372  3.8289
  720MOL0     H94992   8.134   1.258   6.103  1.2907 -2.1852 -1.1790
  720MOL0     H94993   8.148   1.208   6.472 -0.2022 -1.5151 -1.1169
  720MOL0     H94994   7.931   1.417   6.677  3.0828 -0.1822  1.7761
  720MOL0     H94995   7.986   1.244   6.690 -1.0533 -0.5141 -1.0687
  720MOL0     H94996   7.761   1.223   6.759 -0.7099 -2.1380 -0.7166
  720MOL0     H94997   7.755   1.193   6.585  0.9881 -1.9562  1.7055
  720MOL0     H94998   7.696   1.473   6.674 -0.4194  1.4802 -0.6846
  720MOL0     H94999   7.653   1.406   6.523 -1.4438  1.3673  1.0996
  720MOL0     H95000   7.469   1.405   6.670  2.0765  1.2058 -0.7837
  720MOL0     H95001   7.544   1.283   6.782 -1.4869 -2.9956 -0.6223
  720MOL0     H95002   7.342   1.022   6.586  1.2425  0.2008 -0.3782
  720MOL0     H95003   7.113   1.014   6.468  0.4905  0.1403  0.1895
  720MOL0     H95004   6.754   1.373   6.356  1.5501  0.4168 -0.6714
  720MOL0     H95005   6.547   1.390   6.251  1.2610 -0.2422  1.0834
  720MOL0     H95006   6.338   1.425   6.092  2.8029  1.4667 -0.6875
  720MOL0     H95007   6.370   1.258   6.059  0.1435 -0.5498  0.9463
  720MOL0     H95008   6.328   1.320   5.805  0.6876  1.1967 -0.1432
  720MOL0     H95009   6.280   1.481   5.856 -0.8703 -0.5414  0.6234
  720MOL0     H95010   6.100   1.365   5.987 -0.4913 -2.2321  1.2013
  720MOL0     H95011   6.156   1.207   5.940  0.8346 -1.0407 -0.0242
  720MOL0     H95012   6.059   1.425   5.748  2.4499  0.4349  0.7975
  720MOL0     H95013   6.094   1.257   5.697 -2.2823  0.4235  0.1882
  720MOL0     H95014   5.875   1.324   5.905  1.8247 -0.5830  1.4387
  720MOL0     H95015   5.918   1.176   5.835  1.2257  0.0674 -0.2363
  720MOL0     H95016   5.830   1.238   5.619  1.7329 -1.8040  1.3011
  720MOL0     H95017   5.830   1.412   5.658 -0.1278  0.3654  2.1473
  720MOL0     H95018   5.677   1.235   5.836  1.1286  0.1266  1.9894
  720MOL0     H95019   5.638   1.402   5.774  0.1520 -1.1323 -0.4151
  720MOL0     H95020   5.577   1.140   5.642  0.8897  0.0251  0.0585
  720MOL0     H95021   5.591   1.306   5.558 -0.9293  1.8718  0.5294
  720MOL0     H95022   6.737   1.355   5.870 -2.6222 -1.2108  0.7813
  720MOL0     H95023   6.954   1.371   5.985 -0.0588 -0.5131 -0.9732
  720MOL0     H95024   7.207   1.406   6.325  1.5612  0.8899  1.3928
  720MOL0     H95025   7.406   1.409   6.448 -0.6603  0.1679 -3.3439
  720MOL0     H95026   8.847   1.740   6.771  0.8980  2.4416 -3.4646
  720MOL0     H95027   9.097   1.751   6.740  0.8729 -0.1539 -1.4196
  720MOL0     H95028   9.464   1.684   6.616  0.5012  0.3711  3.8246
  720MOL0     H95029   9.710   1.694   6.587  0.8995  0.0040 -0.0062
  720MOL0     H95030   9.946   1.349   6.448  1.4958 -2.6913  0.4453
  720MOL0     H95031   9.955   1.331   6.624  1.2518  0.1884  0.2736
  720MOL0     H95032  10.123   1.522   6.465 -0.9813 -2.1061 -2.8949
  720MOL0     H95033  10.134   1.484   6.637 -1.4207  2.0474 -1.1099
  720MOL0     H95034  10.191   1.265   6.438  3.3866  0.6246 -1.4810
  720MOL0     H95035  10.212   1.262   6.613 -0.6251 -0.0865  0.2839
  720MOL0     H95036  10.394   1.407   6.624  1.8298 -1.5050  1.2570
  720MOL0     H95037  10.417   1.281   6.498 -1.0758 -0.3919  1.8973
  720MOL0     H95038  10.435   1.658   6.296 -2.1149  0.4420  0.3653
  720MOL0     H95039   9.747   1.268   6.634  0.9269  0.2768 -0.7975
  720MOL0     H95040   9.516   1.246   6.662  3.0314 -1.0058 -2.2046
  721MOL0     O95041   0.430   0.533   8.064 -0.2314 -0.9326  0.8275
  721MOL0     C95042   0.504   0.548   8.156  0.9298 -1.0744 -0.8051
  721MOL0     O95043   0.472   0.610   8.279  0.3041 -0.3174  0.4083
  721MOL0     C95044   0.343   0.653   8.296  0.4198  0.4975  0.0186
  721MOL0     C95045   0.268   0.601   8.398  0.0943  0.2395  0.1708
  721MOL0     C95046   0.138   0.637   8.430 -0.8661  0.7232  0.2478
  721MOL0     C95047   0.076   0.730   8.343 -0.7700 -0.5562 -0.6704
  721MOL0     O95048  -0.051   0.774   8.370  0.1805 -0.1391  0.0868
  721MOL0     C95049  -0.118   0.730   8.494 -0.3963 -0.6078  0.1912
  721MOL0     C95050  -0.250   0.803   8.501 -0.3586  0.7348 -0.2550
  721MOL0     C95051  -0.283   0.837   8.652 -0.6729 -0.2973 -0.3325
  721MOL0     C95052  -0.433   0.861   8.662 -0.2002 -0.8319  0.1587
  721MOL0     C95053  -0.473   0.995   8.606 -0.2693 -0.2085  0.3988
  721MOL0     C95054  -0.625   1.021   8.636 -0.1928  1.0484 -0.2971
  721MOL0     C95055  -0.660   1.149   8.569 -0.1672 -0.1359 -0.2904
  721MOL0     C95056  -0.802   1.198   8.605 -0.1386 -0.0460 -0.0350
  721MOL0     N95057  -0.847   1.333   8.553 -0.7698  0.2309 -0.4720
  721MOL0     C95058  -0.798   1.452   8.598  0.7335  0.3374 -0.2524
  721MOL0     C95059  -0.861   1.546   8.520  0.1920  0.3488 -0.4912
  721MOL0     C95060  -0.855   1.693   8.538 -0.6916 -0.6355  0.4227
  721MOL0     C95061  -0.739   1.741   8.454 -0.7040  0.1939  0.4557
  721MOL0     C95062  -0.701   1.895   8.466  0.1727  0.5857  0.3121
  721MOL0     C95063  -0.593   1.943   8.371  0.5021  0.2779 -0.0615
  721MOL0     O95064  -0.561   2.080   8.386  0.2179  0.0136 -0.6687
  721MOL0     C95065  -0.430   2.122   8.367 -0.8517  0.4022  0.4607
  721MOL0     C95066  -0.381   2.247   8.424  0.0977  0.0676 -1.2939
  721MOL0     C95067  -0.249   2.288   8.408 -0.3041  0.5060 -0.6182
  721MOL0     C95068  -0.155   2.212   8.339 -0.0614 -0.5592  0.7426
  721MOL0     C95069  -0.015   2.256   8.325  0.0417 -0.1871 -0.0744
  721MOL0     O95070   0.020   2.390   8.350 -0.7948  0.8250  0.3253
  721MOL0     C95071   0.150   2.431   8.324 -0.1775 -0.0094 -1.0961
  721MOL0     C95072   0.216   2.401   8.211  0.3738  0.0544 -0.0299
  721MOL0     C95073   0.349   2.430   8.188 -0.4155  0.7427  0.0239
  721MOL0     C95074   0.428   2.490   8.291  0.2929 -0.0243 -0.1956
  721MOL0     O95075   0.558   2.504   8.254  0.3520 -0.2392 -0.3952
  721MOL0     C95076   0.656   2.513   8.366 -0.5086  1.0534  0.0679
  721MOL0     C95077   0.800   2.484   8.312 -0.4539 -0.3373  0.5677
  721MOL0     C95078   0.899   2.578   8.379 -0.2911  0.3242  0.2983
  721MOL0     C95079   1.040   2.560   8.324 -0.9599  0.1079  0.4329
  721MOL0     C95080   1.146   2.625   8.410 -0.8674 -0.2652 -0.3322
  721MOL0     C95081   1.278   2.645   8.331  1.0624 -0.0805  0.2011
  721MOL0     C95082   1.360   2.515   8.296 -0.2017 -0.2528  0.3907
  721MOL0     C95083   1.493   2.547   8.233  0.3619  0.3404  0.8373
  721MOL0    Cl95084   1.459   2.624   8.072 -0.0575 -0.1807 -0.0719
  721MOL0     C95085   0.362   2.514   8.417 -0.6810 -0.1788  0.4192
  721MOL0     C95086   0.226   2.493   8.425 -0.6185  0.0056  0.0442
  721MOL0     O95087   0.068   2.166   8.281  0.0064 -0.6878 -0.2869
  721MOL0     C95088  -0.207   2.095   8.280 -0.7697 -0.2577 -0.2611
  721MOL0     C95089  -0.342   2.049   8.290 -0.1718 -0.1333  0.2998
  721MOL0     N95090  -0.945   1.485   8.433 -1.1082 -0.5059 -0.2255
  721MOL0     N95091  -0.932   1.351   8.456 -0.0174 -0.5810  0.2943
  721MOL0     C95092   0.152   0.787   8.240  0.2075 -0.8026  0.0253
  721MOL0     C95093   0.278   0.752   8.218  0.7989  0.2075 -0.6051
  721MOL0     C95094   0.646   0.508   8.154 -0.6753  0.7771  0.7188
  721MOL0     C95095   0.736   0.535   8.262  0.2904 -0.1492  0.5840
  721MOL0     C95096   0.871   0.502   8.249 -1.5414  0.3580 -0.7129
  721MOL0     C95097   0.919   0.430   8.144 -0.4165 -0.7168 -0.4452
  721MOL0     O95098   1.049   0.390   8.148 -0.1078  0.2714 -0.5335
  721MOL0     C95099   1.120   0.338   8.030  0.0767  0.4756  0.6851
  721MOL0     C95100   1.069   0.196   8.008  0.5346  0.1789  1.3070
  721MOL0     C95101   1.178   0.122   7.927 -0.9776 -1.1521  0.2479
  721MOL0     C95102   1.154  -0.025   7.943  0.0883  0.4407 -0.4178
  721MOL0     C95103   1.214  -0.066   8.066 -0.8034 -0.3093  0.0615
  721MOL0     C95104   1.264  -0.095   8.173  0.2757  0.5364 -0.4918
  721MOL0     C95105   0.835   0.412   8.039 -0.2038 -0.0968  0.2014
  721MOL0     C95106   0.699   0.443   8.041 -0.0320 -0.9049 -0.7200
  721MOL0     H95107   0.323   0.530   8.459 -1.7986 -1.5514 -0.0774
  721MOL0     H95108   0.088   0.599   8.519 -3.1291  3.5958  0.3548
  721MOL0     H95109  -0.058   0.759   8.581  1.7923  0.1426 -1.4926
  721MOL0     H95110  -0.137   0.622   8.496 -0.3486 -0.7774  5.2404
  721MOL0     H95111  -0.326   0.739   8.456  0.7090  0.6588 -2.0783
  721MOL0     H95112  -0.236   0.894   8.442  0.6671  0.8643  0.1699
  721MOL0     H95113  -0.234   0.927   8.688 -2.3123 -0.3430  2.2356
  721MOL0     H95114  -0.251   0.751   8.711 -0.1601 -1.5995 -2.3864
  721MOL0     H95115  -0.493   0.785   8.610  0.1439 -2.0854  1.5131
  721MOL0     H95116  -0.462   0.858   8.767  0.8629  1.7564  0.5939
  721MOL0     H95117  -0.463   0.990   8.497 -1.3611  1.0150  0.2144
  721MOL0     H95118  -0.404   1.075   8.635  0.6684 -0.8945  0.1164
  721MOL0     H95119  -0.642   1.028   8.744 -4.7445  1.0698 -0.8211
  721MOL0     H95120  -0.690   0.949   8.586 -0.0005  0.3314  0.4677
  721MOL0     H95121  -0.582   1.221   8.594  1.2380 -0.7910 -2.4691
  721MOL0     H95122  -0.639   1.128   8.463 -0.2842 -2.2480  0.0670
  721MOL0     H95123  -0.810   1.204   8.714 -1.5662  1.3091 -0.1795
  721MOL0     H95124  -0.881   1.129   8.573 -0.9065 -0.1881  2.0003
  721MOL0     H95125  -0.733   1.476   8.682 -1.0906  1.2925  0.9477
  721MOL0     H95126  -0.835   1.712   8.644 -2.7130 -4.0681  1.5974
  721MOL0     H95127  -0.949   1.746   8.518 -0.8535 -0.5495  1.3591
  721MOL0     H95128  -0.747   1.725   8.347 -1.7648  1.3891  0.3359
  721MOL0     H95129  -0.648   1.689   8.486 -2.0628 -0.7100  3.1999
  721MOL0     H95130  -0.789   1.961   8.462 -0.0952  0.2069 -0.1121
  721MOL0     H95131  -0.664   1.910   8.568 -0.2344  0.6891  0.4479
  721MOL0     H95132  -0.617   1.917   8.267 -0.2054 -1.2531  0.4430
  721MOL0     H95133  -0.509   1.881   8.405  0.7438  1.1207  0.9432
  721MOL0     H95134  -0.444   2.328   8.459  1.8338  0.1382  2.1013
  721MOL0     H95135  -0.230   2.381   8.459 -0.7398 -0.0038  0.5020
  721MOL0     H95136   0.151   2.350   8.140 -0.1375 -2.7265  2.2483
  721MOL0     H95137   0.399   2.417   8.093 -2.0660 -0.8184 -0.7136
  721MOL0     H95138   0.633   2.455   8.455 -1.8804  0.2462 -0.7887
  721MOL0     H95139   0.652   2.616   8.403  1.4360  0.4982  2.0405
  721MOL0     H95140   0.795   2.490   8.203  1.2385 -0.0259  0.4797
  721MOL0     H95141   0.827   2.382   8.339  0.8917  0.3035  1.7371
  721MOL0     H95142   0.881   2.558   8.485 -0.4924  1.9808  0.6018
  721MOL0     H95143   0.881   2.686   8.370 -0.5078  0.2051 -0.8124
  721MOL0     H95144   1.064   2.453   8.320 -1.1049  0.0818  0.2696
  721MOL0     H95145   1.048   2.601   8.223 -1.1578  0.0152  0.3800
  721MOL0     H95146   1.167   2.554   8.491 -2.5840 -4.1102 -2.9390
  721MOL0     H95147   1.105   2.715   8.457  0.5397 -0.2815  1.0408
  721MOL0     H95148   1.345   2.708   8.390 -1.1529  2.1158  0.4919
  721MOL0     H95149   1.256   2.688   8.233 -0.8434 -1.5320 -0.0826
  721MOL0     H95150   1.379   2.452   8.383 -1.7453 -0.8248  0.3432
  721MOL0     H95151   1.306   2.454   8.222  2.2824 -2.0399 -0.0728
  721MOL0     H95152   1.558   2.458   8.234  0.0639  0.1125  0.2140
  721MOL0     H95153   1.546   2.624   8.290  0.7297  1.2787 -0.7229
  721MOL0     H95154   0.419   2.549   8.503  2.7891 -1.2953 -1.2082
  721MOL0     H95155   0.186   2.517   8.524  2.4621 -1.1419  1.7048
  721MOL0     H95156  -0.135   2.035   8.225  1.2977  1.3576  0.5519
  721MOL0     H95157  -0.376   1.958   8.242 -1.0798 -0.0237  0.7171
  721MOL0     H95158   0.098   0.859   8.179 -0.1712 -0.2959  0.9509
  721MOL0     H95159   0.341   0.802   8.144 -0.4602 -0.4083 -2.1593
  721MOL0     H95160   0.713   0.585   8.356 -0.2754  1.5380 -0.3982
  721MOL0     H95161   0.945   0.528   8.324  1.3904 -1.4401 -2.7575
  721MOL0     H95162   1.225   0.337   8.059  0.5310  2.8548 -0.6717
  721MOL0     H95163   1.100   0.407   7.948 -1.5391  0.5486  1.1151
  721MOL0     H95164   1.046   0.138   8.097 -0.4235 -1.6948 -0.1001
  721MOL0     H95165   0.979   0.190   7.947  1.0785 -1.7805  0.6346
  721MOL0     H95166   1.280   0.154   7.951 -0.8116  0.3019 -2.0573
  721MOL0     H95167   1.157   0.147   7.822 -2.4664  1.7428  1.1230
  721MOL0     H95168   1.048  -0.050   7.943 -0.4319  2.3016  1.3288
  721MOL0     H95169   1.205  -0.076   7.862 -1.0432 -0.4173 -0.6114
  721MOL0     H95170   1.300  -0.125   8.269  0.5259 -3.3635 -1.6152
  721MOL0     H95171   0.868   0.364   7.947  1.5677  1.2173  0.1003
  721MOL0     H95172   0.643   0.415   7.952  0.2065 -1.0687 -0.8207
  722MOL0     O95173   0.286   9.756   7.746 -0.4459 -0.4194 -0.1988
  722MOL0     C95174   0.317   9.641   7.764 -0.2207 -0.1333  0.2635
  722MOL0     O95175   0.229   9.530   7.785  0.3467  0.1447 -0.0275
  722MOL0     C95176   0.092   9.553   7.786 -0.3622  0.6061 -0.0311
  722MOL0     C95177   0.024   9.513   7.670 -0.1866  0.5680  0.3786
  722MOL0     C95178  -0.113   9.542   7.667  0.4318  0.4105  0.1115
  722MOL0     C95179  -0.182   9.597   7.777  0.1906  0.7305  0.5990
  722MOL0     O95180  -0.317   9.609   7.755 -0.3264  0.4273  0.1057
  722MOL0     C95181  -0.396   9.599   7.873  0.0937  0.1199 -0.4855
  722MOL0     C95182  -0.527   9.530   7.830 -0.0984  0.7573  0.0726
  722MOL0     C95183  -0.605   9.608   7.716  0.6729 -0.5536  1.1993
  722MOL0     C95184  -0.741   9.546   7.688  0.3634  0.3348  0.5601
  722MOL0     C95185  -0.821   9.606   7.576  0.1120  0.5342  0.2963
  722MOL0     C95186  -0.969   9.557   7.566 -0.5399 -0.1704  0.4942
  722MOL0     C95187  -1.051   9.656   7.490 -0.2324  0.0710 -0.0405
  722MOL0     C95188  -1.075   9.793   7.559  0.4370 -0.6709 -0.7555
  722MOL0     N95189  -1.174   9.877   7.498  0.7730 -0.2146  1.0030
  722MOL0     C95190  -1.183   9.902   7.366  0.5222 -0.1638  0.0677
  722MOL0     C95191  -1.301   9.967   7.338  0.5194 -0.2209 -0.1051
  722MOL0     C95192  -1.356  10.000   7.200  0.0947  0.3181 -0.2098
  722MOL0     C95193  -1.316   9.892   7.089 -0.3890 -0.7812 -0.2336
  722MOL0     C95194  -1.367   9.755   7.119 -0.6226  0.6230  1.0102
  722MOL0     C95195  -1.508   9.724   7.070 -0.2431  0.7703 -0.4065
  722MOL0     O95196  -1.606   9.786   7.158 -0.0722 -0.2688  0.6544
  722MOL0     C95197  -1.728   9.815   7.099 -0.3888 -0.3961  0.3140
  722MOL0     C95198  -1.788   9.751   6.989 -0.7179  0.6317  0.5770
  722MOL0     C95199  -1.906   9.791   6.928  0.7718  0.5839 -0.2299
  722MOL0     C95200  -1.975   9.907   6.985 -0.6927 -0.4044  0.4642
  722MOL0     C95201  -2.094   9.953   6.917  0.1343 -0.1954  0.5907
  722MOL0     O95202  -2.153  10.061   6.973  0.3807  0.1973 -0.1479
  722MOL0     C95203  -2.260  10.123   6.908  0.0979  0.9035 -0.7850
  722MOL0     C95204  -2.396  10.234   7.023  0.3486 -0.4669  1.1753
  722MOL0     C95205  -2.549  10.351   6.926 -0.7075  0.1632  0.0790
  722MOL0     C95206  -2.563  10.350   6.717 -0.2517  0.1032 -0.5852
  722MOL0     O95207  -2.661  10.423   6.658 -0.6572 -0.5654  0.5999
  722MOL0     C95208  -2.661  10.391   6.522 -0.4341 -0.3282  0.7556
  722MOL0     C95209  -2.783  10.456   6.476  0.4019  0.7378  0.2952
  722MOL0     C95210  -2.917  10.418   6.557 -0.2184  0.0587  0.0601
  722MOL0     C95211  -3.029  10.521   6.514 -0.0275 -0.2904  0.2440
  722MOL0     C95212  -3.159  10.491   6.596 -0.0937  0.2901 -0.1761
  722MOL0     C95213  -3.272  10.585   6.557 -0.4029 -0.4499 -0.3137
  722MOL0     C95214  -3.387  10.554   6.649  0.7942 -0.3267 -0.5240
  722MOL0     C95215  -3.511  10.653   6.627 -0.3889  0.0784 -0.2914
  722MOL0    Cl95216  -3.445  10.828   6.661 -0.1049  0.1391 -0.1694
  722MOL0     C95217  -2.431  10.236   6.598  1.0566  0.5170 -0.7880
  722MOL0     C95218  -2.280  10.124   6.696  0.2028 -0.2368  0.3525
  722MOL0     O95219  -2.138   9.894   6.821 -0.0617  0.2212 -0.0649
  722MOL0     C95220  -1.917   9.974   7.091 -0.1581 -0.7915  0.1124
  722MOL0     C95221  -1.793   9.928   7.148  0.4569 -0.8778  0.1099
  722MOL0     N95222  -1.377   9.968   7.456 -0.3659  0.3092 -0.2753
  722MOL0     N95223  -1.295   9.929   7.545 -0.3179  0.5095  0.4589
  722MOL0     C95224  -0.111   9.640   7.889  1.0196 -0.4068  1.0389
  722MOL0     C95225   0.023   9.609   7.895  0.6614  0.1335  0.0131
  722MOL0     C95226   0.462   9.616   7.772 -0.8272 -0.7844  0.5070
  722MOL0     C95227   0.560   9.714   7.746  1.4439 -0.0611 -0.8403
  722MOL0     C95228   0.693   9.689   7.758 -0.3824 -0.3209  0.1843
  722MOL0     C95229   0.741   9.565   7.793  0.2267 -0.3977  0.0099
  722MOL0     O95230   0.873   9.538   7.825  0.2776  0.4806 -0.2452
  722MOL0     C95231   0.976   9.628   7.801  0.4589 -0.6096 -0.4561
  722MOL0     C95232   1.107   9.556   7.829 -0.2923 -0.1433  0.3877
  722MOL0     C95233   1.230   9.646   7.824 -1.1699 -0.4579  0.1061
  722MOL0     C95234   1.370   9.571   7.808  0.0732  0.2229  0.3125
  722MOL0     C95235   1.362   9.458   7.712  0.2065 -0.1795 -0.8157
  722MOL0     C95236   1.360   9.375   7.626 -0.0763 -0.4341 -0.3609
  722MOL0     C95237   0.647   9.471   7.824  0.2580 -0.6494 -0.6242
  722MOL0     C95238   0.508   9.489   7.811 -0.3135  0.2403  0.0504
  722MOL0     H95239   0.082   9.464   7.593 -0.1478 -0.1935  0.8866
  722MOL0     H95240  -0.182   9.524   7.586  0.4955  1.6254 -0.2339
  722MOL0     H95241  -0.416   9.696   7.921  0.2476  0.1967 -0.5767
  722MOL0     H95242  -0.350   9.530   7.944  0.7538 -1.0508 -2.0153
  722MOL0     H95243  -0.588   9.512   7.918 -2.1003 -1.2230 -1.5943
  722MOL0     H95244  -0.506   9.432   7.786  1.9291  2.1734 -2.4183
  722MOL0     H95245  -0.549   9.609   7.622  1.4552  1.2987  1.6368
  722MOL0     H95246  -0.607   9.713   7.747  1.2354 -1.1565  3.4746
  722MOL0     H95247  -0.726   9.438   7.675  0.5237  0.4188  0.0228
  722MOL0     H95248  -0.794   9.559   7.783 -2.7563  0.3578 -1.0761
  722MOL0     H95249  -0.768   9.598   7.481  0.9504 -1.2355  0.8849
  722MOL0     H95250  -0.832   9.712   7.602 -0.9051  0.0591  1.9702
  722MOL0     H95251  -1.014   9.538   7.664 -0.4473 -0.1515  0.5414
  722MOL0     H95252  -0.974   9.461   7.514  0.1033  0.9085 -1.6765
  722MOL0     H95253  -1.005   9.665   7.391  0.6313 -1.4057  0.1978
  722MOL0     H95254  -1.150   9.613   7.474  1.2344 -4.1653  0.9836
  722MOL0     H95255  -0.984   9.849   7.584 -0.2335  0.1170 -0.0229
  722MOL0     H95256  -1.107   9.782   7.663  1.6436  2.6897  0.0940
  722MOL0     H95257  -1.117   9.862   7.290  0.3929  1.8391 -1.1837
  722MOL0     H95258  -1.315  10.095   7.163 -2.0725  2.2419  2.0170
  722MOL0     H95259  -1.464  10.008   7.192  0.2402  0.9257 -2.5107
  722MOL0     H95260  -1.208   9.875   7.090 -0.3057 -0.5855  2.4837
  722MOL0     H95261  -1.349   9.927   6.991 -0.4485  0.2853  0.1524
  722MOL0     H95262  -1.310   9.680   7.063 -1.0614 -0.3706  1.8406
  722MOL0     H95263  -1.356   9.728   7.225 -1.7943 -0.1199  0.9601
  722MOL0     H95264  -1.522   9.615   7.077  0.1600  0.6544 -1.2864
  722MOL0     H95265  -1.513   9.753   6.965  0.6139  1.2315 -0.3284
  722MOL0     H95266  -1.737   9.663   6.951 -1.1778  2.0800 -3.9577
  722MOL0     H95267  -1.945   9.734   6.845 -0.4880  0.7533  0.2248
  722MOL0     H95268  -2.383  10.246   7.130 -2.5707  1.4606  1.4202
  722MOL0     H95269  -2.607  10.422   6.984  1.2604 -0.5267  3.1457
  722MOL0     H95270  -2.662  10.282   6.507  0.3976 -0.3405  0.7879
  722MOL0     H95271  -2.571  10.428   6.472 -0.8114  0.3168  0.5368
  722MOL0     H95272  -2.806  10.420   6.375 -0.2472 -2.1531  1.3820
  722MOL0     H95273  -2.764  10.563   6.486  1.0921  0.4952  1.9248
  722MOL0     H95274  -2.901  10.425   6.665 -0.6783  2.1576  0.0514
  722MOL0     H95275  -2.945  10.317   6.529  1.5935 -0.1248 -1.2766
  722MOL0     H95276  -3.011  10.628   6.530 -2.6942 -0.1059  3.1813
  722MOL0     H95277  -3.056  10.501   6.410  0.6786 -1.2724  0.2412
  722MOL0     H95278  -3.128  10.509   6.699  3.9465  2.8422 -1.5774
  722MOL0     H95279  -3.193  10.389   6.581  3.1467 -0.5652 -3.1072
  722MOL0     H95280  -3.298  10.574   6.451 -3.3042  2.0597 -0.0122
  722MOL0     H95281  -3.247  10.690   6.573 -2.7425 -0.1108  1.5677
  722MOL0     H95282  -3.433  10.458   6.626 -0.3334  0.6307 -2.6243
  722MOL0     H95283  -3.357  10.555   6.754  3.2447 -1.0349 -1.1591
  722MOL0     H95284  -3.584  10.627   6.704 -0.9465 -0.3885 -0.9578
  722MOL0     H95285  -3.563  10.639   6.531 -0.8702  2.4396 -0.4458
  722MOL0     H95286  -2.443  10.225   6.491 -0.7315 -1.3695 -0.4436
  722MOL0     H95287  -2.201  10.074   6.639  0.9203  1.3070 -0.0623
  722MOL0     H95288  -1.958  10.069   7.124  1.3969  0.4079 -1.2548
  722MOL0     H95289  -1.763   9.986   7.234  1.8955 -1.1732 -0.1786
  722MOL0     H95290  -0.149   9.685   7.980 -2.6753 -0.3692 -0.3833
  722MOL0     H95291   0.077   9.650   7.980  2.0858  0.9141 -1.2167
  722MOL0     H95292   0.526   9.810   7.710 -1.0032 -1.4768 -2.5919
  722MOL0     H95293   0.768   9.761   7.727 -0.1858 -0.7826 -0.4345
  722MOL0     H95294   0.970   9.721   7.858 -2.7588 -1.3668  0.6259
  722MOL0     H95295   0.981   9.666   7.698 -0.6402 -0.1230 -0.3382
  722MOL0     H95296   1.122   9.509   7.927  1.8853  3.1432  1.8347
  722MOL0     H95297   1.105   9.476   7.756 -3.8342  1.3592 -1.3708
  722MOL0     H95298   1.246   9.705   7.915  1.2665  2.9223 -2.2570
  722MOL0     H95299   1.219   9.716   7.741 -1.1552  1.5785  1.7346
  722MOL0     H95300   1.442   9.639   7.762  0.0886 -0.6466 -1.0152
  722MOL0     H95301   1.409   9.539   7.905 -0.8391 -2.0068  0.0168
  722MOL0     H95302   1.372   9.294   7.556  0.9330 -0.3778 -0.2797
  722MOL0     H95303   0.671   9.369   7.852  1.2692 -0.7268 -1.7015
  722MOL0     H95304   0.446   9.401   7.828 -0.2354  0.4192  1.3744
  723MOL0     O95305  10.721   7.468   7.170 -0.0278 -0.1278 -0.1996
  723MOL0     C95306  10.800   7.528   7.245  0.2145  0.1820 -0.2168
  723MOL0     O95307  10.762   7.628   7.332  0.1361  0.7259  0.4532
  723MOL0     C95308  10.631   7.649   7.342  0.1924  0.4398 -0.4884
  723MOL0     C95309  10.579   7.762   7.297  0.4836 -0.7510 -0.9203
  723MOL0     C95310  10.447   7.797   7.321 -0.2093  0.3963 -0.0598
  723MOL0     C95311  10.356   7.700   7.382 -0.2392  0.5994  0.0296
  723MOL0     O95312  10.225   7.723   7.413  0.1360  0.1688  1.1628
  723MOL0     C95313  10.159   7.815   7.332  0.0880 -1.0954  0.3017
  723MOL0     C95314   9.999   7.812   7.342  0.0376 -0.2229  0.1030
  723MOL0     C95315   9.959   7.956   7.321  0.7423  0.0716 -0.6467
  723MOL0     C95316   9.804   7.966   7.323  0.9011 -0.1130  0.2737
  723MOL0     C95317   9.743   8.103   7.294  0.0696  0.0110  0.4251
  723MOL0     C95318   9.592   8.095   7.260 -0.6409  0.3672 -0.2055
  723MOL0     C95319   9.509   8.054   7.380 -0.9400  0.0207  1.1389
  723MOL0     C95320   9.360   8.033   7.347  0.4476  0.0628  0.1110
  723MOL0     N95321   9.297   8.152   7.282 -0.1940  0.4624  0.2096
  723MOL0     C95322   9.302   8.283   7.321  0.4830  0.3860  0.9470
  723MOL0     C95323   9.249   8.349   7.210  0.6366  0.2038 -0.4790
  723MOL0     C95324   9.221   8.484   7.193 -0.5147 -0.2752 -0.1506
  723MOL0     C95325   9.109   8.525   7.287  0.0415 -0.3196  0.1900
  723MOL0     C95326   9.033   8.646   7.222  0.0356  0.0589 -0.1173
  723MOL0     C95327   9.081   8.783   7.265  0.4796 -0.7648 -0.1287
  723MOL0     O95328   9.078   8.793   7.408  0.1704 -0.2145 -0.3546
  723MOL0     C95329   9.088   8.917   7.475  0.3834 -1.1169 -0.3837
  723MOL0     C95330   9.128   9.039   7.419 -0.0643  0.4558  0.4880
  723MOL0     C95331   9.118   9.155   7.498  0.0757  0.2200  0.6722
  723MOL0     C95332   9.079   9.154   7.631 -0.5741 -0.0550  0.4563
  723MOL0     C95333   9.057   9.275   7.714 -0.0633 -0.1766  0.3555
  723MOL0     O95334   9.083   9.390   7.656  0.3143  0.0007  0.4234
  723MOL0     C95335   9.117   9.496   7.736  0.4366 -0.3881 -0.2673
  723MOL0     C95336   9.026   9.595   7.757 -0.2831 -1.0177  0.7891
  723MOL0     C95337   9.058   9.708   7.836 -0.6030  0.9177 -0.8621
  723MOL0     C95338   9.189   9.722   7.900 -0.1078  1.3974  1.0226
  723MOL0     O95339   9.232   9.835   7.966 -0.5558  0.7018 -0.7107
  723MOL0     C95340   9.358   9.847   8.042  0.6597  1.0507 -0.4451
  723MOL0     C95341   9.389   9.980   8.092 -1.0183 -1.1646 -0.1401
  723MOL0     C95342   9.449   9.959   8.234  0.4472  0.2522  0.2113
  723MOL0     C95343   9.461  10.092   8.310  0.1712 -0.4024 -0.0208
  723MOL0     C95344   9.513  10.069   8.454  0.2019 -0.3596  0.7924
  723MOL0     C95345   9.567  10.205   8.514 -0.3425 -0.0201  0.4063
  723MOL0     C95346   9.687  10.177   8.616 -0.7879  0.1222 -0.0483
  723MOL0     C95347   9.714  10.302   8.702  1.3018 -0.4304 -0.4950
  723MOL0    Cl95348   9.881  10.297   8.763 -0.2081 -0.2212 -0.0601
  723MOL0     C95349   9.283   9.614   7.877 -0.4865 -0.2135  0.3170
  723MOL0     C95350   9.244   9.504   7.794  0.7774 -0.5424 -1.0741
  723MOL0     O95351   9.035   9.265   7.835 -0.6233 -0.2976 -0.2910
  723MOL0     C95352   9.043   9.031   7.690 -0.6861 -0.4362 -0.2710
  723MOL0     C95353   9.042   8.919   7.608 -0.0366  0.1318  0.3835
  723MOL0     N95354   9.215   8.266   7.112  0.3153 -0.0995 -0.0397
  723MOL0     N95355   9.245   8.146   7.156 -0.3909 -0.9940  0.6621
  723MOL0     C95356  10.408   7.583   7.431  0.4718 -0.6297  0.1236
  723MOL0     C95357  10.545   7.560   7.417 -0.2276  0.2783 -0.7506
  723MOL0     C95358  10.943   7.490   7.248  0.1768 -1.1148  1.1685
  723MOL0     C95359  11.035   7.553   7.334  0.0721 -0.2055  0.1855
  723MOL0     C95360  11.173   7.518   7.333  0.2059 -0.7394 -0.6279
  723MOL0     C95361  11.218   7.425   7.253 -0.2523  0.4916  0.8029
  723MOL0     O95362  11.347   7.378   7.253  0.7747  0.1237  0.1742
  723MOL0     C95363  11.447   7.421   7.344 -0.2110 -0.0741 -0.6013
  723MOL0     C95364  11.577   7.335   7.329  0.2236 -0.2698  0.1504
  723MOL0     C95365  11.659   7.383   7.219  0.1827 -0.1240  0.1408
  723MOL0     C95366  11.792   7.308   7.212 -0.4465  0.3333 -0.1335
  723MOL0     C95367  11.855   7.347   7.087  0.6459  0.3533  0.6306
  723MOL0     C95368  11.886   7.377   6.971  0.5310 -0.4281  0.7197
  723MOL0     C95369  11.130   7.354   7.173  0.5576 -0.0114 -0.2102
  723MOL0     C95370  10.992   7.384   7.162 -0.1688 -0.9057 -0.0269
  723MOL0     H95371  10.636   7.840   7.248  1.3712 -1.2644 -0.7252
  723MOL0     H95372  10.431   7.900   7.291  0.8586  0.8720  0.9102
  723MOL0     H95373  10.184   7.810   7.225 -1.5305  0.7060 -0.2221
  723MOL0     H95374  10.196   7.910   7.371  0.1747 -1.5725  1.4081
  723MOL0     H95375   9.970   7.790   7.445 -1.1609  0.6918 -0.0219
  723MOL0     H95376   9.949   7.739   7.277  0.6237 -1.8836  1.4351
  723MOL0     H95377   9.999   7.988   7.224 -0.7928  2.2430 -0.6297
  723MOL0     H95378   9.995   8.019   7.403 -1.4195  3.0594 -1.8124
  723MOL0     H95379   9.747   7.900   7.258 -0.5538 -0.8542  2.2023
  723MOL0     H95380   9.768   7.937   7.422  0.0704  3.8967  1.3239
  723MOL0     H95381   9.796   8.149   7.210  1.0722 -1.9017 -0.0335
  723MOL0     H95382   9.759   8.162   7.385 -1.1232  0.1383  0.5611
  723MOL0     H95383   9.577   8.029   7.174 -3.4188  1.8154 -0.9254
  723MOL0     H95384   9.555   8.192   7.227  2.2567  1.6794  0.0534
  723MOL0     H95385   9.544   7.955   7.409 -2.3467 -0.6981  0.4901
  723MOL0     H95386   9.529   8.124   7.462  3.7590  0.8963 -0.4423
  723MOL0     H95387   9.303   8.009   7.438 -2.5605  1.2737 -1.3179
  723MOL0     H95388   9.375   7.946   7.282  1.4934 -0.2092  0.6923
  723MOL0     H95389   9.335   8.335   7.411 -3.4339  1.7494  1.7884
  723MOL0     H95390   9.191   8.501   7.090 -1.1185 -1.2767 -0.1566
  723MOL0     H95391   9.305   8.546   7.227 -3.2223  2.9987  1.1952
  723MOL0     H95392   9.149   8.551   7.385 -1.3672 -1.8763  1.2540
  723MOL0     H95393   9.044   8.440   7.309  0.2330 -0.0007  2.1243
  723MOL0     H95394   9.042   8.647   7.113 -1.3301 -0.2745 -0.2489
  723MOL0     H95395   8.925   8.643   7.238 -0.0848  1.4680 -0.5758
  723MOL0     H95396   9.012   8.858   7.227 -0.8479 -0.3727  2.7795
  723MOL0     H95397   9.183   8.801   7.231 -0.1682  0.4526 -1.5120
  723MOL0     H95398   9.165   9.041   7.317  0.6694 -1.6154  0.6789
  723MOL0     H95399   9.135   9.252   7.453 -1.6393 -1.7344 -5.0619
  723MOL0     H95400   8.933   9.587   7.701 -0.9441  1.0968  1.4810
  723MOL0     H95401   8.989   9.792   7.841  0.8224  2.2547 -2.2354
  723MOL0     H95402   9.443   9.818   7.979 -0.9598 -0.1891 -2.1656
  723MOL0     H95403   9.352   9.773   8.122  0.4567  1.6180  0.0756
  723MOL0     H95404   9.307  10.050   8.102 -0.5124 -0.4952 -0.5837
  723MOL0     H95405   9.465  10.027   8.028 -0.8718  1.3028  1.7254
  723MOL0     H95406   9.547   9.911   8.228  1.0240  1.3188  1.0805
  723MOL0     H95407   9.382   9.897   8.295  0.6462  1.2251  1.4294
  723MOL0     H95408   9.537  10.155   8.261 -0.5787  1.0759  0.6440
  723MOL0     H95409   9.365  10.143   8.319  0.4423  0.2237 -0.6015
  723MOL0     H95410   9.594   9.996   8.459  0.6521 -0.0712 -1.4221
  723MOL0     H95411   9.427  10.034   8.512 -1.1222  1.2875 -0.0792
  723MOL0     H95412   9.489  10.260   8.567  1.6968  1.0620  2.4380
  723MOL0     H95413   9.609  10.272   8.438 -0.6218 -2.6756 -2.2998
  723MOL0     H95414   9.663  10.087   8.673 -0.7335 -0.3541 -0.7707
  723MOL0     H95415   9.779  10.168   8.558  1.2210 -1.0146  3.0474
  723MOL0     H95416   9.643  10.299   8.785 -1.0464 -2.3319 -2.4512
  723MOL0     H95417   9.713  10.398   8.650  1.9577  0.9502  1.8805
  723MOL0     H95418   9.383   9.618   7.919 -0.3499 -0.9210  0.0759
  723MOL0     H95419   9.321   9.433   7.763  1.2462 -0.1103 -0.9225
  723MOL0     H95420   9.022   9.017   7.796  2.4569 -0.4420  0.4556
  723MOL0     H95421   9.015   8.823   7.649 -2.4309  0.4486 -0.3209
  723MOL0     H95422  10.349   7.514   7.490 -0.9689 -1.1625 -1.8265
  723MOL0     H95423  10.592   7.476   7.469  2.0584  1.8702 -0.0470
  723MOL0     H95424  11.005   7.632   7.402  1.1095  3.3216 -3.0671
  723MOL0     H95425  11.236   7.567   7.407 -0.6219 -1.5818  0.6589
  723MOL0     H95426  11.406   7.408   7.444 -0.2253  4.0697  0.0926
  723MOL0     H95427  11.469   7.527   7.333 -0.2668 -0.0976 -0.9456
  723MOL0     H95428  11.634   7.339   7.422  1.3497 -2.4742 -0.3746
  723MOL0     H95429  11.554   7.228   7.318  1.4438 -1.0234  3.5679
  723MOL0     H95430  11.676   7.489   7.241 -0.5272  0.5402 -2.1723
  723MOL0     H95431  11.609   7.364   7.123  0.4566  0.4967 -0.1396
  723MOL0     H95432  11.846   7.334   7.303 -2.3338  0.7368  0.9318
  723MOL0     H95433  11.774   7.200   7.220 -1.9262  0.1350 -3.9045
  723MOL0     H95434  11.905   7.426   6.878 -0.1749 -1.2368  0.1362
  723MOL0     H95435  11.168   7.262   7.130  0.8617 -0.0540  0.1459
  723MOL0     H95436  10.932   7.315   7.104 -4.2180 -0.3894  3.1155
  724MOL0     O95437   8.566   0.989   3.045  0.0938  0.1018  0.4083
  724MOL0     C95438   8.527   1.104   3.057 -0.8115 -0.1075  0.0355
  724MOL0     O95439   8.403   1.148   3.052  0.0216 -0.2276 -0.2705
  724MOL0     C95440   8.302   1.058   3.026  0.0876 -0.2935 -0.5334
  724MOL0     C95441   8.287   0.954   3.114 -0.2110  1.2476  0.3042
  724MOL0     C95442   8.176   0.877   3.109  0.7184  0.5198  0.4447
  724MOL0     C95443   8.064   0.907   3.030 -0.2646 -0.4328 -0.3357
  724MOL0     O95444   7.942   0.850   3.056  0.4056  0.0154  0.5794
  724MOL0     C95445   7.846   0.835   2.950 -1.2032 -0.0135 -0.8685
  724MOL0     C95446   7.728   0.772   3.010  0.3744  0.6435 -0.0578
  724MOL0     C95447   7.619   0.764   2.907 -0.5589 -0.2753 -0.1738
  724MOL0     C95448   7.485   0.718   2.970 -0.0258 -0.1101 -0.5012
  724MOL0     C95449   7.387   0.667   2.871  0.5178 -0.4437  0.0300
  724MOL0     C95450   7.261   0.625   2.945  0.1201 -0.7587 -0.3553
  724MOL0     C95451   7.133   0.634   2.868  0.3449 -0.4180  0.2281
  724MOL0     C95452   7.016   0.612   2.963 -0.2529  0.0086 -0.1439
  724MOL0     N95453   6.899   0.596   2.894 -0.1435 -0.0030  0.1940
  724MOL0     C95454   6.842   0.700   2.832 -0.1855  0.0523 -0.3436
  724MOL0     C95455   6.743   0.643   2.762  0.3784  0.3145  0.1864
  724MOL0     C95456   6.647   0.715   2.680  0.4260 -0.0029 -0.2033
  724MOL0     C95457   6.517   0.649   2.653 -0.4374 -0.0552  0.8892
  724MOL0     C95458   6.440   0.623   2.783 -0.3662  0.4050  0.7168
  724MOL0     C95459   6.297   0.654   2.773  0.8029 -0.6889 -0.2132
  724MOL0     O95460   6.212   0.571   2.689 -0.4471 -0.5219 -0.7179
  724MOL0     C95461   6.075   0.582   2.703  0.1282  0.1750 -0.3731
  724MOL0     C95462   6.006   0.628   2.813  0.0295  0.5194 -0.0209
  724MOL0     C95463   5.872   0.633   2.818 -0.4816  0.4648 -0.3004
  724MOL0     C95464   5.792   0.595   2.709  0.6319  0.3823  0.1619
  724MOL0     C95465   5.639   0.592   2.707 -0.9421 -1.1960 -0.4650
  724MOL0     O95466   5.565   0.581   2.591 -0.3408 -0.6498 -0.2286
  724MOL0     C95467   5.435   0.558   2.618 -0.3153 -0.2760 -0.8059
  724MOL0     C95468   5.376   0.446   2.566  0.5562 -0.5462 -0.1795
  724MOL0     C95469   5.235   0.430   2.573 -0.0726 -0.2328 -0.5414
  724MOL0     C95470   5.151   0.528   2.627 -1.1374  0.1049  0.0971
  724MOL0     O95471   5.015   0.510   2.644  0.2673  0.0198  0.3365
  724MOL0     C95472   4.948   0.393   2.595 -0.2521 -1.0565  0.7637
  724MOL0     C95473   4.800   0.412   2.649  0.1330 -0.1463 -0.0643
  724MOL0     C95474   4.728   0.514   2.560 -0.4486  1.3152 -0.3728
  724MOL0     C95475   4.598   0.461   2.495  0.2131 -0.1496  0.2954
  724MOL0     C95476   4.537   0.574   2.415 -0.0526 -0.6142  0.3235
  724MOL0     C95477   4.397   0.541   2.353 -0.8149  1.1818 -0.0941
  724MOL0     C95478   4.399   0.414   2.265 -0.9250  0.4223  0.0396
  724MOL0     C95479   4.268   0.360   2.224 -0.0821 -0.7957 -0.2852
  724MOL0    Cl95480   4.291   0.215   2.115 -0.5451  0.0239  0.1913
  724MOL0     C95481   5.213   0.642   2.681  0.6303 -0.6096  0.4415
  724MOL0     C95482   5.348   0.661   2.671  0.2643 -0.2745 -0.7783
  724MOL0     O95483   5.588   0.614   2.818  0.1620 -0.2831 -0.0037
  724MOL0     C95484   5.857   0.560   2.587  0.1552 -0.2629  0.0652
  724MOL0     C95485   5.997   0.558   2.587 -0.7712  0.6694  0.0465
  724MOL0     N95486   6.741   0.503   2.780 -0.2604  0.4250  0.6944
  724MOL0     N95487   6.833   0.478   2.864 -0.4316  0.8853 -0.1507
  724MOL0     C95488   8.084   1.011   2.931  0.1627  0.3459 -0.7375
  724MOL0     C95489   8.203   1.078   2.931 -0.1093 -0.4091  0.8760
  724MOL0     C95490   8.620   1.207   3.108 -0.5977  1.3266 -0.8555
  724MOL0     C95491   8.587   1.343   3.117 -0.0584 -0.6132 -0.0431
  724MOL0     C95492   8.681   1.438   3.154 -0.4648 -0.0123 -0.5016
  724MOL0     C95493   8.814   1.406   3.195 -0.0071  0.5362  0.6248
  724MOL0     O95494   8.895   1.502   3.251 -0.0746 -0.0547 -0.0939
  724MOL0     C95495   9.037   1.473   3.241 -0.3475  0.5437 -0.7629
  724MOL0     C95496   9.108   1.597   3.288 -0.3705  0.5197  0.4016
  724MOL0     C95497   9.262   1.576   3.285  0.3822  1.0291 -0.4446
  724MOL0     C95498   9.334   1.657   3.393  0.5578 -0.2781  0.1927
  724MOL0     C95499   9.376   1.578   3.507 -0.1099  0.8155 -0.6333
  724MOL0     C95500   9.404   1.524   3.611 -0.1683  0.3222 -0.1215
  724MOL0     C95501   8.845   1.271   3.195  0.5364  0.2606 -0.1706
  724MOL0     C95502   8.755   1.175   3.143 -0.2026  0.3353 -0.0922
  724MOL0     H95503   8.351   0.921   3.196  1.4085 -1.3124 -1.8129
  724MOL0     H95504   8.147   0.805   3.185  0.8113 -2.5317 -2.2169
  724MOL0     H95505   7.878   0.770   2.868 -0.4814  0.7980 -1.2468
  724MOL0     H95506   7.828   0.935   2.909 -0.6991 -0.5444 -2.4518
  724MOL0     H95507   7.687   0.826   3.096 -0.6197  0.8766 -0.6577
  724MOL0     H95508   7.748   0.669   3.040  0.6335  1.2016  1.8371
  724MOL0     H95509   7.651   0.691   2.833  0.2640  0.5652 -0.6623
  724MOL0     H95510   7.595   0.862   2.864  0.7955  0.0338 -0.2466
  724MOL0     H95511   7.507   0.644   3.047  2.0916  1.7615  0.8226
  724MOL0     H95512   7.447   0.806   3.023  1.4849 -1.3805  2.9462
  724MOL0     H95513   7.432   0.581   2.820 -0.3098 -0.8798  0.0282
  724MOL0     H95514   7.362   0.750   2.804  0.5194  0.6408  1.3325
  724MOL0     H95515   7.263   0.689   3.034  1.5553  3.4518 -3.0824
  724MOL0     H95516   7.272   0.522   2.981  0.4569 -0.2896  0.9577
  724MOL0     H95517   7.117   0.732   2.822  0.7673 -0.6845 -0.5193
  724MOL0     H95518   7.131   0.554   2.792  0.1014  2.2123 -2.7365
  724MOL0     H95519   7.003   0.694   3.034  0.3193 -0.0421  0.0319
  724MOL0     H95520   7.014   0.529   3.035 -1.4378 -0.4142 -0.6513
  724MOL0     H95521   6.858   0.807   2.836 -3.1963  0.5357  1.4155
  724MOL0     H95522   6.697   0.729   2.584  3.4445 -0.8770  1.1293
  724MOL0     H95523   6.634   0.811   2.730  0.6354  0.2108 -0.5542
  724MOL0     H95524   6.541   0.561   2.594  0.7254  1.9782 -1.8813
  724MOL0     H95525   6.449   0.713   2.596 -4.7724 -1.2523  4.1544
  724MOL0     H95526   6.457   0.522   2.821 -0.3210 -0.3229 -1.1241
  724MOL0     H95527   6.482   0.686   2.861  0.6479 -0.2857  0.7445
  724MOL0     H95528   6.282   0.758   2.744 -0.5371 -1.2587 -1.7525
  724MOL0     H95529   6.255   0.647   2.874 -3.5038 -1.9537 -1.8529
  724MOL0     H95530   6.055   0.661   2.904 -1.4406  2.7293  0.0515
  724MOL0     H95531   5.823   0.659   2.911 -1.9476  1.2561 -1.2660
  724MOL0     H95532   5.434   0.372   2.511 -0.3089 -1.6382  0.3542
  724MOL0     H95533   5.196   0.337   2.533  2.4685 -0.9011 -1.6515
  724MOL0     H95534   4.996   0.307   2.642  3.7087 -0.3502 -1.4874
  724MOL0     H95535   4.945   0.378   2.486 -2.3129  1.0994  0.4450
  724MOL0     H95536   4.795   0.458   2.748  1.9086 -0.8804  0.4124
  724MOL0     H95537   4.742   0.319   2.646  2.5053 -1.7843  1.1621
  724MOL0     H95538   4.788   0.539   2.472 -1.2909  2.4758 -0.6343
  724MOL0     H95539   4.718   0.609   2.614  0.6202  1.1316  0.1826
  724MOL0     H95540   4.624   0.377   2.429 -2.1914 -0.6490 -0.1444
  724MOL0     H95541   4.533   0.425   2.576 -0.0593  0.7485  0.4866
  724MOL0     H95542   4.600   0.594   2.327 -1.5360 -2.7412 -1.3199
  724MOL0     H95543   4.515   0.665   2.471 -1.6709  1.4730 -3.3248
  724MOL0     H95544   4.375   0.628   2.289 -2.8453 -0.3067 -1.5417
  724MOL0     H95545   4.334   0.540   2.443 -1.6745 -1.0973 -0.6580
  724MOL0     H95546   4.462   0.425   2.176 -0.5743  1.3171  0.3841
  724MOL0     H95547   4.441   0.331   2.322  0.0534  1.8083  1.4326
  724MOL0     H95548   4.218   0.438   2.165 -1.8692 -2.4991 -1.1021
  724MOL0     H95549   4.198   0.334   2.303 -2.1481 -2.5905 -2.5698
  724MOL0     H95550   5.149   0.724   2.714  1.8908  0.4436  0.3450
  724MOL0     H95551   5.383   0.756   2.709  0.5015 -0.9592  0.7678
  724MOL0     H95552   5.804   0.547   2.493 -0.0990  1.8696 -0.1422
  724MOL0     H95553   6.057   0.531   2.500 -0.5238 -1.5768  0.8394
  724MOL0     H95554   8.004   1.040   2.864  1.1923  1.1223 -1.6675
  724MOL0     H95555   8.234   1.160   2.866  2.1361 -1.7034  0.2089
  724MOL0     H95556   8.490   1.378   3.084 -0.5061 -2.5741 -0.9711
  724MOL0     H95557   8.659   1.544   3.157  1.9406  0.5792 -1.0407
  724MOL0     H95558   9.055   1.451   3.136  2.3367  1.4649 -0.5591
  724MOL0     H95559   9.059   1.394   3.313  1.5182  0.1166 -1.7401
  724MOL0     H95560   9.068   1.671   3.218 -1.1090 -1.2140 -1.0978
  724MOL0     H95561   9.079   1.624   3.390  0.2370 -0.7816  0.9488
  724MOL0     H95562   9.310   1.594   3.188  0.8282  1.1090 -0.2138
  724MOL0     H95563   9.282   1.470   3.305 -0.8934  0.4271 -2.1216
  724MOL0     H95564   9.423   1.707   3.352  0.0271  0.7493  0.2671
  724MOL0     H95565   9.269   1.738   3.427 -0.6656 -0.6798 -1.0813
  724MOL0     H95566   9.460   1.487   3.696  3.4008 -3.0482 -3.5131
  724MOL0     H95567   8.949   1.244   3.214  0.5174  0.2934 -0.0167
  724MOL0     H95568   8.792   1.074   3.133 -0.5535 -0.0526  2.1846
  725MOL0     O95569   1.068  10.667   6.301 -0.3420 -0.4336 -0.0796
  725MOL0     C95570   1.040  10.589   6.209 -0.8147 -0.4071 -0.1381
  725MOL0     O95571   0.922  10.588   6.146 -0.2173  0.1435 -0.3315
  725MOL0     C95572   0.825  10.669   6.192  0.1594 -0.4309  0.4563
  725MOL0     C95573   0.708  10.608   6.242  0.5646  0.0794  0.5442
  725MOL0     C95574   0.604  10.679   6.298 -0.9573  0.4066 -0.6085
  725MOL0     C95575   0.612  10.821   6.298 -0.8244  0.3886 -0.0991
  725MOL0     O95576   0.525  10.904   6.350  0.8210  0.2446  0.2364
  725MOL0     C95577   0.419  10.866   6.445 -0.5069 -0.7265 -0.1843
  725MOL0     C95578   0.331  10.981   6.481  0.2370  0.6449 -0.1468
  725MOL0     C95579   0.395  11.111   6.522  0.8010  0.9028  0.0517
  725MOL0     C95580   0.306  11.225   6.551 -0.2066  0.4645 -0.0082
  725MOL0     C95581   0.188  11.202   6.642  0.2279  0.8737  0.1942
  725MOL0     C95582   0.212  11.249   6.790 -0.7252 -0.4765  0.2412
  725MOL0     C95583   0.089  11.242   6.865  0.3769 -1.4872 -1.2987
  725MOL0     C95584   0.105  11.312   6.997 -0.3946 -0.1958 -1.2386
  725MOL0     N95585   0.115  11.458   6.969  0.0465 -0.0717 -0.0833
  725MOL0     C95586   0.032  11.528   6.889 -0.1299  0.2784  0.5112
  725MOL0     C95587   0.066  11.655   6.910 -0.1293 -0.3733 -0.0862
  725MOL0     C95588   0.009  11.769   6.828  0.9862 -0.4721  0.0862
  725MOL0     C95589  -0.127  11.816   6.885  0.2759  0.4149 -0.1573
  725MOL0     C95590  -0.124  11.863   7.038  0.1546  0.7243  0.0603
  725MOL0     C95591  -0.259  11.918   7.084 -0.6897 -0.1567  0.1059
  725MOL0     O95592  -0.356  11.811   7.098 -0.1025 -0.4314 -0.0995
  725MOL0     C95593  -0.427  11.811   7.220 -1.5513  1.0875  0.0087
  725MOL0     C95594  -0.533  11.892   7.231  0.1190 -0.6977  0.4780
  725MOL0     C95595  -0.621  11.886   7.335 -0.5587 -0.7099  0.1182
  725MOL0     C95596  -0.590  11.799   7.445 -0.0572  0.4812 -0.5743
  725MOL0     C95597  -0.672  11.805   7.580 -0.0076 -0.4518  0.3014
  725MOL0     O95598  -0.790  11.867   7.575  0.6310  0.5883 -0.2119
  725MOL0     C95599  -0.860  11.900   7.691 -0.7603  0.3404 -0.7196
  725MOL0     C95600  -0.888  12.032   7.704 -1.2371  0.0233  0.1955
  725MOL0     C95601  -0.950  12.082   7.809 -0.4723  0.3108 -0.1961
  725MOL0     C95602  -0.986  11.996   7.911 -0.6856 -0.0576 -0.2968
  725MOL0     O95603  -1.065  12.046   8.011 -0.5384 -0.6425 -0.3334
  725MOL0     C95604  -1.030  12.162   8.085 -0.1499  0.5819  0.0291
  725MOL0     C95605  -0.907  12.146   8.166  0.1044  0.0867 -0.9817
  725MOL0     C95606  -0.771  12.166   8.091  0.7371  0.0622  0.4246
  725MOL0     C95607  -0.661  12.217   8.198  0.3584  0.2662 -0.1397
  725MOL0     C95608  -0.526  12.220   8.134 -0.1022 -0.0146 -0.1432
  725MOL0     C95609  -0.470  12.078   8.099 -0.3024 -0.2895  0.0175
  725MOL0     C95610  -0.323  12.088   8.060 -0.1453 -0.6354 -0.1053
  725MOL0     C95611  -0.268  11.970   8.002 -0.0419  0.5447 -0.2308
  725MOL0    Cl95612  -0.332  11.920   7.843 -0.0875 -0.1418 -0.5768
  725MOL0     C95613  -0.970  11.861   7.896  0.1754  0.0564 -1.5456
  725MOL0     C95614  -0.912  11.808   7.782  0.3404 -0.2086  0.5445
  725MOL0     O95615  -0.613  11.766   7.678 -0.4902  0.4653  0.1863
  725MOL0     C95616  -0.479  11.715   7.435  0.3385 -0.6872 -0.4739
  725MOL0     C95617  -0.398  11.719   7.326 -0.6924 -0.2209 -0.2084
  725MOL0     N95618   0.163  11.661   7.013 -0.1775  0.2098  0.3104
  725MOL0     N95619   0.193  11.543   7.037 -0.2138  0.1580  0.2209
  725MOL0     C95620   0.727  10.884   6.240 -0.0789  0.3009  0.3805
  725MOL0     C95621   0.835  10.807   6.187  0.5388  0.1706  0.4896
  725MOL0     C95622   1.130  10.475   6.186  0.4085  0.3465 -0.7785
  725MOL0     C95623   1.241  10.461   6.265  0.4337  0.2997  0.1579
  725MOL0     C95624   1.332  10.355   6.236 -0.7709 -0.4180 -0.4710
  725MOL0     C95625   1.313  10.275   6.125 -0.1242  0.1451  0.2560
  725MOL0     O95626   1.401  10.165   6.097  0.4139 -0.0426  0.7148
  725MOL0     C95627   1.520  10.149   6.173  0.4325 -0.0006 -0.0000
  725MOL0     C95628   1.605  10.031   6.122  0.1164  0.2154  0.1144
  725MOL0     C95629   1.537   9.895   6.117 -0.8665 -0.1687 -0.2566
  725MOL0     C95630   1.623   9.791   6.043  1.4184 -0.2090 -0.1679
  725MOL0     C95631   1.732   9.731   6.118 -0.3459 -0.7155 -1.4474
  725MOL0     C95632   1.840   9.692   6.166 -0.3749  0.0193  0.1180
  725MOL0     C95633   1.206  10.297   6.046  0.2889  0.0763 -0.3425
  725MOL0     C95634   1.104  10.390   6.080  0.2888  0.0426 -0.4019
  725MOL0     H95635   0.703  10.500   6.231  1.8444  0.0051  0.5386
  725MOL0     H95636   0.521  10.624   6.341  0.2037 -0.8710  0.0679
  725MOL0     H95637   0.462  10.826   6.538 -0.2306 -2.5170 -1.0478
  725MOL0     H95638   0.358  10.787   6.400 -0.1822 -1.2789  0.3206
  725MOL0     H95639   0.269  10.945   6.564  0.0896  1.0313 -0.0877
  725MOL0     H95640   0.262  10.997   6.398 -2.6488 -1.9388  1.5476
  725MOL0     H95641   0.469  11.131   6.444 -1.4321 -1.3481 -2.8538
  725MOL0     H95642   0.450  11.092   6.615  1.9341 -0.9475 -0.9381
  725MOL0     H95643   0.367  11.307   6.588  0.3000  0.0204  0.1616
  725MOL0     H95644   0.267  11.257   6.454  4.1612  1.4488 -1.6405
  725MOL0     H95645   0.147  11.101   6.645 -0.1779  1.0406  0.4365
  725MOL0     H95646   0.105  11.259   6.598  1.7608  1.3034 -2.3883
  725MOL0     H95647   0.252  11.351   6.784 -0.9296 -0.4601 -1.6455
  725MOL0     H95648   0.292  11.192   6.838 -0.2537  2.7006  3.6675
  725MOL0     H95649   0.004  11.290   6.814 -1.6435  1.8076  4.3039
  725MOL0     H95650   0.058  11.139   6.882  2.2951 -2.2183 -1.9581
  725MOL0     H95651   0.177  11.273   7.070 -1.1410  3.2853  1.6333
  725MOL0     H95652   0.012  11.283   7.048  0.4998 -0.3233  0.4031
  725MOL0     H95653  -0.039  11.497   6.814 -0.8106  1.1984  0.7508
  725MOL0     H95654   0.006  11.732   6.726  0.9016  0.2896 -0.1949
  725MOL0     H95655   0.085  11.848   6.828 -1.1205  1.6658  0.0438
  725MOL0     H95656  -0.196  11.732   6.878  3.1917 -2.4337  2.0966
  725MOL0     H95657  -0.148  11.904   6.823  1.2902 -0.6677 -2.1378
  725MOL0     H95658  -0.111  11.775   7.102 -1.1529  2.0321  2.2550
  725MOL0     H95659  -0.054  11.946   7.054 -0.5708  1.3156  0.1841
  725MOL0     H95660  -0.284  12.004   7.021  1.3595  1.6935  1.6556
  725MOL0     H95661  -0.242  11.964   7.182  0.8855 -0.4239 -0.0048
  725MOL0     H95662  -0.549  11.960   7.149  0.1610 -0.7328  0.4407
  725MOL0     H95663  -0.714  11.943   7.335  0.8259  1.6855  0.7929
  725MOL0     H95664  -0.852  12.099   7.626  0.4965 -0.1487  0.7928
  725MOL0     H95665  -0.975  12.188   7.813 -2.4615 -0.1048 -0.8807
  725MOL0     H95666  -1.115  12.180   8.152 -0.3120 -3.1566  1.0464
  725MOL0     H95667  -1.003  12.246   8.021  2.5094  0.9791  1.5170
  725MOL0     H95668  -0.893  12.055   8.224  4.3816  2.6759  2.7715
  725MOL0     H95669  -0.917  12.222   8.244 -1.0819 -0.1437 -0.9054
  725MOL0     H95670  -0.774  12.241   8.012 -0.4678 -1.6003 -1.1870
  725MOL0     H95671  -0.753  12.072   8.039 -5.2051 -1.3762  0.2390
  725MOL0     H95672  -0.683  12.316   8.241  3.0331  0.0355  2.0180
  725MOL0     H95673  -0.652  12.138   8.273 -1.4619  0.0193 -0.1293
  725MOL0     H95674  -0.458  12.269   8.204  0.6970 -0.4236 -0.6237
  725MOL0     H95675  -0.522  12.280   8.043 -0.0218  0.4036  0.1298
  725MOL0     H95676  -0.517  12.014   8.024  2.6126 -3.1671  0.4309
  725MOL0     H95677  -0.478  12.016   8.189 -1.2250 -1.9762 -1.1794
  725MOL0     H95678  -0.306  12.167   7.986  0.3321 -0.9596 -0.3477
  725MOL0     H95679  -0.262  12.115   8.147  0.9600 -0.9104 -0.7753
  725MOL0     H95680  -0.290  11.884   8.066  0.8732  0.0011 -0.6274
  725MOL0     H95681  -0.159  11.973   7.991 -0.0656  1.5189 -0.2641
  725MOL0     H95682  -1.031  11.793   7.954 -0.3969 -0.8110 -3.1039
  725MOL0     H95683  -0.908  11.703   7.756 -1.4334 -0.0872 -0.3846
  725MOL0     H95684  -0.463  11.665   7.530 -3.7467  1.8294  1.8345
  725MOL0     H95685  -0.312  11.654   7.336 -1.6285 -1.1688  3.4850
  725MOL0     H95686   0.744  10.989   6.223  0.3181  0.1675 -0.0780
  725MOL0     H95687   0.918  10.866   6.150 -0.9515  2.5794  0.7580
  725MOL0     H95688   1.268  10.530   6.345  1.2068  1.2702 -0.9120
  725MOL0     H95689   1.422  10.351   6.297 -1.0813 -1.5616 -0.0657
  725MOL0     H95690   1.484  10.129   6.275 -3.7016 -1.6685 -1.5562
  725MOL0     H95691   1.590  10.232   6.162  2.5966 -1.4429  1.9454
  725MOL0     H95692   1.660  10.060   6.031  1.6425  0.3361  1.0279
  725MOL0     H95693   1.697  10.023   6.181  0.1159 -0.4154  0.0355
  725MOL0     H95694   1.439   9.914   6.074 -0.1484  1.4373 -1.2982
  725MOL0     H95695   1.520   9.852   6.216  0.3003 -1.1011 -0.4353
  725MOL0     H95696   1.550   9.714   6.016  1.9562 -0.2498 -1.5655
  725MOL0     H95697   1.659   9.830   5.948 -1.8648 -2.2217 -2.4130
  725MOL0     H95698   1.924   9.644   6.213 -1.9282 -2.4031  0.5916
  725MOL0     H95699   1.200  10.218   5.972 -1.0833 -0.3995  0.2565
  725MOL0     H95700   1.016  10.404   6.018  0.5640  0.2432 -0.7542
  726MOL0     O95701   1.556   6.776  10.495  0.1842  1.1835  0.0327
  726MOL0     C95702   1.555   6.732  10.612  0.1591  0.1871  1.0361
  726MOL0     O95703   1.446   6.683  10.681  0.0126  0.5458  0.5188
  726MOL0     C95704   1.327   6.662  10.620  0.2174 -0.6144 -0.5123
  726MOL0     C95705   1.245   6.553  10.655 -0.2285 -0.8371  0.0490
  726MOL0     C95706   1.118   6.531  10.603  0.1003  0.2050 -0.2788
  726MOL0     C95707   1.060   6.624  10.513 -0.8356  0.2248 -0.0806
  726MOL0     O95708   0.929   6.602  10.477  0.9183 -0.2398  0.7123
  726MOL0     C95709   0.850   6.703  10.411  0.2136  0.1690  0.2188
  726MOL0     C95710   0.701   6.670  10.403  0.3006 -0.1275 -0.0674
  726MOL0     C95711   0.660   6.571  10.294  0.1664  1.1572 -0.4302
  726MOL0     C95712   0.672   6.613  10.150 -0.5013  0.2525  0.4675
  726MOL0     C95713   0.611   6.505  10.062 -0.0826 -0.3557  0.1383
  726MOL0     C95714   0.626   6.543   9.907  0.1658 -0.5191  0.6776
  726MOL0     C95715   0.562   6.437   9.809  0.7551  0.0118 -0.1864
  726MOL0     C95716   0.612   6.456   9.669 -0.0445 -0.1922  0.8346
  726MOL0     N95717   0.568   6.345   9.581 -0.7006  0.1161 -0.0103
  726MOL0     C95718   0.624   6.223   9.581 -0.4032 -0.0042  0.2091
  726MOL0     C95719   0.542   6.142   9.500 -0.5958  0.4201 -0.2933
  726MOL0     C95720   0.559   5.994   9.475  0.3638  0.1741  0.2251
  726MOL0     C95721   0.540   5.974   9.325  0.2950 -0.1212 -0.1465
  726MOL0     C95722   0.568   5.830   9.278  0.3874  0.2465  0.4504
  726MOL0     C95723   0.547   5.806   9.127  0.4749  0.7605 -0.7702
  726MOL0     O95724   0.538   5.666   9.115 -0.1461  0.2342  1.1913
  726MOL0     C95725   0.650   5.595   9.094 -0.6734  0.4577 -0.6270
  726MOL0     C95726   0.776   5.653   9.069 -0.1568 -0.6699  0.2224
  726MOL0     C95727   0.885   5.573   9.034  0.2967  0.0158  0.8033
  726MOL0     C95728   0.874   5.430   9.014  0.0545 -0.1788 -0.1627
  726MOL0     C95729   0.995   5.346   8.977 -0.3306 -0.1326  0.2274
  726MOL0     O95730   1.099   5.416   8.921 -0.1124  0.8023  0.6754
  726MOL0     C95731   1.202   5.341   8.859 -0.5985  0.0547  0.4357
  726MOL0     C95732   1.191   5.208   8.798 -0.1298  0.1957  0.5068
  726MOL0     C95733   1.312   5.155   8.740 -0.4946  0.4426  0.7625
  726MOL0     C95734   1.437   5.219   8.743  0.0631 -0.1873  0.7609
  726MOL0     O95735   1.554   5.172   8.695  0.5850 -0.2141 -0.1542
  726MOL0     C95736   1.558   5.070   8.593  0.1749 -0.6295 -0.6311
  726MOL0     C95737   1.510   5.118   8.452  0.1941  0.1688  0.9421
  726MOL0     C95738   1.593   5.238   8.407 -0.0861  0.8131 -0.5979
  726MOL0     C95739   1.544   5.279   8.258 -0.0337 -0.3290  0.2763
  726MOL0     C95740   1.623   5.406   8.214 -0.1332  0.5314  0.7809
  726MOL0     C95741   1.764   5.371   8.162  0.0727 -0.4647 -0.2671
  726MOL0     C95742   1.830   5.497   8.100 -0.4569  0.0951  0.6962
  726MOL0     C95743   1.981   5.474   8.075  0.5817 -0.7494 -0.4216
  726MOL0    Cl95744   2.069   5.628   8.028  0.8429 -0.3212  0.0952
  726MOL0     C95745   1.438   5.346   8.795  0.4608 -0.7109 -0.4029
  726MOL0     C95746   1.326   5.414   8.854 -0.6353  0.2271  0.0455
  726MOL0     O95747   0.974   5.223   8.984 -0.3753 -0.1898 -0.1652
  726MOL0     C95748   0.745   5.377   9.041 -1.5196  0.5034 -0.2037
  726MOL0     C95749   0.644   5.454   9.081  0.4913  0.0440 -0.5920
  726MOL0     N95750   0.438   6.225   9.453  0.6185  0.2227 -0.3311
  726MOL0     N95751   0.452   6.334   9.505  0.3210 -1.1367  0.8974
  726MOL0     C95752   1.137   6.737  10.482 -0.0318 -0.6455  0.1470
  726MOL0     C95753   1.274   6.747  10.521  0.2440  0.1921 -0.0408
  726MOL0     C95754   1.685   6.746  10.691  0.0964  0.1028  0.1332
  726MOL0     C95755   1.678   6.744  10.830  0.0986  0.4551  0.1458
  726MOL0     C95756   1.788   6.755  10.906  0.4010 -0.6256 -0.0465
  726MOL0     C95757   1.915   6.782  10.849 -0.2262  0.0215  0.0231
  726MOL0     O95758   2.029   6.812  10.921 -0.7508 -0.3018  0.0842
  726MOL0     C95759   2.024   6.841  11.054  1.6853  0.3633 -0.1143
  726MOL0     C95760   2.150   6.864  11.126  0.1568  0.0671  0.1079
  726MOL0     C95761   2.238   6.969  11.072  0.0173 -0.9052  0.2889
  726MOL0     C95762   2.351   7.005  11.173  0.3799  0.3651  0.6258
  726MOL0     C95763   2.451   7.096  11.121 -0.1459 -0.9098  0.2372
  726MOL0     C95764   2.534   7.176  11.085  0.1028 -0.3562 -0.0501
  726MOL0     C95765   1.918   6.777  10.705  0.7605 -0.1539  0.1541
  726MOL0     C95766   1.807   6.766  10.624 -0.9322 -0.5695  0.5178
  726MOL0     H95767   1.278   6.489  10.736  0.6443 -2.8066 -1.7655
  726MOL0     H95768   1.067   6.439  10.632  2.7623 -1.5187 -0.7259
  726MOL0     H95769   0.893   6.714  10.310  0.0031 -0.6399  0.0372
  726MOL0     H95770   0.875   6.798  10.460  3.1027 -0.5479  0.3424
  726MOL0     H95771   0.639   6.758  10.383 -1.3090 -0.8470  1.4401
  726MOL0     H95772   0.654   6.634  10.495 -1.8275  1.5126 -0.4275
  726MOL0     H95773   0.555   6.554  10.318  1.3421 -1.0818  4.3086
  726MOL0     H95774   0.706   6.472  10.299  1.5228  1.7876  0.0061
  726MOL0     H95775   0.615   6.704  10.129 -0.7605 -0.5321 -2.8443
  726MOL0     H95776   0.776   6.627  10.119 -0.9259  2.7659 -0.0304
  726MOL0     H95777   0.507   6.496  10.093 -0.8807 -0.2210 -2.3221
  726MOL0     H95778   0.648   6.403  10.079  0.2410  0.0330  2.0805
  726MOL0     H95779   0.730   6.538   9.871 -0.7385  0.5788 -2.4034
  726MOL0     H95780   0.594   6.645   9.885 -0.7124 -1.1208 -1.0923
  726MOL0     H95781   0.583   6.333   9.836 -0.9125 -0.9243 -2.2462
  726MOL0     H95782   0.453   6.441   9.814  0.7873  0.1369  0.6570
  726MOL0     H95783   0.719   6.477   9.663 -0.1944  0.2425 -2.7087
  726MOL0     H95784   0.572   6.548   9.626  0.8473 -0.6766 -1.1738
  726MOL0     H95785   0.709   6.186   9.638  0.6899  1.7267 -0.2456
  726MOL0     H95786   0.488   5.947   9.544  1.6423 -0.7068  0.9903
  726MOL0     H95787   0.661   5.966   9.502  1.1375  1.4780 -1.2255
  726MOL0     H95788   0.616   6.032   9.272  1.5414 -2.2340 -0.7839
  726MOL0     H95789   0.439   6.010   9.302  0.1773 -0.6617 -0.4842
  726MOL0     H95790   0.665   5.786   9.301 -0.2845 -2.4574 -1.3030
  726MOL0     H95791   0.488   5.769   9.321  0.8662 -1.6008 -1.1470
  726MOL0     H95792   0.604   5.860   9.050 -0.4999  1.5525 -0.9618
  726MOL0     H95793   0.445   5.839   9.102 -0.0511 -0.6248 -0.5070
  726MOL0     H95794   0.805   5.757   9.068  0.9064 -0.9233 -2.6858
  726MOL0     H95795   0.981   5.611   9.001  1.4872 -1.9595  1.7800
  726MOL0     H95796   1.096   5.158   8.778 -0.0429  0.7238 -1.3754
  726MOL0     H95797   1.318   5.050   8.713 -0.5259  0.6520 -0.0860
  726MOL0     H95798   1.500   4.987   8.634 -0.0850 -0.6015 -0.9375
  726MOL0     H95799   1.664   5.045   8.589  0.5052  0.3745  0.9937
  726MOL0     H95800   1.408   5.151   8.473  0.1738  0.1552  0.8627
  726MOL0     H95801   1.524   5.037   8.380  1.0042  0.9557  0.1914
  726MOL0     H95802   1.697   5.203   8.400 -0.7517 -1.1763 -1.2640
  726MOL0     H95803   1.559   5.319   8.472 -2.1399 -0.2243 -0.3047
  726MOL0     H95804   1.561   5.195   8.191  0.7131 -1.6898  2.0867
  726MOL0     H95805   1.437   5.301   8.262  0.0081 -0.0775  0.0124
  726MOL0     H95806   1.625   5.479   8.295  2.6893  1.0662  0.3534
  726MOL0     H95807   1.571   5.459   8.134  0.3612  0.5323  0.4558
  726MOL0     H95808   1.757   5.296   8.083 -0.9812 -1.0507  0.3503
  726MOL0     H95809   1.832   5.326   8.235  0.9615  1.8343  0.4270
  726MOL0     H95810   1.783   5.530   8.007 -0.4224 -1.8783 -0.0641
  726MOL0     H95811   1.814   5.581   8.168 -2.9399  0.8791 -0.7664
  726MOL0     H95812   1.996   5.400   7.996 -0.4186 -1.0286 -0.3614
  726MOL0     H95813   2.021   5.442   8.172 -0.5748 -0.2378  0.2416
  726MOL0     H95814   1.530   5.400   8.817 -1.2612  1.4211  2.1511
  726MOL0     H95815   1.343   5.505   8.909  1.3333 -1.5041  2.5302
  726MOL0     H95816   0.731   5.272   9.021  0.4453  0.1919 -0.1224
  726MOL0     H95817   0.547   5.405   9.092  2.0095 -2.7986  1.5649
  726MOL0     H95818   1.095   6.809  10.413  0.8743 -1.8884 -1.7921
  726MOL0     H95819   1.318   6.836  10.479  0.5220  0.3736  0.6317
  726MOL0     H95820   1.578   6.739  10.872  0.1805  1.0139  0.4087
  726MOL0     H95821   1.770   6.751  11.013 -3.7676 -2.0910 -0.6031
  726MOL0     H95822   1.984   6.755  11.110  1.5413  0.9673  0.7293
  726MOL0     H95823   1.960   6.928  11.070  1.5539  0.0788  0.9954
  726MOL0     H95824   2.132   6.881  11.233  2.9011  1.8036  0.4186
  726MOL0     H95825   2.213   6.775  11.135  3.2061  2.1546  0.9717
  726MOL0     H95826   2.176   7.056  11.049  0.9844  0.8517  3.6719
  726MOL0     H95827   2.277   6.930  10.978  0.9784 -1.4876  0.9087
  726MOL0     H95828   2.306   7.055  11.260 -2.8574  1.1329 -1.3437
  726MOL0     H95829   2.409   6.914  11.193  0.5959 -0.3526 -2.6500
  726MOL0     H95830   2.606   7.243  11.043  0.8591  0.4931  2.4232
  726MOL0     H95831   2.017   6.793  10.662  1.0879 -1.1477  0.4939
  726MOL0     H95832   1.826   6.763  10.517  2.1724  2.8819  0.7743
  727MOL0     O95833   8.498   5.175  10.647  0.1343 -0.3054  0.0798
  727MOL0     C95834   8.523   5.148  10.534 -0.4277  0.1522  0.5408
  727MOL0     O95835   8.437   5.115  10.430 -0.2174  0.0291 -0.5338
  727MOL0     C95836   8.306   5.111  10.465 -0.0204 -0.1751  0.1310
  727MOL0     C95837   8.226   5.220  10.412  0.2552 -0.1409  0.2514
  727MOL0     C95838   8.089   5.209  10.434  0.4297  0.0670  0.4022
  727MOL0     C95839   8.029   5.109  10.513  0.1391 -0.0632  0.1837
  727MOL0     O95840   7.891   5.102  10.534 -0.2958 -0.0436 -0.4223
  727MOL0     C95841   7.790   5.180  10.462 -0.2287  0.6275  1.1565
  727MOL0     C95842   7.657   5.117  10.500 -0.4744  0.1953 -0.0851
  727MOL0     C95843   7.535   5.213  10.484 -0.9488  0.7949  0.2987
  727MOL0     C95844   7.514   5.304  10.598  1.1192 -0.1833 -0.4037
  727MOL0     C95845   7.390   5.391  10.565  0.8254  0.4543  0.5133
  727MOL0     C95846   7.361   5.486  10.685  0.1898  0.1172  0.3066
  727MOL0     C95847   7.222   5.548  10.674  1.0639  0.1502 -0.4244
  727MOL0     C95848   7.202   5.638  10.793  0.2107  0.1738 -0.7431
  727MOL0     N95849   7.071   5.696  10.786 -0.0582  0.0629  0.0473
  727MOL0     C95850   7.033   5.802  10.705 -0.4500  0.3621 -0.4465
  727MOL0     C95851   6.902   5.811  10.726  1.2144 -0.4594 -0.2559
  727MOL0     C95852   6.820   5.911  10.645  0.7515  0.5951 -0.0676
  727MOL0     C95853   6.799   5.856  10.502  0.1410 -0.3693 -0.0437
  727MOL0     C95854   6.692   5.928  10.427 -0.1073 -0.8264  1.3519
  727MOL0     C95855   6.662   5.874  10.286  0.3858  0.4351  0.0510
  727MOL0     O95856   6.568   5.970  10.231  0.3033  0.0259 -0.3560
  727MOL0     C95857   6.436   5.937  10.242 -0.3506 -0.4489  0.1571
  727MOL0     C95858   6.382   5.831  10.322 -0.1378 -0.3697 -0.7476
  727MOL0     C95859   6.243   5.817  10.336  0.6561  0.2576  0.1518
  727MOL0     C95860   6.156   5.888  10.259  0.1715  0.5540 -0.5565
  727MOL0     C95861   6.015   5.867  10.281 -0.1935 -0.6642 -0.5619
  727MOL0     O95862   5.937   5.917  10.184  0.0478  0.0511 -0.3844
  727MOL0     C95863   5.796   5.925  10.190 -0.6835 -1.5294 -0.5117
  727MOL0     C95864   5.741   6.042  10.136 -0.0693 -0.1511 -0.1171
  727MOL0     C95865   5.606   6.049  10.127 -0.0354 -0.5430  0.8910
  727MOL0     C95866   5.524   5.948  10.170  0.8348  0.7550 -0.1281
  727MOL0     O95867   5.387   5.944  10.158  0.3154  1.1512 -0.7999
  727MOL0     C95868   5.327   6.064  10.209 -0.4474 -0.5082  0.6060
  727MOL0     C95869   5.182   6.038  10.252 -0.1896 -0.2876  0.1547
  727MOL0     C95870   5.092   6.050  10.127 -0.0007  0.3491 -0.8749
  727MOL0     C95871   4.946   6.010  10.168  1.0439 -0.1313  0.3633
  727MOL0     C95872   4.835   6.049  10.070 -0.2787  0.4161 -0.4380
  727MOL0     C95873   4.701   5.998  10.107  0.1715 -0.3904  0.2102
  727MOL0     C95874   4.595   6.055  10.004 -0.0569 -0.3744 -0.2618
  727MOL0     C95875   4.459   5.989  10.035 -0.8519 -0.5714  0.1621
  727MOL0    Cl95876   4.330   6.073   9.923 -0.3055 -0.0416  0.0400
  727MOL0     C95877   5.575   5.836  10.219 -0.0182  0.3307  0.3050
  727MOL0     C95878   5.710   5.822  10.236 -0.1974 -0.5715  0.1095
  727MOL0     O95879   5.975   5.802  10.377 -0.3907 -0.3545  0.1495
  727MOL0     C95880   6.205   5.970  10.164 -0.6112 -0.5065 -0.1973
  727MOL0     C95881   6.345   6.005  10.159  0.5229  0.3305 -0.2670
  727MOL0     N95882   6.863   5.725  10.822 -0.3174 -0.6676 -1.2918
  727MOL0     N95883   6.963   5.649  10.847  0.3144  0.2147 -0.4735
  727MOL0     C95884   8.110   5.011  10.567 -0.1848 -0.5901 -0.4560
  727MOL0     C95885   8.248   5.011  10.545  0.0356 -0.3074  0.7680
  727MOL0     C95886   8.668   5.143  10.498  0.5556 -0.4378 -0.2153
  727MOL0     C95887   8.762   5.210  10.582  0.0380  0.3686  0.8414
  727MOL0     C95888   8.898   5.210  10.550  0.4661 -0.4493  0.5201
  727MOL0     C95889   8.954   5.137  10.451  0.0237  0.2394  0.3537
  727MOL0     O95890   9.093   5.130  10.437 -0.3286 -0.1042  0.0713
  727MOL0     C95891   9.148   5.032  10.339 -0.4273  0.7774  0.0563
  727MOL0     C95892   9.288   4.982  10.373 -0.5771  0.6493  0.3081
  727MOL0     C95893   9.387   5.081  10.439  0.5783 -0.7694  0.5949
  727MOL0     C95894   9.388   5.101  10.588  0.3977 -0.6205  0.0494
  727MOL0     C95895   9.412   4.973  10.656  0.6569  0.0125  0.4131
  727MOL0     C95896   9.446   4.864  10.687  1.0279 -0.4437  0.3123
  727MOL0     C95897   8.867   5.076  10.359 -0.4221 -0.0504 -0.8056
  727MOL0     C95898   8.726   5.070  10.392 -1.4442 -0.0693  0.2811
  727MOL0     H95899   8.283   5.293  10.355  0.6335 -0.2456  0.4873
  727MOL0     H95900   8.020   5.265  10.372 -0.3236 -3.0456 -1.8237
  727MOL0     H95901   7.800   5.176  10.353 -0.7817 -0.2057  1.1231
  727MOL0     H95902   7.802   5.284  10.495 -0.3651  1.7212 -1.8863
  727MOL0     H95903   7.661   5.082  10.604 -0.1378 -0.8425 -0.4360
  727MOL0     H95904   7.642   5.025  10.443  0.2319  0.6305 -1.0063
  727MOL0     H95905   7.452   5.142  10.479  0.5726 -1.1052  0.5840
  727MOL0     H95906   7.548   5.253  10.383  0.7118 -1.2551 -0.3718
  727MOL0     H95907   7.492   5.234  10.679 -1.0839  0.0197 -0.7447
  727MOL0     H95908   7.592   5.374  10.628 -0.6247  1.6955 -0.0622
  727MOL0     H95909   7.306   5.321  10.554  2.0306 -1.1527  1.1542
  727MOL0     H95910   7.405   5.453  10.476  1.0709 -0.5726 -0.1704
  727MOL0     H95911   7.430   5.571  10.678  0.0433  0.3143  1.2259
  727MOL0     H95912   7.368   5.436  10.782  0.9691 -0.9765 -0.2792
  727MOL0     H95913   7.205   5.600  10.578 -0.4538  0.1883 -0.1689
  727MOL0     H95914   7.144   5.473  10.690 -0.0274  2.0116  4.4305
  727MOL0     H95915   7.273   5.718  10.813  0.8005 -1.1492  3.3097
  727MOL0     H95916   7.205   5.582  10.887 -1.5827  3.1935  1.2869
  727MOL0     H95917   7.090   5.857  10.631 -0.1181  0.7990  0.1305
  727MOL0     H95918   6.879   6.001  10.625  0.6770  0.7461  0.3819
  727MOL0     H95919   6.720   5.940  10.679 -0.4871 -1.8875 -1.3086
  727MOL0     H95920   6.765   5.752  10.509  0.6747 -0.5717 -0.4111
  727MOL0     H95921   6.892   5.862  10.445 -0.9043  2.1485 -1.6354
  727MOL0     H95922   6.598   5.928  10.483 -0.6395  0.1950  0.4965
  727MOL0     H95923   6.733   6.029  10.418 -2.4297  0.0726 -0.1940
  727MOL0     H95924   6.624   5.772  10.295  0.5866  0.5030  2.2455
  727MOL0     H95925   6.759   5.872  10.235  0.2882 -0.3124 -0.1129
  727MOL0     H95926   6.441   5.773  10.393 -1.9326 -0.0355  1.1299
  727MOL0     H95927   6.220   5.735  10.403 -1.2558  1.6741  1.3125
  727MOL0     H95928   5.812   6.114  10.097  0.0363  0.0941  0.5224
  727MOL0     H95929   5.565   6.139  10.081 -2.2885  0.0102  3.6465
  727MOL0     H95930   5.330   6.128  10.120  2.8308  2.8764  2.8485
  727MOL0     H95931   5.375   6.125  10.286 -2.8537 -1.5771  3.1569
  727MOL0     H95932   5.147   6.105  10.331  0.7407  0.5621 -0.1320
  727MOL0     H95933   5.182   5.934  10.286 -0.1017 -0.4391 -0.2911
  727MOL0     H95934   5.135   5.992  10.045  0.4998  1.1301 -1.1752
  727MOL0     H95935   5.083   6.153  10.090 -2.1023  0.2574 -0.7305
  727MOL0     H95936   4.949   5.907  10.203 -0.9375  0.0024  1.0572
  727MOL0     H95937   4.929   6.062  10.263 -1.0097 -1.2920  0.6897
  727MOL0     H95938   4.845   6.010   9.969 -1.0843  3.5764 -1.8509
  727MOL0     H95939   4.846   6.157  10.068  0.1672  0.5552  3.0409
  727MOL0     H95940   4.684   6.029  10.210  4.1536  0.4911  0.7747
  727MOL0     H95941   4.693   5.889  10.101 -1.9917 -0.3855  1.9640
  727MOL0     H95942   4.592   6.164  10.011  0.4305 -0.3601 -0.2192
  727MOL0     H95943   4.625   6.032   9.901 -2.6435  0.1055 -1.1842
  727MOL0     H95944   4.433   6.001  10.141 -2.0702  0.7060 -0.2625
  727MOL0     H95945   4.470   5.890   9.990 -0.9802 -1.5136  2.1090
  727MOL0     H95946   5.511   5.760  10.261  2.6658 -2.7000 -0.6600
  727MOL0     H95947   5.760   5.729  10.260  0.6083 -1.0682 -3.1057
  727MOL0     H95948   6.132   6.020  10.101 -2.4005 -2.5605  0.1364
  727MOL0     H95949   6.380   6.076  10.085 -2.1788 -0.3478 -2.3637
  727MOL0     H95950   8.068   4.929  10.624 -0.1747 -0.5976 -0.4595
  727MOL0     H95951   8.306   4.927  10.582  0.8416  0.7845  2.1033
  727MOL0     H95952   8.738   5.287  10.655  1.7021 -0.6494  2.5497
  727MOL0     H95953   8.968   5.275  10.603  2.2296 -0.4064 -1.7387
  727MOL0     H95954   9.149   5.069  10.236 -2.0246 -1.4285 -0.8152
  727MOL0     H95955   9.086   4.943  10.327  0.1575  0.6426 -2.7642
  727MOL0     H95956   9.293   4.897  10.441  4.6427  0.1725 -0.2107
  727MOL0     H95957   9.327   4.950  10.276 -0.6660  2.1982 -0.2765
  727MOL0     H95958   9.374   5.178  10.390  2.6111 -0.8939 -0.3058
  727MOL0     H95959   9.486   5.047  10.407  0.0981 -1.3517 -0.3619
  727MOL0     H95960   9.476   5.165  10.605  0.1390  0.7439 -3.1138
  727MOL0     H95961   9.296   5.149  10.622  0.9888 -0.7745  1.9859
  727MOL0     H95962   9.465   4.761  10.710  2.6063 -0.2523 -0.0264
  727MOL0     H95963   8.902   5.029  10.268  1.8748 -0.6823  0.3227
  727MOL0     H95964   8.674   5.007  10.320 -0.1385 -0.5940 -0.2351
  728MOL0     O95965   7.450   9.067   9.384  0.3666  0.2340 -0.2890
  728MOL0     C95966   7.518   9.047   9.290 -0.5704  0.1792  0.0592
  728MOL0     O95967   7.473   9.020   9.168  0.2582  0.1106 -0.0110
  728MOL0     C95968   7.334   8.997   9.154 -0.1270 -0.2531 -0.0057
  728MOL0     C95969   7.275   8.884   9.212 -0.0177  0.1025 -0.7909
  728MOL0     C95970   7.137   8.845   9.197  0.3116  0.0764  0.4129
  728MOL0     C95971   7.055   8.924   9.125  0.0095 -0.4132 -0.1191
  728MOL0     O95972   6.916   8.908   9.124  0.1981 -0.2154  0.5459
  728MOL0     C95973   6.861   8.903   8.989 -0.1089  0.0307 -0.9455
  728MOL0     C95974   6.710   8.868   8.996  1.0708 -0.3825 -0.0984
  728MOL0     C95975   6.615   8.991   8.976 -0.3630  0.7888  0.5948
  728MOL0     C95976   6.625   9.105   9.084  0.6596  0.3565  0.2912
  728MOL0     C95977   6.495   9.186   9.065  0.1906 -0.0976  0.7413
  728MOL0     C95978   6.508   9.325   9.122 -0.0547 -0.3541 -0.3765
  728MOL0     C95979   6.505   9.338   9.278 -0.0619  0.5184 -0.2906
  728MOL0     C95980   6.375   9.303   9.353 -0.1337  0.4147 -0.0744
  728MOL0     N95981   6.264   9.388   9.297 -0.4040  0.1643  1.1189
  728MOL0     C95982   6.179   9.374   9.197  0.1338  1.8886  0.2595
  728MOL0     C95983   6.097   9.485   9.202  0.6711 -0.1738 -0.1736
  728MOL0     C95984   5.986   9.512   9.102  0.0625  0.1682  0.4387
  728MOL0     C95985   5.865   9.593   9.149  1.1050 -0.4491 -0.2502
  728MOL0     C95986   5.808   9.544   9.280 -0.4256  0.5257 -0.0199
  728MOL0     C95987   5.661   9.586   9.308  0.2419  0.1352 -0.2808
  728MOL0     O95988   5.575   9.525   9.214  0.2108 -0.0145  0.0219
  728MOL0     C95989   5.440   9.520   9.247  0.0238 -0.2398  0.2679
  728MOL0     C95990   5.352   9.448   9.161 -0.2222  0.3662  0.3769
  728MOL0     C95991   5.212   9.458   9.180 -0.1260  0.7674  0.1342
  728MOL0     C95992   5.162   9.533   9.285 -0.0553 -0.3713 -0.1072
  728MOL0     C95993   5.017   9.562   9.300  0.6736  0.7593  0.1512
  728MOL0     O95994   4.934   9.454   9.266 -0.1952 -0.2669  0.3369
  728MOL0     C95995   4.801   9.445   9.296  0.8455  0.5277 -0.5916
  728MOL0     C95996   4.699   9.465   9.205  0.0807 -0.3157 -0.0917
  728MOL0     C95997   4.566   9.459   9.233  0.2716  0.0333  0.3506
  728MOL0     C95998   4.530   9.413   9.366 -0.3449  0.1094  0.2017
  728MOL0     O95999   4.398   9.409   9.393 -0.2430  0.5128 -0.4997
  728MOL0     C96000   4.357   9.499   9.497  0.5980  0.5908  0.0163
  728MOL0     C96001   4.207   9.471   9.522 -0.5598 -0.0194 -0.2503
  728MOL0     C96002   4.179   9.331   9.568 -0.1898 -0.1246  0.1380
  728MOL0     C96003   4.041   9.313   9.619  0.5983  0.0242 -0.1853
  728MOL0     C96004   4.002   9.170   9.663  0.0654  0.3151  0.0073
  728MOL0     C96005   3.958   9.086   9.540 -0.5396  0.6078 -0.2588
  728MOL0     C96006   3.934   8.938   9.585 -0.2528 -0.5081 -0.0485
  728MOL0     C96007   3.876   8.834   9.484 -0.3488 -0.2766 -0.0501
  728MOL0    Cl96008   3.879   8.666   9.550  0.1689  0.3414  0.0096
  728MOL0     C96009   4.626   9.387   9.456 -0.0104 -0.1716  0.0900
  728MOL0     C96010   4.760   9.410   9.422  0.1204 -0.0007  0.0707
  728MOL0     O96011   4.976   9.675   9.330 -0.5378 -0.5597  0.0827
  728MOL0     C96012   5.247   9.611   9.366 -0.3001  0.3214 -0.5573
  728MOL0     C96013   5.381   9.606   9.344  0.2074  0.3988  0.4374
  728MOL0     N96014   6.132   9.565   9.311 -0.1579  0.7954  0.1764
  728MOL0     N96015   6.239   9.507   9.366  0.8335  0.8773  0.2723
  728MOL0     C96016   7.108   9.038   9.069 -1.0761  0.3855 -0.9813
  728MOL0     C96017   7.248   9.078   9.084  0.0375 -0.2442 -0.3278
  728MOL0     C96018   7.657   9.058   9.304 -0.3931 -0.0447  0.5640
  728MOL0     C96019   7.722   9.054   9.437  0.6190 -0.1583  0.1892
  728MOL0     C96020   7.854   9.085   9.453  0.9540 -0.5193 -0.1365
  728MOL0     C96021   7.943   9.107   9.339 -0.3719  1.0253 -0.0857
  728MOL0     O96022   8.076   9.143   9.350 -0.3219 -0.5716  0.3794
  728MOL0     C96023   8.168   9.070   9.430 -0.0343 -0.0740  0.2582
  728MOL0     C96024   8.307   9.131   9.421 -0.4883  0.2459 -0.3887
  728MOL0     C96025   8.302   9.287   9.443 -0.0237  0.0163  0.2771
  728MOL0     C96026   8.447   9.339   9.420 -0.4572 -0.2232  0.7990
  728MOL0     C96027   8.458   9.482   9.450 -0.1221  0.1606  0.2776
  728MOL0     C96028   8.469   9.588   9.503 -0.6563 -1.0166  0.5754
  728MOL0     C96029   7.880   9.110   9.207 -0.4893 -0.9225 -0.4281
  728MOL0     C96030   7.740   9.080   9.194 -1.5124 -0.5651  0.9651
  728MOL0     H96031   7.328   8.804   9.263 -1.4907  0.1260  0.8562
  728MOL0     H96032   7.102   8.753   9.242  1.6856 -0.2938  0.7525
  728MOL0     H96033   6.907   8.819   8.937  1.4271 -0.2532  0.7911
  728MOL0     H96034   6.884   8.996   8.936  0.6487  1.7390  2.1304
  728MOL0     H96035   6.700   8.827   9.097  4.4788  0.5836  0.7722
  728MOL0     H96036   6.693   8.792   8.920 -0.0697  1.0680 -1.3623
  728MOL0     H96037   6.510   8.958   8.976 -0.1359  0.0463  0.7769
  728MOL0     H96038   6.621   9.037   8.877 -1.4686 -2.3203 -1.0597
  728MOL0     H96039   6.643   9.065   9.185 -0.6271  1.0228  0.8088
  728MOL0     H96040   6.717   9.162   9.067  1.8730 -1.6537 -0.2268
  728MOL0     H96041   6.410   9.128   9.102  0.8117 -1.5458  0.0039
  728MOL0     H96042   6.470   9.195   8.959  1.6592  1.0898  0.4712
  728MOL0     H96043   6.425   9.384   9.083 -0.7642 -2.3671 -2.1624
  728MOL0     H96044   6.601   9.369   9.087 -0.7609  1.0970 -0.4874
  728MOL0     H96045   6.593   9.290   9.322  0.0532 -0.5397 -1.6165
  728MOL0     H96046   6.513   9.446   9.294 -0.5023  0.6034 -0.6166
  728MOL0     H96047   6.382   9.331   9.459  0.9590  0.0712 -0.0373
  728MOL0     H96048   6.352   9.196   9.364 -0.3975  0.5128  0.3557
  728MOL0     H96049   6.169   9.296   9.123  0.2043  1.3154  0.8509
  728MOL0     H96050   5.932   9.422   9.070 -0.3308  1.2140 -2.0542
  728MOL0     H96051   6.019   9.554   9.007 -0.5944  2.2668  1.0716
  728MOL0     H96052   5.784   9.600   9.077  0.1479  0.4533  0.8793
  728MOL0     H96053   5.899   9.696   9.164  1.2111  0.5260 -5.2545
  728MOL0     H96054   5.807   9.435   9.285  0.3204  0.4979 -0.3830
  728MOL0     H96055   5.876   9.571   9.361 -0.1108  1.0203 -0.4379
  728MOL0     H96056   5.662   9.695   9.299  1.0676  0.0450 -1.6085
  728MOL0     H96057   5.628   9.563   9.410 -0.9517  0.8311 -0.4933
  728MOL0     H96058   5.410   9.384   9.096 -0.1466  1.1415 -0.3409
  728MOL0     H96059   5.141   9.399   9.123  0.3364 -0.7949  1.1119
  728MOL0     H96060   4.737   9.495   9.107  0.4687 -0.0697  0.1317
  728MOL0     H96061   4.488   9.484   9.163  0.6775  0.4793  0.0507
  728MOL0     H96062   4.361   9.600   9.456  2.0572  0.4254 -0.3234
  728MOL0     H96063   4.414   9.507   9.590 -0.9730  1.6886  0.9415
  728MOL0     H96064   4.143   9.491   9.435 -2.8061  2.4714  1.7578
  728MOL0     H96065   4.171   9.543   9.596  1.1727 -0.5204  1.1519
  728MOL0     H96066   4.252   9.306   9.646 -0.6373  1.9040  1.2804
  728MOL0     H96067   4.191   9.268   9.479 -0.2329  1.7595 -1.2427
  728MOL0     H96068   4.037   9.382   9.704  2.9295 -0.0490  0.0519
  728MOL0     H96069   3.968   9.343   9.542 -1.3044 -1.7901  0.7995
  728MOL0     H96070   3.925   9.168   9.741 -0.2268 -1.6136 -0.2614
  728MOL0     H96071   4.089   9.122   9.708  0.3090 -1.5619 -2.2521
  728MOL0     H96072   4.034   9.086   9.461 -1.3698  0.7955 -1.0727
  728MOL0     H96073   3.861   9.121   9.504 -1.1422  0.1819  0.8884
  728MOL0     H96074   4.029   8.899   9.623 -0.8139 -1.5670  0.2911
  728MOL0     H96075   3.870   8.935   9.674  2.2829 -0.0681  1.9251
  728MOL0     H96076   3.943   8.839   9.398 -1.6314  1.6435 -1.0056
  728MOL0     H96077   3.776   8.857   9.447 -0.2585 -1.7395 -1.3103
  728MOL0     H96078   4.594   9.350   9.554  2.3262 -5.5160 -0.7937
  728MOL0     H96079   4.832   9.389   9.500  0.5903  0.1170 -0.3282
  728MOL0     H96080   5.201   9.672   9.444  0.6140  1.1725 -0.6633
  728MOL0     H96081   5.436   9.671   9.411  1.1546 -0.9223  0.9813
  728MOL0     H96082   7.043   9.104   9.012 -0.7689  1.2595 -0.3545
  728MOL0     H96083   7.284   9.169   9.036 -0.1295  1.0213  1.8531
  728MOL0     H96084   7.660   9.039   9.525  1.0600  0.6197  0.6484
  728MOL0     H96085   7.900   9.092   9.551 -0.4990 -1.2855  0.6345
  728MOL0     H96086   8.171   8.966   9.397  0.9399 -0.4645  1.5333
  728MOL0     H96087   8.128   9.076   9.532 -0.5910  1.3928 -0.0098
  728MOL0     H96088   8.369   9.082   9.497  1.9435  0.8156 -1.9081
  728MOL0     H96089   8.361   9.106   9.329 -0.2396 -2.6313  0.4355
  728MOL0     H96090   8.269   9.303   9.546  0.6620 -1.9972  0.8568
  728MOL0     H96091   8.235   9.345   9.379  1.2565  0.1095 -1.0437
  728MOL0     H96092   8.511   9.282   9.488  0.6769 -1.7547 -1.4727
  728MOL0     H96093   8.476   9.318   9.317  0.4601  1.7030  0.6096
  728MOL0     H96094   8.464   9.693   9.524 -1.5032 -1.0728  0.6943
  728MOL0     H96095   7.940   9.135   9.121 -1.1081 -0.2516 -0.6851
  728MOL0     H96096   7.701   9.078   9.093 -2.1861  1.9074  1.1127
  729MOL0     O96097   7.347   5.917   5.869  0.6823  0.0269 -0.0822
  729MOL0     C96098   7.349   6.030   5.827 -0.2540 -0.0305  1.0018
  729MOL0     O96099   7.236   6.089   5.789 -0.3243 -0.1265  0.3542
  729MOL0     C96100   7.115   6.014   5.791  0.3186 -0.1858 -0.0161
  729MOL0     C96101   7.084   5.935   5.684 -0.5195  0.4800  0.0758
  729MOL0     C96102   6.967   5.857   5.689 -0.6470 -0.4282 -0.1973
  729MOL0     C96103   6.882   5.862   5.804  0.3322  0.6294  0.9016
  729MOL0     O96104   6.769   5.787   5.818  0.9124  0.3721  0.0361
  729MOL0     C96105   6.734   5.712   5.698  1.2415 -0.8950 -0.0764
  729MOL0     C96106   6.625   5.609   5.735  0.6511 -0.1476 -0.0219
  729MOL0     C96107   6.492   5.667   5.778 -0.4240 -0.1204 -0.4305
  729MOL0     C96108   6.386   5.560   5.812  0.2861  1.0236 -0.1419
  729MOL0     C96109   6.259   5.617   5.856  0.8277 -0.3853  0.3377
  729MOL0     C96110   6.161   5.503   5.913 -0.4876  0.2236 -0.1205
  729MOL0     C96111   6.107   5.406   5.805 -0.1879  0.1189  0.4720
  729MOL0     C96112   6.014   5.472   5.697 -0.0234 -0.3746 -0.6561
  729MOL0     N96113   5.892   5.538   5.754  0.1088  0.4811 -0.4714
  729MOL0     C96114   5.809   5.622   5.696 -0.3566  0.0252  0.4278
  729MOL0     C96115   5.700   5.635   5.779 -0.7525 -0.0296  0.6856
  729MOL0     C96116   5.585   5.731   5.753 -1.2685 -0.3234  0.3199
  729MOL0     C96117   5.456   5.664   5.753  1.0637 -0.0573  0.0270
  729MOL0     C96118   5.442   5.554   5.641 -0.7101 -0.0001 -0.0688
  729MOL0     C96119   5.298   5.506   5.636 -0.0053  0.1432  0.8973
  729MOL0     O96120   5.277   5.415   5.737  1.5128  0.6542  0.7685
  729MOL0     C96121   5.150   5.355   5.742 -0.0295 -0.2420  0.0409
  729MOL0     C96122   5.119   5.274   5.846 -0.1925  0.1298  0.5612
  729MOL0     C96123   4.992   5.215   5.861 -0.3853 -0.5450 -0.1136
  729MOL0     C96124   4.903   5.225   5.757  0.2604 -0.2632 -0.5351
  729MOL0     C96125   4.772   5.147   5.760  0.5839  0.3053  0.7983
  729MOL0     O96126   4.737   5.066   5.862 -0.4212 -0.5445 -0.2845
  729MOL0     C96127   4.613   5.013   5.862  0.3902 -0.3511 -0.0922
  729MOL0     C96128   4.498   5.096   5.862 -0.1405 -0.4372 -0.6479
  729MOL0     C96129   4.368   5.043   5.877 -0.0221  0.3566  0.3058
  729MOL0     C96130   4.347   4.901   5.871  0.8824 -0.3107  0.4575
  729MOL0     O96131   4.223   4.837   5.869  0.7517 -0.3891 -0.7729
  729MOL0     C96132   4.120   4.922   5.912  0.6625 -0.3422  0.7465
  729MOL0     C96133   3.987   4.848   5.899  0.6675  1.0109  0.5460
  729MOL0     C96134   3.870   4.932   5.947 -0.5200 -0.8430  0.2551
  729MOL0     C96135   3.738   4.846   5.951 -0.6623 -0.5354 -0.0715
  729MOL0     C96136   3.626   4.919   6.031 -0.0604  0.1318 -0.1185
  729MOL0     C96137   3.488   4.859   6.009  0.1790  0.3201  0.3327
  729MOL0     C96138   3.386   4.943   6.075  0.6649 -0.7481  0.2585
  729MOL0     C96139   3.237   4.901   6.042 -0.7138  0.0300  0.5646
  729MOL0    Cl96140   3.123   5.014   6.119 -0.4745  0.0317  0.1910
  729MOL0     C96141   4.455   4.821   5.856 -0.7304 -0.9755  0.1720
  729MOL0     C96142   4.583   4.873   5.855  0.7537  0.2368 -0.1375
  729MOL0     O96143   4.691   5.180   5.673 -0.1166 -0.6127  0.1041
  729MOL0     C96144   4.934   5.308   5.653 -0.2274  0.1528  0.2298
  729MOL0     C96145   5.054   5.376   5.647 -0.5930  0.0064 -0.1529
  729MOL0     N96146   5.727   5.562   5.892  0.2576  0.5299  0.0750
  729MOL0     N96147   5.828   5.492   5.865  0.6492  0.9281  0.3634
  729MOL0     C96148   6.919   5.949   5.903  1.2017  0.2103  0.0138
  729MOL0     C96149   7.031   6.026   5.900  0.3678 -0.2294  0.9210
  729MOL0     C96150   7.468   6.109   5.831 -0.1474 -0.0991  0.3403
  729MOL0     C96151   7.459   6.245   5.811 -0.6738 -0.4539 -0.6450
  729MOL0     C96152   7.584   6.315   5.810 -0.2036  0.6436  0.1346
  729MOL0     C96153   7.707   6.260   5.850  0.5925  0.3097  0.3351
  729MOL0     O96154   7.804   6.351   5.852 -0.0122 -0.6546 -0.5049
  729MOL0     C96155   7.936   6.287   5.846  0.3257 -1.0106  0.7484
  729MOL0     C96156   8.036   6.402   5.818 -0.0628 -0.2111 -0.3643
  729MOL0     C96157   8.176   6.346   5.821  0.6092 -0.8096  0.5430
  729MOL0     C96158   8.281   6.450   5.787 -0.4044  0.1642 -0.1580
  729MOL0     C96159   8.409   6.385   5.822  0.4481  0.2831 -0.1415
  729MOL0     C96160   8.511   6.349   5.877 -0.4177  0.6481  0.3990
  729MOL0     C96161   7.712   6.129   5.881 -0.6020 -0.8974 -0.2600
  729MOL0     C96162   7.596   6.054   5.870  0.6328  0.5299  0.0426
  729MOL0     H96163   7.142   5.920   5.593 -1.9041  0.8895 -0.9018
  729MOL0     H96164   6.951   5.794   5.602  2.8879  0.3314 -1.5572
  729MOL0     H96165   6.817   5.649   5.666  1.5392 -0.6618  0.2259
  729MOL0     H96166   6.693   5.776   5.619  0.8438 -0.4766  0.4518
  729MOL0     H96167   6.665   5.539   5.808 -2.3274 -2.2215 -0.2062
  729MOL0     H96168   6.602   5.549   5.646  2.8182 -1.0850 -0.0043
  729MOL0     H96169   6.473   5.741   5.699  0.2066 -0.3550 -0.8103
  729MOL0     H96170   6.497   5.727   5.870  2.5873  1.4089 -1.4645
  729MOL0     H96171   6.365   5.496   5.726  1.2506 -0.5253  0.7302
  729MOL0     H96172   6.427   5.495   5.890 -1.3382  0.1854  0.0345
  729MOL0     H96173   6.216   5.672   5.772  1.2628  0.1005  0.4268
  729MOL0     H96174   6.290   5.686   5.935  0.5123 -0.3568  0.4368
  729MOL0     H96175   6.080   5.558   5.962 -0.6966 -0.8552  0.7814
  729MOL0     H96176   6.211   5.446   5.992 -0.4908  0.4638  0.0568
  729MOL0     H96177   6.185   5.353   5.750 -1.1657  1.4449 -2.4014
  729MOL0     H96178   6.042   5.333   5.853 -1.0459 -0.0275 -0.8286
  729MOL0     H96179   5.972   5.402   5.624 -0.5691  0.4948 -1.1893
  729MOL0     H96180   6.064   5.553   5.645 -2.9277  1.8559 -0.2220
  729MOL0     H96181   5.820   5.675   5.602 -1.3994 -1.9074 -0.8702
  729MOL0     H96182   5.606   5.782   5.658  1.5732 -0.7588  0.6229
  729MOL0     H96183   5.591   5.806   5.833 -1.0781  1.3736 -1.2110
  729MOL0     H96184   5.375   5.736   5.733  1.0049 -0.5107 -1.5066
  729MOL0     H96185   5.438   5.620   5.851  0.7155 -0.1194 -0.0619
  729MOL0     H96186   5.469   5.597   5.545 -0.2538 -0.4752 -0.1618
  729MOL0     H96187   5.507   5.467   5.654 -1.2199 -0.2313  1.0874
  729MOL0     H96188   5.267   5.468   5.538 -3.2718 -0.9582  2.1858
  729MOL0     H96189   5.234   5.590   5.663  3.8945  3.4017  0.8147
  729MOL0     H96190   5.191   5.256   5.925  0.4380  0.6707  0.1154
  729MOL0     H96191   4.971   5.161   5.953 -3.4091  1.0979  0.2774
  729MOL0     H96192   4.503   5.204   5.866 -1.4202 -0.4028  0.7198
  729MOL0     H96193   4.288   5.115   5.872  0.0004  0.3251 -1.0290
  729MOL0     H96194   4.121   5.008   5.844  1.8205 -0.7547  0.2130
  729MOL0     H96195   4.134   4.961   6.013 -0.5018  1.4774  0.2570
  729MOL0     H96196   3.995   4.756   5.958  2.9993  2.0171  1.9257
  729MOL0     H96197   3.970   4.822   5.794 -0.7277 -0.4709  1.0976
  729MOL0     H96198   3.879   5.021   5.885 -1.0763  0.6574  2.2167
  729MOL0     H96199   3.880   4.957   6.053 -2.8262 -1.7739  0.7577
  729MOL0     H96200   3.708   4.827   5.848 -1.7128 -1.1482  0.3311
  729MOL0     H96201   3.756   4.756   6.010 -1.6542  0.2339  1.4968
  729MOL0     H96202   3.629   5.023   5.999 -4.6367 -0.2499 -2.5280
  729MOL0     H96203   3.647   4.920   6.139  3.4737 -1.3365 -0.6485
  729MOL0     H96204   3.489   4.754   6.041  1.0261  0.5059  0.9498
  729MOL0     H96205   3.472   4.869   5.901 -1.7077  3.1861  0.7671
  729MOL0     H96206   3.407   4.928   6.181 -0.9082 -3.6355  0.2771
  729MOL0     H96207   3.399   5.050   6.059 -2.0953 -0.1908  1.3029
  729MOL0     H96208   3.211   4.799   6.069 -0.0117 -0.9325 -2.1293
  729MOL0     H96209   3.221   4.917   5.935 -1.2234  2.8805  0.9861
  729MOL0     H96210   4.449   4.713   5.846 -0.5237 -0.8654 -1.4983
  729MOL0     H96211   4.660   4.799   5.872 -1.7877 -1.7643  4.0445
  729MOL0     H96212   4.873   5.315   5.563  0.7587  0.2613 -0.4501
  729MOL0     H96213   5.072   5.439   5.560  1.0274 -1.3745 -0.8755
  729MOL0     H96214   6.866   5.933   5.996 -2.2085  2.8436 -1.2581
  729MOL0     H96215   7.059   6.092   5.981  0.3082  2.2831 -0.9779
  729MOL0     H96216   7.370   6.306   5.794  0.7577  3.0460  2.9315
  729MOL0     H96217   7.582   6.420   5.784 -2.8374  0.9731  1.3272
  729MOL0     H96218   7.944   6.215   5.764  1.4869  0.0182 -0.0818
  729MOL0     H96219   7.955   6.219   5.929 -1.1700 -1.0145  1.1116
  729MOL0     H96220   8.001   6.446   5.725  0.8836 -0.5294 -0.8858
  729MOL0     H96221   8.033   6.485   5.889  2.3179 -0.6883  0.3855
  729MOL0     H96222   8.178   6.271   5.741  0.4596 -1.1069  0.8211
  729MOL0     H96223   8.199   6.291   5.913  0.3015 -1.7315  0.0853
  729MOL0     H96224   8.278   6.496   5.688 -2.1265  0.8291  0.1567
  729MOL0     H96225   8.287   6.529   5.861  1.2864  0.8213 -0.9610
  729MOL0     H96226   8.601   6.319   5.925  1.3793 -0.0213 -3.0532
  729MOL0     H96227   7.797   6.078   5.925  0.8587  1.8513  0.3403
  729MOL0     H96228   7.611   5.952   5.901 -0.2176 -0.1265 -1.5610
  730MOL0     O96229   3.063   7.474   7.105 -0.2562 -0.2610 -1.2778
  730MOL0     C96230   3.090   7.410   7.005 -0.2692  0.3141 -0.2675
  730MOL0     O96231   3.005   7.332   6.937 -0.7652 -0.6114 -0.0098
  730MOL0     C96232   2.891   7.299   6.999  0.0654  1.5141 -0.7272
  730MOL0     C96233   2.775   7.380   6.984 -0.7352  0.0191  1.3089
  730MOL0     C96234   2.667   7.355   7.058  0.2627 -0.0541 -0.7336
  730MOL0     C96235   2.657   7.248   7.155 -0.3002  0.2703  0.4350
  730MOL0     O96236   2.544   7.228   7.230  0.3384 -0.4487  0.1997
  730MOL0     C96237   2.526   7.119   7.316  0.0719 -0.3302 -0.7879
  730MOL0     C96238   2.387   7.135   7.372 -0.0155  0.6604  0.1469
  730MOL0     C96239   2.343   7.026   7.477  0.4172  0.8274 -0.5715
  730MOL0     C96240   2.199   7.038   7.521  0.3886 -0.1158  0.4863
  730MOL0     C96241   2.151   6.965   7.654 -0.3941  0.4138 -0.9705
  730MOL0     C96242   2.014   7.009   7.705  0.7595  0.0589 -0.3681
  730MOL0     C96243   1.999   7.162   7.738 -0.4004  0.1411 -0.1616
  730MOL0     C96244   2.107   7.225   7.826  0.0791 -0.7821  0.4976
  730MOL0     N96245   2.121   7.162   7.957 -0.0225 -0.3071 -0.5754
  730MOL0     C96246   2.028   7.179   8.055  0.3248 -0.5160 -0.9534
  730MOL0     C96247   2.064   7.092   8.158 -0.1406  0.6027  0.5011
  730MOL0     C96248   1.999   7.072   8.291  0.5154 -0.8256 -0.5012
  730MOL0     C96249   1.943   6.924   8.315 -0.0052 -0.5611  0.5552
  730MOL0     C96250   1.879   6.937   8.454 -0.4539  0.0816 -0.6426
  730MOL0     C96251   1.734   6.978   8.440 -0.2422  0.2280 -0.0941
  730MOL0     O96252   1.655   6.859   8.421  0.1081  0.5594  0.1894
  730MOL0     C96253   1.519   6.870   8.417 -0.6350  0.9391  0.6986
  730MOL0     C96254   1.451   6.989   8.418  0.5674  0.0083 -0.2570
  730MOL0     C96255   1.306   6.989   8.406 -0.4535 -0.2221 -0.1561
  730MOL0     C96256   1.234   6.874   8.379 -0.0141  1.2942 -0.8374
  730MOL0     C96257   1.091   6.873   8.363 -0.2291 -0.8468 -0.5379
  730MOL0     O96258   1.040   7.001   8.339  0.4439  0.1921  0.2946
  730MOL0     C96259   0.908   7.019   8.289  0.3059 -0.2794  0.4520
  730MOL0     C96260   0.860   7.143   8.306  0.4745  0.4735 -0.7257
  730MOL0     C96261   0.737   7.174   8.251  0.0357  0.6763  1.1425
  730MOL0     C96262   0.650   7.076   8.197 -0.4052 -0.3584 -0.0258
  730MOL0     O96263   0.521   7.112   8.180  0.1446  0.1833 -0.2539
  730MOL0     C96264   0.436   7.041   8.084 -0.4253  0.3479  0.0116
  730MOL0     C96265   0.299   7.106   8.095  0.2999 -0.5622 -0.6947
  730MOL0     C96266   0.200   7.026   8.001  0.6608  0.1245  0.2664
  730MOL0     C96267   0.080   7.126   7.973 -0.7505  0.7873 -0.7661
  730MOL0     C96268  -0.025   7.086   7.877 -0.0539 -0.0596  0.3849
  730MOL0     C96269  -0.109   6.980   7.939 -0.1392  0.1296 -0.4703
  730MOL0     C96270  -0.171   6.890   7.835 -0.1160  0.6084 -0.4090
  730MOL0     C96271  -0.222   6.763   7.895 -0.8538 -0.5216 -0.0556
  730MOL0    Cl96272  -0.329   6.793   8.041  0.2079  0.0507  0.1999
  730MOL0     C96273   0.708   6.948   8.173 -0.1511 -0.1394  0.4399
  730MOL0     C96274   0.843   6.927   8.204  0.2235  0.0696 -0.5051
  730MOL0     O96275   1.028   6.770   8.357  0.1118 -0.0465 -1.1068
  730MOL0     C96276   1.309   6.747   8.378 -0.1128  0.2143  0.0522
  730MOL0     C96277   1.451   6.750   8.390  1.2819  0.7019 -0.8728
  730MOL0     N96278   2.183   7.028   8.112 -0.5642 -0.4882 -0.7649
  730MOL0     N96279   2.226   7.081   8.002  0.8583 -0.6734  0.5892
  730MOL0     C96280   2.765   7.163   7.165  0.1151 -0.6480  0.6640
  730MOL0     C96281   2.882   7.186   7.088  0.3109 -0.0468 -0.2738
  730MOL0     C96282   3.221   7.434   6.950  0.3563  0.3938  0.8315
  730MOL0     C96283   3.246   7.398   6.818  1.0000 -0.0756 -0.8485
  730MOL0     C96284   3.370   7.424   6.762  0.0145  0.6589 -0.8223
  730MOL0     C96285   3.464   7.497   6.827 -0.8619 -0.4439 -0.0329
  730MOL0     O96286   3.592   7.516   6.781 -0.0063 -0.0218  0.6256
  730MOL0     C96287   3.607   7.536   6.640 -0.2274 -0.1084 -0.0785
  730MOL0     C96288   3.753   7.578   6.616  0.5653  0.2028  0.2077
  730MOL0     C96289   3.783   7.718   6.677  0.2658  0.5112 -0.1139
  730MOL0     C96290   3.933   7.744   6.661 -0.2552 -0.1163  0.8066
  730MOL0     C96291   3.963   7.759   6.518 -0.0125  0.4768 -0.2610
  730MOL0     C96292   3.960   7.752   6.397 -0.4458 -0.0765  0.4801
  730MOL0     C96293   3.438   7.541   6.953  0.9491 -0.5917  0.2419
  730MOL0     C96294   3.313   7.514   7.011  0.0819 -0.3476 -0.4775
  730MOL0     H96295   2.784   7.464   6.917 -0.3903  0.0634  1.4072
  730MOL0     H96296   2.580   7.420   7.062  1.1817  1.4625 -3.3657
  730MOL0     H96297   2.604   7.107   7.393 -0.5077 -2.5651 -0.4803
  730MOL0     H96298   2.531   7.026   7.259  0.6011 -0.4464 -0.5588
  730MOL0     H96299   2.310   7.121   7.296 -1.1685  0.9619  1.2112
  730MOL0     H96300   2.378   7.234   7.417 -1.6689  1.0706 -1.0056
  730MOL0     H96301   2.404   7.034   7.567 -2.9914 -0.0707  1.9903
  730MOL0     H96302   2.349   6.921   7.449 -4.5319  0.4255 -0.8921
  730MOL0     H96303   2.178   7.144   7.538  0.3294 -0.0298 -0.1177
  730MOL0     H96304   2.132   7.007   7.440  2.4474  2.4864 -2.4328
  730MOL0     H96305   2.228   6.969   7.731 -0.4532 -0.4131 -0.8537
  730MOL0     H96306   2.132   6.858   7.636  1.8159  0.0593 -1.4946
  730MOL0     H96307   1.990   6.947   7.792 -1.2926  0.7770 -0.3731
  730MOL0     H96308   1.941   6.993   7.625  2.1635 -1.0232 -1.4890
  730MOL0     H96309   1.990   7.212   7.641  1.2416  0.6979 -0.0518
  730MOL0     H96310   1.906   7.182   7.791 -0.3331 -0.2724  0.1180
  730MOL0     H96311   2.067   7.327   7.830  0.2401 -0.6866 -0.2747
  730MOL0     H96312   2.207   7.211   7.783  0.3681 -0.4084  1.0261
  730MOL0     H96313   1.947   7.251   8.057  2.2900  1.8061  1.3925
  730MOL0     H96314   1.920   7.144   8.313 -0.8828 -2.6480  0.7768
  730MOL0     H96315   2.071   7.099   8.369  1.2031 -2.3838 -0.5614
  730MOL0     H96316   2.032   6.859   8.313 -1.7719 -3.1421 -1.7013
  730MOL0     H96317   1.877   6.888   8.236 -1.8195  2.4676  0.5691
  730MOL0     H96318   1.889   6.844   8.512  1.6869  0.7414  0.1494
  730MOL0     H96319   1.932   7.015   8.510 -1.5233 -0.0955  0.6613
  730MOL0     H96320   1.712   7.050   8.361 -0.8884 -0.0445 -0.1700
  730MOL0     H96321   1.700   7.031   8.530  2.2637  0.8524  0.5627
  730MOL0     H96322   1.496   7.086   8.437  0.5213 -0.3721  1.9662
  730MOL0     H96323   1.266   7.090   8.412  0.5196  0.1892 -0.4172
  730MOL0     H96324   0.922   7.220   8.351 -1.7040  2.4829 -0.9736
  730MOL0     H96325   0.695   7.274   8.259  2.9042  1.9327  1.3879
  730MOL0     H96326   0.429   6.940   8.123  1.0919  0.3451  0.3406
  730MOL0     H96327   0.463   7.040   7.978 -2.2168  1.2378 -0.5076
  730MOL0     H96328   0.308   7.210   8.062  1.4013 -0.2219  0.5889
  730MOL0     H96329   0.274   7.124   8.200  2.7713 -3.3976  0.5372
  730MOL0     H96330   0.167   6.936   8.054  0.6977  1.4298  2.6253
  730MOL0     H96331   0.261   6.998   7.915 -1.0843 -0.1458 -0.9389
  730MOL0     H96332   0.035   7.157   8.068  0.4037  1.0346 -0.2882
  730MOL0     H96333   0.126   7.214   7.927 -1.0295  0.2537 -2.1007
  730MOL0     H96334   0.020   7.056   7.782  1.3451  0.6267  0.8029
  730MOL0     H96335  -0.085   7.175   7.860 -0.6093 -0.9791 -3.3510
  730MOL0     H96336  -0.183   7.036   7.998  0.2466  0.1816 -0.0354
  730MOL0     H96337  -0.051   6.917   8.007 -1.5804 -0.4275  0.2849
  730MOL0     H96338  -0.258   6.936   7.787  1.1143  2.3820 -1.0548
  730MOL0     H96339  -0.095   6.855   7.765 -0.1197 -3.3285  1.2614
  730MOL0     H96340  -0.144   6.692   7.927  0.9727  0.7376 -1.4803
  730MOL0     H96341  -0.278   6.720   7.812 -1.1548  1.5192 -0.9607
  730MOL0     H96342   0.643   6.869   8.137 -1.4253  1.2000 -0.3137
  730MOL0     H96343   0.889   6.830   8.184 -1.7412 -1.0837  0.2337
  730MOL0     H96344   1.256   6.657   8.350 -0.8672  0.9967 -1.1500
  730MOL0     H96345   1.507   6.659   8.369 -0.6827 -1.1830  1.4181
  730MOL0     H96346   2.760   7.080   7.234  1.3812  0.5021  2.1984
  730MOL0     H96347   2.967   7.121   7.101 -0.4836 -1.0576  0.0668
  730MOL0     H96348   3.168   7.342   6.768 -0.3800 -1.2010  2.3505
  730MOL0     H96349   3.384   7.387   6.661  4.0322 -3.2285  0.8388
  730MOL0     H96350   3.549   7.617   6.595  0.0288 -0.9814 -2.1039
  730MOL0     H96351   3.581   7.444   6.586 -2.6829  1.0224 -0.9667
  730MOL0     H96352   3.814   7.502   6.665 -1.6045 -2.3688 -0.7924
  730MOL0     H96353   3.779   7.571   6.510 -0.4887 -2.5086  0.0330
  730MOL0     H96354   3.756   7.715   6.782  0.3396  1.7556 -0.0406
  730MOL0     H96355   3.721   7.791   6.623  1.2051 -0.3774 -2.5588
  730MOL0     H96356   3.962   7.841   6.702 -1.5056  0.4169  0.4860
  730MOL0     H96357   3.995   7.664   6.702 -1.1911 -0.8095  0.9027
  730MOL0     H96358   3.953   7.758   6.290 -0.5543 -2.7419  0.2733
  730MOL0     H96359   3.518   7.583   7.013  2.1137 -2.6041  0.1627
  730MOL0     H96360   3.300   7.560   7.108  3.6799  1.0163 -0.4725
  731MOL0     O96361   4.352   9.687   0.698 -1.2505  0.1214  0.3538
  731MOL0     C96362   4.364   9.804   0.659 -0.2904  0.0500 -0.4961
  731MOL0     O96363   4.273   9.903   0.688 -0.3590 -0.2539  0.2086
  731MOL0     C96364   4.150   9.875   0.746 -0.9479 -0.7850  0.2333
  731MOL0     C96365   4.068   9.983   0.749  0.8305  0.1750  0.4594
  731MOL0     C96366   3.958   9.982   0.831 -0.2487 -0.1748 -0.3771
  731MOL0     C96367   3.928   9.871   0.909  0.5540 -0.1138  0.3313
  731MOL0     O96368   3.814   9.884   0.993 -0.4388 -0.0157 -0.4435
  731MOL0     C96369   3.804   9.789   1.101  0.7810  0.0488  0.0345
  731MOL0     C96370   3.678   9.829   1.189  0.3139 -0.2808  0.5350
  731MOL0     C96371   3.608   9.721   1.274  0.2085 -0.1873  0.1555
  731MOL0     C96372   3.474   9.772   1.331  0.1819  0.2743  0.3202
  731MOL0     C96373   3.418   9.666   1.431 -0.0629 -0.0499  0.6372
  731MOL0     C96374   3.263   9.670   1.447 -0.5134 -1.0790  0.6670
  731MOL0     C96375   3.236   9.785   1.549  0.6995 -0.4589  0.5889
  731MOL0     C96376   3.110   9.856   1.506  0.3910  0.3248 -0.0453
  731MOL0     N96377   3.065   9.949   1.599 -0.0865 -0.3430  0.0627
  731MOL0     C96378   2.986   9.927   1.708  0.2326 -0.4571 -0.2379
  731MOL0     C96379   2.953  10.055   1.755 -0.7603 -0.4112 -1.2173
  731MOL0     C96380   2.878  10.085   1.883 -0.1114  0.2799 -0.8661
  731MOL0     C96381   2.734  10.050   1.887  0.0667  1.2429 -0.1678
  731MOL0     C96382   2.675  10.089   2.020  0.7772  0.0043  0.7991
  731MOL0     C96383   2.529  10.036   2.046  0.2996 -0.0857  0.4353
  731MOL0     O96384   2.446  10.081   1.938 -0.5723  0.9413  0.3734
  731MOL0     C96385   2.313  10.076   1.966  0.4724  0.4785  0.0764
  731MOL0     C96386   2.255   9.977   2.046  0.6258 -0.1129  0.9114
  731MOL0     C96387   2.118   9.979   2.065  0.3195 -0.3622 -0.1046
  731MOL0     C96388   2.032  10.066   2.003 -0.1176 -0.5281  1.2502
  731MOL0     C96389   1.888  10.065   2.043  0.3153  0.2546 -0.1186
  731MOL0     O96390   1.812  10.157   1.993  0.5736 -0.2007  0.1700
  731MOL0     C96391   1.674  10.161   2.014 -0.4065 -0.2030 -0.0831
  731MOL0     C96392   1.586  10.065   1.960 -0.1917  0.0106 -0.0021
  731MOL0     C96393   1.444  10.082   1.978 -0.4211 -0.0329 -0.2668
  731MOL0     C96394   1.398  10.184   2.062  0.3224 -0.3169 -0.2131
  731MOL0     O96395   1.260  10.204   2.086 -0.4442  0.0840  0.6114
  731MOL0     C96396   1.168  10.187   1.977 -0.3525 -0.1561  0.6332
  731MOL0     C96397   1.073  10.089   2.035 -0.8697 -0.6089 -0.8186
  731MOL0     C96398   1.127   9.954   2.088 -0.4778 -0.5111  0.0466
  731MOL0     C96399   1.003   9.871   2.141 -0.0916  0.7564  0.0531
  731MOL0     C96400   1.047   9.740   2.204 -1.0453 -0.5507  0.7284
  731MOL0     C96401   0.934   9.662   2.261  1.1869  0.0789  1.2279
  731MOL0     C96402   0.844   9.741   2.358  0.8850  0.1318 -0.4131
  731MOL0     C96403   0.724   9.654   2.414  0.3100  0.3546 -0.3457
  731MOL0    Cl96404   0.605   9.612   2.293  0.6294 -0.0725  0.1513
  731MOL0     C96405   1.491  10.280   2.130 -0.5624  0.1988  0.1035
  731MOL0     C96406   1.625  10.273   2.089 -0.3924  0.5753 -0.4823
  731MOL0     O96407   1.848   9.972   2.111 -0.1160  0.7550 -0.0694
  731MOL0     C96408   2.084  10.154   1.911  0.5014 -0.8961 -0.8706
  731MOL0     C96409   2.226  10.158   1.897 -0.1753 -0.1096  1.0254
  731MOL0     N96410   3.003  10.149   1.668  0.4763 -0.0471  0.1155
  731MOL0     N96411   3.070  10.080   1.579  0.0347  1.2175  0.8110
  731MOL0     C96412   4.002   9.755   0.895 -0.5062 -0.0548  0.3827
  731MOL0     C96413   4.115   9.756   0.815 -0.5721 -1.0879  0.0250
  731MOL0     C96414   4.490   9.838   0.596  0.3486  0.1890 -0.9198
  731MOL0     C96415   4.527   9.973   0.588 -0.2328  0.3589 -0.3303
  731MOL0     C96416   4.649  10.002   0.525 -0.1468  0.5807  0.1887
  731MOL0     C96417   4.737   9.900   0.479 -0.4676  0.4042  0.6081
  731MOL0     O96418   4.859   9.941   0.419 -0.3541  0.4585  0.2626
  731MOL0     C96419   4.910   9.877   0.302 -0.2149  0.7100  0.9215
  731MOL0     C96420   5.001   9.977   0.229  0.5290  0.0091 -0.3436
  731MOL0     C96421   5.137   9.973   0.307  0.1254 -0.2221  0.0393
  731MOL0     C96422   5.233  10.069   0.233  0.8600  0.4201  0.4893
  731MOL0     C96423   5.368  10.044   0.270 -0.0472  0.8058 -0.2993
  731MOL0     C96424   5.491  10.020   0.284  0.0964 -0.2299  0.6304
  731MOL0     C96425   4.704   9.770   0.489 -0.0012 -0.3153 -0.0913
  731MOL0     C96426   4.578   9.734   0.549  0.0191  0.5177  0.5387
  731MOL0     H96427   4.105  10.071   0.697  2.3756 -1.8649 -2.1788
  731MOL0     H96428   3.895  10.069   0.849 -1.4361 -0.9987 -0.4152
  731MOL0     H96429   3.895   9.785   1.162  0.9768 -1.5910 -0.3030
  731MOL0     H96430   3.779   9.694   1.051 -1.4746  0.4261  0.3360
  731MOL0     H96431   3.599   9.879   1.131 -0.2398 -0.4876  1.0925
  731MOL0     H96432   3.712   9.903   1.262 -1.4685  2.0564 -0.8764
  731MOL0     H96433   3.666   9.678   1.356 -0.0380  1.0521  1.0067
  731MOL0     H96434   3.595   9.633   1.209  2.3153 -0.8443  0.5754
  731MOL0     H96435   3.490   9.867   1.384  0.8168 -0.1124  0.8351
  731MOL0     H96436   3.407   9.785   1.246  2.8913  0.4417 -1.9397
  731MOL0     H96437   3.466   9.677   1.529 -1.2790  2.5102  1.0447
  731MOL0     H96438   3.442   9.561   1.411 -0.9191 -0.5576  2.0463
  731MOL0     H96439   3.238   9.569   1.479 -0.4224 -0.9637  1.1125
  731MOL0     H96440   3.220   9.684   1.347 -2.1608 -3.0019  1.0509
  731MOL0     H96441   3.220   9.745   1.650 -0.3037 -1.1386  0.1760
  731MOL0     H96442   3.326   9.847   1.550 -0.9121  2.0408  0.1882
  731MOL0     H96443   3.029   9.784   1.491  2.1498 -1.7998  0.1398
  731MOL0     H96444   3.127   9.910   1.412  0.0164 -0.5073 -0.6014
  731MOL0     H96445   2.958   9.830   1.748  1.2777 -0.5883  0.1985
  731MOL0     H96446   2.895  10.191   1.904 -0.9620  0.0082  1.5268
  731MOL0     H96447   2.932  10.031   1.961 -0.6507  0.2842 -0.4887
  731MOL0     H96448   2.721   9.942   1.877 -0.5774  1.4227 -1.4932
  731MOL0     H96449   2.678  10.118   1.822 -1.7694  1.4388  1.5314
  731MOL0     H96450   2.737  10.059   2.105  2.1597  0.8103  0.0923
  731MOL0     H96451   2.669  10.198   2.026  3.5914  0.2231  0.6644
  731MOL0     H96452   2.499  10.086   2.138 -2.1185  2.1942 -1.4234
  731MOL0     H96453   2.524   9.928   2.058 -1.8680  0.1287  1.9572
  731MOL0     H96454   2.298   9.899   2.107 -1.3234 -0.2187  2.2296
  731MOL0     H96455   2.076   9.907   2.135 -1.1647 -0.9619 -1.5600
  731MOL0     H96456   1.613   9.985   1.893 -1.3581  1.8660 -2.8939
  731MOL0     H96457   1.371  10.015   1.934  0.7520 -0.8379 -1.0477
  731MOL0     H96458   1.220  10.154   1.887  0.2398  0.8259  0.6003
  731MOL0     H96459   1.124  10.284   1.951 -0.0353 -0.0607  0.4444
  731MOL0     H96460   1.006  10.063   1.953  0.2718 -2.3590 -1.2599
  731MOL0     H96461   1.021  10.147   2.112  1.7397  1.6208 -0.5966
  731MOL0     H96462   1.193   9.968   2.173 -1.9536  0.7159  1.0524
  731MOL0     H96463   1.175   9.896   2.009  0.3982  1.7717 -1.2172
  731MOL0     H96464   0.962   9.945   2.211  2.7947  2.0051  0.5835
  731MOL0     H96465   0.933   9.852   2.060  0.0488 -1.0548  0.3107
  731MOL0     H96466   1.129   9.755   2.276  0.2378 -0.4543 -0.7049
  731MOL0     H96467   1.098   9.686   2.123  0.6185 -0.2748  1.5375
  731MOL0     H96468   0.977   9.573   2.308  1.1954  0.4145  1.8549
  731MOL0     H96469   0.879   9.626   2.173  1.0025  2.4806  0.2833
  731MOL0     H96470   0.909   9.768   2.442  4.6221 -1.5012 -2.5418
  731MOL0     H96471   0.792   9.819   2.300  2.0674  0.3817 -1.1684
  731MOL0     H96472   0.669   9.719   2.483  0.8959  1.9672 -1.3205
  731MOL0     H96473   0.761   9.563   2.461  2.6027 -0.2290 -3.0382
  731MOL0     H96474   1.448  10.354   2.197 -1.0860 -0.2221  0.2411
  731MOL0     H96475   1.696  10.344   2.129  3.8697 -3.7205  0.5877
  731MOL0     H96476   2.026  10.226   1.855  0.8666 -2.7273 -3.7879
  731MOL0     H96477   2.277  10.233   1.839  0.9900  0.6806  3.0010
  731MOL0     H96478   3.976   9.674   0.964  1.0020  1.3501  2.7458
  731MOL0     H96479   4.165   9.660   0.806  0.3747 -0.7052  1.1020
  731MOL0     H96480   4.457  10.048   0.621 -0.5191  0.0287 -0.1772
  731MOL0     H96481   4.685  10.101   0.501 -1.0711  2.1229  4.3548
  731MOL0     H96482   4.824   9.853   0.239  0.6753  0.6701 -0.3109
  731MOL0     H96483   4.959   9.781   0.322 -2.6275 -0.4180  1.7318
  731MOL0     H96484   5.021   9.949   0.125  0.2965  2.9570 -1.2599
  731MOL0     H96485   4.947  10.071   0.225  0.3628  0.0312  1.4470
  731MOL0     H96486   5.172   9.869   0.307 -1.5865 -0.8433  0.5877
  731MOL0     H96487   5.122  10.004   0.411  0.9324 -1.9243  0.7015
  731MOL0     H96488   5.223  10.049   0.126 -0.2035  0.1763  0.6240
  731MOL0     H96489   5.211  10.174   0.252  0.9599  0.2489  1.6790
  731MOL0     H96490   5.597  10.009   0.301 -0.1700 -1.3572  1.7215
  731MOL0     H96491   4.782   9.700   0.461  1.4807  1.8599 -1.6953
  731MOL0     H96492   4.554   9.629   0.557  0.4873  0.5475  3.4431
  732MOL0     O96493   2.431   4.825   6.690 -0.1406  0.2367 -0.4222
  732MOL0     C96494   2.467   4.780   6.797  0.0335  0.2681 -0.4992
  732MOL0     O96495   2.383   4.760   6.907  0.1977 -0.1789 -0.7459
  732MOL0     C96496   2.255   4.799   6.917  0.9209 -0.4855  0.0794
  732MOL0     C96497   2.181   4.895   6.841 -0.1212 -0.0333 -0.1280
  732MOL0     C96498   2.048   4.925   6.865  0.2748  0.6227  1.4770
  732MOL0     C96499   1.984   4.852   6.970 -0.2968 -0.5366 -0.0903
  732MOL0     O96500   1.852   4.868   6.991  0.0720  0.1073  0.2656
  732MOL0     C96501   1.770   4.871   6.876 -0.3344  0.1090 -0.1414
  732MOL0     C96502   1.695   5.012   6.876 -0.3513  0.2008  0.3038
  732MOL0     C96503   1.550   4.990   6.890 -0.1091 -0.2421  0.2844
  732MOL0     C96504   1.489   5.140   6.891  0.7056 -0.3142  1.2368
  732MOL0     C96505   1.350   5.144   6.960 -0.0256 -0.5542  0.0881
  732MOL0     C96506   1.331   5.291   6.999  0.2170 -0.3832 -0.1434
  732MOL0     C96507   1.192   5.314   7.066  0.7069  1.0160 -0.6868
  732MOL0     C96508   1.087   5.322   6.966  0.3641 -0.5891  0.7618
  732MOL0     N96509   0.953   5.331   7.015  0.5529  0.2314 -0.9491
  732MOL0     C96510   0.914   5.414   7.114 -0.6025  0.1353 -1.3917
  732MOL0     C96511   0.798   5.354   7.153  0.2908 -0.6343  0.1811
  732MOL0     C96512   0.707   5.412   7.256  0.4186  0.9324 -0.9382
  732MOL0     C96513   0.729   5.338   7.394  0.8769  0.1196 -0.4145
  732MOL0     C96514   0.651   5.385   7.512  0.3198 -0.3247  0.2867
  732MOL0     C96515   0.501   5.356   7.494  0.9014 -0.1856 -0.5687
  732MOL0     O96516   0.446   5.447   7.399 -0.4271  0.5711  0.7210
  732MOL0     C96517   0.307   5.459   7.400  0.3511 -0.6124  0.0741
  732MOL0     C96518   0.243   5.581   7.364 -0.0670  0.0420  0.1869
  732MOL0     C96519   0.100   5.595   7.358  0.1457 -0.5657 -0.4531
  732MOL0     C96520   0.021   5.485   7.397 -0.4182 -0.1375 -0.1070
  732MOL0     C96521  -0.121   5.503   7.416 -0.2204 -0.4140  0.8215
  732MOL0     O96522  -0.186   5.395   7.457  0.1504  0.5886 -0.3423
  732MOL0     C96523  -0.321   5.394   7.463  0.1292 -0.3141 -0.1607
  732MOL0     C96524  -0.404   5.300   7.397  0.0823 -0.4500 -1.0621
  732MOL0     C96525  -0.551   5.285   7.415 -0.1488 -0.2697  0.2996
  732MOL0     C96526  -0.613   5.390   7.490  0.2298  0.7093 -0.9247
  732MOL0     O96527  -0.745   5.403   7.501 -0.4240 -0.4307 -0.5503
  732MOL0     C96528  -0.838   5.306   7.450 -0.0383 -0.1703 -0.5003
  732MOL0     C96529  -0.971   5.365   7.473 -0.0168  0.0318  0.3203
  732MOL0     C96530  -1.086   5.306   7.393 -0.5338 -0.4854 -0.1819
  732MOL0     C96531  -1.224   5.380   7.417  0.3073 -0.7622 -0.3547
  732MOL0     C96532  -1.343   5.306   7.350 -0.2834 -0.4875  0.0491
  732MOL0     C96533  -1.462   5.399   7.327 -0.4166  0.4331 -0.0610
  732MOL0     C96534  -1.575   5.306   7.282 -0.1172  0.5982  0.4233
  732MOL0     C96535  -1.605   5.302   7.130 -0.4666  0.2176 -0.1428
  732MOL0    Cl96536  -1.660   5.467   7.086  0.0372 -0.1562 -0.0043
  732MOL0     C96537  -0.533   5.484   7.562 -0.1334 -0.3532  0.2832
  732MOL0     C96538  -0.392   5.480   7.556  0.8468  0.6771  0.0893
  732MOL0     O96539  -0.173   5.608   7.364  0.5325 -0.2111 -0.0286
  732MOL0     C96540   0.079   5.366   7.445 -0.1715  0.5485 -0.5657
  732MOL0     C96541   0.219   5.351   7.436 -1.0471  0.0936  0.2998
  732MOL0     N96542   0.758   5.251   7.068 -0.4395 -0.0918 -0.0936
  732MOL0     N96543   0.858   5.237   6.990 -0.5636  0.1367  0.4452
  732MOL0     C96544   2.058   4.770   7.057 -0.4758 -0.4612  0.1721
  732MOL0     C96545   2.192   4.738   7.027 -0.3785 -0.2070  0.1254
  732MOL0     C96546   2.606   4.733   6.816 -0.0571  0.7132 -0.3517
  732MOL0     C96547   2.658   4.689   6.943  0.1685  0.6872 -0.0393
  732MOL0     C96548   2.795   4.654   6.949 -0.6283 -0.0728 -0.1348
  732MOL0     C96549   2.873   4.637   6.833 -0.4670  1.0707  0.8581
  732MOL0     O96550   3.003   4.594   6.833 -0.4114 -0.9724 -0.4215
  732MOL0     C96551   3.086   4.619   6.948  0.7276  0.7963 -0.6695
  732MOL0     C96552   3.223   4.662   6.904  0.1897 -0.0371 -1.1662
  732MOL0     C96553   3.285   4.544   6.821  0.6794 -0.6184  0.4006
  732MOL0     C96554   3.440   4.564   6.808 -0.2251  0.7223  0.0387
  732MOL0     C96555   3.501   4.456   6.733  0.4015  0.1734  0.2701
  732MOL0     C96556   3.555   4.372   6.667 -0.7142 -0.3286  0.3497
  732MOL0     C96557   2.816   4.651   6.705  0.6123 -0.2566  0.1168
  732MOL0     C96558   2.685   4.702   6.698  0.2957 -0.6300 -0.4191
  732MOL0     H96559   2.229   4.943   6.756  4.1751 -2.9601  0.3708
  732MOL0     H96560   2.005   5.005   6.806  0.1457 -0.0525  0.6298
  732MOL0     H96561   1.707   4.782   6.882  1.0816 -0.8946  0.3521
  732MOL0     H96562   1.825   4.861   6.782 -0.7767  0.3301 -0.4247
  732MOL0     H96563   1.728   5.070   6.789  0.0144 -1.1608 -0.4946
  732MOL0     H96564   1.725   5.059   6.970 -2.0040 -0.6943  1.3172
  732MOL0     H96565   1.525   4.939   6.983 -1.4251 -1.2790 -0.6024
  732MOL0     H96566   1.509   4.935   6.805 -1.2783  2.2056 -0.8496
  732MOL0     H96567   1.557   5.211   6.940 -1.2536  1.4855  1.4953
  732MOL0     H96568   1.470   5.181   6.792 -2.7289 -3.0915  0.5535
  732MOL0     H96569   1.337   5.087   7.053  2.0187  3.0655  2.8973
  732MOL0     H96570   1.267   5.110   6.898 -0.4490 -0.6474  0.6982
  732MOL0     H96571   1.335   5.351   6.908  1.1879 -0.0756  0.0941
  732MOL0     H96572   1.418   5.315   7.060 -0.2579 -2.9001  1.6949
  732MOL0     H96573   1.164   5.243   7.145  1.7728  0.9111 -0.3855
  732MOL0     H96574   1.192   5.412   7.113  1.4803  1.7615 -2.1857
  732MOL0     H96575   1.089   5.245   6.889 -1.8813  1.5056 -1.6000
  732MOL0     H96576   1.099   5.420   6.917  0.7004 -1.2266 -0.4699
  732MOL0     H96577   0.958   5.499   7.164  0.9507 -1.6289  0.3813
  732MOL0     H96578   0.607   5.406   7.212  0.5865 -0.7643 -1.1698
  732MOL0     H96579   0.718   5.519   7.278 -1.8675  1.3072 -1.3428
  732MOL0     H96580   0.832   5.346   7.429  0.8299 -0.5034 -0.1217
  732MOL0     H96581   0.715   5.231   7.377 -1.1661  0.0438  1.3584
  732MOL0     H96582   0.687   5.326   7.596 -1.4171 -0.0925  1.2372
  732MOL0     H96583   0.683   5.488   7.531 -2.7633  1.2293 -2.0434
  732MOL0     H96584   0.447   5.380   7.586  1.8912  3.8358 -0.8211
  732MOL0     H96585   0.489   5.250   7.472  0.9996 -0.1340 -0.8727
  732MOL0     H96586   0.301   5.664   7.328  0.3190 -1.5129 -3.1692
  732MOL0     H96587   0.051   5.681   7.314  1.0719 -0.6657 -1.7450
  732MOL0     H96588  -0.353   5.234   7.328  1.7312  0.1594 -0.4889
  732MOL0     H96589  -0.599   5.220   7.343 -0.0452 -1.7896  1.5422
  732MOL0     H96590  -0.822   5.208   7.495  1.0397 -0.5494 -1.6267
  732MOL0     H96591  -0.821   5.303   7.342 -0.0531 -1.3978 -0.4847
  732MOL0     H96592  -0.966   5.474   7.462  1.9085 -0.2411 -2.6446
  732MOL0     H96593  -1.008   5.341   7.573 -1.3448 -2.1611 -0.6352
  732MOL0     H96594  -1.109   5.201   7.413  1.8996 -1.0338 -0.0014
  732MOL0     H96595  -1.061   5.317   7.287 -3.5608  1.8957 -0.8054
  732MOL0     H96596  -1.231   5.390   7.525  0.1961  1.2079 -0.5153
  732MOL0     H96597  -1.221   5.482   7.378 -2.6019  0.2524  1.7721
  732MOL0     H96598  -1.372   5.221   7.413 -0.9559  0.2449  0.7434
  732MOL0     H96599  -1.323   5.258   7.254 -3.5214 -2.3893  0.1622
  732MOL0     H96600  -1.436   5.473   7.251 -1.8639  0.2666 -0.7541
  732MOL0     H96601  -1.481   5.458   7.418  2.4964  0.5429  0.5577
  732MOL0     H96602  -1.563   5.202   7.312 -0.3127 -0.5305 -3.0459
  732MOL0     H96603  -1.666   5.332   7.338 -0.7341 -1.1132  0.2666
  732MOL0     H96604  -1.689   5.234   7.109  0.0496 -0.4932  0.0674
  732MOL0     H96605  -1.525   5.275   7.061  0.4611  1.9124  0.2204
  732MOL0     H96606  -0.589   5.553   7.624 -2.4711 -0.5624 -1.4435
  732MOL0     H96607  -0.339   5.548   7.622  0.7515  1.0182 -0.1873
  732MOL0     H96608   0.020   5.280   7.478  1.0895  0.4511  1.6519
  732MOL0     H96609   0.267   5.256   7.455  2.1000  0.6743 -3.4632
  732MOL0     H96610   1.995   4.720   7.130 -1.3960 -0.0156 -0.2895
  732MOL0     H96611   2.248   4.684   7.103 -0.2196  0.6664  0.6340
  732MOL0     H96612   2.596   4.699   7.031 -0.0055  0.0531 -0.0875
  732MOL0     H96613   2.845   4.646   7.045  1.1977  1.3099 -0.9017
  732MOL0     H96614   3.090   4.533   7.015  1.1455  2.0058  0.9096
  732MOL0     H96615   3.038   4.701   7.002 -1.6377 -0.7797 -0.1998
  732MOL0     H96616   3.228   4.754   6.845  0.9150  1.5694  1.2633
  732MOL0     H96617   3.284   4.686   6.992 -1.2127 -2.6701  0.6426
  732MOL0     H96618   3.247   4.550   6.719 -0.5390 -1.9429  0.7388
  732MOL0     H96619   3.241   4.449   6.853  0.0027 -0.9163 -1.3383
  732MOL0     H96620   3.476   4.662   6.776  0.4916  1.0973  1.8401
  732MOL0     H96621   3.484   4.564   6.909  3.4362 -0.8521 -1.3566
  732MOL0     H96622   3.599   4.294   6.608  0.9826  0.0444  1.0578
  732MOL0     H96623   2.869   4.633   6.612  1.1230 -1.1300  0.5659
  732MOL0     H96624   2.641   4.720   6.600 -1.0520  3.3848  0.7404
  733MOL0     O96625   3.774   1.979   4.938  0.4189 -0.1594 -0.5639
  733MOL0     C96626   3.759   1.860   4.935 -0.2063 -0.1685 -0.2301
  733MOL0     O96627   3.650   1.787   4.961  0.4212  0.5562  0.0388
  733MOL0     C96628   3.522   1.837   4.987 -0.0922 -1.0947  0.3638
  733MOL0     C96629   3.494   1.963   5.046 -0.5708  0.0379  0.5498
  733MOL0     C96630   3.371   2.015   5.070  1.0277 -0.2493  0.7155
  733MOL0     C96631   3.253   1.934   5.041 -0.9650 -0.0949  0.1679
  733MOL0     O96632   3.121   1.969   5.072  0.3958 -0.1003  0.6242
  733MOL0     C96633   3.114   2.039   5.194  0.2156 -0.1203  0.2475
  733MOL0     C96634   2.969   2.048   5.240 -0.4386  0.5862 -0.3318
  733MOL0     C96635   2.913   1.914   5.300 -0.2792 -0.5131 -0.0479
  733MOL0     C96636   2.772   1.953   5.342  0.0984 -0.0948 -0.5780
  733MOL0     C96637   2.682   1.839   5.368 -0.2190  0.3172 -0.9299
  733MOL0     C96638   2.664   1.760   5.240 -0.0848  0.0033 -0.3790
  733MOL0     C96639   2.560   1.650   5.263 -0.0258  0.5299  0.4000
  733MOL0     C96640   2.426   1.697   5.301  0.1186 -0.6954 -0.3249
  733MOL0     N96641   2.335   1.583   5.316 -0.6040 -0.2134  0.3933
  733MOL0     C96642   2.336   1.506   5.427  0.3208 -0.3465 -0.1033
  733MOL0     C96643   2.245   1.417   5.407 -0.2557  0.1113 -0.1449
  733MOL0     C96644   2.215   1.309   5.509  0.3501 -0.3558 -0.4493
  733MOL0     C96645   2.121   1.357   5.617  0.3390  0.2699  0.0124
  733MOL0     C96646   1.975   1.342   5.564  0.4387  0.5709 -0.5650
  733MOL0     C96647   1.871   1.375   5.679 -0.4011 -1.2866 -0.1909
  733MOL0     O96648   1.870   1.278   5.789  0.2591  0.1156 -0.4849
  733MOL0     C96649   1.756   1.277   5.860 -0.2408 -0.4323 -0.5602
  733MOL0     C96650   1.772   1.304   5.995  0.0942 -0.2337 -0.5506
  733MOL0     C96651   1.658   1.312   6.071  0.0947  0.7887  0.3646
  733MOL0     C96652   1.531   1.289   6.021 -0.1238  0.1334 -0.2278
  733MOL0     C96653   1.418   1.279   6.110 -0.5652 -0.6304 -0.5217
  733MOL0     O96654   1.291   1.256   6.056  0.1694 -0.8543  0.7812
  733MOL0     C96655   1.184   1.239   6.142  0.1115 -1.0063  0.8645
  733MOL0     C96656   1.108   1.130   6.124  0.1015 -0.7806 -0.1289
  733MOL0     C96657   0.997   1.117   6.200  0.1991  0.4943 -1.2565
  733MOL0     C96658   0.962   1.191   6.311 -0.4380  0.3946 -0.4803
  733MOL0     O96659   0.861   1.139   6.392  0.4947  0.9272 -0.2045
  733MOL0     C96660   0.784   1.229   6.467 -0.3499 -0.0046 -0.8453
  733MOL0     C96661   0.716   1.326   6.367  0.0867  0.3390  0.1259
  733MOL0     C96662   0.620   1.434   6.430 -0.6328 -0.6288  0.2427
  733MOL0     C96663   0.517   1.377   6.520 -0.2339 -0.1806 -0.3032
  733MOL0     C96664   0.435   1.490   6.594 -0.5505  0.1395 -0.3536
  733MOL0     C96665   0.306   1.449   6.665  0.2468 -0.8147 -0.9501
  733MOL0     C96666   0.236   1.570   6.728  0.1273 -0.0824  0.2675
  733MOL0     C96667   0.097   1.537   6.769  1.0155 -0.2352 -0.4217
  733MOL0    Cl96668  -0.007   1.675   6.811  0.2018  0.0474  0.1447
  733MOL0     C96669   1.039   1.302   6.332 -0.5147  0.0911  0.1639
  733MOL0     C96670   1.151   1.330   6.249  0.6056 -0.0562  0.2032
  733MOL0     O96671   1.447   1.297   6.226 -0.1041 -0.1390  0.2085
  733MOL0     C96672   1.516   1.273   5.876 -0.8056 -0.4919  1.1897
  733MOL0     C96673   1.630   1.264   5.802  0.4156  0.9738  0.5562
  733MOL0     N96674   2.181   1.437   5.284  0.2466 -0.2437 -0.0582
  733MOL0     N96675   2.245   1.534   5.224  0.1652 -0.1640 -0.6083
  733MOL0     C96676   3.280   1.809   4.972  0.7287 -0.0828 -0.1718
  733MOL0     C96677   3.412   1.769   4.946 -0.3508  0.4621  0.3998
  733MOL0     C96678   3.881   1.777   4.908 -0.3787  0.2462 -0.3836
  733MOL0     C96679   3.869   1.643   4.861  0.8076 -0.3612  0.0485
  733MOL0     C96680   3.987   1.569   4.835  0.0733  0.2184 -0.7284
  733MOL0     C96681   4.116   1.611   4.864 -0.6839  0.1848  1.1418
  733MOL0     O96682   4.222   1.527   4.833 -0.4911  0.8706  0.2496
  733MOL0     C96683   4.341   1.549   4.924  0.1594 -0.3578 -0.3662
  733MOL0     C96684   4.424   1.418   4.943 -0.4474 -0.7713  0.4110
  733MOL0     C96685   4.462   1.344   4.818  1.1129  0.7944 -0.0989
  733MOL0     C96686   4.519   1.208   4.849 -0.8540 -0.0462 -0.0653
  733MOL0     C96687   4.645   1.177   4.782 -0.4022  0.0803 -0.1287
  733MOL0     C96688   4.746   1.163   4.715 -0.8711 -0.4102  0.1885
  733MOL0     C96689   4.127   1.738   4.924  0.2914 -0.0919  0.3728
  733MOL0     C96690   4.012   1.818   4.945  0.5843  0.5686  0.6319
  733MOL0     H96691   3.578   2.021   5.083 -0.8167  0.3186  0.6742
  733MOL0     H96692   3.373   2.113   5.116  1.6395 -1.2816  3.0742
  733MOL0     H96693   3.146   2.140   5.166 -1.5176 -0.0934 -1.8917
  733MOL0     H96694   3.178   1.997   5.272 -2.1808  0.2541  2.5544
  733MOL0     H96695   2.914   2.071   5.148  2.2858  0.7258 -2.0626
  733MOL0     H96696   2.956   2.134   5.306  3.4223  1.4167 -0.4066
  733MOL0     H96697   2.967   1.891   5.393 -0.6810  0.2401  0.3808
  733MOL0     H96698   2.918   1.833   5.227  2.4623 -1.4980  1.1124
  733MOL0     H96699   2.771   2.023   5.426 -3.8501 -0.3378 -0.2010
  733MOL0     H96700   2.724   2.015   5.265  3.3404 -0.4279 -3.0606
  733MOL0     H96701   2.592   1.873   5.419  0.7398  1.9983 -0.2702
  733MOL0     H96702   2.741   1.776   5.436  2.3497  3.2525 -0.1605
  733MOL0     H96703   2.752   1.708   5.201 -0.9268 -0.4255 -1.7782
  733MOL0     H96704   2.635   1.820   5.153  1.8475 -2.7626 -3.1396
  733MOL0     H96705   2.564   1.591   5.171  1.0518  1.2783 -0.0606
  733MOL0     H96706   2.594   1.576   5.335  0.5041  1.7933  1.4913
  733MOL0     H96707   2.388   1.759   5.219  2.1998 -2.1926 -2.5480
  733MOL0     H96708   2.432   1.747   5.398  3.2259 -1.2339 -0.1400
  733MOL0     H96709   2.403   1.519   5.511  1.2752 -1.1422 -0.7187
  733MOL0     H96710   2.304   1.262   5.550  0.4798  0.0436 -0.2677
  733MOL0     H96711   2.164   1.226   5.459 -1.6898  0.5008  0.0993
  733MOL0     H96712   2.147   1.457   5.654 -0.5820  0.3562  0.4568
  733MOL0     H96713   2.134   1.293   5.704  2.7012  0.9372  0.2129
  733MOL0     H96714   1.965   1.414   5.482  1.3535  3.4584  1.6743
  733MOL0     H96715   1.959   1.242   5.523 -1.6008  0.9067 -0.6755
  733MOL0     H96716   1.772   1.386   5.634  0.5681  0.1727 -2.0950
  733MOL0     H96717   1.895   1.472   5.723 -1.9104 -0.7769 -0.4259
  733MOL0     H96718   1.871   1.323   6.035 -0.9564  1.4181  1.4747
  733MOL0     H96719   1.681   1.327   6.176 -1.8243 -0.6141  1.0244
  733MOL0     H96720   1.138   1.067   6.041  2.2276  0.3038 -0.2668
  733MOL0     H96721   0.923   1.039   6.183 -1.6325  1.0168  2.9495
  733MOL0     H96722   0.845   1.291   6.532 -1.5157 -0.3996  0.6764
  733MOL0     H96723   0.721   1.167   6.531  1.2939 -3.2414 -2.1127
  733MOL0     H96724   0.659   1.261   6.299 -0.4318  2.7906 -1.9183
  733MOL0     H96725   0.784   1.394   6.315 -0.1930  0.2184 -0.3995
  733MOL0     H96726   0.574   1.485   6.345  1.6631 -1.8900 -1.8895
  733MOL0     H96727   0.684   1.500   6.489  1.0397 -1.4734 -0.5668
  733MOL0     H96728   0.449   1.306   6.472 -0.7835  1.1784 -1.5867
  733MOL0     H96729   0.562   1.309   6.593  1.2368 -0.4637 -1.4317
  733MOL0     H96730   0.392   1.558   6.520 -1.5629 -0.8067 -0.6456
  733MOL0     H96731   0.490   1.547   6.670 -1.1756 -0.0532  0.2490
  733MOL0     H96732   0.354   1.378   6.732 -1.0239 -2.3023 -1.5545
  733MOL0     H96733   0.242   1.390   6.598 -2.7180  0.0531  0.9437
  733MOL0     H96734   0.290   1.615   6.812  1.8501  3.0430 -2.3026
  733MOL0     H96735   0.221   1.640   6.645  0.6483 -0.5021 -0.1918
  733MOL0     H96736   0.083   1.465   6.850 -2.2040  0.4869 -0.2051
  733MOL0     H96737   0.050   1.484   6.686 -1.3331  0.9653  0.0422
  733MOL0     H96738   1.019   1.360   6.422 -1.8703  0.7923 -0.5571
  733MOL0     H96739   1.214   1.418   6.266 -0.2956  0.7282 -0.4170
  733MOL0     H96740   1.419   1.267   5.827 -0.2825 -0.7891  0.1712
  733MOL0     H96741   1.629   1.254   5.694  1.7546 -1.3386  0.7034
  733MOL0     H96742   3.187   1.754   4.959 -1.5102  2.8465  1.9798
  733MOL0     H96743   3.436   1.673   4.901  1.3674  0.0670  2.0244
  733MOL0     H96744   3.772   1.607   4.828 -0.3069  2.3567  0.1026
  733MOL0     H96745   3.966   1.473   4.787 -0.1396 -0.7521  1.1908
  733MOL0     H96746   4.321   1.580   5.027 -2.0337  1.2638 -1.1950
  733MOL0     H96747   4.399   1.633   4.884 -1.9873 -0.0387 -3.1475
  733MOL0     H96748   4.515   1.448   4.996  0.3170 -1.9686 -0.1876
  733MOL0     H96749   4.362   1.349   4.999  1.5530 -1.3778  1.9967
  733MOL0     H96750   4.537   1.410   4.772 -1.8166  1.5858 -4.2770
  733MOL0     H96751   4.378   1.343   4.748  1.9394  1.4986 -1.1396
  733MOL0     H96752   4.539   1.194   4.956  0.6730  1.0771 -0.1681
  733MOL0     H96753   4.439   1.136   4.828  2.0089 -3.5660  0.0009
  733MOL0     H96754   4.844   1.142   4.679 -1.2099 -3.7453  0.9355
  733MOL0     H96755   4.220   1.780   4.961  1.2432  2.3779 -4.1749
  733MOL0     H96756   4.028   1.916   4.990  1.5495  0.6901  0.0562
  734MOL0     O96757   6.789   5.374   6.881  0.4458 -0.2830  0.1825
  734MOL0     C96758   6.728   5.410   6.782  0.7100  0.1518  0.0191
  734MOL0     O96759   6.698   5.335   6.672 -0.2137 -0.4465  0.4069
  734MOL0     C96760   6.698   5.199   6.685  0.5994  1.4101  1.0057
  734MOL0     C96761   6.676   5.122   6.804 -0.4834  1.0901  0.1825
  734MOL0     C96762   6.666   4.981   6.795 -0.1704  0.1699 -0.1314
  734MOL0     C96763   6.686   4.909   6.682  0.3918 -0.6134 -0.0764
  734MOL0     O96764   6.689   4.770   6.693  0.3563  0.1830 -0.0863
  734MOL0     C96765   6.701   4.697   6.566 -1.1618 -0.2960 -0.4062
  734MOL0     C96766   6.590   4.683   6.461  0.1464  0.5208 -0.3906
  734MOL0     C96767   6.475   4.617   6.540 -0.2564  0.5524 -0.1155
  734MOL0     C96768   6.340   4.615   6.461 -1.3973 -0.0685 -0.2193
  734MOL0     C96769   6.246   4.513   6.540  0.4645 -0.4073 -0.1608
  734MOL0     C96770   6.111   4.480   6.472  0.0372  0.0668  0.4416
  734MOL0     C96771   6.034   4.364   6.538 -0.5800 -0.4626  0.8120
  734MOL0     C96772   5.958   4.411   6.659  0.5824  0.9894  0.0665
  734MOL0     N96773   5.899   4.290   6.731 -0.0790 -0.9929 -0.3712
  734MOL0     C96774   5.950   4.167   6.766  0.7002 -0.0367 -0.7627
  734MOL0     C96775   5.840   4.100   6.815  0.0288  0.5390  0.3367
  734MOL0     C96776   5.842   3.959   6.844  0.2553  0.4432 -0.7619
  734MOL0     C96777   5.714   3.912   6.912 -0.7131 -0.3996  0.2879
  734MOL0     C96778   5.715   3.757   6.923 -0.0027 -0.5346 -0.5997
  734MOL0     C96779   5.609   3.700   7.021 -0.2441  0.4517  0.1559
  734MOL0     O96780   5.539   3.587   6.962  0.1294 -0.5678 -0.0919
  734MOL0     C96781   5.415   3.547   7.000  0.3430 -0.6303  0.1709
  734MOL0     C96782   5.390   3.417   6.969  0.3822  0.5416 -0.7277
  734MOL0     C96783   5.271   3.363   7.007  0.7795  0.5563 -0.7646
  734MOL0     C96784   5.181   3.428   7.096  0.5109  0.5266  0.4098
  734MOL0     C96785   5.059   3.362   7.142 -0.1109 -0.8515 -0.0046
  734MOL0     O96786   5.026   3.244   7.076  0.0947  0.2047  0.1008
  734MOL0     C96787   4.931   3.169   7.149 -0.7543 -0.3032  0.4289
  734MOL0     C96788   4.799   3.163   7.099 -0.1085  0.2130 -0.0329
  734MOL0     C96789   4.706   3.082   7.171 -0.9863 -0.2057 -0.2303
  734MOL0     C96790   4.748   3.015   7.281 -0.0431 -0.5076 -0.5251
  734MOL0     O96791   4.655   2.930   7.336 -0.0262 -0.7094  0.4461
  734MOL0     C96792   4.703   2.798   7.358 -0.1360 -0.0932 -0.1814
  734MOL0     C96793   4.595   2.709   7.420  0.9348 -0.5470 -0.5702
  734MOL0     C96794   4.482   2.665   7.334  0.8372  0.2127  0.7518
  734MOL0     C96795   4.402   2.777   7.266  0.7799 -0.3832  0.3759
  734MOL0     C96796   4.256   2.739   7.218 -0.3002  0.2219 -0.3878
  734MOL0     C96797   4.176   2.846   7.145  0.6851  0.4767 -0.8306
  734MOL0     C96798   4.158   2.977   7.229  0.4189  0.4062  0.0992
  734MOL0     C96799   4.075   3.084   7.158  0.7256 -0.2555 -0.3382
  734MOL0    Cl96800   4.012   3.203   7.267  0.1678  0.2720  0.0277
  734MOL0     C96801   4.879   3.022   7.329  0.1008 -0.3248 -0.3297
  734MOL0     C96802   4.976   3.100   7.265  0.3643 -0.2162 -0.4632
  734MOL0     O96803   4.987   3.415   7.228 -0.1492 -0.3121  0.1686
  734MOL0     C96804   5.210   3.562   7.128 -0.4265  0.4815 -0.4720
  734MOL0     C96805   5.333   3.615   7.086 -0.1306 -0.6061  0.2958
  734MOL0     N96806   5.735   4.182   6.806  0.1919  0.6889 -0.3616
  734MOL0     N96807   5.765   4.292   6.761 -0.4379 -0.3046 -0.3377
  734MOL0     C96808   6.707   4.983   6.567 -0.8147 -0.8885  0.2808
  734MOL0     C96809   6.702   5.126   6.571  0.1246  0.7035  0.2226
  734MOL0     C96810   6.683   5.549   6.772  0.0070 -0.7537  0.2825
  734MOL0     C96811   6.648   5.618   6.887 -1.1546  0.2047  0.3007
  734MOL0     C96812   6.567   5.738   6.875 -0.5496 -0.4843  1.1775
  734MOL0     C96813   6.537   5.795   6.746  0.3902  0.2773 -0.1796
  734MOL0     O96814   6.486   5.919   6.723 -0.0787  0.3257  0.3240
  734MOL0     C96815   6.425   5.989   6.829  0.3312 -0.0934  0.0296
  734MOL0     C96816   6.384   6.133   6.777 -0.5629  0.3565 -0.7438
  734MOL0     C96817   6.258   6.184   6.849  0.4077 -0.3051  0.3387
  734MOL0     C96818   6.236   6.326   6.808  0.4908 -0.4542 -0.1816
  734MOL0     C96819   6.333   6.420   6.870 -0.1087  0.4976  0.1463
  734MOL0     C96820   6.406   6.490   6.934 -0.1328 -0.5174 -0.0277
  734MOL0     C96821   6.581   5.719   6.635 -0.1963  0.1590  0.4684
  734MOL0     C96822   6.655   5.609   6.650 -0.5801 -0.0798 -0.1732
  734MOL0     H96823   6.678   5.170   6.901 -2.3211  1.1349  0.2324
  734MOL0     H96824   6.656   4.917   6.882 -1.0806 -1.0544 -1.1044
  734MOL0     H96825   6.731   4.594   6.590  3.6190  0.7408 -0.9596
  734MOL0     H96826   6.790   4.751   6.532 -1.3040  1.0766  1.3023
  734MOL0     H96827   6.625   4.623   6.376 -1.3711 -0.9127 -0.0577
  734MOL0     H96828   6.554   4.777   6.419 -3.5577 -0.6210 -0.1333
  734MOL0     H96829   6.458   4.666   6.637  1.7688 -0.9291  1.0606
  734MOL0     H96830   6.515   4.519   6.568  0.5393  1.0665  0.6486
  734MOL0     H96831   6.309   4.719   6.454  1.9823  0.9318 -3.1074
  734MOL0     H96832   6.349   4.585   6.356  0.3435  2.0241 -0.7257
  734MOL0     H96833   6.228   4.559   6.638  1.3756  1.8604 -0.9958
  734MOL0     H96834   6.301   4.419   6.554  1.0308 -0.5881 -3.0028
  734MOL0     H96835   6.132   4.443   6.372 -1.6812 -1.2647  0.5333
  734MOL0     H96836   6.045   4.567   6.464  0.5916  0.3956 -0.8434
  734MOL0     H96837   5.963   4.324   6.466 -0.5238 -1.6295  1.3882
  734MOL0     H96838   6.102   4.282   6.564  1.5869 -0.2998 -3.5862
  734MOL0     H96839   5.876   4.481   6.636 -3.0772 -2.4420  1.5135
  734MOL0     H96840   6.018   4.466   6.732  1.9328  1.2443 -1.1920
  734MOL0     H96841   6.046   4.118   6.750 -0.1104 -1.1714 -2.4958
  734MOL0     H96842   5.928   3.932   6.906 -0.7544 -0.7611  0.1629
  734MOL0     H96843   5.854   3.907   6.749 -3.4982 -0.4760 -0.9104
  734MOL0     H96844   5.624   3.944   6.860 -2.5684 -2.5231  1.9995
  734MOL0     H96845   5.708   3.967   7.006 -0.1223  2.4048 -1.1841
  734MOL0     H96846   5.681   3.726   6.824  0.6565 -3.1123 -0.0864
  734MOL0     H96847   5.811   3.707   6.935  1.8568  2.6766 -1.0178
  734MOL0     H96848   5.524   3.765   7.044 -1.2316 -0.9091  0.5097
  734MOL0     H96849   5.662   3.663   7.109 -1.0219 -1.9886 -0.2958
  734MOL0     H96850   5.455   3.357   6.905  0.2472  0.1932 -0.5413
  734MOL0     H96851   5.261   3.257   6.987  0.0968  0.5825 -0.5813
  734MOL0     H96852   4.774   3.222   7.011  0.5854 -2.0302 -1.8383
  734MOL0     H96853   4.605   3.068   7.136 -0.7798 -2.2017 -0.1225
  734MOL0     H96854   4.780   2.804   7.436  2.0106 -1.6313 -2.0621
  734MOL0     H96855   4.754   2.762   7.269  1.9045 -0.6452  1.1346
  734MOL0     H96856   4.560   2.770   7.503  1.0332 -0.7572 -0.3742
  734MOL0     H96857   4.648   2.618   7.451 -0.7832 -1.0419  1.0783
  734MOL0     H96858   4.417   2.588   7.376  1.1934 -1.8767 -2.1442
  734MOL0     H96859   4.523   2.600   7.256  3.6121  1.5880  0.9404
  734MOL0     H96860   4.394   2.866   7.328  0.3152  0.0406 -0.2816
  734MOL0     H96861   4.453   2.806   7.174  0.7809 -2.5271 -0.3667
  734MOL0     H96862   4.194   2.727   7.308 -0.7351  2.5876 -0.3132
  734MOL0     H96863   4.248   2.646   7.161  0.9940  1.0131 -1.9320
  734MOL0     H96864   4.075   2.805   7.134  2.1657 -4.0388  0.1012
  734MOL0     H96865   4.218   2.861   7.045  1.9645 -0.6403 -0.4819
  734MOL0     H96866   4.107   2.952   7.322 -0.2933  3.9665  0.8425
  734MOL0     H96867   4.255   3.022   7.250 -0.6248  2.2778  1.2664
  734MOL0     H96868   3.994   3.038   7.099 -1.2076  0.6287  1.4925
  734MOL0     H96869   4.135   3.136   7.083  2.4466 -0.2043  1.0291
  734MOL0     H96870   4.920   2.965   7.412 -0.7359  0.7406  0.8384
  734MOL0     H96871   5.075   3.096   7.309 -0.0176 -3.1368  0.3394
  734MOL0     H96872   5.150   3.612   7.203 -1.0674 -1.9935  0.7884
  734MOL0     H96873   5.369   3.706   7.132 -0.9666  0.4691 -1.1244
  734MOL0     H96874   6.737   4.949   6.469  2.1925 -0.5342  0.9868
  734MOL0     H96875   6.711   5.172   6.473  0.0989  2.1398  0.8613
  734MOL0     H96876   6.664   5.559   6.977 -3.0436 -2.8319 -1.1892
  734MOL0     H96877   6.540   5.788   6.968 -1.9414 -1.6930  1.4630
  734MOL0     H96878   6.502   6.009   6.905  0.3168 -1.3230  0.3935
  734MOL0     H96879   6.335   5.935   6.861 -0.0848 -0.2166 -1.2998
  734MOL0     H96880   6.465   6.207   6.768  1.0498 -1.3996 -1.5017
  734MOL0     H96881   6.354   6.115   6.673  1.6062 -2.3521 -1.0304
  734MOL0     H96882   6.257   6.161   6.956 -3.0649 -3.0124 -0.1114
  734MOL0     H96883   6.173   6.126   6.811  0.1334  0.5687 -0.4104
  734MOL0     H96884   6.221   6.331   6.700  1.5130  0.7101 -0.3043
  734MOL0     H96885   6.140   6.359   6.849  0.1115 -0.9991 -0.6388
  734MOL0     H96886   6.471   6.554   6.991  2.2792 -0.1973 -2.9250
  734MOL0     H96887   6.576   5.748   6.531  1.4884 -2.1636 -0.3494
  734MOL0     H96888   6.688   5.566   6.556 -1.3887  1.3478 -1.1314
  735MOL0     O96889   4.497   2.083  11.153  0.0726 -0.1750 -0.3720
  735MOL0     C96890   4.564   2.014  11.074 -0.3559  0.0466 -0.0705
  735MOL0     O96891   4.513   1.933  10.975  0.0630  0.1515 -0.4685
  735MOL0     C96892   4.384   1.956  10.931 -0.1972 -0.3142  0.6187
  735MOL0     C96893   4.280   1.868  10.964  0.5635 -0.1229 -0.2062
  735MOL0     C96894   4.154   1.894  10.902 -0.4787 -0.1700 -0.6086
  735MOL0     C96895   4.131   2.010  10.821  0.0586  0.9465 -0.1142
  735MOL0     O96896   4.002   2.053  10.787  0.0979  0.0463 -0.3840
  735MOL0     C96897   3.893   1.973  10.814 -0.0137  0.5746  0.4693
  735MOL0     C96898   3.756   2.043  10.787  0.9267 -0.2614  0.5415
  735MOL0     C96899   3.683   2.005  10.654 -0.4031  0.0791  0.5753
  735MOL0     C96900   3.598   2.118  10.602  0.9015 -0.7433  0.3682
  735MOL0     C96901   3.455   2.140  10.671 -0.4533 -0.2201 -0.1419
  735MOL0     C96902   3.450   2.256  10.772  0.2080 -0.4016 -0.2803
  735MOL0     C96903   3.315   2.279  10.833 -0.4298 -0.0344  0.4145
  735MOL0     C96904   3.308   2.406  10.914 -0.1078  0.5668  0.6235
  735MOL0     N96905   3.168   2.417  10.970  0.3096 -0.1022  0.0293
  735MOL0     C96906   3.136   2.452  11.097  0.0784  0.4001  0.6403
  735MOL0     C96907   3.004   2.461  11.097  0.0596 -0.8155  0.4057
  735MOL0     C96908   2.930   2.521  11.221  1.1637 -0.1696  0.3230
  735MOL0     C96909   2.990   2.525  11.364  0.0422  0.6496 -0.1321
  735MOL0     C96910   2.883   2.552  11.466 -0.2357 -0.6509 -0.5506
  735MOL0     C96911   2.781   2.434  11.477 -0.0411  0.3659  0.1503
  735MOL0     O96912   2.702   2.455  11.595  0.0055  0.1317  0.0117
  735MOL0     C96913   2.576   2.407  11.617 -0.4914 -0.7991  0.1345
  735MOL0     C96914   2.480   2.479  11.690  0.7777  0.4839 -0.0876
  735MOL0     C96915   2.355   2.428  11.728 -0.0340 -0.6021  0.4862
  735MOL0     C96916   2.334   2.293  11.698 -0.5580 -0.0850  0.1218
  735MOL0     C96917   2.209   2.232  11.738 -0.2983 -0.8350  0.1386
  735MOL0     O96918   2.185   2.110  11.702 -0.2908 -0.0626  0.4859
  735MOL0     C96919   2.068   2.045  11.709  0.0485  0.6258  0.0429
  735MOL0     C96920   1.950   2.102  11.731  0.0737 -0.6288  0.1556
  735MOL0     C96921   1.837   2.028  11.746  0.2424 -0.1488  0.1926
  735MOL0     C96922   1.846   1.888  11.734 -0.0569  0.2245 -0.5862
  735MOL0     O96923   1.736   1.806  11.747 -0.1842  0.2980  0.2184
  735MOL0     C96924   1.629   1.815  11.648  0.1793  0.1119 -0.0687
  735MOL0     C96925   1.515   1.719  11.682  0.7590  0.2443  0.5451
  735MOL0     C96926   1.395   1.768  11.603 -0.1647 -0.4881  0.3882
  735MOL0     C96927   1.273   1.713  11.670  0.0064 -0.8475 -0.4374
  735MOL0     C96928   1.147   1.738  11.582 -0.2089 -0.4082 -0.7575
  735MOL0     C96929   1.028   1.646  11.639 -0.8761 -0.0221 -0.1517
  735MOL0     C96930   0.962   1.579  11.519  0.0224  0.3699  0.4752
  735MOL0     C96931   0.849   1.481  11.560 -1.1814  0.7881 -0.1054
  735MOL0    Cl96932   0.722   1.557  11.647  0.1616 -0.3426  0.0445
  735MOL0     C96933   1.971   1.826  11.716  0.1549 -0.4585  0.0890
  735MOL0     C96934   2.080   1.904  11.713 -1.3916  0.0650  0.8190
  735MOL0     O96935   2.134   2.305  11.804  0.1917  0.0989  0.2020
  735MOL0     C96936   2.420   2.216  11.622  0.5751 -0.7385  0.3165
  735MOL0     C96937   2.543   2.274  11.582 -0.1449  0.4155  0.4904
  735MOL0     N96938   2.954   2.439  10.973 -0.6041  0.4559 -0.4951
  735MOL0     N96939   3.055   2.416  10.891 -0.0973  0.0730 -0.4065
  735MOL0     C96940   4.239   2.096  10.798 -1.2062  0.1371 -0.6023
  735MOL0     C96941   4.365   2.060  10.842  0.2861 -0.6531  0.6887
  735MOL0     C96942   4.716   2.011  11.109  0.3555  0.0040  0.9926
  735MOL0     C96943   4.809   2.003  11.005  0.5462 -0.5372 -0.5806
  735MOL0     C96944   4.949   2.002  11.030 -0.2285 -0.4400  0.4684
  735MOL0     C96945   4.991   1.997  11.159  0.4581 -0.0805  0.4791
  735MOL0     O96946   5.128   2.007  11.176  0.2778 -0.2978 -0.4748
  735MOL0     C96947   5.188   1.972  11.295  0.1622  0.3168  0.7581
  735MOL0     C96948   5.340   1.948  11.290  0.3241 -0.4111  0.0758
  735MOL0     C96949   5.401   1.881  11.411 -0.0269  0.0595 -0.3432
  735MOL0     C96950   5.540   1.831  11.385 -0.5530 -0.8356 -0.6441
  735MOL0     C96951   5.650   1.933  11.368  0.7222 -0.1989 -0.0730
  735MOL0     C96952   5.737   2.022  11.361  0.6274 -0.4981  0.3641
  735MOL0     C96953   4.903   1.992  11.263  0.4116 -0.6862 -0.5076
  735MOL0     C96954   4.761   1.992  11.243  0.1573  0.3137  0.3643
  735MOL0     H96955   4.297   1.787  11.034 -1.5696  1.0221  1.7523
  735MOL0     H96956   4.074   1.827  10.931 -0.6715  1.1463  2.2309
  735MOL0     H96957   3.888   1.953  10.921  1.4040  1.1073  0.6642
  735MOL0     H96958   3.908   1.877  10.764 -1.5102 -0.5065  1.9813
  735MOL0     H96959   3.766   2.152  10.785 -0.2107 -0.1536 -0.0341
  735MOL0     H96960   3.682   2.014  10.862 -1.8265 -0.9006 -2.2134
  735MOL0     H96961   3.614   1.923  10.677 -3.5675  2.3823 -0.1421
  735MOL0     H96962   3.749   1.981  10.570 -1.7344 -0.2185 -0.4199
  735MOL0     H96963   3.638   2.220  10.603 -1.1040  0.1231 -0.8166
  735MOL0     H96964   3.591   2.112  10.493  1.4790  1.8290  0.1204
  735MOL0     H96965   3.437   2.049  10.728 -0.3324  0.2636  0.6765
  735MOL0     H96966   3.385   2.154  10.588 -2.1877  1.3673  1.5063
  735MOL0     H96967   3.475   2.343  10.710 -1.5091 -0.4894 -1.1582
  735MOL0     H96968   3.522   2.240  10.853 -1.8196 -4.0218  1.0411
  735MOL0     H96969   3.245   2.280  10.748 -1.3881 -0.7381  1.1647
  735MOL0     H96970   3.298   2.195  10.902  2.3954 -1.9465 -0.9998
  735MOL0     H96971   3.319   2.500  10.858  0.4340  0.6767  0.9109
  735MOL0     H96972   3.375   2.404  11.000 -0.5995 -0.4969  0.9977
  735MOL0     H96973   3.197   2.478  11.183 -1.5984  2.0503  1.3805
  735MOL0     H96974   2.827   2.484  11.215  2.0636 -2.6766 -0.5528
  735MOL0     H96975   2.917   2.627  11.197  2.9573  0.0221  0.1031
  735MOL0     H96976   3.066   2.603  11.374 -1.6398  1.9927  5.1410
  735MOL0     H96977   3.035   2.429  11.392 -0.3472 -0.1937 -2.1988
  735MOL0     H96978   2.920   2.574  11.566  0.8548 -0.1826 -1.0347
  735MOL0     H96979   2.815   2.636  11.447 -2.0221 -2.3475 -2.1802
  735MOL0     H96980   2.838   2.341  11.482  0.8299  0.9469  1.3619
  735MOL0     H96981   2.716   2.430  11.388 -2.0550  0.4266  1.5476
  735MOL0     H96982   2.509   2.580  11.719 -0.6653  0.6602  0.8525
  735MOL0     H96983   2.281   2.486  11.783 -0.7806 -0.1306 -0.9536
  735MOL0     H96984   1.915   2.204  11.741 -1.5069 -1.1755  0.5220
  735MOL0     H96985   1.740   2.072  11.768 -1.1068 -3.1839  0.8684
  735MOL0     H96986   1.681   1.786  11.556  2.6132  1.8889  0.6276
  735MOL0     H96987   1.597   1.920  11.644  0.5178  0.2796  1.0946
  735MOL0     H96988   1.499   1.724  11.790 -0.5652  3.4443  0.3217
  735MOL0     H96989   1.538   1.620  11.643  2.4844  1.5285 -2.0711
  735MOL0     H96990   1.400   1.725  11.502 -1.7630  0.6562 -0.2318
  735MOL0     H96991   1.388   1.877  11.597  0.6706 -0.4995 -1.7572
  735MOL0     H96992   1.296   1.606  11.681  0.5297 -0.6952  0.0401
  735MOL0     H96993   1.262   1.757  11.769 -0.1644 -0.8041 -0.4765
  735MOL0     H96994   1.182   1.699  11.486  5.9789  0.8104  0.5830
  735MOL0     H96995   1.109   1.840  11.575  1.3605  0.3236  0.6460
  735MOL0     H96996   0.958   1.709  11.694  0.7427  2.1189 -0.3992
  735MOL0     H96997   1.060   1.561  11.700 -2.0008 -2.3012 -2.5462
  735MOL0     H96998   0.932   1.652  11.442 -1.5010 -0.1820  0.5201
  735MOL0     H96999   1.042   1.523  11.470 -1.5904 -2.2169  0.6071
  735MOL0     H97000   0.889   1.402  11.625  0.8823  0.6305 -1.4765
  735MOL0     H97001   0.808   1.433  11.470 -0.9324 -2.6074  1.4198
  735MOL0     H97002   1.972   1.718  11.703 -1.7595 -0.5538  0.5552
  735MOL0     H97003   2.176   1.853  11.711 -0.6589  1.3908 -1.0531
  735MOL0     H97004   2.412   2.113  11.590 -1.3692 -0.4292 -0.3219
  735MOL0     H97005   2.617   2.217  11.528  0.7705 -0.1236  2.2167
  735MOL0     H97006   4.214   2.188  10.746  1.9404  0.5658 -1.5247
  735MOL0     H97007   4.445   2.130  10.822  0.1287 -1.0575 -1.6179
  735MOL0     H97008   4.771   2.020  10.905  0.5276 -0.9664 -0.6503
  735MOL0     H97009   5.015   2.017  10.946 -1.9290  2.5606 -0.4925
  735MOL0     H97010   5.136   1.891  11.346 -0.2941  1.7597  2.7366
  735MOL0     H97011   5.174   2.055  11.365 -0.7938  1.4410 -0.6761
  735MOL0     H97012   5.370   1.894  11.200 -0.7782 -0.8286 -0.0566
  735MOL0     H97013   5.375   2.052  11.284 -0.7898  0.1741  2.4331
  735MOL0     H97014   5.338   1.795  11.436 -0.7882 -0.1575 -2.7520
  735MOL0     H97015   5.403   1.957  11.490  2.4112 -0.1064 -0.1659
  735MOL0     H97016   5.559   1.774  11.477 -0.7710 -1.0377 -0.7242
  735MOL0     H97017   5.549   1.757  11.304  3.4916 -2.3405  0.8912
  735MOL0     H97018   5.795   2.110  11.343 -1.9360  1.1814 -0.1245
  735MOL0     H97019   4.933   1.998  11.367 -0.7960 -2.3265 -0.0349
  735MOL0     H97020   4.682   1.996  11.317 -1.4036  0.0471 -1.1994
  736MOL0     O97021   3.495  10.196   5.847  0.0268  0.3924  0.2774
  736MOL0     C97022   3.480  10.271   5.748 -0.3155 -1.1421  0.4156
  736MOL0     O97023   3.364  10.318   5.705 -0.3121  0.0134 -0.8362
  736MOL0     C97024   3.251  10.289   5.788 -0.4315  0.2451 -0.4520
  736MOL0     C97025   3.238  10.329   5.922  0.2067  0.3613  0.1597
  736MOL0     C97026   3.124  10.298   5.995 -0.0240 -0.6845  0.6940
  736MOL0     C97027   3.009  10.236   5.942 -0.7641 -0.1646  0.6900
  736MOL0     O97028   2.892  10.233   6.022 -1.0248 -0.5714  0.6004
  736MOL0     C97029   2.809  10.123   6.009  0.0624 -0.1851 -0.1121
  736MOL0     C97030   2.875  10.004   6.078 -0.3314 -0.2448  0.2128
  736MOL0     C97031   2.905  10.032   6.233  0.1118  0.1289  0.3914
  736MOL0     C97032   2.922   9.896   6.310  0.2181 -0.2379  0.0711
  736MOL0     C97033   2.787   9.813   6.312  0.0240 -0.8825 -0.6535
  736MOL0     C97034   2.792   9.691   6.410  0.0546 -0.1916 -0.2557
  736MOL0     C97035   2.655   9.629   6.392  0.0832 -0.5059 -0.1280
  736MOL0     C97036   2.657   9.494   6.450  0.3081 -0.5961 -0.4476
  736MOL0     N97037   2.536   9.411   6.419  0.3725  0.3620 -0.1782
  736MOL0     C97038   2.480   9.314   6.499 -0.0121  0.6403 -0.7964
  736MOL0     C97039   2.363   9.279   6.443 -0.1958 -0.8112  0.0376
  736MOL0     C97040   2.271   9.174   6.498  0.0381  0.2008 -0.3586
  736MOL0     C97041   2.154   9.236   6.566  0.2063 -0.5368 -0.0496
  736MOL0     C97042   2.051   9.129   6.613 -0.3165 -0.3887  0.0036
  736MOL0     C97043   1.932   9.171   6.695 -0.3372 -0.3730 -0.5222
  736MOL0     O97044   1.842   9.261   6.628  0.2278  0.1662  0.5892
  736MOL0     C97045   1.719   9.275   6.687 -0.6523 -0.1610 -0.1582
  736MOL0     C97046   1.677   9.230   6.813 -0.3950 -0.1021 -0.3282
  736MOL0     C97047   1.545   9.243   6.862  0.2900 -0.6011 -0.5940
  736MOL0     C97048   1.446   9.299   6.789  0.3165  0.1211  0.3595
  736MOL0     C97049   1.307   9.324   6.829 -0.4188  0.2087 -0.3742
  736MOL0     O97050   1.229   9.397   6.754  0.2593  0.1562 -0.4784
  736MOL0     C97051   1.099   9.440   6.781 -0.5158 -0.0496 -0.1961
  736MOL0     C97052   1.071   9.481   6.902  0.1527 -0.0674  0.0581
  736MOL0     C97053   0.938   9.517   6.935 -0.3637  0.5540  0.1843
  736MOL0     C97054   0.841   9.515   6.833 -0.2342  0.0705  0.1972
  736MOL0     O97055   0.729   9.570   6.879 -0.7047 -0.8861  0.4933
  736MOL0     C97056   0.606   9.539   6.803  0.2932  0.6630  0.1324
  736MOL0     C97057   0.505   9.649   6.840 -0.3882  0.1018  0.0120
  736MOL0     C97058   0.364   9.591   6.869  0.0031  0.0902  0.0034
  736MOL0     C97059   0.245   9.690   6.893  0.6174  0.4154 -0.4648
  736MOL0     C97060   0.113   9.623   6.918 -0.9665  0.0988  0.4131
  736MOL0     C97061   0.103   9.533   7.037  0.2591  0.3764  0.0869
  736MOL0     C97062  -0.043   9.491   7.040  0.0667  0.3640  0.6312
  736MOL0     C97063  -0.068   9.367   7.124 -0.1901 -0.2808  0.3678
  736MOL0    Cl97064  -0.084   9.409   7.299 -0.2973  0.2008  0.2307
  736MOL0     C97065   0.880   9.493   6.704  0.3411 -0.3630  0.5033
  736MOL0     C97066   1.009   9.448   6.672 -0.1640 -0.0517  0.7915
  736MOL0     O97067   1.273   9.262   6.925  0.1978  0.2832  0.6524
  736MOL0     C97068   1.484   9.346   6.663  0.1460  0.5021  0.0756
  736MOL0     C97069   1.616   9.339   6.617 -0.2526  0.2857 -0.5166
  736MOL0     N97070   2.348   9.346   6.320 -0.9658 -0.4462 -0.2433
  736MOL0     N97071   2.450   9.417   6.308  0.2658 -0.3880  0.0856
  736MOL0     C97072   3.027  10.190   5.816 -0.1544  0.1176  0.6034
  736MOL0     C97073   3.145  10.214   5.741 -0.1176  0.0990 -0.7063
  736MOL0     C97074   3.598  10.314   5.677 -0.0577  0.0527 -0.8933
  736MOL0     C97075   3.729  10.312   5.727  0.4532  0.4797 -0.9307
  736MOL0     C97076   3.841  10.351   5.649 -0.7265 -0.3085 -0.1379
  736MOL0     C97077   3.823  10.406   5.518  1.0594  0.5205  0.1816
  736MOL0     O97078   3.932  10.441   5.442 -0.3106  0.2723 -1.0207
  736MOL0     C97079   3.930  10.518   5.322 -0.1935 -0.4788  0.6677
  736MOL0     C97080   4.061  10.502   5.240 -0.3323  1.4829 -0.1344
  736MOL0     C97081   4.055  10.361   5.182 -0.9036 -0.0762  0.1164
  736MOL0     C97082   4.146  10.347   5.056  0.2989 -0.0736  0.3857
  736MOL0     C97083   4.284  10.390   5.084 -0.1463  0.7552 -0.4816
  736MOL0     C97084   4.395  10.418   5.127  0.6406  0.5579 -0.2118
  736MOL0     C97085   3.691  10.408   5.468  0.2786 -1.1876 -0.3630
  736MOL0     C97086   3.585  10.376   5.554  0.2283 -0.5679 -1.3172
  736MOL0     H97087   3.323  10.370   5.976 -0.3191  0.7469  0.7065
  736MOL0     H97088   3.136  10.325   6.099 -0.0287  1.2434  0.2236
  736MOL0     H97089   2.772  10.098   5.910  2.0673  0.4927 -1.0900
  736MOL0     H97090   2.718  10.148   6.064 -0.1743 -0.2512 -0.4768
  736MOL0     H97091   2.967   9.984   6.023  0.4694 -0.4128  1.5847
  736MOL0     H97092   2.810   9.917   6.061  0.3084 -0.6485 -0.2058
  736MOL0     H97093   2.825  10.084   6.287 -1.7327 -0.1354 -1.9708
  736MOL0     H97094   3.003  10.079   6.246  2.0645 -3.3465 -0.4159
  736MOL0     H97095   3.003   9.845   6.258  0.2779  0.3012 -0.3610
  736MOL0     H97096   2.951   9.912   6.414 -0.2846  3.7524 -0.2582
  736MOL0     H97097   2.768   9.779   6.209  3.3304  1.1858 -2.1012
  736MOL0     H97098   2.710   9.887   6.337  1.2686  0.6398 -1.1906
  736MOL0     H97099   2.807   9.719   6.514 -1.8754 -1.5318  0.4554
  736MOL0     H97100   2.870   9.620   6.379  0.8533  1.5521 -2.5226
  736MOL0     H97101   2.578   9.696   6.430  1.1897 -0.1969  1.6499
  736MOL0     H97102   2.627   9.616   6.286 -2.5238  1.0337  0.2619
  736MOL0     H97103   2.660   9.503   6.559 -1.9154 -1.2195 -0.2784
  736MOL0     H97104   2.749   9.448   6.413  0.8427 -0.5432  0.7844
  736MOL0     H97105   2.515   9.300   6.601  1.7263  0.8676 -1.3363
  736MOL0     H97106   2.319   9.106   6.570 -1.2240 -0.6046 -0.2456
  736MOL0     H97107   2.227   9.118   6.415 -4.0333  0.4731  1.4022
  736MOL0     H97108   2.101   9.306   6.500  0.8756 -0.8181 -0.8986
  736MOL0     H97109   2.182   9.290   6.657  0.2900 -2.3547  1.0570
  736MOL0     H97110   2.007   9.066   6.536  1.5245  0.7217 -2.0678
  736MOL0     H97111   2.101   9.053   6.675 -2.0030 -1.3662  0.2271
  736MOL0     H97112   1.957   9.218   6.791  1.1481 -1.5899 -0.2611
  736MOL0     H97113   1.879   9.078   6.718 -0.3997  0.3491  2.8236
  736MOL0     H97114   1.749   9.180   6.878  0.8320  2.0869  0.0816
  736MOL0     H97115   1.514   9.190   6.952 -0.1990 -2.0295 -1.5580
  736MOL0     H97116   1.148   9.490   6.978 -0.0862 -0.8343  0.4012
  736MOL0     H97117   0.909   9.542   7.036 -0.0173 -0.0604  0.4328
  736MOL0     H97118   0.573   9.444   6.845 -0.1286  0.1863 -1.2333
  736MOL0     H97119   0.614   9.527   6.695 -2.7118 -0.5767 -0.0382
  736MOL0     H97120   0.498   9.717   6.755  1.6079 -3.0072 -2.9425
  736MOL0     H97121   0.536   9.707   6.927  3.0608  2.3443 -2.4600
  736MOL0     H97122   0.364   9.524   6.956 -0.2852  1.4911  1.1381
  736MOL0     H97123   0.338   9.534   6.779  0.4707  1.7445 -1.2179
  736MOL0     H97124   0.267   9.763   6.972  0.3768  0.3997 -0.3806
  736MOL0     H97125   0.230   9.745   6.800  0.7571  1.5743  0.1770
  736MOL0     H97126   0.083   9.566   6.830 -2.2344  1.2380  0.0722
  736MOL0     H97127   0.050   9.709   6.942 -0.7580  0.0012  1.3457
  736MOL0     H97128   0.137   9.591   7.123 -0.5459  2.4491 -0.9331
  736MOL0     H97129   0.164   9.442   7.031 -1.6953 -0.9601 -1.2988
  736MOL0     H97130  -0.096   9.579   7.077  0.0627  1.2407 -1.3242
  736MOL0     H97131  -0.080   9.473   6.938 -1.6181  0.9263  1.1138
  736MOL0     H97132   0.000   9.282   7.115 -3.1125 -2.7724  0.0289
  736MOL0     H97133  -0.164   9.326   7.091 -0.8290  0.5520  1.1267
  736MOL0     H97134   0.811   9.513   6.622 -0.4239 -1.4156  0.8655
  736MOL0     H97135   1.041   9.410   6.576  0.7105 -1.0786  1.4683
  736MOL0     H97136   1.406   9.384   6.598 -1.1656 -2.0794 -0.0295
  736MOL0     H97137   1.641   9.384   6.522 -1.0396 -2.1617 -2.0035
  736MOL0     H97138   2.946  10.140   5.763  0.1425  0.7524 -0.4762
  736MOL0     H97139   3.151  10.160   5.647  0.1969 -1.3946  0.1376
  736MOL0     H97140   3.751  10.260   5.820  5.6844  1.2604 -1.4174
  736MOL0     H97141   3.943  10.347   5.687 -0.9924 -1.2300  0.5221
  736MOL0     H97142   3.921  10.624   5.347  1.7003  0.3805 -1.8306
  736MOL0     H97143   3.844  10.492   5.260  1.0996  0.4679 -1.6793
  736MOL0     H97144   4.053  10.578   5.161  2.9611 -0.1541 -2.2712
  736MOL0     H97145   4.153  10.514   5.299 -0.1910  4.6304 -0.7986
  736MOL0     H97146   3.955  10.321   5.167 -1.3296  1.5967 -1.9214
  736MOL0     H97147   4.098  10.294   5.257 -0.7188 -1.4751 -1.2119
  736MOL0     H97148   4.128  10.250   5.008 -2.0600  0.0992  0.7948
  736MOL0     H97149   4.106  10.421   4.986  1.1386  0.0371  0.0101
  736MOL0     H97150   4.488  10.437   5.175  0.0238 -1.7675  2.1875
  736MOL0     H97151   3.654  10.450   5.374 -1.6065 -0.6066  0.6022
  736MOL0     H97152   3.487  10.396   5.512  0.6171  2.2566 -1.0518
  737MOL0     O97153   8.653   0.498   7.142 -0.2021 -0.5753  0.1891
  737MOL0     C97154   8.704   0.486   7.028  0.1183 -0.4609 -1.0451
  737MOL0     O97155   8.638   0.445   6.918 -0.5405  0.2999 -0.6562
  737MOL0     C97156   8.497   0.428   6.903  1.2481 -1.0884  0.3841
  737MOL0     C97157   8.447   0.327   6.815  0.8054  1.3543  0.6027
  737MOL0     C97158   8.314   0.321   6.783 -0.0829  0.6972 -0.4284
  737MOL0     C97159   8.216   0.409   6.816  0.7439 -0.3223  0.3110
  737MOL0     O97160   8.085   0.397   6.776 -0.5340 -0.1085  0.3775
  737MOL0     C97161   7.981   0.460   6.855  0.7019  0.3493 -0.1243
  737MOL0     C97162   7.849   0.383   6.822 -0.5420 -0.1161 -0.4591
  737MOL0     C97163   7.742   0.427   6.930  0.2933 -0.8651 -0.5057
  737MOL0     C97164   7.629   0.322   6.937  1.1127 -0.4274 -0.5676
  737MOL0     C97165   7.540   0.349   7.060 -0.2257  0.4246 -1.0290
  737MOL0     C97166   7.393   0.303   7.042  0.0547  0.4548  0.3839
  737MOL0     C97167   7.325   0.335   7.167 -0.6644 -0.1302  0.1327
  737MOL0     C97168   7.170   0.328   7.145 -0.4294 -0.0715  0.9381
  737MOL0     N97169   7.077   0.369   7.251 -0.3478  0.0287  0.1258
  737MOL0     C97170   7.057   0.295   7.363 -0.2814 -0.1378  0.4465
  737MOL0     C97171   6.974   0.364   7.445  0.2511  0.5576  0.5264
  737MOL0     C97172   6.923   0.328   7.582  0.4872 -0.2251 -0.3154
  737MOL0     C97173   6.994   0.397   7.703  1.6614  0.9743 -0.3618
  737MOL0     C97174   6.974   0.318   7.831 -0.3783 -0.3550 -0.6426
  737MOL0     C97175   7.062   0.375   7.941  0.4482  0.2284 -0.2119
  737MOL0     O97176   7.195   0.369   7.892 -0.4577 -0.2888  0.1038
  737MOL0     C97177   7.311   0.392   7.972 -0.0105 -0.6128  0.4565
  737MOL0     C97178   7.309   0.403   8.111 -0.6801  0.3638 -0.2584
  737MOL0     C97179   7.429   0.447   8.185 -0.0607 -0.2712  0.3361
  737MOL0     C97180   7.541   0.476   8.107 -0.1594 -0.2170 -0.0753
  737MOL0     C97181   7.656   0.533   8.173  0.1198 -0.1328 -0.0168
  737MOL0     O97182   7.758   0.563   8.097 -0.0783  0.4200 -0.4558
  737MOL0     C97183   7.873   0.625   8.149  0.0933 -0.5462  0.0659
  737MOL0     C97184   7.929   0.594   8.276 -0.3160  0.7670 -0.4112
  737MOL0     C97185   8.055   0.630   8.307 -0.0154  0.2270  0.4220
  737MOL0     C97186   8.139   0.687   8.214  0.2687  0.3952  0.0271
  737MOL0     O97187   8.265   0.712   8.263 -0.0575 -1.0680 -0.2408
  737MOL0     C97188   8.359   0.793   8.194 -0.0214  0.0359  0.0434
  737MOL0     C97189   8.491   0.781   8.274  0.0207  0.4517  0.7022
  737MOL0     C97190   8.607   0.810   8.177  0.1695 -1.8862 -0.4314
  737MOL0     C97191   8.741   0.770   8.233  0.4746 -0.3696 -0.1238
  737MOL0     C97192   8.861   0.835   8.157  0.4461  0.3767 -0.4136
  737MOL0     C97193   9.004   0.818   8.196 -0.4798  0.0024 -1.2037
  737MOL0     C97194   9.091   0.925   8.123  0.6481  0.0748 -0.4102
  737MOL0     C97195   9.239   0.907   8.163 -0.4507  0.4614 -0.2584
  737MOL0    Cl97196   9.327   1.055   8.134 -0.4899  0.1786  0.1222
  737MOL0     C97197   8.087   0.731   8.091  0.6335 -0.7483 -0.2336
  737MOL0     C97198   7.953   0.701   8.054  0.5118 -0.2356  0.4278
  737MOL0     O97199   7.652   0.531   8.296 -0.1985 -0.5480  0.6272
  737MOL0     C97200   7.535   0.456   7.968 -0.2306 -0.3306  0.9619
  737MOL0     C97201   7.421   0.422   7.897  0.2648  0.2806 -1.1729
  737MOL0     N97202   6.954   0.485   7.381 -0.1765 -0.4366 -0.0498
  737MOL0     N97203   7.007   0.481   7.268 -0.6713  0.0024  0.4926
  737MOL0     C97204   8.258   0.515   6.902 -0.3818  0.7766 -0.8448
  737MOL0     C97205   8.392   0.523   6.944 -0.0427  0.2546  0.2140
  737MOL0     C97206   8.851   0.508   7.026 -0.1479  0.2342 -0.3087
  737MOL0     C97207   8.932   0.526   7.144 -0.0214 -0.5327 -0.1767
  737MOL0     C97208   9.071   0.532   7.148 -0.3501  0.1378  0.2205
  737MOL0     C97209   9.142   0.531   7.029 -0.1850  0.4118  0.1383
  737MOL0     O97210   9.280   0.527   7.029  0.0088 -0.2907 -0.4511
  737MOL0     C97211   9.363   0.485   6.917  0.8677  0.3546 -0.2931
  737MOL0     C97212   9.519   0.492   6.946 -0.1467 -0.2921  0.3212
  737MOL0     C97213   9.568   0.638   6.987  0.1486 -0.4275 -0.0314
  737MOL0     C97214   9.719   0.648   7.007 -0.5535  0.6616 -0.2539
  737MOL0     C97215   9.799   0.603   6.898 -0.1911 -0.5143 -0.4687
  737MOL0     C97216   9.882   0.585   6.815 -0.4810 -0.8643  0.3147
  737MOL0     C97217   9.066   0.513   6.911 -0.7689  0.2385 -0.0556
  737MOL0     C97218   8.928   0.494   6.908  0.5407 -0.7800  0.2704
  737MOL0     H97219   8.507   0.250   6.767  2.3703  3.1012 -0.3925
  737MOL0     H97220   8.285   0.237   6.720  1.4942 -1.0962  1.1098
  737MOL0     H97221   7.986   0.565   6.825 -0.2483  0.2734 -0.5898
  737MOL0     H97222   8.013   0.463   6.959  0.6042  0.2772 -0.0915
  737MOL0     H97223   7.865   0.275   6.835 -0.3177  0.1309  1.8413
  737MOL0     H97224   7.817   0.415   6.723 -2.4826 -0.1867  0.0985
  737MOL0     H97225   7.704   0.529   6.914 -1.3837 -1.3988 -0.0939
  737MOL0     H97226   7.781   0.421   7.032 -0.4400  0.8982 -0.0767
  737MOL0     H97227   7.561   0.338   6.852  0.8644 -0.7938 -0.4409
  737MOL0     H97228   7.665   0.219   6.939  0.3365 -0.7177  2.0534
  737MOL0     H97229   7.550   0.452   7.095  2.9037 -0.3850  0.8492
  737MOL0     H97230   7.589   0.298   7.143  0.7450 -0.5601 -2.1647
  737MOL0     H97231   7.382   0.195   7.029  0.9056 -0.1266  3.6010
  737MOL0     H97232   7.348   0.355   6.957  1.1861 -0.5694 -0.8868
  737MOL0     H97233   7.353   0.266   7.247  0.6134 -0.7877 -0.8463
  737MOL0     H97234   7.360   0.433   7.203 -0.4105  0.2599 -1.1458
  737MOL0     H97235   7.140   0.227   7.113 -0.0316  0.9643 -3.3218
  737MOL0     H97236   7.140   0.389   7.059 -0.0800  0.7713  1.4148
  737MOL0     H97237   7.093   0.197   7.391 -0.2003  0.4685  2.7262
  737MOL0     H97238   6.913   0.220   7.594 -1.4047 -0.7854 -4.7627
  737MOL0     H97239   6.822   0.369   7.593  0.8608  1.5501 -2.5749
  737MOL0     H97240   6.969   0.501   7.725  0.0145  0.5700 -0.1735
  737MOL0     H97241   7.096   0.384   7.666  1.6813  0.9897 -0.3110
  737MOL0     H97242   6.870   0.314   7.862  0.1355  1.5540  1.6373
  737MOL0     H97243   7.013   0.217   7.816 -1.0091 -0.5298 -1.1296
  737MOL0     H97244   7.048   0.315   8.031 -3.0669  0.2271 -0.6389
  737MOL0     H97245   7.035   0.478   7.967  0.4052  0.2059 -0.1679
  737MOL0     H97246   7.222   0.372   8.168  0.1362 -0.4580  0.5679
  737MOL0     H97247   7.420   0.465   8.292  0.2797  0.6536  0.2185
  737MOL0     H97248   7.880   0.537   8.354  1.3227  0.5430  0.5048
  737MOL0     H97249   8.097   0.616   8.406 -2.8320  1.9829  2.0098
  737MOL0     H97250   8.327   0.898   8.194 -1.9475 -0.5183 -0.3704
  737MOL0     H97251   8.375   0.755   8.093  1.1773 -3.0836  1.2837
  737MOL0     H97252   8.503   0.682   8.318  0.9310  1.3131  2.4772
  737MOL0     H97253   8.495   0.850   8.359 -3.1558 -0.3054  1.5755
  737MOL0     H97254   8.614   0.918   8.160  0.5177 -1.7202  0.7027
  737MOL0     H97255   8.599   0.763   8.079 -1.8911  0.8971 -1.7622
  737MOL0     H97256   8.749   0.805   8.336 -0.1171  2.3661 -0.9487
  737MOL0     H97257   8.752   0.661   8.238  0.9504 -0.3994 -1.4191
  737MOL0     H97258   8.834   0.939   8.141 -2.7155 -0.3818 -0.6428
  737MOL0     H97259   8.858   0.776   8.064  1.0787 -0.6278  0.1769
  737MOL0     H97260   9.043   0.719   8.171  1.1506  0.2344  0.1974
  737MOL0     H97261   9.010   0.831   8.305 -0.2343  2.1057 -1.4258
  737MOL0     H97262   9.079   0.903   8.017  1.1159  1.7082 -0.8328
  737MOL0     H97263   9.057   1.023   8.159  1.2395 -0.4238  1.6615
  737MOL0     H97264   9.286   0.824   8.109  1.2768  0.8387  0.5862
  737MOL0     H97265   9.250   0.869   8.265 -0.8323 -0.5727 -0.5924
  737MOL0     H97266   8.149   0.774   8.012  1.1200 -0.5606  0.2364
  737MOL0     H97267   7.923   0.728   7.953 -0.1947  3.9968  1.5786
  737MOL0     H97268   7.626   0.473   7.911  0.9097  0.7781  2.9983
  737MOL0     H97269   7.417   0.412   7.788 -2.0218  1.5412 -1.2577
  737MOL0     H97270   8.187   0.586   6.943 -0.1485  1.1777 -1.1351
  737MOL0     H97271   8.425   0.606   7.005 -1.3084  1.5023 -0.7481
  737MOL0     H97272   8.881   0.536   7.239 -0.6435  2.6456 -0.7430
  737MOL0     H97273   9.117   0.544   7.246 -0.0803  1.3797 -0.0391
  737MOL0     H97274   9.334   0.528   6.821  1.5868  0.4484 -0.4673
  737MOL0     H97275   9.337   0.379   6.904 -3.9408  1.1073  1.0017
  737MOL0     H97276   9.542   0.426   7.030 -0.6564 -3.5641 -1.9608
  737MOL0     H97277   9.577   0.457   6.861 -1.6414  1.5601 -1.5613
  737MOL0     H97278   9.512   0.662   7.077 -1.4864  0.8321 -1.3246
  737MOL0     H97279   9.542   0.707   6.907 -1.3033 -1.3485 -0.3920
  737MOL0     H97280   9.737   0.753   7.032  0.7833  0.3011  0.3797
  737MOL0     H97281   9.740   0.588   7.095 -0.3418  0.9181 -0.1270
  737MOL0     H97282   9.944   0.564   6.731 -1.2726 -1.1332 -0.2100
  737MOL0     H97283   9.122   0.507   6.818 -0.5593 -0.7561  0.1233
  737MOL0     H97284   8.881   0.469   6.814 -2.3684  2.1164  0.7970
  738MOL0     O97285   8.906   8.671  11.161  0.4029 -0.4253 -0.2793
  738MOL0     C97286   8.928   8.550  11.150 -0.3120  0.4593  0.2738
  738MOL0     O97287   8.846   8.462  11.086  0.4761  0.0654 -0.0268
  738MOL0     C97288   8.730   8.515  11.034  0.6616 -0.0605 -0.7227
  738MOL0     C97289   8.610   8.520  11.110 -0.0518  0.7677  0.5548
  738MOL0     C97290   8.498   8.568  11.053  0.5133 -0.4209 -1.0311
  738MOL0     C97291   8.490   8.601  10.919 -0.3159 -0.5123 -0.2595
  738MOL0     O97292   8.366   8.624  10.852 -0.0784  0.2631  0.1992
  738MOL0     C97293   8.247   8.594  10.925  0.0497  0.0325  0.3889
  738MOL0     C97294   8.132   8.588  10.829 -0.7698 -0.5888 -0.6820
  738MOL0     C97295   7.993   8.578  10.900  0.2863  0.7672  0.8730
  738MOL0     C97296   7.982   8.446  10.985  0.0245 -0.0195 -0.1554
  738MOL0     C97297   7.846   8.390  11.004  0.0799 -0.1524 -0.4912
  738MOL0     C97298   7.746   8.494  11.055  0.5177 -0.6520 -0.1511
  738MOL0     C97299   7.603   8.435  11.059  0.5664  0.1496 -0.3981
  738MOL0     C97300   7.541   8.378  10.930  0.2360  0.2656  0.1976
  738MOL0     N97301   7.406   8.312  10.934 -0.6490  0.2169 -0.4093
  738MOL0     C97302   7.356   8.235  11.036  0.0634 -1.0294 -0.8369
  738MOL0     C97303   7.241   8.177  10.989 -0.0492  0.7526 -0.2742
  738MOL0     C97304   7.157   8.074  11.061  0.0299  0.1574  0.2569
  738MOL0     C97305   7.177   7.936  10.993 -0.5010 -0.9680  0.0571
  738MOL0     C97306   7.120   7.826  11.075  0.1671 -0.0449 -0.1299
  738MOL0     C97307   6.970   7.812  11.056 -0.7567  0.2031  0.5670
  738MOL0     O97308   6.937   7.781  10.923  0.2157 -0.2152 -0.2384
  738MOL0     C97309   6.813   7.796  10.869  0.6671  0.1921 -0.0744
  738MOL0     C97310   6.805   7.817  10.737 -0.0593 -0.3874  0.1470
  738MOL0     C97311   6.677   7.831  10.678  0.2834  0.3219 -0.4711
  738MOL0     C97312   6.556   7.833  10.749  0.9157 -0.4318 -0.2068
  738MOL0     C97313   6.424   7.852  10.682  0.1601 -0.5088 -0.9318
  738MOL0     O97314   6.439   7.860  10.548  0.1291  0.2868  0.3239
  738MOL0     C97315   6.329   7.910  10.489  0.0430 -0.5675  1.3730
  738MOL0     C97316   6.310   8.052  10.482 -0.0815  0.2249  0.7321
  738MOL0     C97317   6.201   8.111  10.422 -0.4840  0.0464  0.2621
  738MOL0     C97318   6.104   8.026  10.356  0.5756 -0.3033  0.3041
  738MOL0     O97319   5.997   8.075  10.276  0.2848 -0.0901  0.9242
  738MOL0     C97320   5.989   8.215  10.234  0.7344  0.2922 -0.3049
  738MOL0     C97321   5.933   8.214  10.099 -0.2610  0.0736 -0.2455
  738MOL0     C97322   5.784   8.192  10.081  0.0108  0.6944 -0.1709
  738MOL0     C97323   5.753   8.160   9.934 -1.0101 -0.7973 -0.6221
  738MOL0     C97324   5.646   8.062   9.914  0.1008 -0.2118  1.1419
  738MOL0     C97325   5.606   8.045   9.764  0.6448 -1.1825  0.4494
  738MOL0     C97326   5.500   7.944   9.747 -0.2145  0.9253 -0.0572
  738MOL0     C97327   5.456   7.940   9.603  0.2259  0.5349 -0.1783
  738MOL0    Cl97328   5.572   7.873   9.496 -0.0687 -0.1952 -0.1509
  738MOL0     C97329   6.109   7.893  10.377 -0.6089 -0.3513  0.8477
  738MOL0     C97330   6.222   7.837  10.443  0.8236  0.5142 -1.0349
  738MOL0     O97331   6.316   7.851  10.745 -0.3177  0.0105  0.0239
  738MOL0     C97332   6.565   7.825  10.888  0.1559 -0.0393  0.1955
  738MOL0     C97333   6.692   7.800  10.948 -0.3235 -0.5844 -0.5566
  738MOL0     N97334   7.217   8.219  10.858 -0.8118 -0.6486 -0.0941
  738MOL0     N97335   7.320   8.305  10.828 -0.2797  0.2316  0.3330
  738MOL0     C97336   8.607   8.603  10.841 -0.4552 -0.0410  0.3019
  738MOL0     C97337   8.728   8.562  10.897  0.1952  0.0508 -0.2736
  738MOL0     C97338   9.052   8.497  11.209 -0.0441  0.2887  0.5880
  738MOL0     C97339   9.136   8.574  11.297 -0.0312 -0.0658 -0.8727
  738MOL0     C97340   9.251   8.522  11.351  0.1571  0.2817  0.6000
  738MOL0     C97341   9.281   8.386  11.337 -0.0502  0.3990 -1.3584
  738MOL0     O97342   9.396   8.318  11.386 -0.2805 -0.2345 -0.7265
  738MOL0     C97343   9.472   8.405  11.474 -0.4500  0.9404 -0.0656
  738MOL0     C97344   9.590   8.317  11.506  0.1616  0.6067 -0.4566
  738MOL0     C97345   9.669   8.394  11.625 -0.6881  0.3903  0.1893
  738MOL0     C97346   9.784   8.292  11.660  0.0700  0.6411  0.6433
  738MOL0     C97347   9.887   8.339  11.753 -0.2664 -0.5414  0.2054
  738MOL0     C97348   9.978   8.373  11.835  0.1718 -0.2880  0.2077
  738MOL0     C97349   9.191   8.299  11.266  0.6231  0.4043 -0.5385
  738MOL0     C97350   9.082   8.360  11.197 -0.6723  0.2563 -0.6987
  738MOL0     H97351   8.611   8.506  11.218 -3.1145 -0.6296  0.5048
  738MOL0     H97352   8.413   8.560  11.121  2.3322 -1.0612  1.3023
  738MOL0     H97353   8.228   8.672  10.999  1.4842  0.8549 -0.0652
  738MOL0     H97354   8.255   8.497  10.975  0.5779  1.6458  3.6786
  738MOL0     H97355   8.142   8.506  10.757 -0.4071 -0.3370 -0.9220
  738MOL0     H97356   8.134   8.684  10.776 -2.5771  0.6475  1.3142
  738MOL0     H97357   7.917   8.583  10.821  0.0567 -0.9153  0.9425
  738MOL0     H97358   7.972   8.663  10.965 -2.1736  0.4092  0.6679
  738MOL0     H97359   8.038   8.371  10.930 -0.5214  1.0964 -2.3490
  738MOL0     H97360   8.029   8.473  11.080 -2.2056 -0.5116  1.1535
  738MOL0     H97361   7.850   8.308  11.076 -0.9070  0.4205  0.2445
  738MOL0     H97362   7.821   8.348  10.906  0.5017  0.6842 -0.9682
  738MOL0     H97363   7.743   8.580  10.988  1.6134 -0.1702  0.3863
  738MOL0     H97364   7.773   8.524  11.157 -1.3489 -0.9879  0.4758
  738MOL0     H97365   7.602   8.360  11.138  1.6171  0.6559  0.1196
  738MOL0     H97366   7.529   8.511  11.089  1.0437  0.1969  0.7337
  738MOL0     H97367   7.608   8.299  10.894  1.2559  0.5095  1.4898
  738MOL0     H97368   7.537   8.457  10.854  1.5130 -0.5545 -0.7624
  738MOL0     H97369   7.403   8.228  11.134  0.1036  1.1711 -0.6442
  738MOL0     H97370   7.050   8.095  11.060 -0.4552 -2.1083 -0.5610
  738MOL0     H97371   7.183   8.072  11.167 -1.1951  0.2590  0.5622
  738MOL0     H97372   7.282   7.909  10.978 -0.7709 -2.8508  1.2407
  738MOL0     H97373   7.123   7.934  10.898 -0.2166 -0.0977 -0.1275
  738MOL0     H97374   7.176   7.735  11.055 -0.4570 -0.4612 -0.0045
  738MOL0     H97375   7.129   7.854  11.181 -1.2631 -0.3805  0.0992
  738MOL0     H97376   6.925   7.909  11.080  0.6427  1.4801 -1.6513
  738MOL0     H97377   6.930   7.731  11.118 -1.0831 -1.8524 -2.1129
  738MOL0     H97378   6.891   7.824  10.672 -0.2112  0.0544 -0.0123
  738MOL0     H97379   6.686   7.846  10.571 -1.7919 -1.5716 -0.9925
  738MOL0     H97380   6.381   8.108  10.541  0.3503 -0.7312  1.1382
  738MOL0     H97381   6.189   8.218  10.411  1.6082  0.1543 -1.8492
  738MOL0     H97382   6.087   8.259  10.218  0.3877  0.8837 -0.8121
  738MOL0     H97383   5.926   8.267  10.307  0.1119 -0.5075 -0.2519
  738MOL0     H97384   5.978   8.136  10.037 -0.5642  0.3078 -0.7659
  738MOL0     H97385   5.942   8.317  10.063  2.6313  0.6716  1.8476
  738MOL0     H97386   5.720   8.268  10.126 -2.6111 -0.8272 -1.1234
  738MOL0     H97387   5.769   8.094  10.128 -0.0414 -0.0800 -1.7505
  738MOL0     H97388   5.733   8.254   9.883 -3.2040 -1.1418 -0.5236
  738MOL0     H97389   5.833   8.105   9.885 -0.4075 -1.4903  1.0482
  738MOL0     H97390   5.564   8.088   9.983 -0.2180 -2.8773  1.8725
  738MOL0     H97391   5.684   7.968   9.955  2.1286 -0.4543 -1.0592
  738MOL0     H97392   5.695   8.026   9.704  2.5731  0.2671  2.6916
  738MOL0     H97393   5.553   8.136   9.735  1.8413 -0.2879  0.9959
  738MOL0     H97394   5.543   7.847   9.772  0.6817  1.8247  2.1643
  738MOL0     H97395   5.412   7.963   9.808  0.5496 -0.1329  1.4252
  738MOL0     H97396   5.421   8.037   9.568 -1.4057  0.0484  0.0188
  738MOL0     H97397   5.374   7.868   9.604 -0.0466  0.8424 -0.1376
  738MOL0     H97398   6.027   7.830  10.341 -1.7410  0.3641  2.0682
  738MOL0     H97399   6.228   7.730  10.457  0.1444  0.5780 -0.0895
  738MOL0     H97400   6.479   7.815  10.953 -0.1569 -1.0739 -0.3485
  738MOL0     H97401   6.704   7.788  11.055  2.1249  0.2040 -0.6900
  738MOL0     H97402   8.615   8.639  10.739  1.0441  1.7019  0.9819
  738MOL0     H97403   8.823   8.566  10.844  0.0352 -2.2248 -0.8305
  738MOL0     H97404   9.115   8.674  11.332 -4.0065 -0.9014 -0.4933
  738MOL0     H97405   9.314   8.599  11.394  1.3745  0.8616 -2.0426
  738MOL0     H97406   9.405   8.425  11.558  1.3507 -0.9531  1.9245
  738MOL0     H97407   9.500   8.493  11.415 -0.5692 -0.4557 -2.3211
  738MOL0     H97408   9.557   8.218  11.539 -0.3117  0.8349 -0.2360
  738MOL0     H97409   9.669   8.308  11.431  1.5094  1.3596  0.8266
  738MOL0     H97410   9.610   8.412  11.715 -1.0129 -0.5292  0.1659
  738MOL0     H97411   9.700   8.492  11.585 -0.8772 -0.4810 -2.2933
  738MOL0     H97412   9.724   8.213  11.706  1.7382 -1.8202 -1.1126
  738MOL0     H97413   9.826   8.247  11.569 -2.2491 -2.5082  0.9624
  738MOL0     H97414  10.049   8.405  11.909  0.3859  0.0594 -0.1436
  738MOL0     H97415   9.218   8.194  11.263  0.3304  0.3434 -1.1681
  738MOL0     H97416   9.024   8.292  11.136  0.1358  1.8101 -3.3603
  739MOL0     O97417   8.712  10.672   2.465  0.7726 -0.1650  0.8274
  739MOL0     C97418   8.765  10.769   2.409  0.3307 -1.0448 -0.2265
  739MOL0     O97419   8.703  10.857   2.327  0.2546  0.2225 -0.0425
  739MOL0     C97420   8.568  10.856   2.332  0.6631  0.4500 -0.1198
  739MOL0     C97421   8.504  10.957   2.393  0.0886  0.4022 -0.3083
  739MOL0     C97422   8.364  10.973   2.386  0.1702 -0.0020 -0.0124
  739MOL0     C97423   8.287  10.863   2.334 -0.6803  0.5061 -0.0832
  739MOL0     O97424   8.154  10.868   2.350  0.0465  0.0180 -0.0200
  739MOL0     C97425   8.115  10.865   2.485  0.2183  0.8241 -0.0333
  739MOL0     C97426   7.961  10.865   2.497 -0.8584 -0.5063 -0.1459
  739MOL0     C97427   7.894  10.992   2.436 -0.8045  0.0887  0.0890
  739MOL0     C97428   7.958  11.139   2.469  0.8079 -0.0254 -0.5277
  739MOL0     C97429   7.905  11.253   2.377  0.1395  0.6982  0.3507
  739MOL0     C97430   7.754  11.246   2.373 -0.7943  0.1661  0.0876
  739MOL0     C97431   7.706  11.280   2.515 -0.5428  0.1042 -0.5940
  739MOL0     C97432   7.551  11.316   2.536 -0.6784 -0.8091 -0.3393
  739MOL0     N97433   7.470  11.195   2.499  0.0386  0.0577  0.2754
  739MOL0     C97434   7.427  11.103   2.594  0.3471 -1.0963 -0.3284
  739MOL0     C97435   7.368  11.014   2.514 -0.4956 -0.0128 -0.2218
  739MOL0     C97436   7.326  10.867   2.532  0.1335 -0.0564 -0.0972
  739MOL0     C97437   7.173  10.859   2.517  0.5736  0.5714  0.7009
  739MOL0     C97438   7.126  10.715   2.537  0.3708  0.7353 -1.1399
  739MOL0     C97439   6.984  10.678   2.509 -0.1501 -0.5415  0.6507
  739MOL0     O97440   6.968  10.649   2.366 -0.7525 -0.1608 -0.4340
  739MOL0     C97441   6.840  10.637   2.326  0.2002 -0.8201 -0.3933
  739MOL0     C97442   6.825  10.572   2.199  0.6717 -0.3634  0.7030
  739MOL0     C97443   6.690  10.540   2.153 -0.1699 -0.3572  0.0990
  739MOL0     C97444   6.576  10.572   2.226 -0.3446 -0.2018 -0.3039
  739MOL0     C97445   6.450  10.511   2.183 -0.4566 -0.2595 -0.9007
  739MOL0     O97446   6.345  10.511   2.272  0.1611 -0.0581 -1.1988
  739MOL0     C97447   6.232  10.429   2.246  0.3128  0.6086 -0.2573
  739MOL0     C97448   6.249  10.297   2.208  0.2908 -1.0078 -0.2144
  739MOL0     C97449   6.142  10.215   2.178 -0.1910  0.4546  0.2598
  739MOL0     C97450   6.011  10.267   2.177 -0.0687  0.4341 -0.8665
  739MOL0     O97451   5.895  10.193   2.144 -0.6215  0.1901  0.8516
  739MOL0     C97452   5.900  10.052   2.149 -0.4921 -0.4603  0.2736
  739MOL0     C97453   5.777  10.008   2.226  0.1032 -0.5381 -0.1128
  739MOL0     C97454   5.634  10.041   2.180 -0.1329  0.6712  0.5451
  739MOL0     C97455   5.521   9.934   2.212  0.1462  0.6524 -0.2401
  739MOL0     C97456   5.385  10.005   2.237  0.2940  0.1803 -0.5956
  739MOL0     C97457   5.293   9.923   2.334 -0.3829  0.7601 -0.1888
  739MOL0     C97458   5.140   9.963   2.342 -0.0372  0.8407  0.6255
  739MOL0     C97459   5.051   9.869   2.420  0.4283  1.0738 -0.6799
  739MOL0    Cl97460   4.871   9.914   2.423 -0.2136  0.0119  0.4843
  739MOL0     C97461   5.998  10.401   2.211 -0.9082 -0.3213  0.1769
  739MOL0     C97462   6.100  10.479   2.259 -1.0194  0.9166 -0.8097
  739MOL0     O97463   6.441  10.472   2.067 -0.2335 -0.0773 -0.5718
  739MOL0     C97464   6.597  10.645   2.340  0.0751  0.1292  0.4850
  739MOL0     C97465   6.721  10.680   2.397  0.0081 -0.7940  0.0859
  739MOL0     N97466   7.356  11.062   2.384  0.3405 -0.0750  0.0783
  739MOL0     N97467   7.423  11.172   2.377  0.6542 -0.1664  0.6297
  739MOL0     C97468   8.354  10.756   2.278 -0.2281 -0.4988 -1.0016
  739MOL0     C97469   8.490  10.757   2.271  0.0738 -0.2631 -1.1589
  739MOL0     C97470   8.906  10.793   2.424 -1.0455  0.4802  0.2403
  739MOL0     C97471   8.958  10.921   2.393  0.1081 -0.6834  0.0202
  739MOL0     C97472   9.089  10.962   2.433 -0.6405  0.5011 -1.3473
  739MOL0     C97473   9.171  10.871   2.502  0.7036 -0.4477  0.5631
  739MOL0     O97474   9.298  10.911   2.513  0.5826  0.0151  0.1063
  739MOL0     C97475   9.399  10.821   2.556  0.3660 -0.0992 -0.4672
  739MOL0     C97476   9.517  10.891   2.617 -0.5315  0.5970 -0.3685
  739MOL0     C97477   9.620  10.955   2.518  0.0560 -0.1118 -0.4345
  739MOL0     C97478   9.718  10.840   2.460  0.0421  0.4469 -0.0682
  739MOL0     C97479   9.819  10.908   2.377 -0.0169  0.6102  0.7845
  739MOL0     C97480   9.892  10.957   2.291  0.3349  0.1345  0.6668
  739MOL0     C97481   9.128  10.742   2.521  0.4704  0.4823 -0.2572
  739MOL0     C97482   8.998  10.710   2.499 -0.0949 -0.1015  0.8030
  739MOL0     H97483   8.553  11.039   2.444  3.5284 -0.3325 -2.1116
  739MOL0     H97484   8.318  11.066   2.418 -0.9243 -0.8508  0.9817
  739MOL0     H97485   8.164  10.939   2.548 -0.1113  2.7143 -1.8839
  739MOL0     H97486   8.152  10.770   2.525  1.1043  1.6401  1.1246
  739MOL0     H97487   7.947  10.859   2.605  3.2157 -2.9419  0.4211
  739MOL0     H97488   7.920  10.779   2.442  0.1042  1.7906 -5.0330
  739MOL0     H97489   7.788  11.000   2.460 -1.0933 -1.1007 -0.7481
  739MOL0     H97490   7.902  10.972   2.329 -0.6483 -0.7811  0.2586
  739MOL0     H97491   7.943  11.175   2.571 -0.9728  2.5073 -1.5744
  739MOL0     H97492   8.066  11.127   2.459  0.8484 -0.9566  0.7310
  739MOL0     H97493   7.937  11.220   2.278 -0.6068  0.8058  0.0659
  739MOL0     H97494   7.939  11.353   2.406 -0.0392  0.4486  1.4886
  739MOL0     H97495   7.718  11.152   2.330  0.2899 -0.0017 -0.4759
  739MOL0     H97496   7.715  11.324   2.308  0.3357  0.2575 -0.5049
  739MOL0     H97497   7.735  11.201   2.584  0.7427  0.7130 -0.4075
  739MOL0     H97498   7.764  11.371   2.535 -0.6369  1.0472 -3.9671
  739MOL0     H97499   7.527  11.396   2.465 -0.0079 -1.5008 -1.3740
  739MOL0     H97500   7.532  11.352   2.638 -1.5959 -2.1957  0.0090
  739MOL0     H97501   7.438  11.096   2.702 -0.0762  1.7694 -0.0144
  739MOL0     H97502   7.353  10.843   2.635 -2.8134 -0.2900  0.7252
  739MOL0     H97503   7.367  10.807   2.450 -0.7635 -0.9795  0.1103
  739MOL0     H97504   7.152  10.900   2.418  0.3473 -1.8958 -0.3635
  739MOL0     H97505   7.122  10.923   2.589 -0.4166  2.3790 -1.5128
  739MOL0     H97506   7.183  10.649   2.471 -1.2808 -0.6969 -1.1990
  739MOL0     H97507   7.144  10.686   2.641 -1.2305 -0.9097 -1.2797
  739MOL0     H97508   6.912  10.756   2.534 -2.7494 -1.3027 -3.3501
  739MOL0     H97509   6.952  10.598   2.576 -2.7725 -1.2260 -1.2385
  739MOL0     H97510   6.912  10.538   2.143 -0.0722 -2.6057  0.8134
  739MOL0     H97511   6.681  10.481   2.062  0.5964 -2.8239  1.5144
  739MOL0     H97512   6.344  10.246   2.215 -0.5385 -2.4473  1.3351
  739MOL0     H97513   6.148  10.112   2.147  0.1647  0.3461  0.6870
  739MOL0     H97514   5.992  10.014   2.193  0.7837  0.7163 -1.2692
  739MOL0     H97515   5.915  10.011   2.049  1.8450 -1.8102  1.0857
  739MOL0     H97516   5.796  10.032   2.331  0.4860 -3.3002  0.5234
  739MOL0     H97517   5.784   9.900   2.236 -1.9330 -0.7440 -0.5110
  739MOL0     H97518   5.640  10.042   2.071  1.3912 -1.5239  0.5217
  739MOL0     H97519   5.605  10.139   2.219  1.8114  2.1556 -1.4886
  739MOL0     H97520   5.512   9.864   2.129 -2.7944 -0.5797  0.9956
  739MOL0     H97521   5.540   9.881   2.306 -1.1244  1.0246  0.2431
  739MOL0     H97522   5.333  10.015   2.141  1.9341  0.5674 -1.4747
  739MOL0     H97523   5.394  10.107   2.275  0.0414 -0.7726  2.2044
  739MOL0     H97524   5.328   9.919   2.438  0.0024  0.2824 -0.3323
  739MOL0     H97525   5.299   9.820   2.298  1.7220  0.0856  1.8044
  739MOL0     H97526   5.124  10.059   2.392 -1.0669  0.8137  0.3851
  739MOL0     H97527   5.104   9.969   2.239  3.0305 -1.1779 -0.6994
  739MOL0     H97528   5.070   9.875   2.527  0.6890  0.5052 -0.6895
  739MOL0     H97529   5.063   9.768   2.379  0.0894  0.8522 -0.2348
  739MOL0     H97530   5.896  10.438   2.204 -1.3420 -1.2204  1.3204
  739MOL0     H97531   6.085  10.583   2.287  1.0773  1.5514 -1.7971
  739MOL0     H97532   6.505  10.661   2.394 -0.3705 -1.1335  0.1463
  739MOL0     H97533   6.722  10.746   2.483  0.7660  1.6677 -1.6870
  739MOL0     H97534   8.304  10.661   2.261  2.1056 -2.1142  0.6576
  739MOL0     H97535   8.544  10.671   2.232  0.3974 -1.9576  2.5482
  739MOL0     H97536   8.894  10.991   2.341  0.2618 -2.0350 -2.0741
  739MOL0     H97537   9.123  11.064   2.418  1.4727 -0.1496 -1.3881
  739MOL0     H97538   9.437  10.755   2.477  2.3969 -0.2439  0.5640
  739MOL0     H97539   9.363  10.748   2.629  0.7715 -2.0560 -2.1356
  739MOL0     H97540   9.483  10.964   2.691  1.7331 -2.0056  3.5667
  739MOL0     H97541   9.571  10.817   2.676 -2.1767 -2.7925 -2.7752
  739MOL0     H97542   9.670  11.033   2.575 -0.8883  0.8642 -0.9223
  739MOL0     H97543   9.558  11.010   2.447 -2.9116 -0.7223  1.5303
  739MOL0     H97544   9.763  10.772   2.533 -2.0357 -0.7423  0.1708
  739MOL0     H97545   9.659  10.770   2.401 -0.3240 -0.0020  0.8234
  739MOL0     H97546   9.956  11.008   2.221  3.0205 -5.8654 -1.9628
  739MOL0     H97547   9.184  10.666   2.573  2.7427  2.0613 -0.2547
  739MOL0     H97548   8.959  10.612   2.524 -3.2791 -0.8028 -5.0497
  740MOL0     O97549  10.028   8.907   4.871 -0.7796 -1.1753  0.1420
  740MOL0     C97550  10.031   9.030   4.859  0.3680  0.7716  0.6833
  740MOL0     O97551   9.932   9.095   4.794  0.4354 -0.6588  0.4343
  740MOL0     C97552   9.833   9.029   4.718 -0.3446 -0.4977  0.7122
  740MOL0     C97553   9.850   8.913   4.645 -0.9833 -0.0048  0.3975
  740MOL0     C97554   9.730   8.852   4.591 -0.7767  0.2099  1.1875
  740MOL0     C97555   9.602   8.903   4.614 -1.3565  0.0385  0.9694
  740MOL0     O97556   9.486   8.844   4.572 -0.0532  0.8729  0.3823
  740MOL0     C97557   9.493   8.704   4.558 -0.1904 -0.6735 -0.2317
  740MOL0     C97558   9.355   8.642   4.550 -0.0517  0.1860 -0.4193
  740MOL0     C97559   9.270   8.683   4.422 -0.0206 -0.2270  0.1823
  740MOL0     C97560   9.124   8.638   4.413 -0.7237 -0.5985 -0.3455
  740MOL0     C97561   9.057   8.702   4.290  0.3987 -0.5615 -1.0269
  740MOL0     C97562   8.912   8.646   4.271  0.3793  0.6558 -0.7263
  740MOL0     C97563   8.835   8.734   4.168 -0.5623  0.0161  0.2670
  740MOL0     C97564   8.689   8.729   4.182  0.6323 -0.2616 -0.6371
  740MOL0     N97565   8.617   8.753   4.055  0.3107  0.5554 -0.1094
  740MOL0     C97566   8.481   8.761   4.048 -0.6008  0.5091  0.3302
  740MOL0     C97567   8.452   8.770   3.920 -0.1326  0.4125  0.4692
  740MOL0     C97568   8.319   8.802   3.855 -0.3814 -0.0917  0.9589
  740MOL0     C97569   8.203   8.775   3.954 -0.2682  0.5798  0.6354
  740MOL0     C97570   8.082   8.842   3.891  1.1378 -0.7250 -0.5961
  740MOL0     C97571   7.957   8.817   3.976  0.5274 -0.4160  0.6223
  740MOL0     O97572   7.851   8.882   3.909  0.5469  0.5262  0.6549
  740MOL0     C97573   7.727   8.836   3.936 -0.1847 -0.1605  0.7656
  740MOL0     C97574   7.690   8.770   4.052 -0.0567 -0.6071  0.4277
  740MOL0     C97575   7.558   8.729   4.066 -0.0872 -0.7545  0.6933
  740MOL0     C97576   7.459   8.761   3.971 -0.5118  0.1817 -0.3877
  740MOL0     C97577   7.317   8.709   3.995 -0.3641 -0.8414  0.9616
  740MOL0     O97578   7.302   8.598   4.074 -0.8697 -0.2943  0.2672
  740MOL0     C97579   7.179   8.545   4.073 -0.0772  0.5738 -0.1616
  740MOL0     C97580   7.090   8.573   4.176  0.0974  0.2788  0.3746
  740MOL0     C97581   6.962   8.505   4.175  0.6790  0.5876 -0.7967
  740MOL0     C97582   6.934   8.409   4.076  1.2186 -0.1732  0.3875
  740MOL0     O97583   6.821   8.332   4.074  0.0102  0.7457  0.6904
  740MOL0     C97584   6.697   8.378   4.131  0.5201 -0.0948  0.2005
  740MOL0     C97585   6.575   8.301   4.073 -0.5206  0.0800 -0.6308
  740MOL0     C97586   6.439   8.352   4.118  0.8377  1.0706  0.5237
  740MOL0     C97587   6.326   8.261   4.055  0.5808  0.1279  0.0394
  740MOL0     C97588   6.191   8.310   4.109  0.0333  0.6479  0.4116
  740MOL0     C97589   6.077   8.210   4.070  0.4194  0.0752  0.0026
  740MOL0     C97590   5.945   8.277   4.100 -0.0468 -0.7959  0.3911
  740MOL0     C97591   5.839   8.206   4.008 -0.5260 -0.1153 -0.0076
  740MOL0    Cl97592   5.809   8.039   4.054 -0.0789 -0.5371 -0.0223
  740MOL0     C97593   7.020   8.390   3.976  0.3553  0.8273 -0.0711
  740MOL0     C97594   7.145   8.461   3.975  0.3318  0.8233 -0.3242
  740MOL0     O97595   7.234   8.767   3.926  0.1604 -0.4424 -0.2272
  740MOL0     C97596   7.500   8.820   3.852 -0.0420  0.3582  0.1613
  740MOL0     C97597   7.632   8.855   3.837  0.8244  0.7726  0.1778
  740MOL0     N97598   8.573   8.770   3.853 -0.1936 -0.2908 -0.1896
  740MOL0     N97599   8.666   8.750   3.932  0.3288 -0.6246 -0.1550
  740MOL0     C97600   9.597   9.030   4.675 -0.4057  0.0528 -0.1864
  740MOL0     C97601   9.708   9.099   4.720 -0.7164  0.5010  0.6454
  740MOL0     C97602  10.147   9.101   4.908  0.5422 -0.0190 -1.2655
  740MOL0     C97603  10.153   9.236   4.905 -0.3967 -0.4322 -0.0725
  740MOL0     C97604  10.263   9.308   4.960  0.7265  0.1506 -0.3594
  740MOL0     C97605  10.365   9.240   5.020  0.1566  0.1644 -0.2040
  740MOL0     O97606  10.463   9.303   5.084  0.7549  0.1278  0.0984
  740MOL0     C97607  10.519   9.411   5.011 -0.6802  0.0529  0.6771
  740MOL0     C97608  10.653   9.424   5.086 -0.2351 -0.8290  0.5787
  740MOL0     C97609  10.656   9.518   5.201  0.5248 -0.3338 -0.3038
  740MOL0     C97610  10.798   9.556   5.260  0.4111  0.4716 -0.3979
  740MOL0     C97611  10.887   9.629   5.160  0.4735  0.0436 -0.8234
  740MOL0     C97612  10.958   9.694   5.087 -0.0282  0.7074 -0.2034
  740MOL0     C97613  10.364   9.100   5.019  0.2074  0.5972 -0.5131
  740MOL0     C97614  10.250   9.031   4.971 -0.0916  0.2434 -1.0809
  740MOL0     H97615   9.947   8.867   4.634 -1.6422 -2.2857  3.0752
  740MOL0     H97616   9.741   8.768   4.523  1.9666  0.5237  1.1339
  740MOL0     H97617   9.552   8.653   4.635  1.1959 -0.9275 -1.4124
  740MOL0     H97618   9.527   8.675   4.458 -0.1078 -0.7270 -0.1886
  740MOL0     H97619   9.300   8.656   4.644  0.1161  1.9807 -0.5454
  740MOL0     H97620   9.363   8.534   4.540  0.7011  0.0453  1.4021
  740MOL0     H97621   9.323   8.633   4.340 -0.3233 -0.4576  0.1252
  740MOL0     H97622   9.266   8.788   4.392 -0.9955 -0.4716 -0.6288
  740MOL0     H97623   9.116   8.531   4.393 -2.7854 -0.4067 -0.7635
  740MOL0     H97624   9.061   8.673   4.496  1.3655  2.5938  0.0663
  740MOL0     H97625   9.113   8.693   4.197  1.9256 -1.3020 -0.0776
  740MOL0     H97626   9.052   8.808   4.315  1.2359 -0.4887 -1.1445
  740MOL0     H97627   8.854   8.632   4.363  1.9908 -0.8822  0.1102
  740MOL0     H97628   8.936   8.546   4.233  1.1913  0.2087  0.8774
  740MOL0     H97629   8.866   8.838   4.177  0.5003 -0.1454 -1.1585
  740MOL0     H97630   8.873   8.699   4.071  0.2775  0.3869  0.4534
  740MOL0     H97631   8.665   8.808   4.255 -1.5398 -1.1191 -0.3393
  740MOL0     H97632   8.662   8.631   4.222  0.2784  0.1816  0.2455
  740MOL0     H97633   8.410   8.773   4.129 -2.3490 -1.9806 -0.7080
  740MOL0     H97634   8.310   8.751   3.759  1.6662 -2.0632  1.7181
  740MOL0     H97635   8.323   8.910   3.838 -0.7515  0.0430  1.6982
  740MOL0     H97636   8.219   8.822   4.052  2.4750  0.1839  0.4643
  740MOL0     H97637   8.197   8.665   3.959 -1.1870  0.2840 -3.6025
  740MOL0     H97638   8.092   8.950   3.877  0.6172 -0.1987  2.3586
  740MOL0     H97639   8.061   8.803   3.791 -3.1893  0.2890 -0.2850
  740MOL0     H97640   7.969   8.864   4.074 -0.6256 -1.6282  1.3902
  740MOL0     H97641   7.937   8.710   3.988  1.3032 -0.5416  0.8123
  740MOL0     H97642   7.755   8.742   4.134 -3.3500 -1.7184  2.8795
  740MOL0     H97643   7.532   8.667   4.151 -0.8602  1.3487  2.0721
  740MOL0     H97644   7.125   8.632   4.260  0.7901 -0.7955  0.8671
  740MOL0     H97645   6.888   8.523   4.253  0.4086  1.8337 -1.3284
  740MOL0     H97646   6.674   8.484   4.118  0.2571 -0.0960  0.6654
  740MOL0     H97647   6.703   8.363   4.239  0.2286  1.1900  0.4062
  740MOL0     H97648   6.587   8.194   4.090  1.6965  0.4528  0.4751
  740MOL0     H97649   6.584   8.299   3.964  0.4177 -0.2012 -0.5581
  740MOL0     H97650   6.420   8.459   4.110  0.6656  1.2048  2.2193
  740MOL0     H97651   6.435   8.336   4.227 -4.5034 -0.4691  0.3849
  740MOL0     H97652   6.323   8.270   3.946 -1.0736 -0.8112 -0.0234
  740MOL0     H97653   6.342   8.157   4.083 -0.0259  1.1329  5.0324
  740MOL0     H97654   6.180   8.405   4.056  1.4707  0.0803 -0.9799
  740MOL0     H97655   6.195   8.325   4.217  3.0770  1.2107  0.3186
  740MOL0     H97656   6.076   8.120   4.132 -2.9075  0.8607  1.3209
  740MOL0     H97657   6.072   8.181   3.965  2.2080 -4.1853  0.9016
  740MOL0     H97658   5.916   8.263   4.204  0.9313  1.0153  0.9356
  740MOL0     H97659   5.944   8.386   4.088 -1.3605 -0.7320  0.9300
  740MOL0     H97660   5.859   8.212   3.901 -2.7365 -0.1274 -0.4736
  740MOL0     H97661   5.742   8.254   4.022 -0.5676  0.4018 -1.8282
  740MOL0     H97662   6.990   8.326   3.894 -1.9803  1.3340  0.3117
  740MOL0     H97663   7.214   8.440   3.894  1.9859  0.2624  1.1602
  740MOL0     H97664   7.441   8.842   3.764  1.6547  3.9335 -0.2760
  740MOL0     H97665   7.672   8.895   3.744  2.3838 -1.0664 -0.0019
  740MOL0     H97666   9.501   9.070   4.704 -0.2007  0.8712 -0.5937
  740MOL0     H97667   9.705   9.195   4.769 -0.7167 -0.2021  2.0758
  740MOL0     H97668  10.078   9.300   4.861 -2.1357 -1.1534  1.6706
  740MOL0     H97669  10.257   9.415   4.943 -1.0669  0.5097  1.9337
  740MOL0     H97670  10.453   9.496   5.029 -1.7836 -0.8997  1.2600
  740MOL0     H97671  10.530   9.395   4.904 -1.0963 -0.6345  0.7295
  740MOL0     H97672  10.682   9.325   5.125  1.0877 -0.3889  0.7680
  740MOL0     H97673  10.718   9.466   5.008 -1.8983  0.2466 -0.2785
  740MOL0     H97674  10.598   9.467   5.279  0.7849 -1.0883 -0.5959
  740MOL0     H97675  10.599   9.606   5.171  0.6482 -0.3889 -0.6956
  740MOL0     H97676  10.771   9.608   5.353  0.7379 -0.7161  0.3921
  740MOL0     H97677  10.849   9.473   5.310  1.8207  1.9931  0.7829
  740MOL0     H97678  11.025   9.754   5.030 -1.7223  0.7105 -2.3094
  740MOL0     H97679  10.449   9.049   5.065 -2.6187 -3.0973  1.1428
  740MOL0     H97680  10.243   8.925   4.992 -0.9609  0.6834  1.1452
  741MOL0     O97681   3.225   2.371   9.959  0.1780  0.1628 -0.1028
  741MOL0     C97682   3.284   2.343   9.856  0.1991  0.4167  0.5684
  741MOL0     O97683   3.264   2.238   9.778  0.1494  0.1246  0.0272
  741MOL0     C97684   3.172   2.146   9.820  0.0452  0.0586 -0.0843
  741MOL0     C97685   3.225   2.014   9.828  0.4639 -1.2310  0.7947
  741MOL0     C97686   3.144   1.909   9.855 -0.6534  0.2264  0.2255
  741MOL0     C97687   3.007   1.929   9.883 -0.5407  0.5919  0.7515
  741MOL0     O97688   2.929   1.820   9.914 -0.2183 -0.7459  0.1109
  741MOL0     C97689   2.954   1.770  10.041 -0.5863  0.3842  0.4323
  741MOL0     C97690   2.866   1.641  10.045 -0.5042 -0.5395 -0.0883
  741MOL0     C97691   2.719   1.663   9.987 -0.3870  0.7805 -0.4218
  741MOL0     C97692   2.634   1.538  10.022 -0.5660  0.4315  0.0937
  741MOL0     C97693   2.489   1.536   9.975 -0.2370 -0.6645  0.0515
  741MOL0     C97694   2.426   1.397   9.987 -0.1544  0.2611 -0.4585
  741MOL0     C97695   2.278   1.397   9.942 -0.2181  0.2280 -0.1680
  741MOL0     C97696   2.245   1.461   9.809 -0.0342  0.5236 -0.0195
  741MOL0     N97697   2.248   1.606   9.797 -0.3390  0.0411 -0.3838
  741MOL0     C97698   2.175   1.686   9.883 -0.4637  0.3851  0.3422
  741MOL0     C97699   2.229   1.808   9.856 -0.3164  1.3698 -0.7249
  741MOL0     C97700   2.186   1.926   9.925 -0.5825 -0.1755 -0.3180
  741MOL0     C97701   2.040   1.965   9.888 -0.9127 -0.1781 -0.5196
  741MOL0     C97702   1.987   2.104   9.947 -0.9040  0.8916  0.1805
  741MOL0     C97703   1.843   2.124   9.899 -0.2532 -0.2459 -0.4589
  741MOL0     O97704   1.761   2.015   9.955  0.8690 -0.2919  0.1310
  741MOL0     C97705   1.633   1.982   9.906  0.1630 -0.6625 -0.2005
  741MOL0     C97706   1.550   1.908   9.984 -1.3748 -1.0802 -0.2109
  741MOL0     C97707   1.418   1.885   9.947 -0.0259 -0.4034  0.0758
  741MOL0     C97708   1.367   1.938   9.832 -0.3886  1.0331 -0.3737
  741MOL0     C97709   1.226   1.901   9.790  1.0293  0.8990  0.0551
  741MOL0     O97710   1.148   1.824   9.874 -0.3131 -0.1690 -0.3050
  741MOL0     C97711   1.010   1.797   9.855  0.8980 -0.6960  0.4762
  741MOL0     C97712   0.938   1.764   9.967  0.2395  0.4450 -0.3658
  741MOL0     C97713   0.798   1.733   9.964 -0.5197  0.4482  0.3509
  741MOL0     C97714   0.718   1.753   9.847 -0.3502  0.5257 -0.2214
  741MOL0     O97715   0.584   1.715   9.837  0.7037  0.4344 -0.0937
  741MOL0     C97716   0.503   1.695   9.957  0.2629  0.2067  1.1770
  741MOL0     C97717   0.353   1.688   9.918 -0.3206 -0.0994  0.2528
  741MOL0     C97718   0.285   1.566   9.965 -0.6550 -0.2287 -0.3705
  741MOL0     C97719   0.136   1.563   9.940 -0.3268  0.0699  0.5170
  741MOL0     C97720   0.079   1.474  10.046 -0.6708  0.4096 -0.2347
  741MOL0     C97721  -0.077   1.485  10.039 -1.0752 -0.0481  0.2800
  741MOL0     C97722  -0.133   1.628  10.068  0.2881  0.3126  0.4096
  741MOL0     C97723  -0.287   1.621  10.092  0.0829 -0.2817  0.0343
  741MOL0    Cl97724  -0.329   1.505  10.217  0.2701  0.2184  0.3537
  741MOL0     C97725   0.800   1.796   9.738  0.4371 -0.0268  0.2270
  741MOL0     C97726   0.933   1.819   9.743 -0.2036 -0.5904  0.2558
  741MOL0     O97727   1.192   1.942   9.679 -0.5007  0.4355  0.1045
  741MOL0     C97728   1.446   2.013   9.744 -0.8438  0.4098  0.1784
  741MOL0     C97729   1.582   2.038   9.787 -0.6860  0.7638 -1.0504
  741MOL0     N97730   2.321   1.800   9.745 -0.1566 -0.8613  0.1762
  741MOL0     N97731   2.330   1.674   9.714 -1.1593 -0.3352 -0.0520
  741MOL0     C97732   2.952   2.061   9.885 -0.3129  0.1835  0.1764
  741MOL0     C97733   3.033   2.172   9.850 -0.8161  0.3687  0.5228
  741MOL0     C97734   3.414   2.413   9.832 -0.1586 -0.7467  0.4721
  741MOL0     C97735   3.503   2.358   9.736  0.2115 -0.4967 -0.3862
  741MOL0     C97736   3.620   2.420   9.715  0.0551 -0.1033 -0.2675
  741MOL0     C97737   3.655   2.538   9.781  0.2428 -0.9901  0.9472
  741MOL0     O97738   3.775   2.607   9.787 -0.3276  0.1715  0.0427
  741MOL0     C97739   3.888   2.517   9.775 -0.2792 -0.2212  0.3194
  741MOL0     C97740   4.004   2.573   9.857 -0.1861 -0.0941  0.5291
  741MOL0     C97741   3.972   2.568  10.010  0.4610  1.1783 -0.4143
  741MOL0     C97742   4.074   2.659  10.084 -0.5471  0.6311  0.4817
  741MOL0     C97743   4.202   2.586  10.069  1.0967 -0.5305 -0.3263
  741MOL0     C97744   4.314   2.555  10.041  0.0366 -0.3103  0.0239
  741MOL0     C97745   3.564   2.595   9.868  0.1822 -0.8915 -0.3420
  741MOL0     C97746   3.447   2.528   9.906 -0.2097 -0.7210 -0.5269
  741MOL0     H97747   3.331   2.005   9.806  0.8703  3.2506  0.1226
  741MOL0     H97748   3.184   1.808   9.842  1.5920  1.2337 -1.2269
  741MOL0     H97749   2.918   1.835  10.121  0.4996  2.1456 -0.4601
  741MOL0     H97750   3.060   1.748  10.056 -0.5430 -1.6977 -2.1221
  741MOL0     H97751   2.853   1.617  10.151 -2.9819  0.5239 -0.0726
  741MOL0     H97752   2.908   1.559   9.986  3.3357  1.1599  0.0450
  741MOL0     H97753   2.711   1.670   9.878 -0.2138 -0.0302 -0.4948
  741MOL0     H97754   2.674   1.756  10.023  0.2944  0.5166  1.2005
  741MOL0     H97755   2.680   1.447   9.984  0.0844  1.3595 -1.4407
  741MOL0     H97756   2.629   1.521  10.130  0.8021 -0.2374  0.0667
  741MOL0     H97757   2.485   1.557   9.868 -1.7833 -1.1291 -0.0056
  741MOL0     H97758   2.432   1.608  10.034 -0.7336 -0.7031 -0.3685
  741MOL0     H97759   2.438   1.356  10.087 -1.0413 -0.7914 -0.7705
  741MOL0     H97760   2.479   1.331   9.917 -0.3603 -0.6973  0.2734
  741MOL0     H97761   2.245   1.294   9.924  0.7012  0.2526 -2.3334
  741MOL0     H97762   2.217   1.429  10.026  0.4830  0.0435  0.4185
  741MOL0     H97763   2.150   1.422   9.771 -1.8659  3.1458  1.5251
  741MOL0     H97764   2.323   1.427   9.741  0.4021  1.0343  0.2206
  741MOL0     H97765   2.093   1.668   9.951 -1.0597 -0.6694 -0.6133
  741MOL0     H97766   2.249   2.008   9.888  0.3440 -1.0889 -0.8277
  741MOL0     H97767   2.198   1.930  10.033 -1.9084 -0.4284 -0.1544
  741MOL0     H97768   1.974   1.884   9.920 -0.1434 -0.3928  0.5936
  741MOL0     H97769   2.033   1.968   9.779 -1.0700 -3.7913 -0.7471
  741MOL0     H97770   1.993   2.104  10.057  0.9310  1.0488  0.1083
  741MOL0     H97771   2.053   2.180   9.905  1.0108 -1.1380 -0.6702
  741MOL0     H97772   1.844   2.109   9.791  1.7405 -2.9165 -0.1606
  741MOL0     H97773   1.796   2.221   9.922 -1.7043 -0.0431 -3.7409
  741MOL0     H97774   1.585   1.877  10.082 -0.9049  0.7334  0.2332
  741MOL0     H97775   1.352   1.830  10.014 -0.5461 -1.2517 -1.1028
  741MOL0     H97776   0.985   1.733  10.060  2.5537  2.0644 -0.9131
  741MOL0     H97777   0.757   1.692  10.056  1.0416 -1.1551  0.3906
  741MOL0     H97778   0.498   1.784  10.021 -0.7528  0.7558  0.3624
  741MOL0     H97779   0.540   1.605  10.008 -2.4462 -0.0143  2.9668
  741MOL0     H97780   0.341   1.699   9.810 -0.9953  1.1775  0.4357
  741MOL0     H97781   0.301   1.774   9.962 -1.3117 -1.3728  1.6643
  741MOL0     H97782   0.304   1.560  10.073 -1.1414 -1.9824 -0.3642
  741MOL0     H97783   0.327   1.479   9.914 -0.8066  0.0430 -0.9688
  741MOL0     H97784   0.089   1.662   9.936 -0.7906 -0.1804 -0.7053
  741MOL0     H97785   0.118   1.530   9.837  0.4151 -1.9697  1.0019
  741MOL0     H97786   0.117   1.495  10.146  0.5756  1.5023 -0.9092
  741MOL0     H97787   0.107   1.369  10.031 -1.6777 -0.0101  0.6849
  741MOL0     H97788  -0.106   1.414  10.117 -2.7824  0.1921 -0.1127
  741MOL0     H97789  -0.114   1.449   9.943 -0.3462  1.4714 -0.6168
  741MOL0     H97790  -0.098   1.676  10.160 -0.8216 -1.3491  1.7807
  741MOL0     H97791  -0.107   1.700   9.991 -0.9466  0.1073 -0.2277
  741MOL0     H97792  -0.338   1.590  10.000  2.3147  0.3299 -1.5138
  741MOL0     H97793  -0.331   1.718  10.117 -1.1372 -0.3513 -1.6917
  741MOL0     H97794   0.748   1.813   9.644  2.0557  0.7086 -0.5656
  741MOL0     H97795   0.971   1.863   9.651  2.7305 -1.8179  0.7579
  741MOL0     H97796   1.409   2.047   9.648  2.8079  1.2572 -1.0930
  741MOL0     H97797   1.639   2.102   9.720 -0.5961  0.6383 -1.0950
  741MOL0     H97798   2.846   2.077   9.897 -0.0132  1.6184  1.2176
  741MOL0     H97799   2.991   2.271   9.835 -1.8958 -0.3252 -1.4150
  741MOL0     H97800   3.474   2.271   9.677 -2.0979  0.5824 -0.9492
  741MOL0     H97801   3.683   2.367   9.644  0.9486 -1.9421  1.7751
  741MOL0     H97802   3.910   2.524   9.668 -2.4509 -2.4915 -0.3568
  741MOL0     H97803   3.870   2.415   9.808  1.6553 -0.7800 -0.2294
  741MOL0     H97804   4.094   2.514   9.838  0.5593  0.6442  1.6509
  741MOL0     H97805   4.026   2.677   9.829  1.8554 -0.3765  0.9785
  741MOL0     H97806   3.983   2.465  10.047 -4.5050  0.1014 -1.1631
  741MOL0     H97807   3.873   2.610  10.029  1.0167  2.3071  0.0805
  741MOL0     H97808   4.080   2.756  10.034  1.4740 -1.3034 -3.4007
  741MOL0     H97809   4.055   2.668  10.192 -3.6760  0.8322  0.0050
  741MOL0     H97810   4.413   2.516  10.024 -0.1575 -0.3911 -0.9610
  741MOL0     H97811   3.593   2.682   9.927 -0.3884 -1.8562  1.4371
  741MOL0     H97812   3.390   2.577   9.984 -0.7360 -0.5027 -1.0480
  742MOL0     O97813   7.299   0.266   6.270  0.2731 -0.1171  0.2256
  742MOL0     C97814   7.280   0.232   6.148 -0.7155  0.1114  0.5078
  742MOL0     O97815   7.162   0.179   6.104  1.0354 -0.0682  0.4248
  742MOL0     C97816   7.079   0.138   6.213 -0.4341 -0.9912 -0.3901
  742MOL0     C97817   7.116   0.044   6.309 -0.0299 -0.0032  0.1491
  742MOL0     C97818   7.022  -0.003   6.404 -0.0894 -0.4299  0.2739
  742MOL0     C97819   6.888   0.049   6.410 -0.8288  0.3057 -0.6754
  742MOL0     O97820   6.798   0.010   6.508 -0.0191 -0.0846 -0.1348
  742MOL0     C97821   6.831  -0.089   6.608  0.1445 -0.1521 -0.4103
  742MOL0     C97822   6.725  -0.119   6.718 -0.3933 -0.1072 -0.1368
  742MOL0     C97823   6.578  -0.151   6.675  0.1763 -0.1114 -0.2094
  742MOL0     C97824   6.476  -0.159   6.791  0.3006 -0.1701 -0.5885
  742MOL0     C97825   6.343  -0.215   6.753 -0.2556  1.0380 -0.5084
  742MOL0     C97826   6.263  -0.223   6.879  0.3517 -0.1910  1.1436
  742MOL0     C97827   6.127  -0.285   6.847 -0.6076  0.5777  0.4495
  742MOL0     C97828   6.017  -0.189   6.810  0.0488 -0.3617  0.4384
  742MOL0     N97829   5.913  -0.276   6.760 -0.2186  0.3312  0.1402
  742MOL0     C97830   5.849  -0.385   6.820 -0.2191 -0.5767 -0.0955
  742MOL0     C97831   5.764  -0.432   6.721 -0.2521  0.0704 -0.8570
  742MOL0     C97832   5.678  -0.547   6.733 -0.5128  0.8221  0.9535
  742MOL0     C97833   5.540  -0.504   6.682  0.5323  0.3613  0.6526
  742MOL0     C97834   5.477  -0.387   6.770  0.4702  0.4851 -0.5241
  742MOL0     C97835   5.435  -0.453   6.912 -1.0091 -0.1876  0.3648
  742MOL0     O97836   5.353  -0.568   6.896 -0.1512  0.6276  0.6757
  742MOL0     C97837   5.230  -0.575   6.950  0.0306  0.2435 -0.1275
  742MOL0     C97838   5.152  -0.687   6.913  0.2346  0.5929  1.2190
  742MOL0     C97839   5.019  -0.702   6.957  0.1225 -0.7443 -0.7281
  742MOL0     C97840   4.967  -0.599   7.037 -0.1584 -0.4188  0.0780
  742MOL0     C97841   4.833  -0.611   7.081  0.5909 -0.3350 -0.2602
  742MOL0     O97842   4.747  -0.663   6.984  0.1334 -0.7118  0.3794
  742MOL0     C97843   4.627  -0.714   7.016  0.8772  0.1503 -0.4412
  742MOL0     C97844   4.522  -0.640   7.076  0.8083 -0.4812 -0.0271
  742MOL0     C97845   4.399  -0.707   7.101 -0.2981 -0.0333 -0.6904
  742MOL0     C97846   4.384  -0.844   7.069  0.4449  0.1547 -0.0390
  742MOL0     O97847   4.257  -0.887   7.095  0.3432 -0.5613 -0.0718
  742MOL0     C97848   4.207  -1.023   7.082 -0.3080 -1.0500 -0.5022
  742MOL0     C97849   4.071  -1.029   7.154 -1.0071 -0.3704  1.2778
  742MOL0     C97850   4.000  -1.157   7.137 -0.2504 -1.0684 -0.8155
  742MOL0     C97851   3.847  -1.140   7.152  0.5074 -0.9085 -0.0535
  742MOL0     C97852   3.771  -1.274   7.133  0.1182 -0.5198 -0.1320
  742MOL0     C97853   3.627  -1.252   7.071 -0.3136 -0.6302 -0.0855
  742MOL0     C97854   3.552  -1.172   7.169  0.9487 -0.6063  0.1813
  742MOL0     C97855   3.422  -1.126   7.095 -0.6460  0.2960  0.2651
  742MOL0    Cl97856   3.324  -1.268   7.038 -0.8005  0.5238 -0.0538
  742MOL0     C97857   4.484  -0.924   7.007 -0.8152  0.6260 -0.5569
  742MOL0     C97858   4.609  -0.852   6.986 -0.6926 -1.4330 -0.6470
  742MOL0     O97859   4.802  -0.578   7.195 -0.4230  0.3940  0.3212
  742MOL0     C97860   5.047  -0.501   7.082  0.5332  0.7715 -0.7233
  742MOL0     C97861   5.176  -0.482   7.036 -0.3298  0.4875 -1.1580
  742MOL0     N97862   5.774  -0.350   6.610  0.6001 -0.3069  0.1581
  742MOL0     N97863   5.865  -0.261   6.633  0.5344 -0.0241 -0.0524
  742MOL0     C97864   6.853   0.145   6.316 -0.4092  0.3494  0.7164
  742MOL0     C97865   6.946   0.180   6.214 -0.1102 -0.6333 -0.2063
  742MOL0     C97866   7.384   0.282   6.054 -0.2674 -0.3146 -0.0453
  742MOL0     C97867   7.496   0.350   6.109  0.6067  0.2141 -0.5385
  742MOL0     C97868   7.591   0.397   6.018 -0.2248  0.3052  0.9208
  742MOL0     C97869   7.592   0.366   5.879 -0.1147 -0.8240  0.2462
  742MOL0     O97870   7.703   0.407   5.802  0.5253  0.1335  0.7059
  742MOL0     C97871   7.746   0.321   5.692  0.5414 -0.0734  0.3571
  742MOL0     C97872   7.884   0.363   5.627 -0.0768  0.5208 -0.1076
  742MOL0     C97873   7.989   0.388   5.743 -0.0213 -0.2533 -0.6892
  742MOL0     C97874   8.113   0.298   5.733  0.4032  0.1991  0.0427
  742MOL0     C97875   8.226   0.348   5.809  0.0037 -0.4458  0.5770
  742MOL0     C97876   8.311   0.411   5.860 -0.3810  0.5880 -0.2581
  742MOL0     C97877   7.481   0.293   5.827 -0.0526 -0.0395  0.1698
  742MOL0     C97878   7.377   0.261   5.916  0.3563 -0.3625  0.2463
  742MOL0     H97879   7.210  -0.009   6.299  0.3871  0.9884 -1.6526
  742MOL0     H97880   7.061  -0.080   6.470 -3.0530 -0.8029  1.7626
  742MOL0     H97881   6.925  -0.061   6.656  1.2468 -1.4159 -1.7158
  742MOL0     H97882   6.848  -0.185   6.557  3.2467  0.2104 -0.2459
  742MOL0     H97883   6.714  -0.033   6.785 -1.4250 -0.4026  0.0894
  742MOL0     H97884   6.759  -0.195   6.788  2.2212  1.7335  0.7361
  742MOL0     H97885   6.602  -0.235   6.609  0.7662  0.6826 -1.0229
  742MOL0     H97886   6.543  -0.065   6.617  0.7286  0.7461  0.6930
  742MOL0     H97887   6.530  -0.218   6.865  1.3402  0.8669 -0.4793
  742MOL0     H97888   6.469  -0.058   6.833  1.8716  0.3607 -1.5153
  742MOL0     H97889   6.354  -0.318   6.717 -3.0633 -0.0123  1.2517
  742MOL0     H97890   6.301  -0.148   6.678  0.4920  2.9560  0.7172
  742MOL0     H97891   6.252  -0.125   6.927  0.4806  0.0477  0.6879
  742MOL0     H97892   6.316  -0.285   6.952  0.8476 -1.9501 -0.6207
  742MOL0     H97893   6.131  -0.350   6.759 -0.8524  1.8694 -0.5526
  742MOL0     H97894   6.096  -0.354   6.926 -1.6161  1.2206  0.6228
  742MOL0     H97895   6.050  -0.116   6.735 -1.7991 -0.1168 -0.1644
  742MOL0     H97896   5.971  -0.142   6.897 -1.8969 -1.2798 -0.0404
  742MOL0     H97897   5.853  -0.416   6.924  0.5249  0.2954  0.1445
  742MOL0     H97898   5.672  -0.594   6.831 -1.4667 -0.7134  0.2093
  742MOL0     H97899   5.729  -0.624   6.673  0.2497  1.0744  1.2627
  742MOL0     H97900   5.465  -0.583   6.673  1.2416 -0.1377 -1.6987
  742MOL0     H97901   5.543  -0.482   6.575 -0.3198 -2.1625  0.0391
  742MOL0     H97902   5.533  -0.293   6.774  1.5841 -0.1143 -1.4750
  742MOL0     H97903   5.383  -0.359   6.720 -0.5607  1.1202  1.6320
  742MOL0     H97904   5.401  -0.363   6.965  0.9336  1.1742 -0.5817
  742MOL0     H97905   5.523  -0.491   6.964 -0.5511 -0.0958 -0.3312
  742MOL0     H97906   5.201  -0.765   6.856 -0.7547  0.3880  0.6245
  742MOL0     H97907   4.963  -0.794   6.946 -0.4813 -0.4621 -0.0757
  742MOL0     H97908   4.544  -0.538   7.105  0.1488 -0.6401  1.0893
  742MOL0     H97909   4.315  -0.650   7.140  0.0178  0.0532 -0.1175
  742MOL0     H97910   4.282  -1.099   7.107 -0.6646 -1.2019  0.1005
  742MOL0     H97911   4.189  -1.031   6.974  2.7663  2.4077 -1.4711
  742MOL0     H97912   4.003  -0.951   7.117 -1.1220 -0.4753  1.2682
  742MOL0     H97913   4.093  -1.016   7.260 -0.7896  4.1925  0.8715
  742MOL0     H97914   4.037  -1.223   7.216 -1.1406 -1.4373 -0.6954
  742MOL0     H97915   4.011  -1.202   7.038  0.2132 -1.4356 -0.6060
  742MOL0     H97916   3.822  -1.099   7.250  1.9676  0.7424 -0.3316
  742MOL0     H97917   3.816  -1.069   7.075 -0.7804 -2.2166 -0.7881
  742MOL0     H97918   3.763  -1.333   7.225 -3.5808 -1.8999 -1.1572
  742MOL0     H97919   3.824  -1.335   7.059 -3.2306 -0.2673 -3.0005
  742MOL0     H97920   3.570  -1.343   7.052  1.4072 -1.6717 -0.4921
  742MOL0     H97921   3.641  -1.197   6.977  3.1880 -0.9001  0.1388
  742MOL0     H97922   3.532  -1.223   7.263  2.0687  0.9482  1.3120
  742MOL0     H97923   3.596  -1.077   7.202 -0.1679 -0.1670  0.4600
  742MOL0     H97924   3.458  -1.069   7.008  1.0393 -0.2585  0.5547
  742MOL0     H97925   3.358  -1.065   7.159 -1.2141  0.0544 -0.0621
  742MOL0     H97926   4.468  -1.023   6.966 -1.6709  0.4866  0.0796
  742MOL0     H97927   4.692  -0.915   6.956 -1.7556 -2.5970 -1.2501
  742MOL0     H97928   5.012  -0.421   7.146 -0.6345 -0.9852  0.9699
  742MOL0     H97929   5.227  -0.389   7.061 -0.9804  0.9893 -1.6638
  742MOL0     H97930   6.756   0.194   6.313 -0.5968 -0.0254  0.6203
  742MOL0     H97931   6.915   0.252   6.139  0.5615 -0.4834 -0.3412
  742MOL0     H97932   7.522   0.357   6.215  4.5216 -1.3425 -1.2032
  742MOL0     H97933   7.683   0.444   6.051  1.1324 -2.9125  2.1522
  742MOL0     H97934   7.668   0.318   5.615 -2.1888  1.4978  2.8753
  742MOL0     H97935   7.758   0.221   5.735 -0.3261  0.6493  2.3799
  742MOL0     H97936   7.921   0.287   5.558 -1.2907 -1.0150  0.8800
  742MOL0     H97937   7.863   0.453   5.567  2.5904  1.4947  0.2859
  742MOL0     H97938   7.953   0.365   5.844  1.9928 -0.0627  0.1012
  742MOL0     H97939   8.019   0.492   5.734  1.5082  0.1213  4.8253
  742MOL0     H97940   8.087   0.198   5.769  3.9016 -0.0872  2.2612
  742MOL0     H97941   8.143   0.300   5.628 -0.2285 -1.1406 -0.1964
  742MOL0     H97942   8.381   0.462   5.923 -0.2159  3.6423 -2.6607
  742MOL0     H97943   7.473   0.278   5.720  0.1936 -3.4433  0.5172
  742MOL0     H97944   7.286   0.219   5.877  1.0703  0.1931 -2.1568
  743MOL0     O97945   0.477   8.263   1.296 -0.5064  0.7928 -0.0561
  743MOL0     C97946   0.573   8.184   1.272  0.4409  0.4658  0.1206
  743MOL0     O97947   0.558   8.046   1.267 -0.6329 -0.3332  0.0521
  743MOL0     C97948   0.430   7.999   1.281  0.5656 -0.4523 -0.4349
  743MOL0     C97949   0.342   8.002   1.174 -0.1243 -0.8072 -0.8134
  743MOL0     C97950   0.217   7.932   1.185 -0.4062  0.3409 -0.0414
  743MOL0     C97951   0.175   7.892   1.315  0.5346  0.0235  0.2088
  743MOL0     O97952   0.049   7.829   1.307 -0.4291  0.2879  0.4714
  743MOL0     C97953   0.001   7.762   1.422 -0.4864 -0.9904  0.6466
  743MOL0     C97954  -0.134   7.707   1.382  0.3484  0.3435  0.3376
  743MOL0     C97955  -0.140   7.615   1.259  0.4274 -0.2077  0.1759
  743MOL0     C97956  -0.287   7.573   1.235  1.7425  0.0879 -0.4974
  743MOL0     C97957  -0.373   7.526   1.359  0.5177 -0.9508  0.8978
  743MOL0     C97958  -0.495   7.443   1.329  0.0848 -0.3589 -0.3837
  743MOL0     C97959  -0.539   7.383   1.468 -0.0960  0.7534  0.8089
  743MOL0     C97960  -0.617   7.257   1.440  0.3306  0.4576 -0.4108
  743MOL0     N97961  -0.759   7.293   1.451 -0.0785  0.7219  0.2294
  743MOL0     C97962  -0.846   7.278   1.344 -0.3624  0.1893 -0.0449
  743MOL0     C97963  -0.963   7.346   1.379  0.2142 -0.1475  0.1181
  743MOL0     C97964  -1.096   7.365   1.312  0.3027  0.0039  0.6861
  743MOL0     C97965  -1.158   7.221   1.309  0.2598  0.2076  0.0639
  743MOL0     C97966  -1.285   7.222   1.228 -0.0027  0.3087 -0.0635
  743MOL0     C97967  -1.265   7.245   1.075  0.3886 -0.0394  0.9338
  743MOL0     O97968  -1.388   7.256   0.999 -0.3556  0.1707  0.0074
  743MOL0     C97969  -1.472   7.144   1.010  1.1140 -0.0227 -0.2562
  743MOL0     C97970  -1.453   7.006   0.967 -0.1571 -0.3610 -0.2581
  743MOL0     C97971  -1.554   6.913   0.981 -0.2798  0.6760  1.1584
  743MOL0     C97972  -1.679   6.936   1.042  0.2411  0.6588 -0.5572
  743MOL0     C97973  -1.795   6.845   1.045  0.0169  0.6236  0.4910
  743MOL0     O97974  -1.767   6.713   1.016 -0.0197  0.5943 -0.7372
  743MOL0     C97975  -1.868   6.622   1.009  0.1146 -0.1559 -0.2490
  743MOL0     C97976  -2.005   6.644   0.968 -0.2943  0.4926 -0.0215
  743MOL0     C97977  -2.101   6.546   0.955 -0.6446  0.3577  0.0130
  743MOL0     C97978  -2.058   6.411   0.966  0.2093  0.1164  0.3717
  743MOL0     O97979  -2.155   6.322   0.939  0.0238 -0.4472 -0.4922
  743MOL0     C97980  -2.127   6.181   0.961  0.5557 -0.2115 -0.7526
  743MOL0     C97981  -2.249   6.104   0.921 -0.5378  0.1154 -0.1381
  743MOL0     C97982  -2.382   6.158   0.983 -0.3066  0.2998  0.4501
  743MOL0     C97983  -2.516   6.083   0.943 -0.4742 -0.4140 -0.6127
  743MOL0     C97984  -2.639   6.142   0.986  0.2292  0.4584 -0.3550
  743MOL0     C97985  -2.757   6.040   0.946 -0.1431 -0.2889 -0.3876
  743MOL0     C97986  -2.899   6.099   0.970  0.0341  0.3803 -0.5978
  743MOL0     C97987  -3.001   5.995   1.001  0.0888 -0.0902  0.7039
  743MOL0    Cl97988  -3.012   5.888   0.859 -0.4373  0.2664 -0.3348
  743MOL0     C97989  -1.928   6.380   1.005 -0.0010 -0.6259 -0.4117
  743MOL0     C97990  -1.831   6.486   1.020  0.2001 -0.4586  1.0858
  743MOL0     O97991  -1.907   6.893   1.073 -0.1994 -0.2469 -0.1113
  743MOL0     C97992  -1.694   7.069   1.102  0.8037 -0.1201  0.7609
  743MOL0     C97993  -1.595   7.162   1.083  0.4474  0.6273  0.1042
  743MOL0     N97994  -0.946   7.389   1.507 -0.0361  0.2534  0.4485
  743MOL0     N97995  -0.825   7.367   1.545 -0.0572 -0.0794 -0.4472
  743MOL0     C97996   0.254   7.911   1.424  0.0258 -0.7212  0.2252
  743MOL0     C97997   0.386   7.954   1.406 -0.8330  0.5903 -0.1549
  743MOL0     C97998   0.706   8.252   1.241 -0.4050  0.1543  0.1321
  743MOL0     C97999   0.824   8.177   1.274  0.4531 -0.1815 -0.1189
  743MOL0     C98000   0.946   8.237   1.273 -0.2242  0.2319 -1.1329
  743MOL0     C98001   0.963   8.374   1.239 -0.0022  0.1642 -0.2605
  743MOL0     O98002   1.089   8.418   1.269  0.3501 -0.2707  0.4100
  743MOL0     C98003   1.103   8.558   1.276 -0.0914 -0.1536 -0.0330
  743MOL0     C98004   1.239   8.583   1.349  0.6332 -0.7548 -0.1623
  743MOL0     C98005   1.257   8.513   1.486  0.5220  0.6634  0.2852
  743MOL0     C98006   1.349   8.595   1.577 -0.4948 -0.7757  0.1612
  743MOL0     C98007   1.480   8.638   1.508  0.3327  0.0135 -0.0455
  743MOL0     C98008   1.575   8.677   1.437  0.4320 -0.4652 -0.7520
  743MOL0     C98009   0.853   8.449   1.204  1.2748 -0.1607  0.0380
  743MOL0     C98010   0.726   8.387   1.199 -0.5468 -0.3245  0.6160
  743MOL0     H98011   0.375   8.039   1.077  1.1829  0.3724  0.0496
  743MOL0     H98012   0.159   7.934   1.093 -1.2023  0.0913  0.4359
  743MOL0     H98013  -0.001   7.849   1.488 -2.0144  1.2367 -2.0686
  743MOL0     H98014   0.073   7.685   1.449 -0.4502 -1.0082  0.4997
  743MOL0     H98015  -0.202   7.791   1.363 -0.4395  0.4164  3.0554
  743MOL0     H98016  -0.165   7.657   1.475 -2.4225  1.7801  0.2850
  743MOL0     H98017  -0.068   7.533   1.265  0.6090 -0.1788 -1.3107
  743MOL0     H98018  -0.103   7.674   1.175 -0.3638  0.4942  0.3018
  743MOL0     H98019  -0.337   7.661   1.195  0.0926 -0.8792 -0.6744
  743MOL0     H98020  -0.288   7.493   1.160  1.1045  0.3789 -0.8085
  743MOL0     H98021  -0.411   7.617   1.407  1.3073 -1.2084  2.0531
  743MOL0     H98022  -0.304   7.476   1.428  1.6663  0.2861  0.6900
  743MOL0     H98023  -0.476   7.369   1.251 -0.1771 -0.9703  0.1270
  743MOL0     H98024  -0.571   7.510   1.288 -1.4021 -1.7375  0.0277
  743MOL0     H98025  -0.450   7.361   1.529 -0.3335  1.5091  1.4344
  743MOL0     H98026  -0.598   7.461   1.517 -2.1705 -0.9416  1.1569
  743MOL0     H98027  -0.596   7.175   1.509  3.7792  1.1652 -0.4203
  743MOL0     H98028  -0.605   7.223   1.336 -1.7732 -0.3404 -0.4301
  743MOL0     H98029  -0.827   7.232   1.247  3.3190 -0.1079  0.6588
  743MOL0     H98030  -1.083   7.406   1.212  0.9400 -0.5432  0.5377
  743MOL0     H98031  -1.166   7.430   1.365 -1.4336  0.9967 -2.5821
  743MOL0     H98032  -1.185   7.186   1.409 -1.3542  0.6253 -0.1888
  743MOL0     H98033  -1.077   7.155   1.278  1.5532  2.8412 -2.7083
  743MOL0     H98034  -1.335   7.126   1.240  0.1327  0.2692  0.1842
  743MOL0     H98035  -1.354   7.295   1.270 -0.8167  0.8985 -2.2516
  743MOL0     H98036  -1.208   7.161   1.035 -3.6130 -2.7340  0.3658
  743MOL0     H98037  -1.206   7.335   1.054  0.3927 -0.3110 -0.2567
  743MOL0     H98038  -1.361   6.979   0.915 -0.4523  1.5141 -1.8961
  743MOL0     H98039  -1.546   6.820   0.927  3.2561  0.8162  1.1790
  743MOL0     H98040  -2.032   6.745   0.940 -2.6278 -0.5448 -1.9510
  743MOL0     H98041  -2.206   6.554   0.930 -0.6278 -4.2933 -2.8277
  743MOL0     H98042  -2.119   6.161   1.068  1.0661  1.3077 -0.4831
  743MOL0     H98043  -2.046   6.138   0.902  1.1031  1.4552 -1.2846
  743MOL0     H98044  -2.231   5.999   0.945  2.7651  0.8204  1.0127
  743MOL0     H98045  -2.251   6.104   0.812 -0.8389  1.1822 -0.1416
  743MOL0     H98046  -2.402   6.261   0.952  1.3071 -0.1694 -2.4965
  743MOL0     H98047  -2.373   6.162   1.092  0.9506  2.0470  0.3334
  743MOL0     H98048  -2.518   6.084   0.833  1.2275 -1.3029 -0.6935
  743MOL0     H98049  -2.510   5.981   0.983 -0.4372  0.3573  1.4559
  743MOL0     H98050  -2.650   6.235   0.931 -0.8492 -0.5824 -1.9996
  743MOL0     H98051  -2.644   6.158   1.094  0.1652  0.9778 -0.4353
  743MOL0     H98052  -2.749   5.951   1.010  2.1251  0.8227  1.0085
  743MOL0     H98053  -2.760   6.007   0.842  2.4029  2.0361 -1.3148
  743MOL0     H98054  -2.887   6.158   1.061 -0.7008 -3.2862  2.1043
  743MOL0     H98055  -2.926   6.152   0.878  0.1509  0.4909 -0.5686
  743MOL0     H98056  -3.097   6.048   1.001  0.5723  0.9995 -2.4886
  743MOL0     H98057  -2.981   5.944   1.095  2.0422 -1.4451 -0.3946
  743MOL0     H98058  -1.898   6.277   1.019 -0.6576 -0.6521  0.8999
  743MOL0     H98059  -1.728   6.457   1.035  1.4127  1.6755 -2.1377
  743MOL0     H98060  -1.783   7.097   1.158  0.1824  0.3147 -0.4233
  743MOL0     H98061  -1.610   7.255   1.138  1.1426  1.2090 -0.6553
  743MOL0     H98062   0.228   7.865   1.519  1.6633 -0.6885  0.7228
  743MOL0     H98063   0.454   7.938   1.489 -1.8915 -2.3144  0.2720
  743MOL0     H98064   0.807   8.075   1.306 -2.1415  0.5022  0.9789
  743MOL0     H98065   1.034   8.181   1.304  1.2222  0.5528 -4.2116
  743MOL0     H98066   1.025   8.614   1.328  1.0150  0.6321  0.8360
  743MOL0     H98067   1.115   8.605   1.178  2.5473 -2.0081 -0.6860
  743MOL0     H98068   1.322   8.572   1.278  1.7586  2.3491  0.5367
  743MOL0     H98069   1.237   8.688   1.377  0.2375 -0.0680 -2.5518
  743MOL0     H98070   1.300   8.414   1.467  0.5521  0.1503  2.7346
  743MOL0     H98071   1.161   8.504   1.539  1.2990  2.9156  2.2578
  743MOL0     H98072   1.296   8.685   1.610 -0.2183  0.3481 -2.2635
  743MOL0     H98073   1.379   8.541   1.667 -1.0885  1.8926  2.0863
  743MOL0     H98074   1.653   8.719   1.376  1.6930 -1.9270 -0.2225
  743MOL0     H98075   0.850   8.556   1.185 -2.0135  0.1843  1.7407
  743MOL0     H98076   0.644   8.445   1.159  0.6517  0.0278 -1.4401
  744MOL0     O98077   8.339   8.904   0.707  0.2612  0.0254 -0.4307
  744MOL0     C98078   8.411   8.974   0.637  0.2366 -0.7451 -0.0987
  744MOL0     O98079   8.373   9.072   0.539  0.0444  0.2948 -0.3265
  744MOL0     C98080   8.243   9.086   0.514 -0.5408 -0.8049  0.1759
  744MOL0     C98081   8.168   8.980   0.475 -0.0506  0.3954 -0.0383
  744MOL0     C98082   8.035   8.998   0.456 -0.7032  0.4447 -0.8665
  744MOL0     C98083   7.969   9.120   0.468 -0.5189  0.2781  0.2323
  744MOL0     O98084   7.835   9.149   0.457  0.3976  0.3163 -0.1973
  744MOL0     C98085   7.739   9.044   0.436  0.3601  0.5203 -0.5917
  744MOL0     C98086   7.596   9.081   0.466 -0.2420 -0.2811 -0.1671
  744MOL0     C98087   7.574   9.131   0.616  0.6539 -0.2347  1.7159
  744MOL0     C98088   7.444   9.096   0.677 -0.0773  0.2302 -0.2522
  744MOL0     C98089   7.334   9.182   0.617  0.4324 -0.1498 -0.4696
  744MOL0     C98090   7.197   9.121   0.623 -0.2684  0.0097 -0.6748
  744MOL0     C98091   7.158   9.077   0.759  0.0651  0.1621 -0.2258
  744MOL0     C98092   7.015   9.037   0.790  0.4635  0.4812 -0.4532
  744MOL0     N98093   6.912   9.149   0.796 -0.4416 -0.2134 -0.6109
  744MOL0     C98094   6.857   9.213   0.689  0.7379  0.5133  0.2083
  744MOL0     C98095   6.773   9.301   0.748  0.5078  0.1589  0.4799
  744MOL0     C98096   6.692   9.405   0.665  0.0522 -0.1518  0.7217
  744MOL0     C98097   6.584   9.341   0.584  0.2656 -0.3280  0.1938
  744MOL0     C98098   6.491   9.444   0.509 -0.0414  0.9242 -0.6084
  744MOL0     C98099   6.365   9.391   0.457  0.5083  0.5699 -0.0627
  744MOL0     O98100   6.319   9.502   0.383  0.3702  0.3248 -0.5270
  744MOL0     C98101   6.187   9.515   0.353  0.9818 -0.6201 -0.4773
  744MOL0     C98102   6.085   9.521   0.451  0.0209 -0.2580  0.5121
  744MOL0     C98103   5.953   9.545   0.414  0.4081 -0.3625 -0.6785
  744MOL0     C98104   5.915   9.568   0.280  0.7489  0.0374 -0.5319
  744MOL0     C98105   5.770   9.581   0.239 -0.2818  0.7303  0.2441
  744MOL0     O98106   5.746   9.587   0.102  0.2033 -0.8687  0.0752
  744MOL0     C98107   5.615   9.582   0.072 -0.1616  0.0083  0.2119
  744MOL0     C98108   5.539   9.470   0.056 -0.3897  0.1604 -0.8857
  744MOL0     C98109   5.405   9.479   0.001  0.0792 -0.0343 -0.2064
  744MOL0     C98110   5.346   9.602  -0.032  0.0707 -0.6051 -0.4232
  744MOL0     O98111   5.207   9.610  -0.061  0.7259 -0.2061 -0.1652
  744MOL0     C98112   5.129   9.732  -0.037 -0.1037 -0.8032  0.2227
  744MOL0     C98113   4.989   9.710  -0.091  0.0391  0.2529  0.2848
  744MOL0     C98114   4.907   9.602  -0.011 -0.1725 -1.3744 -1.1861
  744MOL0     C98115   4.774   9.567  -0.077  0.8387  0.2365 -1.0256
  744MOL0     C98116   4.665   9.681  -0.041  0.1839  0.0263 -0.3860
  744MOL0     C98117   4.534   9.619  -0.076  0.0020 -0.0739 -0.7846
  744MOL0     C98118   4.528   9.603  -0.234 -0.0911 -0.5651 -0.4848
  744MOL0     C98119   4.388   9.563  -0.273 -0.0177  0.3068  0.2434
  744MOL0    Cl98120   4.378   9.500  -0.434 -0.2239  0.0724 -0.0122
  744MOL0     C98121   5.426   9.719  -0.012  0.0837  0.4375 -0.0659
  744MOL0     C98122   5.554   9.702   0.042  0.4455 -0.6252 -0.3217
  744MOL0     O98123   5.686   9.584   0.329 -0.4283 -0.4368  0.0984
  744MOL0     C98124   6.014   9.560   0.179 -0.4770 -0.1581  0.3950
  744MOL0     C98125   6.146   9.535   0.223  0.6889 -0.0221 -0.3299
  744MOL0     N98126   6.788   9.303   0.886 -0.1699 -0.0486  1.1310
  744MOL0     N98127   6.876   9.214   0.914 -0.2806  0.5360 -0.3134
  744MOL0     C98128   8.050   9.228   0.500  0.1706  0.0866 -0.0490
  744MOL0     C98129   8.184   9.208   0.530 -0.3949 -0.7834 -0.0005
  744MOL0     C98130   8.553   8.954   0.656  0.2261 -0.3027  0.9039
  744MOL0     C98131   8.598   8.887   0.767  0.3284  1.5402  0.0279
  744MOL0     C98132   8.732   8.871   0.796  0.3371  0.4396 -0.0322
  744MOL0     C98133   8.828   8.907   0.711 -0.6457  0.0485  0.5973
  744MOL0     O98134   8.964   8.879   0.727 -0.7760 -0.1296 -0.5521
  744MOL0     C98135   9.025   8.867   0.857  1.0703  1.0466  0.0963
  744MOL0     C98136   9.178   8.878   0.850  0.6293 -0.2467 -0.2695
  744MOL0     C98137   9.239   8.866   0.985  0.7598 -0.2580  0.3373
  744MOL0     C98138   9.392   8.879   0.973  0.2006  0.0479 -0.5862
  744MOL0     C98139   9.457   8.867   1.104 -0.3045 -0.2121 -0.3340
  744MOL0     C98140   9.485   8.848   1.221 -0.0226 -1.1078  0.1379
  744MOL0     C98141   8.788   8.967   0.587 -0.5769 -0.4419  0.0637
  744MOL0     C98142   8.654   8.988   0.558  0.5157 -1.2989  0.2364
  744MOL0     H98143   8.206   8.879   0.485 -1.6445 -0.0962  1.3728
  744MOL0     H98144   7.984   8.903   0.438  0.0202 -0.5337  1.8581
  744MOL0     H98145   7.771   8.958   0.496  2.6246  1.2634 -0.6328
  744MOL0     H98146   7.750   9.012   0.332  1.2667 -3.3620  0.5090
  744MOL0     H98147   7.532   8.992   0.461  0.0801 -0.8486  3.1068
  744MOL0     H98148   7.561   9.157   0.396  1.0228  0.3784 -0.1147
  744MOL0     H98149   7.595   9.238   0.624  0.0899 -0.1092  1.5938
  744MOL0     H98150   7.650   9.086   0.680  1.1197  0.0408  1.3592
  744MOL0     H98151   7.428   8.988   0.668 -0.8326  0.2561  0.6262
  744MOL0     H98152   7.450   9.134   0.779  0.8188  3.4675 -1.3788
  744MOL0     H98153   7.361   9.209   0.514  1.5696 -1.7357 -0.6241
  744MOL0     H98154   7.333   9.278   0.668  0.7689  0.7736 -2.1307
  744MOL0     H98155   7.191   9.049   0.541  2.3201  0.9104 -1.7524
  744MOL0     H98156   7.127   9.199   0.592  1.4515  3.4943  3.2940
  744MOL0     H98157   7.218   8.987   0.772  1.5754  1.0388 -0.8306
  744MOL0     H98158   7.195   9.153   0.828 -2.9900  1.4172  0.1890
  744MOL0     H98159   7.019   8.997   0.891 -0.3808  1.6410  0.0744
  744MOL0     H98160   6.982   8.959   0.721  4.0013  0.2634 -2.0908
  744MOL0     H98161   6.866   9.192   0.583  1.9157 -0.7972  0.5319
  744MOL0     H98162   6.750   9.468   0.596 -1.0446  0.2882  0.1858
  744MOL0     H98163   6.647   9.468   0.742 -1.1607  0.7293 -0.6646
  744MOL0     H98164   6.516   9.298   0.658 -0.1910 -1.4705 -0.8341
  744MOL0     H98165   6.636   9.269   0.520 -0.5261  0.0692 -0.9386
  744MOL0     H98166   6.496   9.536   0.567  1.0066  1.0477 -0.8718
  744MOL0     H98167   6.547   9.477   0.421 -1.1219  2.4659 -0.7472
  744MOL0     H98168   6.297   9.360   0.537 -0.1835  0.8675 -0.5302
  744MOL0     H98169   6.389   9.305   0.395 -2.5751 -0.3096 -0.1853
  744MOL0     H98170   6.106   9.497   0.554 -2.8993  0.5061  1.3901
  744MOL0     H98171   5.876   9.559   0.490 -1.1915  1.6467 -2.5341
  744MOL0     H98172   5.580   9.373   0.081 -1.5447 -0.7371 -2.2373
  744MOL0     H98173   5.345   9.389   0.005  0.2050 -0.0701  1.6415
  744MOL0     H98174   5.178   9.816  -0.087  2.2849 -0.3661  2.9902
  744MOL0     H98175   5.129   9.762   0.069  0.9533  1.9510 -0.4890
  744MOL0     H98176   5.001   9.681  -0.195  3.6181  0.0491  0.6262
  744MOL0     H98177   4.944   9.809  -0.095  0.4054  0.3804 -0.9907
  744MOL0     H98178   4.899   9.635   0.093  2.2672  0.0860 -1.3806
  744MOL0     H98179   4.957   9.505  -0.002 -1.7566 -2.0670  0.8029
  744MOL0     H98180   4.784   9.548  -0.185  1.4210 -2.2459 -0.5862
  744MOL0     H98181   4.738   9.470  -0.041  2.0132  0.3174  0.4611
  744MOL0     H98182   4.693   9.771  -0.096  1.3529  1.0934  1.8362
  744MOL0     H98183   4.674   9.704   0.065  0.3988  2.9365 -0.9649
  744MOL0     H98184   4.451   9.682  -0.041  0.3292 -1.8030  3.7423
  744MOL0     H98185   4.525   9.522  -0.026 -1.8862  1.4480  2.1585
  744MOL0     H98186   4.544   9.700  -0.283 -0.1508 -0.3918 -0.1657
  744MOL0     H98187   4.610   9.542  -0.272  0.7107  2.2575 -3.8736
  744MOL0     H98188   4.322   9.651  -0.269  1.4970  1.4990 -0.2027
  744MOL0     H98189   4.362   9.481  -0.205 -0.2708 -2.1230 -2.5904
  744MOL0     H98190   5.381   9.816  -0.029 -2.8688 -0.3788  2.2208
  744MOL0     H98191   5.616   9.789   0.063 -3.6061  2.8074 -1.2202
  744MOL0     H98192   5.995   9.562   0.072 -1.2873 -0.3891  0.5238
  744MOL0     H98193   6.227   9.542   0.151 -0.6838  1.1071 -1.8523
  744MOL0     H98194   8.020   9.332   0.511  1.6605  0.4364  1.1111
  744MOL0     H98195   8.252   9.290   0.551 -0.3137 -0.2688 -2.0132
  744MOL0     H98196   8.529   8.840   0.836 -0.1684  0.7138 -1.0071
  744MOL0     H98197   8.748   8.824   0.893  1.9961 -1.0554 -0.9778
  744MOL0     H98198   9.003   8.766   0.893 -1.4267  1.4584 -0.0939
  744MOL0     H98199   8.975   8.925   0.934  0.0214  0.7844 -0.3755
  744MOL0     H98200   9.229   8.801   0.791  0.5435 -0.5997  0.1139
  744MOL0     H98201   9.188   8.971   0.792 -0.8017 -0.4427 -0.8535
  744MOL0     H98202   9.215   8.767   1.023 -2.6762  0.4359  0.3349
  744MOL0     H98203   9.191   8.944   1.045  0.7826  0.2644 -0.3126
  744MOL0     H98204   9.428   8.797   0.911 -0.1366  1.0532 -2.1713
  744MOL0     H98205   9.412   8.980   0.937 -0.8274  0.7264  0.6569
  744MOL0     H98206   9.513   8.823   1.322 -1.5833  1.7480  1.3834
  744MOL0     H98207   8.866   9.003   0.520 -0.3122  0.9909  1.1057
  744MOL0     H98208   8.616   9.027   0.464  1.5741 -1.6391 -0.3583
  745MOL0     O98209   8.256   9.439  10.635  0.3991 -0.0120  0.3864
  745MOL0     C98210   8.237   9.559  10.603 -0.1647 -0.1661  0.1539
  745MOL0     O98211   8.114   9.623  10.579  0.7184 -0.2310  0.1274
  745MOL0     C98212   7.998   9.554  10.582  0.2683 -0.7395  0.8281
  745MOL0     C98213   7.982   9.426  10.547  0.3526 -0.3343  0.0371
  745MOL0     C98214   7.850   9.379  10.556 -0.0852 -0.6710 -0.6714
  745MOL0     C98215   7.745   9.451  10.612 -0.4589 -0.3108  0.3311
  745MOL0     O98216   7.613   9.403  10.634  0.0404  0.1346  0.1384
  745MOL0     C98217   7.609   9.261  10.645 -0.0550  0.4234 -0.0425
  745MOL0     C98218   7.489   9.220  10.722  0.2009  0.6898  0.0693
  745MOL0     C98219   7.341   9.204  10.667 -0.4487  0.0870 -0.2362
  745MOL0     C98220   7.254   9.123  10.762 -0.1430 -0.5091 -0.3191
  745MOL0     C98221   7.126   9.077  10.689  0.3948 -0.3586 -0.7752
  745MOL0     C98222   7.040   9.192  10.633 -0.3337 -0.5504  0.1820
  745MOL0     C98223   6.913   9.135  10.573  0.5371  0.0226 -0.4174
  745MOL0     C98224   6.935   9.095  10.425 -0.1511 -0.1376  0.5553
  745MOL0     N98225   6.791   9.070  10.372 -0.2534 -0.0930 -1.0649
  745MOL0     C98226   6.702   9.164  10.317 -0.1288 -0.1368  0.1880
  745MOL0     C98227   6.603   9.089  10.269 -0.1209  0.5515  0.1590
  745MOL0     C98228   6.479   9.131  10.203 -0.0807 -0.7725 -0.4779
  745MOL0     C98229   6.354   9.098  10.289 -0.3807 -0.9489  0.3392
  745MOL0     C98230   6.230   9.144  10.221  0.2450  0.0725  0.1076
  745MOL0     C98231   6.102   9.105  10.283 -0.5206 -0.0505 -0.0358
  745MOL0     O98232   6.011   9.184  10.218 -0.7919 -0.4994  0.7498
  745MOL0     C98233   5.880   9.180  10.258 -0.2913 -0.2899  0.2841
  745MOL0     C98234   5.825   9.077  10.332  0.1382  0.0132  0.1210
  745MOL0     C98235   5.692   9.078  10.375  0.2770  0.0317  0.2127
  745MOL0     C98236   5.609   9.189  10.341 -0.0681 -0.3343 -0.3159
  745MOL0     C98237   5.481   9.203  10.402 -0.0994  0.9563  1.2834
  745MOL0     O98238   5.436   9.106  10.483 -0.1451  1.0089 -0.0448
  745MOL0     C98239   5.306   9.110  10.527 -0.2450 -0.1666  0.6031
  745MOL0     C98240   5.278   9.113  10.667  0.0001  0.4379 -0.1285
  745MOL0     C98241   5.149   9.118  10.726 -0.5105 -0.3758  0.1724
  745MOL0     C98242   5.047   9.113  10.633  0.5226  0.5224 -0.9195
  745MOL0     O98243   4.923   9.130  10.681  0.0857  0.0931 -0.0397
  745MOL0     C98244   4.810   9.163  10.596 -0.1017  0.7574  0.4869
  745MOL0     C98245   4.818   9.310  10.547 -0.7144  0.3120 -0.4591
  745MOL0     C98246   4.804   9.413  10.649 -0.2476  0.2367 -1.5149
  745MOL0     C98247   4.785   9.545  10.587 -0.5639 -0.3954  0.6421
  745MOL0     C98248   4.774   9.657  10.690 -0.0969 -0.4185  0.3022
  745MOL0     C98249   4.805   9.786  10.619 -0.2519  0.1865  0.2879
  745MOL0     C98250   4.767   9.903  10.711 -0.4307 -0.4142  0.2552
  745MOL0     C98251   4.874  10.021  10.721 -0.1077 -0.1981  0.2922
  745MOL0    Cl98252   4.820  10.118  10.866 -0.2245 -0.3458 -0.0628
  745MOL0     C98253   5.071   9.093  10.497  0.3430 -0.4684 -0.1455
  745MOL0     C98254   5.201   9.102  10.437 -0.4373 -0.7542  0.2904
  745MOL0     O98255   5.426   9.316  10.390  0.1687  0.0210 -0.6531
  745MOL0     C98256   5.671   9.299  10.284 -0.8243 -0.1093  0.1358
  745MOL0     C98257   5.799   9.293  10.236  0.2753 -0.7890  0.1417
  745MOL0     N98258   6.631   8.956  10.302 -0.5738  0.1372  0.3213
  745MOL0     N98259   6.737   8.946  10.366 -0.6956 -0.4158  0.5156
  745MOL0     C98260   7.763   9.585  10.648 -0.7026  1.1214 -0.0010
  745MOL0     C98261   7.889   9.634  10.629  0.0497 -0.7798 -0.0917
  745MOL0     C98262   8.360   9.653  10.619 -0.7637  0.9519  0.7396
  745MOL0     C98263   8.483   9.595  10.650 -0.5840 -0.3067  0.6085
  745MOL0     C98264   8.593   9.689  10.646 -0.1987  0.3221  0.5926
  745MOL0     C98265   8.586   9.824  10.613 -0.6186  0.3571  0.4227
  745MOL0     O98266   8.703   9.893  10.615 -0.4998 -0.2247  1.0114
  745MOL0     C98267   8.694  10.040  10.614 -0.3497 -0.1271  0.5789
  745MOL0     C98268   8.831  10.108  10.591  0.3245 -0.5828  0.4533
  745MOL0     C98269   8.922  10.111  10.717  0.6253 -0.0726  1.3131
  745MOL0     C98270   9.026  10.219  10.712  0.4874 -0.3567  0.3404
  745MOL0     C98271   9.104  10.221  10.838 -0.0750  0.5768 -0.2891
  745MOL0     C98272   9.186  10.213  10.935 -1.1746  0.4370  0.9278
  745MOL0     C98273   8.454   9.878  10.587 -0.5677 -0.4518 -0.2553
  745MOL0     C98274   8.353   9.793  10.585  0.0779  0.6084  0.8560
  745MOL0     H98275   8.062   9.366  10.505 -0.3046 -0.6542 -0.7769
  745MOL0     H98276   7.828   9.274  10.545  1.3952 -0.9420 -1.3119
  745MOL0     H98277   7.697   9.216  10.691 -1.1131 -1.3751  0.3187
  745MOL0     H98278   7.602   9.228  10.540  1.6378  1.7516 -0.6177
  745MOL0     H98279   7.473   9.284  10.810  2.7327  0.8240  0.5208
  745MOL0     H98280   7.508   9.120  10.762 -3.9340  0.5602  2.2789
  745MOL0     H98281   7.348   9.170  10.563  1.4460  1.8547 -0.7568
  745MOL0     H98282   7.301   9.305  10.656 -2.3104 -0.3131  2.0986
  745MOL0     H98283   7.305   9.040  10.811  0.3012  0.4770  0.9474
  745MOL0     H98284   7.218   9.180  10.849  0.1390  0.5873 -0.9027
  745MOL0     H98285   7.067   9.012  10.754 -2.5337 -0.1746 -3.0260
  745MOL0     H98286   7.150   9.015  10.602 -0.0352 -1.4897 -0.1012
  745MOL0     H98287   7.096   9.259  10.567  0.6499 -0.7046  0.8352
  745MOL0     H98288   7.004   9.250  10.719  1.7755 -0.2176  0.8951
  745MOL0     H98289   6.888   9.050  10.636 -0.2535  0.3930 -0.2200
  745MOL0     H98290   6.829   9.205  10.583 -0.9061 -1.8627  1.3939
  745MOL0     H98291   6.981   8.996  10.426 -1.5548 -0.8218 -0.3345
  745MOL0     H98292   7.007   9.159  10.372  0.5658 -1.5605 -0.2540
  745MOL0     H98293   6.721   9.271  10.326  0.1746 -0.3658  3.3772
  745MOL0     H98294   6.472   9.073  10.111 -5.2066 -0.9988 -0.2182
  745MOL0     H98295   6.477   9.239  10.185  1.0362 -0.8010 -0.8481
  745MOL0     H98296   6.364   9.147  10.387 -0.3146  2.0325 -1.0653
  745MOL0     H98297   6.346   8.989  10.295  0.0019 -0.9642  0.6357
  745MOL0     H98298   6.238   9.251  10.201 -0.1023  0.0359 -0.2323
  745MOL0     H98299   6.243   9.102  10.121  4.4977  0.1952  0.4400
  745MOL0     H98300   6.108   9.126  10.391  0.9503  4.0816 -0.7169
  745MOL0     H98301   6.095   8.998  10.261  2.8591 -0.9816  2.3885
  745MOL0     H98302   5.880   8.987  10.358 -0.9270 -1.3641 -2.0537
  745MOL0     H98303   5.642   8.996  10.426  0.2079 -0.3214 -0.4151
  745MOL0     H98304   5.364   9.110  10.733 -0.6448 -0.1073  0.7022
  745MOL0     H98305   5.135   9.130  10.833 -0.3223 -0.0494  0.1614
  745MOL0     H98306   4.712   9.140  10.640  0.0565 -2.3691 -0.5550
  745MOL0     H98307   4.813   9.102  10.505  0.3828  0.3731  0.7595
  745MOL0     H98308   4.745   9.315  10.466  2.3080 -1.1172 -3.5109
  745MOL0     H98309   4.915   9.319  10.498 -1.0932 -2.6834 -2.0317
  745MOL0     H98310   4.891   9.424  10.714 -2.1085  2.2248  0.8541
  745MOL0     H98311   4.722   9.394  10.718  1.2199 -0.2892  0.1536
  745MOL0     H98312   4.870   9.565  10.521 -1.0303 -1.9845 -0.4867
  745MOL0     H98313   4.697   9.554  10.523 -0.5576 -1.2953  0.4988
  745MOL0     H98314   4.842   9.628  10.770 -0.1210 -0.7150  0.2195
  745MOL0     H98315   4.677   9.649  10.741 -0.4730 -1.2421 -0.5050
  745MOL0     H98316   4.745   9.796  10.528  0.0421 -3.8972 -0.5161
  745MOL0     H98317   4.912   9.795  10.598  0.1708 -0.4055  1.9987
  745MOL0     H98318   4.670   9.940  10.675 -0.8398 -0.6658  1.0804
  745MOL0     H98319   4.758   9.875  10.816 -1.4800  1.5626  0.7468
  745MOL0     H98320   4.893  10.078  10.630  0.4314  1.9638  1.6769
  745MOL0     H98321   4.965   9.967  10.749  0.3461  0.1353 -0.5180
  745MOL0     H98322   4.993   9.097  10.421  1.5824 -0.3616 -1.4476
  745MOL0     H98323   5.204   9.093  10.329  0.6475  3.1754 -0.1744
  745MOL0     H98324   5.624   9.396  10.273 -1.5124 -0.5975 -1.5916
  745MOL0     H98325   5.851   9.370  10.179 -0.6386 -1.4410 -1.6473
  745MOL0     H98326   7.685   9.649  10.689 -0.5218 -0.1870  2.5537
  745MOL0     H98327   7.899   9.740  10.650 -3.4375 -0.1855 -0.7940
  745MOL0     H98328   8.488   9.488  10.665 -0.8272 -0.3798  0.1802
  745MOL0     H98329   8.692   9.643  10.645 -0.4991 -0.3318  0.0139
  745MOL0     H98330   8.657  10.083  10.708  2.6621  2.8342  0.6132
  745MOL0     H98331   8.637  10.072  10.526  1.2982  0.0394 -0.4804
  745MOL0     H98332   8.885  10.071  10.503 -1.7330  0.7693 -1.5100
  745MOL0     H98333   8.804  10.210  10.562  1.0730 -0.2172  1.0166
  745MOL0     H98334   8.973  10.015  10.728  0.1859 -0.7185 -1.4888
  745MOL0     H98335   8.848  10.123  10.796 -0.2358  3.5636  0.1440
  745MOL0     H98336   9.107  10.200  10.641 -0.3200  1.0082 -1.0145
  745MOL0     H98337   8.982  10.315  10.683  1.6993  0.2444  0.4091
  745MOL0     H98338   9.264  10.219  11.008  1.3113  2.6058 -1.6558
  745MOL0     H98339   8.438   9.981  10.559 -1.4163 -0.1321  1.2923
  745MOL0     H98340   8.260   9.843  10.559  0.1517 -0.4071 -1.6780
  746MOL0     O98341   5.952   6.252   7.716  0.3709 -0.4738  0.0978
  746MOL0     C98342   6.039   6.191   7.774 -0.0032  0.6806  0.2955
  746MOL0     O98343   6.014   6.093   7.870 -0.0808 -0.0237  0.7327
  746MOL0     C98344   5.905   6.011   7.874 -0.1369  0.0382 -0.3420
  746MOL0     C98345   5.884   5.942   7.989 -0.8806  1.2456  0.1350
  746MOL0     C98346   5.769   5.867   8.010  0.1846 -0.1563  0.2014
  746MOL0     C98347   5.671   5.854   7.907  0.3618 -0.6854  0.2159
  746MOL0     O98348   5.555   5.793   7.939 -0.0056 -0.2113  0.1869
  746MOL0     C98349   5.507   5.699   7.842 -0.0999  0.1856  0.2558
  746MOL0     C98350   5.402   5.625   7.908  0.6952  1.1796  0.0346
  746MOL0     C98351   5.251   5.658   7.874  0.9903 -0.6386  0.4075
  746MOL0     C98352   5.162   5.568   7.957 -0.8711  0.6434 -0.0373
  746MOL0     C98353   5.022   5.535   7.899 -0.1131  0.4575  0.1747
  746MOL0     C98354   4.926   5.508   8.008  0.2188 -0.2534 -0.0670
  746MOL0     C98355   4.781   5.551   7.957 -0.2058  0.1588 -0.3443
  746MOL0     C98356   4.663   5.535   8.055  0.2019  0.5956 -0.2302
  746MOL0     N98357   4.666   5.409   8.130 -0.2792  0.3202  0.1772
  746MOL0     C98358   4.639   5.283   8.080  1.0333  0.0642  1.4702
  746MOL0     C98359   4.620   5.208   8.189  0.1846 -0.2446  0.1435
  746MOL0     C98360   4.576   5.063   8.184  0.0964 -0.5965 -0.7101
  746MOL0     C98361   4.420   5.046   8.201 -0.3557  0.1351  0.2378
  746MOL0     C98362   4.396   4.904   8.262 -0.2106  0.1175  0.5657
  746MOL0     C98363   4.246   4.875   8.250 -0.2829 -0.5459 -0.0126
  746MOL0     O98364   4.209   4.801   8.372 -0.2103 -0.5079  0.6456
  746MOL0     C98365   4.081   4.746   8.383 -0.2228  0.0372  0.2874
  746MOL0     C98366   4.059   4.660   8.491 -0.0992  0.4564 -0.1809
  746MOL0     C98367   3.935   4.594   8.502 -0.1580 -0.1598 -0.0034
  746MOL0     C98368   3.827   4.629   8.418  0.0600  0.0546  0.0206
  746MOL0     C98369   3.690   4.581   8.458  0.5003  0.4439 -0.1630
  746MOL0     O98370   3.662   4.555   8.587  0.2388  0.2931 -0.1601
  746MOL0     C98371   3.534   4.509   8.600 -0.2710  0.4162  0.1247
  746MOL0     C98372   3.454   4.565   8.698  0.2368  0.4781  0.1916
  746MOL0     C98373   3.334   4.513   8.725 -0.9254  1.1035 -0.5592
  746MOL0     C98374   3.301   4.388   8.663  0.1801  0.1198 -0.9803
  746MOL0     O98375   3.188   4.321   8.692  0.5819  0.6427 -0.4328
  746MOL0     C98376   3.109   4.338   8.811  0.0921  0.5876  0.6182
  746MOL0     C98377   3.006   4.216   8.816 -0.2969 -0.4535 -0.5246
  746MOL0     C98378   2.918   4.242   8.934  0.0688  0.6662 -0.0377
  746MOL0     C98379   2.821   4.116   8.955 -1.3476 -0.3779  0.0968
  746MOL0     C98380   2.686   4.137   9.031  0.0103  0.3125 -0.6550
  746MOL0     C98381   2.587   4.026   9.003  0.0475 -0.7413  0.5597
  746MOL0     C98382   2.446   4.050   9.063 -0.0856 -1.0753  0.1350
  746MOL0     C98383   2.469   4.077   9.214  1.0449 -0.0807 -0.5391
  746MOL0    Cl98384   2.307   4.059   9.302  0.1307  0.1826 -0.3782
  746MOL0     C98385   3.391   4.318   8.578  0.5276  0.5319 -0.2150
  746MOL0     C98386   3.506   4.380   8.541  0.0298  0.7769 -0.9071
  746MOL0     O98387   3.608   4.576   8.368 -0.8108 -0.2729  0.4656
  746MOL0     C98388   3.850   4.705   8.310  0.0454 -0.3015 -0.1124
  746MOL0     C98389   3.981   4.764   8.295  0.5550 -0.2290 -0.2553
  746MOL0     N98390   4.633   5.287   8.302 -0.0000  0.2270  0.1054
  746MOL0     N98391   4.676   5.407   8.267  0.4508  0.2829 -0.0538
  746MOL0     C98392   5.697   5.916   7.785 -0.7112 -0.3591 -0.4486
  746MOL0     C98393   5.815   5.991   7.770 -0.0127 -0.4820  0.9462
  746MOL0     C98394   6.179   6.236   7.768  0.3546 -0.3039 -0.5794
  746MOL0     C98395   6.211   6.365   7.723 -0.0687 -0.0459 -0.2876
  746MOL0     C98396   6.341   6.403   7.698 -0.4177 -0.1672  0.1940
  746MOL0     C98397   6.445   6.318   7.743  0.5109  0.4607  0.0493
  746MOL0     O98398   6.573   6.364   7.725  0.4070 -0.3210  0.2645
  746MOL0     C98399   6.679   6.265   7.744  0.2251 -0.2611 -0.1297
  746MOL0     C98400   6.805   6.340   7.728  0.7156 -0.2254 -0.3963
  746MOL0     C98401   6.925   6.267   7.798  0.6856 -0.5759  0.1207
  746MOL0     C98402   7.065   6.332   7.785 -0.1811 -0.3057 -0.3911
  746MOL0     C98403   7.138   6.313   7.656 -0.2444 -0.2985  0.2874
  746MOL0     C98404   7.187   6.304   7.542  1.1164 -0.7916 -0.0487
  746MOL0     C98405   6.414   6.187   7.786  0.6625  0.0582 -0.1221
  746MOL0     C98406   6.284   6.150   7.798  0.1370  0.0370 -0.0278
  746MOL0     H98407   5.962   5.958   8.063 -0.9619 -0.1556  0.5520
  746MOL0     H98408   5.774   5.824   8.110  2.8112 -1.1503 -0.2755
  746MOL0     H98409   5.594   5.643   7.807  0.5388  1.1143  0.3230
  746MOL0     H98410   5.459   5.740   7.753 -0.8519  0.2600  0.6871
  746MOL0     H98411   5.426   5.614   8.014  0.4249  0.6320  0.0439
  746MOL0     H98412   5.412   5.522   7.872 -0.2256  1.0915 -0.0003
  746MOL0     H98413   5.248   5.630   7.768 -0.8888 -1.5964  0.6638
  746MOL0     H98414   5.227   5.764   7.880  2.2149 -0.3664  0.9189
  746MOL0     H98415   5.205   5.469   7.970  1.4724  1.2808 -2.1249
  746MOL0     H98416   5.151   5.620   8.053  0.4024  0.6250  0.1436
  746MOL0     H98417   5.018   5.446   7.835 -1.9247 -1.4377  2.7093
  746MOL0     H98418   4.990   5.616   7.833  0.5151 -1.0336 -2.0877
  746MOL0     H98419   4.949   5.563   8.100 -1.9365  2.2517 -0.9120
  746MOL0     H98420   4.922   5.400   8.022  3.0711 -0.3506  0.6629
  746MOL0     H98421   4.792   5.654   7.921 -1.9756 -0.0215 -1.5008
  746MOL0     H98422   4.769   5.493   7.865  2.2464 -1.3888  0.1972
  746MOL0     H98423   4.566   5.532   8.004  0.1138  1.6428 -0.1580
  746MOL0     H98424   4.663   5.614   8.131  0.0420 -0.6568  1.1322
  746MOL0     H98425   4.625   5.257   7.975  1.2553  2.1114  0.8895
  746MOL0     H98426   4.623   5.009   8.267 -1.3660 -0.5676  0.1632
  746MOL0     H98427   4.609   5.004   8.097  1.5175  2.1733 -2.1597
  746MOL0     H98428   4.379   5.067   8.102 -1.0392 -0.9190  0.2739
  746MOL0     H98429   4.378   5.119   8.271  0.3032 -1.4832  2.4606
  746MOL0     H98430   4.446   4.828   8.201 -0.9198  0.0813  0.0211
  746MOL0     H98431   4.430   4.913   8.366 -1.1536  2.2734  0.7440
  746MOL0     H98432   4.228   4.821   8.157 -0.1154  1.1613 -1.0919
  746MOL0     H98433   4.179   4.962   8.240 -0.4296 -0.1617  3.3038
  746MOL0     H98434   4.138   4.621   8.554 -0.9983 -0.0640  0.6626
  746MOL0     H98435   3.909   4.533   8.589 -0.9829  1.9114  1.2810
  746MOL0     H98436   3.485   4.654   8.752 -1.7206  0.8812  0.7344
  746MOL0     H98437   3.264   4.565   8.789  0.0878  1.2893  0.4399
  746MOL0     H98438   3.058   4.433   8.797 -0.4501  0.4490  1.6094
  746MOL0     H98439   3.172   4.350   8.899  2.0187 -0.5626 -0.5205
  746MOL0     H98440   3.065   4.124   8.826 -1.6765 -1.5079 -1.6792
  746MOL0     H98441   2.953   4.198   8.722 -2.5524  1.5592  0.2736
  746MOL0     H98442   2.860   4.332   8.907 -1.1230  0.0339  0.3333
  746MOL0     H98443   2.981   4.256   9.022  4.3169 -1.1745 -2.4991
  746MOL0     H98444   2.803   4.087   8.851  0.5605  0.8737 -0.6424
  746MOL0     H98445   2.881   4.040   9.007  0.6190  1.3746  0.5101
  746MOL0     H98446   2.643   4.236   9.018  2.2527  2.0691  3.3527
  746MOL0     H98447   2.699   4.131   9.139 -0.2459 -3.3191 -0.7091
  746MOL0     H98448   2.626   3.932   9.040  0.3675 -1.7178 -2.0286
  746MOL0     H98449   2.571   4.023   8.894  0.9836  2.9734  0.1696
  746MOL0     H98450   2.387   4.129   9.017 -0.9319 -1.1295  1.0822
  746MOL0     H98451   2.389   3.957   9.053 -3.6612  0.9468  0.0319
  746MOL0     H98452   2.500   4.180   9.236  3.7771 -0.3423 -2.5552
  746MOL0     H98453   2.543   4.007   9.253  0.4658 -1.2114 -1.4259
  746MOL0     H98454   3.346   4.231   8.530 -0.7415  0.6004  0.8058
  746MOL0     H98455   3.576   4.325   8.478 -0.0521  0.3152 -0.6020
  746MOL0     H98456   3.761   4.732   8.253 -0.4942  1.5413  1.4804
  746MOL0     H98457   3.994   4.832   8.211  3.7744 -0.8490 -0.3990
  746MOL0     H98458   5.622   5.910   7.707 -2.4474 -1.4820  1.2378
  746MOL0     H98459   5.842   6.024   7.670 -0.1580 -1.0547  0.7168
  746MOL0     H98460   6.123   6.428   7.712 -1.4337 -1.6945  0.6975
  746MOL0     H98461   6.375   6.500   7.663 -0.2704  0.1524  1.2110
  746MOL0     H98462   6.671   6.179   7.677 -1.7935 -0.0456 -0.2335
  746MOL0     H98463   6.672   6.229   7.847 -0.4077  1.3890  0.4383
  746MOL0     H98464   6.821   6.357   7.621 -0.9417 -0.9495 -0.7850
  746MOL0     H98465   6.789   6.440   7.771 -1.1183  0.0409 -1.5838
  746MOL0     H98466   6.925   6.164   7.763 -3.0937 -0.3954 -0.8779
  746MOL0     H98467   6.901   6.265   7.905 -0.5537 -2.0514 -0.1503
  746MOL0     H98468   7.051   6.439   7.803 -3.7700 -0.6919 -0.0785
  746MOL0     H98469   7.122   6.285   7.866 -3.5936 -3.4951  0.4430
  746MOL0     H98470   7.244   6.291   7.452  1.8520 -0.6122  0.3822
  746MOL0     H98471   6.479   6.108   7.822  1.1942  1.1220  1.3483
  746MOL0     H98472   6.265   6.059   7.855 -2.2915  1.5198  1.7257
  747MOL0     O98473   9.519   1.090   9.792 -0.0589 -0.6469  0.8342
  747MOL0     C98474   9.628   1.144   9.802 -0.7233  0.0841  0.5229
  747MOL0     O98475   9.650   1.273   9.794 -0.0190 -0.0252  0.6732
  747MOL0     C98476   9.560   1.351   9.743  1.2551 -0.8600 -0.5459
  747MOL0     C98477   9.591   1.422   9.626 -0.0613 -0.0256  0.3351
  747MOL0     C98478   9.498   1.514   9.572 -0.7893 -0.4458  0.3844
  747MOL0     C98479   9.378   1.542   9.639 -0.3307  0.7804 -1.1721
  747MOL0     O98480   9.274   1.622   9.597  0.3988  0.2724 -0.2187
  747MOL0     C98481   9.289   1.721   9.497  0.4457 -0.8744  0.2825
  747MOL0     C98482   9.190   1.842   9.501 -0.5022  0.8596  0.3119
  747MOL0     C98483   9.063   1.798   9.430 -0.0991 -0.1000 -0.0630
  747MOL0     C98484   8.962   1.916   9.422 -0.3449  0.0326  0.4051
  747MOL0     C98485   8.822   1.858   9.399  0.1574 -0.1346 -0.4349
  747MOL0     C98486   8.715   1.958   9.358  0.3771  0.0207  0.8521
  747MOL0     C98487   8.629   2.015   9.465  0.4948  0.4399  0.3822
  747MOL0     C98488   8.519   1.920   9.493  0.3083  0.3884  0.4911
  747MOL0     N98489   8.429   1.968   9.601 -0.1423  0.4011 -0.1627
  747MOL0     C98490   8.351   1.877   9.669  0.0259  0.5860 -0.1874
  747MOL0     C98491   8.286   1.955   9.757  0.0913  0.3146  0.2675
  747MOL0     C98492   8.173   1.916   9.848 -0.3233  0.0940 -0.0523
  747MOL0     C98493   8.182   1.759   9.877  0.2318 -0.2426  0.0349
  747MOL0     C98494   8.108   1.724  10.010 -0.5609  0.4241  1.2664
  747MOL0     C98495   8.081   1.574  10.035  0.9361  0.1678  0.5701
  747MOL0     O98496   8.053   1.538  10.170 -0.3368  0.0174  0.0797
  747MOL0     C98497   7.935   1.598  10.217 -1.0101 -0.6571 -0.7772
  747MOL0     C98498   7.813   1.558  10.167  0.8385 -0.1712  0.2101
  747MOL0     C98499   7.695   1.618  10.226 -0.5912  0.1556  0.3398
  747MOL0     C98500   7.705   1.734  10.318  0.5991 -0.1593  0.8002
  747MOL0     C98501   7.589   1.815  10.349  0.6071  0.1947 -0.7519
  747MOL0     O98502   7.470   1.806  10.276 -0.3921  0.4630 -0.1302
  747MOL0     C98503   7.373   1.897  10.309  0.0497 -0.5065  0.3400
  747MOL0     C98504   7.272   1.862  10.395 -0.3222  0.2752  0.0170
  747MOL0     C98505   7.174   1.951  10.424  0.7007 -0.1103 -0.4831
  747MOL0     C98506   7.175   2.084  10.381  0.0094  0.2730 -0.9578
  747MOL0     O98507   7.070   2.163  10.417 -0.6616 -0.0797 -1.0487
  747MOL0     C98508   6.987   2.213  10.313 -0.2772  1.1781 -0.1150
  747MOL0     C98509   6.840   2.210  10.355  0.7581  0.0368  0.7909
  747MOL0     C98510   6.750   2.265  10.241  0.9548 -0.3092 -0.3119
  747MOL0     C98511   6.612   2.330  10.284 -0.7685  0.4393 -0.1351
  747MOL0     C98512   6.519   2.348  10.158  0.1654 -1.1098 -0.7957
  747MOL0     C98513   6.374   2.363  10.202  0.3501 -0.7239  0.0146
  747MOL0     C98514   6.275   2.360  10.083 -0.4036 -0.0244  0.5698
  747MOL0     C98515   6.146   2.431  10.124  0.0737  0.1834  0.7327
  747MOL0    Cl98516   6.013   2.376  10.014 -0.2315  0.3951 -0.3152
  747MOL0     C98517   7.287   2.132  10.311  0.1523 -0.3397 -0.3362
  747MOL0     C98518   7.385   2.034  10.273 -0.6634  0.2506  0.3235
  747MOL0     O98519   7.616   1.895  10.438 -0.0677 -0.4862 -0.4446
  747MOL0     C98520   7.837   1.764  10.362  0.6494  0.1446  0.5892
  747MOL0     C98521   7.947   1.692  10.317 -0.2815  0.0988  0.3112
  747MOL0     N98522   8.334   2.084   9.755  0.0023  0.7263  0.1830
  747MOL0     N98523   8.431   2.082   9.666  0.3982 -0.5031 -0.9258
  747MOL0     C98524   9.356   1.480   9.760 -0.1794  1.0240  0.4299
  747MOL0     C98525   9.441   1.389   9.813 -0.2606  0.2359  0.0033
  747MOL0     C98526   9.742   1.051   9.839  0.2383 -0.3400 -0.2430
  747MOL0     C98527   9.866   1.118   9.860 -0.3483 -0.4044  0.4804
  747MOL0     C98528   9.988   1.046   9.868 -0.1589  0.2757  0.6759
  747MOL0     C98529   9.983   0.907   9.871 -0.1259  0.3756  0.3886
  747MOL0     O98530  10.092   0.838   9.910  0.1856  0.3561 -0.2998
  747MOL0     C98531  10.114   0.710   9.847 -0.4773  0.4606 -0.3012
  747MOL0     C98532  10.241   0.643   9.890 -1.2125 -0.0183 -0.0579
  747MOL0     C98533  10.356   0.741   9.861 -0.2824  0.0208 -0.7507
  747MOL0     C98534  10.495   0.697   9.913 -1.3425  0.2239  0.1234
  747MOL0     C98535  10.600   0.804   9.884  0.2838  0.2238 -0.0275
  747MOL0     C98536  10.691   0.874   9.857 -0.4606 -0.5070 -0.4797
  747MOL0     C98537   9.859   0.840   9.865  0.2491 -0.4303  0.4865
  747MOL0     C98538   9.741   0.914   9.848  0.0967  0.1674 -0.0013
  747MOL0     H98539   9.691   1.413   9.585 -0.3500 -0.3134 -0.3063
  747MOL0     H98540   9.521   1.560   9.476  2.0196 -0.0159  1.1502
  747MOL0     H98541   9.274   1.674   9.399 -0.4701  0.0637 -0.0513
  747MOL0     H98542   9.388   1.768   9.496  0.0390  0.0450  1.4531
  747MOL0     H98543   9.239   1.923   9.446  3.6484 -1.0454  0.8255
  747MOL0     H98544   9.164   1.859   9.606 -2.2999 -3.4269  0.7509
  747MOL0     H98545   9.026   1.714   9.489  1.9584  0.2251  1.8513
  747MOL0     H98546   9.090   1.768   9.329 -0.3883 -2.9588  0.6428
  747MOL0     H98547   8.963   1.988   9.504  1.6439 -0.5647  0.9670
  747MOL0     H98548   8.989   1.970   9.331  1.6003  0.9206  1.4647
  747MOL0     H98549   8.802   1.811   9.496  0.1236  1.3911  0.3271
  747MOL0     H98550   8.821   1.776   9.327 -0.1991  0.4545 -1.1209
  747MOL0     H98551   8.659   1.905   9.281 -1.3560 -2.2842  3.4955
  747MOL0     H98552   8.775   2.040   9.318 -3.2504  1.6306 -1.7368
  747MOL0     H98553   8.689   2.040   9.553  1.1106 -2.9227  1.0534
  747MOL0     H98554   8.593   2.113   9.434  2.1631  0.8646 -0.3242
  747MOL0     H98555   8.565   1.826   9.525  0.0118  0.5339  1.3687
  747MOL0     H98556   8.464   1.892   9.402  0.5495 -3.8542  1.4767
  747MOL0     H98557   8.332   1.771   9.652  0.0267  0.4865  0.4219
  747MOL0     H98558   8.077   1.945   9.805 -1.4436  0.5583  2.5375
  747MOL0     H98559   8.181   1.974   9.941  1.0328  3.1927 -1.9641
  747MOL0     H98560   8.288   1.732   9.887  0.1491 -0.5872 -0.0082
  747MOL0     H98561   8.140   1.705   9.791 -1.0108 -0.9104  1.0407
  747MOL0     H98562   8.172   1.760  10.091  1.9254  0.5334 -0.6376
  747MOL0     H98563   8.017   1.783  10.020 -0.5337  0.3284  2.2272
  747MOL0     H98564   8.170   1.515  10.012  0.2196 -0.5263 -0.4885
  747MOL0     H98565   8.005   1.536   9.967 -0.4065  1.8898  1.0472
  747MOL0     H98566   7.802   1.467  10.109  2.0737  0.0794 -0.4477
  747MOL0     H98567   7.599   1.579  10.194 -2.5123  2.6003  2.6994
  747MOL0     H98568   7.270   1.757  10.425 -1.2185  0.1168 -0.5618
  747MOL0     H98569   7.102   1.921  10.499  1.3716  2.2732  1.2163
  747MOL0     H98570   7.000   2.154  10.222 -1.8224  1.4457 -0.5335
  747MOL0     H98571   7.023   2.312  10.283 -0.5971  1.1519 -0.6059
  747MOL0     H98572   6.821   2.275  10.441 -0.5730  1.5540 -0.5864
  747MOL0     H98573   6.815   2.105  10.371  0.3344 -0.3738 -2.0316
  747MOL0     H98574   6.729   2.184  10.170 -1.1843 -3.2256  3.3079
  747MOL0     H98575   6.799   2.340  10.177 -0.2987  0.4595 -0.4004
  747MOL0     H98576   6.570   2.245  10.339  1.5369 -1.4906 -1.1324
  747MOL0     H98577   6.626   2.422  10.341 -0.9853 -0.0082  0.6558
  747MOL0     H98578   6.540   2.263  10.092 -0.1189 -0.5714 -1.5924
  747MOL0     H98579   6.552   2.443  10.114 -2.6475  0.3149 -0.0518
  747MOL0     H98580   6.364   2.459  10.253 -0.3678 -0.1636 -1.1425
  747MOL0     H98581   6.342   2.288  10.275 -1.5315  1.2023  1.2899
  747MOL0     H98582   6.316   2.415   9.999 -0.9501 -0.3496  0.0823
  747MOL0     H98583   6.254   2.258  10.049  1.9312 -1.0168  1.8634
  747MOL0     H98584   6.155   2.539  10.112  2.0046 -0.1842 -1.9804
  747MOL0     H98585   6.113   2.405  10.226 -0.7757  2.9865  1.2709
  747MOL0     H98586   7.296   2.237  10.285 -1.1275  0.4176  1.9957
  747MOL0     H98587   7.465   2.057  10.204 -1.9673  0.3973 -1.2083
  747MOL0     H98588   7.853   1.854  10.421 -1.4453  0.7656  0.2955
  747MOL0     H98589   8.046   1.712  10.357  0.6618  0.2531 -1.9647
  747MOL0     H98590   9.265   1.503   9.815 -1.3742  1.6591 -1.7045
  747MOL0     H98591   9.409   1.335   9.901  1.8980 -0.3256  0.5172
  747MOL0     H98592   9.874   1.225   9.850  3.7009 -0.7063 -1.4485
  747MOL0     H98593  10.073   1.112   9.876 -0.0873  0.0818  1.6352
  747MOL0     H98594  10.105   0.701   9.738 -2.5473 -4.9514 -0.0155
  747MOL0     H98595  10.039   0.637   9.879  0.4175 -0.1242  0.5017
  747MOL0     H98596  10.243   0.607   9.994  2.3718  1.9470  0.7124
  747MOL0     H98597  10.258   0.550   9.834 -0.3187  0.3451 -0.4088
  747MOL0     H98598  10.340   0.839   9.908  0.9575 -0.3494  0.5216
  747MOL0     H98599  10.364   0.748   9.752  0.4575 -1.8942 -0.8610
  747MOL0     H98600  10.487   0.661  10.016 -0.1103 -0.0726  0.1383
  747MOL0     H98601  10.512   0.601   9.863  0.5935  0.5720  0.0349
  747MOL0     H98602  10.787   0.913   9.828  0.1412 -1.7997 -0.2987
  747MOL0     H98603   9.846   0.733   9.866  1.4593 -0.6079 -0.3146
  747MOL0     H98604   9.654   0.857   9.818 -0.9589  2.1184 -0.8348
  748MOL0     O98605  10.155   0.379  10.700 -0.1404  0.0167  0.0459
  748MOL0     C98606  10.179   0.260  10.714  0.0978  0.0996 -0.2788
  748MOL0     O98607  10.079   0.165  10.709 -0.6343  0.7233 -0.4428
  748MOL0     C98608   9.955   0.208  10.665 -0.1146  0.9949 -0.3583
  748MOL0     C98609   9.904   0.186  10.538  0.7607  0.6038  0.7618
  748MOL0     C98610   9.769   0.221  10.512  0.1362  0.2952  0.5507
  748MOL0     C98611   9.683   0.278  10.604  0.0285  0.9204 -0.6118
  748MOL0     O98612   9.555   0.321  10.592  0.2175  0.5312 -0.2806
  748MOL0     C98613   9.492   0.304  10.465 -0.4066  0.3005 -0.8453
  748MOL0     C98614   9.340   0.325  10.501  0.8497 -0.7967 -0.4316
  748MOL0     C98615   9.245   0.293  10.393 -0.1340  0.1915 -0.2202
  748MOL0     C98616   9.106   0.357  10.416 -1.0538 -0.0344 -0.1933
  748MOL0     C98617   9.009   0.323  10.303 -0.3459 -0.3192 -0.6099
  748MOL0     C98618   8.874   0.396  10.306  0.6179  1.0321  0.0095
  748MOL0     C98619   8.771   0.347  10.199  0.1450 -0.3513 -0.4899
  748MOL0     C98620   8.708   0.201  10.215 -1.3538 -0.1939 -0.0613
  748MOL0     N98621   8.583   0.199  10.141 -0.3059 -0.0716  0.2027
  748MOL0     C98622   8.568   0.205  10.004  0.3662 -0.3573  0.4984
  748MOL0     C98623   8.432   0.206   9.997  0.0531 -0.8001  0.1042
  748MOL0     C98624   8.362   0.214   9.868 -0.1585 -0.0333 -0.0021
  748MOL0     C98625   8.419   0.128   9.749  0.2776 -0.9902 -0.2179
  748MOL0     C98626   8.404  -0.023   9.772  0.0687 -0.0619 -1.0679
  748MOL0     C98627   8.471  -0.108   9.663  0.0732 -0.5078 -0.2192
  748MOL0     O98628   8.472  -0.243   9.708 -0.1942 -0.4357  0.0017
  748MOL0     C98629   8.355  -0.307   9.730  0.1879 -0.2580  0.1392
  748MOL0     C98630   8.366  -0.408   9.819 -0.0038  0.3426 -1.3546
  748MOL0     C98631   8.248  -0.470   9.871 -0.4911 -0.7109 -0.1684
  748MOL0     C98632   8.123  -0.441   9.824 -0.6242  0.0359 -0.1223
  748MOL0     C98633   7.998  -0.503   9.875 -0.0685 -0.1384  0.3754
  748MOL0     O98634   7.879  -0.441   9.856  0.1771 -0.0937  0.1262
  748MOL0     C98635   7.768  -0.517   9.842  0.2032  0.1654 -0.5503
  748MOL0     C98636   7.653  -0.439   9.841  0.4792 -0.3153  0.3366
  748MOL0     C98637   7.525  -0.503   9.813  0.0242  0.6023  0.6632
  748MOL0     C98638   7.517  -0.634   9.782 -0.2726  0.1571 -0.1929
  748MOL0     O98639   7.396  -0.678   9.742  0.2274 -0.2306  0.5279
  748MOL0     C98640   7.391  -0.767   9.627  0.4568  1.1691 -0.5519
  748MOL0     C98641   7.345  -0.901   9.682 -0.1967  1.2513 -0.2075
  748MOL0     C98642   7.202  -0.891   9.742 -0.5907 -0.2936  0.4720
  748MOL0     C98643   7.153  -1.021   9.809 -0.5992 -0.0027  0.0487
  748MOL0     C98644   7.000  -1.005   9.825  0.4654 -0.2663  0.7297
  748MOL0     C98645   6.943  -1.122   9.907 -0.3400  0.6618 -0.3370
  748MOL0     C98646   6.814  -1.182   9.859  0.2602  0.3903  0.1218
  748MOL0     C98647   6.742  -1.270   9.968 -0.0598 -0.2027 -0.1690
  748MOL0    Cl98648   6.613  -1.160  10.037 -0.1486 -0.2453  0.4415
  748MOL0     C98649   7.632  -0.715   9.790  0.0151 -0.4978  0.4032
  748MOL0     C98650   7.753  -0.662   9.820 -0.7834 -0.4228  0.6499
  748MOL0     O98651   8.011  -0.604   9.946  0.4609  0.2051  0.3979
  748MOL0     C98652   8.117  -0.336   9.735 -0.4210 -0.4235  0.1617
  748MOL0     C98653   8.231  -0.276   9.681 -0.1038  0.0024 -0.4840
  748MOL0     N98654   8.365   0.219  10.113  0.1581 -0.0166 -0.1724
  748MOL0     N98655   8.462   0.220  10.202 -0.4696  0.2674  0.9577
  748MOL0     C98656   9.738   0.293  10.734  0.1126 -0.8597 -0.2572
  748MOL0     C98657   9.871   0.258  10.764 -0.0388 -0.5265 -0.6117
  748MOL0     C98658  10.323   0.225  10.721  0.0087  0.1476  0.3466
  748MOL0     C98659  10.421   0.323  10.733 -0.9417  0.2508 -0.3609
  748MOL0     C98660  10.555   0.281  10.761  0.8452 -0.2072 -0.0073
  748MOL0     C98661  10.591   0.148  10.774 -0.3061  0.5840  0.1215
  748MOL0     O98662  10.721   0.116  10.815 -0.3439 -0.2555  0.6974
  748MOL0     C98663  10.801   0.224  10.854 -0.0631  0.4813 -0.2304
  748MOL0     C98664  10.935   0.186  10.919 -0.9066  0.8970  0.1621
  748MOL0     C98665  11.003   0.064  10.856 -0.0012  0.6092 -0.3361
  748MOL0     C98666  11.148   0.034  10.915  0.0631  0.1481 -0.3830
  748MOL0     C98667  11.144   0.015  11.057 -0.5896  0.0139 -0.1928
  748MOL0     C98668  11.113   0.007  11.173 -0.7624 -0.4049 -0.4367
  748MOL0     C98669  10.501   0.052  10.743  0.3518  0.5602 -0.1555
  748MOL0     C98670  10.360   0.090  10.728  0.7471 -0.2926  0.0818
  748MOL0     H98671   9.969   0.159  10.455 -0.2188 -1.2423  0.5621
  748MOL0     H98672   9.733   0.207  10.410 -4.5704 -1.1259  2.1837
  748MOL0     H98673   9.509   0.202  10.428  0.4080 -0.8906  2.4265
  748MOL0     H98674   9.530   0.383  10.400  0.5000  0.5765 -0.0206
  748MOL0     H98675   9.315   0.424  10.540  0.2432 -2.8594  5.5060
  748MOL0     H98676   9.319   0.256  10.583 -0.5912 -0.3360 -0.3840
  748MOL0     H98677   9.243   0.184  10.382  2.8519 -0.0922  0.9841
  748MOL0     H98678   9.291   0.347  10.310  1.1371 -1.3073 -0.5305
  748MOL0     H98679   9.062   0.318  10.509  0.0471  0.0218  0.3639
  748MOL0     H98680   9.121   0.463  10.438  1.6388 -1.0915  4.3090
  748MOL0     H98681   8.994   0.215  10.297 -0.1422 -0.3425 -0.7268
  748MOL0     H98682   9.048   0.347  10.204  0.7673  1.5494  0.2298
  748MOL0     H98683   8.899   0.501  10.288 -1.9766  2.1546  2.2407
  748MOL0     H98684   8.827   0.381  10.403 -1.6282  2.0346 -0.8733
  748MOL0     H98685   8.693   0.422  10.204 -0.4395 -1.0046  0.8331
  748MOL0     H98686   8.821   0.362  10.103 -0.0370  2.0050 -0.2730
  748MOL0     H98687   8.691   0.195  10.323 -3.4336 -1.0794 -0.3935
  748MOL0     H98688   8.773   0.120  10.180  0.1710  0.5474  0.9357
  748MOL0     H98689   8.648   0.201   9.931  0.6440  1.3817  0.6669
  748MOL0     H98690   8.371   0.316   9.831 -0.0137  0.5156  1.4900
  748MOL0     H98691   8.257   0.186   9.883  0.0035 -1.6243 -1.4639
  748MOL0     H98692   8.523   0.152   9.727 -0.7737  0.0358 -5.4368
  748MOL0     H98693   8.363   0.151   9.658  1.9048  1.8111 -0.6067
  748MOL0     H98694   8.452  -0.042   9.868  1.0739  0.3731 -1.4693
  748MOL0     H98695   8.300  -0.052   9.791  0.4258 -0.9517 -0.3955
  748MOL0     H98696   8.578  -0.087   9.653  0.0584  0.3725  1.3374
  748MOL0     H98697   8.432  -0.107   9.560  1.4693 -1.4345 -0.7894
  748MOL0     H98698   8.463  -0.447   9.847  0.8862  2.5291 -1.2593
  748MOL0     H98699   8.265  -0.538   9.954 -3.3668 -1.5414 -0.1414
  748MOL0     H98700   7.664  -0.331   9.834  1.1075 -0.3392  0.8556
  748MOL0     H98701   7.434  -0.445   9.802  1.5637  2.9019 -0.8531
  748MOL0     H98702   7.491  -0.770   9.582  0.5674 -1.9469 -0.3026
  748MOL0     H98703   7.318  -0.721   9.560 -0.8943  0.8671  0.6735
  748MOL0     H98704   7.414  -0.934   9.760 -1.2625 -1.8056 -0.4246
  748MOL0     H98705   7.350  -0.976   9.602 -2.5410  1.0694 -0.2362
  748MOL0     H98706   7.126  -0.863   9.668  0.1446 -1.5146 -0.7768
  748MOL0     H98707   7.201  -0.816   9.822  1.2003 -0.4547  0.6859
  748MOL0     H98708   7.173  -1.099   9.736  1.7255  0.7253 -0.1801
  748MOL0     H98709   7.195  -1.049   9.906 -0.8788  2.0294  0.8034
  748MOL0     H98710   6.955  -1.000   9.726  2.2221  1.3834 -0.0572
  748MOL0     H98711   6.986  -0.906   9.871  1.4269 -0.5294  1.6222
  748MOL0     H98712   6.935  -1.094  10.012 -1.3148 -3.8242  0.9795
  748MOL0     H98713   7.021  -1.199   9.917 -1.0621  0.0623  0.9277
  748MOL0     H98714   6.753  -1.099   9.824 -2.1446 -0.8893  1.0198
  748MOL0     H98715   6.837  -1.260   9.785  3.0053 -3.2543  4.2724
  748MOL0     H98716   6.806  -1.292  10.054 -1.2398  1.3420  1.1629
  748MOL0     H98717   6.692  -1.356   9.924 -0.3475 -0.2902  0.3209
  748MOL0     H98718   7.630  -0.823   9.775  1.3115 -1.0238  3.2057
  748MOL0     H98719   7.836  -0.729   9.841 -0.0299  0.2798  0.0053
  748MOL0     H98720   8.029  -0.289   9.694  0.9901  1.9571 -0.3388
  748MOL0     H98721   8.232  -0.204   9.600  0.5205 -0.4199 -0.8615
  748MOL0     H98722   9.688   0.339  10.818  2.9182  0.1431  1.0121
  748MOL0     H98723   9.908   0.268  10.866 -2.1392  0.7099  0.0819
  748MOL0     H98724  10.406   0.428  10.757  0.4768  0.1423  1.2050
  748MOL0     H98725  10.609   0.372  10.785 -1.1327  1.2972 -0.9711
  748MOL0     H98726  10.746   0.288  10.924 -0.4187 -2.2805  2.2250
  748MOL0     H98727  10.815   0.270  10.756  1.3652 -1.8592 -1.1878
  748MOL0     H98728  11.002   0.271  10.911  2.1623 -1.2618  1.1050
  748MOL0     H98729  10.919   0.170  11.026 -0.5570  5.7215  1.1472
  748MOL0     H98730  11.022   0.086  10.750  0.1506 -1.9095 -0.9057
  748MOL0     H98731  10.936  -0.021  10.867 -0.4832  1.2319  2.2427
  748MOL0     H98732  11.192  -0.052  10.863  0.2929  1.2195 -2.0379
  748MOL0     H98733  11.216   0.116  10.890 -0.9697  1.5870  1.2978
  748MOL0     H98734  11.069  -0.016  11.268  1.6016 -3.3588  0.0997
  748MOL0     H98735  10.542  -0.048  10.742  1.6941  1.0710 -1.8580
  748MOL0     H98736  10.286   0.014  10.709  0.0557  0.3770  0.0753
  749MOL0     O98737   8.744  10.483  10.407 -0.6087 -0.4292  0.6559
  749MOL0     C98738   8.768  10.595  10.456 -0.5740  0.2142  1.4187
  749MOL0     O98739   8.677  10.698  10.485 -0.4254 -0.6411  0.3227
  749MOL0     C98740   8.548  10.687  10.445  0.0792 -0.9572  0.3214
  749MOL0     C98741   8.497  10.734  10.325  0.5622  0.1123 -0.3130
  749MOL0     C98742   8.365  10.703  10.284 -0.8330  0.2020 -0.3565
  749MOL0     C98743   8.279  10.637  10.375  0.7886  0.1260  0.4434
  749MOL0     O98744   8.141  10.615  10.361  0.3792 -0.4001 -0.5615
  749MOL0     C98745   8.066  10.709  10.274 -0.0566 -0.6403  0.2948
  749MOL0     C98746   7.910  10.692  10.308  0.9005  0.0392  0.1979
  749MOL0     C98747   7.863  10.546  10.295  0.9706  0.7231 -0.5132
  749MOL0     C98748   7.720  10.523  10.344 -0.2796 -0.2423 -0.0043
  749MOL0     C98749   7.612  10.547  10.239 -0.4285  0.1614  0.1078
  749MOL0     C98750   7.466  10.524  10.295 -0.4042 -0.0165  0.3265
  749MOL0     C98751   7.450  10.364  10.304  1.1387  0.2277 -1.0830
  749MOL0     C98752   7.313  10.325  10.377  0.2426 -0.5017 -0.5104
  749MOL0     N98753   7.199  10.371  10.294  0.0275  0.6564  0.3848
  749MOL0     C98754   7.084  10.432  10.343 -0.1334  0.2827 -0.0339
  749MOL0     C98755   7.000  10.450  10.234 -0.2788 -0.1668 -0.5564
  749MOL0     C98756   6.862  10.516  10.235 -0.0156  0.8900  0.4427
  749MOL0     C98757   6.761  10.399  10.211  0.0433  0.2873  0.1081
  749MOL0     C98758   6.616  10.447  10.228 -0.5057 -0.0731  0.3135
  749MOL0     C98759   6.522  10.336  10.168  0.2367 -0.2933  0.1480
  749MOL0     O98760   6.392  10.388  10.202  0.4999 -0.9909  0.7286
  749MOL0     C98761   6.282  10.318  10.166  0.5791  0.6265  0.2904
  749MOL0     C98762   6.275  10.193  10.107  0.3009  0.6548 -0.7129
  749MOL0     C98763   6.152  10.137  10.074  0.5979  0.0334  0.9900
  749MOL0     C98764   6.031  10.199  10.110 -0.2952  0.1356  0.2062
  749MOL0     C98765   5.896  10.134  10.074 -0.5971 -0.0153  0.2382
  749MOL0     O98766   5.785  10.193  10.119 -0.4740  0.1830 -0.1749
  749MOL0     C98767   5.654  10.158  10.099 -0.3054  1.3639 -0.2411
  749MOL0     C98768   5.611  10.095   9.978  0.1785  0.1371 -1.0331
  749MOL0     C98769   5.470  10.055   9.966 -0.8154  0.5839  0.0354
  749MOL0     C98770   5.375  10.076  10.068 -0.3777  0.3989  0.5682
  749MOL0     O98771   5.242  10.035  10.065 -0.2612 -0.2843  0.6572
  749MOL0     C98772   5.218   9.899  10.015 -0.4194 -0.4683  0.2093
  749MOL0     C98773   5.070   9.870  10.033 -0.5053 -0.1285  0.5198
  749MOL0     C98774   4.961   9.975   9.985 -0.3384  0.1626  0.2779
  749MOL0     C98775   4.825   9.928  10.038  0.1762 -0.1923  0.3647
  749MOL0     C98776   4.711  10.025   9.993  0.1534 -0.3654  0.3167
  749MOL0     C98777   4.593  10.022  10.089 -0.4240  0.0326 -0.2445
  749MOL0     C98778   4.522   9.887  10.089  0.1969 -0.7988  0.5330
  749MOL0     C98779   4.428   9.860  10.200  0.1976 -0.4264  0.4570
  749MOL0    Cl98780   4.531   9.840  10.343 -0.0454  0.1719 -0.4171
  749MOL0     C98781   5.420  10.152  10.172  0.0267  0.7165  0.3163
  749MOL0     C98782   5.554  10.194  10.192  0.8729  0.2902  0.3765
  749MOL0     O98783   5.906  10.040  10.001  0.9170 -0.0712 -0.3557
  749MOL0     C98784   6.038  10.309  10.178  0.2520  0.0515  0.2718
  749MOL0     C98785   6.159  10.368  10.206 -0.2128 -0.6120 -0.2433
  749MOL0     N98786   7.062  10.400  10.126  0.6438  0.6086 -0.5014
  749MOL0     N98787   7.184  10.357  10.157  0.5602  0.1459 -0.0071
  749MOL0     C98788   8.328  10.579  10.490  0.0410  0.4629 -0.0040
  749MOL0     C98789   8.465  10.615  10.526  0.3377  0.4508  0.2425
  749MOL0     C98790   8.918  10.613  10.469 -0.3877 -0.2985 -0.2053
  749MOL0     C98791   9.012  10.508  10.458  0.0296  0.1977  0.0497
  749MOL0     C98792   9.150  10.516  10.501 -0.1490 -0.2533  0.3457
  749MOL0     C98793   9.197  10.639  10.546  0.2933  0.1730 -0.2541
  749MOL0     O98794   9.331  10.671  10.577 -0.3548 -0.0813  0.2149
  749MOL0     C98795   9.426  10.565  10.598  0.4802  0.2907 -0.4563
  749MOL0     C98796   9.403  10.495  10.727 -0.2438 -0.3241  0.9288
  749MOL0     C98797   9.500  10.371  10.727  0.4750 -0.4827  0.8258
  749MOL0     C98798   9.532  10.320  10.863  0.1632 -0.5957 -0.3506
  749MOL0     C98799   9.545  10.180  10.871 -0.0287  0.1877 -0.7228
  749MOL0     C98800   9.552  10.063  10.883 -0.3561  0.2873  0.0563
  749MOL0     C98801   9.106  10.749  10.557 -0.2018 -0.1006 -0.6086
  749MOL0     C98802   8.972  10.729  10.527  1.0473  0.4962  0.1396
  749MOL0     H98803   8.561  10.785  10.254  1.5710  0.6673  0.9577
  749MOL0     H98804   8.331  10.746  10.191  1.4355  0.4876 -1.1342
  749MOL0     H98805   8.084  10.674  10.172 -0.4040  1.9236 -0.7166
  749MOL0     H98806   8.105  10.809  10.291 -3.3820  0.7773  0.4739
  749MOL0     H98807   7.851  10.745  10.233  3.1598 -2.3718 -3.5824
  749MOL0     H98808   7.885  10.732  10.407 -1.0415  1.6850 -0.9025
  749MOL0     H98809   7.917  10.480  10.364  1.2076 -0.5951 -1.8943
  749MOL0     H98810   7.887  10.500  10.199 -3.8678  0.5422 -1.9382
  749MOL0     H98811   7.711  10.419  10.375  1.0047 -0.9439 -1.8528
  749MOL0     H98812   7.706  10.595  10.425 -1.0372 -2.3663  1.8608
  749MOL0     H98813   7.632  10.486  10.151 -0.1758 -1.1730  1.0523
  749MOL0     H98814   7.626  10.652  10.212  0.5488  0.0860  0.2959
  749MOL0     H98815   7.390  10.566  10.229 -2.3111 -2.5433  0.7612
  749MOL0     H98816   7.465  10.570  10.394  0.3352  1.2741 -0.2415
  749MOL0     H98817   7.454  10.323  10.203 -0.5059 -0.4409 -0.8953
  749MOL0     H98818   7.524  10.316  10.368 -0.6485  1.1859  1.9262
  749MOL0     H98819   7.313  10.380  10.472 -0.1084  0.5034 -1.0748
  749MOL0     H98820   7.301  10.219  10.402  0.5957  0.1095  2.7465
  749MOL0     H98821   7.071  10.468  10.445  0.7174 -0.1163  0.2213
  749MOL0     H98822   6.840  10.585  10.152 -5.3813 -1.1431 -0.2687
  749MOL0     H98823   6.828  10.567  10.326 -1.0729  3.2458 -1.1519
  749MOL0     H98824   6.779  10.324  10.288 -0.9271  1.1974  1.2478
  749MOL0     H98825   6.784  10.366  10.109  0.9447  1.7528 -0.1981
  749MOL0     H98826   6.598  10.470  10.334 -0.1329 -0.6870  0.5162
  749MOL0     H98827   6.598  10.539  10.173 -1.1977  0.5286  1.4974
  749MOL0     H98828   6.537  10.242  10.221  0.9680 -0.2253  0.0786
  749MOL0     H98829   6.529  10.318  10.061 -0.8702 -2.9462  0.4539
  749MOL0     H98830   6.363  10.136  10.079  0.5574 -0.0786  1.4373
  749MOL0     H98831   6.155  10.048  10.013 -0.6801  1.8842 -2.0387
  749MOL0     H98832   5.677  10.086   9.892  0.9040 -0.6334 -0.4131
  749MOL0     H98833   5.429  10.015   9.874  0.0150  0.8392 -0.4470
  749MOL0     H98834   5.268   9.818  10.068 -1.7818 -1.9930 -0.7590
  749MOL0     H98835   5.244   9.893   9.909 -0.4792 -2.2447  0.2765
  749MOL0     H98836   5.055   9.864  10.141 -0.6392  2.6173  0.7035
  749MOL0     H98837   5.033   9.785   9.975 -5.1313  0.9091  1.5600
  749MOL0     H98838   4.957   9.986   9.876 -1.7410 -2.1742  0.0395
  749MOL0     H98839   5.006  10.064  10.030 -1.1046  1.5736 -1.6225
  749MOL0     H98840   4.787   9.829  10.014  1.8033 -0.8554  0.4115
  749MOL0     H98841   4.826   9.939  10.147  0.8508 -0.1486  0.3582
  749MOL0     H98842   4.686  10.005   9.888  1.0431  2.3138 -0.4787
  749MOL0     H98843   4.758  10.124   9.992 -1.5195  0.4656  0.4919
  749MOL0     H98844   4.523  10.100  10.059  0.1955  1.4431  1.8006
  749MOL0     H98845   4.630  10.039  10.190  2.3477 -0.5224 -1.0761
  749MOL0     H98846   4.472   9.879   9.993  0.6491  0.4126  0.1837
  749MOL0     H98847   4.595   9.806  10.079  0.7653 -0.1174 -1.1022
  749MOL0     H98848   4.380   9.765  10.178  0.9802 -0.1144 -3.1935
  749MOL0     H98849   4.350   9.936  10.212  0.9743  0.3334  0.8318
  749MOL0     H98850   5.359  10.175  10.258 -0.1046 -0.6925  0.6240
  749MOL0     H98851   5.590  10.255  10.274 -1.8849  1.4504  0.8350
  749MOL0     H98852   5.948  10.359  10.212  0.2221 -0.0106  0.2825
  749MOL0     H98853   6.167  10.458  10.267 -2.0089 -0.7893  0.3167
  749MOL0     H98854   8.262  10.532  10.562  1.8706 -1.3630  0.5908
  749MOL0     H98855   8.488  10.568  10.621 -2.2599 -1.4766  0.0162
  749MOL0     H98856   8.974  10.421  10.405 -0.1247 -0.4916  1.2632
  749MOL0     H98857   9.217  10.431  10.497 -2.1840 -2.2110  3.2494
  749MOL0     H98858   9.524  10.612  10.597 -0.3403  2.0651 -1.7842
  749MOL0     H98859   9.425  10.488  10.521  2.7201 -0.4929  0.2382
  749MOL0     H98860   9.436  10.568  10.802 -1.3378 -0.0405  1.1515
  749MOL0     H98861   9.296  10.479  10.746 -1.0947  1.1710 -1.9765
  749MOL0     H98862   9.592  10.399  10.675 -1.1636 -0.9347 -2.6023
  749MOL0     H98863   9.454  10.292  10.666  0.8118  1.1332 -1.6923
  749MOL0     H98864   9.622  10.373  10.896  0.3580 -0.3167 -1.3087
  749MOL0     H98865   9.461  10.349  10.941  1.4448  0.2725  0.5456
  749MOL0     H98866   9.572   9.959  10.897 -1.7054  0.1879  1.4218
  749MOL0     H98867   9.142  10.845  10.591 -1.3262  1.5132 -3.5673
  749MOL0     H98868   8.908  10.813  10.549  1.2989  0.5016  0.8934
  750MOL0     O98869  10.276   2.189   5.963  0.0828  0.6490  0.4648
  750MOL0     C98870  10.213   2.270   5.904  0.7929 -0.1236 -0.0138
  750MOL0     O98871  10.084   2.251   5.859  0.4429 -0.1436  0.1268
  750MOL0     C98872  10.025   2.128   5.852 -0.5270  0.1879  0.0650
  750MOL0     C98873  10.088   2.000   5.822  0.0046  0.6749 -0.5898
  750MOL0     C98874  10.010   1.887   5.800  0.5708 -0.4930 -0.1020
  750MOL0     C98875   9.873   1.895   5.821  0.4492 -0.1953  0.3264
  750MOL0     O98876   9.810   1.773   5.823  0.6862 -0.3880 -0.5134
  750MOL0     C98877   9.732   1.726   5.937 -0.1761 -0.0207  0.1732
  750MOL0     C98878   9.608   1.647   5.892  0.4413  0.2549 -1.2368
  750MOL0     C98879   9.484   1.731   5.892 -0.0446 -0.2616 -1.1652
  750MOL0     C98880   9.372   1.647   5.816  0.0705 -0.2959 -0.8129
  750MOL0     C98881   9.235   1.727   5.803  0.6875 -0.0744  0.6992
  750MOL0     C98882   9.133   1.673   5.704 -0.7209 -0.5054  0.2423
  750MOL0     C98883   8.998   1.745   5.719 -0.1593  0.9820 -0.7796
  750MOL0     C98884   8.897   1.680   5.627 -0.1354 -0.8329 -0.4324
  750MOL0     N98885   8.816   1.780   5.571 -0.1795 -0.3270  0.2954
  750MOL0     C98886   8.840   1.831   5.452  1.3709 -0.4998  0.4111
  750MOL0     C98887   8.716   1.886   5.413 -0.0325 -0.3710  0.5134
  750MOL0     C98888   8.683   1.973   5.296  0.2953  0.5553 -0.5697
  750MOL0     C98889   8.532   1.955   5.268  0.2732  0.0025  0.4911
  750MOL0     C98890   8.504   2.033   5.142 -0.0304  0.4718  0.8086
  750MOL0     C98891   8.351   2.038   5.124 -0.2705 -0.5156  0.7280
  750MOL0     O98892   8.294   2.142   5.040 -0.2182  0.5411 -0.2448
  750MOL0     C98893   8.163   2.138   5.027 -0.0181  0.9467 -0.1441
  750MOL0     C98894   8.105   2.060   4.938 -1.3350 -0.6190 -0.1215
  750MOL0     C98895   7.966   2.048   4.928 -0.6238  0.4656 -0.3483
  750MOL0     C98896   7.881   2.130   5.007 -0.6138  0.4997  0.8690
  750MOL0     C98897   7.739   2.105   4.986  0.5129  0.5806 -1.0947
  750MOL0     O98898   7.698   1.987   4.935 -0.5442  0.0503  0.1994
  750MOL0     C98899   7.560   1.959   4.953 -0.0583 -0.8463 -0.5247
  750MOL0     C98900   7.460   2.038   4.900  0.8933  0.3571 -0.3162
  750MOL0     C98901   7.328   1.994   4.904  0.3055 -0.2211 -0.3872
  750MOL0     C98902   7.294   1.879   4.970 -0.8465 -0.3735  1.0388
  750MOL0     O98903   7.173   1.825   4.972  0.2893 -0.6006  0.1811
  750MOL0     C98904   7.049   1.898   4.947  0.2165  0.1269  0.2752
  750MOL0     C98905   6.925   1.800   4.961  0.9350 -0.1723  0.0044
  750MOL0     C98906   6.934   1.731   5.085 -0.5137  0.4327  0.7423
  750MOL0     C98907   6.790   1.702   5.144  0.2224  0.3332  0.6809
  750MOL0     C98908   6.714   1.607   5.045 -0.6442  0.1365 -0.0390
  750MOL0     C98909   6.575   1.562   5.103  0.4913 -0.1633  0.5436
  750MOL0     C98910   6.528   1.432   5.031  0.0070 -0.5111 -0.3079
  750MOL0     C98911   6.379   1.421   5.072 -0.5928 -0.3264 -0.0695
  750MOL0    Cl98912   6.297   1.290   4.985 -0.4753 -0.0206 -0.2864
  750MOL0     C98913   7.397   1.795   5.011  0.4931 -0.0018  0.2510
  750MOL0     C98914   7.532   1.830   4.998  0.4759  0.2261 -0.5752
  750MOL0     O98915   7.666   2.195   5.031 -0.2648  0.2031 -0.0341
  750MOL0     C98916   7.941   2.217   5.092  0.1446 -0.7259 -1.0615
  750MOL0     C98917   8.082   2.212   5.108 -0.1930 -0.4054  0.0603
  750MOL0     N98918   8.629   1.855   5.522  0.7414  0.1345  0.3716
  750MOL0     N98919   8.683   1.777   5.604  0.4713 -0.3850  0.3870
  750MOL0     C98920   9.807   2.023   5.844 -1.0779 -0.0466  0.0526
  750MOL0     C98921   9.885   2.138   5.848  0.0076  0.0551  0.4615
  750MOL0     C98922  10.264   2.412   5.890 -0.1761 -0.4446 -0.2911
  750MOL0     C98923  10.397   2.428   5.918  0.3036  0.0437  0.2308
  750MOL0     C98924  10.465   2.560   5.903  0.7402  0.0017 -0.0311
  750MOL0     C98925  10.387   2.669   5.856 -0.8731 -0.1411 -1.0219
  750MOL0     O98926  10.430   2.800   5.819 -0.1411 -0.0526 -0.2989
  750MOL0     C98927  10.573   2.829   5.840 -0.5117  0.8319  0.2646
  750MOL0     C98928  10.598   2.963   5.778  0.3826 -0.0672 -0.5951
  750MOL0     C98929  10.722   3.028   5.842 -0.2556  0.2313  0.6074
  750MOL0     C98930  10.857   2.978   5.787  0.1504 -0.0347  0.1755
  750MOL0     C98931  10.973   3.036   5.854  0.1189 -0.3887  0.4812
  750MOL0     C98932  11.069   3.074   5.915 -0.1733 -0.0812  0.1297
  750MOL0     C98933  10.251   2.644   5.832  0.1284  0.3657 -0.3153
  750MOL0     C98934  10.190   2.518   5.840 -0.0130 -0.1567  0.3565
  750MOL0     H98935  10.194   1.975   5.823 -0.4559 -1.4339 -0.1196
  750MOL0     H98936  10.052   1.793   5.765  0.1916  0.1704 -2.4961
  750MOL0     H98937   9.703   1.807   6.004 -1.0034 -0.5929  0.5217
  750MOL0     H98938   9.809   1.666   5.987  1.0507  1.8382  0.6173
  750MOL0     H98939   9.590   1.554   5.947 -0.0943  0.6204 -0.7763
  750MOL0     H98940   9.622   1.607   5.791 -2.4365 -2.4791 -0.7107
  750MOL0     H98941   9.504   1.827   5.842  1.1885  0.0555 -0.1110
  750MOL0     H98942   9.454   1.758   5.994  0.5161 -3.3408 -0.0979
  750MOL0     H98943   9.418   1.617   5.721  1.4020 -0.7769 -0.0540
  750MOL0     H98944   9.350   1.558   5.876 -2.0114  2.0322  2.1700
  750MOL0     H98945   9.249   1.829   5.764  0.4656 -1.3634 -3.2873
  750MOL0     H98946   9.186   1.725   5.900  2.3391  1.2314  1.6126
  750MOL0     H98947   9.126   1.564   5.709  2.3445 -0.8082 -0.1351
  750MOL0     H98948   9.159   1.696   5.601  0.7501 -0.2914  0.6491
  750MOL0     H98949   8.967   1.734   5.823 -1.4949 -0.4729 -1.3090
  750MOL0     H98950   9.003   1.853   5.702  0.6412  1.7495  3.2956
  750MOL0     H98951   8.836   1.608   5.681 -1.3132 -2.0536 -3.1809
  750MOL0     H98952   8.958   1.639   5.546  0.9529  2.0702 -1.2162
  750MOL0     H98953   8.931   1.831   5.392  0.9571 -0.8716 -0.2281
  750MOL0     H98954   8.731   1.927   5.209 -2.3814 -1.8835 -0.9082
  750MOL0     H98955   8.714   2.076   5.314  1.8065 -0.1320  1.1422
  750MOL0     H98956   8.470   2.003   5.344 -2.1418 -1.9701 -0.1000
  750MOL0     H98957   8.503   1.850   5.265 -2.8153  0.7570  0.6095
  750MOL0     H98958   8.537   2.135   5.160 -1.4550  1.2621 -0.7258
  750MOL0     H98959   8.558   2.006   5.051  1.1974  1.2543  1.2830
  750MOL0     H98960   8.303   2.042   5.222  0.2397  0.9265  0.9382
  750MOL0     H98961   8.320   1.939   5.089 -1.3760 -0.5562  1.7320
  750MOL0     H98962   8.151   1.994   4.866  3.3738  0.3615  1.6780
  750MOL0     H98963   7.926   1.980   4.854 -1.3138 -0.1869  0.5996
  750MOL0     H98964   7.500   2.121   4.842  4.1550 -0.8963 -0.0865
  750MOL0     H98965   7.249   2.054   4.860  0.1981 -0.6150 -0.7384
  750MOL0     H98966   7.055   1.945   4.849 -1.2070 -1.2087 -0.4946
  750MOL0     H98967   7.035   1.978   5.020  1.2031  0.3117  0.2734
  750MOL0     H98968   6.923   1.737   4.872  1.6849  0.1254 -0.2278
  750MOL0     H98969   6.839   1.867   4.961  2.3977  1.7911 -0.5468
  750MOL0     H98970   6.988   1.787   5.162 -0.9425 -2.1089  3.0529
  750MOL0     H98971   6.983   1.636   5.065 -2.1816 -0.0468 -1.4352
  750MOL0     H98972   6.796   1.649   5.240 -3.0045 -0.3352  0.6203
  750MOL0     H98973   6.733   1.795   5.150 -1.1756 -0.2000 -2.4789
  750MOL0     H98974   6.772   1.514   5.038 -2.3484 -0.9572 -0.5186
  750MOL0     H98975   6.702   1.639   4.941 -1.3413 -1.3290 -0.4460
  750MOL0     H98976   6.505   1.642   5.075  1.6051  0.8425  0.5651
  750MOL0     H98977   6.581   1.546   5.211  4.6794  0.8469  0.6396
  750MOL0     H98978   6.536   1.451   4.923  0.1740 -3.0470 -0.7902
  750MOL0     H98979   6.580   1.340   5.060  0.5417 -0.4671 -1.0731
  750MOL0     H98980   6.326   1.511   5.039  0.7731  1.0666  1.3880
  750MOL0     H98981   6.367   1.414   5.180  1.1959 -2.8372  0.0487
  750MOL0     H98982   7.367   1.697   5.048  1.2250 -1.5352 -2.8764
  750MOL0     H98983   7.610   1.764   5.033 -0.4975 -0.9143 -0.4748
  750MOL0     H98984   7.880   2.287   5.147 -0.0129 -2.9246  1.8037
  750MOL0     H98985   8.126   2.286   5.174  0.3016 -0.0983 -0.6101
  750MOL0     H98986   9.703   2.027   5.873 -1.2049  1.2519 -0.5190
  750MOL0     H98987   9.839   2.234   5.866 -0.8399 -0.2344 -0.0795
  750MOL0     H98988  10.461   2.346   5.948  3.7387  1.5284 -2.3593
  750MOL0     H98989  10.569   2.571   5.931  0.3207  0.6077  1.3329
  750MOL0     H98990  10.640   2.754   5.797 -0.0179  1.6458 -0.4193
  750MOL0     H98991  10.593   2.840   5.948 -1.6948  4.0578  0.2637
  750MOL0     H98992  10.612   2.949   5.670 -2.6004  0.3594 -1.1161
  750MOL0     H98993  10.515   3.033   5.787  0.8576  0.7779 -2.3025
  750MOL0     H98994  10.729   3.014   5.950  1.6481  0.3362  0.5303
  750MOL0     H98995  10.718   3.137   5.842  0.0980  0.3668  3.9720
  750MOL0     H98996  10.860   2.871   5.807 -0.3123 -0.2487 -0.8301
  750MOL0     H98997  10.872   3.003   5.681  4.4870  0.4621  0.6944
  750MOL0     H98998  11.153   3.122   5.961  0.8950 -0.5130 -1.2928
  750MOL0     H98999  10.186   2.728   5.812  0.5498  0.4122 -1.6048
  750MOL0     H99000  10.082   2.513   5.828 -0.1130 -4.7421  1.2193
  751MOL0     O99001   6.007   3.205   8.868 -0.3962  0.7644  0.6545
  751MOL0     C99002   6.000   3.302   8.794 -0.0256 -0.9818  0.1322
  751MOL0     O99003   5.888   3.367   8.767  0.1847 -0.6786 -0.2818
  751MOL0     C99004   5.770   3.346   8.833  0.5767 -0.0320 -1.5306
  751MOL0     C99005   5.687   3.457   8.843 -0.0063 -0.2476  0.7754
  751MOL0     C99006   5.568   3.456   8.912 -0.5187  0.4482 -0.3456
  751MOL0     C99007   5.522   3.339   8.969 -0.4643 -0.7556  0.5048
  751MOL0     O99008   5.407   3.351   9.045  0.3725 -0.1397 -0.6955
  751MOL0     C99009   5.332   3.240   9.086  0.3868  0.2454 -0.3366
  751MOL0     C99010   5.222   3.205   8.988 -0.2954 -0.2409 -0.5139
  751MOL0     C99011   5.164   3.071   9.019  0.4223  0.3975  0.2559
  751MOL0     C99012   5.086   3.070   9.153 -0.3215 -0.0073 -0.0967
  751MOL0     C99013   5.028   2.930   9.176  0.0435 -0.7366  0.2120
  751MOL0     C99014   4.943   2.925   9.300 -0.7590 -0.6576 -0.1437
  751MOL0     C99015   4.886   2.780   9.322 -0.5959  0.0046 -0.7502
  751MOL0     C99016   4.794   2.789   9.445 -0.3561  1.8084 -0.7072
  751MOL0     N99017   4.724   2.661   9.476 -0.5610  0.0562 -0.9157
  751MOL0     C99018   4.790   2.541   9.506 -0.3651 -0.3519  0.1801
  751MOL0     C99019   4.696   2.453   9.519  0.2968  1.1517 -0.6995
  751MOL0     C99020   4.705   2.307   9.566 -0.6874  0.6667 -0.5053
  751MOL0     C99021   4.604   2.211   9.503 -0.8048 -0.4435  0.2033
  751MOL0     C99022   4.518   2.143   9.609  0.3067 -0.0169 -0.4757
  751MOL0     C99023   4.425   2.052   9.544  0.3275  0.3844  0.1633
  751MOL0     O99024   4.363   1.977   9.644 -0.3942  0.2039  0.0499
  751MOL0     C99025   4.270   1.877   9.605 -0.0476 -0.2052 -0.1006
  751MOL0     C99026   4.198   1.818   9.709  0.9783 -0.3597  0.7676
  751MOL0     C99027   4.103   1.713   9.681 -0.8140  0.1904 -0.4628
  751MOL0     C99028   4.079   1.687   9.546 -0.3316  0.4815  0.7428
  751MOL0     C99029   3.973   1.583   9.510  0.4636 -0.0289  0.0316
  751MOL0     O99030   3.967   1.547   9.380 -0.1997  0.6844 -0.3274
  751MOL0     C99031   3.863   1.474   9.335  0.4059  0.2032 -0.4950
  751MOL0     C99032   3.894   1.345   9.299  0.6880  1.1429  0.2653
  751MOL0     C99033   3.799   1.255   9.258  0.2088  0.7491  0.4051
  751MOL0     C99034   3.662   1.289   9.252  0.0835  0.6479 -0.5965
  751MOL0     O99035   3.578   1.184   9.221  0.8063 -0.1630  0.3467
  751MOL0     C99036   3.445   1.223   9.187  0.1499 -0.3559 -0.3729
  751MOL0     C99037   3.374   1.101   9.135 -0.2201 -1.0092 -0.1106
  751MOL0     C99038   3.228   1.127   9.100 -0.5954  0.4616 -0.2936
  751MOL0     C99039   3.169   1.018   9.010 -0.6102 -0.7055  0.7038
  751MOL0     C99040   3.028   1.058   8.962 -0.3156  1.2136 -0.5328
  751MOL0     C99041   2.972   0.934   8.891 -0.0256  0.6353 -0.4507
  751MOL0     C99042   2.845   0.958   8.822  0.2390  0.1687 -0.6781
  751MOL0     C99043   2.722   0.968   8.923 -0.0403  0.5390  0.0541
  751MOL0    Cl99044   2.659   0.807   8.920  0.0013 -0.3334 -0.0449
  751MOL0     C99045   3.632   1.423   9.283  0.1518 -0.5569  0.2101
  751MOL0     C99046   3.728   1.508   9.330 -1.0850  0.5585  0.6696
  751MOL0     O99047   3.916   1.528   9.602  0.1273  0.0048 -0.6571
  751MOL0     C99048   4.157   1.743   9.440  0.0815 -0.1912  0.2738
  751MOL0     C99049   4.255   1.835   9.469  0.2653 -0.3897  0.4156
  751MOL0     N99050   4.572   2.513   9.496  0.3333 -0.1064  0.3926
  751MOL0     N99051   4.594   2.644   9.464 -0.2391  0.0709 -0.2624
  751MOL0     C99052   5.585   3.220   8.945 -0.0351 -0.6676  0.4274
  751MOL0     C99053   5.715   3.223   8.884  0.1366 -0.2805 -0.5209
  751MOL0     C99054   6.114   3.344   8.715  0.1372  1.0229  0.7613
  751MOL0     C99055   6.225   3.266   8.714 -0.2579  0.5331  0.6189
  751MOL0     C99056   6.344   3.306   8.652  0.1473  0.8440 -0.3248
  751MOL0     C99057   6.355   3.430   8.582  0.3885  0.2649 -0.1364
  751MOL0     O99058   6.481   3.464   8.536 -0.2307 -0.1949  0.4960
  751MOL0     C99059   6.510   3.600   8.489 -0.2922 -0.4718  0.6282
  751MOL0     C99060   6.516   3.701   8.607  0.5896  0.6137  1.1068
  751MOL0     C99061   6.578   3.819   8.543  0.2935  0.1329 -0.0893
  751MOL0     C99062   6.560   3.940   8.631  0.2984  0.8358  0.0917
  751MOL0     C99063   6.618   4.055   8.568 -0.5570  0.9989  0.2667
  751MOL0     C99064   6.686   4.139   8.505 -0.2926  0.0070  0.2330
  751MOL0     C99065   6.235   3.507   8.577 -0.6210  0.4642 -0.3101
  751MOL0     C99066   6.119   3.461   8.639 -0.2565  0.0110 -0.7449
  751MOL0     H99067   5.723   3.551   8.805 -0.8214 -0.3061 -0.1847
  751MOL0     H99068   5.513   3.549   8.919  0.2219  0.7987  1.3416
  751MOL0     H99069   5.279   3.264   9.179  2.4436 -1.7949  1.5147
  751MOL0     H99070   5.400   3.160   9.118  1.8701  1.9852  1.0973
  751MOL0     H99071   5.258   3.203   8.885 -1.5664  3.1679 -1.1304
  751MOL0     H99072   5.143   3.280   8.997 -0.0287  0.0925 -0.9613
  751MOL0     H99073   5.246   2.999   9.016 -0.4983 -0.6466 -1.8194
  751MOL0     H99074   5.096   3.033   8.942 -1.2204 -0.7241  2.1690
  751MOL0     H99075   5.148   3.090   9.241  0.9669 -1.0457 -0.7393
  751MOL0     H99076   5.014   3.152   9.141  3.0135  3.0519 -1.1485
  751MOL0     H99077   5.102   2.850   9.187 -2.1467 -2.7869  0.7508
  751MOL0     H99078   4.967   2.901   9.090  0.7815 -3.2546  0.4456
  751MOL0     H99079   4.861   2.995   9.282 -0.0633 -0.1093 -1.2521
  751MOL0     H99080   4.996   2.955   9.391  0.1336 -0.2697 -0.7808
  751MOL0     H99081   4.818   2.762   9.238 -0.7799  1.8254 -1.0143
  751MOL0     H99082   4.962   2.701   9.325  0.7901  1.2128 -2.1718
  751MOL0     H99083   4.724   2.868   9.418 -1.8827  0.7717  0.0961
  751MOL0     H99084   4.852   2.823   9.531  0.6620  1.2610 -1.1565
  751MOL0     H99085   4.897   2.523   9.508 -0.3356 -0.5356 -1.7251
  751MOL0     H99086   4.703   2.291   9.675  0.1700 -1.3512 -0.7402
  751MOL0     H99087   4.807   2.279   9.536  0.1311  1.8610  1.0112
  751MOL0     H99088   4.639   2.131   9.437 -4.4083 -2.1644  0.1374
  751MOL0     H99089   4.547   2.273   9.433 -0.9129  1.3941  1.8422
  751MOL0     H99090   4.571   2.081   9.682 -0.2729 -0.9536 -0.8434
  751MOL0     H99091   4.455   2.221   9.653  0.8901  0.8960 -1.2164
  751MOL0     H99092   4.479   1.975   9.488  1.1751 -2.2632  4.1694
  751MOL0     H99093   4.357   2.105   9.477 -0.7263 -2.6065 -1.3215
  751MOL0     H99094   4.222   1.865   9.804  0.2088 -0.6161  1.0900
  751MOL0     H99095   4.049   1.662   9.760 -1.1469 -1.4803 -1.7181
  751MOL0     H99096   3.998   1.316   9.303  0.0812 -1.1166  1.3742
  751MOL0     H99097   3.820   1.153   9.228 -0.5363 -0.2169  2.8683
  751MOL0     H99098   3.434   1.304   9.113 -2.4049  0.9000  1.2139
  751MOL0     H99099   3.388   1.264   9.271 -1.0549  0.5428 -1.5712
  751MOL0     H99100   3.388   1.028   9.215 -0.7917 -0.7178  0.2613
  751MOL0     H99101   3.432   1.060   9.052 -0.0183 -0.4569 -0.2521
  751MOL0     H99102   3.213   1.224   9.052 -2.5073 -0.7131 -2.2534
  751MOL0     H99103   3.187   1.120   9.201  3.2030 -1.3890  1.3421
  751MOL0     H99104   3.235   1.006   8.924 -0.2849 -0.0853  0.8666
  751MOL0     H99105   3.163   0.925   9.068  1.8414 -2.3329 -1.4039
  751MOL0     H99106   3.033   1.152   8.907  1.6128  0.5495 -1.6006
  751MOL0     H99107   2.964   1.072   9.049  3.1786 -1.7220  2.8631
  751MOL0     H99108   2.963   0.850   8.960  0.6408  1.1433  0.2887
  751MOL0     H99109   3.045   0.912   8.813  0.3072  2.4607 -0.7107
  751MOL0     H99110   2.846   1.045   8.755  1.0600 -0.2981 -1.2881
  751MOL0     H99111   2.826   0.875   8.754  0.7366 -2.0127  1.6784
  751MOL0     H99112   2.645   1.032   8.881  0.6188  1.0599 -0.3801
  751MOL0     H99113   2.738   1.009   9.023 -2.1452  2.2449 -0.2393
  751MOL0     H99114   3.532   1.464   9.276  0.2780 -0.5434 -2.4929
  751MOL0     H99115   3.700   1.611   9.351 -0.5975  0.2955  2.8777
  751MOL0     H99116   4.131   1.715   9.338 -2.3857 -0.5366  0.9314
  751MOL0     H99117   4.311   1.882   9.389 -2.1581  3.7264  0.8923
  751MOL0     H99118   5.545   3.123   8.975 -0.5394 -0.5238  0.2344
  751MOL0     H99119   5.781   3.139   8.862  1.8094  1.2969 -1.8495
  751MOL0     H99120   6.221   3.173   8.769  0.5584  0.6301  0.8581
  751MOL0     H99121   6.421   3.231   8.642  0.1595  0.6180  1.2104
  751MOL0     H99122   6.433   3.636   8.420  0.7343  0.8804  0.1499
  751MOL0     H99123   6.604   3.592   8.433 -0.7361 -1.8155  0.0326
  751MOL0     H99124   6.414   3.711   8.644 -0.5818 -0.8635 -1.4241
  751MOL0     H99125   6.583   3.666   8.687  0.8598 -1.7724 -0.0574
  751MOL0     H99126   6.516   3.835   8.454 -0.2673 -0.9601  0.0888
  751MOL0     H99127   6.686   3.811   8.533  0.6332  2.7708  0.6441
  751MOL0     H99128   6.457   3.973   8.643  1.0547  3.3909  0.0470
  751MOL0     H99129   6.601   3.920   8.730 -1.5468  1.9413  1.1144
  751MOL0     H99130   6.745   4.210   8.451 -0.4812 -0.8548 -1.1629
  751MOL0     H99131   6.235   3.605   8.531  2.2327  0.1076 -1.2703
  751MOL0     H99132   6.027   3.520   8.636  0.6486  1.4503 -1.2843
  752MOL0     O99133   1.933   4.009   7.186  0.6369  0.1402  0.2619
  752MOL0     C99134   2.004   3.909   7.170  0.0235  0.2366  0.0010
  752MOL0     O99135   2.001   3.791   7.237 -0.1063  0.5155  0.1055
  752MOL0     C99136   1.895   3.761   7.320  0.1263  0.6214 -0.3676
  752MOL0     C99137   1.834   3.847   7.414  0.3274 -0.4590  0.6691
  752MOL0     C99138   1.725   3.799   7.492 -0.4823  0.0233 -0.0637
  752MOL0     C99139   1.682   3.661   7.481 -0.3605 -0.1440 -0.2678
  752MOL0     O99140   1.591   3.612   7.562  0.5667 -0.4215  0.0862
  752MOL0     C99141   1.536   3.484   7.537 -0.0249 -0.1495  0.0047
  752MOL0     C99142   1.448   3.452   7.661  0.2448 -1.8660  0.3445
  752MOL0     C99143   1.347   3.560   7.711 -0.4883  0.8769  0.2762
  752MOL0     C99144   1.262   3.493   7.824 -0.1272  0.3488 -0.5938
  752MOL0     C99145   1.162   3.594   7.867 -0.5402  0.0270  0.0874
  752MOL0     C99146   1.089   3.539   7.992 -0.7815  0.3097  0.3099
  752MOL0     C99147   0.947   3.584   8.017 -0.7837 -0.1572 -0.5539
  752MOL0     C99148   0.919   3.733   7.983 -0.6333  0.4027  0.6333
  752MOL0     N99149   0.783   3.771   8.014  0.3552  0.5601 -0.2449
  752MOL0     C99150   0.751   3.865   8.108  0.6667 -0.1196  0.1974
  752MOL0     C99151   0.621   3.882   8.090  0.7894 -0.0176  0.0178
  752MOL0     C99152   0.524   3.971   8.165 -0.6011  0.9795  0.0999
  752MOL0     C99153   0.405   3.903   8.230 -0.7705  0.3941 -0.2664
  752MOL0     C99154   0.284   4.003   8.255 -0.7320 -0.9292 -0.1090
  752MOL0     C99155   0.176   3.927   8.325  0.2784 -0.1126 -0.2201
  752MOL0     O99156   0.207   3.906   8.465  0.1723  0.4510  0.3212
  752MOL0     C99157   0.097   3.876   8.543  0.2055 -0.1189  0.3338
  752MOL0     C99158  -0.014   3.810   8.494  0.3046 -0.8130  0.0133
  752MOL0     C99159  -0.116   3.771   8.578 -0.2085 -0.1962  0.2857
  752MOL0     C99160  -0.107   3.791   8.717  0.3455 -0.8910 -0.2642
  752MOL0     C99161  -0.216   3.762   8.808 -0.6498  0.3585  0.1213
  752MOL0     O99162  -0.327   3.703   8.755 -0.0862  0.6382  0.4384
  752MOL0     C99163  -0.428   3.662   8.846  0.0957  0.4960 -0.1612
  752MOL0     C99164  -0.502   3.749   8.930  0.1387 -0.6923 -0.3614
  752MOL0     C99165  -0.614   3.712   8.996 -1.2819  0.0482 -1.0594
  752MOL0     C99166  -0.663   3.587   8.984 -0.4201  1.2611  0.3517
  752MOL0     O99167  -0.774   3.540   9.051  0.2418  0.1171  0.0664
  752MOL0     C99168  -0.816   3.404   9.033  0.3257  0.0912 -0.8636
  752MOL0     C99169  -0.936   3.364   9.120 -0.8039 -0.7028 -0.2577
  752MOL0     C99170  -1.015   3.243   9.067 -0.5624  0.3822 -0.2028
  752MOL0     C99171  -1.120   3.187   9.159  1.0627 -0.1306  0.7647
  752MOL0     C99172  -1.233   3.292   9.199 -0.1772 -0.4286 -0.0876
  752MOL0     C99173  -1.305   3.354   9.078 -0.0147 -0.6093 -0.1288
  752MOL0     C99174  -1.431   3.439   9.123 -0.7326 -0.0068 -1.8334
  752MOL0     C99175  -1.496   3.516   9.017  0.0020 -0.5974  1.2556
  752MOL0    Cl99176  -1.591   3.649   9.090  0.1193 -0.3212 -0.0051
  752MOL0     C99177  -0.589   3.499   8.906  0.1804 -0.3836 -0.1589
  752MOL0     C99178  -0.475   3.534   8.842  0.4985 -0.6235  0.6268
  752MOL0     O99179  -0.197   3.779   8.927  0.4621  0.0425  0.2967
  752MOL0     C99180   0.014   3.844   8.762  0.1897 -0.1309  0.4547
  752MOL0     C99181   0.110   3.897   8.678  0.0241  0.2181 -0.6327
  752MOL0     N99182   0.577   3.800   7.983 -0.1809 -0.5605  0.3369
  752MOL0     N99183   0.682   3.736   7.936  0.1360  0.1356  0.4863
  752MOL0     C99184   1.750   3.580   7.386  0.3413  0.3907  0.5003
  752MOL0     C99185   1.852   3.627   7.308  0.8996 -0.4635  0.0566
  752MOL0     C99186   2.112   3.932   7.080 -0.4875  0.1717 -0.8422
  752MOL0     C99187   2.237   3.885   7.124  0.4894  1.2883 -0.8508
  752MOL0     C99188   2.342   3.896   7.031 -0.7527  0.3431 -0.1665
  752MOL0     C99189   2.332   3.953   6.907  0.1438  0.5136  0.0851
  752MOL0     O99190   2.440   3.957   6.818  0.3857  0.1086  0.0040
  752MOL0     C99191   2.411   3.905   6.688  0.8256  0.5234  1.2693
  752MOL0     C99192   2.539   3.887   6.607  0.0688  0.1496 -0.2956
  752MOL0     C99193   2.632   3.773   6.666  0.7757 -0.4050  0.3389
  752MOL0     C99194   2.771   3.776   6.603  0.3058 -0.3580 -0.0352
  752MOL0     C99195   2.859   3.686   6.679 -0.7436 -0.0526 -0.7353
  752MOL0     C99196   2.929   3.611   6.754 -0.1829 -0.6776  0.1130
  752MOL0     C99197   2.210   3.999   6.870  0.1835  0.0964  0.2778
  752MOL0     C99198   2.100   3.993   6.958 -0.3855 -0.8606 -0.0591
  752MOL0     H99199   1.863   3.951   7.419  0.0111 -0.3846  1.0279
  752MOL0     H99200   1.671   3.864   7.560  3.0165 -0.5294  3.5778
  752MOL0     H99201   1.599   3.398   7.511 -2.3713 -2.1555  0.6076
  752MOL0     H99202   1.474   3.485   7.446  0.2900 -3.0759 -0.3396
  752MOL0     H99203   1.522   3.412   7.730 -0.4367 -2.9360  0.4697
  752MOL0     H99204   1.379   3.371   7.636 -0.1917 -1.1581 -0.8736
  752MOL0     H99205   1.282   3.589   7.627 -0.8455 -0.1421  0.1747
  752MOL0     H99206   1.401   3.644   7.755  0.4342  0.3164  0.2427
  752MOL0     H99207   1.211   3.401   7.795  0.3714 -0.4343  0.8991
  752MOL0     H99208   1.313   3.459   7.915  0.0009  1.4481 -0.2344
  752MOL0     H99209   1.095   3.610   7.781 -0.1840  0.9555 -0.0212
  752MOL0     H99210   1.218   3.686   7.881 -1.6890  0.9786 -1.3117
  752MOL0     H99211   1.156   3.554   8.077 -1.5567  1.8245  0.6959
  752MOL0     H99212   1.086   3.430   7.982  2.4964  0.1359  0.0266
  752MOL0     H99213   0.878   3.513   7.970 -0.3863 -0.7904 -0.1879
  752MOL0     H99214   0.940   3.576   8.126  0.0268  3.9517 -0.0399
  752MOL0     H99215   0.929   3.740   7.875 -1.4421 -4.2083  0.0393
  752MOL0     H99216   0.985   3.807   8.031 -1.6134  0.6545  1.6462
  752MOL0     H99217   0.817   3.906   8.184  0.6401  1.4729 -0.5909
  752MOL0     H99218   0.502   4.044   8.086  1.9516  1.2763 -0.4534
  752MOL0     H99219   0.564   4.038   8.242 -2.0390  2.1468 -0.1152
  752MOL0     H99220   0.439   3.857   8.323  1.1801  0.3507 -0.9539
  752MOL0     H99221   0.383   3.826   8.155  1.2818 -0.0502 -0.4807
  752MOL0     H99222   0.316   4.090   8.314  0.2556  0.3448 -2.3852
  752MOL0     H99223   0.250   4.040   8.157  2.5342  1.0500 -0.6483
  752MOL0     H99224   0.159   3.836   8.267 -0.6046 -0.2093  0.1689
  752MOL0     H99225   0.086   3.990   8.321  1.9737  2.4762 -0.3990
  752MOL0     H99226  -0.022   3.796   8.387  1.3188  2.5369 -0.6026
  752MOL0     H99227  -0.208   3.740   8.530  2.0569 -1.7270 -3.4822
  752MOL0     H99228  -0.473   3.854   8.925  3.1202 -1.4281 -0.4772
  752MOL0     H99229  -0.669   3.786   9.054 -0.9384  0.3332 -1.0913
  752MOL0     H99230  -0.731   3.336   9.045  1.1285  1.0454 -1.1016
  752MOL0     H99231  -0.849   3.399   8.929 -0.1376  3.1602 -0.9399
  752MOL0     H99232  -1.002   3.449   9.140 -0.3463 -0.3928 -0.0183
  752MOL0     H99233  -0.888   3.335   9.214 -0.0664 -2.6697 -1.1826
  752MOL0     H99234  -0.944   3.167   9.035  0.3225  0.6477  1.0280
  752MOL0     H99235  -1.066   3.279   8.978  0.2083 -1.5397 -1.4740
  752MOL0     H99236  -1.182   3.119   9.099 -3.4449  1.4068  3.1689
  752MOL0     H99237  -1.079   3.136   9.246  0.3650  0.2670  1.3359
  752MOL0     H99238  -1.186   3.370   9.259 -1.1787 -0.4193  0.7019
  752MOL0     H99239  -1.304   3.240   9.264  1.4135 -1.5607  0.8052
  752MOL0     H99240  -1.340   3.285   9.000 -0.3066  0.6347 -1.1224
  752MOL0     H99241  -1.242   3.427   9.026 -2.0780  2.3548  1.2769
  752MOL0     H99242  -1.500   3.371   9.173  0.5420  0.9363  1.4922
  752MOL0     H99243  -1.402   3.513   9.198 -0.7734 -0.2865 -1.5406
  752MOL0     H99244  -1.554   3.448   8.954 -0.5071  1.4118 -0.5506
  752MOL0     H99245  -1.430   3.570   8.948 -1.7017 -0.4812 -0.3632
  752MOL0     H99246  -0.625   3.399   8.884  1.2356 -0.8070  0.0101
  752MOL0     H99247  -0.416   3.467   8.781  0.6291  0.9150 -1.0342
  752MOL0     H99248   0.035   3.859   8.867  0.4801 -0.1613  0.4022
  752MOL0     H99249   0.201   3.940   8.719 -0.5675  3.3119 -2.2777
  752MOL0     H99250   1.722   3.480   7.355  1.2738  0.0124  0.8466
  752MOL0     H99251   1.904   3.571   7.231 -0.8153  0.4772 -1.8914
  752MOL0     H99252   2.253   3.839   7.221 -0.2501  0.2514 -1.2016
  752MOL0     H99253   2.440   3.859   7.059  0.6852  3.0053 -1.3175
  752MOL0     H99254   2.340   3.972   6.640 -0.4315 -1.1950  0.6370
  752MOL0     H99255   2.357   3.810   6.690  1.8237 -0.1088 -0.2765
  752MOL0     H99256   2.522   3.861   6.502  3.1448 -3.2398 -0.1355
  752MOL0     H99257   2.593   3.982   6.618  2.1127 -0.9961  0.0718
  752MOL0     H99258   2.580   3.678   6.654  0.5604 -0.0224 -2.6690
  752MOL0     H99259   2.652   3.788   6.772 -2.5648  0.5700  0.9454
  752MOL0     H99260   2.767   3.739   6.500 -1.4617 -0.8743  0.1853
  752MOL0     H99261   2.799   3.881   6.611 -0.6609  0.0138 -1.2411
  752MOL0     H99262   2.980   3.548   6.824 -1.5425 -1.2873  0.5902
  752MOL0     H99263   2.188   4.051   6.778 -1.1394 -1.5614 -0.3952
  752MOL0     H99264   2.001   4.023   6.925 -0.1667 -2.0967 -1.9918
  753MOL0     O99265  10.556   0.590  10.931  0.2303 -0.4269  0.7239
  753MOL0     C99266  10.617   0.531  11.018 -0.8668 -0.0103 -0.2653
  753MOL0     O99267  10.566   0.442  11.111  0.3529  0.2225  0.1466
  753MOL0     C99268  10.430   0.445  11.122  0.7961  0.0592 -0.4818
  753MOL0     C99269  10.353   0.333  11.088  0.0610 -0.0463  0.4343
  753MOL0     C99270  10.215   0.331  11.112  0.1520 -0.1297  0.3533
  753MOL0     C99271  10.151   0.439  11.169  0.3293  0.4500 -0.2078
  753MOL0     O99272  10.015   0.433  11.174  0.7318  0.2555  0.8566
  753MOL0     C99273   9.945   0.558  11.181  0.4282 -0.2734 -0.6558
  753MOL0     C99274   9.798   0.551  11.145  0.0612  0.1369 -0.7419
  753MOL0     C99275   9.712   0.684  11.141  0.2951  0.3372  0.1541
  753MOL0     C99276   9.582   0.654  11.067 -0.4176 -0.0326  0.0249
  753MOL0     C99277   9.501   0.776  11.019 -0.3040  0.4212 -0.1820
  753MOL0     C99278   9.475   0.884  11.126  0.5985  1.3475 -0.0706
  753MOL0     C99279   9.425   1.013  11.068 -0.4366  0.2289  0.7726
  753MOL0     C99280   9.348   1.074  11.179 -0.1239 -1.0282 -0.6015
  753MOL0     N99281   9.426   1.111  11.297 -0.1399  0.5334 -0.7122
  753MOL0     C99282   9.554   1.172  11.303 -0.4490  0.3306 -0.3477
  753MOL0     C99283   9.583   1.174  11.442  0.3960  0.0242 -0.2595
  753MOL0     C99284   9.693   1.246  11.515 -0.1410 -0.3052 -0.4607
  753MOL0     C99285   9.649   1.396  11.555  0.5478  0.3811  0.3147
  753MOL0     C99286   9.745   1.453  11.661 -0.2834  0.3409 -0.0573
  753MOL0     C99287   9.882   1.501  11.604  0.5503 -0.2600  0.2679
  753MOL0     O99288   9.858   1.640  11.568 -0.4491 -1.3346 -0.5838
  753MOL0     C99289   9.970   1.723  11.567  0.9806  0.5238  0.9947
  753MOL0     C99290  10.098   1.666  11.573 -0.1525 -0.5000  0.2567
  753MOL0     C99291  10.205   1.757  11.567  0.2282  0.7192 -0.0510
  753MOL0     C99292  10.187   1.896  11.552 -0.2177  0.1481 -0.8603
  753MOL0     C99293  10.305   1.985  11.554 -0.8613  0.1096  0.5006
  753MOL0     O99294  10.423   1.940  11.597  0.0491  0.1072 -0.8832
  753MOL0     C99295  10.527   2.028  11.590 -0.1116 -0.3333  0.1578
  753MOL0     C99296  10.612   2.054  11.703  0.1270  0.6536  0.3648
  753MOL0     C99297  10.727   2.131  11.694 -0.3014 -0.3171 -0.2212
  753MOL0     C99298  10.760   2.191  11.573 -0.3094  0.3900 -0.5555
  753MOL0     O99299  10.872   2.266  11.564  0.6638  0.1767 -0.2772
  753MOL0     C99300  10.950   2.304  11.678 -0.1225  0.5569 -0.5003
  753MOL0     C99301  11.065   2.386  11.631 -0.5078  0.2325  0.5452
  753MOL0     C99302  11.137   2.323  11.508  0.4360  0.4435  0.2915
  753MOL0     C99303  11.263   2.412  11.487  0.8985  0.6289  0.9495
  753MOL0     C99304  11.329   2.351  11.361 -0.2671  0.1322  0.0556
  753MOL0     C99305  11.453   2.434  11.332 -0.2564  0.6502  0.4777
  753MOL0     C99306  11.543   2.372  11.222 -0.0646  0.1030 -0.3558
  753MOL0     C99307  11.674   2.439  11.214 -0.4894  0.4474  0.7025
  753MOL0    Cl99308  11.670   2.618  11.226 -0.1195  0.1275  0.2148
  753MOL0     C99309  10.685   2.161  11.464 -0.6458  0.2106  0.5924
  753MOL0     C99310  10.565   2.089  11.470  0.0500 -0.0829 -0.9582
  753MOL0     O99311  10.277   2.097  11.524  0.0874 -0.7209  0.2749
  753MOL0     C99312  10.060   1.948  11.552  0.3494  0.0029 -0.2262
  753MOL0     C99313   9.952   1.860  11.571  0.1661  0.3765 -0.3493
  753MOL0     N99314   9.474   1.108  11.500  0.0597 -0.3117  0.0004
  753MOL0     N99315   9.385   1.065  11.419 -0.4644 -0.6327  0.2190
  753MOL0     C99316  10.232   0.537  11.221  0.3611 -0.8210 -0.1423
  753MOL0     C99317  10.369   0.537  11.206  0.0264 -0.1991  1.1889
  753MOL0     C99318  10.763   0.544  11.033  0.0795 -0.9163  0.5468
  753MOL0     C99319  10.842   0.605  10.935 -0.1777 -1.2053 -0.5357
  753MOL0     C99320  10.979   0.610  10.938 -0.1302 -0.0547 -0.5392
  753MOL0     C99321  11.046   0.553  11.050  0.0314  0.5609  0.3043
  753MOL0     O99322  11.185   0.542  11.049  0.2322 -0.9488 -1.0266
  753MOL0     C99323  11.255   0.471  11.151  0.5875 -0.7657 -0.2611
  753MOL0     C99324  11.393   0.429  11.098  0.1461  0.5656  1.2205
  753MOL0     C99325  11.378   0.316  11.002 -0.2023  0.0851  0.5131
  753MOL0     C99326  11.477   0.292  10.891  0.2469  0.0920 -0.4139
  753MOL0     C99327  11.618   0.274  10.928 -0.1708 -0.0640  0.2803
  753MOL0     C99328  11.738   0.272  10.948 -0.0799 -0.0622 -0.8244
  753MOL0     C99329  10.967   0.502  11.155 -0.0829 -0.0531 -0.1134
  753MOL0     C99330  10.827   0.508  11.155  0.3296 -0.1409  0.3836
  753MOL0     H99331  10.404   0.254  11.033 -0.6907 -0.6540  0.5892
  753MOL0     H99332  10.167   0.240  11.077  1.1978 -1.3737  1.9643
  753MOL0     H99333   9.997   0.636  11.125 -1.9325  2.5255  0.7582
  753MOL0     H99334   9.943   0.591  11.285 -0.4308  0.5335 -0.9179
  753MOL0     H99335   9.754   0.473  11.208 -0.5454 -0.2072 -1.5668
  753MOL0     H99336   9.807   0.513  11.042  1.0582 -0.2475 -0.5334
  753MOL0     H99337   9.775   0.759  11.092  0.1416 -0.9224 -2.1243
  753MOL0     H99338   9.675   0.719  11.237 -1.4146 -0.9213 -0.0024
  753MOL0     H99339   9.603   0.600  10.975  0.9520  0.3500  0.0970
  753MOL0     H99340   9.511   0.600  11.131 -2.9899  0.7240 -2.0298
  753MOL0     H99341   9.408   0.738  10.977 -1.1495  1.1154  1.0198
  753MOL0     H99342   9.567   0.814  10.940  0.1798 -1.1699 -0.5750
  753MOL0     H99343   9.572   0.896  11.177  0.2041  0.7839  0.8560
  753MOL0     H99344   9.407   0.831  11.194  3.6444 -1.4837  1.0668
  753MOL0     H99345   9.499   1.076  11.018 -1.2368 -0.9187 -2.0164
  753MOL0     H99346   9.350   0.998  10.991 -1.1949 -1.5526  1.7914
  753MOL0     H99347   9.258   1.015  11.201 -2.0042  1.9332  0.2115
  753MOL0     H99348   9.300   1.168  11.150  0.6166  0.2354  2.0168
  753MOL0     H99349   9.606   1.218  11.220  0.3712 -0.7760 -0.4722
  753MOL0     H99350   9.791   1.244  11.467  0.4547 -0.5859  0.7268
  753MOL0     H99351   9.712   1.192  11.609  0.7762  1.6178  0.5093
  753MOL0     H99352   9.549   1.389  11.599  0.5915  3.2568  1.0527
  753MOL0     H99353   9.649   1.465  11.471 -2.8409  1.0065  0.6723
  753MOL0     H99354   9.698   1.542  11.705 -0.5140  0.8621 -1.3189
  753MOL0     H99355   9.763   1.370  11.731 -0.2868  1.0598  0.8140
  753MOL0     H99356   9.911   1.446  11.514 -1.2518 -1.9142  0.6181
  753MOL0     H99357   9.958   1.488  11.682  1.7782  1.6258 -0.5448
  753MOL0     H99358  10.122   1.560  11.577  1.6670 -0.0844  1.8915
  753MOL0     H99359  10.304   1.712  11.574 -0.2062  0.0290  2.2509
  753MOL0     H99360  10.570   1.998  11.786 -2.7418 -0.8521 -1.9178
  753MOL0     H99361  10.786   2.122  11.785 -3.0948  0.4747  1.7909
  753MOL0     H99362  11.003   2.217  11.719  1.5537  1.4659 -0.6537
  753MOL0     H99363  10.900   2.365  11.754  1.0407  0.1193  0.6512
  753MOL0     H99364  11.131   2.411  11.714  0.5816 -1.1722  0.1285
  753MOL0     H99365  11.027   2.481  11.591 -0.1532 -1.0804 -3.2492
  753MOL0     H99366  11.072   2.320  11.420  0.7521  1.1533  0.0275
  753MOL0     H99367  11.167   2.223  11.540  2.0267  0.4751 -0.9542
  753MOL0     H99368  11.224   2.512  11.470 -1.2346 -0.3786 -0.3990
  753MOL0     H99369  11.327   2.401  11.576 -1.3199 -0.3437  2.5118
  753MOL0     H99370  11.260   2.353  11.276 -2.4355 -0.9480  1.6851
  753MOL0     H99371  11.360   2.249  11.388  1.1967  0.7353  0.7788
  753MOL0     H99372  11.512   2.438  11.423  0.2371 -0.6280  0.2348
  753MOL0     H99373  11.419   2.535  11.306  1.3736  1.8892  2.8563
  753MOL0     H99374  11.579   2.272  11.250  0.6696  0.2652 -0.7036
  753MOL0     H99375  11.497   2.381  11.122 -2.1530 -0.2669  0.5052
  753MOL0     H99376  11.736   2.396  11.135 -1.0808 -2.1570  1.5629
  753MOL0     H99377  11.730   2.403  11.300  2.3280 -3.2395 -2.3170
  753MOL0     H99378  10.720   2.216  11.378  1.1025  1.2321  1.8770
  753MOL0     H99379  10.500   2.078  11.383 -1.6250  2.0371 -0.0522
  753MOL0     H99380  10.045   2.055  11.547 -1.3379 -0.1830  0.1520
  753MOL0     H99381   9.853   1.905  11.575  0.4328  0.8802  1.3711
  753MOL0     H99382  10.196   0.626  11.273  2.6157 -0.4957  0.9927
  753MOL0     H99383  10.431   0.624  11.227 -0.0288 -0.2073  1.3850
  753MOL0     H99384  10.793   0.654  10.851  1.6896  2.4746  0.3223
  753MOL0     H99385  11.038   0.649  10.856 -0.7214 -0.3447 -1.1114
  753MOL0     H99386  11.206   0.382  11.192  1.2843 -1.6300 -1.2343
  753MOL0     H99387  11.276   0.542  11.231  1.1418  1.4708 -2.2534
  753MOL0     H99388  11.448   0.511  11.051  0.4160 -0.0105  0.5138
  753MOL0     H99389  11.463   0.399  11.177  1.6526  0.3272 -0.1589
  753MOL0     H99390  11.275   0.312  10.965 -0.1459  0.1522  0.3449
  753MOL0     H99391  11.384   0.226  11.065  0.5046 -0.3918 -0.2155
  753MOL0     H99392  11.440   0.211  10.828  3.8012 -1.7447 -0.3932
  753MOL0     H99393  11.480   0.379  10.824 -0.4980 -0.7500 -1.5707
  753MOL0     H99394  11.845   0.273  10.959 -0.2490  0.8471  1.2294
  753MOL0     H99395  11.005   0.450  11.242  0.3140 -1.3234 -1.0220
  753MOL0     H99396  10.766   0.475  11.239  0.2740  0.0636  0.4264
  754MOL0     O99397   7.500   8.212   8.961  0.2725  0.7884 -0.5135
  754MOL0     C99398   7.521   8.147   9.063 -0.0559 -0.3513 -0.5878
  754MOL0     O99399   7.430   8.064   9.120  0.4052 -0.7129  0.2188
  754MOL0     C99400   7.314   8.037   9.048 -0.0445  0.5067 -0.8142
  754MOL0     C99401   7.310   7.983   8.917 -1.4926  0.2940 -0.5341
  754MOL0     C99402   7.194   7.972   8.842 -0.7370  0.4236  0.9215
  754MOL0     C99403   7.074   8.008   8.898  0.8154  1.6062 -0.8284
  754MOL0     O99404   6.951   8.015   8.845 -0.6581  0.6910 -0.1178
  754MOL0     C99405   6.924   8.006   8.702 -0.6442  0.0835  0.1518
  754MOL0     C99406   6.768   8.014   8.679 -1.0454  1.2188 -0.2517
  754MOL0     C99407   6.726   8.159   8.717  0.6197  1.3750  0.5522
  754MOL0     C99408   6.581   8.192   8.675  0.1701 -0.1431 -0.4734
  754MOL0     C99409   6.489   8.104   8.754 -0.1569  0.0941  0.3560
  754MOL0     C99410   6.336   8.113   8.711  0.1564  0.6617 -0.2255
  754MOL0     C99411   6.242   8.036   8.814  0.3305 -0.9095  0.5431
  754MOL0     C99412   6.292   7.895   8.861 -0.4320  0.4830 -0.0556
  754MOL0     N99413   6.196   7.838   8.962 -0.5830  0.8430  0.6094
  754MOL0     C99414   6.058   7.836   8.941 -0.5218 -0.3602  0.3544
  754MOL0     C99415   6.006   7.780   9.054 -0.3071 -1.5496 -0.0536
  754MOL0     C99416   5.865   7.749   9.096 -0.1171  0.0115  0.0423
  754MOL0     C99417   5.801   7.858   9.184 -0.2977  0.5419 -0.1768
  754MOL0     C99418   5.866   7.876   9.317 -0.3127  0.0013  0.7708
  754MOL0     C99419   5.863   7.742   9.399 -0.2028  0.5180  0.4535
  754MOL0     O99420   5.861   7.768   9.538 -0.4453 -0.0118  0.0665
  754MOL0     C99421   5.984   7.778   9.604 -0.0387 -0.7892 -0.2914
  754MOL0     C99422   6.111   7.783   9.549  0.4846 -0.0187  0.3086
  754MOL0     C99423   6.224   7.792   9.633  0.5538  0.3600  0.3176
  754MOL0     C99424   6.214   7.818   9.767  0.1648  0.7615  0.1477
  754MOL0     C99425   6.332   7.837   9.848 -0.0020 -0.5814  0.1303
  754MOL0     O99426   6.319   7.849   9.983  0.7109 -0.1389 -0.2487
  754MOL0     C99427   6.430   7.851  10.060  1.1245 -0.0690 -0.2808
  754MOL0     C99428   6.507   7.741  10.069  0.1362 -0.3597 -0.4359
  754MOL0     C99429   6.629   7.753  10.143  0.3788 -0.0104  0.3844
  754MOL0     C99430   6.661   7.874  10.199  0.0676 -0.2660 -0.3665
  754MOL0     O99431   6.769   7.875  10.288 -0.4210  0.6820 -0.0762
  754MOL0     C99432   6.869   7.962  10.238 -0.2085 -0.3626  0.4956
  754MOL0     C99433   6.964   8.011  10.351  0.2613 -0.1852  0.7589
  754MOL0     C99434   6.890   8.111  10.445  0.5141  0.5849  0.7190
  754MOL0     C99435   6.993   8.166  10.549  0.5144 -0.4403  0.2911
  754MOL0     C99436   6.917   8.251  10.656 -0.0995  0.1543 -0.6251
  754MOL0     C99437   6.848   8.158  10.763 -0.0226 -0.4266 -1.1177
  754MOL0     C99438   6.758   8.234  10.854 -0.5163 -0.3820 -0.5396
  754MOL0     C99439   6.814   8.335  10.954  0.2561 -0.0280  0.2061
  754MOL0    Cl99440   6.676   8.391  11.069  0.1058  0.3391 -0.0877
  754MOL0     C99441   6.567   7.977  10.215 -0.3255  0.4338 -0.8001
  754MOL0     C99442   6.459   7.974  10.137 -0.7349  0.9944  0.8936
  754MOL0     O99443   6.438   7.827   9.793  0.3271 -0.4584 -0.6529
  754MOL0     C99444   6.087   7.827   9.817  0.4297  1.2527 -0.7268
  754MOL0     C99445   5.971   7.800   9.739  0.2066 -0.7871 -0.2304
  754MOL0     N99446   6.119   7.744   9.126  0.4061  0.7013  0.0461
  754MOL0     N99447   6.236   7.781   9.074 -0.0351  0.4587  0.1181
  754MOL0     C99448   7.074   8.041   9.037 -0.2313  0.2802  0.0033
  754MOL0     C99449   7.189   8.063   9.109  0.5796 -0.1626 -0.5428
  754MOL0     C99450   7.655   8.162   9.129 -0.5709  0.7293 -0.1008
  754MOL0     C99451   7.690   8.067   9.237  0.7930  0.3153  0.2852
  754MOL0     C99452   7.809   8.084   9.311  0.2882  0.2582  0.7448
  754MOL0     C99453   7.908   8.182   9.273  0.5316  0.0302 -0.0456
  754MOL0     O99454   8.021   8.210   9.350 -0.8807 -0.2627  0.1800
  754MOL0     C99455   8.077   8.104   9.432  0.1673  0.1848  0.7468
  754MOL0     C99456   8.220   8.144   9.469 -0.0695 -0.4159  0.5805
  754MOL0     C99457   8.221   8.280   9.544 -0.1654  0.3715  0.5829
  754MOL0     C99458   8.352   8.323   9.602  0.0497  0.0810 -1.0396
  754MOL0     C99459   8.457   8.316   9.501  0.0516 -0.9994 -0.2415
  754MOL0     C99460   8.529   8.308   9.408 -0.2599  0.6249  0.1449
  754MOL0     C99461   7.881   8.259   9.157 -0.3067 -0.0866 -0.7873
  754MOL0     C99462   7.754   8.247   9.090 -0.0790 -0.6732 -0.6383
  754MOL0     H99463   7.396   7.945   8.864 -0.2194  0.4354  1.3261
  754MOL0     H99464   7.195   7.926   8.744 -1.0666 -0.7710  1.4541
  754MOL0     H99465   6.972   7.915   8.664  1.4091  1.1109  0.1514
  754MOL0     H99466   6.976   8.092   8.660  2.1364 -0.5198  2.0312
  754MOL0     H99467   6.724   7.931   8.734 -0.8565  1.7737  0.7575
  754MOL0     H99468   6.743   8.004   8.573 -2.2229 -0.6655  0.1557
  754MOL0     H99469   6.796   8.234   8.678  0.5073 -0.1292 -3.0097
  754MOL0     H99470   6.731   8.165   8.826  0.2562  0.6194  0.6171
  754MOL0     H99471   6.559   8.296   8.700  1.4794 -0.2758  1.4388
  754MOL0     H99472   6.563   8.159   8.572 -0.4884 -0.7964 -0.1610
  754MOL0     H99473   6.492   8.125   8.861 -0.7329 -0.2346  0.4395
  754MOL0     H99474   6.514   8.000   8.733  1.8252  1.0951 -2.9962
  754MOL0     H99475   6.325   8.062   8.615  1.4727 -2.4136  1.1019
  754MOL0     H99476   6.299   8.216   8.709 -2.2599 -0.1453 -1.8959
  754MOL0     H99477   6.240   8.102   8.901  1.6692 -1.2184  0.8226
  754MOL0     H99478   6.141   8.023   8.773  0.4871  1.5556 -0.8294
  754MOL0     H99479   6.394   7.911   8.897 -0.0763  0.5356 -1.0559
  754MOL0     H99480   6.308   7.830   8.775 -0.7541  0.3855 -0.0421
  754MOL0     H99481   6.009   7.872   8.851  3.4054  0.0386 -1.8786
  754MOL0     H99482   5.868   7.648   9.139 -0.1214 -0.1501 -0.3362
  754MOL0     H99483   5.799   7.739   9.009  0.4130 -2.4211 -0.1727
  754MOL0     H99484   5.698   7.825   9.203 -0.4568 -0.1965 -2.0479
  754MOL0     H99485   5.800   7.959   9.142 -0.8413  0.8910  0.6482
  754MOL0     H99486   5.968   7.913   9.309 -0.6408  0.8719  0.3327
  754MOL0     H99487   5.801   7.951   9.365  0.2425  0.4690  0.8006
  754MOL0     H99488   5.944   7.679   9.361 -0.6796  0.8357 -1.1923
  754MOL0     H99489   5.771   7.688   9.378  0.7547 -1.1957  0.4515
  754MOL0     H99490   6.115   7.774   9.441  1.6669  0.2615  0.3118
  754MOL0     H99491   6.317   7.780   9.579 -0.2773  1.7508 -1.5427
  754MOL0     H99492   6.472   7.647  10.028  1.0495 -1.2862  0.8189
  754MOL0     H99493   6.693   7.667  10.161 -0.5353 -0.5523  1.1552
  754MOL0     H99494   6.819   8.046  10.190  0.1734 -1.6897 -2.4230
  754MOL0     H99495   6.930   7.910  10.163 -1.9539 -0.8906 -0.6357
  754MOL0     H99496   7.034   8.068  10.289  0.5317 -2.6957 -1.4048
  754MOL0     H99497   7.014   7.925  10.396 -0.6100 -0.9654  0.2935
  754MOL0     H99498   6.809   8.063  10.500 -0.1880  2.0098  0.9625
  754MOL0     H99499   6.851   8.202  10.399 -0.9116 -0.1578  0.3952
  754MOL0     H99500   7.049   8.085  10.598  0.7975 -0.9471 -0.8284
  754MOL0     H99501   7.065   8.224  10.491 -1.6407  0.9415 -1.1412
  754MOL0     H99502   6.846   8.321  10.610  0.4507  3.2179  2.7246
  754MOL0     H99503   6.979   8.314  10.720 -2.6712 -0.5662  2.8964
  754MOL0     H99504   6.913   8.094  10.823 -3.0371 -2.6671 -0.0302
  754MOL0     H99505   6.782   8.086  10.715 -0.6443  0.4124 -1.5508
  754MOL0     H99506   6.682   8.273  10.785 -0.8959 -0.7996 -0.3664
  754MOL0     H99507   6.721   8.157  10.922 -0.2561 -0.1430 -0.1291
  754MOL0     H99508   6.861   8.416  10.898  0.7748  1.1529  2.2565
  754MOL0     H99509   6.889   8.298  11.025 -0.2000  0.6483  1.0687
  754MOL0     H99510   6.598   8.069  10.262  0.5439 -0.2404 -0.0097
  754MOL0     H99511   6.414   8.069  10.112 -2.0113 -0.1160 -1.3053
  754MOL0     H99512   6.070   7.844   9.923 -2.9664  2.1232 -1.2897
  754MOL0     H99513   5.877   7.815   9.791 -1.0412 -1.9454 -2.0343
  754MOL0     H99514   6.975   8.068   9.072 -1.9587 -4.7389 -0.2143
  754MOL0     H99515   7.188   8.104   9.209  4.2349  1.9977 -1.2414
  754MOL0     H99516   7.624   7.986   9.267  1.8126  0.1117  2.0651
  754MOL0     H99517   7.823   8.010   9.389  0.8440 -1.7396 -1.1419
  754MOL0     H99518   8.061   8.007   9.385 -7.4472  1.4749 -0.6677
  754MOL0     H99519   8.019   8.101   9.525 -1.0749 -2.4435 -0.0222
  754MOL0     H99520   8.262   8.072   9.540  0.5094 -1.2452 -0.5733
  754MOL0     H99521   8.282   8.149   9.379  1.3591  1.7333  1.5907
  754MOL0     H99522   8.150   8.285   9.627  0.0221  1.4261  0.6886
  754MOL0     H99523   8.198   8.363   9.477  1.5203 -0.5485 -1.2371
  754MOL0     H99524   8.345   8.427   9.638 -3.8860 -0.9052  1.7500
  754MOL0     H99525   8.377   8.255   9.684  0.2283  0.8391 -0.4543
  754MOL0     H99526   8.592   8.307   9.321  1.7790 -3.7794  1.3633
  754MOL0     H99527   7.962   8.319   9.119  0.4669 -0.2587  0.5196
  754MOL0     H99528   7.754   8.313   9.003 -2.2386 -0.8952 -0.8618
  755MOL0     O99529   0.768   2.646   9.610  0.3617  0.2790 -0.5611
  755MOL0     C99530   0.806   2.699   9.505  0.8731  0.4193  0.4269
  755MOL0     O99531   0.728   2.714   9.389 -0.5927  0.4524 -0.2129
  755MOL0     C99532   0.593   2.676   9.382 -0.2214  0.4473  0.7549
  755MOL0     C99533   0.507   2.656   9.485  0.1779 -0.0600  0.8424
  755MOL0     C99534   0.377   2.614   9.465 -0.3396  0.7807 -0.2598
  755MOL0     C99535   0.344   2.558   9.338 -0.5568  0.9158  0.4459
  755MOL0     O99536   0.229   2.496   9.306  0.1928  0.7197  0.1770
  755MOL0     C99537   0.111   2.497   9.393 -0.1814  0.7835  0.3685
  755MOL0     C99538  -0.014   2.451   9.319  0.2888  1.1785  0.1840
  755MOL0     C99539  -0.130   2.431   9.425 -0.0571 -0.0421  0.2448
  755MOL0     C99540  -0.267   2.405   9.357  0.5891  0.0282  0.4613
  755MOL0     C99541  -0.388   2.415   9.447 -0.5091 -0.1726 -0.6780
  755MOL0     C99542  -0.393   2.292   9.533 -0.2948  0.1946 -0.2816
  755MOL0     C99543  -0.523   2.297   9.621  0.3692  0.2791 -0.1212
  755MOL0     C99544  -0.533   2.187   9.731  0.3847 -0.4258  0.8750
  755MOL0     N99545  -0.653   2.185   9.814 -0.7689  0.1459 -0.1239
  755MOL0     C99546  -0.768   2.115   9.796  0.3634  1.0007 -0.1156
  755MOL0     C99547  -0.845   2.133   9.907 -0.2920 -0.0019 -0.5923
  755MOL0     C99548  -0.964   2.043   9.947 -0.3677 -0.5658 -0.2337
  755MOL0     C99549  -1.093   2.089   9.885 -0.0893  0.1539  0.5176
  755MOL0     C99550  -1.211   2.025   9.948  0.3959 -0.5194  0.3010
  755MOL0     C99551  -1.344   2.084   9.913 -0.6389 -0.0021  0.0168
  755MOL0     O99552  -1.379   2.202   9.993 -0.5906  0.0651 -0.0571
  755MOL0     C99553  -1.514   2.216  10.007  0.1861  0.4333  0.7217
  755MOL0     C99554  -1.557   2.279  10.121 -0.0472  0.5837  0.0748
  755MOL0     C99555  -1.690   2.321  10.138  0.6773  0.4783 -0.7330
  755MOL0     C99556  -1.785   2.292  10.035 -0.8346  0.0741 -0.5255
  755MOL0     C99557  -1.932   2.328  10.044  0.2078  0.0157 -0.6163
  755MOL0     O99558  -1.969   2.406  10.152 -0.2919  0.0355  0.4219
  755MOL0     C99559  -2.089   2.463  10.169 -0.2271  0.1314  0.2691
  755MOL0     C99560  -2.198   2.475  10.089 -0.4385  0.8049  0.3832
  755MOL0     C99561  -2.316   2.528  10.120  0.2515 -0.4541 -0.3021
  755MOL0     C99562  -2.329   2.603  10.236  0.1047 -0.5148 -0.6727
  755MOL0     O99563  -2.448   2.666  10.277 -0.0809 -0.1457 -0.6619
  755MOL0     C99564  -2.549   2.693  10.183 -0.1776  0.0791  0.4537
  755MOL0     C99565  -2.647   2.770  10.262 -0.2622  0.1124 -0.4193
  755MOL0     C99566  -2.749   2.831  10.169  0.7521  0.4247  1.1656
  755MOL0     C99567  -2.824   2.938  10.244 -0.3099  0.3193  0.0705
  755MOL0     C99568  -2.927   3.012  10.161  0.3919 -0.5105  0.4937
  755MOL0     C99569  -3.057   2.942  10.135 -0.3407  0.1773 -0.1982
  755MOL0     C99570  -3.082   2.889   9.992  1.0143  0.0902 -0.8609
  755MOL0     C99571  -3.131   2.982   9.883 -0.1927 -0.4257 -0.1718
  755MOL0    Cl99572  -3.281   3.061   9.936  0.0814  0.0348 -0.3706
  755MOL0     C99573  -2.220   2.611  10.321 -0.5017  0.1424  0.0594
  755MOL0     C99574  -2.104   2.534  10.295  0.4393  0.0438  0.1295
  755MOL0     O99575  -2.005   2.279   9.956 -0.4245 -0.8254 -0.1075
  755MOL0     C99576  -1.737   2.226   9.922  1.1254 -0.1366  0.2875
  755MOL0     C99577  -1.606   2.182   9.911  0.2418 -0.1985  0.1650
  755MOL0     N99578  -0.784   2.230   9.987  0.0046 -0.0546 -0.4141
  755MOL0     N99579  -0.669   2.260   9.934  0.3625 -0.6826 -0.2929
  755MOL0     C99580   0.439   2.565   9.234  0.2078 -0.0782 -0.4655
  755MOL0     C99581   0.563   2.632   9.252 -0.5308  0.2168  0.1658
  755MOL0     C99582   0.942   2.750   9.507  0.3989 -0.1598 -0.5246
  755MOL0     C99583   1.030   2.716   9.608 -0.8622 -0.2900 -1.1086
  755MOL0     C99584   1.159   2.768   9.607  0.2891 -0.4045 -0.2728
  755MOL0     C99585   1.209   2.864   9.512  0.6519  0.3338 -0.3807
  755MOL0     O99586   1.351   2.892   9.517  0.3751 -0.0202 -0.1706
  755MOL0     C99587   1.410   2.952   9.408  0.0161 -1.0632  0.3058
  755MOL0     C99588   1.561   2.968   9.416 -0.0338 -0.8535  0.3923
  755MOL0     C99589   1.625   2.835   9.428  1.1013  0.7449 -0.3562
  755MOL0     C99590   1.778   2.847   9.439  0.2423  0.0115 -0.3782
  755MOL0     C99591   1.844   2.908   9.332 -0.0876 -0.3810  0.7048
  755MOL0     C99592   1.901   2.950   9.227 -1.1858  0.7833 -0.0698
  755MOL0     C99593   1.114   2.893   9.407 -0.1856  0.8272 -0.3453
  755MOL0     C99594   0.985   2.833   9.402  0.6228 -0.1235 -1.5960
  755MOL0     H99595   0.524   2.695   9.585  1.8693  4.1302 -0.8353
  755MOL0     H99596   0.309   2.589   9.547 -0.5272  0.6964 -0.4412
  755MOL0     H99597   0.098   2.601   9.425  1.6715  1.6423 -1.4160
  755MOL0     H99598   0.125   2.445   9.488 -4.8435  4.4344  3.5809
  755MOL0     H99599   0.001   2.356   9.269 -0.5876  0.5672  1.0399
  755MOL0     H99600  -0.040   2.522   9.240  0.3931 -1.4238 -2.3310
  755MOL0     H99601  -0.141   2.520   9.488  0.9667  0.6047 -0.4521
  755MOL0     H99602  -0.104   2.350   9.494  0.9468  0.7514  0.8212
  755MOL0     H99603  -0.282   2.490   9.290  2.3670  0.2919  0.3565
  755MOL0     H99604  -0.266   2.314   9.295  0.0935  2.4372 -3.4630
  755MOL0     H99605  -0.478   2.424   9.385 -0.4305  1.7652 -0.5956
  755MOL0     H99606  -0.378   2.504   9.510  0.1341 -0.9028  0.2690
  755MOL0     H99607  -0.310   2.285   9.603  0.4516  0.0363 -1.1676
  755MOL0     H99608  -0.400   2.203   9.470 -1.0095  0.5481 -0.7252
  755MOL0     H99609  -0.535   2.396   9.666 -0.1581 -0.0412  0.4551
  755MOL0     H99610  -0.605   2.289   9.549  0.2789  0.2588 -0.0170
  755MOL0     H99611  -0.446   2.197   9.797  0.6679 -0.5858  0.5317
  755MOL0     H99612  -0.517   2.088   9.687 -1.5272  0.8670 -3.1778
  755MOL0     H99613  -0.782   2.047   9.712  0.8944  1.3298 -0.4743
  755MOL0     H99614  -0.964   2.050  10.056  1.1519 -3.3576  0.0540
  755MOL0     H99615  -0.940   1.939   9.923 -1.4190 -1.6879  3.0716
  755MOL0     H99616  -1.091   2.079   9.776 -2.0525  1.0903  0.3494
  755MOL0     H99617  -1.093   2.198   9.889  1.9291  0.1623  1.5511
  755MOL0     H99618  -1.210   1.923   9.909  0.1085 -1.1675  1.8948
  755MOL0     H99619  -1.207   2.020  10.058 -1.3213 -1.5878  0.3621
  755MOL0     H99620  -1.416   2.002   9.915  1.3587 -1.9391  3.9002
  755MOL0     H99621  -1.335   2.113   9.808  0.7137 -2.3846 -0.6041
  755MOL0     H99622  -1.489   2.306  10.202  2.1221 -1.6184 -0.8911
  755MOL0     H99623  -1.724   2.361  10.234 -0.4022  0.9738 -1.3016
  755MOL0     H99624  -2.184   2.432   9.990  0.3564 -2.2507  1.7015
  755MOL0     H99625  -2.401   2.530  10.052  0.1900 -0.0254 -0.2146
  755MOL0     H99626  -2.593   2.599  10.149  0.5748 -0.3553  0.6668
  755MOL0     H99627  -2.502   2.758  10.109 -1.2304 -1.8325 -2.0559
  755MOL0     H99628  -2.584   2.852  10.297  0.8516  0.9501 -3.9788
  755MOL0     H99629  -2.694   2.711  10.342  0.4203  1.1109  0.7358
  755MOL0     H99630  -2.824   2.757  10.140  0.3471  0.3963  2.2385
  755MOL0     H99631  -2.706   2.873  10.077  1.4488 -1.0656  0.7760
  755MOL0     H99632  -2.878   2.904  10.333 -1.1622  0.5256 -0.3484
  755MOL0     H99633  -2.748   3.004  10.288  1.2891 -2.0253  1.0211
  755MOL0     H99634  -2.890   3.037  10.061 -1.3016  1.5783  0.3153
  755MOL0     H99635  -2.940   3.104  10.220  1.6506 -1.3934  2.2447
  755MOL0     H99636  -3.144   3.003  10.164 -1.1166 -0.5286 -0.9835
  755MOL0     H99637  -3.060   2.856  10.203  1.6355 -1.6445 -2.2585
  755MOL0     H99638  -2.992   2.840   9.957  0.9548  0.3257 -1.3570
  755MOL0     H99639  -3.151   2.805  10.000  0.2339  0.7847  0.0495
  755MOL0     H99640  -3.155   2.930   9.790 -0.1290  0.6992 -0.8392
  755MOL0     H99641  -3.058   3.061   9.862 -0.9003  0.6908  1.3398
  755MOL0     H99642  -2.235   2.675  10.408  0.1601  3.6906 -2.2238
  755MOL0     H99643  -2.024   2.551  10.367 -0.6286 -1.0056  1.6187
  755MOL0     H99644  -1.806   2.190   9.847 -0.2813  0.4941  1.2228
  755MOL0     H99645  -1.566   2.136   9.821  1.3815  0.2571  0.4251
  755MOL0     H99646   0.409   2.518   9.141  1.6912 -3.7209  0.7448
  755MOL0     H99647   0.635   2.634   9.170 -0.0226  0.4035  0.6139
  755MOL0     H99648   1.007   2.653   9.693  1.1723 -1.0075 -1.0211
  755MOL0     H99649   1.222   2.726   9.684  2.0171  0.7693 -0.9741
  755MOL0     H99650   1.375   3.055   9.394  2.6553 -0.1381  0.0150
  755MOL0     H99651   1.391   2.888   9.322  0.2669 -0.2562 -0.3533
  755MOL0     H99652   1.604   3.025   9.333 -0.5652 -1.5871 -0.3947
  755MOL0     H99653   1.582   3.025   9.507 -0.9862 -2.0801  1.4068
  755MOL0     H99654   1.596   2.769   9.345 -1.2791  0.0141  0.9776
  755MOL0     H99655   1.596   2.790   9.522  2.9985  1.2020  0.5000
  755MOL0     H99656   1.798   2.906   9.529  0.1198 -1.1841  0.4568
  755MOL0     H99657   1.821   2.749   9.460  0.1593 -0.3472 -1.7970
  755MOL0     H99658   1.951   2.981   9.137 -2.3616  2.0133 -0.3396
  755MOL0     H99659   1.148   2.951   9.321  1.3684 -0.3493 -0.5664
  755MOL0     H99660   0.917   2.863   9.323  0.6054 -1.5901 -2.1611
  756MOL0     O99661   1.839   0.921   7.131  0.7512 -0.6396 -0.0862
  756MOL0     C99662   1.772   0.931   7.026  0.5651  0.3975 -1.3956
  756MOL0     O99663   1.638   0.938   7.027  0.2454 -0.0295  0.1471
  756MOL0     C99664   1.558   0.957   7.141 -0.0873 -0.2287  0.5096
  756MOL0     C99665   1.549   1.083   7.189 -0.9822  0.9190 -0.0991
  756MOL0     C99666   1.463   1.106   7.296 -0.5354 -0.1541  1.1442
  756MOL0     C99667   1.378   1.004   7.351  0.1311  0.7457  0.4352
  756MOL0     O99668   1.281   1.041   7.444 -0.4470  0.4426  0.0499
  756MOL0     C99669   1.194   0.941   7.495  0.0041 -0.6558  0.1997
  756MOL0     C99670   1.089   1.008   7.587 -0.2319 -0.2314  0.7281
  756MOL0     C99671   1.037   0.904   7.689  0.6275  0.2305 -0.5745
  756MOL0     C99672   0.918   0.969   7.749 -0.0548  0.5014  0.4647
  756MOL0     C99673   0.870   0.882   7.871  0.2431 -0.6161 -0.0298
  756MOL0     C99674   0.818   0.740   7.848 -1.2610 -0.5223 -0.4317
  756MOL0     C99675   0.690   0.727   7.765 -0.0739 -0.0502 -0.0069
  756MOL0     C99676   0.569   0.791   7.829 -0.2167 -0.3664 -0.4804
  756MOL0     N99677   0.445   0.761   7.749  0.0053 -0.4561 -0.6427
  756MOL0     C99678   0.348   0.662   7.759 -1.4292  0.4473 -0.1622
  756MOL0     C99679   0.263   0.688   7.655  0.2725 -0.5418 -0.1251
  756MOL0     C99680   0.132   0.622   7.620  1.1106 -0.1335 -0.5067
  756MOL0     C99681   0.082   0.643   7.471  0.4004 -0.6207  0.7807
  756MOL0     C99682  -0.059   0.597   7.464  0.6926 -0.2049  0.3714
  756MOL0     C99683  -0.162   0.697   7.511 -0.1133 -0.4748 -0.1804
  756MOL0     O99684  -0.158   0.820   7.430 -0.2173 -0.1771 -0.0323
  756MOL0     C99685  -0.279   0.889   7.421 -0.8200 -0.6421 -0.5457
  756MOL0     C99686  -0.295   0.972   7.313  0.0053 -0.7173  0.4839
  756MOL0     C99687  -0.420   1.024   7.282  0.6676  0.1922 -0.1842
  756MOL0     C99688  -0.535   0.989   7.356 -0.7612  0.1554  0.1568
  756MOL0     C99689  -0.675   1.027   7.311  0.2032  0.1297 -0.4932
  756MOL0     O99690  -0.775   1.030   7.404  0.0714  0.0099  0.1366
  756MOL0     C99691  -0.900   1.040   7.357  0.2098  0.0053 -0.0114
  756MOL0     C99692  -0.996   0.945   7.391 -0.5545 -0.1310  0.0893
  756MOL0     C99693  -1.129   0.951   7.351  0.2546 -0.1331  0.0687
  756MOL0     C99694  -1.182   1.064   7.294  0.6074  1.2694  0.4034
  756MOL0     O99695  -1.320   1.062   7.267  0.8445 -0.9386 -0.3123
  756MOL0     C99696  -1.405   1.136   7.361  0.3317 -0.4225  1.0383
  756MOL0     C99697  -1.551   1.121   7.323 -0.5691  0.1623  0.9673
  756MOL0     C99698  -1.591   0.964   7.314  0.0382 -0.2591 -0.6087
  756MOL0     C99699  -1.572   0.899   7.450  0.8450  0.4119 -0.0551
  756MOL0     C99700  -1.630   0.755   7.456 -0.7052 -0.0126  0.0954
  756MOL0     C99701  -1.777   0.737   7.432 -0.4593  0.1603  0.1395
  756MOL0     C99702  -1.836   0.594   7.422  0.3875 -0.3197  0.6147
  756MOL0     C99703  -1.888   0.541   7.542 -0.6200 -0.9757 -1.1077
  756MOL0    Cl99704  -1.912   0.368   7.520 -0.0204 -0.3919 -0.4542
  756MOL0     C99705  -1.091   1.160   7.268 -0.4175 -0.1174 -0.3455
  756MOL0     C99706  -0.955   1.153   7.299 -0.0821  0.1876  0.7880
  756MOL0     O99707  -0.697   1.042   7.194 -0.1630 -0.4737  0.4847
  756MOL0     C99708  -0.520   0.927   7.478 -0.2343  0.5406  0.0366
  756MOL0     C99709  -0.388   0.878   7.511  0.6448 -0.4626  0.8639
  756MOL0     N99710   0.322   0.788   7.582  0.2677 -0.1705 -0.0441
  756MOL0     N99711   0.422   0.834   7.640  0.0252  0.1457  0.5984
  756MOL0     C99712   1.394   0.876   7.298 -0.4014 -0.1093 -0.5219
  756MOL0     C99713   1.487   0.850   7.192 -0.1325  0.0133  0.1415
  756MOL0     C99714   1.840   0.927   6.899 -0.4775  0.0441  0.3279
  756MOL0     C99715   1.978   0.918   6.895 -0.1547  0.4719 -0.5042
  756MOL0     C99716   2.050   0.892   6.774 -0.9997 -0.6749 -0.6909
  756MOL0     C99717   1.984   0.872   6.661  0.3003  0.8837 -0.8401
  756MOL0     O99718   2.056   0.814   6.560  0.4033 -0.1588  0.4720
  756MOL0     C99719   1.978   0.768   6.448 -0.0427 -1.3058 -0.0938
  756MOL0     C99720   2.067   0.727   6.330  0.1960  0.1986  0.5609
  756MOL0     C99721   2.165   0.839   6.282  0.4193 -0.7557  0.6222
  756MOL0     C99722   2.218   0.801   6.135  0.7689 -0.1315  1.0107
  756MOL0     C99723   2.297   0.900   6.072 -0.6838 -0.4300  0.1632
  756MOL0     C99724   2.348   0.997   6.016 -0.2169 -0.2941 -0.5558
  756MOL0     C99725   1.844   0.878   6.667 -0.0327 -0.8861  0.1993
  756MOL0     C99726   1.777   0.915   6.781 -0.4477 -0.2227 -0.2464
  756MOL0     H99727   1.607   1.165   7.148  1.3554  0.2689  1.6838
  756MOL0     H99728   1.447   1.206   7.336 -1.8029  0.4861 -0.8030
  756MOL0     H99729   1.258   0.877   7.557 -0.3264 -1.7843 -0.5966
  756MOL0     H99730   1.149   0.886   7.413  1.4801 -1.2937 -0.2205
  756MOL0     H99731   1.007   1.045   7.523 -0.3239 -1.5296  0.0607
  756MOL0     H99732   1.136   1.095   7.634 -1.6298 -0.1017  1.9551
  756MOL0     H99733   1.112   0.889   7.767  0.5926  0.8752 -0.4125
  756MOL0     H99734   1.019   0.805   7.645  3.2939 -0.8820  0.6126
  756MOL0     H99735   0.947   1.069   7.782 -0.1025  0.0563  1.9439
  756MOL0     H99736   0.844   0.977   7.669 -0.7688 -2.0768  0.7704
  756MOL0     H99737   0.789   0.941   7.914 -2.5560 -2.0475 -2.9395
  756MOL0     H99738   0.949   0.879   7.947 -2.3919 -0.2664  2.8896
  756MOL0     H99739   0.791   0.701   7.947  2.5510  1.2209  1.4984
  756MOL0     H99740   0.901   0.687   7.801 -0.6370 -0.2493  0.3439
  756MOL0     H99741   0.713   0.778   7.671  1.7063  2.8061  1.8185
  756MOL0     H99742   0.666   0.622   7.750  0.2003  0.2313 -2.9273
  756MOL0     H99743   0.584   0.900   7.828  1.6241 -0.5856 -1.4700
  756MOL0     H99744   0.557   0.761   7.933  2.9565  1.2181  0.4919
  756MOL0     H99745   0.347   0.591   7.842  1.5523  0.5183  0.0412
  756MOL0     H99746   0.051   0.652   7.687 -0.5858  1.1756 -2.9484
  756MOL0     H99747   0.156   0.516   7.631 -2.6034 -1.3182 -2.0189
  756MOL0     H99748   0.149   0.591   7.403  0.8358 -2.3639  2.4597
  756MOL0     H99749   0.086   0.748   7.440 -0.3822 -0.6644  0.5001
  756MOL0     H99750  -0.076   0.568   7.360 -1.9579 -1.1723  0.9941
  756MOL0     H99751  -0.064   0.503   7.520 -1.8057 -0.8582 -0.7925
  756MOL0     H99752  -0.138   0.712   7.617 -0.9155 -1.0152  0.0831
  756MOL0     H99753  -0.259   0.648   7.504 -0.3609 -0.5407  2.4953
  756MOL0     H99754  -0.216   0.996   7.242 -0.5189  1.6462  0.6050
  756MOL0     H99755  -0.425   1.084   7.191 -2.2973  0.1434 -0.1360
  756MOL0     H99756  -0.954   0.856   7.437 -0.8735 -0.4151 -0.1635
  756MOL0     H99757  -1.197   0.873   7.381 -2.0114  1.7169  0.0206
  756MOL0     H99758  -1.376   1.241   7.356  1.2387 -0.6690  0.9292
  756MOL0     H99759  -1.384   1.097   7.461  3.7097 -1.2339  0.1309
  756MOL0     H99760  -1.573   1.176   7.231  0.6230 -2.6523 -1.1809
  756MOL0     H99761  -1.610   1.158   7.407  1.3475 -1.5258  3.1960
  756MOL0     H99762  -1.535   0.904   7.242 -0.1205  0.1163 -1.0471
  756MOL0     H99763  -1.690   0.970   7.268  0.3917  0.2982 -1.3202
  756MOL0     H99764  -1.466   0.899   7.474  0.4667 -1.3998  1.8653
  756MOL0     H99765  -1.632   0.947   7.528 -1.0798 -2.0743  0.1080
  756MOL0     H99766  -1.613   0.725   7.559 -4.2816 -1.9776  0.2723
  756MOL0     H99767  -1.564   0.695   7.393  1.7658  0.8731  1.6924
  756MOL0     H99768  -1.804   0.788   7.339 -0.7069  0.7289  0.5140
  756MOL0     H99769  -1.838   0.785   7.509 -0.8564 -1.3409  0.7868
  756MOL0     H99770  -1.916   0.609   7.350  1.6879  3.1555 -0.3368
  756MOL0     H99771  -1.760   0.524   7.387  1.8503  1.3485  0.2969
  756MOL0     H99772  -1.972   0.593   7.589 -0.5703 -1.8575  0.0082
  756MOL0     H99773  -1.806   0.544   7.615  0.2695 -1.0164 -2.0718
  756MOL0     H99774  -1.128   1.251   7.223  1.8291 -0.2974 -2.8319
  756MOL0     H99775  -0.896   1.241   7.277 -2.3930  1.1198 -2.5530
  756MOL0     H99776  -0.604   0.905   7.544 -0.3443  0.6380 -0.0701
  756MOL0     H99777  -0.368   0.812   7.595 -0.9176 -1.0154  0.8401
  756MOL0     H99778   1.339   0.793   7.340 -1.4726  0.4197 -0.8343
  756MOL0     H99779   1.485   0.754   7.142 -2.0078  0.8198 -1.4736
  756MOL0     H99780   2.043   0.928   6.981 -0.2007 -1.7580 -0.1605
  756MOL0     H99781   2.155   0.864   6.769 -1.2088 -1.2748 -2.0686
  756MOL0     H99782   1.902   0.839   6.415  0.0470 -0.7006  0.9557
  756MOL0     H99783   1.924   0.679   6.482 -0.5099 -0.3708  1.7938
  756MOL0     H99784   2.130   0.642   6.356  1.7342  1.3374  0.7028
  756MOL0     H99785   2.001   0.687   6.252 -1.5621 -3.5101  3.6025
  756MOL0     H99786   2.250   0.841   6.350 -0.5102 -4.4151  2.1539
  756MOL0     H99787   2.119   0.937   6.273 -0.7857 -1.5133 -2.9278
  756MOL0     H99788   2.281   0.712   6.140 -1.8726 -2.2338 -0.5832
  756MOL0     H99789   2.137   0.764   6.071  1.6087  1.3352 -1.0401
  756MOL0     H99790   2.402   1.068   5.957 -1.3679 -1.8085 -3.6830
  756MOL0     H99791   1.779   0.873   6.580  0.0644  0.5342  0.0369
  756MOL0     H99792   1.671   0.939   6.781 -0.2052  0.9102  0.1073
  757MOL0     O99793   0.778   1.791   2.237  0.4858  0.0284  0.3375
  757MOL0     C99794   0.800   1.683   2.184  0.4631  0.4862 -0.4349
  757MOL0     O99795   0.708   1.592   2.162  0.3722  0.1632  0.5040
  757MOL0     C99796   0.577   1.610   2.198  0.1346 -1.0796 -0.4230
  757MOL0     C99797   0.534   1.542   2.313 -1.0522  0.2499  0.6670
  757MOL0     C99798   0.414   1.575   2.366 -0.2092 -0.6003  0.5103
  757MOL0     C99799   0.329   1.673   2.307 -0.1974 -0.8136 -0.1117
  757MOL0     O99800   0.207   1.692   2.373  0.1749  0.2353  0.1299
  757MOL0     C99801   0.144   1.816   2.342 -0.1567 -0.0744 -0.0701
  757MOL0     C99802   0.012   1.848   2.410 -0.3447  0.9685  0.1105
  757MOL0     C99803  -0.022   1.996   2.387 -0.1189  0.0047  0.0326
  757MOL0     C99804  -0.035   2.017   2.236  0.7584 -0.0975 -0.4191
  757MOL0     C99805  -0.136   2.123   2.202 -0.1415 -0.4340  0.1913
  757MOL0     C99806  -0.079   2.266   2.217  0.1298  0.1777 -0.1110
  757MOL0     C99807  -0.160   2.371   2.146  0.0228  0.5761  0.3181
  757MOL0     C99808  -0.105   2.515   2.164  0.6744 -0.1543 -0.5770
  757MOL0     N99809  -0.203   2.610   2.113  0.0094 -0.2871 -0.2720
  757MOL0     C99810  -0.298   2.675   2.182  0.2152 -0.4786  0.5210
  757MOL0     C99811  -0.351   2.755   2.085  0.1756 -0.8051 -0.0197
  757MOL0     C99812  -0.450   2.865   2.095  0.3594  0.0009  0.1783
  757MOL0     C99813  -0.593   2.812   2.097  0.2889 -0.2167 -1.0333
  757MOL0     C99814  -0.620   2.711   2.219 -0.2652  0.1535 -0.4099
  757MOL0     C99815  -0.771   2.689   2.236 -1.2538 -0.8925  0.2619
  757MOL0     O99816  -0.835   2.797   2.311  0.2632  0.7021  0.0774
  757MOL0     C99817  -0.974   2.794   2.323 -0.6444 -0.5657 -0.5148
  757MOL0     C99818  -1.059   2.689   2.284  0.0226  0.9667  0.4225
  757MOL0     C99819  -1.203   2.707   2.291 -0.7572 -0.5368 -0.1631
  757MOL0     C99820  -1.258   2.832   2.327 -0.8527 -0.4845  0.5472
  757MOL0     C99821  -1.406   2.857   2.328  0.3631 -0.5579 -0.3783
  757MOL0     O99822  -1.476   2.744   2.312  0.1956  0.3174 -0.1115
  757MOL0     C99823  -1.608   2.761   2.291  0.5101 -0.1375 -0.2417
  757MOL0     C99824  -1.660   2.829   2.177 -0.5989 -0.5142  0.2348
  757MOL0     C99825  -1.795   2.817   2.149  0.0614  0.1119  0.1184
  757MOL0     C99826  -1.881   2.776   2.250 -0.2668 -0.6516 -0.1700
  757MOL0     O99827  -2.010   2.800   2.214  0.3890  0.2421 -0.3360
  757MOL0     C99828  -2.113   2.765   2.306 -0.0051  0.1109  0.3036
  757MOL0     C99829  -2.244   2.778   2.227  0.4366  0.4207  0.3116
  757MOL0     C99830  -2.361   2.710   2.293 -0.2654 -0.1116 -0.4665
  757MOL0     C99831  -2.486   2.734   2.207 -0.1231 -0.8477  0.4679
  757MOL0     C99832  -2.612   2.677   2.275  0.6226 -0.3074 -0.5490
  757MOL0     C99833  -2.742   2.748   2.241  0.7268 -0.6937 -0.2371
  757MOL0     C99834  -2.772   2.761   2.099  0.1141  0.3468 -0.0067
  757MOL0     C99835  -2.904   2.831   2.066  0.5032 -0.9077 -0.2271
  757MOL0    Cl99836  -2.903   3.016   2.113  0.1778  0.0151 -0.1149
  757MOL0     C99837  -1.834   2.722   2.367 -0.2347 -0.3495  0.6894
  757MOL0     C99838  -1.697   2.706   2.388  0.0254 -0.5111  0.7798
  757MOL0     O99839  -1.453   2.972   2.328  0.3784 -0.4157 -0.1812
  757MOL0     C99840  -1.170   2.929   2.373  0.7074 -0.8762  0.0872
  757MOL0     C99841  -1.036   2.908   2.386  0.3105  0.1141 -0.4973
  757MOL0     N99842  -0.269   2.744   1.972 -0.1519  1.0815  0.3906
  757MOL0     N99843  -0.188   2.649   1.983 -0.3938 -0.5184 -0.0284
  757MOL0     C99844   0.373   1.745   2.190  0.2749  0.4870 -0.1475
  757MOL0     C99845   0.491   1.708   2.127 -0.1698  0.1346  0.3928
  757MOL0     C99846   0.948   1.649   2.152 -0.0971  0.0957  0.0355
  757MOL0     C99847   0.988   1.522   2.125  0.3432  0.4220 -0.7363
  757MOL0     C99848   1.124   1.502   2.101 -0.3626 -0.1410 -0.8063
  757MOL0     C99849   1.220   1.606   2.097  0.0827  0.1537  0.3489
  757MOL0     O99850   1.358   1.585   2.064 -0.1073  0.8436  0.4227
  757MOL0     C99851   1.456   1.678   2.118  0.2071 -0.1250 -0.0397
  757MOL0     C99852   1.594   1.628   2.085 -0.0862 -0.4705 -0.2660
  757MOL0     C99853   1.624   1.478   2.123  0.2543  0.1271 -0.5779
  757MOL0     C99854   1.777   1.468   2.118 -0.1547 -0.6635 -0.4377
  757MOL0     C99855   1.810   1.338   2.173 -0.3116 -1.1422  0.2298
  757MOL0     C99856   1.841   1.230   2.207  0.5838  0.3454 -0.7054
  757MOL0     C99857   1.174   1.737   2.129  0.7805 -0.4767 -0.2483
  757MOL0     C99858   1.042   1.756   2.167  0.2160  0.1345  0.3812
  757MOL0     H99859   0.598   1.466   2.357 -0.0031  1.4831  1.3477
  757MOL0     H99860   0.386   1.524   2.457  2.2221 -1.4776  0.8396
  757MOL0     H99861   0.124   1.813   2.234 -1.4774  2.7439  0.0181
  757MOL0     H99862   0.213   1.898   2.363 -1.6584  1.6722 -1.5717
  757MOL0     H99863   0.017   1.825   2.517 -0.9407  2.5778  0.5170
  757MOL0     H99864  -0.064   1.785   2.364 -0.0124 -0.7000  1.7198
  757MOL0     H99865   0.052   2.061   2.433  0.1625 -0.2358 -0.0785
  757MOL0     H99866  -0.120   2.014   2.433 -0.9427  0.8451 -1.9275
  757MOL0     H99867   0.056   2.025   2.176  0.4495 -1.6731 -1.1252
  757MOL0     H99868  -0.076   1.926   2.193 -0.6327 -0.0227  0.6786
  757MOL0     H99869  -0.224   2.115   2.268  0.7309  0.4333  1.5048
  757MOL0     H99870  -0.157   2.115   2.095  0.5931 -3.4678  0.1741
  757MOL0     H99871   0.024   2.255   2.182 -1.0502 -3.2808 -3.1790
  757MOL0     H99872  -0.082   2.294   2.323 -2.1698  3.4257 -0.9003
  757MOL0     H99873  -0.151   2.341   2.041  3.6208  0.1418  0.6202
  757MOL0     H99874  -0.262   2.371   2.186 -0.0857  0.0401  0.0524
  757MOL0     H99875  -0.019   2.539   2.102 -1.8422  5.1123 -2.5676
  757MOL0     H99876  -0.083   2.525   2.271 -3.0710 -1.0032  0.4211
  757MOL0     H99877  -0.313   2.681   2.290  1.5416  4.1784  0.6290
  757MOL0     H99878  -0.454   2.921   2.001 -0.3630 -2.5649 -1.4250
  757MOL0     H99879  -0.430   2.936   2.176 -1.5064  1.1320 -0.3061
  757MOL0     H99880  -0.617   2.754   2.008 -0.7753 -3.2621  1.0819
  757MOL0     H99881  -0.656   2.899   2.120 -0.2042 -0.7877 -0.1680
  757MOL0     H99882  -0.559   2.622   2.205  0.9989  0.6466  1.5326
  757MOL0     H99883  -0.577   2.759   2.307  1.7853  5.3231 -3.7381
  757MOL0     H99884  -0.796   2.603   2.299 -1.7784 -0.3565  0.8050
  757MOL0     H99885  -0.820   2.688   2.138 -1.4206  3.6122  0.1317
  757MOL0     H99886  -1.022   2.591   2.254 -1.5765  0.3977  0.2121
  757MOL0     H99887  -1.270   2.624   2.270 -1.0886 -0.2667 -0.1846
  757MOL0     H99888  -1.588   2.880   2.114 -0.4367  0.0410  0.8591
  757MOL0     H99889  -1.832   2.860   2.057  0.8446  1.9271  0.6182
  757MOL0     H99890  -2.116   2.833   2.392  1.7001  0.9905 -0.2760
  757MOL0     H99891  -2.098   2.666   2.349 -2.1531 -0.5906 -0.4458
  757MOL0     H99892  -2.232   2.732   2.128  1.7182  2.9313 -0.7753
  757MOL0     H99893  -2.260   2.886   2.224  2.5521  0.7979  0.9920
  757MOL0     H99894  -2.368   2.744   2.396  0.2269 -1.2367 -0.0456
  757MOL0     H99895  -2.333   2.604   2.302  3.8020  0.9667  1.9078
  757MOL0     H99896  -2.498   2.840   2.184  2.7500 -0.7690 -1.1861
  757MOL0     H99897  -2.478   2.692   2.106 -0.6391 -1.0149  0.4931
  757MOL0     H99898  -2.601   2.687   2.383  1.0231 -0.2072 -0.5963
  757MOL0     H99899  -2.635   2.577   2.236 -0.9567  1.2316 -4.0772
  757MOL0     H99900  -2.753   2.840   2.300 -1.4578 -1.7521  1.1144
  757MOL0     H99901  -2.829   2.694   2.279 -1.4824  1.1120 -2.3723
  757MOL0     H99902  -2.702   2.825   2.044 -2.3124  2.3110 -1.0426
  757MOL0     H99903  -2.771   2.661   2.054 -1.3478 -0.5711  1.8754
  757MOL0     H99904  -2.988   2.772   2.105 -0.9607  0.5278 -1.0868
  757MOL0     H99905  -2.920   2.840   1.958 -2.9556  1.2326  0.3112
  757MOL0     H99906  -1.889   2.681   2.451  0.4270 -0.4471  1.0824
  757MOL0     H99907  -1.658   2.667   2.482  2.3318  1.8137  0.8878
  757MOL0     H99908  -1.210   3.023   2.408 -0.5786 -1.4350  0.1789
  757MOL0     H99909  -0.973   2.979   2.439  1.6535 -1.6702  0.4181
  757MOL0     H99910   0.299   1.806   2.139  0.1147  1.7320  1.4524
  757MOL0     H99911   0.510   1.757   2.032 -0.1062 -1.2063 -0.3076
  757MOL0     H99912   0.911   1.445   2.126  1.4706 -0.7431 -0.3848
  757MOL0     H99913   1.161   1.400   2.091 -0.2107  0.0189 -1.9808
  757MOL0     H99914   1.447   1.694   2.226  2.9258  0.0202  0.2426
  757MOL0     H99915   1.433   1.771   2.066  2.2353  1.3421  1.4816
  757MOL0     H99916   1.600   1.643   1.977 -0.8068  4.4773  0.1316
  757MOL0     H99917   1.664   1.698   2.131 -0.4438 -1.6866  2.2654
  757MOL0     H99918   1.559   1.407   2.071 -0.4894  1.7228 -1.9245
  757MOL0     H99919   1.599   1.464   2.229  2.4942  1.1204  0.1374
  757MOL0     H99920   1.809   1.479   2.014  1.4249 -0.1435  0.0712
  757MOL0     H99921   1.832   1.542   2.177 -0.9474 -0.6310  0.2784
  757MOL0     H99922   1.871   1.133   2.242 -0.7390 -0.5649 -1.9544
  757MOL0     H99923   1.247   1.818   2.132 -0.5514  0.7661 -0.3566
  757MOL0     H99924   1.010   1.858   2.188 -1.8063  1.0665 -5.3286
  758MOL0     O99925   6.140   2.397   2.307  0.1914 -0.1397 -0.0597
  758MOL0     C99926   6.116   2.443   2.195 -0.3592 -0.8512 -0.4255
  758MOL0     O99927   6.203   2.437   2.095  0.2228  0.0995  0.4794
  758MOL0     C99928   6.323   2.374   2.106 -0.0945  0.3360  0.1024
  758MOL0     C99929   6.431   2.430   2.181 -0.4219 -0.2378  0.2436
  758MOL0     C99930   6.560   2.377   2.166  0.4484  0.7356  0.1577
  758MOL0     C99931   6.586   2.277   2.065 -0.4255 -0.2466  0.0713
  758MOL0     O99932   6.708   2.226   2.019  0.7989  0.3796 -0.5003
  758MOL0     C99933   6.827   2.281   2.078 -0.4488  0.3716  0.1442
  758MOL0     C99934   6.955   2.236   2.020 -1.0431 -0.0709  0.8097
  758MOL0     C99935   7.033   2.351   1.945 -0.5413 -0.4486 -0.2490
  758MOL0     C99936   7.166   2.301   1.881 -1.1515 -0.5801  0.0905
  758MOL0     C99937   7.287   2.319   1.981  0.2390  0.1351  0.5028
  758MOL0     C99938   7.432   2.279   1.943 -0.0152  0.0252  0.1423
  758MOL0     C99939   7.515   2.288   2.076  0.3985 -0.0617  0.3433
  758MOL0     C99940   7.628   2.191   2.067 -0.6212  0.5623  0.2219
  758MOL0     N99941   7.737   2.254   1.993  0.5520  0.2943  0.7609
  758MOL0     C99942   7.814   2.345   2.058  0.0469 -0.9715 -0.4966
  758MOL0     C99943   7.923   2.354   1.988  0.2200  0.0099 -0.3290
  758MOL0     C99944   8.057   2.422   2.019 -0.4104  1.2232 -0.1095
  758MOL0     C99945   8.109   2.526   1.914 -0.7104  1.2788 -0.4499
  758MOL0     C99946   8.033   2.655   1.931 -0.8660 -0.3450  0.3507
  758MOL0     C99947   8.064   2.753   1.813  0.8814  0.0745 -0.2106
  758MOL0     O99948   8.009   2.884   1.834  0.3402  0.7624  0.7782
  758MOL0     C99949   7.871   2.901   1.831  0.0139  0.2578  0.3878
  758MOL0     C99950   7.817   3.011   1.891 -0.5146  0.2820 -0.2786
  758MOL0     C99951   7.684   3.040   1.892 -0.0926 -0.1338  0.2803
  758MOL0     C99952   7.581   2.953   1.841 -0.7159 -0.7561  1.2438
  758MOL0     C99953   7.440   2.984   1.849 -0.1657  0.5391 -0.5340
  758MOL0     O99954   7.401   3.071   1.944 -0.5082 -0.3785  0.2442
  758MOL0     C99955   7.268   3.092   1.959 -0.3718  0.5840 -0.8494
  758MOL0     C99956   7.191   3.034   2.059 -0.1555  0.8293 -0.6151
  758MOL0     C99957   7.056   3.062   2.086 -0.1595  0.3553  0.4384
  758MOL0     C99958   6.999   3.158   2.008  0.3575 -0.6608 -0.5610
  758MOL0     O99959   6.867   3.181   2.035  0.3662  0.0062  0.0332
  758MOL0     C99960   6.785   3.254   1.944  0.2010 -0.1770 -0.9468
  758MOL0     C99961   6.638   3.264   2.006 -0.8014 -0.2260 -0.0808
  758MOL0     C99962   6.533   3.326   1.902  0.3307  1.2158 -0.0771
  758MOL0     C99963   6.391   3.291   1.954 -0.5503 -0.0945  0.9940
  758MOL0     C99964   6.286   3.324   1.852 -0.0805  0.4215  0.2346
  758MOL0     C99965   6.145   3.318   1.918  0.0456 -0.0795  0.3581
  758MOL0     C99966   6.125   3.458   1.979 -0.1631  0.6325  0.0151
  758MOL0     C99967   6.029   3.447   2.098 -0.6512  0.2435 -0.7314
  758MOL0    Cl99968   5.872   3.411   2.025 -0.2254 -0.0742  0.1060
  758MOL0     C99969   7.069   3.223   1.903 -0.6917 -0.1506  0.3037
  758MOL0     C99970   7.201   3.182   1.883  0.3001 -0.9377  0.6736
  758MOL0     O99971   7.366   2.920   1.774 -0.0862  0.1588  0.1461
  758MOL0     C99972   7.631   2.831   1.779 -0.3338 -0.3021 -0.5238
  758MOL0     C99973   7.773   2.810   1.777 -0.0883 -0.1319  0.2362
  758MOL0     N99974   7.911   2.272   1.873 -0.1852  0.6592 -0.3249
  758MOL0     N99975   7.801   2.203   1.882  0.1360 -0.7107 -0.0756
  758MOL0     C99976   6.480   2.226   1.989 -0.5499  1.2959 -1.0736
  758MOL0     C99977   6.352   2.272   2.005  0.5717 -0.0840 -0.8051
  758MOL0     C99978   5.978   2.493   2.161 -0.5094  1.2930  0.3501
  758MOL0     C99979   5.872   2.450   2.243 -0.5029 -0.4964 -0.1867
  758MOL0     C99980   5.745   2.496   2.207  0.1390 -0.5174 -0.8382
  758MOL0     C99981   5.713   2.545   2.084  0.0646 -0.3043  0.6259
  758MOL0     O99982   5.580   2.562   2.062 -0.1438  0.1386 -0.3212
  758MOL0     C99983   5.529   2.572   1.927  0.0338 -0.6628 -0.0649
  758MOL0     C99984   5.567   2.443   1.844  0.2235 -0.4572  0.1701
  758MOL0     C99985   5.485   2.427   1.726  1.3221  0.0450 -0.0256
  758MOL0     C99986   5.521   2.312   1.647  0.3626 -0.0069  0.1313
  758MOL0     C99987   5.426   2.296   1.536  0.3244  0.0240 -0.2927
  758MOL0     C99988   5.345   2.293   1.438  1.0536  0.0643 -0.0037
  758MOL0     C99989   5.818   2.569   1.995  0.2320 -0.6652  0.4648
  758MOL0     C99990   5.951   2.543   2.030 -0.7900 -0.1907 -0.6421
  758MOL0     H99991   6.400   2.511   2.246 -0.4566 -0.4403  0.4827
  758MOL0     H99992   6.637   2.414   2.233 -1.0617 -2.7781  4.3281
  758MOL0     H99993   6.825   2.249   2.182  1.0504 -1.2046 -0.2678
  758MOL0     H99994   6.818   2.390   2.070 -0.5855  0.4888  1.6725
  758MOL0     H99995   6.947   2.150   1.953  0.7490  1.0436 -0.9442
  758MOL0     H99996   7.008   2.208   2.112  0.1874 -0.4105  0.0172
  758MOL0     H99997   7.044   2.435   2.013 -1.7347 -0.9933  0.6620
  758MOL0     H99998   6.977   2.389   1.859  0.6421 -1.6366 -1.5995
  758MOL0     H99999   7.170   2.199   1.843 -0.4607 -0.3291 -0.5350
  758MOL0     H    0   7.187   2.361   1.792  0.5910 -1.6683 -0.2715
  758MOL0     H    1   7.276   2.258   2.071  2.9382  0.0712  0.8906
  758MOL0     H    2   7.277   2.418   2.027  1.6334  0.6872 -0.3254
  758MOL0     H    3   7.472   2.355   1.876 -0.9912  1.6947  1.3413
  758MOL0     H    4   7.438   2.179   1.901 -1.0399 -0.2371  0.5787
  758MOL0     H    5   7.547   2.393   2.077  0.8103 -0.1820  2.4040
  758MOL0     H    6   7.458   2.277   2.168 -0.2442  1.3755  0.1471
  758MOL0     H    7   7.594   2.097   2.023  1.1585 -1.1710  2.3432
  758MOL0     H    8   7.666   2.167   2.166  2.6498 -1.7591 -1.4135
  758MOL0     H    9   7.790   2.396   2.151 -2.8654 -1.1695 -1.0399
  758MOL0     H   10   8.130   2.342   2.024 -1.3048  0.3858 -0.1484
  758MOL0     H   11   8.062   2.463   2.121  0.0494 -2.8744  1.7117
  758MOL0     H   12   8.106   2.487   1.811  0.5426  1.2496 -0.4885
  758MOL0     H   13   8.213   2.549   1.938 -0.3281  0.1249 -0.9197
  758MOL0     H   14   7.930   2.621   1.923 -1.9059  2.1044  2.0774
  758MOL0     H   15   8.053   2.698   2.030 -2.7346 -0.7131  0.9272
  758MOL0     H   16   8.012   2.710   1.727 -0.8421 -0.0136  0.8296
  758MOL0     H   17   8.173   2.751   1.800  1.1903  0.3591  1.9442
  758MOL0     H   18   7.892   3.073   1.941 -1.7970  0.4564  1.5508
  758MOL0     H   19   7.665   3.139   1.930  2.6101  0.0428  1.4312
  758MOL0     H   20   7.240   2.956   2.116 -0.4087  1.0296 -0.1209
  758MOL0     H   21   7.005   3.018   2.172  2.3760  0.3584  2.0516
  758MOL0     H   22   6.778   3.184   1.861  0.2016 -3.3675  1.5327
  758MOL0     H   23   6.831   3.351   1.924 -0.5525  0.1430 -1.1588
  758MOL0     H   24   6.637   3.330   2.093 -0.1252 -0.9783  0.5189
  758MOL0     H   25   6.612   3.159   2.024  0.9392 -0.3682  2.0025
  758MOL0     H   26   6.558   3.296   1.800 -1.1700  0.1794 -0.1803
  758MOL0     H   27   6.535   3.435   1.911  0.4800  1.1490  0.7842
  758MOL0     H   28   6.389   3.187   1.988  0.0212 -0.7526 -0.9131
  758MOL0     H   29   6.373   3.355   2.042 -0.2281 -1.4025  2.0464
  758MOL0     H   30   6.294   3.250   1.772 -1.2609  1.0110 -0.4670
  758MOL0     H   31   6.302   3.423   1.808 -0.8991  0.4049 -0.1245
  758MOL0     H   32   6.139   3.239   1.993  1.3104  0.3195  0.9103
  758MOL0     H   33   6.070   3.290   1.843 -0.7820 -1.8470  1.7688
  758MOL0     H   34   6.222   3.487   2.021  0.3297 -1.5310  0.4829
  758MOL0     H   35   6.085   3.527   1.904 -2.8551  0.5742  1.2516
  758MOL0     H   36   6.016   3.543   2.149 -0.3276  0.1473 -0.4626
  758MOL0     H   37   6.058   3.371   2.171 -2.3032 -1.5144 -1.8204
  758MOL0     H   38   7.030   3.296   1.832 -1.9509 -1.2211 -0.1371
  758MOL0     H   39   7.252   3.242   1.807 -0.7356 -0.9421 -0.0421
  758MOL0     H   40   7.567   2.762   1.725  0.8930  1.1211 -4.1143
  758MOL0     H   41   7.806   2.723   1.722  0.2172  0.8134 -1.1214
  758MOL0     H   42   6.493   2.145   1.918 -1.1315  0.3208 -0.0962
  758MOL0     H   43   6.272   2.238   1.939 -0.1536  1.5775 -0.8561
  758MOL0     H   44   5.875   2.413   2.345  0.5964 -0.8158 -0.3214
  758MOL0     H   45   5.658   2.479   2.270 -1.3079  2.7526 -1.7534
  758MOL0     H   46   5.573   2.659   1.877 -1.3024 -1.0755 -2.0828
  758MOL0     H   47   5.421   2.590   1.926  0.0406 -0.3446  1.6337
  758MOL0     H   48   5.663   2.444   1.791  0.3452 -0.8615  0.3738
  758MOL0     H   49   5.550   2.350   1.898  2.0354 -1.4376 -0.8664
  758MOL0     H   50   5.493   2.512   1.657  0.0763  0.5183  0.3932
  758MOL0     H   51   5.380   2.425   1.753  1.1609  0.6285 -0.5757
  758MOL0     H   52   5.623   2.316   1.609 -0.4211  1.6603 -1.9900
  758MOL0     H   53   5.509   2.230   1.718 -1.0409 -0.2930 -0.3935
  758MOL0     H   54   5.273   2.287   1.359 -0.4176 -1.2947  1.3787
  758MOL0     H   55   5.799   2.605   1.895 -0.5130 -0.6919  0.5898
  758MOL0     H   56   6.033   2.562   1.961  1.7306  0.2327  2.2661
  759MOL0     O   57   8.018   8.307  10.590 -0.1144  0.5908  0.5216
  759MOL0     C   58   8.067   8.373  10.497 -0.6035  0.0918 -0.4196
  759MOL0     O   59   7.998   8.423  10.391 -0.1705 -0.1534  0.8619
  759MOL0     C   60   7.866   8.394  10.388 -0.1574 -0.2603  0.1256
  759MOL0     C   61   7.790   8.463  10.483  0.1521 -0.4565 -1.1116
  759MOL0     C   62   7.656   8.437  10.494  0.6207  0.3407  0.1228
  759MOL0     C   63   7.586   8.342  10.407 -0.3748 -0.4897  0.1538
  759MOL0     O   64   7.452   8.312  10.411 -0.6679  0.1768 -0.1804
  759MOL0     C   65   7.365   8.388  10.499 -0.1162 -0.5610  0.6733
  759MOL0     C   66   7.329   8.523  10.441  0.5686 -0.5746  0.1964
  759MOL0     C   67   7.212   8.518  10.334  0.0792  0.6443 -1.1030
  759MOL0     C   68   7.181   8.661  10.283  0.3019  0.6411  0.4967
  759MOL0     C   69   7.058   8.649  10.191  0.2297 -0.1351 -0.5258
  759MOL0     C   70   6.999   8.783  10.151 -0.5339 -0.3530  0.2818
  759MOL0     C   71   6.866   8.750  10.077  0.4628  0.2655  0.3316
  759MOL0     C   72   6.800   8.876  10.013  0.4840  0.0492 -0.5547
  759MOL0     N   73   6.669   8.852   9.954 -0.1957  0.1163 -0.4975
  759MOL0     C   74   6.564   8.799  10.023 -0.0150  0.6246 -0.2910
  759MOL0     C   75   6.467   8.770   9.933  0.6235 -1.1422 -1.0030
  759MOL0     C   76   6.334   8.720   9.961  0.1629 -0.9710 -0.3488
  759MOL0     C   77   6.224   8.825   9.967 -0.2786 -0.3551  0.2323
  759MOL0     C   78   6.153   8.860   9.833  0.0015  0.3008  0.3710
  759MOL0     C   79   6.034   8.949   9.853 -0.3328 -0.3524 -0.3854
  759MOL0     O   80   5.947   8.870   9.934 -0.2291  0.1740 -0.0993
  759MOL0     C   81   5.831   8.924   9.978 -0.3744  0.2639 -0.3753
  759MOL0     C   82   5.759   8.843  10.062 -0.4784  0.4194  0.6698
  759MOL0     C   83   5.628   8.875  10.097 -0.0211 -0.9018 -0.0051
  759MOL0     C   84   5.575   8.998  10.051 -0.5158  0.9223 -0.3576
  759MOL0     C   85   5.447   9.053  10.095  0.5400 -0.0141  0.2048
  759MOL0     O   86   5.412   9.181  10.044 -0.2991 -0.2405 -0.1117
  759MOL0     C   87   5.287   9.229  10.080 -0.3190 -0.8301  0.4712
  759MOL0     C   88   5.267   9.357  10.146  0.3645 -0.4370  0.4930
  759MOL0     C   89   5.144   9.390  10.191 -0.1844 -0.0772 -0.1960
  759MOL0     C   90   5.034   9.306  10.166  0.3013 -0.3700 -0.4397
  759MOL0     O   91   4.905   9.344  10.214 -0.9577  0.5139  0.0363
  759MOL0     C   92   4.852   9.450  10.133 -0.0763 -0.5896 -0.9905
  759MOL0     C   93   4.709   9.480  10.186 -0.1119  0.3915 -0.2670
  759MOL0     C   94   4.626   9.352  10.189  0.3613 -0.5976 -0.2053
  759MOL0     C   95   4.492   9.384  10.257 -0.1977 -0.9052 -0.6179
  759MOL0     C   96   4.400   9.262  10.258  0.8903  0.4128 -0.6573
  759MOL0     C   97   4.269   9.293  10.331 -0.6164  0.3524  0.2873
  759MOL0     C   98   4.280   9.303  10.483 -0.1566 -0.8994 -0.1607
  759MOL0     C   99   4.345   9.190  10.546  0.0750  0.1805 -0.6790
  759MOL0    Cl  100   4.310   9.191  10.725 -0.4322 -0.3171  0.0171
  759MOL0     C  101   5.047   9.182  10.107  0.3192  0.5371  0.3403
  759MOL0     C  102   5.173   9.150  10.056 -0.6290 -0.3649 -0.5010
  759MOL0     O  103   5.384   8.989  10.178  0.4020 -0.2345 -0.3528
  759MOL0     C  104   5.649   9.071   9.960  0.3021  0.1569 -0.8781
  759MOL0     C  105   5.778   9.043   9.929 -0.3233 -0.2910  1.1507
  759MOL0     N  106   6.510   8.804   9.813 -0.1618  0.2938  1.1716
  759MOL0     N  107   6.631   8.853   9.822 -0.1721  0.7251  0.0563
  759MOL0     C  108   7.663   8.275  10.307 -0.8594 -0.2599  0.2541
  759MOL0     C  109   7.801   8.308  10.297 -0.5552 -0.5801 -0.3079
  759MOL0     C  110   8.214   8.391  10.494  0.9683 -0.6488  0.6604
  759MOL0     C  111   8.294   8.335  10.599 -0.6795  0.2881 -0.8966
  759MOL0     C  112   8.441   8.345  10.590  0.6798 -0.1651 -0.2553
  759MOL0     C  113   8.498   8.404  10.481 -0.3498  0.1943  0.3723
  759MOL0     O  114   8.640   8.413  10.463  0.5557  0.0938 -0.5472
  759MOL0     C  115   8.722   8.337  10.556  0.2632 -0.1286 -0.1585
  759MOL0     C  116   8.874   8.373  10.543 -0.3042  0.1631  0.1320
  759MOL0     C  117   8.950   8.234  10.525  0.3994 -0.0914  0.6660
  759MOL0     C  118   8.912   8.167  10.391 -0.5948 -0.0875  0.4353
  759MOL0     C  119   8.998   8.053  10.364 -0.2626 -0.0454  0.7527
  759MOL0     C  120   9.078   7.957  10.348 -0.5547  0.3148 -0.7015
  759MOL0     C  121   8.415   8.452  10.379 -0.5698 -0.2798 -0.4569
  759MOL0     C  122   8.284   8.448  10.391  1.0652 -0.2737  0.7756
  759MOL0     H  123   7.838   8.538  10.546 -1.1562  1.4591 -2.3207
  759MOL0     H  124   7.593   8.495  10.562  0.3024  1.9417 -1.4646
  759MOL0     H  125   7.409   8.388  10.599  0.1419 -2.6256  0.6145
  759MOL0     H  126   7.266   8.341  10.501 -0.6476  0.4097 -0.8762
  759MOL0     H  127   7.409   8.578  10.390 -1.4051 -0.3285 -2.8830
  759MOL0     H  128   7.294   8.588  10.521  1.6684  1.6903 -1.0410
  759MOL0     H  129   7.119   8.472  10.370 -0.3981  0.7307 -2.1805
  759MOL0     H  130   7.250   8.461  10.249  0.2341  0.5660 -0.9815
  759MOL0     H  131   7.158   8.735  10.361  0.8556  2.9787 -1.4237
  759MOL0     H  132   7.273   8.697  10.236 -0.7019  1.7453 -0.6949
  759MOL0     H  133   6.984   8.590  10.244 -1.4359  0.7266 -1.7811
  759MOL0     H  134   7.076   8.598  10.096  1.7499 -0.6970  0.0328
  759MOL0     H  135   7.063   8.834  10.078 -1.6872  2.5885  1.1968
  759MOL0     H  136   6.989   8.848  10.238 -0.5570 -1.5034  1.1622
  759MOL0     H  137   6.888   8.676  10.000 -0.0627  1.3996 -0.9512
  759MOL0     H  138   6.794   8.721  10.155 -0.6179  0.6820 -0.4873
  759MOL0     H  139   6.873   8.917   9.942  0.7460  0.4311 -0.0774
  759MOL0     H  140   6.779   8.952  10.089 -1.1681 -2.6929  1.9397
  759MOL0     H  141   6.567   8.785  10.130  0.4887  4.0928  0.2542
  759MOL0     H  142   6.349   8.671  10.057  3.0874  1.0563  0.3702
  759MOL0     H  143   6.318   8.644   9.884 -1.5432  0.6311 -1.6766
  759MOL0     H  144   6.251   8.921  10.011 -2.4249 -0.6745  2.4253
  759MOL0     H  145   6.150   8.789  10.039 -0.8300  1.7689  0.7899
  759MOL0     H  146   6.221   8.912   9.765  0.3428 -0.1988  0.3251
  759MOL0     H  147   6.116   8.765   9.794  1.3425 -0.7175  1.4475
  759MOL0     H  148   5.996   8.969   9.752 -0.4057  0.9051 -0.1238
  759MOL0     H  149   6.068   9.040   9.903 -1.2064 -0.5209  0.5544
  759MOL0     H  150   5.811   8.753  10.092 -1.8140 -0.5495  0.1892
  759MOL0     H  151   5.567   8.810  10.160  0.1299  1.4914  2.8340
  759MOL0     H  152   5.354   9.417  10.174 -0.1971 -0.6209  2.8317
  759MOL0     H  153   5.127   9.489  10.232  1.6904  0.4866 -0.6879
  759MOL0     H  154   4.858   9.439  10.025 -0.5553  2.0143 -1.3427
  759MOL0     H  155   4.900   9.544  10.162 -0.9161 -0.5029  0.2218
  759MOL0     H  156   4.661   9.559  10.128  0.3654 -0.2467 -1.5580
  759MOL0     H  157   4.719   9.515  10.289 -0.7152 -1.5115  0.4822
  759MOL0     H  158   4.681   9.270  10.237  2.5375  0.8589 -0.0823
  759MOL0     H  159   4.603   9.316  10.088  1.3949 -0.2518 -0.5723
  759MOL0     H  160   4.522   9.408  10.359  0.4515  1.8653 -1.3739
  759MOL0     H  161   4.436   9.469  10.218 -2.7417 -1.5698  1.3058
  759MOL0     H  162   4.451   9.178  10.306  2.1107  1.6154  0.2290
  759MOL0     H  163   4.380   9.239  10.153  1.5765 -0.1654 -0.6703
  759MOL0     H  164   4.185   9.234  10.293 -0.7286  0.8937 -0.3463
  759MOL0     H  165   4.232   9.389  10.292  1.4287  0.3009 -2.0617
  759MOL0     H  166   4.326   9.399  10.507 -2.5793  0.8890 -2.1892
  759MOL0     H  167   4.179   9.310  10.525  0.7026  0.3749  1.8567
  759MOL0     H  168   4.453   9.190  10.525  0.1553  0.3336 -0.2891
  759MOL0     H  169   4.304   9.098  10.505 -3.0722 -0.3178  3.0627
  759MOL0     H  170   4.965   9.111  10.096 -0.1761  1.1265  0.1451
  759MOL0     H  171   5.194   9.055  10.008  0.1228  0.3001 -1.5407
  759MOL0     H  172   5.606   9.154   9.904  0.1216  0.4988 -0.2374
  759MOL0     H  173   5.835   9.108   9.862  1.7970 -0.3247  2.8289
  759MOL0     H  174   7.617   8.206  10.238  1.1107 -0.5297 -0.8525
  759MOL0     H  175   7.862   8.268  10.217  0.1125  1.3788 -0.8478
  759MOL0     H  176   8.246   8.275  10.676 -0.2883 -1.0023 -1.6247
  759MOL0     H  177   8.502   8.300  10.668  2.4922 -1.3984 -2.2928
  759MOL0     H  178   8.698   8.231  10.538 -1.4073 -0.3848  2.8680
  759MOL0     H  179   8.698   8.357  10.660 -0.6634  2.4836 -0.8097
  759MOL0     H  180   8.896   8.448  10.467 -0.7878  1.1149  0.9071
  759MOL0     H  181   8.908   8.420  10.636  1.0765  1.3050 -0.8981
  759MOL0     H  182   8.918   8.162  10.601  1.6978 -0.9542  0.4123
  759MOL0     H  183   9.058   8.249  10.531  0.5613 -0.7448 -0.4223
  759MOL0     H  184   8.806   8.137  10.390 -0.9725  1.2073  0.1192
  759MOL0     H  185   8.929   8.240  10.312 -1.3515  1.8955  1.9876
  759MOL0     H  186   9.143   7.872  10.352 -1.6306 -0.6968 -3.1230
  759MOL0     H  187   8.456   8.487  10.285  2.6562 -1.0892  0.5163
  759MOL0     H  188   8.248   8.506  10.306  1.1311  2.0060  2.2004
  760MOL0     O  189  10.178   0.028   9.199  0.3157  0.4978 -0.0074
  760MOL0     C  190  10.276   0.028   9.125 -0.2238  0.4387 -0.4034
  760MOL0     O  191  10.306   0.121   9.030  0.9479 -0.1337 -0.0168
  760MOL0     C  192  10.232   0.235   8.997 -0.1708  0.6902  0.1945
  760MOL0     C  193  10.092   0.239   9.002 -0.0745  0.4525  0.9866
  760MOL0     C  194  10.030   0.349   8.941  0.2791 -0.5650  0.1846
  760MOL0     C  195  10.108   0.453   8.877  0.4075  0.1193  0.0261
  760MOL0     O  196  10.055   0.570   8.832  0.2547 -0.0391 -0.8203
  760MOL0     C  197   9.925   0.577   8.791 -0.1244  0.2168  0.2869
  760MOL0     C  198   9.913   0.726   8.742 -0.1539 -0.1317 -0.3676
  760MOL0     C  199   9.764   0.775   8.748 -0.0732 -1.0123  0.1252
  760MOL0     C  200   9.733   0.919   8.683  0.4511  1.3762 -0.6010
  760MOL0     C  201   9.578   0.950   8.699 -0.5105  0.1440 -0.5784
  760MOL0     C  202   9.551   1.104   8.694  0.3249  1.0630 -0.1079
  760MOL0     C  203   9.399   1.137   8.688 -0.2110 -0.0968  0.6817
  760MOL0     C  204   9.316   1.066   8.573 -0.5599  0.5879  0.6852
  760MOL0     N  205   9.179   1.112   8.570 -0.0438 -0.3032 -0.0384
  760MOL0     C  206   9.114   1.151   8.449 -0.3122  0.0983 -0.2637
  760MOL0     C  207   8.986   1.137   8.485 -0.2783 -0.2157 -0.0001
  760MOL0     C  208   8.877   1.176   8.399  0.4198 -0.0779  0.5505
  760MOL0     C  209   8.749   1.195   8.491 -0.6973 -0.0382  0.1619
  760MOL0     C  210   8.641   1.248   8.392 -0.0955 -0.6480 -0.4062
  760MOL0     C  211   8.499   1.239   8.444  0.2323  0.2319  0.1374
  760MOL0     O  212   8.398   1.263   8.343 -0.3869 -0.7087 -0.8103
  760MOL0     C  213   8.277   1.205   8.376 -0.2173 -0.0630  0.3043
  760MOL0     C  214   8.210   1.148   8.271 -0.6763 -0.4631 -0.3234
  760MOL0     C  215   8.081   1.096   8.285 -0.0774 -0.3341  0.3874
  760MOL0     C  216   8.011   1.103   8.409  0.1039 -0.4704  0.1009
  760MOL0     C  217   7.868   1.076   8.421  0.6376 -0.3955 -0.9559
  760MOL0     O  218   7.798   1.048   8.305  0.0235  0.4367  0.4468
  760MOL0     C  219   7.661   1.043   8.310  0.4828  0.3309 -0.2203
  760MOL0     C  220   7.576   1.159   8.295  1.3984 -0.0864 -0.0697
  760MOL0     C  221   7.434   1.143   8.296  0.3436  0.7104  0.4890
  760MOL0     C  222   7.375   1.016   8.314 -0.0719 -0.2656  0.1313
  760MOL0     O  223   7.229   1.017   8.317 -0.1046 -0.2851 -0.1711
  760MOL0     C  224   7.159   0.910   8.377 -0.4759 -0.2543 -0.5900
  760MOL0     C  225   7.005   0.921   8.357  0.0603 -0.9104  0.5514
  760MOL0     C  226   6.941   1.027   8.447 -0.2793  0.9347 -0.0528
  760MOL0     C  227   6.784   1.019   8.462 -0.0933 -0.2403 -0.0456
  760MOL0     C  228   6.751   0.914   8.576 -0.0237 -0.4620  0.3507
  760MOL0     C  229   6.598   0.922   8.605  0.6054 -0.4565 -0.0273
  760MOL0     C  230   6.556   0.820   8.710  1.3302  0.0211 -0.2962
  760MOL0     C  231   6.402   0.835   8.725 -0.9156 -0.9205  0.0308
  760MOL0    Cl  232   6.326   0.799   8.566  0.0312  0.1604 -0.2640
  760MOL0     C  233   7.458   0.898   8.322  0.0126  0.4276  0.5680
  760MOL0     C  234   7.593   0.920   8.316 -0.3829 -0.0731 -0.1763
  760MOL0     O  235   7.810   1.080   8.538  0.0002 -0.5841 -0.4550
  760MOL0     C  236   8.074   1.156   8.519 -0.0369  0.2801  0.3377
  760MOL0     C  237   8.207   1.202   8.496  0.6935  0.6167 -0.1905
  760MOL0     N  238   8.972   1.090   8.614 -0.3982  0.0922  0.7547
  760MOL0     N  239   9.088   1.076   8.662  0.1191 -0.0057  0.5347
  760MOL0     C  240  10.238   0.452   8.883 -0.3818  0.9218  0.3528
  760MOL0     C  241  10.304   0.346   8.938  0.1032  0.7934  0.1264
  760MOL0     C  242  10.370  -0.087   9.127  0.1589  0.9541  0.0965
  760MOL0     C  243  10.368  -0.170   9.243 -0.1125  0.6266  1.0160
  760MOL0     C  244  10.467  -0.272   9.254 -0.4140 -0.8753 -0.0638
  760MOL0     C  245  10.576  -0.282   9.158 -0.2902  0.0445 -0.4914
  760MOL0     O  246  10.681  -0.366   9.175  0.3114  0.1226 -0.1934
  760MOL0     C  247  10.685  -0.459   9.276  0.0027 -0.3719 -0.0291
  760MOL0     C  248  10.818  -0.537   9.289  0.4448 -0.6846 -0.1192
  760MOL0     C  249  10.794  -0.662   9.379 -0.8151  0.1441  0.1440
  760MOL0     C  250  10.918  -0.745   9.399 -0.2328  0.9977  0.9193
  760MOL0     C  251  10.956  -0.827   9.281  0.0866 -0.3532 -0.2795
  760MOL0     C  252  10.985  -0.883   9.179  0.1578  0.1922 -0.4868
  760MOL0     C  253  10.582  -0.189   9.050 -0.1345  0.3656  0.1848
  760MOL0     C  254  10.478  -0.094   9.034  0.4730 -0.3644 -0.9090
  760MOL0     H  255  10.040   0.162   9.056 -2.3563  1.1228 -0.1504
  760MOL0     H  256   9.923   0.346   8.925  0.0065  1.2832  1.3138
  760MOL0     H  257   9.861   0.566   8.880  2.4120 -0.3897  2.1382
  760MOL0     H  258   9.907   0.507   8.709  0.5099  2.0440 -1.4772
  760MOL0     H  259   9.958   0.738   8.643  0.8579  0.0388  0.0902
  760MOL0     H  260   9.966   0.800   8.803 -0.2730 -0.4087  0.0752
  760MOL0     H  261   9.715   0.777   8.845  1.3632 -1.1602  0.8764
  760MOL0     H  262   9.709   0.706   8.684  1.0554 -0.9089 -1.0215
  760MOL0     H  263   9.796   0.994   8.732  3.3929 -0.3610 -1.4745
  760MOL0     H  264   9.764   0.925   8.578 -0.4271  2.6940 -0.8182
  760MOL0     H  265   9.549   0.922   8.801 -2.2861 -1.3862 -1.4485
  760MOL0     H  266   9.518   0.897   8.625 -0.0777 -1.3351  0.0987
  760MOL0     H  267   9.605   1.145   8.609 -0.4572  3.3327  0.4293
  760MOL0     H  268   9.594   1.144   8.786 -1.1846  1.2869  0.5307
  760MOL0     H  269   9.358   1.109   8.786 -0.9095  0.9090  0.6970
  760MOL0     H  270   9.387   1.245   8.674  2.3647  0.3850  1.5878
  760MOL0     H  271   9.321   0.957   8.580  0.5147  0.5243 -0.5934
  760MOL0     H  272   9.366   1.089   8.478  1.6364  0.1907  1.6794
  760MOL0     H  273   9.152   1.186   8.354  0.7136  1.0562  0.4698
  760MOL0     H  274   8.858   1.099   8.323 -0.1705  0.4099  0.1945
  760MOL0     H  275   8.919   1.267   8.358  0.9870 -1.2273 -1.5664
  760MOL0     H  276   8.769   1.269   8.570 -0.3075 -0.1576  0.1790
  760MOL0     H  277   8.718   1.103   8.540 -1.4063  0.4075  0.5724
  760MOL0     H  278   8.664   1.351   8.363 -0.2273 -1.0639 -2.0559
  760MOL0     H  279   8.639   1.191   8.299 -3.2739  2.8394 -2.8026
  760MOL0     H  280   8.484   1.287   8.541 -1.1088 -2.7202  1.5143
  760MOL0     H  281   8.491   1.133   8.472 -0.0232  0.1456 -0.2484
  760MOL0     H  282   8.256   1.135   8.173  1.5230 -0.1680  0.5927
  760MOL0     H  283   8.030   1.049   8.202  1.0871 -0.7864 -0.0916
  760MOL0     H  284   7.620   1.257   8.281 -0.4391  0.5493 -1.9937
  760MOL0     H  285   7.383   1.238   8.278  0.3091  0.4232 -1.0007
  760MOL0     H  286   7.187   0.920   8.482  1.3759  2.7689 -1.2616
  760MOL0     H  287   7.192   0.810   8.345  2.1531  0.3160  0.0997
  760MOL0     H  288   6.950   0.829   8.382 -3.1539  1.0183  1.0477
  760MOL0     H  289   6.986   0.949   8.253 -1.3661  1.7240  1.4477
  760MOL0     H  290   6.963   1.129   8.414  1.6783  0.2593 -0.9485
  760MOL0     H  291   6.989   1.023   8.545 -0.5045  1.7134  0.0971
  760MOL0     H  292   6.741   1.113   8.499 -1.0045 -1.9349  3.7338
  760MOL0     H  293   6.734   0.996   8.368  0.2871  1.7274 -0.7857
  760MOL0     H  294   6.809   0.944   8.664  1.4744 -0.6791 -0.5197
  760MOL0     H  295   6.787   0.815   8.545  1.3160 -0.0247  0.4454
  760MOL0     H  296   6.548   0.904   8.509 -0.2258 -1.8025  0.6211
  760MOL0     H  297   6.581   1.020   8.651  2.0236  0.1027 -0.6441
  760MOL0     H  298   6.584   0.716   8.692 -0.7910 -1.2895  3.0039
  760MOL0     H  299   6.612   0.853   8.798 -1.1019  1.5936  0.7860
  760MOL0     H  300   6.387   0.938   8.760 -0.2074 -0.8065  0.0015
  760MOL0     H  301   6.368   0.766   8.803 -0.4008 -1.8016 -0.5195
  760MOL0     H  302   7.416   0.798   8.328 -1.8507  0.9613 -1.9056
  760MOL0     H  303   7.663   0.837   8.311 -0.7757 -0.3376 -2.6133
  760MOL0     H  304   8.029   1.190   8.612  1.9871  2.5236  0.6204
  760MOL0     H  305   8.247   1.261   8.577 -2.5683  1.8750  0.6752
  760MOL0     H  306  10.306   0.520   8.832  0.9179 -1.1857 -0.8822
  760MOL0     H  307  10.412   0.343   8.934  0.0968  1.4151 -1.2806
  760MOL0     H  308  10.298  -0.160   9.326 -2.5598 -1.9917 -0.5813
  760MOL0     H  309  10.484  -0.325   9.347  1.6145  0.2741  0.2802
  760MOL0     H  310  10.598  -0.524   9.266 -1.9868  1.3626  3.8547
  760MOL0     H  311  10.669  -0.408   9.371  0.4607 -1.4967  0.6809
  760MOL0     H  312  10.845  -0.559   9.185 -1.0905 -0.7251 -0.5224
  760MOL0     H  313  10.892  -0.465   9.326 -2.8178  1.7454  2.2626
  760MOL0     H  314  10.720  -0.732   9.340  1.1663 -1.1084 -1.6150
  760MOL0     H  315  10.761  -0.619   9.474 -0.0655 -1.4222  1.1580
  760MOL0     H  316  11.007  -0.686   9.422  0.7792  0.4526 -1.2856
  760MOL0     H  317  10.891  -0.821   9.473  0.0252  0.2020  0.2158
  760MOL0     H  318  10.992  -0.924   9.080 -1.7912  0.0178 -0.5896
  760MOL0     H  319  10.668  -0.203   8.985  1.2171  0.7710  1.8195
  760MOL0     H  320  10.484  -0.023   8.952  0.1141 -0.5418 -1.0885
  761MOL0     O  321   5.143  10.266   2.213  0.0499  0.2212 -0.1217
  761MOL0     C  322   5.131  10.322   2.105 -0.5768  0.5018 -0.3162
  761MOL0     O  323   5.014  10.336   2.038 -0.2847  0.0269 -0.9703
  761MOL0     C  324   4.899  10.292   2.098 -0.0157 -0.1115  0.1018
  761MOL0     C  325   4.799  10.380   2.122  0.4509 -1.1427 -0.5555
  761MOL0     C  326   4.672  10.336   2.171 -0.8198 -0.8598  1.0312
  761MOL0     C  327   4.656  10.200   2.210 -0.0069 -0.4814 -0.3900
  761MOL0     O  328   4.533  10.160   2.257 -0.3929  0.6177 -0.3284
  761MOL0     C  329   4.437  10.252   2.306  0.5820  0.1446  0.7034
  761MOL0     C  330   4.324  10.170   2.391 -0.3660 -0.2362  0.7996
  761MOL0     C  331   4.196  10.242   2.419 -0.8860 -0.2842 -0.3239
  761MOL0     C  332   4.076  10.154   2.448  0.4448  0.3372  0.0965
  761MOL0     C  333   3.942  10.242   2.478 -0.7596 -0.3433 -0.2437
  761MOL0     C  334   3.809  10.167   2.490 -0.5132  0.1810 -0.6523
  761MOL0     C  335   3.773  10.093   2.362 -0.8065 -0.0639 -0.2306
  761MOL0     C  336   3.712  10.179   2.249 -0.2503 -0.1640  0.2879
  761MOL0     N  337   3.616  10.285   2.285  0.6664 -0.7307 -1.0888
  761MOL0     C  338   3.647  10.407   2.337  0.8273  0.3392  0.2230
  761MOL0     C  339   3.535  10.482   2.336  0.7622  0.1178 -0.1189
  761MOL0     C  340   3.516  10.628   2.373 -0.9753 -0.3699 -0.0012
  761MOL0     C  341   3.541  10.713   2.239  0.0401  0.5065 -1.1107
  761MOL0     C  342   3.689  10.737   2.201  0.4338 -0.1682  0.7087
  761MOL0     C  343   3.760  10.806   2.319  0.2858  1.4897  0.9706
  761MOL0     O  344   3.816  10.705   2.406  0.4583  0.5281 -0.6330
  761MOL0     C  345   3.944  10.671   2.376 -0.7189 -0.2133 -1.4273
  761MOL0     C  346   4.028  10.747   2.443 -0.1231 -0.3659 -0.2645
  761MOL0     C  347   4.170  10.735   2.439  0.3505  0.5509  0.2489
  761MOL0     C  348   4.225  10.647   2.354  0.0019  0.0265  0.6173
  761MOL0     C  349   4.372  10.644   2.337 -0.3613  0.4145 -0.1554
  761MOL0     O  350   4.455  10.719   2.413  0.1464  0.9001  0.6728
  761MOL0     C  351   4.583  10.715   2.386  0.5339  0.2037 -0.2857
  761MOL0     C  352   4.659  10.602   2.409  0.1363 -0.0825  0.0112
  761MOL0     C  353   4.794  10.610   2.390  0.2947 -0.2750 -0.2741
  761MOL0     C  354   4.862  10.731   2.354  0.5906 -0.4328  0.0743
  761MOL0     O  355   5.005  10.751   2.357  0.0885  0.1977 -0.5764
  761MOL0     C  356   5.087  10.635   2.330  0.1346 -0.4876 -0.3779
  761MOL0     C  357   5.232  10.677   2.329  0.6443 -1.2828  0.5944
  761MOL0     C  358   5.273  10.801   2.246 -0.3090  0.0537  0.9258
  761MOL0     C  359   5.412  10.853   2.266  0.5830 -0.1388  0.1328
  761MOL0     C  360   5.532  10.755   2.222  0.0566 -0.3775 -0.2373
  761MOL0     C  361   5.671  10.828   2.243 -0.2044 -0.4096  0.0458
  761MOL0     C  362   5.778  10.724   2.201 -0.7394 -0.3777  0.4304
  761MOL0     C  363   5.909  10.792   2.186  0.1494  0.3440  0.0757
  761MOL0    Cl  364   5.945  10.912   2.320 -0.3715  0.0321 -0.2787
  761MOL0     C  365   4.780  10.848   2.332  0.5336 -0.3962  0.4468
  761MOL0     C  366   4.636  10.834   2.340  0.1247 -0.2237 -0.5022
  761MOL0     O  367   4.416  10.568   2.251 -0.0314 -0.5557 -0.1448
  761MOL0     C  368   4.140  10.565   2.281 -0.4918  0.4959 -0.1471
  761MOL0     C  369   3.996  10.571   2.293 -0.2106  0.4660 -0.2660
  761MOL0     N  370   3.422  10.397   2.304 -0.0127 -0.1589 -0.1848
  761MOL0     N  371   3.478  10.277   2.275  0.6552 -0.2534 -0.0253
  761MOL0     C  372   4.763  10.099   2.185 -0.2083 -0.1079 -0.3372
  761MOL0     C  373   4.879  10.153   2.122  0.0455  0.0543 -0.0001
  761MOL0     C  374   5.251  10.374   2.048  0.1907  0.1547 -0.4614
  761MOL0     C  375   5.248  10.439   1.922 -0.1477  0.0810 -0.2118
  761MOL0     C  376   5.357  10.493   1.867 -0.7261 -0.5197 -0.3446
  761MOL0     C  377   5.478  10.496   1.942 -0.6216 -0.1361  0.7553
  761MOL0     O  378   5.603  10.551   1.901  0.3208 -0.3568  0.3306
  761MOL0     C  379   5.618  10.629   1.780  0.2545 -0.3221  0.4270
  761MOL0     C  380   5.756  10.708   1.790  0.0033 -0.5473 -0.5084
  761MOL0     C  381   5.850  10.604   1.837 -0.6144  0.5337  0.1001
  761MOL0     C  382   5.999  10.665   1.834  0.6828 -1.0201  0.1076
  761MOL0     C  383   6.088  10.552   1.858  0.5284  0.4454 -0.8886
  761MOL0     C  384   6.159  10.457   1.883  0.3233  0.6728  1.1806
  761MOL0     C  385   5.490  10.423   2.061 -0.8111  0.5095  0.5800
  761MOL0     C  386   5.376  10.356   2.109 -0.1616  0.2282  0.6408
  761MOL0     H  387   4.817  10.482   2.092 -3.0614 -0.0260  0.7256
  761MOL0     H  388   4.592  10.409   2.177  1.0053  1.3586  0.0576
  761MOL0     H  389   4.394  10.293   2.215  2.9340 -1.4294 -1.2457
  761MOL0     H  390   4.471  10.334   2.371  2.1082 -1.5252  2.1275
  761MOL0     H  391   4.364  10.118   2.479  0.1523  0.4429  0.9806
  761MOL0     H  392   4.297  10.089   2.323 -0.8241  0.3156  0.3175
  761MOL0     H  393   4.174  10.305   2.332  0.6187  0.2145 -0.3771
  761MOL0     H  394   4.205  10.315   2.500  2.3627 -2.2943  1.3525
  761MOL0     H  395   4.065  10.082   2.367 -0.4089 -1.0685  1.4159
  761MOL0     H  396   4.102  10.110   2.545  1.0989  1.9921  0.7131
  761MOL0     H  397   3.917  10.316   2.401  1.0264  1.9207  1.1976
  761MOL0     H  398   3.953  10.297   2.572 -4.2167 -0.7354  0.4916
  761MOL0     H  399   3.737  10.239   2.529  0.3269  0.6115  0.1347
  761MOL0     H  400   3.830  10.094   2.570 -0.3195 -1.5271 -2.2005
  761MOL0     H  401   3.864  10.044   2.327 -1.0934 -0.2583 -0.7083
  761MOL0     H  402   3.697  10.016   2.383 -2.8929  0.8495 -3.6275
  761MOL0     H  403   3.659  10.118   2.175 -3.4953  2.8448 -0.1817
  761MOL0     H  404   3.795  10.225   2.195 -1.3811 -1.0389 -2.3628
  761MOL0     H  405   3.735  10.459   2.373  1.4792  0.5726 -1.6000
  761MOL0     H  406   3.579  10.655   2.458 -1.4343 -0.1413  0.2651
  761MOL0     H  407   3.418  10.637   2.419 -0.5596 -4.4226  2.1611
  761MOL0     H  408   3.491  10.809   2.252  0.9350  0.7607  0.8937
  761MOL0     H  409   3.491  10.657   2.160  1.5994 -0.7777 -1.2289
  761MOL0     H  410   3.724  10.636   2.179 -2.0798 -0.8476 -0.6036
  761MOL0     H  411   3.681  10.799   2.111  0.0564 -0.2266  0.7000
  761MOL0     H  412   3.691  10.868   2.378  0.4996  0.9715  1.7704
  761MOL0     H  413   3.839  10.869   2.277 -0.9145  2.6924  0.4329
  761MOL0     H  414   3.985  10.831   2.498  1.8051  1.4272 -1.3515
  761MOL0     H  415   4.230  10.805   2.497 -1.4516 -0.1739  3.1634
  761MOL0     H  416   4.613  10.519   2.462  1.2728 -0.8403 -0.1461
  761MOL0     H  417   4.865  10.529   2.407  1.5544  0.8658  0.0438
  761MOL0     H  418   5.044  10.596   2.238 -1.1242  1.6499 -0.7683
  761MOL0     H  419   5.076  10.567   2.415 -0.1069 -2.8854 -2.1994
  761MOL0     H  420   5.285  10.587   2.297 -1.6277 -3.3930  2.4580
  761MOL0     H  421   5.261  10.694   2.433 -2.5551 -0.6548  1.4830
  761MOL0     H  422   5.203  10.881   2.274 -1.1098 -0.1840 -0.3098
  761MOL0     H  423   5.264  10.768   2.142  0.7747  0.8978  0.5475
  761MOL0     H  424   5.427  10.947   2.213 -2.2369  0.4938  0.2762
  761MOL0     H  425   5.430  10.880   2.370  0.3445  1.0733 -0.1350
  761MOL0     H  426   5.522  10.728   2.116  0.2737 -2.5852  0.2504
  761MOL0     H  427   5.513  10.664   2.278 -2.1353  1.2562  1.8909
  761MOL0     H  428   5.692  10.859   2.346  1.1074 -0.6157 -0.1351
  761MOL0     H  429   5.688  10.912   2.174  0.6387 -0.6997 -0.1184
  761MOL0     H  430   5.793  10.643   2.274 -1.2962  0.9248  2.0438
  761MOL0     H  431   5.748  10.694   2.101 -0.0670  2.2202 -0.6138
  761MOL0     H  432   5.920  10.850   2.094 -0.8598  0.4009 -0.0206
  761MOL0     H  433   5.996  10.727   2.194  1.1733  1.8105  1.7425
  761MOL0     H  434   4.830  10.940   2.303  0.9601 -0.5809  0.5769
  761MOL0     H  435   4.576  10.919   2.308  1.7727  0.2880 -2.4823
  761MOL0     H  436   4.185  10.489   2.218  0.6404  0.9453  0.0933
  761MOL0     H  437   3.932  10.505   2.235 -1.7162  0.1596  1.6518
  761MOL0     H  438   4.752   9.992   2.199  0.8911  0.0145  2.1041
  761MOL0     H  439   4.955  10.084   2.089 -1.6619 -1.0306 -1.8889
  761MOL0     H  440   5.153  10.446   1.870  1.3394 -2.4384 -3.7001
  761MOL0     H  441   5.351  10.552   1.776  1.1144  3.2113  1.7027
  761MOL0     H  442   5.529  10.692   1.771  2.1854  2.5640  0.0674
  761MOL0     H  443   5.613  10.557   1.698  0.5821 -0.9226  0.9211
  761MOL0     H  444   5.789  10.753   1.696  1.4641 -2.5972 -1.0532
  761MOL0     H  445   5.747  10.783   1.868  2.8007 -0.1943 -0.4158
  761MOL0     H  446   5.844  10.516   1.772  1.7015  1.0287 -0.8831
  761MOL0     H  447   5.830  10.584   1.942 -0.1370  2.9329  0.7051
  761MOL0     H  448   6.024  10.714   1.739  1.3027 -0.5528  0.5046
  761MOL0     H  449   6.000  10.738   1.915 -1.2331  0.1640 -0.8407
  761MOL0     H  450   6.229  10.382   1.915 -0.0166 -0.0609  0.2541
  761MOL0     H  451   5.587  10.426   2.110  0.9111 -0.8354 -2.4473
  761MOL0     H  452   5.387  10.297   2.199  3.4977 -3.7247 -1.9923
  762MOL0     O  453   0.099   7.166   0.790 -0.1769 -0.1424  0.5337
  762MOL0     C  454   0.055   7.197   0.896  0.7717  0.1327 -0.5197
  762MOL0     O  455   0.132   7.228   1.005  0.3895  0.2605  0.1448
  762MOL0     C  456   0.272   7.233   0.985 -0.6017  0.9960 -0.4484
  762MOL0     C  457   0.347   7.340   0.937  0.7814  0.0815 -0.0781
  762MOL0     C  458   0.487   7.329   0.929  0.6214  0.1134  1.0138
  762MOL0     C  459   0.556   7.221   0.982  0.5983 -0.9325  0.4772
  762MOL0     O  460   0.685   7.230   0.963 -0.0516 -0.6658 -0.2374
  762MOL0     C  461   0.770   7.125   1.017 -0.1158  0.4626 -1.0449
  762MOL0     C  462   0.904   7.187   1.052 -0.5345 -0.4016  0.4187
  762MOL0     C  463   0.909   7.273   1.184  0.5336 -0.0746  1.0404
  762MOL0     C  464   0.902   7.186   1.311  0.2690  0.2193  0.4834
  762MOL0     C  465   0.877   7.261   1.439 -0.5186  0.3111 -0.5974
  762MOL0     C  466   1.012   7.297   1.501 -0.2654 -0.4801 -0.6284
  762MOL0     C  467   1.008   7.350   1.645  0.3785 -0.5966  0.8369
  762MOL0     C  468   1.140   7.402   1.702 -0.1509  0.2568  0.0290
  762MOL0     N  469   1.131   7.408   1.851 -1.0392  0.2051  0.2470
  762MOL0     C  470   1.144   7.305   1.939 -0.4791  0.5880 -0.5531
  762MOL0     C  471   1.106   7.353   2.053 -0.8006 -0.1605  0.0148
  762MOL0     C  472   1.106   7.275   2.174  0.4560  0.3702  0.2170
  762MOL0     C  473   0.994   7.165   2.190  0.0060 -0.6928 -0.3087
  762MOL0     C  474   0.853   7.227   2.168 -0.5496 -0.2351  0.9581
  762MOL0     C  475   0.735   7.141   2.167 -0.5267 -0.0377 -0.4388
  762MOL0     O  476   0.751   7.034   2.066 -0.3139  0.1348 -0.4888
  762MOL0     C  477   0.644   6.939   2.047 -0.1468  0.0933  0.0992
  762MOL0     C  478   0.668   6.836   1.946  0.0635 -0.5277 -0.3542
  762MOL0     C  479   0.575   6.740   1.912 -0.2828  0.3718 -0.4239
  762MOL0     C  480   0.460   6.739   1.980 -0.0572  0.1770  0.0516
  762MOL0     C  481   0.352   6.652   1.939  0.1674  0.0478  0.6143
  762MOL0     O  482   0.375   6.550   1.843 -0.3890  0.5487 -0.1538
  762MOL0     C  483   0.275   6.468   1.808  0.1337  0.1928  0.3187
  762MOL0     C  484   0.255   6.443   1.674  0.3250 -0.1930  0.1445
  762MOL0     C  485   0.154   6.360   1.619  0.0309 -0.8693  0.2561
  762MOL0     C  486   0.078   6.293   1.713  0.2686 -0.4608 -0.0565
  762MOL0     O  487  -0.018   6.211   1.657 -0.2547 -0.8350 -0.3556
  762MOL0     C  488  -0.146   6.225   1.716  0.0790 -0.9796  0.0367
  762MOL0     C  489  -0.240   6.127   1.647  0.6930 -0.4177 -0.4859
  762MOL0     C  490  -0.390   6.145   1.687  0.9038 -0.0580  0.3865
  762MOL0     C  491  -0.490   6.074   1.585  0.0192 -0.6985 -0.0204
  762MOL0     C  492  -0.637   6.122   1.627 -0.8951  0.1392  0.1000
  762MOL0     C  493  -0.742   6.072   1.527 -0.4779 -1.1651  0.4937
  762MOL0     C  494  -0.869   6.054   1.612  0.1453  0.7504 -0.3621
  762MOL0     C  495  -0.989   5.989   1.535 -0.3411  0.2150  0.8186
  762MOL0    Cl  496  -0.954   5.821   1.493  0.0276  0.2053  0.3540
  762MOL0     C  497   0.105   6.310   1.851  0.2369  0.6686 -0.3571
  762MOL0     C  498   0.202   6.394   1.896  0.5826 -0.9590  0.6705
  762MOL0     O  499   0.242   6.665   1.993 -0.7664  0.7819 -0.3725
  762MOL0     C  500   0.433   6.826   2.090  0.2138  0.1150  0.0804
  762MOL0     C  501   0.520   6.929   2.120 -0.5731 -0.0839  0.3006
  762MOL0     N  502   1.058   7.481   2.031 -0.0485 -0.0876 -0.1235
  762MOL0     N  503   1.058   7.510   1.908 -0.2431  0.3438  0.9234
  762MOL0     C  504   0.480   7.110   1.028 -0.4077 -0.5993  0.7051
  762MOL0     C  505   0.339   7.115   1.025  0.2230  0.5163  1.0614
  762MOL0     C  506  -0.096   7.171   0.915 -0.7758 -0.2954  0.1172
  762MOL0     C  507  -0.150   7.204   1.036 -0.2065  0.1703  0.0144
  762MOL0     C  508  -0.282   7.173   1.062  0.3838 -0.1561  0.1368
  762MOL0     C  509  -0.367   7.126   0.965  1.0388  0.2798 -0.5778
  762MOL0     O  510  -0.505   7.131   0.995  0.5030  0.5805  0.1998
  762MOL0     C  511  -0.597   7.036   0.941  0.5512  0.3745  0.5853
  762MOL0     C  512  -0.685   7.101   0.836  0.0207 -0.6724 -0.3455
  762MOL0     C  513  -0.783   7.196   0.888 -0.1195 -0.2430  0.7503
  762MOL0     C  514  -0.905   7.136   0.966 -0.2949 -0.1153 -0.1487
  762MOL0     C  515  -1.013   7.100   0.878 -0.0006 -1.1150  0.4051
  762MOL0     C  516  -1.112   7.091   0.807  0.2398  1.2967  0.0121
  762MOL0     C  517  -0.312   7.088   0.840 -0.3589  0.3497  0.5771
  762MOL0     C  518  -0.168   7.106   0.817 -0.3878  0.7128 -0.5645
  762MOL0     H  519   0.296   7.422   0.887  1.9266  0.2619 -0.9904
  762MOL0     H  520   0.545   7.413   0.891  1.1306 -0.6268  0.1236
  762MOL0     H  521   0.779   7.049   0.939 -2.5686  0.4668 -1.3986
  762MOL0     H  522   0.725   7.084   1.107 -1.1476  0.3604 -1.5911
  762MOL0     H  523   0.938   7.250   0.969  1.3246  0.9230  2.0985
  762MOL0     H  524   0.986   7.116   1.061  1.0491  1.5420  2.7139
  762MOL0     H  525   0.828   7.345   1.166 -0.5886 -1.8095 -1.5370
  762MOL0     H  526   1.006   7.322   1.172  0.4377 -0.2824 -1.0591
  762MOL0     H  527   0.817   7.117   1.311  0.5830 -0.1774 -0.0045
  762MOL0     H  528   0.991   7.122   1.316  1.4475  1.8504  1.1134
  762MOL0     H  529   0.844   7.193   1.517 -0.0741  0.4346 -0.2969
  762MOL0     H  530   0.812   7.349   1.429  0.1152  0.6326 -2.1157
  762MOL0     H  531   1.069   7.363   1.434 -2.7674  1.3220 -1.1603
  762MOL0     H  532   1.077   7.210   1.503 -1.1184 -1.1709  2.3166
  762MOL0     H  533   0.935   7.430   1.663  1.2645  0.1178  1.3626
  762MOL0     H  534   0.984   7.261   1.704  1.8414 -1.2651  0.4777
  762MOL0     H  535   1.150   7.501   1.657 -1.5700  0.5289  0.2445
  762MOL0     H  536   1.221   7.339   1.664 -0.5789 -0.3714  0.1333
  762MOL0     H  537   1.169   7.201   1.921 -2.4977 -0.1906  0.8550
  762MOL0     H  538   1.109   7.346   2.258  2.0888 -0.0443  0.5398
  762MOL0     H  539   1.194   7.212   2.184 -1.2053 -1.8826  1.7836
  762MOL0     H  540   1.013   7.111   2.283  1.4817 -3.0651 -1.8615
  762MOL0     H  541   1.017   7.090   2.113  1.7450 -1.2769  0.7232
  762MOL0     H  542   0.851   7.303   2.247  1.9631 -0.2691  1.1599
  762MOL0     H  543   0.853   7.290   2.079 -0.7721 -0.2346  0.9590
  762MOL0     H  544   0.652   7.205   2.137 -2.4092 -2.2782 -0.2320
  762MOL0     H  545   0.711   7.101   2.266 -1.5968  0.8402 -0.3258
  762MOL0     H  546   0.771   6.823   1.911  0.6791 -1.2988  1.6309
  762MOL0     H  547   0.602   6.662   1.842  2.1890  0.0553  0.7608
  762MOL0     H  548   0.318   6.498   1.604 -1.3106 -0.7391 -1.8643
  762MOL0     H  549   0.138   6.342   1.513 -0.8483 -2.3941  0.6088
  762MOL0     H  550  -0.177   6.329   1.705 -0.0532 -1.1923 -2.0186
  762MOL0     H  551  -0.151   6.203   1.823  1.6164  0.4150  0.4453
  762MOL0     H  552  -0.201   6.025   1.661 -3.6073 -2.2962 -0.5996
  762MOL0     H  553  -0.232   6.149   1.540 -0.0813  1.5411 -0.1775
  762MOL0     H  554  -0.397   6.252   1.668 -0.2407 -0.6865 -3.7420
  762MOL0     H  555  -0.408   6.126   1.793  0.1847 -1.3271  0.0552
  762MOL0     H  556  -0.475   6.110   1.483  1.6522  0.4515  0.5988
  762MOL0     H  557  -0.476   5.965   1.589  0.5107 -0.7098 -1.5118
  762MOL0     H  558  -0.637   6.231   1.630  0.2094  0.1276  1.5925
  762MOL0     H  559  -0.655   6.066   1.719 -1.0556 -0.0752 -0.0586
  762MOL0     H  560  -0.717   5.975   1.482  0.1688 -0.9421  0.3570
  762MOL0     H  561  -0.747   6.145   1.446 -0.2762 -0.0890  1.4282
  762MOL0     H  562  -0.855   5.993   1.702 -0.3595  1.1038 -0.0403
  762MOL0     H  563  -0.893   6.154   1.649  0.5597  1.1681 -1.1971
  762MOL0     H  564  -1.004   6.031   1.436 -0.4877  0.3687  0.9060
  762MOL0     H  565  -1.085   6.009   1.584 -2.2668 -1.0590 -2.1233
  762MOL0     H  566   0.051   6.236   1.909  0.7018 -1.7161 -2.7844
  762MOL0     H  567   0.234   6.401   1.999  2.7260  0.8140 -0.0393
  762MOL0     H  568   0.339   6.822   2.144  0.6363  2.3717  1.1112
  762MOL0     H  569   0.499   6.996   2.203 -1.6706  2.0914 -1.6317
  762MOL0     H  570   0.530   7.017   1.052 -0.2595 -0.8889 -0.6321
  762MOL0     H  571   0.283   7.028   1.057  1.4661 -1.4052 -1.5735
  762MOL0     H  572  -0.089   7.255   1.109 -1.3785 -0.2886  1.3520
  762MOL0     H  573  -0.315   7.206   1.160  3.2676  2.4393  0.3845
  762MOL0     H  574  -0.655   6.987   1.019  2.4017 -4.7644 -0.8454
  762MOL0     H  575  -0.534   6.958   0.897 -0.2303  0.3266 -0.4942
  762MOL0     H  576  -0.621   7.146   0.759 -0.6051 -0.8945 -1.0002
  762MOL0     H  577  -0.751   7.037   0.777 -0.4849  3.2241 -4.5794
  762MOL0     H  578  -0.828   7.255   0.808  1.4884  0.9901  0.7088
  762MOL0     H  579  -0.742   7.265   0.962 -3.3861 -1.0357  3.5983
  762MOL0     H  580  -0.878   7.050   1.029  1.7581  0.3606 -0.3078
  762MOL0     H  581  -0.934   7.213   1.038  0.6811  0.9339 -0.8445
  762MOL0     H  582  -1.204   7.093   0.752  0.0116  0.6237  0.3497
  762MOL0     H  583  -0.363   7.038   0.758  1.7267 -1.6110  0.3385
  762MOL0     H  584  -0.119   7.085   0.722 -0.4630 -1.8387 -0.1130
  763MOL0     O  585   0.797   8.983   9.396  0.3947 -0.7599  0.5281
  763MOL0     C  586   0.891   9.046   9.442  0.4876  0.7784 -0.6926
  763MOL0     O  587   0.885   9.159   9.521  0.6030  0.0202 -1.0423
  763MOL0     C  588   0.770   9.216   9.556  0.3043 -1.6884  0.0628
  763MOL0     C  589   0.643   9.151   9.560  0.4558  1.1152  0.0106
  763MOL0     C  590   0.532   9.216   9.616  0.3646  0.8705 -0.3976
  763MOL0     C  591   0.541   9.342   9.668 -0.8079  0.2816  0.1418
  763MOL0     O  592   0.436   9.426   9.695  0.1308  0.0453 -0.4474
  763MOL0     C  593   0.310   9.377   9.711 -0.2168 -0.7354 -0.0420
  763MOL0     C  594   0.223   9.503   9.732 -0.3722  0.1910 -0.4113
  763MOL0     C  595   0.078   9.461   9.725  0.1195  0.3305  0.0528
  763MOL0     C  596  -0.021   9.573   9.785 -0.1391 -0.1241  0.4433
  763MOL0     C  597  -0.174   9.532   9.796 -0.1643 -0.6949  0.4455
  763MOL0     C  598  -0.240   9.530   9.649  0.2263  0.4120  0.8534
  763MOL0     C  599  -0.388   9.546   9.659 -0.5049 -0.5510  0.1975
  763MOL0     C  600  -0.456   9.562   9.521 -0.0502 -0.1708 -0.0956
  763MOL0     N  601  -0.588   9.611   9.546  0.5277 -0.7685 -0.7664
  763MOL0     C  602  -0.698   9.532   9.575 -0.4032 -0.3392 -0.1035
  763MOL0     C  603  -0.798   9.619   9.568 -0.0785 -0.5558  0.4245
  763MOL0     C  604  -0.939   9.573   9.579  0.1570  0.5499  0.0500
  763MOL0     C  605  -1.020   9.637   9.465  0.2790  0.1509 -0.0561
  763MOL0     C  606  -0.976   9.607   9.321 -0.0243  1.1385  0.2114
  763MOL0     C  607  -1.037   9.464   9.280  0.2968 -1.0786 -0.1541
  763MOL0     O  608  -0.973   9.351   9.350 -0.3392 -0.1663 -0.5129
  763MOL0     C  609  -0.844   9.302   9.322 -0.1901  0.4730 -0.8299
  763MOL0     C  610  -0.804   9.189   9.398  0.5033 -0.0870 -0.8036
  763MOL0     C  611  -0.672   9.155   9.394 -0.1315 -0.3930 -0.3442
  763MOL0     C  612  -0.583   9.221   9.311 -0.6755  1.1188 -0.5642
  763MOL0     C  613  -0.434   9.187   9.321  0.7240  0.3784 -0.5969
  763MOL0     O  614  -0.344   9.277   9.265  0.3101 -0.0419 -0.8829
  763MOL0     C  615  -0.213   9.254   9.284  0.3233  0.1017  0.0164
  763MOL0     C  616  -0.146   9.228   9.167 -0.0103  0.1870 -0.5020
  763MOL0     C  617  -0.006   9.201   9.174 -0.2081 -0.8628 -0.7584
  763MOL0     C  618   0.055   9.207   9.303  0.0126  0.7605  0.5663
  763MOL0     O  619   0.182   9.170   9.336  0.6350 -0.0876 -1.1277
  763MOL0     C  620   0.274   9.157   9.224  0.3196  0.1628  0.4147
  763MOL0     C  621   0.419   9.138   9.277 -0.0495  0.0085 -0.8887
  763MOL0     C  622   0.521   9.122   9.162  0.6544 -0.1772  0.2674
  763MOL0     C  623   0.600   9.246   9.118  0.4461  1.2202 -0.8239
  763MOL0     C  624   0.697   9.224   8.993  0.0056 -0.1002 -0.0100
  763MOL0     C  625   0.791   9.098   9.002 -0.0694 -0.1088 -0.1634
  763MOL0     C  626   0.910   9.126   8.917 -0.3288  0.5350 -0.3917
  763MOL0     C  627   1.019   9.018   8.926  0.1464  0.2058 -0.1455
  763MOL0    Cl  628   0.956   8.862   8.876  0.0533 -0.2213  0.2853
  763MOL0     C  629  -0.015   9.244   9.416  0.6055 -0.3751  0.7984
  763MOL0     C  630  -0.153   9.268   9.407  0.5128 -0.2580  0.1726
  763MOL0     O  631  -0.401   9.082   9.378 -0.7977 -0.1071  0.3377
  763MOL0     C  632  -0.616   9.317   9.231  0.1120  0.3311  0.2505
  763MOL0     C  633  -0.747   9.374   9.237 -0.7904  0.1753 -0.7210
  763MOL0     N  634  -0.748   9.747   9.537 -0.8264  0.2686  0.1384
  763MOL0     N  635  -0.623   9.741   9.511  0.3941 -0.4665 -0.1979
  763MOL0     C  636   0.666   9.404   9.662 -0.2830 -0.7558 -0.7087
  763MOL0     C  637   0.783   9.344   9.610  0.7984 -0.3934  0.2437
  763MOL0     C  638   1.030   8.996   9.416 -0.1164 -0.7113 -0.1645
  763MOL0     C  639   1.057   8.859   9.409  0.4695  1.0787  0.2541
  763MOL0     C  640   1.196   8.818   9.389 -0.5517 -0.2397  0.4156
  763MOL0     C  641   1.295   8.911   9.363 -0.1529  0.6263  1.0201
  763MOL0     O  642   1.412   8.849   9.323  0.6771 -0.0534  0.1872
  763MOL0     C  643   1.514   8.939   9.287 -0.3577 -0.4240  0.0740
  763MOL0     C  644   1.628   8.877   9.213 -1.0722  0.6330 -0.7789
  763MOL0     C  645   1.748   8.974   9.190 -0.7374  0.0343 -0.3527
  763MOL0     C  646   1.811   8.968   9.051 -0.2572 -0.6362 -0.0227
  763MOL0     C  647   1.910   9.072   9.045 -0.2267 -0.2426 -0.1772
  763MOL0     C  648   1.989   9.159   9.025 -0.3049 -0.5673 -0.1047
  763MOL0     C  649   1.271   9.048   9.378  0.0999  0.1245  0.4031
  763MOL0     C  650   1.137   9.085   9.406  0.1610  0.1961  0.5944
  763MOL0     H  651   0.629   9.047   9.533 -1.8982  1.0875  1.0606
  763MOL0     H  652   0.439   9.160   9.615  1.5415 -1.1807 -0.2446
  763MOL0     H  653   0.301   9.313   9.800  0.3425  0.0516  0.5909
  763MOL0     H  654   0.277   9.324   9.621  0.7486  1.2402 -1.6203
  763MOL0     H  655   0.241   9.579   9.656  0.7216 -0.5392 -0.9005
  763MOL0     H  656   0.243   9.550   9.829 -3.8590  1.2933 -0.0535
  763MOL0     H  657   0.048   9.376   9.786 -0.7765  0.2972 -0.4147
  763MOL0     H  658   0.060   9.434   9.620 -0.9141 -3.5368  1.0903
  763MOL0     H  659   0.011   9.603   9.885  2.0683  1.3350 -0.5979
  763MOL0     H  660  -0.017   9.656   9.714  1.3099 -1.3305 -0.9807
  763MOL0     H  661  -0.238   9.600   9.854 -2.1198 -0.9663 -1.2610
  763MOL0     H  662  -0.176   9.432   9.839 -3.7211 -0.6614  0.6947
  763MOL0     H  663  -0.213   9.440   9.594  1.0521  1.8630 -1.2382
  763MOL0     H  664  -0.197   9.609   9.586 -0.2641  0.6424  0.8096
  763MOL0     H  665  -0.425   9.463   9.720 -0.6679  0.5533  1.6631
  763MOL0     H  666  -0.416   9.641   9.706  0.1661 -0.0760 -0.3495
  763MOL0     H  667  -0.456   9.466   9.469 -1.2941 -1.1354  1.5812
  763MOL0     H  668  -0.393   9.640   9.476  0.4249  0.3369  1.3747
  763MOL0     H  669  -0.708   9.427   9.597  0.4398  0.0028  2.1037
  763MOL0     H  670  -0.954   9.619   9.677  0.6602  0.2841  0.2561
  763MOL0     H  671  -0.939   9.464   9.586  0.8758  0.6429  3.0718
  763MOL0     H  672  -1.026   9.745   9.483 -0.2652 -0.1718  1.9430
  763MOL0     H  673  -1.124   9.605   9.462  0.0831  0.6805  0.8159
  763MOL0     H  674  -1.025   9.677   9.253  1.0128  0.8135 -0.9168
  763MOL0     H  675  -0.868   9.607   9.303  0.1216 -0.0711  0.9569
  763MOL0     H  676  -1.037   9.458   9.170 -2.5372  1.4947 -0.4113
  763MOL0     H  677  -1.144   9.470   9.302  0.5001  3.0294  0.5873
  763MOL0     H  678  -0.867   9.143   9.473 -0.6552  1.9172 -0.4842
  763MOL0     H  679  -0.626   9.086   9.465  0.0613 -0.4993 -0.5710
  763MOL0     H  680  -0.200   9.221   9.073  0.7498 -0.6897 -0.8895
  763MOL0     H  681   0.048   9.177   9.083 -1.1792  0.2775 -1.6790
  763MOL0     H  682   0.275   9.259   9.185 -1.0912  0.7023  1.7046
  763MOL0     H  683   0.242   9.087   9.146  0.5134 -1.8665  2.0571
  763MOL0     H  684   0.406   9.052   9.344 -4.3983  0.6512 -0.6137
  763MOL0     H  685   0.436   9.230   9.334 -0.8051 -1.2892  1.5837
  763MOL0     H  686   0.474   9.069   9.079 -0.6418  0.1908  0.7363
  763MOL0     H  687   0.601   9.054   9.195  0.4226 -1.1731 -1.1336
  763MOL0     H  688   0.525   9.324   9.102 -1.0745 -0.6583 -3.9681
  763MOL0     H  689   0.662   9.275   9.203 -0.1725 -1.0301  0.4898
  763MOL0     H  690   0.752   9.318   8.994 -0.3065  0.1378  2.4176
  763MOL0     H  691   0.644   9.212   8.898 -1.3495  0.3463  0.6737
  763MOL0     H  692   0.740   9.002   8.993  0.2385 -0.4601  1.5542
  763MOL0     H  693   0.836   9.090   9.101  3.0070 -1.1480 -1.5205
  763MOL0     H  694   0.880   9.132   8.812  0.9336  0.4996 -0.7761
  763MOL0     H  695   0.966   9.211   8.955  0.6952  0.0598 -0.7965
  763MOL0     H  696   1.048   9.020   9.032  0.0719  2.7626 -0.1138
  763MOL0     H  697   1.099   9.050   8.859  1.3477  0.4003  1.3214
  763MOL0     H  698   0.036   9.244   9.512  0.1655 -1.1833  1.0404
  763MOL0     H  699  -0.220   9.279   9.492  0.5020 -0.6488  0.2142
  763MOL0     H  700  -0.541   9.357   9.163  2.4745 -1.9436  1.3334
  763MOL0     H  701  -0.781   9.460   9.181 -2.1731  1.0485  1.3473
  763MOL0     H  702   0.685   9.505   9.698  1.1307 -1.3705  0.3608
  763MOL0     H  703   0.882   9.389   9.607  0.9359 -0.7414 -2.2171
  763MOL0     H  704   0.968   8.798   9.417  0.1899  1.6406  1.6465
  763MOL0     H  705   1.231   8.717   9.373  0.0457 -0.0541  0.5188
  763MOL0     H  706   1.550   8.978   9.382 -1.6544 -1.3330  0.9726
  763MOL0     H  707   1.466   9.021   9.231  0.0369  0.2166  0.6643
  763MOL0     H  708   1.664   8.792   9.272  0.8907  1.0215 -1.3530
  763MOL0     H  709   1.592   8.845   9.115  0.6445  1.8114 -1.8511
  763MOL0     H  710   1.819   8.949   9.269 -2.6755 -0.8281  1.2101
  763MOL0     H  711   1.715   9.078   9.198  1.2228  1.0007 -3.2205
  763MOL0     H  712   1.861   8.873   9.030 -1.2905 -1.4954  1.2211
  763MOL0     H  713   1.737   8.992   8.974  0.0367  0.6005  0.0633
  763MOL0     H  714   2.082   9.212   9.021 -0.0949 -0.8416  0.8650
  763MOL0     H  715   1.341   9.127   9.352  1.8435 -1.8232 -1.0917
  763MOL0     H  716   1.111   9.190   9.400  1.3384  0.4313 -0.8712
  764MOL0     O  717   8.392  10.986   1.777 -0.0913  0.1264  0.2614
  764MOL0     C  718   8.455  10.942   1.871 -0.4905 -0.2922 -0.7363
  764MOL0     O  719   8.416  10.830   1.937 -0.4609 -0.1049  0.6733
  764MOL0     C  720   8.297  10.777   1.910 -0.0547 -0.1289  0.6767
  764MOL0     C  721   8.280  10.692   1.798 -0.0504  0.6745 -0.5584
  764MOL0     C  722   8.151  10.647   1.758  0.5367 -0.1067  0.6659
  764MOL0     C  723   8.037  10.678   1.832 -0.3569  0.4853 -0.5318
  764MOL0     O  724   7.909  10.643   1.794 -0.2431  0.3206  0.0920
  764MOL0     C  725   7.877  10.709   1.671 -0.5487 -0.5293  0.0471
  764MOL0     C  726   7.737  10.682   1.623  0.2370 -0.5260 -0.1644
  764MOL0     C  727   7.654  10.811   1.575 -1.0536 -0.3044  0.0862
  764MOL0     C  728   7.500  10.783   1.587  0.1694  0.3370 -0.2737
  764MOL0     C  729   7.419  10.886   1.505 -0.5012 -0.0844 -0.1521
  764MOL0     C  730   7.266  10.875   1.517  0.5168  1.1672  0.0852
  764MOL0     C  731   7.198  11.002   1.456  0.6445  0.6456  0.1296
  764MOL0     C  732   7.163  10.978   1.304 -0.6382  0.1523  0.0946
  764MOL0     N  733   7.045  10.880   1.293 -0.5599 -0.1031  0.0947
  764MOL0     C  734   7.044  10.767   1.215  0.5751 -0.0956 -0.3438
  764MOL0     C  735   6.912  10.726   1.221 -0.0938  0.1549  0.4571
  764MOL0     C  736   6.856  10.599   1.161  0.1434  0.3044  0.2151
  764MOL0     C  737   6.705  10.581   1.179  0.4440 -0.0740  0.1697
  764MOL0     C  738   6.648  10.444   1.130 -0.0688 -1.1603 -0.0238
  764MOL0     C  739   6.506  10.454   1.085  0.0945  0.4409 -0.4466
  764MOL0     O  740   6.449  10.576   1.083  0.1360 -0.3583  0.1176
  764MOL0     C  741   6.328  10.596   1.013  0.9922  0.0960 -0.7458
  764MOL0     C  742   6.210  10.599   1.083 -0.1450 -0.8000  0.3006
  764MOL0     C  743   6.088  10.631   1.008 -0.1899 -0.2027  0.4967
  764MOL0     C  744   6.086  10.648   0.867  0.1527  0.6009 -0.1229
  764MOL0     C  745   5.957  10.675   0.806 -0.2725  0.0692  0.5645
  764MOL0     O  746   5.846  10.650   0.876 -0.3132 -0.2563 -0.4624
  764MOL0     C  747   5.717  10.677   0.828 -0.6682 -0.1542  0.0861
  764MOL0     C  748   5.664  10.805   0.838 -0.3837 -0.2883 -0.8162
  764MOL0     C  749   5.533  10.835   0.806 -0.5053  0.5956 -0.0101
  764MOL0     C  750   5.455  10.737   0.745 -1.1796 -0.1366 -0.3736
  764MOL0     O  751   5.329  10.754   0.684  0.0567 -0.1816 -0.5951
  764MOL0     C  752   5.266  10.882   0.680 -0.4858  0.5249  0.1375
  764MOL0     C  753   5.198  10.931   0.807  0.2754  0.6220 -0.7179
  764MOL0     C  754   5.044  10.889   0.790 -0.6919  0.4424 -0.6913
  764MOL0     C  755   4.961  10.933   0.910 -0.0139  1.1199 -0.4632
  764MOL0     C  756   4.815  10.897   0.898 -0.2222  0.4963 -0.8845
  764MOL0     C  757   4.789  10.747   0.924  0.2688  0.2151  1.0825
  764MOL0     C  758   4.642  10.702   0.899  0.8047 -0.5915  0.0263
  764MOL0     C  759   4.548  10.802   0.973  0.6578 -0.1261 -0.8008
  764MOL0    Cl  760   4.392  10.713   0.980  0.0177 -0.0693  0.3409
  764MOL0     C  761   5.507  10.611   0.744  0.3387  0.2936  0.6594
  764MOL0     C  762   5.636  10.579   0.777 -0.4025 -0.3781  0.0653
  764MOL0     O  763   5.960  10.725   0.692 -0.3497  0.0603  0.1591
  764MOL0     C  764   6.208  10.646   0.804  0.3527  0.5615  0.3576
  764MOL0     C  765   6.326  10.624   0.875 -0.2145 -0.1058 -0.5859
  764MOL0     N  766   6.842  10.810   1.306 -0.7039 -0.1077  0.4995
  764MOL0     N  767   6.928  10.898   1.357  0.6143 -0.1707 -0.4421
  764MOL0     C  768   8.057  10.755   1.954  0.3540 -0.0094  0.3290
  764MOL0     C  769   8.184  10.805   1.990 -1.1449 -0.5702  0.1182
  764MOL0     C  770   8.573  11.018   1.912  0.2053 -0.2384 -1.3041
  764MOL0     C  771   8.605  11.150   1.865  1.3637  0.5900 -0.3473
  764MOL0     C  772   8.718  11.215   1.905 -0.7414  0.0698  0.5880
  764MOL0     C  773   8.813  11.158   1.993 -0.0191 -0.3385 -0.4108
  764MOL0     O  774   8.925  11.214   2.050  0.0314 -0.0105  0.7025
  764MOL0     C  775   8.934  11.354   2.049 -1.0973  0.0711  0.4924
  764MOL0     C  776   8.963  11.418   2.190  0.7737  0.2673 -0.1592
  764MOL0     C  777   9.074  11.339   2.265 -0.3208 -0.5032 -1.0752
  764MOL0     C  778   9.166  11.448   2.342 -0.9125 -1.0020  0.3467
  764MOL0     C  779   9.284  11.398   2.410 -0.1905 -0.3370 -0.1451
  764MOL0     C  780   9.378  11.333   2.447  0.6140 -0.5704  0.1829
  764MOL0     C  781   8.776  11.036   2.043 -0.2347 -0.0509 -0.2705
  764MOL0     C  782   8.658  10.976   2.007  0.1883  0.1935  0.7100
  764MOL0     H  783   8.372  10.670   1.746 -0.0770  2.0004 -1.2157
  764MOL0     H  784   8.153  10.602   1.660  1.7053  1.8005 -0.2424
  764MOL0     H  785   7.954  10.681   1.598 -0.0843 -1.2858  0.8064
  764MOL0     H  786   7.889  10.814   1.701  0.6537 -1.0652  1.6091
  764MOL0     H  787   7.676  10.645   1.706  1.6082  1.7927  2.0508
  764MOL0     H  788   7.738  10.610   1.540  0.4416 -1.5241  0.6782
  764MOL0     H  789   7.690  10.826   1.473  0.0447  0.4521  0.5650
  764MOL0     H  790   7.687  10.894   1.637 -1.1592 -0.5640  0.4906
  764MOL0     H  791   7.480  10.687   1.538 -1.0609  1.0655 -1.2829
  764MOL0     H  792   7.470  10.779   1.692  2.0758 -1.1879  0.2666
  764MOL0     H  793   7.447  10.887   1.400  0.3505  0.2553  0.0696
  764MOL0     H  794   7.449  10.983   1.546  2.5663 -1.0189  0.0937
  764MOL0     H  795   7.227  10.853   1.617 -0.9123 -0.0956 -0.7006
  764MOL0     H  796   7.236  10.784   1.463 -1.7629  3.5359 -3.0191
  764MOL0     H  797   7.102  11.019   1.506  0.3137 -0.9421  0.0947
  764MOL0     H  798   7.260  11.089   1.479  3.4871 -1.3834  0.7197
  764MOL0     H  799   7.255  10.938   1.262  0.1148  2.7709 -0.9277
  764MOL0     H  800   7.141  11.066   1.243  0.5921  0.2797 -0.1927
  764MOL0     H  801   7.130  10.730   1.161  0.1786 -2.3301  0.4647
  764MOL0     H  802   6.900  10.517   1.218  0.9143  1.4528  1.3299
  764MOL0     H  803   6.870  10.595   1.053 -1.2153  2.5690 -0.1178
  764MOL0     H  804   6.659  10.661   1.121 -0.8961  0.3378  1.7448
  764MOL0     H  805   6.676  10.591   1.284 -0.0141 -2.9529  0.4000
  764MOL0     H  806   6.701  10.416   1.039  0.7410 -2.9458  0.9329
  764MOL0     H  807   6.664  10.363   1.202  0.0029  0.5279  1.9554
  764MOL0     H  808   6.445  10.391   1.151  0.3054 -0.0574 -0.7134
  764MOL0     H  809   6.485  10.381   1.006 -1.9551 -0.9172  1.2420
  764MOL0     H  810   6.199  10.593   1.191 -1.7274 -0.9134  0.1595
  764MOL0     H  811   6.006  10.635   1.079  1.0570  1.2562  1.9510
  764MOL0     H  812   5.720  10.885   0.886 -0.7169 -1.2935  1.4083
  764MOL0     H  813   5.499  10.938   0.808 -1.0021  0.4437 -0.3583
  764MOL0     H  814   5.194  10.885   0.598 -0.1873  1.8071 -0.1004
  764MOL0     H  815   5.341  10.956   0.650  0.3060 -0.2145  0.2194
  764MOL0     H  816   5.210  11.039   0.804 -1.1379  0.8993  1.5432
  764MOL0     H  817   5.231  10.876   0.897 -3.9170 -0.5066  0.3566
  764MOL0     H  818   5.022  10.785   0.762 -1.6468  0.9396 -1.8625
  764MOL0     H  819   5.004  10.955   0.713 -4.2967 -1.6820 -0.8737
  764MOL0     H  820   4.997  10.888   1.003 -1.3049  0.9985 -0.0051
  764MOL0     H  821   4.969  11.041   0.920 -1.4105  1.1712  0.3774
  764MOL0     H  822   4.767  10.930   0.806 -2.5364  0.0544  0.0764
  764MOL0     H  823   4.762  10.955   0.975  1.4314  0.0284  0.6826
  764MOL0     H  824   4.815  10.719   1.026 -0.5987  0.8181  1.4796
  764MOL0     H  825   4.851  10.698   0.848  0.3448  2.1082 -0.1400
  764MOL0     H  826   4.619  10.695   0.792 -1.5079  1.0069  0.3381
  764MOL0     H  827   4.621  10.600   0.931 -0.3868 -0.6161 -0.7676
  764MOL0     H  828   4.542  10.888   0.905  1.5749 -1.0192 -2.0783
  764MOL0     H  829   4.583  10.839   1.070  0.9379  1.8391 -1.6068
  764MOL0     H  830   5.441  10.534   0.705  0.2043  1.0340 -0.6346
  764MOL0     H  831   5.674  10.478   0.765  2.0775  0.1572  2.3945
  764MOL0     H  832   6.219  10.661   0.697 -0.1999 -3.9370 -0.5022
  764MOL0     H  833   6.423  10.634   0.826 -0.4130 -0.8673 -1.1494
  764MOL0     H  834   7.969  10.784   2.012  1.4016  0.4223  1.7679
  764MOL0     H  835   8.213  10.874   2.068  3.4040 -0.5499 -1.3030
  764MOL0     H  836   8.542  11.196   1.789  1.2345 -0.7644 -1.0883
  764MOL0     H  837   8.738  11.316   1.870  1.5870 -0.7197 -0.5531
  764MOL0     H  838   8.842  11.406   2.019 -0.3235 -0.4779 -3.4707
  764MOL0     H  839   9.015  11.381   1.981  0.6378 -1.0895  2.0397
  764MOL0     H  840   9.003  11.520   2.190 -1.2910  1.1705  2.0196
  764MOL0     H  841   8.873  11.433   2.249  1.3122  3.0978  0.1142
  764MOL0     H  842   9.129  11.270   2.200 -0.3512  0.9105 -2.6649
  764MOL0     H  843   9.033  11.276   2.345  0.7149  1.4706  1.1218
  764MOL0     H  844   9.200  11.522   2.269 -0.8108  0.3117  1.6727
  764MOL0     H  845   9.112  11.514   2.411  0.4552 -0.2258  0.7163
  764MOL0     H  846   9.460  11.269   2.474  0.9122 -0.2069  0.1365
  764MOL0     H  847   8.838  10.997   2.122  0.4429 -0.4859 -0.9999
  764MOL0     H  848   8.650  10.880   2.056 -1.3691 -0.8345 -1.4183
  765MOL0     O  849   2.125   0.555   9.690  0.2380  0.0112  0.0680
  765MOL0     C  850   2.092   0.650   9.611 -0.3902  0.3463  0.3273
  765MOL0     O  851   1.963   0.692   9.581 -0.8267  0.5002  0.0553
  765MOL0     C  852   1.876   0.609   9.642 -0.2919 -0.3060 -0.2048
  765MOL0     C  853   1.837   0.484   9.592  0.3714 -1.2406  0.3820
  765MOL0     C  854   1.738   0.401   9.659  0.4942 -0.4846  0.7455
  765MOL0     C  855   1.671   0.446   9.765  0.1504 -0.8892 -1.0844
  765MOL0     O  856   1.564   0.373   9.817 -0.1663 -0.1214  0.8047
  765MOL0     C  857   1.444   0.445   9.789  0.3528  0.1506  0.5308
  765MOL0     C  858   1.328   0.343   9.798  0.2405 -0.2156 -0.0550
  765MOL0     C  859   1.200   0.404   9.740  0.0691  0.1208 -0.1646
  765MOL0     C  860   1.091   0.299   9.709  0.2347  0.1376  0.7696
  765MOL0     C  861   0.957   0.366   9.677  0.0751  1.1354 -0.5216
  765MOL0     C  862   0.861   0.264   9.612  0.1548  0.1851  0.3623
  765MOL0     C  863   0.721   0.333   9.593 -0.0830  0.1334  0.3535
  765MOL0     C  864   0.638   0.251   9.489 -0.3616 -0.2849 -0.2867
  765MOL0     N  865   0.498   0.295   9.481 -0.0233 -0.2515 -1.1809
  765MOL0     C  866   0.393   0.247   9.549  0.7943 -0.0318 -0.2803
  765MOL0     C  867   0.285   0.327   9.499  0.1010 -0.0550 -0.5072
  765MOL0     C  868   0.148   0.321   9.559  0.3478 -0.6572  0.0722
  765MOL0     C  869   0.054   0.265   9.448 -1.1743  0.2679  0.7195
  765MOL0     C  870  -0.087   0.306   9.482 -0.4254  0.5410  0.1249
  765MOL0     C  871  -0.190   0.281   9.372  0.3320 -0.2778 -0.2896
  765MOL0     O  872  -0.323   0.310   9.415 -0.0987  0.0982 -0.5587
  765MOL0     C  873  -0.363   0.437   9.441 -0.2061  0.1575  0.0973
  765MOL0     C  874  -0.288   0.555   9.413 -0.2012 -0.1050  0.2173
  765MOL0     C  875  -0.335   0.687   9.422  0.2913  0.4700 -0.2544
  765MOL0     C  876  -0.461   0.704   9.489  0.5524  0.4334 -0.5335
  765MOL0     C  877  -0.515   0.834   9.510  0.3804 -1.2800  0.2180
  765MOL0     O  878  -0.650   0.844   9.536  0.6713  0.1950  0.3514
  765MOL0     C  879  -0.712   0.968   9.557  0.5717 -0.0075 -0.4422
  765MOL0     C  880  -0.850   0.961   9.577 -0.9131 -0.6143 -0.3144
  765MOL0     C  881  -0.926   1.066   9.630  0.5545 -0.5484 -0.0820
  765MOL0     C  882  -0.865   1.188   9.649 -0.7655 -0.1330 -0.5924
  765MOL0     O  883  -0.949   1.282   9.696  0.7405  0.4436  0.2799
  765MOL0     C  884  -0.891   1.410   9.735 -0.2808 -0.2747  0.3156
  765MOL0     C  885  -0.986   1.493   9.814 -0.0740  0.1884 -0.4141
  765MOL0     C  886  -1.113   1.517   9.734  0.1765 -0.1122 -0.2801
  765MOL0     C  887  -1.219   1.571   9.821 -0.1759  0.3266 -0.4457
  765MOL0     C  888  -1.343   1.628   9.767 -1.0561  0.5116  0.3396
  765MOL0     C  889  -1.437   1.682   9.880  0.2679 -0.3573  0.0637
  765MOL0     C  890  -1.556   1.752   9.813 -0.3292 -0.4249 -0.0944
  765MOL0     C  891  -1.664   1.774   9.908 -0.2408 -0.2203 -0.6417
  765MOL0    Cl  892  -1.790   1.878   9.829  0.1809  0.1045 -0.0928
  765MOL0     C  893  -0.725   1.205   9.630 -0.1425  0.0707  0.0975
  765MOL0     C  894  -0.647   1.094   9.589 -0.4399  0.3013 -0.4900
  765MOL0     O  895  -0.440   0.928   9.480 -0.3501  0.1100  0.1141
  765MOL0     C  896  -0.528   0.588   9.527  0.7543 -0.4065 -0.5868
  765MOL0     C  897  -0.472   0.459   9.510 -0.0599  0.4830 -0.2103
  765MOL0     N  898   0.336   0.430   9.423  0.8733  0.0381  0.2354
  765MOL0     N  899   0.461   0.400   9.403  0.2765  0.0935 -0.3965
  765MOL0     C  900   1.704   0.575   9.820 -0.4780 -0.1741  0.3244
  765MOL0     C  901   1.802   0.653   9.753  1.0253 -0.3683  0.2232
  765MOL0     C  902   2.199   0.713   9.541 -1.2324  0.3484  0.1339
  765MOL0     C  903   2.324   0.658   9.516  0.4797  0.1636 -0.0352
  765MOL0     C  904   2.413   0.724   9.427  0.4191  0.1468  0.1936
  765MOL0     C  905   2.384   0.856   9.372 -0.9528  0.2104 -0.7824
  765MOL0     O  906   2.470   0.932   9.294 -0.4501  0.3967  1.0545
  765MOL0     C  907   2.604   0.902   9.271  0.0089 -0.2422 -0.1416
  765MOL0     C  908   2.703   0.990   9.353  0.5774 -0.0252  0.1701
  765MOL0     C  909   2.686   0.944   9.500 -0.8184 -0.1191 -0.4909
  765MOL0     C  910   2.784   1.021   9.596 -0.1819 -0.8673  0.1825
  765MOL0     C  911   2.734   1.012   9.736 -0.0738 -0.6375 -0.2867
  765MOL0     C  912   2.685   1.025   9.851 -0.2336 -0.7211  0.0370
  765MOL0     C  913   2.260   0.907   9.404  0.1367  0.2196  0.7171
  765MOL0     C  914   2.166   0.830   9.479  0.1508 -0.0683 -0.6694
  765MOL0     H  915   1.877   0.450   9.497 -0.5866 -2.2775  0.3194
  765MOL0     H  916   1.714   0.305   9.614  1.2382 -0.9653  1.3484
  765MOL0     H  917   1.442   0.505   9.698 -0.5878  2.0881  1.7588
  765MOL0     H  918   1.429   0.515   9.872  2.7221  0.5206  0.7193
  765MOL0     H  919   1.304   0.329   9.904 -0.1883 -1.3504 -0.2861
  765MOL0     H  920   1.356   0.248   9.751 -2.9271 -0.8283 -0.9588
  765MOL0     H  921   1.225   0.448   9.643  2.5391  1.9135  1.1889
  765MOL0     H  922   1.161   0.481   9.807 -1.5807  0.4018 -1.3809
  765MOL0     H  923   1.137   0.244   9.626  1.1481  1.5198  0.3414
  765MOL0     H  924   1.070   0.241   9.800  1.3036 -1.2087  0.1909
  765MOL0     H  925   0.969   0.441   9.599 -2.3865  0.0679 -2.0539
  765MOL0     H  926   0.915   0.410   9.767  1.7315 -1.0223  1.4567
  765MOL0     H  927   0.846   0.176   9.677 -0.1245  0.2522  0.3872
  765MOL0     H  928   0.899   0.236   9.513 -0.4771  1.0270 -0.1302
  765MOL0     H  929   0.676   0.353   9.691 -0.7907 -4.2921  1.1345
  765MOL0     H  930   0.737   0.436   9.560  1.0923 -0.0768  0.2301
  765MOL0     H  931   0.643   0.143   9.509 -0.0669  0.0308  1.4730
  765MOL0     H  932   0.676   0.268   9.388 -1.1240  1.2401 -0.3328
  765MOL0     H  933   0.381   0.162   9.616 -2.6429 -0.3149 -1.0495
  765MOL0     H  934   0.107   0.419   9.585 -1.5752 -1.2056 -0.6982
  765MOL0     H  935   0.145   0.257   9.648  0.9423  1.4834  1.7016
  765MOL0     H  936   0.068   0.157   9.437 -1.3761  0.3880 -1.0364
  765MOL0     H  937   0.083   0.313   9.354  1.3997 -1.5009  0.5128
  765MOL0     H  938  -0.118   0.246   9.568  0.3858 -3.1911 -1.9676
  765MOL0     H  939  -0.094   0.413   9.504 -1.3133  0.4958  0.1160
  765MOL0     H  940  -0.177   0.176   9.343  0.3728 -0.5550  0.6859
  765MOL0     H  941  -0.151   0.340   9.288 -0.2602 -0.4830 -0.7159
  765MOL0     H  942  -0.204   0.551   9.344 -1.7321  0.6770 -1.7829
  765MOL0     H  943  -0.274   0.771   9.391  1.8208 -0.4961 -0.0029
  765MOL0     H  944  -0.896   0.863   9.563  0.7372 -1.6331  0.9761
  765MOL0     H  945  -1.029   1.062   9.664  0.3608  0.6904 -0.4775
  765MOL0     H  946  -0.863   1.466   9.646 -0.1378  0.7470  0.9899
  765MOL0     H  947  -0.802   1.396   9.797  1.6091  0.2076 -2.1416
  765MOL0     H  948  -0.938   1.583   9.855  1.3426 -0.7824  0.0975
  765MOL0     H  949  -1.018   1.433   9.899  2.0259 -0.1032  0.2191
  765MOL0     H  950  -1.148   1.426   9.684 -1.6176  1.4265 -1.9867
  765MOL0     H  951  -1.098   1.592   9.655 -1.0643 -0.3162 -0.7275
  765MOL0     H  952  -1.241   1.501   9.903  0.2801 -0.1084 -0.6880
  765MOL0     H  953  -1.163   1.648   9.873 -1.7345  0.7204  0.7447
  765MOL0     H  954  -1.394   1.548   9.712  1.0429  2.4762 -5.1985
  765MOL0     H  955  -1.321   1.709   9.697 -2.0294  1.8121  1.4723
  765MOL0     H  956  -1.375   1.747   9.943  1.1989 -1.1887  0.0235
  765MOL0     H  957  -1.466   1.591   9.934  1.2556 -1.7579 -1.6699
  765MOL0     H  958  -1.526   1.843   9.762 -1.0725 -1.2771 -2.1444
  765MOL0     H  959  -1.603   1.689   9.737  2.5263  0.3651 -2.7194
  765MOL0     H  960  -1.621   1.829   9.993 -0.5384 -0.0425 -0.6040
  765MOL0     H  961  -1.700   1.675   9.939  3.5422 -0.3651  4.4844
  765MOL0     H  962  -0.676   1.299   9.656 -0.3710  1.2487 -3.2761
  765MOL0     H  963  -0.543   1.117   9.569 -0.8068  2.5279 -0.1856
  765MOL0     H  964  -0.613   0.589   9.596  0.1255  0.1791 -1.3422
  765MOL0     H  965  -0.536   0.380   9.547  0.5051  1.0780  2.2926
  765MOL0     H  966   1.653   0.603   9.911 -3.1795  0.6820 -1.3420
  765MOL0     H  967   1.825   0.755   9.785 -1.4227 -0.1462  1.5626
  765MOL0     H  968   2.364   0.565   9.556  0.5830 -0.9312 -2.5084
  765MOL0     H  969   2.507   0.675   9.405 -0.4181 -0.5015 -2.3136
  765MOL0     H  970   2.623   0.906   9.163 -1.0112 -0.0416 -0.3286
  765MOL0     H  971   2.629   0.800   9.303  0.8021  0.1331  0.4529
  765MOL0     H  972   2.800   0.957   9.314  1.3230  1.0704  1.0289
  765MOL0     H  973   2.682   1.095   9.330 -1.8709 -0.3159  0.7820
  765MOL0     H  974   2.714   0.841   9.524 -1.3179  0.0928  1.1078
  765MOL0     H  975   2.585   0.960   9.539 -0.2875  0.1270  0.8113
  765MOL0     H  976   2.881   0.971   9.596 -0.6733 -1.9012  2.0153
  765MOL0     H  977   2.794   1.126   9.567 -2.3060 -0.1916  1.6152
  765MOL0     H  978   2.650   1.039   9.952 -2.0958 -2.0965 -0.3653
  765MOL0     H  979   2.228   1.005   9.368 -1.5958 -1.3996 -2.6665
  765MOL0     H  980   2.062   0.863   9.487 -0.1642 -1.0423 -0.6554
  766MOL0     O  981   4.475  10.690  10.242  0.0273 -0.0013 -0.3421
  766MOL0     C  982   4.423  10.793  10.298 -0.7002  0.0200  0.3580
  766MOL0     O  983   4.470  10.917  10.301 -0.2965  0.4468  0.2513
  766MOL0     C  984   4.590  10.942  10.250  0.0598  0.4537  0.2651
  766MOL0     C  985   4.694  10.997  10.331  0.0278  0.4271  0.0457
  766MOL0     C  986   4.825  11.009  10.287 -1.0326  0.1981  0.2363
  766MOL0     C  987   4.859  10.968  10.159 -1.5844 -0.3052 -0.0152
  766MOL0     O  988   4.993  10.978  10.121 -0.0078  0.0650 -0.5875
  766MOL0     C  989   5.046  10.905  10.006  0.5823 -0.0464 -0.2541
  766MOL0     C  990   5.180  10.964   9.961 -0.3844 -1.3588 -0.1352
  766MOL0     C  991   5.173  11.105   9.906  0.8120  0.5076 -0.0957
  766MOL0     C  992   5.121  11.215  10.005 -0.5263 -0.1200 -0.2588
  766MOL0     C  993   5.106  11.350   9.939 -0.9588  0.0636 -0.2628
  766MOL0     C  994   5.091  11.460  10.048  0.0611 -0.4768 -0.0877
  766MOL0     C  995   4.999  11.426  10.164 -0.3172  0.2503  0.7395
  766MOL0     C  996   4.852  11.399  10.128 -1.2780  0.5522  0.4463
  766MOL0     N  997   4.767  11.441  10.242  0.1462 -0.8655 -0.2052
  766MOL0     C  998   4.660  11.539  10.230  0.0342  0.4850  0.0481
  766MOL0     C  999   4.616  11.546  10.360 -0.2137  0.3499  0.1586
  766MOL0     C 1000   4.508  11.640  10.406  0.8625 -0.0877  0.0257
  766MOL0     C 1001   4.376  11.563  10.404  0.8425  0.6204 -1.0695
  766MOL0     C 1002   4.254  11.652  10.407 -0.5956 -0.3215  0.8369
  766MOL0     C 1003   4.117  11.587  10.447 -0.2419 -0.4558  0.0393
  766MOL0     O 1004   4.017  11.692  10.443 -0.6608  0.3613  0.3004
  766MOL0     C 1005   3.888  11.659  10.438  0.2747  1.1089 -1.0266
  766MOL0     C 1006   3.792  11.756  10.415 -0.2859  0.9828 -0.0614
  766MOL0     C 1007   3.664  11.719  10.395  0.0506 -0.1857 -0.2671
  766MOL0     C 1008   3.618  11.585  10.405 -0.1805 -0.8208 -0.2020
  766MOL0     C 1009   3.476  11.544  10.386 -0.2898 -0.2847  0.2069
  766MOL0     O 1010   3.443  11.425  10.439 -0.2448  0.7710  0.4345
  766MOL0     C 1011   3.318  11.371  10.408 -0.8108  1.9384 -0.1650
  766MOL0     C 1012   3.307  11.258  10.324  0.4776  0.9204 -0.4390
  766MOL0     C 1013   3.185  11.185  10.309 -0.1953  0.0698 -0.4445
  766MOL0     C 1014   3.076  11.230  10.383  0.3175  0.0386 -0.5670
  766MOL0     O 1015   2.969  11.145  10.379 -0.4598 -0.6237  0.1146
  766MOL0     C 1016   2.901  11.124  10.500  0.0056 -0.7242  0.2446
  766MOL0     C 1017   2.806  11.011  10.470  0.3125  0.6655 -0.7266
  766MOL0     C 1018   2.866  10.878  10.439 -0.0395  0.5733 -0.1508
  766MOL0     C 1019   2.925  10.813  10.563  0.4647 -0.0233 -0.4680
  766MOL0     C 1020   2.965  10.666  10.522  0.2029  0.4393  0.2476
  766MOL0     C 1021   2.995  10.586  10.647  0.3567 -0.2268 -0.2057
  766MOL0     C 1022   3.012  10.435  10.599  0.0656 -0.3627  0.5495
  766MOL0     C 1023   2.886  10.353  10.598  0.1355 -0.7497 -0.5480
  766MOL0    Cl 1024   2.913  10.182  10.550 -0.0784 -0.2888  0.2286
  766MOL0     C 1025   3.085  11.346  10.459 -0.2137 -0.2245  0.3532
  766MOL0     C 1026   3.204  11.418  10.470  0.0343 -0.0131 -0.4787
  766MOL0     O 1027   3.410  11.606  10.304  0.0704 -0.0420  0.6790
  766MOL0     C 1028   3.711  11.489  10.443  0.0018  0.9961 -0.2926
  766MOL0     C 1029   3.845  11.526  10.463  0.5512  0.3599 -0.4944
  766MOL0     N 1030   4.679  11.450  10.437 -0.4411  0.5696 -0.4624
  766MOL0     N 1031   4.770  11.391  10.366  0.6899  0.0348 -0.0035
  766MOL0     C 1032   4.759  10.912  10.077 -0.0269 -0.8031 -0.2945
  766MOL0     C 1033   4.631  10.905  10.120  0.7296  1.2887  0.1938
  766MOL0     C 1034   4.297  10.757  10.370 -0.8102  0.2094  0.0861
  766MOL0     C 1035   4.234  10.861  10.438 -0.7048  0.0792  0.2247
  766MOL0     C 1036   4.114  10.843  10.495 -0.2591 -0.3526  0.1992
  766MOL0     C 1037   4.064  10.711  10.509  0.0383  0.2466 -0.0029
  766MOL0     O 1038   3.958  10.685  10.590  0.4549 -0.2285 -0.3053
  766MOL0     C 1039   3.899  10.775  10.682  0.5971 -0.0057  0.4618
  766MOL0     C 1040   3.779  10.717  10.756  0.0048  0.4942  0.3519
  766MOL0     C 1041   3.662  10.686  10.665 -0.1981  0.8807 -0.8733
  766MOL0     C 1042   3.550  10.627  10.748  0.2590 -0.0665  0.1859
  766MOL0     C 1043   3.449  10.558  10.660 -0.6083  0.7680 -0.3356
  766MOL0     C 1044   3.371  10.500  10.586 -0.1027  0.5655 -0.1780
  766MOL0     C 1045   4.127  10.604  10.438  0.9687  0.1298 -0.9096
  766MOL0     C 1046   4.241  10.634  10.365  0.3074  1.1866  0.0866
  766MOL0     H 1047   4.657  11.041  10.424 -0.1305 -1.1704  0.7766
  766MOL0     H 1048   4.891  11.054  10.361 -2.7554  2.4996  0.4741
  766MOL0     H 1049   4.967  10.896   9.930 -2.7308 -0.9404  2.9683
  766MOL0     H 1050   5.067  10.805  10.047 -1.8127 -0.4953  0.0799
  766MOL0     H 1051   5.214  10.905   9.876  2.0613 -0.4035  0.0957
  766MOL0     H 1052   5.256  10.957  10.039 -0.2128  1.1873  0.0088
  766MOL0     H 1053   5.110  11.104   9.817 -1.0133 -0.4680  1.1564
  766MOL0     H 1054   5.264  11.144   9.858  1.2683  0.4661  0.7066
  766MOL0     H 1055   5.025  11.183  10.046 -0.8147  0.8730 -0.1472
  766MOL0     H 1056   5.203  11.229  10.076  0.2190  4.3352 -1.6585
  766MOL0     H 1057   5.015  11.342   9.878 -1.0001 -0.0164 -0.1923
  766MOL0     H 1058   5.202  11.360   9.887 -2.3718  3.0047 -2.6019
  766MOL0     H 1059   5.045  11.544   9.994 -2.2448 -2.2116 -1.0012
  766MOL0     H 1060   5.185  11.491  10.094  0.0606 -1.6889  0.7926
  766MOL0     H 1061   5.049  11.347  10.221  1.1907  0.2942 -0.4308
  766MOL0     H 1062   4.998  11.511  10.233 -1.4269  0.4137  0.5312
  766MOL0     H 1063   4.831  11.295  10.101  1.0657 -0.4844  2.2333
  766MOL0     H 1064   4.828  11.466  10.045  1.5387  0.6089 -0.4256
  766MOL0     H 1065   4.627  11.597  10.144 -0.1204  0.8503  0.3534
  766MOL0     H 1066   4.495  11.728  10.343 -0.9087 -1.0351 -0.9913
  766MOL0     H 1067   4.539  11.668  10.507 -0.9773  4.0425 -0.3798
  766MOL0     H 1068   4.371  11.512  10.501  3.8857  0.5723 -0.8552
  766MOL0     H 1069   4.372  11.490  10.322 -2.2406 -0.7973  0.1501
  766MOL0     H 1070   4.270  11.734  10.477  0.7907  1.0670 -1.0224
  766MOL0     H 1071   4.235  11.697  10.309  1.7178 -1.3227 -0.1340
  766MOL0     H 1072   4.127  11.553  10.550  0.9295  0.2959  0.2009
  766MOL0     H 1073   4.089  11.509  10.375 -0.7947  1.4196 -1.9065
  766MOL0     H 1074   3.806  11.862  10.397 -3.1103  1.5005  0.3101
  766MOL0     H 1075   3.590  11.791  10.360 -0.1809 -1.6879 -3.1745
  766MOL0     H 1076   3.400  11.225  10.278  2.2947  2.7944  1.6101
  766MOL0     H 1077   3.172  11.098  10.244  0.2411 -0.0991 -0.3075
  766MOL0     H 1078   2.836  11.210  10.521 -1.6060 -1.9692  0.5648
  766MOL0     H 1079   2.961  11.088  10.584  3.2210 -0.5740 -1.8029
  766MOL0     H 1080   2.747  11.043  10.383 -2.5422 -3.2270 -0.4773
  766MOL0     H 1081   2.734  11.010  10.553  0.5977  2.0799 -0.4268
  766MOL0     H 1082   2.932  10.880  10.352 -0.8051  0.8299 -0.7387
  766MOL0     H 1083   2.789  10.810  10.402 -0.0199 -1.1605  2.7271
  766MOL0     H 1084   3.009  10.868  10.607  0.2135 -0.2829  0.3720
  766MOL0     H 1085   2.842  10.813  10.634  1.1084  1.3182  0.3201
  766MOL0     H 1086   3.053  10.661  10.457  1.9007 -1.3884  2.4979
  766MOL0     H 1087   2.890  10.602  10.474  0.5949 -1.2632  1.8051
  766MOL0     H 1088   2.920  10.589  10.727 -0.3923 -0.9965 -0.8622
  766MOL0     H 1089   3.086  10.629  10.690 -1.1209 -0.0785  3.0448
  766MOL0     H 1090   3.067  10.440  10.505  1.2860 -0.6725  1.2240
  766MOL0     H 1091   3.083  10.387  10.667 -0.0415 -0.3984  0.6354
  766MOL0     H 1092   2.809  10.406  10.541 -0.3974 -1.4912 -0.5332
  766MOL0     H 1093   2.842  10.375  10.696 -0.9010  2.2773 -1.5795
  766MOL0     H 1094   3.005  11.381  10.523  1.3333  0.0923  2.1910
  766MOL0     H 1095   3.219  11.493  10.547 -1.0030  2.0250 -2.1598
  766MOL0     H 1096   3.679  11.386  10.445  3.4999 -0.2910 -1.4993
  766MOL0     H 1097   3.913  11.448  10.496 -0.1941  0.9806  2.8356
  766MOL0     H 1098   4.793  10.860   9.988  2.7562  0.3664 -0.0185
  766MOL0     H 1099   4.558  10.849  10.062  1.0165  0.2889  0.7767
  766MOL0     H 1100   4.275  10.961  10.447 -0.9112  0.4252 -2.1698
  766MOL0     H 1101   4.064  10.929  10.538 -1.0759  0.3518 -2.0190
  766MOL0     H 1102   3.853  10.858  10.627 -2.5588 -0.2475  2.4613
  766MOL0     H 1103   3.974  10.815  10.751  0.6360  0.9231 -0.1043
  766MOL0     H 1104   3.821  10.624  10.795  2.7281  1.3053 -0.4007
  766MOL0     H 1105   3.751  10.788  10.834 -2.0084  2.3201 -1.8620
  766MOL0     H 1106   3.691  10.618  10.585 -2.7148 -1.9827  0.4607
  766MOL0     H 1107   3.624  10.771  10.607 -1.8108  0.8855  0.1411
  766MOL0     H 1108   3.592  10.564  10.828  0.3986  1.1942  1.1326
  766MOL0     H 1109   3.492  10.710  10.790  1.7942 -0.0251  2.3871
  766MOL0     H 1110   3.303  10.464  10.511 -1.1165  2.0636 -0.0260
  766MOL0     H 1111   4.089  10.504  10.460 -1.7206  1.5407  1.5797
  766MOL0     H 1112   4.280  10.547  10.312 -0.3403 -0.8043  2.6795
  767MOL0     O 1113   5.454   7.028   0.322 -0.4788  0.0352 -0.0782
  767MOL0     C 1114   5.509   7.062   0.426 -0.5108 -0.1886 -0.5893
  767MOL0     O 1115   5.445   7.111   0.535 -1.1110  0.3001 -0.1602
  767MOL0     C 1116   5.320   7.153   0.521  0.1932 -0.3311 -0.0888
  767MOL0     C 1117   5.295   7.292   0.486 -0.3806  0.7930 -0.5831
  767MOL0     C 1118   5.172   7.345   0.477  0.6160 -0.5191  0.0137
  767MOL0     C 1119   5.056   7.266   0.504  0.2565  0.1128  0.5062
  767MOL0     O 1120   4.928   7.314   0.475  0.0317 -0.6995  0.1879
  767MOL0     C 1121   4.854   7.227   0.389 -0.0566  0.1894  0.6945
  767MOL0     C 1122   4.726   7.308   0.359  0.7727  0.6245 -0.8701
  767MOL0     C 1123   4.748   7.435   0.267 -0.0841 -0.5247 -0.9856
  767MOL0     C 1124   4.634   7.542   0.279 -0.1202 -0.4527  0.4056
  767MOL0     C 1125   4.491   7.491   0.244  0.3007 -0.1556  0.0170
  767MOL0     C 1126   4.389   7.594   0.198 -0.7074 -0.9447  0.4966
  767MOL0     C 1127   4.241   7.534   0.225 -0.5381 -0.7270  0.3622
  767MOL0     C 1128   4.138   7.633   0.176 -0.1745  0.0030 -0.5864
  767MOL0     N 1129   4.006   7.572   0.162  0.0913  0.1777 -0.2735
  767MOL0     C 1130   3.910   7.535   0.254 -0.2932  0.0632 -0.0713
  767MOL0     C 1131   3.799   7.489   0.188 -0.0832  0.4119  0.7558
  767MOL0     C 1132   3.661   7.461   0.248  0.2972 -0.5778 -0.2886
  767MOL0     C 1133   3.571   7.382   0.163  0.3272 -0.2057  1.0474
  767MOL0     C 1134   3.431   7.364   0.237 -0.4154 -0.3734  0.9745
  767MOL0     C 1135   3.328   7.282   0.161 -0.5659  0.5578 -0.7561
  767MOL0     O 1136   3.221   7.274   0.247 -0.2971 -0.0101 -0.5139
  767MOL0     C 1137   3.114   7.196   0.204  0.0881 -0.4060 -0.0017
  767MOL0     C 1138   3.106   7.137   0.082 -0.5608  0.3533 -0.1737
  767MOL0     C 1139   2.994   7.071   0.041  0.6212  0.2570  0.4301
  767MOL0     C 1140   2.887   7.053   0.128 -0.2129 -0.3418 -0.7129
  767MOL0     C 1141   2.763   6.969   0.097 -0.1453  0.0747 -0.0015
  767MOL0     O 1142   2.767   6.892  -0.012 -0.1943  0.2374 -0.4356
  767MOL0     C 1143   2.674   6.795  -0.031  0.2294 -0.4103 -0.3336
  767MOL0     C 1144   2.631   6.713   0.073 -0.0902  0.2433 -0.1677
  767MOL0     C 1145   2.538   6.610   0.042 -0.5807  0.9694 -0.0667
  767MOL0     C 1146   2.498   6.583  -0.086 -0.8523  0.5013 -0.9863
  767MOL0     O 1147   2.404   6.483  -0.107  0.1310 -0.2064 -0.2937
  767MOL0     C 1148   2.367   6.473  -0.245  0.4439  0.2010  0.7243
  767MOL0     C 1149   2.305   6.336  -0.270  0.7150  0.1890  0.1909
  767MOL0     C 1150   2.168   6.324  -0.214 -0.4478  0.0617 -1.0437
  767MOL0     C 1151   2.103   6.194  -0.269 -0.0781 -0.7519 -0.4715
  767MOL0     C 1152   1.965   6.147  -0.204  0.3128 -0.5100 -0.0376
  767MOL0     C 1153   1.902   6.044  -0.306  0.0230  0.9150 -0.1491
  767MOL0     C 1154   1.754   6.004  -0.263  0.0975 -0.0347 -0.7137
  767MOL0     C 1155   1.721   5.886  -0.343 -0.3503 -0.3410 -0.0128
  767MOL0    Cl 1156   1.747   5.740  -0.256 -0.5554  0.2471  0.5963
  767MOL0     C 1157   2.543   6.671  -0.185 -0.0667 -0.6467 -0.7301
  767MOL0     C 1158   2.612   6.786  -0.156  0.3358 -0.6887  0.2141
  767MOL0     O 1159   2.660   6.989   0.167 -0.6377 -0.1429  0.0659
  767MOL0     C 1160   2.897   7.106   0.254  0.9085 -0.9452 -0.0616
  767MOL0     C 1161   3.009   7.177   0.290  0.6620 -0.2127 -0.8919
  767MOL0     N 1162   3.820   7.517   0.056 -0.0176 -0.2947  0.3562
  767MOL0     N 1163   3.936   7.574   0.040 -0.2849  0.1781  1.2581
  767MOL0     C 1164   5.081   7.134   0.538 -0.3212 -0.0674  0.2729
  767MOL0     C 1165   5.211   7.075   0.544  0.2111  0.0275 -0.5692
  767MOL0     C 1166   5.651   7.047   0.426  0.1191 -0.2318  0.3200
  767MOL0     C 1167   5.724   6.995   0.324 -0.3972 -0.5774 -0.0254
  767MOL0     C 1168   5.863   6.966   0.332  0.4954  0.3015 -0.1986
  767MOL0     C 1169   5.926   6.993   0.454 -1.1276  0.0635 -0.0039
  767MOL0     O 1170   6.060   6.973   0.479  0.4831 -0.1172 -0.3667
  767MOL0     C 1171   6.134   6.878   0.397 -0.4885 -0.2573  0.6424
  767MOL0     C 1172   6.266   6.827   0.464  0.8089  1.0158 -0.1839
  767MOL0     C 1173   6.244   6.755   0.595 -0.4472  0.1243 -0.0978
  767MOL0     C 1174   6.374   6.682   0.627 -0.8424  0.4082  0.6980
  767MOL0     C 1175   6.487   6.775   0.629 -0.5099  0.1910  0.6338
  767MOL0     C 1176   6.577   6.851   0.627  0.1603 -0.8616  0.5479
  767MOL0     C 1177   5.856   7.049   0.564 -1.1203  0.2260  0.2847
  767MOL0     C 1178   5.724   7.083   0.539 -0.4414 -1.1176 -0.0011
  767MOL0     H 1179   5.368   7.363   0.448  0.0617  1.0688  0.7519
  767MOL0     H 1180   5.157   7.450   0.454  0.9679 -0.6162 -0.6643
  767MOL0     H 1181   4.825   7.133   0.438  0.7851 -0.2555  0.3561
  767MOL0     H 1182   4.909   7.203   0.298  1.4482 -0.1615  1.6703
  767MOL0     H 1183   4.682   7.326   0.458  1.7434 -2.7514  0.3194
  767MOL0     H 1184   4.662   7.235   0.309  0.8895  0.2678 -0.5050
  767MOL0     H 1185   4.739   7.402   0.163 -0.9438 -0.0520 -1.0730
  767MOL0     H 1186   4.847   7.476   0.292 -0.3289 -1.0797  1.0524
  767MOL0     H 1187   4.631   7.583   0.380 -0.5953  0.3780  0.0707
  767MOL0     H 1188   4.656   7.620   0.205  0.2596  2.4864  3.3700
  767MOL0     H 1189   4.442   7.423   0.315 -1.6724  1.2094  0.0345
  767MOL0     H 1190   4.488   7.426   0.156  1.4851 -0.0644 -0.1087
  767MOL0     H 1191   4.397   7.616   0.091 -3.0640 -2.7046 -0.1375
  767MOL0     H 1192   4.408   7.681   0.262  1.8497 -0.9217 -0.1861
  767MOL0     H 1193   4.220   7.438   0.178 -2.5716  1.3109 -3.3794
  767MOL0     H 1194   4.225   7.536   0.334  0.4898  1.6558  0.5401
  767MOL0     H 1195   4.174   7.674   0.081  0.3578  1.5369  0.2365
  767MOL0     H 1196   4.132   7.716   0.248  1.4797  0.5960 -1.0777
  767MOL0     H 1197   3.937   7.527   0.359  1.9976  1.2502 -0.5062
  767MOL0     H 1198   3.606   7.549   0.282  0.3532 -1.5394  2.5702
  767MOL0     H 1199   3.680   7.406   0.340 -0.0181 -1.3303 -0.6621
  767MOL0     H 1200   3.623   7.287   0.154  0.1440 -0.3374  1.3782
  767MOL0     H 1201   3.566   7.438   0.069  2.6281  2.1945  2.2341
  767MOL0     H 1202   3.451   7.308   0.329  1.3313 -1.5232 -0.0523
  767MOL0     H 1203   3.393   7.464   0.260 -1.7090  0.1031 -2.6254
  767MOL0     H 1204   3.369   7.182   0.141 -0.8333  0.0489  1.0616
  767MOL0     H 1205   3.301   7.326   0.065 -0.2739  0.7832 -0.7369
  767MOL0     H 1206   3.183   7.147   0.007 -0.5560 -0.2352 -0.2518
  767MOL0     H 1207   2.992   7.036  -0.062 -0.9874  3.2924 -0.6875
  767MOL0     H 1208   2.664   6.735   0.174  1.9982  1.3430 -1.0439
  767MOL0     H 1209   2.489   6.550   0.118 -1.7440 -1.7724 -2.8096
  767MOL0     H 1210   2.454   6.474  -0.311  2.3852  1.4343  3.1095
  767MOL0     H 1211   2.295   6.549  -0.276 -2.4234 -1.6506  2.4869
  767MOL0     H 1212   2.371   6.252  -0.248 -1.9985 -2.6671 -1.6270
  767MOL0     H 1213   2.294   6.331  -0.379 -0.5848  0.4422  0.2934
  767MOL0     H 1214   2.104   6.411  -0.234  0.7417  1.6236  1.4317
  767MOL0     H 1215   2.183   6.319  -0.106  1.0564 -0.4944 -1.2565
  767MOL0     H 1216   2.103   6.211  -0.377  2.7304  0.4207 -0.3844
  767MOL0     H 1217   2.182   6.120  -0.256  1.5286  1.1024  1.1129
  767MOL0     H 1218   1.893   6.229  -0.196 -1.0969 -1.7427  0.3763
  767MOL0     H 1219   1.985   6.107  -0.104  2.4934 -1.3885 -0.7666
  767MOL0     H 1220   1.962   5.953  -0.298  0.7200  1.4701  1.3973
  767MOL0     H 1221   1.902   6.092  -0.403  1.3220  1.5258  0.1337
  767MOL0     H 1222   1.738   6.006  -0.155 -2.7833 -0.8361 -1.0612
  767MOL0     H 1223   1.687   6.085  -0.292  1.0017  1.4596  1.1453
  767MOL0     H 1224   1.786   5.881  -0.431  1.7072 -1.9364  1.4844
  767MOL0     H 1225   1.617   5.908  -0.370 -0.0859 -0.7885 -1.4903
  767MOL0     H 1226   2.510   6.665  -0.288 -1.3992  1.7255 -0.5064
  767MOL0     H 1227   2.630   6.861  -0.233 -2.7650 -0.4580 -0.4211
  767MOL0     H 1228   2.824   7.082   0.330 -0.0226 -1.1336 -0.9891
  767MOL0     H 1229   3.026   7.205   0.394 -0.4092  0.4270 -0.8777
  767MOL0     H 1230   4.996   7.067   0.549  0.8953 -1.2704  3.3962
  767MOL0     H 1231   5.222   6.969   0.568 -2.3077 -0.1437  0.1615
  767MOL0     H 1232   5.681   6.965   0.228  1.9944 -1.6883 -0.8477
  767MOL0     H 1233   5.918   6.935   0.244 -0.5451  1.9714 -1.4834
  767MOL0     H 1234   6.172   6.937   0.313  1.5705  1.1225  2.4059
  767MOL0     H 1235   6.077   6.792   0.360 -0.4853  1.4934 -4.0095
  767MOL0     H 1236   6.309   6.758   0.391 -0.8727 -1.3403  0.9164
  767MOL0     H 1237   6.334   6.911   0.483  1.6833  0.1844  0.4297
  767MOL0     H 1238   6.160   6.686   0.575  1.1146 -1.4275 -1.7059
  767MOL0     H 1239   6.216   6.824   0.675 -2.9876 -2.0835  1.0862
  767MOL0     H 1240   6.374   6.634   0.726  1.0611  1.6545  1.3567
  767MOL0     H 1241   6.405   6.609   0.552  0.0083  0.8031  0.6526
  767MOL0     H 1242   6.657   6.922   0.627 -0.2671 -0.3286 -1.2224
  767MOL0     H 1243   5.911   7.072   0.655  1.3014 -0.5129 -0.9018
  767MOL0     H 1244   5.672   7.146   0.610 -2.4596  1.8236 -3.7017
  768MOL0     O 1245   4.627   0.553   4.455  0.3234  0.1917  0.5478
  768MOL0     C 1246   4.672   0.575   4.568 -0.3269  0.5531  0.4933
  768MOL0     O 1247   4.625   0.672   4.654  0.2646  0.3242  0.1282
  768MOL0     C 1248   4.510   0.742   4.618 -0.1728  0.4593  0.8030
  768MOL0     C 1249   4.401   0.684   4.555  0.5808  0.3374 -0.4033
  768MOL0     C 1250   4.282   0.755   4.534 -0.4401  0.2883 -0.0437
  768MOL0     C 1251   4.278   0.892   4.568 -0.0903 -0.0137 -0.0477
  768MOL0     O 1252   4.159   0.959   4.567  0.1202 -0.2080 -0.2638
  768MOL0     C 1253   4.030   0.890   4.552 -0.4039 -0.2897 -0.2809
  768MOL0     C 1254   3.989   0.889   4.405  0.0792  0.3313  0.2512
  768MOL0     C 1255   3.852   0.828   4.396  0.3120 -0.8109  0.9192
  768MOL0     C 1256   3.789   0.847   4.258  0.9140 -0.5404 -0.1472
  768MOL0     C 1257   3.633   0.830   4.256 -0.8327  0.6191  0.0806
  768MOL0     C 1258   3.592   0.699   4.323  0.4314  0.9208  0.5878
  768MOL0     C 1259   3.456   0.657   4.297  0.1520 -0.3311 -0.2498
  768MOL0     C 1260   3.432   0.531   4.373 -0.5294  1.1062 -0.1158
  768MOL0     N 1261   3.290   0.485   4.375 -0.1601 -0.9502  0.3355
  768MOL0     C 1262   3.246   0.385   4.298  0.4704  0.6639  0.5141
  768MOL0     C 1263   3.115   0.384   4.323  0.4341  0.4142  0.1210
  768MOL0     C 1264   3.004   0.290   4.277  0.5956  0.7980 -0.3890
  768MOL0     C 1265   2.993   0.174   4.383 -0.1148  0.3332  0.3193
  768MOL0     C 1266   2.862   0.108   4.363  0.5171  0.7713  0.1373
  768MOL0     C 1267   2.752   0.165   4.457 -1.0024 -0.0005 -0.3242
  768MOL0     O 1268   2.628   0.162   4.392  0.3365 -0.2423 -0.0228
  768MOL0     C 1269   2.513   0.201   4.447 -0.5627 -0.3223 -0.6891
  768MOL0     C 1270   2.494   0.233   4.583  0.4460  0.3958 -0.3408
  768MOL0     C 1271   2.367   0.286   4.617  0.5634  0.3103 -0.1509
  768MOL0     C 1272   2.261   0.288   4.517  0.4642 -0.0722  0.1847
  768MOL0     C 1273   2.129   0.345   4.549 -0.2350 -0.2974 -0.6578
  768MOL0     O 1274   2.118   0.383   4.676 -0.1017 -0.4200 -0.1561
  768MOL0     C 1275   2.013   0.463   4.714 -0.1056  0.4560  0.2512
  768MOL0     C 1276   1.943   0.424   4.831 -0.3556  0.4236  0.2215
  768MOL0     C 1277   1.844   0.502   4.881 -0.5773  0.1794 -0.4084
  768MOL0     C 1278   1.813   0.625   4.829  0.0147 -1.2409  0.6709
  768MOL0     O 1279   1.710   0.694   4.891 -0.0515  0.4145  0.1587
  768MOL0     C 1280   1.684   0.832   4.848 -0.9394  0.4045  0.0205
  768MOL0     C 1281   1.611   0.906   4.958 -0.1050  0.1020 -0.2609
  768MOL0     C 1282   1.482   0.853   4.998 -0.4446  0.1549 -0.0776
  768MOL0     C 1283   1.408   0.932   5.100  0.3025 -0.5323  0.4990
  768MOL0     C 1284   1.290   0.861   5.151  0.0135 -0.2286  0.8580
  768MOL0     C 1285   1.207   0.960   5.225 -0.0970 -0.6891  0.1497
  768MOL0     C 1286   1.078   0.896   5.284  0.2168  1.2651  0.0357
  768MOL0     C 1287   1.003   1.011   5.372  0.2875 -0.8354  0.5297
  768MOL0    Cl 1288   0.839   0.952   5.392 -0.1130  0.0977 -0.0081
  768MOL0     C 1289   1.884   0.665   4.716  0.4254 -0.2794 -0.2002
  768MOL0     C 1290   1.992   0.590   4.666  0.7391 -0.2711  0.4273
  768MOL0     O 1291   2.044   0.362   4.458 -0.0908  0.2918  0.2874
  768MOL0     C 1292   2.289   0.251   4.387  0.1657 -0.1992  0.3691
  768MOL0     C 1293   2.413   0.206   4.349  0.5943  0.3618 -0.5664
  768MOL0     N 1294   3.088   0.481   4.421  0.5251  0.0322  0.2506
  768MOL0     N 1295   3.199   0.550   4.446  0.3398 -0.3055  0.4621
  768MOL0     C 1296   4.396   0.954   4.619  1.3684  0.2118  0.3675
  768MOL0     C 1297   4.511   0.880   4.648  0.0967 -0.2890 -0.3658
  768MOL0     C 1298   4.783   0.485   4.617  0.1996  0.1885 -0.3780
  768MOL0     C 1299   4.865   0.523   4.729  0.0680  0.0328  0.0343
  768MOL0     C 1300   4.950   0.430   4.788 -0.2710 -0.8841  1.0518
  768MOL0     C 1301   4.963   0.308   4.733 -0.2607  0.1069 -0.0712
  768MOL0     O 1302   5.024   0.200   4.796 -0.1557  0.0477 -0.8666
  768MOL0     C 1303   5.158   0.167   4.750  0.5980  0.3384 -0.0936
  768MOL0     C 1304   5.256   0.167   4.868  0.1310 -0.0589  0.9697
  768MOL0     C 1305   5.293   0.311   4.908 -0.1003  0.2573 -0.4197
  768MOL0     C 1306   5.423   0.321   4.994  0.2887  0.0857  0.2171
  768MOL0     C 1307   5.536   0.339   4.914  1.0507 -0.3966  0.4209
  768MOL0     C 1308   5.635   0.370   4.850 -0.2651  0.2119 -0.9897
  768MOL0     C 1309   4.897   0.277   4.612  0.7685  0.1980  0.0456
  768MOL0     C 1310   4.804   0.362   4.556  0.3644  0.1100  0.1622
  768MOL0     H 1311   4.403   0.577   4.534 -0.6085  0.4090 -0.9747
  768MOL0     H 1312   4.196   0.699   4.500 -2.2158  2.5869  0.4409
  768MOL0     H 1313   3.949   0.938   4.607  0.5838 -0.3710  1.2943
  768MOL0     H 1314   4.029   0.788   4.592 -1.3871  0.7626  2.6171
  768MOL0     H 1315   4.070   0.847   4.345 -0.1536 -0.5587  0.5505
  768MOL0     H 1316   3.990   0.995   4.379 -0.6955  0.2074 -0.2962
  768MOL0     H 1317   3.784   0.867   4.472 -0.7677 -0.3520 -0.2492
  768MOL0     H 1318   3.859   0.719   4.408  0.1297 -0.8178  0.9738
  768MOL0     H 1319   3.824   0.943   4.220  0.8726 -0.9969 -1.3821
  768MOL0     H 1320   3.838   0.767   4.202  0.0114  0.7933 -3.0348
  768MOL0     H 1321   3.601   0.837   4.151  2.8775  0.8229 -1.2012
  768MOL0     H 1322   3.600   0.918   4.310  0.5771  1.3828 -0.2591
  768MOL0     H 1323   3.590   0.714   4.431  1.2982 -2.6323  1.2167
  768MOL0     H 1324   3.664   0.621   4.299  1.7186  1.8913  1.1633
  768MOL0     H 1325   3.381   0.726   4.336 -0.2652 -1.8787  1.9006
  768MOL0     H 1326   3.440   0.629   4.193  1.2440 -0.4517 -0.3949
  768MOL0     H 1327   3.488   0.536   4.467 -0.8901  0.6088  0.1283
  768MOL0     H 1328   3.482   0.445   4.328  0.2281  1.5062 -0.0632
  768MOL0     H 1329   3.313   0.327   4.236  0.0971 -0.1883  0.8945
  768MOL0     H 1330   3.029   0.249   4.179 -0.1644 -0.4552 -0.0808
  768MOL0     H 1331   2.912   0.347   4.265  0.2956  0.3057 -0.4394
  768MOL0     H 1332   3.009   0.199   4.488  3.0596  2.0581 -0.4566
  768MOL0     H 1333   3.071   0.100   4.365  0.0799 -0.4060  3.5936
  768MOL0     H 1334   2.837   0.137   4.260 -0.1692 -1.4634 -0.3744
  768MOL0     H 1335   2.877   0.001   4.379 -0.4882  0.3779 -1.3062
  768MOL0     H 1336   2.781   0.267   4.486 -2.7720  0.3757  0.2541
  768MOL0     H 1337   2.731   0.111   4.549 -0.4745 -1.4451 -1.0176
  768MOL0     H 1338   2.568   0.208   4.658  0.5200  0.6710 -0.3174
  768MOL0     H 1339   2.349   0.304   4.722  1.7621 -2.7656  0.6940
  768MOL0     H 1340   1.971   0.329   4.877  1.1119  0.7242 -0.0157
  768MOL0     H 1341   1.792   0.461   4.967  2.0795  0.7858  1.6163
  768MOL0     H 1342   1.624   0.814   4.759  0.1604 -1.8888 -0.3289
  768MOL0     H 1343   1.773   0.886   4.812 -1.7711 -1.1434 -5.0943
  768MOL0     H 1344   1.603   1.012   4.930  2.4340  0.3524 -0.3128
  768MOL0     H 1345   1.673   0.911   5.049 -0.2309 -0.4432 -0.1406
  768MOL0     H 1346   1.493   0.749   5.030 -1.7062 -0.0766 -0.3261
  768MOL0     H 1347   1.417   0.854   4.910 -0.4404 -0.1959 -0.0855
  768MOL0     H 1348   1.465   0.934   5.193 -0.6568 -2.0056  1.1632
  768MOL0     H 1349   1.373   1.031   5.070 -1.7337 -0.3803  2.9891
  768MOL0     H 1350   1.308   0.776   5.218 -2.1783 -0.9927  0.5650
  768MOL0     H 1351   1.243   0.821   5.060 -1.4683  1.3360  0.9011
  768MOL0     H 1352   1.185   1.035   5.148  2.0605 -1.8123 -1.6690
  768MOL0     H 1353   1.265   1.002   5.309 -0.6000 -3.6364  2.1157
  768MOL0     H 1354   1.015   0.858   5.203  1.1585  1.8832 -1.0190
  768MOL0     H 1355   1.097   0.817   5.357 -2.0841  2.2542  1.8113
  768MOL0     H 1356   1.000   1.107   5.319  1.1313  0.1823  2.2532
  768MOL0     H 1357   1.052   1.038   5.466  0.5986 -1.4733  0.5536
  768MOL0     H 1358   1.864   0.761   4.670 -0.5224  0.0632  0.8901
  768MOL0     H 1359   2.047   0.622   4.578  1.8663  0.1210  1.2412
  768MOL0     H 1360   2.218   0.249   4.304 -3.4380 -0.5171  3.2215
  768MOL0     H 1361   2.430   0.178   4.245 -0.8544 -2.3303 -0.1549
  768MOL0     H 1362   4.397   1.059   4.648 -0.1743  0.2427  0.3818
  768MOL0     H 1363   4.597   0.932   4.689 -0.8959  2.2725 -1.3019
  768MOL0     H 1364   4.845   0.623   4.768 -0.8243  0.0570 -0.4677
  768MOL0     H 1365   5.013   0.459   4.871 -0.5250  1.3463  0.5294
  768MOL0     H 1366   5.182   0.236   4.668 -1.5700 -0.0595 -1.1361
  768MOL0     H 1367   5.151   0.063   4.716  1.7907  0.0253  0.5580
  768MOL0     H 1368   5.218   0.105   4.950 -0.0480  0.0383  0.9598
  768MOL0     H 1369   5.345   0.123   4.819 -0.3926  2.6818 -2.9256
  768MOL0     H 1370   5.211   0.364   4.957 -1.6966  0.7624 -3.3999
  768MOL0     H 1371   5.307   0.367   4.815 -0.2167  1.5897  0.3372
  768MOL0     H 1372   5.412   0.406   5.062  1.7928 -0.0292  0.6348
  768MOL0     H 1373   5.439   0.230   5.053  2.3601  0.3113  0.0861
  768MOL0     H 1374   5.722   0.394   4.791  1.4842  1.2282  1.8157
  768MOL0     H 1375   4.895   0.173   4.579 -2.6173 -0.4133  1.7378
  768MOL0     H 1376   4.740   0.320   4.479  0.4281  0.3144 -0.0057
  769MOL0     O 1377   6.701   8.891   8.486 -0.7443  0.0791  1.1260
  769MOL0     C 1378   6.731   8.828   8.378  0.1304  0.3084 -0.2186
  769MOL0     O 1379   6.655   8.769   8.283  0.4798 -0.7105  0.1438
  769MOL0     C 1380   6.523   8.747   8.297  1.0429 -0.2340  1.2657
  769MOL0     C 1381   6.466   8.719   8.416  0.1461  0.8094 -0.5020
  769MOL0     C 1382   6.329   8.697   8.433  0.7588  0.2125  0.9474
  769MOL0     C 1383   6.242   8.715   8.322  0.6040 -0.3362  0.5135
  769MOL0     O 1384   6.108   8.714   8.339 -0.0253 -0.0243 -0.0425
  769MOL0     C 1385   6.048   8.844   8.354 -0.0006 -0.4447 -0.2725
  769MOL0     C 1386   5.893   8.821   8.342  0.6164 -0.8659 -0.0281
  769MOL0     C 1387   5.858   8.767   8.204 -0.4706  0.0283 -0.8746
  769MOL0     C 1388   5.699   8.762   8.208  0.3482  0.3033 -1.0574
  769MOL0     C 1389   5.621   8.887   8.250 -0.2230 -0.4061  0.2318
  769MOL0     C 1390   5.469   8.883   8.229  0.3619 -0.7792  0.2123
  769MOL0     C 1391   5.390   9.015   8.251  0.4222 -0.0855  0.0443
  769MOL0     C 1392   5.239   8.991   8.231 -0.5578  0.1110 -0.1766
  769MOL0     N 1393   5.159   9.112   8.253  0.0020  0.3451 -0.2210
  769MOL0     C 1394   5.137   9.154   8.379  0.2616 -0.8288 -0.1339
  769MOL0     C 1395   5.054   9.258   8.361 -0.0174 -0.2010  0.2898
  769MOL0     C 1396   4.989   9.328   8.474  1.2595 -0.3285 -0.5693
  769MOL0     C 1397   4.833   9.297   8.465  0.7640  0.4054 -0.1056
  769MOL0     C 1398   4.800   9.149   8.501 -0.5398 -0.7171 -0.2120
  769MOL0     C 1399   4.649   9.133   8.534 -0.3723  0.3924  0.8597
  769MOL0     O 1400   4.577   9.170   8.417  0.2756  0.0540 -0.3931
  769MOL0     C 1401   4.439   9.171   8.422  1.0268  0.7634 -0.5490
  769MOL0     C 1402   4.384   9.232   8.308 -1.0599 -0.5796  0.2092
  769MOL0     C 1403   4.249   9.227   8.283 -0.4147 -0.2116 -0.1967
  769MOL0     C 1404   4.162   9.158   8.365  0.0312  0.8456 -0.5293
  769MOL0     C 1405   4.023   9.164   8.323  0.2952  0.0616 -0.8064
  769MOL0     O 1406   3.976   9.258   8.240 -0.6405 -0.3285 -0.0453
  769MOL0     C 1407   3.837   9.291   8.229  0.0708  0.2469  0.3115
  769MOL0     C 1408   3.817   9.416   8.173 -0.1733  0.1556  0.3086
  769MOL0     C 1409   3.689   9.474   8.156 -0.5628  0.9400  0.2562
  769MOL0     C 1410   3.573   9.396   8.186  0.4688 -0.0384  0.8339
  769MOL0     O 1411   3.455   9.456   8.171  0.4509  0.3128 -0.1029
  769MOL0     C 1412   3.352   9.378   8.108 -0.5670 -0.8188  0.3421
  769MOL0     C 1413   3.260   9.484   8.061  0.2725  0.3710 -0.0916
  769MOL0     C 1414   3.312   9.575   7.949  0.8132 -0.4601 -0.7964
  769MOL0     C 1415   3.178   9.648   7.912 -0.1132 -0.1777  0.4744
  769MOL0     C 1416   3.191   9.737   7.790  0.1887  0.5019  0.2446
  769MOL0     C 1417   3.059   9.816   7.757 -0.3234 -0.0579  0.0618
  769MOL0     C 1418   2.953   9.726   7.687 -0.3588  0.6851 -0.6605
  769MOL0     C 1419   2.814   9.791   7.660 -0.1732  0.8527  0.2779
  769MOL0    Cl 1420   2.730   9.689   7.538  0.0212 -0.1812 -0.3867
  769MOL0     C 1421   3.592   9.267   8.244 -0.4768 -0.9393 -0.7257
  769MOL0     C 1422   3.722   9.218   8.266  0.5662 -0.5868  0.3683
  769MOL0     O 1423   3.952   9.091   8.384 -0.1457 -0.6396 -0.7204
  769MOL0     C 1424   4.216   9.107   8.486  0.4339  0.1898 -0.1204
  769MOL0     C 1425   4.352   9.103   8.513 -0.6167 -0.2624 -0.0976
  769MOL0     N 1426   5.038   9.282   8.216  0.5502 -0.5183 -1.3542
  769MOL0     N 1427   5.100   9.195   8.152 -0.5140  0.1101 -0.3798
  769MOL0     C 1428   6.304   8.755   8.197  0.2640 -0.4006 -0.4153
  769MOL0     C 1429   6.443   8.772   8.185  0.4487  0.5665 -0.1293
  769MOL0     C 1430   6.884   8.829   8.354  0.3926 -0.0409 -0.7743
  769MOL0     C 1431   6.973   8.861   8.459  0.6892  0.3873 -0.1674
  769MOL0     C 1432   7.108   8.852   8.446 -0.3119 -0.6833 -0.6416
  769MOL0     C 1433   7.169   8.815   8.324  0.0178 -0.1515 -0.0046
  769MOL0     O 1434   7.303   8.830   8.293  0.1378 -0.1189  1.0898
  769MOL0     C 1435   7.366   8.705   8.293  0.0363  0.8925 -0.3640
  769MOL0     C 1436   7.469   8.729   8.409  0.5843 -0.1722  0.6064
  769MOL0     C 1437   7.552   8.603   8.441  0.5576  0.0644 -0.8171
  769MOL0     C 1438   7.650   8.620   8.555 -1.0942  1.0229  0.2008
  769MOL0     C 1439   7.763   8.711   8.518 -0.8593  0.1639  0.7655
  769MOL0     C 1440   7.845   8.790   8.478 -0.2393 -0.0386  0.0295
  769MOL0     C 1441   7.081   8.770   8.220  0.0373 -0.0596 -0.4595
  769MOL0     C 1442   6.937   8.778   8.232  0.6403  0.2347  0.7217
  769MOL0     H 1443   6.537   8.692   8.494 -0.8684 -1.3675 -0.2783
  769MOL0     H 1444   6.290   8.669   8.530  3.3596  0.9177  2.2787
  769MOL0     H 1445   6.088   8.912   8.278  3.4389 -1.9015  0.0486
  769MOL0     H 1446   6.078   8.892   8.448  2.7246 -0.6323 -0.9702
  769MOL0     H 1447   5.846   8.918   8.360  1.7103 -0.0685 -1.2573
  769MOL0     H 1448   5.863   8.742   8.412  1.3480 -2.8727 -1.8501
  769MOL0     H 1449   5.899   8.667   8.187  2.5222  1.4721 -3.1337
  769MOL0     H 1450   5.891   8.831   8.121  0.5962 -0.6167 -0.9652
  769MOL0     H 1451   5.675   8.736   8.104  0.4157  2.0537 -1.5454
  769MOL0     H 1452   5.657   8.688   8.276 -0.6626  1.5938 -0.2291
  769MOL0     H 1453   5.661   8.977   8.202  1.6233 -0.7172  1.0948
  769MOL0     H 1454   5.638   8.911   8.355  1.0707 -1.1594  0.2046
  769MOL0     H 1455   5.432   8.798   8.287  2.1203 -1.6849  0.0625
  769MOL0     H 1456   5.456   8.857   8.124  0.8888 -1.4895  0.3210
  769MOL0     H 1457   5.411   9.058   8.350 -0.7186  0.6423 -0.0110
  769MOL0     H 1458   5.426   9.075   8.167 -2.4760 -0.6495 -1.7451
  769MOL0     H 1459   5.205   8.913   8.299  2.0132 -0.7665  0.1965
  769MOL0     H 1460   5.221   8.958   8.128 -0.3861 -2.7193  0.6249
  769MOL0     H 1461   5.169   9.102   8.468 -0.1829 -1.4967 -0.3559
  769MOL0     H 1462   5.003   9.436   8.469  2.2669 -0.2283  2.3764
  769MOL0     H 1463   5.016   9.286   8.572 -2.2575  3.1875  2.2255
  769MOL0     H 1464   4.800   9.313   8.362 -2.5591 -2.5622  0.3028
  769MOL0     H 1465   4.782   9.367   8.532 -0.1077  1.2564 -1.5929
  769MOL0     H 1466   4.820   9.090   8.412  0.9177 -1.2963  0.4601
  769MOL0     H 1467   4.871   9.120   8.579  0.7710 -1.1445 -1.5259
  769MOL0     H 1468   4.628   9.193   8.623  0.9459  0.8371  0.8865
  769MOL0     H 1469   4.613   9.032   8.552 -1.9107  0.8933  0.7469
  769MOL0     H 1470   4.449   9.288   8.241  1.2694 -2.0897  1.0829
  769MOL0     H 1471   4.220   9.272   8.188 -1.7404 -0.5385  0.0302
  769MOL0     H 1472   3.902   9.476   8.144  0.6774 -0.0614  2.2147
  769MOL0     H 1473   3.675   9.573   8.115 -0.2531  0.1627 -1.8267
  769MOL0     H 1474   3.304   9.308   8.177  0.5666 -0.9604  1.0077
  769MOL0     H 1475   3.382   9.324   8.017 -2.3121  0.7980 -1.2789
  769MOL0     H 1476   3.227   9.535   8.151 -0.1170  0.9676 -0.5721
  769MOL0     H 1477   3.176   9.421   8.029  1.7313 -1.8269  0.1466
  769MOL0     H 1478   3.353   9.507   7.873 -1.6339 -1.0956 -1.6675
  769MOL0     H 1479   3.383   9.647   7.989 -1.2856  1.7467 -0.7985
  769MOL0     H 1480   3.099   9.582   7.875  1.2305 -1.3378 -0.4387
  769MOL0     H 1481   3.138   9.701   7.999 -0.0514  1.8197 -0.6474
  769MOL0     H 1482   3.206   9.674   7.702 -1.3305 -0.4356  0.6268
  769MOL0     H 1483   3.275   9.807   7.801  1.1505 -0.2406 -1.9024
  769MOL0     H 1484   3.078   9.898   7.688 -3.9442  1.8003  0.9793
  769MOL0     H 1485   3.009   9.854   7.847  2.5390 -3.2407  3.3793
  769MOL0     H 1486   3.005   9.704   7.594  0.7609  2.4797 -0.5064
  769MOL0     H 1487   2.940   9.634   7.744  3.3489  0.1750 -0.3581
  769MOL0     H 1488   2.819   9.893   7.619 -1.2661  1.8295  2.4446
  769MOL0     H 1489   2.750   9.796   7.748 -2.6551  1.3405 -1.4346
  769MOL0     H 1490   3.504   9.216   8.282 -0.0159 -2.3262 -1.4573
  769MOL0     H 1491   3.744   9.115   8.291  0.1924 -1.4113 -2.3071
  769MOL0     H 1492   4.150   9.069   8.565  2.4917  1.0862  2.1640
  769MOL0     H 1493   4.391   9.050   8.599  1.3984  1.6899  0.2894
  769MOL0     H 1494   6.245   8.781   8.110  0.1088 -3.5214 -1.3608
  769MOL0     H 1495   6.490   8.795   8.090  0.2998 -1.6007 -0.7704
  769MOL0     H 1496   6.934   8.894   8.555  0.4773  0.7069 -0.3617
  769MOL0     H 1497   7.171   8.877   8.531 -1.7851 -0.5891  0.4637
  769MOL0     H 1498   7.417   8.684   8.198 -0.2449 -2.1095  0.0588
  769MOL0     H 1499   7.296   8.621   8.305  0.2640  0.6274 -0.8344
  769MOL0     H 1500   7.539   8.808   8.380  0.0409  0.3227  0.6207
  769MOL0     H 1501   7.420   8.757   8.503 -2.7259  0.9355 -1.2604
  769MOL0     H 1502   7.603   8.577   8.348 -1.6395  1.8180 -2.6481
  769MOL0     H 1503   7.481   8.524   8.463  0.7640 -0.5520 -2.2603
  769MOL0     H 1504   7.608   8.661   8.648  1.3371  0.6894  1.5319
  769MOL0     H 1505   7.687   8.522   8.586 -2.5602 -0.0794 -1.3801
  769MOL0     H 1506   7.913   8.858   8.430 -0.1296  1.0858  1.6810
  769MOL0     H 1507   7.116   8.738   8.122 -0.5718 -0.1752 -0.6430
  769MOL0     H 1508   6.882   8.756   8.142  0.9090 -2.2738  1.0955
  770MOL0     O 1509   7.242   9.789   2.401  0.1962 -0.2267 -0.0521
  770MOL0     C 1510   7.256   9.813   2.520  0.1805  0.1030  0.3904
  770MOL0     O 1511   7.158   9.852   2.604  0.0834  0.6500  0.2729
  770MOL0     C 1512   7.028   9.863   2.566  0.1923 -0.0286  0.4727
  770MOL0     C 1513   6.956   9.959   2.631  0.1981 -0.2231  0.7912
  770MOL0     C 1514   6.818   9.972   2.622  0.8247 -0.1944 -0.3020
  770MOL0     C 1515   6.746   9.875   2.534  0.3060  0.6066 -0.0215
  770MOL0     O 1516   6.604   9.853   2.522 -0.1032 -0.7541  0.1065
  770MOL0     C 1517   6.529   9.977   2.521  0.1357  0.4977  0.1896
  770MOL0     C 1518   6.387   9.929   2.524  0.0534 -0.1927 -0.2598
  770MOL0     C 1519   6.349   9.870   2.389  0.5857  0.3052  0.1668
  770MOL0     C 1520   6.194   9.857   2.371 -0.4114  0.1758 -0.3186
  770MOL0     C 1521   6.135   9.742   2.456  0.2910  0.5845  0.2278
  770MOL0     C 1522   5.980   9.714   2.445 -0.5889  0.0506  0.2549
  770MOL0     C 1523   5.902   9.817   2.529  0.0196 -1.0411  0.2689
  770MOL0     C 1524   5.750   9.794   2.515  0.0506  0.2962 -0.2796
  770MOL0     N 1525   5.666   9.869   2.611 -0.2077  0.2708 -0.0094
  770MOL0     C 1526   5.678   9.874   2.746 -0.0905  0.6216 -0.6607
  770MOL0     C 1527   5.580   9.952   2.787 -0.3061  0.1603  0.4203
  770MOL0     C 1528   5.544   9.968   2.937 -0.4665  0.1428 -0.6706
  770MOL0     C 1529   5.494  10.107   2.956  0.5063 -0.0644 -0.6210
  770MOL0     C 1530   5.350  10.139   2.896 -0.2253  0.2807  0.5135
  770MOL0     C 1531   5.253  10.023   2.913 -0.1269 -0.3538  0.5092
  770MOL0     O 1532   5.132  10.066   2.841  0.4668 -0.0870 -0.4652
  770MOL0     C 1533   5.014  10.084   2.902 -0.0995  0.5530  0.0525
  770MOL0     C 1534   5.002  10.094   3.039  0.5125 -0.1522 -0.4088
  770MOL0     C 1535   4.876  10.091   3.097  0.0988 -0.1663 -0.4832
  770MOL0     C 1536   4.763  10.110   3.021 -0.2586 -0.2767  0.6209
  770MOL0     C 1537   4.628  10.111   3.075  0.4639  0.5420 -0.1649
  770MOL0     O 1538   4.516  10.119   2.991 -0.2034 -0.0582 -0.6726
  770MOL0     C 1539   4.397  10.145   3.052  0.3385  0.3423 -0.7072
  770MOL0     C 1540   4.296  10.048   3.046 -0.1538 -0.3920  0.2500
  770MOL0     C 1541   4.164  10.065   3.097 -0.0882 -0.1995  0.9877
  770MOL0     C 1542   4.132  10.192   3.153 -0.4705 -0.2016 -0.8634
  770MOL0     O 1543   4.008  10.236   3.202  0.1213  0.0911  0.0324
  770MOL0     C 1544   3.896  10.178   3.128  0.3088 -1.1065  0.4477
  770MOL0     C 1545   3.765  10.227   3.192  0.6470  0.4060  0.6798
  770MOL0     C 1546   3.636  10.178   3.124 -0.4662  0.3432  0.0241
  770MOL0     C 1547   3.506  10.213   3.198  0.0904  0.3845 -0.6134
  770MOL0     C 1548   3.389  10.146   3.134  0.7750 -0.0636 -0.1318
  770MOL0     C 1549   3.260  10.181   3.206  0.1873  0.2742 -0.5764
  770MOL0     C 1550   3.144  10.114   3.123  0.1320 -0.8653  0.3007
  770MOL0     C 1551   3.128  10.165   2.976  0.2868  0.4917  0.2467
  770MOL0    Cl 1552   3.107  10.345   2.966 -0.2384 -0.1888  0.1043
  770MOL0     C 1553   4.240  10.289   3.173  0.2729 -0.4952 -0.3226
  770MOL0     C 1554   4.365  10.271   3.115  0.7678  0.2777 -0.2450
  770MOL0     O 1555   4.623  10.088   3.196  0.7318  0.0043 -0.1895
  770MOL0     C 1556   4.782  10.105   2.878 -0.0707 -0.4658 -0.5448
  770MOL0     C 1557   4.904  10.090   2.827 -0.3484  0.3867  0.4906
  770MOL0     N 1558   5.505   9.994   2.680  0.4235 -0.0488  1.1684
  770MOL0     N 1559   5.564   9.949   2.569 -0.3974 -0.5859  0.3370
  770MOL0     C 1560   6.822   9.773   2.477  0.9193 -1.3587  0.7148
  770MOL0     C 1561   6.959   9.762   2.492 -0.2846 -0.4058 -0.5186
  770MOL0     C 1562   7.385   9.815   2.576  0.8410  0.3280  0.4519
  770MOL0     C 1563   7.424   9.895   2.687 -0.0158 -0.1150  0.9065
  770MOL0     C 1564   7.556   9.886   2.745 -0.1160 -0.2106  0.3068
  770MOL0     C 1565   7.652   9.805   2.696 -0.3262  0.2146  0.7718
  770MOL0     O 1566   7.776   9.787   2.740  0.4377 -0.2013 -0.2153
  770MOL0     C 1567   7.815   9.849   2.861  0.0585 -0.5598  0.2188
  770MOL0     C 1568   7.966   9.831   2.889 -0.0651  0.0990 -0.4527
  770MOL0     C 1569   7.995   9.869   3.038  0.4133 -0.4188  0.6203
  770MOL0     C 1570   8.144   9.853   3.069 -1.0230 -0.3720  0.5111
  770MOL0     C 1571   8.214   9.966   3.007  0.2387 -0.5482 -0.2552
  770MOL0     C 1572   8.272  10.053   2.947  0.9926 -0.5792  0.3974
  770MOL0     C 1573   7.620   9.737   2.575  0.5643  0.6890 -0.2687
  770MOL0     C 1574   7.489   9.737   2.527  0.4884  0.4327 -0.1584
  770MOL0     H 1575   7.023  10.031   2.678 -0.5073  0.7988  0.2596
  770MOL0     H 1576   6.758  10.041   2.680  0.4812  0.9473 -1.9417
  770MOL0     H 1577   6.549  10.042   2.435  3.0453  0.6879  0.8941
  770MOL0     H 1578   6.550  10.041   2.607  2.0426 -0.3598  0.4129
  770MOL0     H 1579   6.328  10.016   2.555 -2.2033 -0.4076 -3.4416
  770MOL0     H 1580   6.380   9.849   2.598  0.5934 -1.3030 -1.3746
  770MOL0     H 1581   6.399   9.774   2.372 -1.5561 -1.0176  0.9961
  770MOL0     H 1582   6.385   9.941   2.314 -0.1294  1.0470  0.5118
  770MOL0     H 1583   6.142   9.952   2.386 -0.5936 -0.0124  0.2675
  770MOL0     H 1584   6.175   9.829   2.267  0.7313  0.4111 -0.6029
  770MOL0     H 1585   6.168   9.754   2.560  2.9804  0.0568 -0.4861
  770MOL0     H 1586   6.187   9.650   2.427 -1.9572 -1.3528  1.9116
  770MOL0     H 1587   5.956   9.614   2.482 -0.2894  0.3948  1.4212
  770MOL0     H 1588   5.952   9.721   2.340  0.7834  1.8998 -0.0234
  770MOL0     H 1589   5.938   9.799   2.631  0.9133 -0.6245  0.0442
  770MOL0     H 1590   5.924   9.919   2.496 -2.5942 -1.6790 -4.2088
  770MOL0     H 1591   5.730   9.686   2.519  1.0740  0.1105  3.0972
  770MOL0     H 1592   5.709   9.819   2.417 -0.0465 -0.7829 -0.5305
  770MOL0     H 1593   5.750   9.828   2.813 -0.8681 -0.6698 -0.6789
  770MOL0     H 1594   5.635   9.981   2.997 -0.6812  5.3905 -1.0159
  770MOL0     H 1595   5.484   9.889   2.982 -0.8230  0.5205 -0.4776
  770MOL0     H 1596   5.568  10.180   2.924  0.7673  0.6476  1.4433
  770MOL0     H 1597   5.492  10.130   3.063 -2.5774 -0.4339 -0.5310
  770MOL0     H 1598   5.312  10.229   2.947 -0.2450  1.9500 -2.2398
  770MOL0     H 1599   5.356  10.158   2.788 -1.4370 -0.3827  0.3218
  770MOL0     H 1600   5.242   9.991   3.017  1.9452 -2.5619  0.1486
  770MOL0     H 1601   5.291   9.934   2.862 -1.1857 -0.7833  0.4588
  770MOL0     H 1602   5.083  10.106   3.110 -1.6977 -1.4421  2.5281
  770MOL0     H 1603   4.862  10.080   3.204  0.1637  1.3699 -0.2982
  770MOL0     H 1604   4.309   9.957   2.989  2.0382 -1.5369  2.4310
  770MOL0     H 1605   4.102   9.978   3.077  1.5438 -0.8721 -1.8068
  770MOL0     H 1606   3.895  10.069   3.141  1.9278 -1.0623  1.2832
  770MOL0     H 1607   3.894  10.207   3.022  0.2599 -0.2958  0.6637
  770MOL0     H 1608   3.770  10.336   3.205  2.2327  0.6364 -1.3984
  770MOL0     H 1609   3.762  10.188   3.294 -1.9255 -1.5331 -0.0091
  770MOL0     H 1610   3.638  10.069   3.114 -2.2386  0.1713  1.0257
  770MOL0     H 1611   3.639  10.221   3.023  1.8169 -0.9435 -0.5144
  770MOL0     H 1612   3.511  10.177   3.301 -2.5291  1.5755  0.0383
  770MOL0     H 1613   3.501  10.323   3.199 -1.0826  0.3427  0.1696
  770MOL0     H 1614   3.406  10.038   3.137  2.7859  0.1587 -1.3692
  770MOL0     H 1615   3.393  10.167   3.027  1.7913  0.5417  0.0168
  770MOL0     H 1616   3.244  10.289   3.207  0.6211  0.3312  0.5396
  770MOL0     H 1617   3.268  10.141   3.307 -0.4195 -1.7340 -1.2667
  770MOL0     H 1618   3.158  10.006   3.110 -1.7590 -1.4660  2.5425
  770MOL0     H 1619   3.048  10.136   3.170 -0.3650 -2.1463 -0.0649
  770MOL0     H 1620   3.040  10.115   2.937 -0.1818  1.2996  0.2454
  770MOL0     H 1621   3.210  10.131   2.912 -1.9348 -1.7821 -1.5662
  770MOL0     H 1622   4.229  10.382   3.227 -1.7880 -1.1038  0.4110
  770MOL0     H 1623   4.439  10.349   3.129 -2.2082  2.9821  1.7675
  770MOL0     H 1624   4.702  10.104   2.804  0.2446 -1.9960 -0.9043
  770MOL0     H 1625   4.915  10.088   2.719 -2.9741  0.6040  0.1508
  770MOL0     H 1626   6.768   9.693   2.427 -1.6217  0.2407  0.7275
  770MOL0     H 1627   7.018   9.680   2.454  1.5142  0.2313  0.7781
  770MOL0     H 1628   7.357   9.977   2.713 -0.2980  0.2265 -0.7874
  770MOL0     H 1629   7.582   9.956   2.824 -0.3427 -2.6582  2.6983
  770MOL0     H 1630   7.757   9.820   2.949  0.1875 -0.1161  0.4555
  770MOL0     H 1631   7.797   9.956   2.847 -0.8842 -0.4254  2.0526
  770MOL0     H 1632   7.988   9.726   2.866  1.9872  0.1746  0.9465
  770MOL0     H 1633   8.017   9.907   2.830 -3.5310  4.0168  1.0576
  770MOL0     H 1634   7.934   9.806   3.103  3.2459 -3.0078  0.9751
  770MOL0     H 1635   7.974   9.975   3.058  2.6460  0.3335 -0.6469
  770MOL0     H 1636   8.159   9.872   3.176 -1.1422 -0.4934  0.5502
  770MOL0     H 1637   8.185   9.756   3.042 -0.7546 -0.5007  1.3581
  770MOL0     H 1638   8.323  10.123   2.884 -1.4467 -0.2474 -1.3430
  770MOL0     H 1639   7.699   9.679   2.529 -1.0360 -0.3833 -1.8220
  770MOL0     H 1640   7.464   9.665   2.449 -1.8509 -2.2184  2.7572
  771MOL0     O 1641   8.239   8.341  11.226  0.0937  0.0634 -0.8054
  771MOL0     C 1642   8.263   8.248  11.302  0.3278  0.1898 -0.2183
  771MOL0     O 1643   8.178   8.180  11.381 -0.5056 -0.3306  0.2787
  771MOL0     C 1644   8.045   8.221  11.388 -0.1713  0.3573 -0.3345
  771MOL0     C 1645   7.992   8.344  11.389  0.3993  0.2530  1.0273
  771MOL0     C 1646   7.862   8.367  11.400  0.6405 -0.6039 -0.1167
  771MOL0     C 1647   7.773   8.268  11.403  0.0356 -0.3582 -0.3270
  771MOL0     O 1648   7.634   8.285  11.411 -0.0321 -0.1358 -0.0368
  771MOL0     C 1649   7.593   8.389  11.505 -0.1192  0.0011  0.2499
  771MOL0     C 1650   7.454   8.348  11.530  0.6865 -0.3499 -0.5211
  771MOL0     C 1651   7.361   8.389  11.419  0.0397 -0.1200 -0.2720
  771MOL0     C 1652   7.214   8.360  11.462  0.4188  0.0182  0.1831
  771MOL0     C 1653   7.117   8.374  11.333 -0.1118  0.4874  0.0689
  771MOL0     C 1654   7.105   8.518  11.285 -0.6105 -0.3166  0.0615
  771MOL0     C 1655   7.041   8.603  11.390  0.0787  0.0232 -0.0306
  771MOL0     C 1656   6.955   8.718  11.320  0.4853  0.6678 -0.5763
  771MOL0     N 1657   6.889   8.798  11.428  0.0028 -0.2280  0.3260
  771MOL0     C 1658   6.762   8.788  11.468 -0.3476  0.0022 -0.5382
  771MOL0     C 1659   6.746   8.891  11.558 -0.1972  0.0455  1.0823
  771MOL0     C 1660   6.628   8.909  11.645 -0.4799 -0.4693 -0.1324
  771MOL0     C 1661   6.502   8.919  11.555  0.1770  0.4307 -0.5856
  771MOL0     C 1662   6.373   8.894  11.636 -0.3501 -0.4355 -0.3169
  771MOL0     C 1663   6.321   8.756  11.652  0.0394 -0.3672 -0.1185
  771MOL0     O 1664   6.207   8.730  11.740  0.0162 -0.3121 -0.0497
  771MOL0     C 1665   6.084   8.761  11.689 -0.1029 -0.1397 -0.5896
  771MOL0     C 1666   5.977   8.725  11.772 -0.3931 -0.2775  0.4547
  771MOL0     C 1667   5.844   8.726  11.721 -0.1524  1.0864  0.6937
  771MOL0     C 1668   5.822   8.780  11.590  0.6648 -0.3807  0.0884
  771MOL0     C 1669   5.679   8.799  11.550  0.4009  0.2902  0.2479
  771MOL0     O 1670   5.591   8.789  11.655  0.3426 -0.3760 -0.7747
  771MOL0     C 1671   5.456   8.789  11.647  0.0281  0.1567  0.3210
  771MOL0     C 1672   5.380   8.738  11.537 -0.0535 -0.4545  0.7961
  771MOL0     C 1673   5.235   8.742  11.551  0.2130 -0.4160 -0.2036
  771MOL0     C 1674   5.176   8.797  11.661 -0.0751 -0.1352  1.0533
  771MOL0     O 1675   5.044   8.805  11.680  0.1805 -0.4316 -0.8399
  771MOL0     C 1676   4.987   8.673  11.655  0.4300  0.2450 -0.0521
  771MOL0     C 1677   4.848   8.663  11.712  0.0376  0.5043  0.3650
  771MOL0     C 1678   4.752   8.757  11.642  0.4696 -0.6371  0.8206
  771MOL0     C 1679   4.610   8.727  11.678 -0.5867 -0.1810 -0.7869
  771MOL0     C 1680   4.511   8.792  11.581  0.6786  0.0891  0.5309
  771MOL0     C 1681   4.361   8.786  11.631  0.8776 -0.3617 -0.0283
  771MOL0     C 1682   4.271   8.829  11.523  0.1983  0.2911 -0.0676
  771MOL0     C 1683   4.127   8.874  11.555 -0.2412 -0.0828  0.1446
  771MOL0    Cl 1684   4.100   8.973  11.700  0.3672 -0.1321  0.2863
  771MOL0     C 1685   5.258   8.850  11.762  0.1735 -0.9347  0.7968
  771MOL0     C 1686   5.400   8.853  11.756  0.2673  0.0825  0.2661
  771MOL0     O 1687   5.651   8.810  11.429  0.4466 -0.5979 -0.0244
  771MOL0     C 1688   5.922   8.823  11.514 -0.0707  0.0993  1.0275
  771MOL0     C 1689   6.056   8.812  11.561 -0.0841 -0.0753 -0.4744
  771MOL0     N 1690   6.871   8.944  11.576  0.3253 -0.1491 -1.1717
  771MOL0     N 1691   6.949   8.904  11.483 -0.6462 -1.1361 -0.5483
  771MOL0     C 1692   7.817   8.138  11.402  0.2691 -0.0783 -0.3832
  771MOL0     C 1693   7.954   8.112  11.400 -0.6842  0.6842 -0.3854
  771MOL0     C 1694   8.409   8.203  11.309  0.1095  0.7853  0.3692
  771MOL0     C 1695   8.496   8.203  11.202  0.2750  0.0543  0.9903
  771MOL0     C 1696   8.626   8.161  11.208 -0.6437  0.3023  0.1325
  771MOL0     C 1697   8.677   8.108  11.324  0.0842 -0.3149  0.0084
  771MOL0     O 1698   8.804   8.074  11.345 -0.2235  1.2742 -0.9222
  771MOL0     C 1699   8.851   7.947  11.281  0.3364 -0.8480  0.0662
  771MOL0     C 1700   8.810   7.825  11.370  0.2583 -0.0906 -0.0874
  771MOL0     C 1701   8.896   7.833  11.497 -0.4555 -0.4710  0.3429
  771MOL0     C 1702   8.912   7.706  11.578 -0.1939  0.5259  0.2494
  771MOL0     C 1703   8.967   7.604  11.493 -0.5280  0.1345 -0.2801
  771MOL0     C 1704   9.016   7.524  11.417  0.6150  0.1434  0.3767
  771MOL0     C 1705   8.590   8.098  11.436  0.7835 -0.6737 -0.2088
  771MOL0     C 1706   8.460   8.148  11.428 -0.0732  0.2738 -0.7752
  771MOL0     H 1707   8.059   8.428  11.378 -2.3270  2.3933 -0.4285
  771MOL0     H 1708   7.824   8.469  11.402  1.3089 -0.3635  1.2798
  771MOL0     H 1709   7.599   8.490  11.462 -3.1248 -0.3514 -1.2241
  771MOL0     H 1710   7.662   8.389  11.591  2.4157  0.0557 -1.6679
  771MOL0     H 1711   7.428   8.405  11.619  1.8017  0.3680 -0.6330
  771MOL0     H 1712   7.458   8.240  11.548  0.6691 -0.3642 -0.6028
  771MOL0     H 1713   7.399   8.326  11.338  2.2471 -0.4040  0.8975
  771MOL0     H 1714   7.381   8.495  11.402  0.5229  0.4631  3.1678
  771MOL0     H 1715   7.211   8.258  11.501  1.1711  0.4659  1.4796
  771MOL0     H 1716   7.188   8.420  11.550 -3.1410  1.0242 -1.3612
  771MOL0     H 1717   7.024   8.325  11.363 -0.0510 -0.6861 -1.5564
  771MOL0     H 1718   7.158   8.305  11.259 -2.8351  1.1802 -2.2609
  771MOL0     H 1719   7.037   8.525  11.200  2.3026 -0.2528 -2.4492
  771MOL0     H 1720   7.204   8.553  11.254 -0.1301  1.8385  3.4862
  771MOL0     H 1721   6.969   8.557  11.458 -3.0414  5.1836  0.7377
  771MOL0     H 1722   7.117   8.651  11.452 -0.1175  0.8513 -0.4085
  771MOL0     H 1723   6.884   8.655  11.265  1.4195 -0.0849 -0.9687
  771MOL0     H 1724   7.012   8.779  11.249 -1.5233  3.4952  0.0832
  771MOL0     H 1725   6.696   8.709  11.433  0.6001 -0.1034 -2.1892
  771MOL0     H 1726   6.648   8.996  11.709  0.2689 -1.0442  0.4369
  771MOL0     H 1727   6.619   8.822  11.710  0.2862 -1.6097 -1.4932
  771MOL0     H 1728   6.510   8.831  11.492  0.5451  1.3541 -1.8619
  771MOL0     H 1729   6.493   9.013  11.500  1.6002  0.7832 -0.2509
  771MOL0     H 1730   6.390   8.934  11.736  2.8159  0.6812 -1.1840
  771MOL0     H 1731   6.298   8.954  11.585 -1.2849  1.6341  3.1569
  771MOL0     H 1732   6.396   8.684  11.687 -0.2297 -0.0626  1.1358
  771MOL0     H 1733   6.293   8.725  11.551 -2.2176  3.5370 -0.9321
  771MOL0     H 1734   5.999   8.659  11.855  0.1056 -0.5259  0.1268
  771MOL0     H 1735   5.757   8.693  11.777 -1.1344 -0.7110 -1.6680
  771MOL0     H 1736   5.420   8.688  11.449 -0.2383 -1.8310  1.4672
  771MOL0     H 1737   5.173   8.703  11.471 -2.1775  1.2485  0.7091
  771MOL0     H 1738   5.052   8.597  11.699  1.2980  1.3176  0.5722
  771MOL0     H 1739   4.977   8.649  11.549  0.2066 -0.4719  0.1270
  771MOL0     H 1740   4.853   8.689  11.818  0.1262 -1.6621  0.9465
  771MOL0     H 1741   4.819   8.557  11.708 -0.5720  0.5907  1.7206
  771MOL0     H 1742   4.761   8.741  11.534 -0.4480 -0.8967  0.7757
  771MOL0     H 1743   4.776   8.856  11.682 -3.5750  0.7450  0.2845
  771MOL0     H 1744   4.587   8.620  11.685 -1.6805  0.1564  1.4090
  771MOL0     H 1745   4.596   8.766  11.779  0.4512 -2.1321  0.1812
  771MOL0     H 1746   4.524   8.726  11.495 -0.3408 -0.0295  0.4545
  771MOL0     H 1747   4.532   8.898  11.561 -1.6914  0.8666  1.7517
  771MOL0     H 1748   4.351   8.854  11.716  1.5468 -0.4626  0.1402
  771MOL0     H 1749   4.348   8.688  11.676  1.1142  0.0284  0.9075
  771MOL0     H 1750   4.326   8.913  11.478  1.0880  1.2822  2.7030
  771MOL0     H 1751   4.267   8.746  11.451 -3.3446 -1.2818  1.6999
  771MOL0     H 1752   4.061   8.786  11.555  1.0700 -1.1286  1.4427
  771MOL0     H 1753   4.100   8.932  11.466  1.8482 -1.9567 -1.8511
  771MOL0     H 1754   5.200   8.896  11.842 -0.0288  2.8255 -1.2936
  771MOL0     H 1755   5.456   8.892  11.841  0.2804  1.0683 -0.1836
  771MOL0     H 1756   5.903   8.873  11.420 -0.1987  1.8359  1.9386
  771MOL0     H 1757   6.138   8.855  11.505  3.0600  1.0523  4.3925
  771MOL0     H 1758   7.733   8.070  11.396  0.8170 -0.7446 -0.6915
  771MOL0     H 1759   8.005   8.016  11.402  2.0903  2.0557 -0.9374
  771MOL0     H 1760   8.474   8.259  11.112  1.2852 -0.1355  0.6109
  771MOL0     H 1761   8.703   8.177  11.134 -0.5951  0.9969  0.3286
  771MOL0     H 1762   8.959   7.952  11.265 -0.0515  0.8747 -2.4715
  771MOL0     H 1763   8.814   7.947  11.178 -3.4677  1.4739  1.2435
  771MOL0     H 1764   8.702   7.833  11.387  0.7329  1.9107  2.8340
  771MOL0     H 1765   8.834   7.735  11.313  1.1259  0.8769 -1.2996
  771MOL0     H 1766   8.849   7.910  11.557 -0.0247  1.2722 -1.4338
  771MOL0     H 1767   8.996   7.869  11.471 -0.8725  1.0799  0.8142
  771MOL0     H 1768   8.988   7.733  11.651  1.4394 -0.2731 -1.0945
  771MOL0     H 1769   8.820   7.668  11.625  2.0846 -3.1980  2.1920
  771MOL0     H 1770   9.050   7.444  11.354  1.1130  1.7645 -1.5085
  771MOL0     H 1771   8.625   8.046  11.524  0.1551 -0.3692  0.2308
  771MOL0     H 1772   8.407   8.138  11.522  0.8926  2.4702  0.0693
  772MOL0     O 1773   4.083  11.132   4.772 -0.6155 -0.4296  0.1869
  772MOL0     C 1774   4.143  11.227   4.718  1.4376  0.1507 -0.8538
  772MOL0     O 1775   4.079  11.337   4.673 -0.3399  0.4287 -0.1234
  772MOL0     C 1776   3.947  11.336   4.692  0.2461 -0.2217 -0.5566
  772MOL0     C 1777   3.862  11.266   4.613 -0.1867  0.1228 -0.2342
  772MOL0     C 1778   3.724  11.276   4.634 -0.5265  0.2883 -0.5711
  772MOL0     C 1779   3.665  11.351   4.731 -1.2443  0.2715 -0.0202
  772MOL0     O 1780   3.534  11.359   4.724 -0.2832 -0.0204 -0.4312
  772MOL0     C 1781   3.457  11.394   4.846  0.3399  0.8251  1.1293
  772MOL0     C 1782   3.310  11.350   4.822  0.0230 -0.1053  0.9155
  772MOL0     C 1783   3.229  11.384   4.941 -0.1808  0.1948 -0.2878
  772MOL0     C 1784   3.076  11.375   4.926  0.7782  0.3144 -0.5334
  772MOL0     C 1785   3.023  11.236   4.936  0.2350 -0.9364  0.0144
  772MOL0     C 1786   3.013  11.192   5.076 -0.3916  0.2278 -0.0576
  772MOL0     C 1787   2.921  11.068   5.054 -0.4339  0.1574 -0.0876
  772MOL0     C 1788   2.882  11.013   5.192 -0.2744 -0.0235 -0.8999
  772MOL0     N 1789   2.790  10.901   5.183  0.0457 -0.0418 -0.0086
  772MOL0     C 1790   2.661  10.890   5.219  0.5499  0.0242 -0.0959
  772MOL0     C 1791   2.627  10.759   5.201 -1.0480  0.0342 -0.2951
  772MOL0     C 1792   2.496  10.701   5.232 -0.9197  1.0046 -0.3235
  772MOL0     C 1793   2.449  10.593   5.134  0.3468 -0.2902  1.0352
  772MOL0     C 1794   2.445  10.629   4.986 -0.2874  0.6723 -0.5675
  772MOL0     C 1795   2.359  10.755   4.956  0.5145 -0.1223 -0.5090
  772MOL0     O 1796   2.236  10.771   5.032  0.5692  0.3378  0.1936
  772MOL0     C 1797   2.130  10.684   5.003  0.6431 -0.6675  1.3912
  772MOL0     C 1798   2.123  10.592   4.899  0.4672 -0.2411  0.4594
  772MOL0     C 1799   2.013  10.509   4.885 -0.4677 -0.6358  0.2553
  772MOL0     C 1800   1.901  10.503   4.981  0.7593 -0.1953  0.1800
  772MOL0     C 1801   1.786  10.406   4.983  0.0554  0.5074 -1.2762
  772MOL0     O 1802   1.698  10.407   5.089  0.4616  0.2345 -0.0081
  772MOL0     C 1803   1.586  10.331   5.095  0.3903 -0.3728  0.3421
  772MOL0     C 1804   1.482  10.378   5.181 -0.5490 -0.1203  0.4131
  772MOL0     C 1805   1.369  10.307   5.207 -0.6659 -0.1653 -0.1795
  772MOL0     C 1806   1.341  10.186   5.134 -0.3273 -0.3233  0.3323
  772MOL0     O 1807   1.235  10.096   5.144  0.1629  0.4326  0.0267
  772MOL0     C 1808   1.115  10.141   5.212 -0.0149  0.3509 -0.2592
  772MOL0     C 1809   1.034  10.249   5.124 -0.0778 -0.2920 -0.1507
  772MOL0     C 1810   1.069  10.248   4.976 -0.8224  1.2383  0.6461
  772MOL0     C 1811   0.973  10.324   4.888 -0.3109  0.2344  0.1184
  772MOL0     C 1812   0.969  10.269   4.745  0.1389 -0.9985  0.6167
  772MOL0     C 1813   0.871  10.362   4.664  0.8774 -0.6125 -0.1949
  772MOL0     C 1814   0.841  10.312   4.523 -0.2542  0.5904  0.1746
  772MOL0     C 1815   0.957  10.306   4.422 -1.0180  0.0595  0.6128
  772MOL0    Cl 1816   1.006  10.482   4.401  0.7382  0.0739  0.0866
  772MOL0     C 1817   1.440  10.149   5.047 -1.2281  0.1905 -0.2104
  772MOL0     C 1818   1.565  10.215   5.030 -0.1257  0.4713  0.5116
  772MOL0     O 1819   1.781  10.330   4.885  0.5496 -0.2730  0.2553
  772MOL0     C 1820   1.911  10.603   5.075  0.2863  0.3433 -0.2040
  772MOL0     C 1821   2.016  10.692   5.083  0.2273 -0.1371  0.4306
  772MOL0     N 1822   2.743  10.691   5.151 -0.3654 -0.2240 -0.1693
  772MOL0     N 1823   2.827  10.776   5.137 -0.8761 -0.6031  0.1410
  772MOL0     C 1824   3.748  11.431   4.812 -0.0991  0.4785  0.0649
  772MOL0     C 1825   3.890  11.420   4.792 -1.1149 -0.1289 -0.3587
  772MOL0     C 1826   4.282  11.204   4.680  0.2853 -0.5475  0.3765
  772MOL0     C 1827   4.358  11.312   4.644 -0.1197 -0.3030 -0.0544
  772MOL0     C 1828   4.498  11.302   4.610 -0.2337 -0.2371  0.7091
  772MOL0     C 1829   4.553  11.174   4.599 -0.0640 -0.7027 -0.3273
  772MOL0     O 1830   4.685  11.166   4.558  0.4663 -0.1417 -0.4910
  772MOL0     C 1831   4.724  11.038   4.501  1.1689  0.4269  0.3121
  772MOL0     C 1832   4.860  11.053   4.435 -1.5334 -0.1539  0.2168
  772MOL0     C 1833   4.848  11.124   4.297 -0.1526  0.3539  0.1579
  772MOL0     C 1834   4.977  11.160   4.218 -0.8472 -0.1156  0.6922
  772MOL0     C 1835   5.081  11.209   4.311 -0.4853  0.8209 -1.7424
  772MOL0     C 1836   5.161  11.216   4.402 -0.0998  0.5449 -0.2222
  772MOL0     C 1837   4.483  11.059   4.644  0.5986 -0.3141  0.1992
  772MOL0     C 1838   4.348  11.075   4.685 -0.0306 -0.0498  0.2277
  772MOL0     H 1839   3.895  11.202   4.532 -1.1579  0.5866 -1.0233
  772MOL0     H 1840   3.656  11.219   4.572  1.6443 -0.9890 -1.9400
  772MOL0     H 1841   3.457  11.503   4.855 -2.0114  0.7968  1.9902
  772MOL0     H 1842   3.497  11.347   4.936  0.4553 -0.7666  0.2874
  772MOL0     H 1843   3.288  11.249   4.788 -1.6954  1.0767 -1.8649
  772MOL0     H 1844   3.283  11.417   4.740  3.4439 -0.7628 -0.9404
  772MOL0     H 1845   3.257  11.485   4.972  1.5913 -1.0854  2.7224
  772MOL0     H 1846   3.260  11.329   5.030 -0.2183  3.2018  1.7073
  772MOL0     H 1847   3.028  11.433   5.005 -2.1100 -0.8941 -1.2804
  772MOL0     H 1848   3.055  11.421   4.829  2.4509  0.5114 -0.8281
  772MOL0     H 1849   3.076  11.171   4.866  2.2212  0.7960 -0.1824
  772MOL0     H 1850   2.920  11.249   4.903  0.3031  0.4444  0.2803
  772MOL0     H 1851   2.965  11.257   5.149  2.2241  1.6594  0.5109
  772MOL0     H 1852   3.110  11.166   5.120  0.8955  0.8408 -2.3712
  772MOL0     H 1853   2.825  11.092   5.008  0.8354 -0.0374 -3.0839
  772MOL0     H 1854   2.970  10.995   4.988  1.7227  1.1810  0.2786
  772MOL0     H 1855   2.845  11.089   5.260  1.9289  0.9170 -0.6780
  772MOL0     H 1856   2.971  10.978   5.245 -0.6956  0.3709  0.0689
  772MOL0     H 1857   2.597  10.971   5.252 -2.3676 -2.8908  2.0557
  772MOL0     H 1858   2.419  10.778   5.247 -3.0863 -1.4667  2.6071
  772MOL0     H 1859   2.513  10.663   5.333  2.2506 -0.4899 -1.3043
  772MOL0     H 1860   2.344  10.569   5.154 -0.7019  1.8144 -1.4128
  772MOL0     H 1861   2.516  10.507   5.147  2.3533  0.9654 -0.3843
  772MOL0     H 1862   2.549  10.632   4.952  0.1236 -3.0094  0.0182
  772MOL0     H 1863   2.409  10.544   4.928  1.5197 -0.1909 -0.4721
  772MOL0     H 1864   2.332  10.757   4.850 -0.4025  0.5503 -0.2806
  772MOL0     H 1865   2.423  10.842   4.970  2.3487 -1.8017  2.9976
  772MOL0     H 1866   2.212  10.581   4.838  1.3711 -0.7564  1.8257
  772MOL0     H 1867   2.033  10.425   4.818 -1.4607 -0.4934 -0.2457
  772MOL0     H 1868   1.503  10.474   5.228 -0.9881 -0.0962  0.5616
  772MOL0     H 1869   1.282  10.337   5.266 -1.2974 -0.2680 -1.0429
  772MOL0     H 1870   1.137  10.183   5.310 -0.6858  0.2778 -0.0727
  772MOL0     H 1871   1.054  10.052   5.230 -1.3381  1.1055 -0.8335
  772MOL0     H 1872   1.064  10.348   5.160  3.2023 -0.6096 -1.6247
  772MOL0     H 1873   0.925  10.246   5.138 -0.4477  1.8989 -1.9527
  772MOL0     H 1874   1.070  10.144   4.944  0.8317  1.1443  0.9420
  772MOL0     H 1875   1.166  10.292   4.952 -1.3511 -0.0517 -5.3038
  772MOL0     H 1876   0.873  10.310   4.931  0.0198  2.2595  1.7147
  772MOL0     H 1877   1.005  10.428   4.891  0.0323  0.1521 -0.5906
  772MOL0     H 1878   0.918  10.172   4.742 -2.3080  0.1927  1.0717
  772MOL0     H 1879   1.071  10.267   4.705  0.0162 -0.2318  0.2486
  772MOL0     H 1880   0.923  10.457   4.649  3.0503 -1.8065 -0.7234
  772MOL0     H 1881   0.787  10.397   4.724 -0.8300 -4.5559  0.0775
  772MOL0     H 1882   0.806  10.209   4.533  0.3198  0.0942 -2.2127
  772MOL0     H 1883   0.760  10.374   4.482 -1.8756 -0.6001  1.4633
  772MOL0     H 1884   0.923  10.273   4.323 -0.5989  1.1089  0.1051
  772MOL0     H 1885   1.042  10.244   4.451 -1.1942  0.2425  1.5737
  772MOL0     H 1886   1.436  10.051   5.000 -0.0390  0.2455 -0.4631
  772MOL0     H 1887   1.634  10.162   4.965 -0.5350 -1.2803  1.4544
  772MOL0     H 1888   1.842  10.615   5.157 -2.3379 -0.6321 -2.1385
  772MOL0     H 1889   2.022  10.768   5.160  1.6624  2.1760 -1.7943
  772MOL0     H 1890   3.700  11.502   4.879 -1.0742  2.3008 -2.3953
  772MOL0     H 1891   3.958  11.489   4.841 -1.6294  0.6314 -0.7036
  772MOL0     H 1892   4.301  11.405   4.638  0.9962  0.5268  1.2785
  772MOL0     H 1893   4.558  11.391   4.593 -1.2020  0.4572  0.8224
  772MOL0     H 1894   4.652  10.998   4.429  2.0656 -1.9725  0.6572
  772MOL0     H 1895   4.734  10.957   4.574  1.8418  0.2354  0.0182
  772MOL0     H 1896   4.931  11.101   4.503  0.2091  0.7038 -2.0599
  772MOL0     H 1897   4.893  10.952   4.408 -0.7774  0.1820 -0.1438
  772MOL0     H 1898   4.794  11.217   4.321 -0.3072  1.4525 -3.7660
  772MOL0     H 1899   4.775  11.072   4.234  1.8170 -0.5929 -1.4254
  772MOL0     H 1900   5.007  11.073   4.159  0.6164  1.9983 -1.8981
  772MOL0     H 1901   4.958  11.242   4.149 -1.2487  1.0697  2.1556
  772MOL0     H 1902   5.238  11.213   4.477 -2.0894  2.4138  2.0792
  772MOL0     H 1903   4.529  10.961   4.647  2.6869  0.4975 -1.7294
  772MOL0     H 1904   4.290  10.995   4.729  0.7418 -1.2569 -0.8939
  773MOL0     O 1905   9.626   6.434   1.818 -0.3522  0.2903 -1.1157
  773MOL0     C 1906   9.555   6.498   1.895 -0.4262 -0.1139 -0.0091
  773MOL0     O 1907   9.421   6.476   1.916 -1.0370 -0.3641  0.0629
  773MOL0     C 1908   9.355   6.373   1.857 -0.8564 -0.6831  0.2280
  773MOL0     C 1909   9.391   6.272   1.762  0.1539  0.3338  0.3043
  773MOL0     C 1910   9.310   6.169   1.714 -0.1480 -0.1145  0.7834
  773MOL0     C 1911   9.176   6.175   1.750  0.1608 -0.0262 -0.2390
  773MOL0     O 1912   9.077   6.093   1.710  0.7056 -0.0625  0.0093
  773MOL0     C 1913   9.109   6.001   1.606 -0.7441 -0.1145  0.8627
  773MOL0     C 1914   8.990   5.930   1.541 -0.1423 -0.2503  0.5054
  773MOL0     C 1915   8.929   6.018   1.433  0.0535  0.2588 -0.3232
  773MOL0     C 1916   8.801   5.957   1.381  0.0683 -0.7081  0.2196
  773MOL0     C 1917   8.684   5.969   1.475 -0.0158  1.1466  0.5530
  773MOL0     C 1918   8.558   5.918   1.398 -0.6534 -0.2527  0.7057
  773MOL0     C 1919   8.440   5.918   1.494 -0.0630 -0.1414  0.5747
  773MOL0     C 1920   8.362   6.041   1.513  0.4886  0.2284  0.5282
  773MOL0     N 1921   8.263   6.011   1.616 -0.2710 -0.3785 -0.5019
  773MOL0     C 1922   8.137   5.960   1.598  0.2895 -0.6620  0.2547
  773MOL0     C 1923   8.100   5.922   1.729 -0.6363 -0.4905  0.1715
  773MOL0     C 1924   7.967   5.862   1.766 -0.1714 -0.1624  1.3380
  773MOL0     C 1925   7.849   5.954   1.728  0.5664 -0.1789 -0.2107
  773MOL0     C 1926   7.846   6.094   1.802  0.4632 -0.0135  0.4667
  773MOL0     C 1927   7.736   6.172   1.737 -0.4607 -0.5864  0.3084
  773MOL0     O 1928   7.615   6.130   1.789 -0.6194 -0.5194 -0.0655
  773MOL0     C 1929   7.514   6.223   1.810 -0.4908  1.3564 -0.6789
  773MOL0     C 1930   7.419   6.192   1.911 -0.3783  0.1507 -0.2764
  773MOL0     C 1931   7.309   6.273   1.931  0.1373 -0.0780  0.0341
  773MOL0     C 1932   7.275   6.386   1.849  0.3140  0.4493  0.8967
  773MOL0     C 1933   7.147   6.452   1.866  0.8932 -0.4539 -0.5164
  773MOL0     O 1934   7.120   6.568   1.809  0.2194  0.3351  0.1317
  773MOL0     C 1935   7.008   6.645   1.822  0.1814  0.8203  0.7370
  773MOL0     C 1936   6.873   6.594   1.822  0.1664 -0.1842  0.0087
  773MOL0     C 1937   6.762   6.686   1.817 -0.0435  0.2260  0.4621
  773MOL0     C 1938   6.773   6.821   1.815 -0.8541  0.1825 -0.5518
  773MOL0     O 1939   6.677   6.916   1.800  0.1811  0.1019  0.5763
  773MOL0     C 1940   6.556   6.903   1.881  0.6296  0.4994  0.1365
  773MOL0     C 1941   6.530   7.026   1.952  0.0798 -0.4033  0.1714
  773MOL0     C 1942   6.389   7.036   2.011 -0.2392  0.0811  0.0945
  773MOL0     C 1943   6.363   7.163   2.092 -0.6024  0.3639 -0.2665
  773MOL0     C 1944   6.391   7.294   2.018 -0.2379 -0.1386  0.8968
  773MOL0     C 1945   6.365   7.421   2.100 -0.5334  0.4612 -0.9404
  773MOL0     C 1946   6.376   7.545   2.022  0.2302 -0.1378  0.2395
  773MOL0     C 1947   6.398   7.676   2.105 -0.3212  0.0330 -1.0445
  773MOL0    Cl 1948   6.301   7.685   2.255 -0.3266  0.3160 -0.2971
  773MOL0     C 1949   6.903   6.875   1.818 -0.2626  0.1972  0.2720
  773MOL0     C 1950   7.020   6.789   1.819 -0.9071  0.8785 -0.6973
  773MOL0     O 1951   7.071   6.397   1.939  0.2508  0.3929  0.3914
  773MOL0     C 1952   7.368   6.412   1.742  0.6376  0.5001  0.5525
  773MOL0     C 1953   7.485   6.332   1.719  0.1630  0.2516 -0.2068
  773MOL0     N 1954   8.201   5.971   1.815 -0.2567 -0.4354 -0.9559
  773MOL0     N 1955   8.300   6.022   1.748 -0.2488  0.7008 -0.1932
  773MOL0     C 1956   9.131   6.281   1.838  0.0654 -0.1918  0.2904
  773MOL0     C 1957   9.220   6.376   1.895  0.2662 -0.4633  0.2232
  773MOL0     C 1958   9.617   6.621   1.947  0.8563 -0.0662  0.4220
  773MOL0     C 1959   9.739   6.680   1.896  0.1046 -0.5488  0.5282
  773MOL0     C 1960   9.796   6.791   1.962  0.4147 -0.0947 -0.2629
  773MOL0     C 1961   9.731   6.849   2.076  0.7426 -0.2138  0.1007
  773MOL0     O 1962   9.782   6.948   2.146  0.1373  0.1268  1.1471
  773MOL0     C 1963   9.904   6.998   2.102 -0.6463 -1.3047  0.3729
  773MOL0     C 1964   9.941   7.104   2.211 -0.3846  0.2423 -1.0587
  773MOL0     C 1965   9.951   7.064   2.357 -0.1764  0.8122  0.0472
  773MOL0     C 1966  10.042   6.929   2.378  0.6026 -0.1917  0.9245
  773MOL0     C 1967  10.068   6.919   2.519 -0.3405  1.1071 -0.4377
  773MOL0     C 1968  10.103   6.909   2.640 -0.2695  0.3445 -0.3296
  773MOL0     C 1969   9.607   6.792   2.120  0.2808 -0.5998  0.5721
  773MOL0     C 1970   9.550   6.685   2.051 -0.1325 -0.1676 -0.0454
  773MOL0     H 1971   9.495   6.264   1.733  0.0417 -1.2668  0.2704
  773MOL0     H 1972   9.368   6.097   1.658  2.1091  1.7530  0.5450
  773MOL0     H 1973   9.184   5.929   1.640 -0.5426 -0.8857 -1.1208
  773MOL0     H 1974   9.156   6.053   1.522  1.4563 -3.0504  0.1037
  773MOL0     H 1975   8.923   5.915   1.626  0.4278  0.4904  1.1043
  773MOL0     H 1976   9.025   5.838   1.495  0.3863 -0.1973  0.7962
  773MOL0     H 1977   8.994   6.035   1.347 -2.1462  2.9447 -1.6163
  773MOL0     H 1978   8.910   6.119   1.470 -0.9816  0.2122 -0.7100
  773MOL0     H 1979   8.776   6.003   1.285 -1.2213  1.4005  1.4524
  773MOL0     H 1980   8.810   5.853   1.351 -2.2314 -1.1029  0.6750
  773MOL0     H 1981   8.669   6.075   1.497  0.6312  1.6060 -1.0563
  773MOL0     H 1982   8.691   5.916   1.570 -2.6167  1.4648  0.9940
  773MOL0     H 1983   8.585   5.815   1.372  2.4073  0.7539 -0.5961
  773MOL0     H 1984   8.545   5.979   1.309  2.0317 -1.2598 -0.4816
  773MOL0     H 1985   8.367   5.837   1.483 -2.8437  2.4165 -1.6218
  773MOL0     H 1986   8.474   5.892   1.594 -0.8734 -3.3024  0.1375
  773MOL0     H 1987   8.313   6.082   1.424  0.5715  2.2006  1.3225
  773MOL0     H 1988   8.419   6.127   1.552  1.9761 -0.4478 -0.1006
  773MOL0     H 1989   8.072   5.956   1.511  0.6485  1.4846 -0.1617
  773MOL0     H 1990   7.950   5.839   1.871 -0.1470 -1.2381  1.1244
  773MOL0     H 1991   7.969   5.761   1.722  1.8512 -0.8619  2.8610
  773MOL0     H 1992   7.762   5.895   1.758  0.8650 -0.0713  0.9399
  773MOL0     H 1993   7.838   5.970   1.621 -2.3733 -0.7091 -0.0631
  773MOL0     H 1994   7.832   6.088   1.911  0.5405  2.6171  0.6911
  773MOL0     H 1995   7.942   6.141   1.780  0.1580 -0.2686 -1.5215
  773MOL0     H 1996   7.733   6.172   1.628  2.5266  4.2908 -0.0424
  773MOL0     H 1997   7.754   6.277   1.762 -0.1353 -0.3667 -0.7811
  773MOL0     H 1998   7.443   6.111   1.978 -5.9609 -3.4320 -1.9395
  773MOL0     H 1999   7.236   6.250   2.008 -1.1764 -1.2113 -1.4586
  773MOL0     H 2000   6.842   6.490   1.813  1.8567 -0.6931 -0.2207
  773MOL0     H 2001   6.663   6.644   1.825 -1.1879  2.9451  2.1029
  773MOL0     H 2002   6.557   6.819   1.951 -0.7175  0.5580  0.2516
  773MOL0     H 2003   6.465   6.883   1.823  0.0303  1.2944  0.7842
  773MOL0     H 2004   6.554   7.106   1.881  0.1444 -1.5700 -1.1724
  773MOL0     H 2005   6.606   7.019   2.031 -3.0055 -3.4583  3.1741
  773MOL0     H 2006   6.373   6.944   2.069  1.9256 -0.7312 -0.5199
  773MOL0     H 2007   6.311   7.034   1.934  2.2099 -0.0291 -2.5105
  773MOL0     H 2008   6.261   7.155   2.130 -0.4274 -0.9456  0.0030
  773MOL0     H 2009   6.428   7.171   2.180  0.1192  1.9544 -0.9166
  773MOL0     H 2010   6.339   7.295   1.922 -1.9330 -0.7254  1.7658
  773MOL0     H 2011   6.498   7.306   1.997 -0.1600 -1.2914  0.5394
  773MOL0     H 2012   6.441   7.422   2.180  2.2147 -1.1960 -3.3124
  773MOL0     H 2013   6.269   7.409   2.151 -0.0045  0.2267  0.0489
  773MOL0     H 2014   6.455   7.540   1.947  0.0462  0.1477  0.0217
  773MOL0     H 2015   6.291   7.558   1.955  0.6691 -3.8926 -1.2355
  773MOL0     H 2016   6.361   7.761   2.047 -0.9591 -0.4276 -1.3227
  773MOL0     H 2017   6.502   7.695   2.131 -0.1692 -1.3060 -0.6089
  773MOL0     H 2018   6.899   6.983   1.818 -1.2906  0.1943 -1.0672
  773MOL0     H 2019   7.122   6.826   1.809 -0.2474  0.2277  2.5003
  773MOL0     H 2020   7.358   6.492   1.670  3.2494  1.0387  0.6922
  773MOL0     H 2021   7.553   6.359   1.640 -1.7515  2.7167 -1.1595
  773MOL0     H 2022   9.028   6.289   1.870  0.3557 -0.4131  1.3144
  773MOL0     H 2023   9.194   6.461   1.957 -2.1774 -1.2210  0.3168
  773MOL0     H 2024   9.781   6.641   1.804  0.0625  3.1185 -1.2370
  773MOL0     H 2025   9.884   6.831   1.912 -0.0368  1.4884  0.1379
  773MOL0     H 2026   9.890   7.045   2.004 -3.0889  0.1460  1.3228
  773MOL0     H 2027   9.981   6.921   2.112 -0.3620 -1.0462  0.1889
  773MOL0     H 2028  10.041   7.131   2.176  1.6756 -3.8327  0.9257
  773MOL0     H 2029   9.867   7.182   2.191  1.1132  1.4952 -1.9857
  773MOL0     H 2030   9.846   7.056   2.385  0.0112  1.5755  1.0061
  773MOL0     H 2031  10.001   7.144   2.412  0.5156 -0.9279  2.1210
  773MOL0     H 2032   9.988   6.838   2.351 -1.1337  0.6339  1.4801
  773MOL0     H 2033  10.140   6.935   2.329 -1.2517  0.5887 -3.1821
  773MOL0     H 2034  10.141   6.903   2.740 -2.9475  0.6789  0.8077
  773MOL0     H 2035   9.561   6.844   2.204 -0.8362 -0.9505  0.1959
  773MOL0     H 2036   9.454   6.651   2.087 -0.1497  0.5036  0.5798
  774MOL0     O 2037   2.501  10.064   4.923  0.2794  0.1048  0.6424
  774MOL0     C 2038   2.522  10.120   5.027  0.2863 -0.1523 -0.9131
  774MOL0     O 2039   2.428  10.160   5.120  0.2338 -0.2552  0.1717
  774MOL0     C 2040   2.304  10.099   5.099  0.2284 -0.9027  0.1737
  774MOL0     C 2041   2.211  10.169   5.020  1.2507  0.0938 -0.1280
  774MOL0     C 2042   2.080  10.115   4.996 -0.0681  0.2375  0.0144
  774MOL0     C 2043   2.044   9.984   5.052 -0.3736 -0.7190  0.0523
  774MOL0     O 2044   1.912   9.945   5.046  0.1803 -0.2829 -0.4706
  774MOL0     C 2045   1.860   9.878   5.156  0.0075  0.6766 -0.7361
  774MOL0     C 2046   1.715   9.841   5.135  0.3358  0.1871 -0.2842
  774MOL0     C 2047   1.644   9.808   5.265  0.1050  0.0418  0.2453
  774MOL0     C 2048   1.501   9.784   5.234  0.3508 -0.1849  0.4961
  774MOL0     C 2049   1.402   9.785   5.352 -0.1040 -0.0908  0.1066
  774MOL0     C 2050   1.265   9.724   5.311  0.3469  0.7990 -0.1459
  774MOL0     C 2051   1.138   9.758   5.383  0.6379  0.8970 -0.5975
  774MOL0     C 2052   1.067   9.622   5.407  0.6174  0.1162  0.4944
  774MOL0     N 2053   1.139   9.552   5.511  0.3380 -0.7732  0.1336
  774MOL0     C 2054   1.144   9.600   5.639  0.0668  0.0380  0.1567
  774MOL0     C 2055   1.210   9.504   5.705  0.2757 -0.0599  0.6052
  774MOL0     C 2056   1.263   9.509   5.849 -0.9029  0.6863  0.0868
  774MOL0     C 2057   1.246   9.371   5.919 -0.9976  0.5642  0.4482
  774MOL0     C 2058   1.105   9.303   5.914  0.5645 -0.7597  1.1275
  774MOL0     C 2059   1.103   9.181   6.002  0.0726 -0.1033  0.0918
  774MOL0     O 2060   0.966   9.139   6.006 -0.1296  0.6101 -0.2187
  774MOL0     C 2061   0.874   9.208   6.090 -0.2380 -0.7149 -0.1598
  774MOL0     C 2062   0.911   9.291   6.198  0.1290  0.8302  0.3870
  774MOL0     C 2063   0.815   9.358   6.275 -0.1575  0.1538  0.2598
  774MOL0     C 2064   0.681   9.350   6.247  0.1077 -0.4440  0.2988
  774MOL0     C 2065   0.585   9.414   6.331 -0.2275  0.5516 -0.3533
  774MOL0     O 2066   0.459   9.444   6.275 -0.2940  0.5920  0.0684
  774MOL0     C 2067   0.384   9.536   6.338 -0.4501  0.5529 -0.4032
  774MOL0     C 2068   0.299   9.498   6.438  0.2306  0.0665 -0.4096
  774MOL0     C 2069   0.241   9.603   6.517  0.4950 -0.1328 -0.5541
  774MOL0     C 2070   0.272   9.739   6.495  0.5944  0.1225  0.0850
  774MOL0     O 2071   0.207   9.826   6.569  0.1386 -0.3143 -0.6621
  774MOL0     C 2072   0.245   9.970   6.567 -0.1876  0.3719  0.1531
  774MOL0     C 2073   0.154  10.063   6.649  0.2052 -0.1723 -0.3527
  774MOL0     C 2074   0.122  10.006   6.785  0.5782 -0.0254 -0.3412
  774MOL0     C 2075   0.017  10.080   6.860  0.9215 -0.1812 -0.4348
  774MOL0     C 2076  -0.015  10.004   6.985  0.8489 -0.6651  0.2402
  774MOL0     C 2077  -0.123  10.077   7.064 -0.2033 -0.1167  0.0298
  774MOL0     C 2078  -0.270  10.062   7.020  0.3720  0.1491 -0.1390
  774MOL0     C 2079  -0.359  10.153   7.106 -0.4590 -0.1159  0.3181
  774MOL0    Cl 2080  -0.324  10.325   7.060 -0.2118 -0.0403 -0.7073
  774MOL0     C 2081   0.374   9.773   6.394 -0.8656  0.6972 -0.1662
  774MOL0     C 2082   0.427   9.665   6.318 -0.1996  0.8998 -0.4111
  774MOL0     O 2083   0.614   9.428   6.450 -0.0923 -0.9233  0.0376
  774MOL0     C 2084   0.646   9.281   6.126  0.4182  0.5561 -0.1499
  774MOL0     C 2085   0.738   9.210   6.056  0.5366  0.4803  0.3987
  774MOL0     N 2086   1.221   9.392   5.622  0.2673  0.4211 -0.0085
  774MOL0     N 2087   1.179   9.424   5.509 -0.5430  0.1446 -0.1865
  774MOL0     C 2088   2.144   9.917   5.120  0.3268 -0.5198  0.3842
  774MOL0     C 2089   2.276   9.969   5.142  0.3568  0.1608  0.1062
  774MOL0     C 2090   2.662  10.154   5.050  0.8678 -0.3941  0.3500
  774MOL0     C 2091   2.692  10.254   5.138  0.0585  0.0526 -0.9004
  774MOL0     C 2092   2.823  10.283   5.159  0.1322 -0.2245  0.1793
  774MOL0     C 2093   2.924  10.242   5.073 -0.6235 -0.4305  0.3457
  774MOL0     O 2094   3.046  10.280   5.095  0.6739 -0.2034  0.0859
  774MOL0     C 2095   3.076  10.417   5.115 -0.3681 -0.1164  0.7162
  774MOL0     C 2096   3.150  10.471   5.000  0.4542  0.1656 -0.3198
  774MOL0     C 2097   3.069  10.476   4.870  0.6810 -0.2564 -0.4877
  774MOL0     C 2098   3.132  10.556   4.757 -0.0683 -0.2865  1.0429
  774MOL0     C 2099   3.141  10.700   4.789 -0.2356  0.9479 -0.5411
  774MOL0     C 2100   3.149  10.817   4.806 -0.3739  0.7205  0.2908
  774MOL0     C 2101   2.901  10.134   4.992 -0.9854  0.2550 -0.4313
  774MOL0     C 2102   2.766  10.091   4.977 -0.3821 -0.4099  0.0717
  774MOL0     H 2103   2.226  10.271   4.986 -0.2307  0.4443  0.1918
  774MOL0     H 2104   2.008  10.164   4.930 -1.3315 -1.7846 -0.1873
  774MOL0     H 2105   1.880   9.944   5.241  0.4947  0.5601 -0.7571
  774MOL0     H 2106   1.918   9.785   5.159  2.1186  1.9160 -0.7508
  774MOL0     H 2107   1.718   9.751   5.074  0.1915 -1.2285  1.6939
  774MOL0     H 2108   1.661   9.922   5.083 -1.3489 -0.8998 -0.3154
  774MOL0     H 2109   1.656   9.889   5.338  2.4925 -0.7802  0.8483
  774MOL0     H 2110   1.691   9.720   5.308  1.2074  0.8522  0.7421
  774MOL0     H 2111   1.477   9.865   5.165  4.6715  1.6435  0.8394
  774MOL0     H 2112   1.485   9.684   5.192  0.6635  0.1242 -0.3837
  774MOL0     H 2113   1.401   9.885   5.398 -0.4025 -0.7014  1.4795
  774MOL0     H 2114   1.438   9.720   5.432  0.8275 -1.4723 -1.3817
  774MOL0     H 2115   1.280   9.616   5.307  1.6697  0.9188  0.8558
  774MOL0     H 2116   1.243   9.765   5.212  0.2692 -1.1222 -0.9651
  774MOL0     H 2117   1.155   9.827   5.466  1.5079  1.7899 -1.4839
  774MOL0     H 2118   1.073   9.820   5.319 -2.1069  1.3999  2.4119
  774MOL0     H 2119   1.076   9.556   5.320 -0.2998 -0.8193  1.0907
  774MOL0     H 2120   0.962   9.641   5.432 -0.0169 -1.7897 -0.5216
  774MOL0     H 2121   1.122   9.699   5.676  1.8414  0.2334  0.7824
  774MOL0     H 2122   1.210   9.581   5.912  0.8816  1.4708  0.7650
  774MOL0     H 2123   1.368   9.540   5.853 -0.5739 -0.1185 -1.4578
  774MOL0     H 2124   1.271   9.380   6.025 -0.7575  2.7517  0.2339
  774MOL0     H 2125   1.318   9.298   5.879 -0.6115  0.3389  1.5182
  774MOL0     H 2126   1.037   9.388   5.931  1.1678  0.2864 -1.2897
  774MOL0     H 2127   1.088   9.271   5.811 -0.0633  0.7135  0.7334
  774MOL0     H 2128   1.159   9.193   6.095 -1.3418  0.4429  0.9140
  774MOL0     H 2129   1.159   9.104   5.948 -0.8794 -2.4303  2.2325
  774MOL0     H 2130   1.016   9.292   6.226  0.9424 -1.8960 -2.0824
  774MOL0     H 2131   0.850   9.419   6.358  2.3744  0.4859 -0.9295
  774MOL0     H 2132   0.273   9.396   6.465 -0.7895  0.2581 -0.6344
  774MOL0     H 2133   0.160   9.593   6.588  1.2245  0.4944  0.3975
  774MOL0     H 2134   0.229  10.007   6.465  1.9042 -1.1433 -0.7947
  774MOL0     H 2135   0.349   9.984   6.597 -0.0970  1.8439 -0.7452
  774MOL0     H 2136   0.064  10.073   6.587  0.5707  0.4725 -0.7976
  774MOL0     H 2137   0.194  10.165   6.651  1.0639 -0.4772 -1.2023
  774MOL0     H 2138   0.210   9.994   6.849 -0.2353 -2.2005  0.4670
  774MOL0     H 2139   0.082   9.905   6.770  1.0029 -0.5281  1.6348
  774MOL0     H 2140   0.059  10.177   6.887  1.6488 -1.2886  2.8350
  774MOL0     H 2141  -0.074  10.107   6.806 -1.1428  1.1416  3.3165
  774MOL0     H 2142   0.070  10.000   7.054  0.6995  0.3061  0.5008
  774MOL0     H 2143  -0.040   9.901   6.960 -0.1435 -0.9556  2.1942
  774MOL0     H 2144  -0.093  10.181   7.080 -2.2990  0.7885 -1.5705
  774MOL0     H 2145  -0.114  10.027   7.161  0.3779  1.4883  0.8471
  774MOL0     H 2146  -0.284  10.093   6.917 -2.1582 -1.0707 -0.2309
  774MOL0     H 2147  -0.303   9.958   7.029  0.7043  0.1422  1.2302
  774MOL0     H 2148  -0.334  10.138   7.211  1.2224  2.4841  0.3890
  774MOL0     H 2149  -0.466  10.131   7.098 -1.6282  3.8666  2.1250
  774MOL0     H 2150   0.404   9.875   6.371  0.2386  0.3317 -0.4032
  774MOL0     H 2151   0.505   9.679   6.243  0.7949  1.1050  0.6310
  774MOL0     H 2152   0.545   9.272   6.086  0.3328  1.8237 -0.2597
  774MOL0     H 2153   0.700   9.144   5.978  0.2950 -1.3606  1.9931
  774MOL0     H 2154   2.131   9.823   5.172 -0.7838  0.1220  1.3232
  774MOL0     H 2155   2.342   9.906   5.200  0.9408  0.9807  0.3466
  774MOL0     H 2156   2.613  10.309   5.188  0.2217  0.9031 -1.5512
  774MOL0     H 2157   2.861  10.348   5.237  2.1769 -0.5218 -0.5189
  774MOL0     H 2158   3.134  10.416   5.208  0.3963 -3.3789  0.3140
  774MOL0     H 2159   2.986  10.475   5.139  0.2139  1.0438  0.1616
  774MOL0     H 2160   3.178  10.573   5.029  0.2443 -0.0308  0.6042
  774MOL0     H 2161   3.244  10.419   4.983  1.7863  1.7604  1.7938
  774MOL0     H 2162   2.967  10.506   4.892 -1.0684 -4.9470 -0.9761
  774MOL0     H 2163   3.049  10.376   4.830  1.2390  0.0261 -1.5155
  774MOL0     H 2164   3.234  10.516   4.752 -0.0724 -0.3757  1.6362
  774MOL0     H 2165   3.079  10.554   4.661 -1.6111  0.6836  1.8375
  774MOL0     H 2166   3.165  10.921   4.827  0.0594  1.0579 -1.4648
  774MOL0     H 2167   2.992  10.092   4.950  0.1569  0.6969  1.4702
  774MOL0     H 2168   2.735  10.006   4.916  0.1482 -0.0776 -0.6823
  775MOL0     O 2169   1.322   2.832   6.985 -0.3438 -0.1282 -0.2179
  775MOL0     C 2170   1.330   2.799   6.868  0.0998  0.0750  0.1252
  775MOL0     O 2171   1.227   2.792   6.778 -0.1507 -1.1186 -0.1465
  775MOL0     C 2172   1.102   2.827   6.830  0.0608 -0.6781 -0.7105
  775MOL0     C 2173   1.067   2.956   6.886  0.0667  0.2375 -0.2775
  775MOL0     C 2174   0.949   2.970   6.949 -0.2288 -0.8924 -0.5988
  775MOL0     C 2175   0.851   2.870   6.949 -0.1063  0.4205  0.2369
  775MOL0     O 2176   0.745   2.897   7.025  0.5063 -0.0294  0.1182
  775MOL0     C 2177   0.621   2.876   6.957  0.0646 -0.2763 -0.1038
  775MOL0     C 2178   0.510   2.933   7.053  1.1099 -0.1557 -0.5400
  775MOL0     C 2179   0.379   2.910   6.983  0.0665  0.3067 -0.1160
  775MOL0     C 2180   0.260   2.989   7.047 -0.4718 -0.0425  0.4941
  775MOL0     C 2181   0.134   2.917   7.001  0.2352 -0.0969 -0.3497
  775MOL0     C 2182   0.011   2.979   7.064  0.0912  0.4440  0.5833
  775MOL0     C 2183  -0.113   2.905   7.016 -0.0645 -0.5756 -0.6423
  775MOL0     C 2184  -0.233   2.970   7.092  0.1140  0.5573  0.6070
  775MOL0     N 2185  -0.356   2.887   7.089 -0.3642  0.9439  0.1104
  775MOL0     C 2186  -0.368   2.770   7.157  0.3571 -0.3910  0.7738
  775MOL0     C 2187  -0.497   2.735   7.125  0.4589  0.2338 -0.7466
  775MOL0     C 2188  -0.581   2.608   7.167  0.1056 -0.6627  0.4264
  775MOL0     C 2189  -0.726   2.608   7.124  1.3146  0.4980 -0.4716
  775MOL0     C 2190  -0.799   2.728   7.194  0.5786 -0.1895 -0.8197
  775MOL0     C 2191  -0.950   2.723   7.193  0.7889 -0.1085  0.1057
  775MOL0     O 2192  -1.007   2.717   7.327  0.6957  0.9108  0.4845
  775MOL0     C 2193  -1.138   2.688   7.329  0.2817 -0.1692 -0.4188
  775MOL0     C 2194  -1.232   2.790   7.363 -0.2481 -0.4762  0.1595
  775MOL0     C 2195  -1.365   2.756   7.377  0.2171  0.8313 -0.5264
  775MOL0     C 2196  -1.410   2.628   7.357  0.0589  0.3344  0.0503
  775MOL0     C 2197  -1.551   2.594   7.379  0.2737  0.4109  0.4578
  775MOL0     O 2198  -1.638   2.701   7.359 -0.0840 -0.3563 -0.1638
  775MOL0     C 2199  -1.773   2.667   7.364  0.9104 -0.5000  0.9951
  775MOL0     C 2200  -1.846   2.695   7.476  0.0370  0.3297  0.2007
  775MOL0     C 2201  -1.986   2.665   7.475 -0.1772  0.8442  0.1434
  775MOL0     C 2202  -2.041   2.598   7.363 -0.3713 -0.2894  0.1609
  775MOL0     O 2203  -2.168   2.545   7.366  0.2569 -0.2620 -0.4083
  775MOL0     C 2204  -2.209   2.501   7.497  0.1094 -0.4560 -0.5265
  775MOL0     C 2205  -2.321   2.402   7.474  0.5639 -0.5174  0.0780
  775MOL0     C 2206  -2.449   2.468   7.428 -0.3718  0.3150 -0.9269
  775MOL0     C 2207  -2.575   2.386   7.416 -0.6250  0.6119  1.2246
  775MOL0     C 2208  -2.700   2.464   7.399 -0.4452 -0.6701  0.1904
  775MOL0     C 2209  -2.816   2.369   7.365 -0.5542  0.2667 -0.5715
  775MOL0     C 2210  -2.948   2.435   7.354 -0.6590  1.1147 -1.1279
  775MOL0     C 2211  -3.055   2.349   7.283  0.6103 -0.5239 -0.2826
  775MOL0    Cl 2212  -3.220   2.432   7.277 -0.0594 -0.3414  0.0367
  775MOL0     C 2213  -1.966   2.585   7.246  0.4261  0.0649  0.7918
  775MOL0     C 2214  -1.832   2.611   7.246 -0.7984  0.4026  0.3095
  775MOL0     O 2215  -1.585   2.479   7.405  1.0330  0.0184  0.1480
  775MOL0     C 2216  -1.317   2.527   7.326  0.1754 -0.4236 -0.0592
  775MOL0     C 2217  -1.180   2.557   7.307  1.1421 -0.0225 -0.1851
  775MOL0     N 2218  -0.552   2.823   7.034  1.0408  0.4471  0.4924
  775MOL0     N 2219  -0.464   2.917   7.014  0.2082  0.0957 -0.9403
  775MOL0     C 2220   0.879   2.749   6.885 -0.3178 -0.5156  0.0005
  775MOL0     C 2221   1.007   2.724   6.831  0.4863 -0.9962 -0.2560
  775MOL0     C 2222   1.455   2.742   6.827 -0.2365 -0.3932  0.6383
  775MOL0     C 2223   1.569   2.816   6.860  1.0844 -1.1559 -0.1079
  775MOL0     C 2224   1.689   2.770   6.817  0.4893 -0.4659  0.0074
  775MOL0     C 2225   1.698   2.666   6.719  0.0237 -0.4953  0.3244
  775MOL0     O 2226   1.825   2.638   6.679 -0.2358 -0.1049  0.4337
  775MOL0     C 2227   1.839   2.542   6.577 -0.5273 -0.7579  0.4060
  775MOL0     C 2228   1.979   2.486   6.554  0.2298  0.4373  0.1594
  775MOL0     C 2229   2.062   2.468   6.678  0.8052  0.2537  0.2320
  775MOL0     C 2230   2.201   2.423   6.647  0.4063 -0.1888 -0.2862
  775MOL0     C 2231   2.276   2.413   6.771 -0.0648 -0.1036 -0.1404
  775MOL0     C 2232   2.323   2.412   6.889 -0.5952 -0.6556  0.0053
  775MOL0     C 2233   1.584   2.604   6.671 -1.0140 -0.0155 -0.5245
  775MOL0     C 2234   1.469   2.643   6.732  0.5651  0.1311  0.5140
  775MOL0     H 2235   1.135   3.039   6.873 -0.9141  0.8489 -1.8697
  775MOL0     H 2236   0.926   3.062   7.001 -2.5384 -0.4796 -2.1908
  775MOL0     H 2237   0.591   2.776   6.925 -0.0474  0.0695 -1.1049
  775MOL0     H 2238   0.613   2.928   6.862 -3.0178  0.0221  0.2245
  775MOL0     H 2239   0.521   3.040   7.069 -0.6307  0.2585 -1.8743
  775MOL0     H 2240   0.507   2.896   7.156  2.2168  0.4442 -0.2849
  775MOL0     H 2241   0.354   2.806   7.008 -0.3704  0.6856  1.1088
  775MOL0     H 2242   0.386   2.929   6.876  1.6719  1.0875  0.0955
  775MOL0     H 2243   0.263   2.979   7.156  1.7664  0.8526  0.5661
  775MOL0     H 2244   0.270   3.094   7.018 -0.8554  1.0378  3.8557
  775MOL0     H 2245   0.136   2.809   7.012 -0.6828 -0.1680 -0.8218
  775MOL0     H 2246   0.133   2.936   6.893 -0.0827 -1.2497 -0.5565
  775MOL0     H 2247   0.012   3.080   7.022  3.7409  0.4424  0.3298
  775MOL0     H 2248   0.018   2.980   7.173  1.5354 -0.3376  0.5226
  775MOL0     H 2249  -0.137   2.925   6.911  2.5635 -0.6234 -1.3296
  775MOL0     H 2250  -0.111   2.799   7.042  0.2422 -0.8908 -1.9047
  775MOL0     H 2251  -0.248   3.069   7.047  0.4899 -0.4261 -1.8917
  775MOL0     H 2252  -0.200   2.990   7.194 -0.8530 -2.7941  1.6993
  775MOL0     H 2253  -0.300   2.714   7.221  1.5457 -2.3048 -1.9624
  775MOL0     H 2254  -0.585   2.615   7.276  0.3448  1.1189  0.3463
  775MOL0     H 2255  -0.540   2.513   7.132 -1.8879 -2.1269  1.8190
  775MOL0     H 2256  -0.767   2.513   7.157 -0.5551  0.6441 -2.1639
  775MOL0     H 2257  -0.743   2.613   7.016 -0.2838  0.3385 -0.2554
  775MOL0     H 2258  -0.761   2.731   7.296 -0.6169  2.4571 -0.3893
  775MOL0     H 2259  -0.768   2.822   7.147 -3.5650  0.0636 -3.5691
  775MOL0     H 2260  -0.969   2.631   7.138  0.7717  1.0204 -1.8845
  775MOL0     H 2261  -0.992   2.803   7.130  1.0808 -0.9715 -1.2276
  775MOL0     H 2262  -1.202   2.893   7.383 -1.2013  0.7498 -3.7825
  775MOL0     H 2263  -1.435   2.836   7.399 -1.1224 -0.8391  1.7535
  775MOL0     H 2264  -1.781   2.723   7.559  0.7320  0.4305 -0.3726
  775MOL0     H 2265  -2.041   2.685   7.566  0.7341 -2.5986  1.5909
  775MOL0     H 2266  -2.250   2.588   7.549 -0.9145  0.3424 -2.5296
  775MOL0     H 2267  -2.136   2.444   7.555 -2.7976 -1.9205  1.9729
  775MOL0     H 2268  -2.341   2.360   7.573  0.6010 -0.1583  0.2414
  775MOL0     H 2269  -2.301   2.324   7.400  0.2856  1.2266 -1.9513
  775MOL0     H 2270  -2.439   2.501   7.325 -2.0121  3.4059 -0.2109
  775MOL0     H 2271  -2.470   2.556   7.490 -1.8012 -1.3206  1.0593
  775MOL0     H 2272  -2.565   2.327   7.324  0.0635  1.9858  0.3829
  775MOL0     H 2273  -2.579   2.324   7.506  2.2723 -1.1462  0.3077
  775MOL0     H 2274  -2.694   2.533   7.314 -3.2623 -1.9422 -1.1532
  775MOL0     H 2275  -2.717   2.534   7.481 -2.7068  0.2464 -0.9802
  775MOL0     H 2276  -2.825   2.297   7.446  1.1738  0.1944 -0.4146
  775MOL0     H 2277  -2.789   2.311   7.276 -0.7825  1.4819 -1.4704
  775MOL0     H 2278  -2.981   2.450   7.457 -1.8573  0.4689 -1.3986
  775MOL0     H 2279  -2.926   2.523   7.293  2.8623 -0.4415 -2.3665
  775MOL0     H 2280  -3.070   2.247   7.320 -0.3625 -0.6397 -0.9510
  775MOL0     H 2281  -3.019   2.335   7.180 -1.1799  0.2558 -1.0545
  775MOL0     H 2282  -2.020   2.550   7.158  0.7985  2.1522 -0.3415
  775MOL0     H 2283  -1.784   2.586   7.152 -1.2167 -1.8900  0.6397
  775MOL0     H 2284  -1.344   2.422   7.325 -0.5838 -0.2830  1.8151
  775MOL0     H 2285  -1.111   2.482   7.271  0.9999  0.5654 -1.7814
  775MOL0     H 2286   0.816   2.662   6.896 -1.2172 -0.0039 -0.9439
  775MOL0     H 2287   1.041   2.625   6.802  1.3810 -1.5679  2.4444
  775MOL0     H 2288   1.560   2.898   6.931  1.8862  0.4367 -1.7546
  775MOL0     H 2289   1.782   2.813   6.852  1.4705  0.4230 -3.3521
  775MOL0     H 2290   1.812   2.600   6.489  1.2134  1.9958  1.5485
  775MOL0     H 2291   1.771   2.460   6.601 -1.9926  0.4930  0.6768
  775MOL0     H 2292   1.972   2.388   6.505  3.1543 -0.0817  0.5801
  775MOL0     H 2293   2.027   2.559   6.489  0.6217 -1.1075 -1.3795
  775MOL0     H 2294   2.011   2.389   6.734 -0.5721  0.5110 -0.6286
  775MOL0     H 2295   2.071   2.562   6.732  0.9318  1.4636 -1.8223
  775MOL0     H 2296   2.195   2.325   6.600 -1.6895 -0.7500  1.0156
  775MOL0     H 2297   2.250   2.498   6.584 -1.0894  0.8088 -0.3043
  775MOL0     H 2298   2.357   2.424   6.990 -0.5710 -1.2950  0.0762
  775MOL0     H 2299   1.578   2.533   6.589 -2.8669  0.5726 -0.9477
  775MOL0     H 2300   1.381   2.601   6.684  1.2758  1.8049 -2.4942
  776MOL0     O 2301   8.776   2.996   1.346 -0.0002 -0.7502  0.4347
  776MOL0     C 2302   8.883   2.988   1.393 -0.9818  0.2865  0.2930
  776MOL0     O 2303   8.948   2.869   1.418  0.3112 -0.0994 -0.6562
  776MOL0     C 2304   8.908   2.736   1.394 -0.3046 -0.2359 -0.0484
  776MOL0     C 2305   8.995   2.645   1.331  0.0229  0.0241  0.8937
  776MOL0     C 2306   8.944   2.515   1.294 -0.4955  0.4989  0.1976
  776MOL0     C 2307   8.815   2.473   1.317 -0.2162 -0.2315  0.0672
  776MOL0     O 2308   8.773   2.348   1.292  0.3009  0.5188  0.3681
  776MOL0     C 2309   8.752   2.320   1.147  0.0946 -0.4392 -0.6544
  776MOL0     C 2310   8.633   2.219   1.151  0.5777  0.5890  0.5164
  776MOL0     C 2311   8.606   2.133   1.028  0.2232  0.1467  0.3379
  776MOL0     C 2312   8.526   2.004   1.051 -0.3232  0.5192  0.4232
  776MOL0     C 2313   8.497   1.934   0.917 -0.8350  0.2888  0.5206
  776MOL0     C 2314   8.429   1.800   0.949  0.5756  0.5884  0.3943
  776MOL0     C 2315   8.413   1.709   0.831 -0.0625  0.3303  0.6064
  776MOL0     C 2316   8.313   1.767   0.731  0.0884 -0.5414 -0.0563
  776MOL0     N 2317   8.244   1.665   0.653  0.3860  0.9073  0.2844
  776MOL0     C 2318   8.110   1.655   0.636 -0.5224  0.2616 -0.0378
  776MOL0     C 2319   8.086   1.543   0.571 -0.5405  1.0268 -0.4359
  776MOL0     C 2320   7.960   1.477   0.561  0.2772 -0.1073  0.3773
  776MOL0     C 2321   7.947   1.391   0.684  0.1895 -0.4429 -0.1016
  776MOL0     C 2322   7.826   1.311   0.667  0.2647  0.1087  0.7199
  776MOL0     C 2323   7.806   1.204   0.772  0.3616 -0.1368  1.0068
  776MOL0     O 2324   7.765   1.252   0.908  0.2714  0.2912 -0.3599
  776MOL0     C 2325   7.640   1.317   0.923 -0.6618 -0.4040 -0.3065
  776MOL0     C 2326   7.616   1.393   1.037 -0.5284  0.0078 -0.2492
  776MOL0     C 2327   7.491   1.453   1.068 -0.5614  0.4359  0.3668
  776MOL0     C 2328   7.398   1.447   0.963  0.2868  0.0643  0.6182
  776MOL0     C 2329   7.272   1.517   0.979 -0.1911  0.3266 -0.2874
  776MOL0     O 2330   7.270   1.616   1.069 -0.0449 -0.3575 -0.3008
  776MOL0     C 2331   7.163   1.699   1.075 -0.9066  0.8970 -0.5831
  776MOL0     C 2332   7.067   1.661   1.167  0.3669 -0.4130  0.2447
  776MOL0     C 2333   6.957   1.743   1.193 -0.1037  0.4133  0.2199
  776MOL0     C 2334   6.936   1.861   1.109 -0.3980 -0.0528  0.2088
  776MOL0     O 2335   6.817   1.925   1.131 -0.3762  0.1966  0.2453
  776MOL0     C 2336   6.789   2.046   1.063  0.0719 -0.5590  0.1486
  776MOL0     C 2337   6.653   2.107   1.110 -0.3659 -0.8049 -0.2751
  776MOL0     C 2338   6.534   2.028   1.069  0.8122 -0.2311 -0.2452
  776MOL0     C 2339   6.410   2.093   1.121  0.3252  0.1852 -0.2498
  776MOL0     C 2340   6.291   2.015   1.064  0.3440 -0.1346 -0.5510
  776MOL0     C 2341   6.148   2.067   1.096 -0.0935  0.3007 -0.4674
  776MOL0     C 2342   6.135   2.111   1.242  0.7383 -0.1887  0.1292
  776MOL0     C 2343   5.993   2.154   1.257 -0.0723  0.5756 -0.3809
  776MOL0    Cl 2344   5.972   2.233   1.414 -0.2131 -0.0711  0.0948
  776MOL0     C 2345   7.035   1.895   1.016  0.3965  0.2838 -0.3098
  776MOL0     C 2346   7.147   1.819   0.996  0.4386  0.8258 -1.0002
  776MOL0     O 2347   7.189   1.492   0.893  0.4287 -1.0064  1.1893
  776MOL0     C 2348   7.421   1.366   0.854 -0.1289 -0.4953 -0.6824
  776MOL0     C 2349   7.539   1.306   0.830 -0.3806  0.2157  0.2169
  776MOL0     N 2350   8.203   1.504   0.519  0.2748 -0.6584 -0.0163
  776MOL0     N 2351   8.299   1.583   0.575  0.2129  0.2155  0.0826
  776MOL0     C 2352   8.740   2.568   1.383 -0.4045 -0.3724  0.0411
  776MOL0     C 2353   8.777   2.699   1.427 -0.4360  0.0845  0.2298
  776MOL0     C 2354   8.973   3.107   1.418 -0.1676 -0.5493 -0.7331
  776MOL0     C 2355   8.918   3.236   1.404 -0.1275  1.0909 -0.3498
  776MOL0     C 2356   8.980   3.346   1.454 -0.5028 -0.3423 -1.0371
  776MOL0     C 2357   9.103   3.337   1.530  1.1985  0.0331 -0.7475
  776MOL0     O 2358   9.164   3.445   1.589  0.0982  0.2062 -0.2265
  776MOL0     C 2359   9.088   3.564   1.624  0.5047  0.8878 -0.1568
  776MOL0     C 2360   9.173   3.641   1.733  0.3669  0.3285  0.5106
  776MOL0     C 2361   9.073   3.733   1.820  0.8666  0.1218  0.7218
  776MOL0     C 2362   9.000   3.645   1.928 -0.2980  0.6742 -0.3815
  776MOL0     C 2363   8.861   3.618   1.895 -0.0574  0.5575  0.0331
  776MOL0     C 2364   8.746   3.581   1.865 -0.7648 -0.2840 -0.0294
  776MOL0     C 2365   9.169   3.216   1.531  0.2475 -0.1036  1.0021
  776MOL0     C 2366   9.106   3.102   1.471 -0.5688 -0.0972 -0.3635
  776MOL0     H 2367   9.095   2.685   1.316 -0.1905  1.1168  2.1964
  776MOL0     H 2368   9.012   2.444   1.249 -0.3387 -0.5855  2.0370
  776MOL0     H 2369   8.837   2.268   1.103  0.1559  1.0123 -2.4326
  776MOL0     H 2370   8.739   2.415   1.094 -0.4980  0.4545  1.0152
  776MOL0     H 2371   8.541   2.274   1.170  0.6945  0.8709  0.2603
  776MOL0     H 2372   8.640   2.140   1.226 -3.5482 -1.5126 -0.9967
  776MOL0     H 2373   8.696   2.109   0.972 -0.8873  0.1847 -1.5518
  776MOL0     H 2374   8.553   2.203   0.962 -0.5871  0.0818  0.8996
  776MOL0     H 2375   8.579   1.934   1.116 -1.2280 -0.8146 -0.2413
  776MOL0     H 2376   8.433   2.021   1.107 -1.0042 -1.6295  0.0321
  776MOL0     H 2377   8.587   1.912   0.858 -1.2966 -1.1362  0.3026
  776MOL0     H 2378   8.432   1.997   0.856 -1.0682 -0.1557  0.3045
  776MOL0     H 2379   8.328   1.813   0.989  0.8181  1.0465  0.8631
  776MOL0     H 2380   8.488   1.750   1.025  1.8835 -0.9124 -1.5015
  776MOL0     H 2381   8.508   1.686   0.782 -0.1077 -0.2566  0.7922
  776MOL0     H 2382   8.376   1.613   0.867 -0.5434  0.1072 -0.4275
  776MOL0     H 2383   8.363   1.827   0.654 -0.1581 -3.0408 -2.2808
  776MOL0     H 2384   8.245   1.826   0.794  1.4796  1.4295 -0.3018
  776MOL0     H 2385   8.032   1.705   0.693 -0.8073  3.4311 -2.9086
  776MOL0     H 2386   7.962   1.422   0.467  1.2334 -2.2626  1.5855
  776MOL0     H 2387   7.883   1.555   0.562 -0.8855 -1.0681 -2.7063
  776MOL0     H 2388   7.935   1.457   0.771  0.1381  0.7871 -1.0252
  776MOL0     H 2389   8.035   1.328   0.706 -0.8455 -1.3036  1.8010
  776MOL0     H 2390   7.738   1.375   0.655  0.7698  0.3700 -2.2850
  776MOL0     H 2391   7.835   1.258   0.571 -0.0359  0.7616  0.3233
  776MOL0     H 2392   7.892   1.137   0.776  0.0512 -0.6359 -0.1300
  776MOL0     H 2393   7.728   1.136   0.736 -0.8258  1.0675  1.2367
  776MOL0     H 2394   7.696   1.388   1.109 -1.1558 -0.2389  0.4466
  776MOL0     H 2395   7.467   1.507   1.159  1.4543  2.7060 -0.3558
  776MOL0     H 2396   7.084   1.571   1.225  0.7996  0.3422  1.3229
  776MOL0     H 2397   6.890   1.715   1.274 -1.0090  1.8824  0.0207
  776MOL0     H 2398   6.786   2.026   0.956 -0.6832  1.8574 -0.3503
  776MOL0     H 2399   6.874   2.112   1.081  0.0626 -0.6385  0.4946
  776MOL0     H 2400   6.644   2.212   1.080 -2.2773 -0.1196  2.3560
  776MOL0     H 2401   6.655   2.108   1.220 -0.4106 -2.1850 -0.2447
  776MOL0     H 2402   6.540   1.924   1.102  1.7081  0.8699  3.5589
  776MOL0     H 2403   6.535   2.035   0.960  3.3096  3.4076 -0.1624
  776MOL0     H 2404   6.405   2.100   1.230 -1.2721  0.2620 -0.3015
  776MOL0     H 2405   6.400   2.194   1.082 -0.3936 -0.3223 -1.4632
  776MOL0     H 2406   6.296   1.915   1.108  2.9333  0.3523  0.4395
  776MOL0     H 2407   6.288   1.994   0.957 -2.9061 -2.2724 -0.1752
  776MOL0     H 2408   6.079   1.985   1.075 -1.8437  1.3606  0.7557
  776MOL0     H 2409   6.113   2.153   1.038  0.8757  2.1791  1.5791
  776MOL0     H 2410   6.155   2.031   1.314 -0.0700 -0.7570 -0.2763
  776MOL0     H 2411   6.197   2.199   1.263 -1.5112  1.5473 -0.1389
  776MOL0     H 2412   5.927   2.067   1.246  0.2913  0.4443 -1.7428
  776MOL0     H 2413   5.963   2.230   1.185  1.3919  0.8153 -0.7706
  776MOL0     H 2414   7.018   1.978   0.948 -4.3485  1.2708  1.6834
  776MOL0     H 2415   7.221   1.843   0.921  1.9016 -2.0645 -0.5920
  776MOL0     H 2416   7.347   1.349   0.775 -0.7156 -1.1716 -0.0048
  776MOL0     H 2417   7.540   1.244   0.741 -0.7727  0.8809 -0.2564
  776MOL0     H 2418   8.637   2.538   1.403 -0.0171 -0.3220  2.4805
  776MOL0     H 2419   8.713   2.766   1.483 -0.5957 -1.1137  1.5451
  776MOL0     H 2420   8.822   3.237   1.353  0.9051 -1.2302 -2.5762
  776MOL0     H 2421   8.927   3.441   1.450  0.6981  0.3845 -0.2471
  776MOL0     H 2422   8.999   3.529   1.677  0.2680 -0.9696 -1.6660
  776MOL0     H 2423   9.072   3.633   1.540  0.6581 -0.6570 -1.5100
  776MOL0     H 2424   9.247   3.583   1.788  4.5228  1.7461 -2.9990
  776MOL0     H 2425   9.247   3.704   1.684  1.5312 -1.6271 -0.3434
  776MOL0     H 2426   9.005   3.790   1.757  2.4443  0.0819 -1.0861
  776MOL0     H 2427   9.125   3.809   1.878 -0.1372  2.5068 -1.3574
  776MOL0     H 2428   9.056   3.553   1.943 -0.4820  0.7633  0.9657
  776MOL0     H 2429   8.996   3.691   2.027  2.4916  1.5869 -0.6195
  776MOL0     H 2430   8.650   3.539   1.843 -1.1062 -1.1098  2.6568
  776MOL0     H 2431   9.274   3.207   1.557  1.2873 -1.0601 -2.8204
  776MOL0     H 2432   9.158   3.007   1.482  0.9344  0.9579  2.6362
  777MOL0     O 2433   2.318   5.277   8.556 -0.1815 -0.5740 -0.0325
  777MOL0     C 2434   2.323   5.289   8.676 -0.6692  0.3454 -0.0002
  777MOL0     O 2435   2.247   5.219   8.765  0.0065 -0.4187  0.2453
  777MOL0     C 2436   2.181   5.102   8.720 -0.0840  1.0337 -0.3959
  777MOL0     C 2437   2.244   4.994   8.663 -0.1388 -0.6338 -0.0621
  777MOL0     C 2438   2.161   4.881   8.629  1.1240 -0.7639  0.6176
  777MOL0     C 2439   2.025   4.877   8.674  0.1233  0.5271  0.6558
  777MOL0     O 2440   1.952   4.770   8.625 -0.6671 -0.3067  1.0110
  777MOL0     C 2441   2.011   4.637   8.625 -0.4880  0.8094 -0.4710
  777MOL0     C 2442   1.913   4.523   8.619  0.7640  0.0177 -0.2782
  777MOL0     C 2443   1.820   4.525   8.731  0.4380  0.5295 -0.1171
  777MOL0     C 2444   1.746   4.388   8.728 -0.2021  0.2486  0.6417
  777MOL0     C 2445   1.654   4.364   8.845  0.0941  0.4008  0.6897
  777MOL0     C 2446   1.527   4.441   8.836 -0.4514  0.1677  0.1107
  777MOL0     C 2447   1.426   4.407   8.945 -0.0971 -0.3841  0.5023
  777MOL0     C 2448   1.293   4.468   8.930 -0.0577 -0.8185 -0.1851
  777MOL0     N 2449   1.291   4.618   8.939 -0.1151  1.1232 -0.7297
  777MOL0     C 2450   1.329   4.687   9.052 -0.0051  0.1803 -0.3521
  777MOL0     C 2451   1.369   4.807   9.006 -0.4442 -1.2530 -0.4275
  777MOL0     C 2452   1.438   4.907   9.095  0.3036 -0.2310 -0.6528
  777MOL0     C 2453   1.597   4.906   9.075  0.3368 -0.7177 -0.2340
  777MOL0     C 2454   1.657   4.772   9.103  0.2168  1.0964 -0.4387
  777MOL0     C 2455   1.806   4.773   9.051 -0.1215 -0.4487 -0.1582
  777MOL0     O 2456   1.881   4.885   9.114  0.3700 -0.6372 -0.3647
  777MOL0     C 2457   2.015   4.898   9.084  0.1602 -0.9635  0.4000
  777MOL0     C 2458   2.084   4.824   8.985  0.4184  0.9828 -0.8714
  777MOL0     C 2459   2.217   4.844   8.957  0.2720  0.3848 -0.9506
  777MOL0     C 2460   2.284   4.951   9.023  0.3029 -0.6579  0.0414
  777MOL0     C 2461   2.425   4.975   9.000  1.2954 -0.0265 -0.1360
  777MOL0     O 2462   2.468   5.106   9.004 -0.2393  0.3848 -0.1365
  777MOL0     C 2463   2.604   5.140   8.990  0.5796 -0.2011  0.0784
  777MOL0     C 2464   2.654   5.233   9.078  0.6084  0.2509 -0.8098
  777MOL0     C 2465   2.770   5.302   9.042  0.1117  0.1402  0.2794
  777MOL0     C 2466   2.847   5.264   8.929  0.7647  0.3944  0.1056
  777MOL0     O 2467   2.966   5.329   8.903  0.5938 -0.5715 -0.3759
  777MOL0     C 2468   2.990   5.367   8.771 -1.2090 -0.3773  0.6064
  777MOL0     C 2469   3.099   5.468   8.767  0.3106 -0.4730 -0.3035
  777MOL0     C 2470   3.230   5.424   8.832  0.3347 -0.2419  0.2621
  777MOL0     C 2471   3.338   5.507   8.793  0.2831 -1.0995 -0.0909
  777MOL0     C 2472   3.467   5.448   8.862 -0.1512  0.0960  0.1657
  777MOL0     C 2473   3.586   5.538   8.846 -0.1709 -0.2133 -0.0035
  777MOL0     C 2474   3.697   5.485   8.933 -0.0979  0.4708  0.8525
  777MOL0     C 2475   3.811   5.581   8.950  0.6566 -0.7459 -0.3343
  777MOL0    Cl 2476   3.781   5.743   9.025  0.2178  0.2832  0.1578
  777MOL0     C 2477   2.799   5.155   8.850 -0.4073 -0.2135  0.3467
  777MOL0     C 2478   2.679   5.107   8.878  0.4749  0.8159  0.3539
  777MOL0     O 2479   2.498   4.881   8.989  1.0185  0.1922 -0.6552
  777MOL0     C 2480   2.213   5.031   9.113 -0.4285 -0.2346 -0.6633
  777MOL0     C 2481   2.084   5.000   9.149  0.5943  0.4587 -0.1295
  777MOL0     N 2482   1.335   4.825   8.875  0.0453  0.0436 -0.3407
  777MOL0     N 2483   1.283   4.710   8.837  0.3539  0.2574  0.2061
  777MOL0     C 2484   1.975   4.987   8.744 -0.3632 -0.1192 -0.1380
  777MOL0     C 2485   2.049   5.101   8.764  0.3106  0.1829  0.0728
  777MOL0     C 2486   2.410   5.406   8.728 -0.3843  0.0160  0.2032
  777MOL0     C 2487   2.380   5.461   8.850 -1.0011 -0.2299 -0.9321
  777MOL0     C 2488   2.476   5.541   8.916 -0.5040  0.4062  0.6085
  777MOL0     C 2489   2.588   5.590   8.849  0.0839  0.0581  0.4906
  777MOL0     O 2490   2.669   5.666   8.921  0.7447  0.1131  0.8818
  777MOL0     C 2491   2.806   5.686   8.883  0.6397  0.3647 -0.8017
  777MOL0     C 2492   2.865   5.781   8.981  0.5761  0.0764 -0.1346
  777MOL0     C 2493   3.014   5.793   8.981 -0.3319 -0.1037  0.2675
  777MOL0     C 2494   3.087   5.699   9.083  0.1299  0.4623  0.5896
  777MOL0     C 2495   3.229   5.725   9.088 -0.3751 -0.0325 -0.5143
  777MOL0     C 2496   3.351   5.759   9.103  0.6853  0.1238  0.5294
  777MOL0     C 2497   2.612   5.542   8.714  0.3636 -0.5970  0.9820
  777MOL0     C 2498   2.528   5.449   8.662  0.0114 -0.4321 -0.4077
  777MOL0     H 2499   2.349   5.003   8.635 -0.4122 -0.0945 -0.9337
  777MOL0     H 2500   2.202   4.806   8.562  1.0686 -0.8192  0.6457
  777MOL0     H 2501   2.080   4.629   8.710  1.4100  0.9598 -1.9134
  777MOL0     H 2502   2.065   4.621   8.531 -0.7521 -0.3761 -0.4418
  777MOL0     H 2503   1.979   4.435   8.616  2.2986  1.1458 -0.9333
  777MOL0     H 2504   1.866   4.526   8.520 -0.4176 -0.6039  0.2373
  777MOL0     H 2505   1.749   4.609   8.730  1.1773  1.2195  1.3758
  777MOL0     H 2506   1.875   4.542   8.825  0.7578 -0.4787 -0.1103
  777MOL0     H 2507   1.684   4.386   8.638 -0.1715  1.3105  0.5806
  777MOL0     H 2508   1.830   4.318   8.730  2.2394  2.9963  1.4013
  777MOL0     H 2509   1.708   4.387   8.937  0.6106  1.5414  0.1180
  777MOL0     H 2510   1.634   4.256   8.847 -0.5254  0.5119  0.5545
  777MOL0     H 2511   1.487   4.419   8.737 -2.7833  0.1841  0.9965
  777MOL0     H 2512   1.552   4.548   8.838 -1.8413  0.6227 -2.7413
  777MOL0     H 2513   1.423   4.298   8.949  1.8903 -0.5327 -0.8025
  777MOL0     H 2514   1.458   4.447   9.042 -0.0906  0.0727  0.3142
  777MOL0     H 2515   1.223   4.427   9.004  1.0077 -2.4354 -0.0094
  777MOL0     H 2516   1.249   4.435   8.836 -2.6151 -0.9474  0.9743
  777MOL0     H 2517   1.332   4.646   9.152 -0.2555  1.8838  0.3895
  777MOL0     H 2518   1.421   4.889   9.202  0.1579 -0.2725 -0.6832
  777MOL0     H 2519   1.404   5.008   9.068 -0.8156 -0.0576  1.1960
  777MOL0     H 2520   1.628   4.977   9.152 -1.9055 -0.8671  0.9160
  777MOL0     H 2521   1.631   4.938   8.976  0.1549 -0.7105 -0.2949
  777MOL0     H 2522   1.648   4.758   9.211  2.6069  2.4459 -0.0080
  777MOL0     H 2523   1.606   4.693   9.047  2.6735 -1.3998  0.6044
  777MOL0     H 2524   1.799   4.784   8.942 -1.4276 -2.6975 -0.3562
  777MOL0     H 2525   1.846   4.674   9.070  0.0954  0.0975  2.5668
  777MOL0     H 2526   2.026   4.755   8.924  3.3284 -0.3124 -2.3853
  777MOL0     H 2527   2.262   4.777   8.884  2.4735  1.4667 -0.6690
  777MOL0     H 2528   2.595   5.248   9.168 -3.2494 -0.5183 -2.9953
  777MOL0     H 2529   2.811   5.371   9.115 -0.3823 -0.9049  1.5934
  777MOL0     H 2530   2.902   5.413   8.724  0.3132  0.9379 -1.0938
  777MOL0     H 2531   3.023   5.282   8.709 -0.8143 -1.7936  2.6642
  777MOL0     H 2532   3.070   5.558   8.822  1.6083  1.8734 -3.1399
  777MOL0     H 2533   3.120   5.508   8.667 -0.2624  2.0592  0.5032
  777MOL0     H 2534   3.257   5.325   8.795  0.3196 -0.7920  1.6852
  777MOL0     H 2535   3.218   5.404   8.939 -2.5105 -0.7998 -0.0804
  777MOL0     H 2536   3.357   5.513   8.686 -1.2320  1.2084 -0.3181
  777MOL0     H 2537   3.330   5.604   8.843  3.5783 -2.0099  2.6349
  777MOL0     H 2538   3.490   5.348   8.824  1.3037  0.1322  0.8757
  777MOL0     H 2539   3.450   5.435   8.970  1.2825  0.6030  0.4740
  777MOL0     H 2540   3.570   5.640   8.879 -0.8126  0.1202 -1.2930
  777MOL0     H 2541   3.629   5.537   8.745 -0.5152  0.9612 -0.1752
  777MOL0     H 2542   3.659   5.446   9.028 -2.4254 -2.9662 -1.2521
  777MOL0     H 2543   3.744   5.396   8.889 -3.0490 -0.3825 -0.8452
  777MOL0     H 2544   3.861   5.589   8.853 -0.0040  0.0262 -0.6205
  777MOL0     H 2545   3.883   5.532   9.016  0.8030  2.9847  2.6173
  777MOL0     H 2546   2.836   5.117   8.755 -1.4207 -1.2208  0.3251
  777MOL0     H 2547   2.634   5.036   8.809 -3.4578  1.7144  1.7499
  777MOL0     H 2548   2.261   5.115   9.162 -1.4697 -0.1178  0.2182
  777MOL0     H 2549   2.041   5.057   9.231 -0.4354 -0.2522 -0.1488
  777MOL0     H 2550   1.873   4.994   8.778  0.3174  3.1651  1.7041
  777MOL0     H 2551   2.009   5.187   8.816 -0.4943 -1.4463  2.3306
  777MOL0     H 2552   2.285   5.437   8.897 -1.7618  1.2584 -1.6543
  777MOL0     H 2553   2.469   5.579   9.017  3.2178  0.6016  0.9586
  777MOL0     H 2554   2.808   5.730   8.783 -2.1975  1.5555 -0.4228
  777MOL0     H 2555   2.860   5.591   8.877  0.6004  0.2748  0.0673
  777MOL0     H 2556   2.824   5.880   8.963  0.9726  0.0620 -1.2057
  777MOL0     H 2557   2.839   5.730   9.074 -0.1121 -1.1756 -0.9831
  777MOL0     H 2558   3.028   5.897   9.014  3.1073 -1.1120  2.4748
  777MOL0     H 2559   3.050   5.791   8.877  1.7436 -0.1277  0.9526
  777MOL0     H 2560   3.042   5.712   9.182 -2.0036  0.0373 -0.2577
  777MOL0     H 2561   3.078   5.595   9.049  0.3135  0.8230 -0.5949
  777MOL0     H 2562   3.454   5.783   9.118  1.5610 -2.5531 -0.5408
  777MOL0     H 2563   2.702   5.557   8.654  0.1703 -1.8004  0.3768
  777MOL0     H 2564   2.554   5.408   8.565  2.5841 -0.5582  0.2621
  778MOL0     O 2565   6.451   2.717  11.033 -0.5251  0.1048  0.4005
  778MOL0     C 2566   6.538   2.626  11.044  1.2631  0.2036 -0.5424
  778MOL0     O 2567   6.509   2.493  11.089 -0.4909 -0.1128 -0.6685
  778MOL0     C 2568   6.384   2.433  11.081  0.5347  0.5176 -0.1547
  778MOL0     C 2569   6.290   2.461  10.977  0.2848 -0.6247 -0.3222
  778MOL0     C 2570   6.172   2.389  10.969  0.0517 -0.9665 -0.6764
  778MOL0     C 2571   6.143   2.295  11.072  0.7056 -0.2920 -0.1869
  778MOL0     O 2572   6.042   2.206  11.054  0.3854 -0.1748  0.1553
  778MOL0     C 2573   5.910   2.255  11.087  0.1946  0.0362 -0.1189
  778MOL0     C 2574   5.804   2.153  11.041  0.2247 -0.0719 -0.3452
  778MOL0     C 2575   5.657   2.211  11.057 -0.0904 -0.6612 -0.4501
  778MOL0     C 2576   5.628   2.328  10.966  0.2154 -0.5460  0.7769
  778MOL0     C 2577   5.476   2.360  10.949 -0.6906  0.9585  0.3588
  778MOL0     C 2578   5.405   2.370  11.083 -0.4850  0.1122  0.5704
  778MOL0     C 2579   5.267   2.425  11.058 -0.0180 -0.4739  0.1402
  778MOL0     C 2580   5.180   2.419  11.183 -0.3795 -0.7834  0.3722
  778MOL0     N 2581   5.044   2.460  11.146 -0.3500  0.8117 -0.4154
  778MOL0     C 2582   4.949   2.385  11.073  0.0388 -0.0017 -1.1406
  778MOL0     C 2583   4.829   2.428  11.108  1.1975 -0.5851  0.8834
  778MOL0     C 2584   4.699   2.377  11.045 -0.9950  0.5185  0.2037
  778MOL0     C 2585   4.599   2.488  11.021  0.0717 -0.2900 -0.1864
  778MOL0     C 2586   4.478   2.432  10.954 -0.5353  0.5214 -0.7588
  778MOL0     C 2587   4.359   2.532  10.959 -0.5260 -0.0424 -1.1199
  778MOL0     O 2588   4.263   2.474  10.867  0.3545 -0.3166 -0.3889
  778MOL0     C 2589   4.136   2.515  10.878  0.2257 -0.2588  1.1280
  778MOL0     C 2590   4.049   2.443  10.802  0.3194 -0.0311  0.5942
  778MOL0     C 2591   3.916   2.482  10.789 -0.8055 -0.5322  0.9050
  778MOL0     C 2592   3.870   2.598  10.848 -0.1975 -0.5113 -0.2120
  778MOL0     C 2593   3.729   2.644  10.816 -0.3029 -0.2218  0.4389
  778MOL0     O 2594   3.677   2.775  10.825  0.7254 -0.0717 -0.3308
  778MOL0     C 2595   3.540   2.800  10.835 -0.2008  0.3679 -1.1996
  778MOL0     C 2596   3.443   2.719  10.905  0.2098 -0.5227 -0.1372
  778MOL0     C 2597   3.306   2.753  10.901 -0.6215  0.6235 -0.3240
  778MOL0     C 2598   3.257   2.846  10.807  0.1116  0.7802  0.1340
  778MOL0     O 2599   3.128   2.869  10.767  0.1426 -0.0579  0.2234
  778MOL0     C 2600   3.018   2.827  10.848 -0.1010 -0.3821  0.0298
  778MOL0     C 2601   2.994   2.933  10.963  0.3958 -0.0462 -0.0440
  778MOL0     C 2602   2.863   2.891  11.034 -0.6154 -0.4504 -0.2602
  778MOL0     C 2603   2.795   2.989  11.138 -0.9253 -0.0916  0.1766
  778MOL0     C 2604   2.724   3.101  11.068 -0.0089 -0.7495 -0.5422
  778MOL0     C 2605   2.582   3.044  11.031 -0.7366 -0.5452 -0.4415
  778MOL0     C 2606   2.482   3.142  10.966 -0.8726 -0.2970  0.2589
  778MOL0     C 2607   2.350   3.070  10.921  1.1781 -0.5470  0.1703
  778MOL0    Cl 2608   2.287   2.956  11.048  0.1544  0.1706  0.2401
  778MOL0     C 2609   3.353   2.920  10.735 -0.0749 -0.1032 -0.5432
  778MOL0     C 2610   3.492   2.898  10.757 -0.2772  0.6702  0.3821
  778MOL0     O 2611   3.664   2.545  10.785 -0.2545  0.1420 -0.1387
  778MOL0     C 2612   3.952   2.666  10.936  0.8313  0.3435 -0.0548
  778MOL0     C 2613   4.084   2.629  10.948  0.0729  0.3897 -0.2044
  778MOL0     N 2614   4.842   2.531  11.205 -1.1236  0.1425 -0.1733
  778MOL0     N 2615   4.967   2.537  11.227 -1.1469 -0.0300  0.1614
  778MOL0     C 2616   6.228   2.273  11.177  0.3591 -0.1534 -0.2684
  778MOL0     C 2617   6.353   2.342  11.177  0.3429 -0.8487 -0.2233
  778MOL0     C 2618   6.676   2.661  11.019 -0.4371 -0.1801 -0.3071
  778MOL0     C 2619   6.774   2.556  11.015  0.5582 -0.0172 -0.4300
  778MOL0     C 2620   6.910   2.588  10.996 -0.4600  0.3070  0.7106
  778MOL0     C 2621   6.957   2.715  10.981  0.4524 -0.3632  0.6508
  778MOL0     O 2622   7.097   2.735  10.962  0.1668  0.0578  0.1130
  778MOL0     C 2623   7.146   2.868  10.941 -0.6802  0.4886 -0.5444
  778MOL0     C 2624   7.293   2.851  10.923 -0.2828  0.1841 -0.5070
  778MOL0     C 2625   7.336   2.758  10.802  0.3373 -0.2976 -0.0995
  778MOL0     C 2626   7.475   2.790  10.745  0.2969 -0.2887  0.5147
  778MOL0     C 2627   7.580   2.769  10.851  0.0966  0.4782  0.3734
  778MOL0     C 2628   7.666   2.748  10.929 -0.0880 -1.4030  0.2636
  778MOL0     C 2629   6.858   2.822  10.969  0.3127 -0.1315 -0.2012
  778MOL0     C 2630   6.725   2.791  10.994  0.1592 -0.4727 -0.6788
  778MOL0     H 2631   6.327   2.533  10.905  0.3388  1.1041  1.3665
  778MOL0     H 2632   6.098   2.418  10.894 -2.4780  0.5536  2.1661
  778MOL0     H 2633   5.892   2.344  11.027 -0.7991 -0.8594 -1.1971
  778MOL0     H 2634   5.903   2.281  11.193  2.0029 -0.6784  0.2121
  778MOL0     H 2635   5.819   2.057  11.091  1.0930  0.2918  0.1081
  778MOL0     H 2636   5.825   2.136  10.935 -1.8656  0.9334 -0.9876
  778MOL0     H 2637   5.629   2.236  11.159 -1.5095 -0.0375 -0.9703
  778MOL0     H 2638   5.594   2.126  11.031 -0.8901 -0.3587  0.4452
  778MOL0     H 2639   5.677   2.417  11.007 -0.8822  0.5427 -0.1732
  778MOL0     H 2640   5.667   2.305  10.867  0.2191 -0.9452  0.8726
  778MOL0     H 2641   5.428   2.286  10.885  1.8217 -0.8076  0.3956
  778MOL0     H 2642   5.467   2.453  10.893 -2.3929  0.6584  0.0702
  778MOL0     H 2643   5.454   2.438  11.153 -2.5411  1.9403  0.3398
  778MOL0     H 2644   5.404   2.274  11.136 -0.0658 -0.5479 -0.5647
  778MOL0     H 2645   5.269   2.524  11.011  0.9501 -1.0849 -1.1441
  778MOL0     H 2646   5.219   2.359  10.985  1.4471 -1.3104 -0.1011
  778MOL0     H 2647   5.223   2.482  11.261  2.9216 -1.4836 -0.7400
  778MOL0     H 2648   5.170   2.314  11.213 -2.5101 -1.5168 -2.4435
  778MOL0     H 2649   4.971   2.306  11.002  2.2758 -0.4426 -0.0476
  778MOL0     H 2650   4.662   2.296  11.108  1.3236 -0.1513  0.7958
  778MOL0     H 2651   4.723   2.332  10.948 -2.0384  0.8000 -0.2036
  778MOL0     H 2652   4.639   2.560  10.949 -2.2558  2.0570  0.7138
  778MOL0     H 2653   4.577   2.538  11.116 -0.5342  0.1934 -0.5774
  778MOL0     H 2654   4.511   2.392  10.858  1.9854 -0.0583  0.2682
  778MOL0     H 2655   4.447   2.341  11.007 -1.9206  0.4035 -1.7201
  778MOL0     H 2656   4.388   2.633  10.926 -0.6006  0.2637 -0.2880
  778MOL0     H 2657   4.321   2.539  11.061 -2.6692  0.1407 -1.8878
  778MOL0     H 2658   4.079   2.357  10.743 -0.2501 -0.6475  1.1811
  778MOL0     H 2659   3.858   2.424  10.718  1.7537  0.2554 -2.0998
  778MOL0     H 2660   3.460   2.630  10.965  0.8798 -0.0125  0.4361
  778MOL0     H 2661   3.245   2.685  10.959  1.3824 -1.7846 -0.8600
  778MOL0     H 2662   3.030   2.728  10.892  2.6953 -0.5100 -0.8257
  778MOL0     H 2663   2.928   2.832  10.785 -0.2683  2.0235  0.3578
  778MOL0     H 2664   2.988   3.029  10.912 -0.9293 -0.5355 -0.8423
  778MOL0     H 2665   3.076   2.937  11.035 -1.1350 -0.7051  1.8267
  778MOL0     H 2666   2.902   2.806  11.090  1.7589 -0.9829 -2.5417
  778MOL0     H 2667   2.790   2.860  10.958 -0.2040  0.9921 -1.2826
  778MOL0     H 2668   2.722   2.947  11.208 -2.9602  3.9334  0.7224
  778MOL0     H 2669   2.877   3.031  11.197  0.3164 -0.5252 -1.1829
  778MOL0     H 2670   2.778   3.146  10.984  2.1807 -1.2215  0.5248
  778MOL0     H 2671   2.703   3.178  11.144 -0.7033 -1.0502 -0.4263
  778MOL0     H 2672   2.532   3.001  11.118 -2.8718 -0.4398 -1.5348
  778MOL0     H 2673   2.601   2.959  10.964 -0.1923 -0.2042 -0.7267
  778MOL0     H 2674   2.459   3.216  11.044 -1.0449  1.7981 -1.6672
  778MOL0     H 2675   2.523   3.185  10.874  0.4230 -2.0804 -0.0304
  778MOL0     H 2676   2.364   3.015  10.828 -0.0735  3.7062 -2.8845
  778MOL0     H 2677   2.271   3.144  10.904 -2.0178 -3.3090  1.7947
  778MOL0     H 2678   3.322   2.997  10.665 -0.2153  1.4369  1.1354
  778MOL0     H 2679   3.573   2.958  10.716  1.5034 -1.4308  0.6569
  778MOL0     H 2680   3.921   2.759  10.984 -1.4149  0.5017 -1.6064
  778MOL0     H 2681   4.153   2.679  11.014 -0.1548 -0.9542  1.1045
  778MOL0     H 2682   6.207   2.201  11.256 -0.0253  1.7371  1.4522
  778MOL0     H 2683   6.426   2.337  11.257 -1.5560  2.2760  1.9049
  778MOL0     H 2684   6.737   2.456  11.036 -0.8216  0.1985 -1.6465
  778MOL0     H 2685   6.979   2.504  10.998  1.1256  1.4158 -1.8182
  778MOL0     H 2686   7.115   2.936  11.022 -2.5834 -1.5954  0.5871
  778MOL0     H 2687   7.113   2.901  10.842 -1.9759 -2.9667 -1.3757
  778MOL0     H 2688   7.335   2.950  10.901  0.5681  0.1040  0.6765
  778MOL0     H 2689   7.342   2.817  11.015  0.2695 -0.8513 -1.1563
  778MOL0     H 2690   7.265   2.768  10.719 -1.8260 -0.4886  1.6428
  778MOL0     H 2691   7.337   2.652  10.826 -0.7820 -0.1026  0.9277
  778MOL0     H 2692   7.500   2.727  10.659 -0.0691  1.0554 -0.6042
  778MOL0     H 2693   7.487   2.887  10.698 -0.0493 -0.9887 -1.0841
  778MOL0     H 2694   7.739   2.725  11.004 -0.0631  0.7775  0.9846
  778MOL0     H 2695   6.893   2.924  10.957  0.0296 -0.0022  0.0417
  778MOL0     H 2696   6.664   2.880  10.999 -0.4656 -0.8935 -0.6981
  779MOL0     O 2697  10.691   3.556   5.537 -0.4018  0.3725 -0.9439
  779MOL0     C 2698  10.706   3.431   5.524 -0.2268 -0.4013 -0.5199
  779MOL0     O 2699  10.603   3.341   5.549  0.7188 -0.3885 -0.1453
  779MOL0     C 2700  10.479   3.402   5.578 -0.3877 -0.2314  1.0039
  779MOL0     C 2701  10.431   3.402   5.710  0.4710 -0.4019  0.7450
  779MOL0     C 2702  10.318   3.466   5.749  0.0050  0.0758  0.5373
  779MOL0     C 2703  10.242   3.527   5.653 -0.1213 -1.7722 -0.7769
  779MOL0     O 2704  10.122   3.587   5.671 -0.4085 -0.4986 -0.5825
  779MOL0     C 2705  10.082   3.606   5.805  0.5900 -0.0446  0.0569
  779MOL0     C 2706   9.954   3.693   5.811 -0.7171 -0.1625 -0.5967
  779MOL0     C 2707   9.831   3.613   5.773  0.6582 -0.3501 -0.1237
  779MOL0     C 2708   9.715   3.709   5.778  0.7129 -0.0607  0.5348
  779MOL0     C 2709   9.577   3.642   5.779  0.8613  0.7298  0.9927
  779MOL0     C 2710   9.460   3.737   5.769 -0.2306  0.1161  0.4550
  779MOL0     C 2711   9.328   3.664   5.781  0.6832 -0.1781  0.5928
  779MOL0     C 2712   9.299   3.598   5.922  0.7001  0.6888  0.1654
  779MOL0     N 2713   9.158   3.546   5.938 -0.0209  0.1757  1.0862
  779MOL0     C 2714   9.049   3.627   5.915 -0.3368 -0.2159  0.3821
  779MOL0     C 2715   8.939   3.554   5.952 -0.5135  0.4352  0.4836
  779MOL0     C 2716   8.790   3.581   5.964 -0.0376  0.6665  0.6666
  779MOL0     C 2717   8.735   3.515   6.097  0.5566  0.2268  0.2622
  779MOL0     C 2718   8.579   3.533   6.089  0.1193  0.3240  0.2127
  779MOL0     C 2719   8.498   3.524   6.217 -0.4253 -0.2873  0.4566
  779MOL0     O 2720   8.377   3.454   6.180 -0.3592  0.6853  0.1537
  779MOL0     C 2721   8.264   3.464   6.262  0.3302 -0.4809  0.3011
  779MOL0     C 2722   8.262   3.502   6.395 -0.9768  0.5019 -0.3359
  779MOL0     C 2723   8.144   3.488   6.467 -0.7343 -0.8394  0.2675
  779MOL0     C 2724   8.027   3.436   6.403 -0.5961 -1.0292 -0.4916
  779MOL0     C 2725   7.899   3.423   6.473 -0.3680  0.3241  0.1114
  779MOL0     O 2726   7.778   3.401   6.397  0.2950  0.1400 -0.4379
  779MOL0     C 2727   7.659   3.405   6.468 -0.3533 -0.5582 -0.0446
  779MOL0     C 2728   7.560   3.322   6.426  0.2746  1.4157  0.4330
  779MOL0     C 2729   7.432   3.313   6.485 -0.3683  0.4137 -0.1456
  779MOL0     C 2730   7.405   3.403   6.592  0.3735 -0.0798 -0.4476
  779MOL0     O 2731   7.282   3.419   6.649 -0.0560 -0.9350  0.1898
  779MOL0     C 2732   7.172   3.351   6.601 -0.1788 -0.0531  0.7836
  779MOL0     C 2733   7.060   3.442   6.647 -0.1901 -0.7990 -0.3059
  779MOL0     C 2734   6.925   3.430   6.559  0.0091  0.1210 -0.2194
  779MOL0     C 2735   6.811   3.522   6.597  0.3048 -0.3665 -0.1211
  779MOL0     C 2736   6.698   3.509   6.498  0.5591  0.0570  0.1379
  779MOL0     C 2737   6.683   3.645   6.415 -0.0784  0.4535  0.3072
  779MOL0     C 2738   6.611   3.641   6.273  0.3211  0.4790 -0.1365
  779MOL0     C 2739   6.547   3.772   6.230 -0.1312  0.3505  0.1678
  779MOL0    Cl 2740   6.403   3.818   6.329  0.0788 -0.2281  0.2738
  779MOL0     C 2741   7.498   3.504   6.622 -0.1831 -0.5296 -0.5824
  779MOL0     C 2742   7.627   3.502   6.564  0.2626  0.0708 -0.3232
  779MOL0     O 2743   7.906   3.414   6.592 -0.2650  0.4655  0.1177
  779MOL0     C 2744   8.030   3.413   6.269 -0.2049  0.3883 -0.0062
  779MOL0     C 2745   8.143   3.428   6.192 -0.2711  0.0319  0.4738
  779MOL0     N 2746   8.988   3.426   5.988  0.4355 -0.3122 -0.5811
  779MOL0     N 2747   9.115   3.423   5.977 -0.3216  0.0452 -0.4282
  779MOL0     C 2748  10.283   3.527   5.529  0.5637 -0.6904  0.5435
  779MOL0     C 2749  10.400   3.469   5.487  0.8147 -1.0302  0.2143
  779MOL0     C 2750  10.842   3.379   5.514  0.4439 -0.6288  0.2581
  779MOL0     C 2751  10.946   3.455   5.452 -0.0201 -0.5599 -1.1101
  779MOL0     C 2752  11.067   3.399   5.434 -0.0421  0.1481  0.5162
  779MOL0     C 2753  11.106   3.275   5.481 -0.6979  0.4618 -0.4743
  779MOL0     O 2754  11.218   3.209   5.442 -0.4820  0.4623 -0.4556
  779MOL0     C 2755  11.336   3.293   5.397  0.3308  1.3365 -0.5375
  779MOL0     C 2756  11.470   3.217   5.411 -0.1906 -0.2498 -0.2431
  779MOL0     C 2757  11.584   3.310   5.373  0.0725 -0.0392 -0.5998
  779MOL0     C 2758  11.720   3.243   5.392 -0.5925  0.8105  0.7237
  779MOL0     C 2759  11.818   3.314   5.305  0.3737 -0.0643 -0.4885
  779MOL0     C 2760  11.896   3.394   5.245  0.1744 -0.3832  0.3844
  779MOL0     C 2761  11.018   3.207   5.562 -0.1861  0.1687  0.4667
  779MOL0     C 2762  10.882   3.251   5.562  0.0832 -0.1598  0.1609
  779MOL0     H 2763  10.488   3.344   5.783 -0.7294 -0.4893  1.6404
  779MOL0     H 2764  10.304   3.470   5.857  0.0053 -0.2068  0.5505
  779MOL0     H 2765  10.165   3.660   5.851  0.1656 -0.3004  1.1419
  779MOL0     H 2766  10.072   3.505   5.846  0.5321  0.4394  1.2634
  779MOL0     H 2767   9.969   3.780   5.747  0.8493 -1.4418 -2.0851
  779MOL0     H 2768   9.943   3.730   5.913  2.3724 -0.4351 -0.0524
  779MOL0     H 2769   9.808   3.531   5.842 -0.3703  0.3163  0.3503
  779MOL0     H 2770   9.850   3.565   5.677  2.1160  0.0852 -0.0799
  779MOL0     H 2771   9.722   3.760   5.875 -1.8223  0.4709  0.5066
  779MOL0     H 2772   9.722   3.787   5.702  0.1853 -1.6488 -1.2266
  779MOL0     H 2773   9.564   3.585   5.871  0.9766 -0.7799  0.1012
  779MOL0     H 2774   9.564   3.572   5.696  0.6458  1.1298  0.6789
  779MOL0     H 2775   9.467   3.778   5.667  3.0143  0.5099  0.7195
  779MOL0     H 2776   9.476   3.812   5.847  2.2924  0.1106  0.0467
  779MOL0     H 2777   9.254   3.735   5.743  1.4224  0.5536  0.4893
  779MOL0     H 2778   9.329   3.575   5.718  1.5255  0.1899  0.0751
  779MOL0     H 2779   9.315   3.668   6.004 -1.4800 -0.5162  1.7214
  779MOL0     H 2780   9.369   3.514   5.921  1.1887  0.9279 -4.3650
  779MOL0     H 2781   9.044   3.733   5.892  3.2263 -0.1723 -0.7488
  779MOL0     H 2782   8.725   3.543   5.885 -0.9852  3.3333  0.0388
  779MOL0     H 2783   8.777   3.689   5.978 -0.4027  0.6559  0.4164
  779MOL0     H 2784   8.780   3.561   6.186 -1.0912 -1.1543  1.8922
  779MOL0     H 2785   8.747   3.406   6.098 -1.7641 -0.0819  0.3743
  779MOL0     H 2786   8.549   3.635   6.063  0.1211  1.3894  3.7824
  779MOL0     H 2787   8.533   3.470   6.012  1.7028  1.1685 -1.5012
  779MOL0     H 2788   8.480   3.623   6.259  2.7928 -0.4127  2.5037
  779MOL0     H 2789   8.550   3.463   6.291 -1.4162 -0.0366  1.3824
  779MOL0     H 2790   8.343   3.538   6.458 -3.1163  0.1813  2.8948
  779MOL0     H 2791   8.135   3.527   6.568  1.8469  0.0016  0.2729
  779MOL0     H 2792   7.585   3.242   6.358  0.0207 -1.4000  3.4271
  779MOL0     H 2793   7.354   3.248   6.449  1.2471 -0.9469 -1.3411
  779MOL0     H 2794   7.163   3.255   6.651  0.8761 -0.1849  0.7516
  779MOL0     H 2795   7.179   3.341   6.492 -0.3933 -1.8673  0.9089
  779MOL0     H 2796   7.089   3.548   6.655  0.0693 -1.0145  2.6302
  779MOL0     H 2797   7.032   3.415   6.749  0.9504 -1.7906 -0.2300
  779MOL0     H 2798   6.887   3.329   6.571  1.2620 -0.3746 -0.2441
  779MOL0     H 2799   6.958   3.451   6.457  1.6725 -0.3921  0.1845
  779MOL0     H 2800   6.777   3.499   6.699  2.7374 -2.0747  0.4039
  779MOL0     H 2801   6.836   3.628   6.613 -1.1231 -0.2589  1.7684
  779MOL0     H 2802   6.607   3.481   6.550  0.9380  0.5373  1.0791
  779MOL0     H 2803   6.723   3.421   6.438 -0.6811 -0.3890  0.2459
  779MOL0     H 2804   6.784   3.684   6.399  0.6756  0.0686  3.4838
  779MOL0     H 2805   6.631   3.719   6.477  1.0553  0.6389  1.0724
  779MOL0     H 2806   6.678   3.616   6.190  1.1472 -0.4674  0.7899
  779MOL0     H 2807   6.526   3.573   6.269  0.2305  0.5968 -0.1955
  779MOL0     H 2808   6.519   3.766   6.124  1.4214 -0.9542 -0.2060
  779MOL0     H 2809   6.620   3.854   6.231  0.1185  0.1291  0.0897
  779MOL0     H 2810   7.465   3.578   6.693 -0.6140 -1.3673  0.0990
  779MOL0     H 2811   7.693   3.581   6.599 -1.2208  1.2721 -0.1074
  779MOL0     H 2812   7.938   3.377   6.223 -1.0297  1.2377  0.9228
  779MOL0     H 2813   8.146   3.410   6.085 -2.2963 -1.1859  0.5726
  779MOL0     H 2814  10.230   3.583   5.452 -0.5335 -0.6193  1.3317
  779MOL0     H 2815  10.430   3.484   5.384  1.6098 -0.8192  0.4739
  779MOL0     H 2816  10.922   3.555   5.419 -1.8959 -0.3735  0.6244
  779MOL0     H 2817  11.123   3.463   5.366 -2.4893 -0.1789 -1.9723
  779MOL0     H 2818  11.341   3.384   5.457 -0.6259  1.9540 -1.3696
  779MOL0     H 2819  11.312   3.332   5.298 -1.3482  2.5107  0.2879
  779MOL0     H 2820  11.481   3.176   5.512  0.3082 -1.1790 -0.6585
  779MOL0     H 2821  11.462   3.128   5.348 -1.7222 -0.3228  0.0092
  779MOL0     H 2822  11.572   3.402   5.431 -1.1842 -1.7353  2.0262
  779MOL0     H 2823  11.568   3.333   5.267 -0.5795 -4.5059 -1.6602
  779MOL0     H 2824  11.746   3.236   5.498 -2.7825 -0.5552  1.2375
  779MOL0     H 2825  11.708   3.135   5.375  2.5568  0.0001  2.6821
  779MOL0     H 2826  11.962   3.458   5.189  1.6208 -0.9952  1.3398
  779MOL0     H 2827  11.058   3.111   5.593 -3.2883 -0.6742  2.3519
  779MOL0     H 2828  10.800   3.201   5.613 -2.0984  0.8834 -2.0678
  780MOL0     O 2829   4.652   3.674   5.544  0.5160 -0.8272  0.8580
  780MOL0     C 2830   4.694   3.787   5.574  0.3430 -0.5198 -0.6219
  780MOL0     O 2831   4.628   3.905   5.548  0.3162 -0.6279 -0.5662
  780MOL0     C 2832   4.503   3.907   5.514  0.1408  0.5758 -0.4246
  780MOL0     C 2833   4.404   3.848   5.593  1.0620 -0.4114  1.2768
  780MOL0     C 2834   4.267   3.864   5.563  0.1932 -0.3741  0.1864
  780MOL0     C 2835   4.233   3.945   5.447  0.5857  0.2109 -0.6614
  780MOL0     O 2836   4.095   3.951   5.429 -0.4883  0.2938 -0.5528
  780MOL0     C 2837   4.056   4.079   5.384  1.1108 -0.1006  0.4288
  780MOL0     C 2838   3.913   4.091   5.441  1.0062  0.0120 -0.2346
  780MOL0     C 2839   3.862   4.237   5.432 -0.0728  0.3948 -0.2252
  780MOL0     C 2840   3.714   4.249   5.470 -0.5834 -0.1992 -0.0579
  780MOL0     C 2841   3.683   4.384   5.518  0.1041 -0.3738 -0.2689
  780MOL0     C 2842   3.548   4.372   5.594  0.0767  0.2493 -0.3585
  780MOL0     C 2843   3.488   4.511   5.604  1.2586 -0.2092  0.0241
  780MOL0     C 2844   3.365   4.502   5.708  0.1947  0.1420  0.4015
  780MOL0     N 2845   3.286   4.626   5.704  0.0263  1.0492 -0.1314
  780MOL0     C 2846   3.153   4.642   5.671  0.5531  0.5256  0.8319
  780MOL0     C 2847   3.118   4.769   5.672  0.2534 -0.1856  0.2517
  780MOL0     C 2848   2.988   4.830   5.656  0.3044  0.4679 -0.1913
  780MOL0     C 2849   2.888   4.777   5.759 -1.1782  0.0127 -0.7520
  780MOL0     C 2850   2.761   4.851   5.756  0.4601  0.0956 -1.4820
  780MOL0     C 2851   2.683   4.825   5.891 -0.2288  1.0632 -0.3013
  780MOL0     O 2852   2.572   4.720   5.906  0.0905 -0.2294  0.2601
  780MOL0     C 2853   2.447   4.765   5.937 -0.0905 -0.1638 -0.8685
  780MOL0     C 2854   2.365   4.692   6.025 -0.3187 -0.3922  0.5560
  780MOL0     C 2855   2.236   4.748   6.056  0.7518 -0.4168  0.2818
  780MOL0     C 2856   2.185   4.864   6.004  1.1745 -0.0387 -0.0082
  780MOL0     C 2857   2.050   4.918   6.042 -0.1886 -0.4030  0.1870
  780MOL0     O 2858   1.951   4.839   6.075  0.3621 -0.2826  0.3987
  780MOL0     C 2859   1.819   4.880   6.091 -0.4652 -0.9732 -0.0789
  780MOL0     C 2860   1.740   4.941   5.984  0.3868  0.6004  0.5271
  780MOL0     C 2861   1.607   4.990   6.009 -1.1069 -0.4191 -0.0662
  780MOL0     C 2862   1.560   4.985   6.140  1.0361  0.5012  0.5196
  780MOL0     O 2863   1.444   5.036   6.190  0.2076 -0.1075 -0.1911
  780MOL0     C 2864   1.339   5.070   6.091 -0.1936  0.0556  0.6223
  780MOL0     C 2865   1.203   5.055   6.155  0.7776  0.5851  0.5900
  780MOL0     C 2866   1.075   5.057   6.059  0.4101 -0.0254 -0.2415
  780MOL0     C 2867   0.947   5.020   6.131  0.6149  0.2693 -0.6701
  780MOL0     C 2868   0.842   4.970   6.029  0.0735  0.1887 -0.2414
  780MOL0     C 2869   0.691   4.987   6.076 -0.4935 -0.7844 -0.9229
  780MOL0     C 2870   0.615   4.863   6.036  0.2930 -0.0442 -0.3110
  780MOL0     C 2871   0.470   4.881   6.069 -0.6640 -0.1874 -0.4538
  780MOL0    Cl 2872   0.393   5.010   5.972 -0.4758 -0.1894 -0.0359
  780MOL0     C 2873   1.637   4.929   6.244 -0.2743 -0.5731 -0.5146
  780MOL0     C 2874   1.759   4.876   6.222 -0.6778  0.3392  0.5650
  780MOL0     O 2875   2.034   5.038   6.024 -0.0242 -0.3143 -0.6857
  780MOL0     C 2876   2.269   4.936   5.919 -0.1341 -1.4873 -0.5999
  780MOL0     C 2877   2.399   4.890   5.890  0.0115 -0.2333 -1.0839
  780MOL0     N 2878   3.233   4.844   5.700 -0.7527  0.2642 -0.3137
  780MOL0     N 2879   3.334   4.757   5.709 -0.4786  0.3568 -0.2916
  780MOL0     C 2880   4.331   3.998   5.368  0.0969  1.4118  0.8244
  780MOL0     C 2881   4.467   3.979   5.404  0.3629 -0.1590 -0.7789
  780MOL0     C 2882   4.824   3.795   5.638 -0.5969 -0.2401  0.3704
  780MOL0     C 2883   4.925   3.694   5.636  0.1821  0.9093  0.2196
  780MOL0     C 2884   5.045   3.710   5.714  1.2135 -0.0495  0.4926
  780MOL0     C 2885   5.067   3.820   5.799 -0.1681  0.7245  0.3261
  780MOL0     O 2886   5.180   3.834   5.872 -0.4705 -0.0863 -0.2349
  780MOL0     C 2887   5.305   3.836   5.799  0.0873 -0.0697  0.9382
  780MOL0     C 2888   5.430   3.872   5.880  0.1286 -0.4776 -0.2342
  780MOL0     C 2889   5.441   4.020   5.926  0.5862  0.8077  0.2572
  780MOL0     C 2890   5.582   4.056   5.992  0.9375 -0.9152 -0.2468
  780MOL0     C 2891   5.587   4.202   5.991  1.1162  0.2251  0.2725
  780MOL0     C 2892   5.575   4.319   5.986 -0.2183 -0.5143 -0.6158
  780MOL0     C 2893   4.975   3.926   5.792 -0.1950 -0.4014  0.1456
  780MOL0     C 2894   4.857   3.918   5.714 -0.8712 -0.7183 -0.6440
  780MOL0     H 2895   4.430   3.798   5.685  0.3361  3.0154  3.5036
  780MOL0     H 2896   4.185   3.830   5.625  2.3272 -0.1767  3.3559
  780MOL0     H 2897   4.053   4.083   5.275 -0.2928 -1.1786  0.3899
  780MOL0     H 2898   4.112   4.159   5.432 -0.6394  1.2085  0.3735
  780MOL0     H 2899   3.919   4.059   5.545 -0.9495  3.4279  1.0968
  780MOL0     H 2900   3.841   4.026   5.391  0.6092  0.3345 -0.0887
  780MOL0     H 2901   3.871   4.280   5.332 -2.4570 -1.4865 -1.3480
  780MOL0     H 2902   3.917   4.302   5.501 -0.3321  0.1553  0.2136
  780MOL0     H 2903   3.646   4.220   5.389 -0.8309 -2.1546  0.7737
  780MOL0     H 2904   3.700   4.174   5.549  0.1732  0.1980  0.4535
  780MOL0     H 2905   3.672   4.443   5.427 -0.6169 -1.2018 -0.7349
  780MOL0     H 2906   3.759   4.433   5.580  0.3235 -0.2266 -0.6553
  780MOL0     H 2907   3.547   4.329   5.695 -2.1630  1.3462  0.1516
  780MOL0     H 2908   3.483   4.317   5.526  0.9314  1.5344 -2.3080
  780MOL0     H 2909   3.566   4.578   5.641  1.1140 -0.9992  1.9247
  780MOL0     H 2910   3.452   4.544   5.507  1.2212  1.4150  0.5696
  780MOL0     H 2911   3.406   4.490   5.809  2.4852 -1.4866 -0.6239
  780MOL0     H 2912   3.298   4.418   5.689 -0.5918  0.6377  0.9490
  780MOL0     H 2913   3.082   4.560   5.659  1.5969 -0.2148 -0.5966
  780MOL0     H 2914   2.947   4.801   5.559  0.9274 -1.0358 -0.0287
  780MOL0     H 2915   2.998   4.939   5.660 -1.7211  0.7151 -0.7182
  780MOL0     H 2916   2.945   4.797   5.850  0.2872  0.2033 -1.6796
  780MOL0     H 2917   2.874   4.669   5.748  3.5165 -0.9104  0.2907
  780MOL0     H 2918   2.777   4.958   5.741  1.4272  0.0505 -0.8002
  780MOL0     H 2919   2.698   4.812   5.676 -0.9941  0.8932 -0.7738
  780MOL0     H 2920   2.642   4.915   5.936 -0.8504  0.8882 -0.5138
  780MOL0     H 2921   2.758   4.783   5.959 -0.5500  2.1502  0.7555
  780MOL0     H 2922   2.391   4.598   6.074 -1.4502  0.1454  2.2885
  780MOL0     H 2923   2.181   4.679   6.119  0.1943 -0.4584 -0.2405
  780MOL0     H 2924   1.771   4.962   5.882 -3.7381  0.2152 -0.9972
  780MOL0     H 2925   1.549   5.040   5.932  0.9919 -0.5395 -1.8418
  780MOL0     H 2926   1.350   5.002   6.006  0.9142 -1.2824  1.7817
  780MOL0     H 2927   1.342   5.175   6.062 -0.3935 -0.0824  0.0856
  780MOL0     H 2928   1.184   5.125   6.236 -3.3137  0.4350  0.0143
  780MOL0     H 2929   1.207   4.961   6.211 -0.9631  0.4469  0.5460
  780MOL0     H 2930   1.094   4.980   5.984  1.1959 -3.1490  2.9123
  780MOL0     H 2931   1.078   5.155   6.011 -0.3555  0.0088 -0.2382
  780MOL0     H 2932   0.967   4.937   6.199 -2.2371 -1.2961 -1.5887
  780MOL0     H 2933   0.906   5.100   6.194 -0.0143 -1.1248  0.7583
  780MOL0     H 2934   0.858   4.864   6.010 -0.1806  0.3225 -1.2408
  780MOL0     H 2935   0.849   5.018   5.931  1.2816  2.7300  0.9995
  780MOL0     H 2936   0.652   5.081   6.035  3.9386  2.0359  0.6365
  780MOL0     H 2937   0.692   5.002   6.184  0.7146  1.8238 -1.2350
  780MOL0     H 2938   0.630   4.831   5.932  0.6105 -3.5712  0.6956
  780MOL0     H 2939   0.640   4.770   6.089 -0.1221  0.3889  0.6603
  780MOL0     H 2940   0.471   4.905   6.176  0.1559 -1.4603 -0.1543
  780MOL0     H 2941   0.425   4.783   6.052 -0.7981 -0.2028 -0.0338
  780MOL0     H 2942   1.596   4.909   6.343  2.5821 -0.7950  0.7258
  780MOL0     H 2943   1.816   4.826   6.300  2.0295 -1.2720 -2.2513
  780MOL0     H 2944   2.252   5.032   5.873  1.4655 -0.6734  0.4373
  780MOL0     H 2945   2.449   4.958   5.822  2.0899 -0.1747  0.4146
  780MOL0     H 2946   4.323   4.045   5.271  3.8119 -1.1340 -0.9524
  780MOL0     H 2947   4.543   4.018   5.338  3.0675 -0.8437  1.7078
  780MOL0     H 2948   4.901   3.610   5.571 -1.5367  2.9925 -2.0631
  780MOL0     H 2949   5.122   3.634   5.704  1.9711  0.8269 -0.6794
  780MOL0     H 2950   5.296   3.913   5.721  4.0025  1.2457  1.5992
  780MOL0     H 2951   5.319   3.739   5.750  1.6347  1.8443 -2.7625
  780MOL0     H 2952   5.444   3.805   5.965 -1.2873 -1.7757 -0.9580
  780MOL0     H 2953   5.518   3.861   5.815 -0.1405 -0.2474 -0.6426
  780MOL0     H 2954   5.356   4.047   5.990  0.1502  2.2694 -0.8956
  780MOL0     H 2955   5.441   4.075   5.832  0.0581 -1.5455 -1.2019
  780MOL0     H 2956   5.586   4.012   6.091 -1.2614 -2.4530 -0.7623
  780MOL0     H 2957   5.664   4.015   5.932  1.3037 -2.5150  1.2704
  780MOL0     H 2958   5.566   4.425   5.975 -0.4625 -0.2880  1.3389
  780MOL0     H 2959   4.987   4.017   5.851  2.4771  1.4361 -2.8680
  780MOL0     H 2960   4.781   3.995   5.728 -1.6265 -1.2117 -1.8465
  781MOL0     O 2961   7.622   6.440   8.856 -0.4110  0.2056 -0.9762
  781MOL0     C 2962   7.640   6.539   8.793 -0.6812  0.1405 -0.3096
  781MOL0     O 2963   7.541   6.616   8.744  0.6136 -0.3170 -0.2663
  781MOL0     C 2964   7.411   6.579   8.774 -0.2553 -0.4719  0.0333
  781MOL0     C 2965   7.346   6.470   8.715  0.2903  0.0695 -0.4750
  781MOL0     C 2966   7.205   6.456   8.740 -0.9486 -0.2656  1.2723
  781MOL0     C 2967   7.128   6.550   8.815 -0.0792  0.2225  0.2835
  781MOL0     O 2968   6.986   6.550   8.836 -0.0054  0.5840  0.1293
  781MOL0     C 2969   6.912   6.457   8.757 -0.0424  0.1647  0.4593
  781MOL0     C 2970   6.769   6.453   8.811  0.3705 -0.3854  0.3972
  781MOL0     C 2971   6.698   6.583   8.792 -0.6758 -0.4967  0.5513
  781MOL0     C 2972   6.666   6.595   8.642  0.0073  0.4608 -0.5268
  781MOL0     C 2973   6.596   6.737   8.616 -0.9305  0.6837 -0.3682
  781MOL0     C 2974   6.552   6.752   8.473  0.0251  1.6430  0.3707
  781MOL0     C 2975   6.480   6.892   8.449  0.2810  0.0721 -0.1769
  781MOL0     C 2976   6.468   6.887   8.290 -0.7993  0.0507  0.1448
  781MOL0     N 2977   6.356   6.962   8.216 -0.5305 -0.2535  0.2895
  781MOL0     C 2978   6.370   7.085   8.148 -0.2777 -0.0407 -0.0043
  781MOL0     C 2979   6.266   7.098   8.068 -0.3697 -0.3224  0.0137
  781MOL0     C 2980   6.223   7.225   7.978  0.2320 -0.0046 -0.1316
  781MOL0     C 2981   6.208   7.182   7.830  0.5711  0.1354 -0.2511
  781MOL0     C 2982   6.184   7.306   7.741  0.1253  0.4125 -0.5250
  781MOL0     C 2983   6.154   7.274   7.596 -0.9417  0.2124  0.1190
  781MOL0     O 2984   6.275   7.217   7.532 -0.5212 -0.3946  0.8255
  781MOL0     C 2985   6.273   7.208   7.393 -0.0040 -0.2480 -0.7230
  781MOL0     C 2986   6.159   7.222   7.317  0.5030 -0.1608  0.0763
  781MOL0     C 2987   6.166   7.232   7.180 -0.5379  0.2633  1.0111
  781MOL0     C 2988   6.294   7.210   7.115  0.7135 -0.1099 -0.5334
  781MOL0     C 2989   6.291   7.211   6.965  0.2796  0.6925  0.3584
  781MOL0     O 2990   6.170   7.203   6.897 -0.4383  0.7044 -0.6640
  781MOL0     C 2991   6.161   7.168   6.761  0.5651  0.3134 -0.4083
  781MOL0     C 2992   6.058   7.077   6.722 -0.3953 -0.3931 -0.1239
  781MOL0     C 2993   6.031   7.040   6.578 -0.5874  1.1453 -0.2880
  781MOL0     C 2994   6.113   7.103   6.487  0.0127 -0.5639 -0.3487
  781MOL0     O 2995   6.096   7.085   6.354 -0.1476 -0.3693 -0.0203
  781MOL0     C 2996   6.041   6.956   6.298  0.2036 -0.0922  0.5530
  781MOL0     C 2997   6.154   6.890   6.217 -0.2496  0.4110  0.4707
  781MOL0     C 2998   6.151   6.945   6.070 -0.1776  0.7152 -0.3922
  781MOL0     C 2999   6.276   6.895   5.992  0.5037  0.1084 -0.7784
  781MOL0     C 3000   6.249   6.895   5.844 -1.5981  0.6987 -0.6259
  781MOL0     C 3001   6.177   7.020   5.793  0.8534 -0.0773  0.0155
  781MOL0     C 3002   6.155   6.996   5.646 -0.5986 -0.7212 -0.3471
  781MOL0     C 3003   6.056   7.106   5.595  0.1794 -0.1651 -0.0443
  781MOL0    Cl 3004   6.122   7.266   5.637 -0.4419 -0.0455  0.5214
  781MOL0     C 3005   6.214   7.187   6.527 -0.1619  0.3774  0.0478
  781MOL0     C 3006   6.239   7.220   6.660 -0.3069  0.0627 -0.3896
  781MOL0     O 3007   6.404   7.209   6.907  0.4589 -0.0948  0.7813
  781MOL0     C 3008   6.400   7.181   7.193  1.1945 -0.8541  0.4280
  781MOL0     C 3009   6.392   7.183   7.328  0.3561 -0.0598  0.4990
  781MOL0     N 3010   6.188   6.987   8.086 -1.1384 -0.3972 -0.5688
  781MOL0     N 3011   6.234   6.910   8.181  0.4422  1.1221 -0.5844
  781MOL0     C 3012   7.201   6.647   8.879  0.1301 -0.1794 -0.1321
  781MOL0     C 3013   7.339   6.658   8.863  0.3352 -0.4836  1.1547
  781MOL0     C 3014   7.782   6.573   8.768 -0.1806  0.3468 -0.5822
  781MOL0     C 3015   7.820   6.696   8.719  0.3398  0.2352  0.1991
  781MOL0     C 3016   7.954   6.727   8.709  0.7944  0.1472  0.7820
  781MOL0     C 3017   8.054   6.652   8.751 -0.0432  0.1529 -0.6573
  781MOL0     O 3018   8.184   6.697   8.756 -0.4364  0.1901  0.4126
  781MOL0     C 3019   8.227   6.834   8.736  0.1788  0.6714  0.0885
  781MOL0     C 3020   8.379   6.855   8.713 -0.1803 -0.7332 -0.9861
  781MOL0     C 3021   8.401   6.852   8.559 -0.4047  0.6705 -0.0484
  781MOL0     C 3022   8.553   6.849   8.523  0.8475 -0.2881 -0.5013
  781MOL0     C 3023   8.619   6.724   8.547 -0.0543  0.4234  1.0174
  781MOL0     C 3024   8.652   6.609   8.582 -0.5829  0.5105  0.9863
  781MOL0     C 3025   8.027   6.519   8.787  0.0859 -0.7133 -0.1079
  781MOL0     C 3026   7.890   6.486   8.806  0.6038 -0.0184 -0.5786
  781MOL0     H 3027   7.388   6.410   8.634 -1.7482 -0.7478 -0.9996
  781MOL0     H 3028   7.172   6.369   8.683  4.4026 -0.7430 -1.7809
  781MOL0     H 3029   6.967   6.363   8.772 -1.0235 -0.5936 -0.5586
  781MOL0     H 3030   6.932   6.476   8.651  1.0979 -0.2570  0.5755
  781MOL0     H 3031   6.772   6.430   8.917 -1.4682 -2.6415  0.0368
  781MOL0     H 3032   6.707   6.375   8.766 -1.3492  1.5246 -0.7397
  781MOL0     H 3033   6.766   6.661   8.828  1.6725 -1.3731 -1.7087
  781MOL0     H 3034   6.614   6.585   8.862 -2.7350 -0.2166 -1.7784
  781MOL0     H 3035   6.760   6.600   8.586  0.0717  3.0069 -0.2987
  781MOL0     H 3036   6.604   6.508   8.619  2.1754 -1.0763 -0.8772
  781MOL0     H 3037   6.669   6.815   8.635  1.9368 -1.6911 -0.9410
  781MOL0     H 3038   6.510   6.748   8.683  1.2253  0.2850  2.6175
  781MOL0     H 3039   6.490   6.670   8.435  2.9632  0.3378 -2.1002
  781MOL0     H 3040   6.646   6.747   8.417 -0.8337 -0.8745 -1.0022
  781MOL0     H 3041   6.379   6.902   8.491  0.4395  0.9717  0.0116
  781MOL0     H 3042   6.535   6.976   8.493 -1.0700  1.7450 -1.5698
  781MOL0     H 3043   6.461   6.788   8.246 -1.7697  1.3589 -2.9499
  781MOL0     H 3044   6.561   6.929   8.249  0.9452 -1.4487  2.3146
  781MOL0     H 3045   6.452   7.152   8.169  0.0164 -1.0394  2.3259
  781MOL0     H 3046   6.297   7.302   8.000 -0.1962  0.2025  0.6357
  781MOL0     H 3047   6.127   7.269   8.007  0.9748  1.0995  0.7289
  781MOL0     H 3048   6.123   7.116   7.815  0.0286  0.9740 -0.9089
  781MOL0     H 3049   6.298   7.124   7.809  1.0208  0.6485  0.2130
  781MOL0     H 3050   6.094   7.357   7.776 -0.3143 -1.1164  0.6668
  781MOL0     H 3051   6.261   7.383   7.750 -0.7815  1.1262  1.8837
  781MOL0     H 3052   6.120   7.365   7.545  2.9844  0.4579 -2.4460
  781MOL0     H 3053   6.079   7.194   7.588 -1.5690  0.7473  0.5310
  781MOL0     H 3054   6.057   7.217   7.353 -0.1009 -0.7520 -1.6259
  781MOL0     H 3055   6.075   7.240   7.122  1.1341  0.1427 -1.8110
  781MOL0     H 3056   6.008   7.017   6.797 -1.0950  0.4282  0.0914
  781MOL0     H 3057   5.954   6.966   6.559 -0.0075  0.1570  1.0674
  781MOL0     H 3058   5.951   6.968   6.238  0.9616  2.4024 -0.2129
  781MOL0     H 3059   6.035   6.881   6.378  1.9740 -0.3253  0.5268
  781MOL0     H 3060   6.144   6.781   6.226  1.9044  0.0809 -0.4912
  781MOL0     H 3061   6.249   6.915   6.265 -1.6969  0.8692  3.3248
  781MOL0     H 3062   6.165   7.053   6.081  0.3810  0.5043  1.2322
  781MOL0     H 3063   6.052   6.922   6.030 -0.2166 -0.4411  0.3070
  781MOL0     H 3064   6.361   6.959   6.017  1.5517 -1.8818  1.1598
  781MOL0     H 3065   6.300   6.794   6.027 -0.1707 -0.5236 -2.0768
  781MOL0     H 3066   6.208   6.795   5.829  1.8673 -0.8975 -0.5820
  781MOL0     H 3067   6.342   6.908   5.787 -1.1464  1.0665  0.1732
  781MOL0     H 3068   6.235   7.111   5.814 -2.2435  1.8680  0.7132
  781MOL0     H 3069   6.084   7.043   5.845  1.2250  1.9816 -0.1506
  781MOL0     H 3070   6.246   7.010   5.587  0.1367  2.8630  1.3521
  781MOL0     H 3071   6.113   6.899   5.617 -0.0122 -0.0391 -3.9591
  781MOL0     H 3072   5.964   7.099   5.653  1.4252 -1.6246  1.9049
  781MOL0     H 3073   6.029   7.083   5.491 -0.3756  0.5110 -0.0520
  781MOL0     H 3074   6.280   7.239   6.459  0.6088  1.0177  1.2467
  781MOL0     H 3075   6.308   7.297   6.691 -1.9155  1.5427 -0.2745
  781MOL0     H 3076   6.495   7.146   7.154  2.0331 -1.8185  3.1307
  781MOL0     H 3077   6.479   7.158   7.387  1.1888  0.4896 -0.4619
  781MOL0     H 3078   7.145   6.716   8.940  0.2065  2.2443 -2.6000
  781MOL0     H 3079   7.398   6.730   8.920 -0.5993  0.2061  1.2801
  781MOL0     H 3080   7.747   6.767   8.680 -0.3413 -2.4052 -4.0256
  781MOL0     H 3081   7.978   6.826   8.671  1.2929 -1.1700 -2.6402
  781MOL0     H 3082   8.188   6.891   8.821 -2.5100 -0.8027 -0.0364
  781MOL0     H 3083   8.175   6.873   8.648 -0.2980  1.1198  0.5621
  781MOL0     H 3084   8.414   6.943   8.766  0.1889 -1.7030  0.4433
  781MOL0     H 3085   8.437   6.773   8.756  1.3128  0.3313 -0.9299
  781MOL0     H 3086   8.356   6.939   8.510 -1.9735  0.5599  1.1314
  781MOL0     H 3087   8.366   6.766   8.501  0.4800  1.4694 -1.8763
  781MOL0     H 3088   8.561   6.866   8.415  1.2122  0.2730 -0.3924
  781MOL0     H 3089   8.601   6.940   8.561 -0.8584  0.5765 -0.3379
  781MOL0     H 3090   8.667   6.512   8.625 -1.5569  0.6054  1.5770
  781MOL0     H 3091   8.103   6.447   8.817  0.8816  0.6003  1.2106
  781MOL0     H 3092   7.869   6.385   8.841 -1.0996  1.0363  1.7206
  782MOL0     O 3093   4.446   8.586  11.145 -0.0251  0.4144 -0.3927
  782MOL0     C 3094   4.458   8.516  11.246  0.3756 -0.6510  0.4854
  782MOL0     O 3095   4.358   8.456  11.313  0.0891 -0.3507  0.3867
  782MOL0     C 3096   4.224   8.469  11.282 -0.9942  0.5551  0.4926
  782MOL0     C 3097   4.165   8.593  11.239  1.0410  0.3688  0.5631
  782MOL0     C 3098   4.030   8.592  11.215  0.4603 -0.3122  0.2156
  782MOL0     C 3099   3.946   8.477  11.233  0.4068  0.0048 -0.3893
  782MOL0     O 3100   3.806   8.490  11.232  0.1928  0.0064  0.7167
  782MOL0     C 3101   3.731   8.368  11.211 -0.7019  0.0790 -0.0789
  782MOL0     C 3102   3.589   8.414  11.191  0.1318  0.8679  0.6296
  782MOL0     C 3103   3.511   8.283  11.211 -0.0155  0.2213 -0.4263
  782MOL0     C 3104   3.362   8.288  11.200 -1.0013 -0.0173  0.3115
  782MOL0     C 3105   3.307   8.158  11.264  0.1652  0.5344  0.5000
  782MOL0     C 3106   3.154   8.186  11.276  1.3802 -0.1022  0.4454
  782MOL0     C 3107   3.094   8.057  11.336  0.4453 -0.4778  0.3975
  782MOL0     C 3108   2.942   8.062  11.364 -0.3064 -0.3174 -0.1156
  782MOL0     N 3109   2.891   7.949  11.449  0.4818  0.6801  1.0434
  782MOL0     C 3110   2.826   7.987  11.563 -0.0767  0.3126  0.1490
  782MOL0     C 3111   2.766   7.874  11.610  0.4465 -0.5559 -0.6594
  782MOL0     C 3112   2.685   7.873  11.727  0.6274  0.7635  0.0298
  782MOL0     C 3113   2.531   7.838  11.697 -0.3367  0.4234  0.2822
  782MOL0     C 3114   2.458   7.828  11.827  1.0148 -0.0022  0.2017
  782MOL0     C 3115   2.308   7.801  11.810 -0.2511  0.9643  0.5331
  782MOL0     O 3116   2.290   7.688  11.725 -0.3350  0.7780  0.1874
  782MOL0     C 3117   2.160   7.643  11.711 -0.1560  1.3901 -0.0036
  782MOL0     C 3118   2.054   7.679  11.794 -0.2020  0.2006 -0.1164
  782MOL0     C 3119   1.920   7.644  11.770 -0.2951  0.1933  0.8075
  782MOL0     C 3120   1.887   7.563  11.662  1.0238 -0.6143 -0.1570
  782MOL0     C 3121   1.746   7.508  11.649 -0.5967  0.4789  0.2242
  782MOL0     O 3122   1.708   7.472  11.527 -0.5435  0.1904 -0.0925
  782MOL0     C 3123   1.579   7.419  11.502 -0.1644 -0.3861 -0.0580
  782MOL0     C 3124   1.571   7.287  11.449 -0.2445 -0.4546  0.0248
  782MOL0     C 3125   1.447   7.237  11.398 -0.1117 -0.8241  0.1334
  782MOL0     C 3126   1.334   7.324  11.414  0.5505 -0.1420 -0.1156
  782MOL0     O 3127   1.208   7.294  11.365 -0.4428  0.2406  0.7497
  782MOL0     C 3128   1.187   7.160  11.311 -1.4353 -0.3794  0.3058
  782MOL0     C 3129   1.044   7.158  11.257  0.1707 -0.5631  0.3227
  782MOL0     C 3130   0.988   7.016  11.224  0.3361  0.2242 -0.4741
  782MOL0     C 3131   0.966   6.928  11.357 -0.1216  0.2653  0.0580
  782MOL0     C 3132   0.907   6.787  11.323  0.2153 -0.1518  0.3918
  782MOL0     C 3133   0.761   6.785  11.268  1.0654 -1.2244 -0.5528
  782MOL0     C 3134   0.664   6.894  11.338  0.1816  0.5641  0.0922
  782MOL0     C 3135   0.515   6.851  11.339 -0.1557  1.7096  0.4700
  782MOL0    Cl 3136   0.490   6.688  11.424  0.2601 -0.2127 -0.2639
  782MOL0     C 3137   1.345   7.454  11.463  0.3420  0.0710 -0.7361
  782MOL0     C 3138   1.465   7.504  11.522 -0.3517 -0.0494  0.6986
  782MOL0     O 3139   1.671   7.518  11.747  0.2364 -0.4429 -0.5761
  782MOL0     C 3140   1.991   7.523  11.577 -0.5994 -0.1962  0.6304
  782MOL0     C 3141   2.126   7.573  11.596  0.7585  1.4163 -0.1719
  782MOL0     N 3142   2.791   7.771  11.524  0.2367  0.2704 -0.0905
  782MOL0     N 3143   2.863   7.817  11.426  0.0564  0.0613 -0.2380
  782MOL0     C 3144   4.008   8.355  11.267  0.1973 -0.6199  0.0119
  782MOL0     C 3145   4.145   8.356  11.292 -0.4113 -0.0484  0.5164
  782MOL0     C 3146   4.598   8.485  11.292 -0.8481  0.6075 -0.3604
  782MOL0     C 3147   4.709   8.564  11.268 -0.6720  0.1159 -0.2656
  782MOL0     C 3148   4.837   8.526  11.310  1.0110 -0.2084  0.9465
  782MOL0     C 3149   4.867   8.406  11.379  0.0977 -0.2770 -0.0921
  782MOL0     O 3150   4.998   8.388  11.417 -0.2127 -0.1083  0.4108
  782MOL0     C 3151   5.056   8.259  11.389 -0.6542  0.1221  0.0091
  782MOL0     C 3152   5.195   8.272  11.326 -0.0208 -0.5892  0.1760
  782MOL0     C 3153   5.290   8.353  11.415  0.1856 -0.6893 -0.2191
  782MOL0     C 3154   5.431   8.360  11.363  0.7990  0.2314  0.5540
  782MOL0     C 3155   5.530   8.417  11.456 -0.4485 -0.0597  0.1577
  782MOL0     C 3156   5.605   8.450  11.541 -0.3455 -0.2154 -0.8128
  782MOL0     C 3157   4.763   8.313  11.400  0.4729 -1.0898  1.5289
  782MOL0     C 3158   4.630   8.357  11.356  0.0134 -0.3792 -0.6031
  782MOL0     H 3159   4.228   8.682  11.235  1.4745  0.0665  0.5579
  782MOL0     H 3160   3.975   8.681  11.184 -0.4584 -1.2674 -1.0141
  782MOL0     H 3161   3.740   8.304  11.299 -1.4671  2.9949  2.3077
  782MOL0     H 3162   3.782   8.308  11.135 -0.4621  0.6663 -0.3860
  782MOL0     H 3163   3.571   8.456  11.092  1.9192  1.1537  0.3861
  782MOL0     H 3164   3.566   8.488  11.268  4.0171 -0.3221  3.2929
  782MOL0     H 3165   3.539   8.232  11.303 -1.2371 -1.5384 -0.9906
  782MOL0     H 3166   3.549   8.222  11.128 -0.9679  1.0519 -1.5081
  782MOL0     H 3167   3.318   8.375  11.252  2.3291  1.4340  0.9654
  782MOL0     H 3168   3.338   8.300  11.094  1.4119 -0.2465 -0.3028
  782MOL0     H 3169   3.351   8.134  11.361 -1.3481  0.2657  1.1518
  782MOL0     H 3170   3.324   8.073  11.197  1.5617  0.7950  0.4957
  782MOL0     H 3171   3.116   8.214  11.178 -1.3870 -0.3513  1.3517
  782MOL0     H 3172   3.133   8.266  11.349  2.3856 -0.4464  1.1420
  782MOL0     H 3173   3.114   7.973  11.269  0.5053  1.4192 -2.0797
  782MOL0     H 3174   3.148   8.042  11.430  1.9129 -0.3169 -0.3993
  782MOL0     H 3175   2.878   8.066  11.275 -4.2856 -0.7891  2.4698
  782MOL0     H 3176   2.930   8.160  11.412 -3.1918 -0.9182  0.5782
  782MOL0     H 3177   2.827   8.091  11.596  2.0533  0.6280 -0.7962
  782MOL0     H 3178   2.697   7.970  11.775  0.3008  0.2871  1.0935
  782MOL0     H 3179   2.717   7.795  11.796 -1.4861  2.2645  2.9351
  782MOL0     H 3180   2.520   7.749  11.634  1.0134  1.2880 -1.2737
  782MOL0     H 3181   2.477   7.917  11.644 -0.8213  1.4863  2.2453
  782MOL0     H 3182   2.501   7.746  11.886 -1.8293 -1.8173 -0.0615
  782MOL0     H 3183   2.451   7.919  11.887 -1.8683  2.3881 -3.3338
  782MOL0     H 3184   2.270   7.898  11.777 -1.1424  0.2047 -0.7952
  782MOL0     H 3185   2.272   7.787  11.913  0.7575  1.3799  0.9549
  782MOL0     H 3186   2.060   7.742  11.882 -0.6726  0.3208 -0.1721
  782MOL0     H 3187   1.849   7.684  11.842 -0.9392 -1.4196  1.1242
  782MOL0     H 3188   1.667   7.237  11.438  0.1064  0.5446 -1.9855
  782MOL0     H 3189   1.442   7.142  11.345 -0.1139 -0.8004  0.0916
  782MOL0     H 3190   1.209   7.082  11.385  2.4901  0.5756  0.3579
  782MOL0     H 3191   1.266   7.137  11.239  0.3118 -0.4562  2.1331
  782MOL0     H 3192   1.024   7.223  11.171 -2.0727 -0.4021  0.8878
  782MOL0     H 3193   0.984   7.207  11.334  0.1939  2.0496 -1.1792
  782MOL0     H 3194   1.061   6.967  11.159  0.1074  1.2047 -1.5127
  782MOL0     H 3195   0.899   7.023  11.160  1.1058 -1.7182 -1.8613
  782MOL0     H 3196   1.060   6.907  11.409 -0.5145 -1.9015 -0.0117
  782MOL0     H 3197   0.905   6.984  11.428  0.7410 -1.1835  2.0336
  782MOL0     H 3198   0.899   6.735  11.419  1.9851 -1.0621  0.0962
  782MOL0     H 3199   0.972   6.721  11.265 -2.4041 -3.2789  0.7542
  782MOL0     H 3200   0.720   6.684  11.273 -1.9837 -0.0651  0.9951
  782MOL0     H 3201   0.767   6.815  11.163  2.0106 -0.0308 -0.1810
  782MOL0     H 3202   0.695   6.897  11.443 -0.4864  0.8336  0.2876
  782MOL0     H 3203   0.681   6.994  11.296 -1.8110  1.8628  2.1569
  782MOL0     H 3204   0.501   6.835  11.232 -0.7809  2.1302  0.4860
  782MOL0     H 3205   0.448   6.932  11.371 -1.8946  0.7587 -0.6334
  782MOL0     H 3206   1.252   7.510  11.476  0.0257 -0.9309  2.0543
  782MOL0     H 3207   1.455   7.595  11.579  0.1213  1.9941 -2.2518
  782MOL0     H 3208   1.972   7.465  11.488 -2.6130  1.3540 -0.0292
  782MOL0     H 3209   2.207   7.564  11.525 -0.8996 -0.3190 -1.9624
  782MOL0     H 3210   3.959   8.264  11.300  1.3080 -1.4054 -0.4616
  782MOL0     H 3211   4.207   8.271  11.317  0.5541 -0.1492 -1.8932
  782MOL0     H 3212   4.693   8.665  11.232 -1.4191 -0.5319 -1.8849
  782MOL0     H 3213   4.920   8.596  11.303  1.8716 -1.1733  1.3558
  782MOL0     H 3214   4.994   8.189  11.333 -0.0517 -0.4960  0.1044
  782MOL0     H 3215   5.071   8.211  11.487  4.8027 -0.2602 -0.7378
  782MOL0     H 3216   5.237   8.177  11.293  0.5427  0.8490 -3.8569
  782MOL0     H 3217   5.178   8.333  11.237 -1.0496 -0.0587  0.7157
  782MOL0     H 3218   5.292   8.314  11.518  0.9005  1.1692  0.5179
  782MOL0     H 3219   5.238   8.449  11.419  0.6866 -0.3097 -2.1836
  782MOL0     H 3220   5.452   8.256  11.339  1.1598  0.5144 -0.4073
  782MOL0     H 3221   5.426   8.411  11.266 -1.7529  0.2137  0.6027
  782MOL0     H 3222   5.669   8.496  11.614  1.3825 -1.1305 -1.6933
  782MOL0     H 3223   4.789   8.221  11.450  0.1240 -2.6876 -1.0392
  782MOL0     H 3224   4.548   8.295  11.391  0.1047  0.3013  0.9111
  783MOL0     O 3225   3.958   5.833   1.602 -0.0833  0.5813 -0.3172
  783MOL0     C 3226   3.988   5.762   1.700  0.4556  0.6296  0.0080
  783MOL0     O 3227   3.904   5.692   1.777  0.2944 -0.2094  0.8757
  783MOL0     C 3228   3.772   5.689   1.745 -0.5156 -0.1238 -0.0934
  783MOL0     C 3229   3.720   5.626   1.630  0.5612 -0.5773 -0.5616
  783MOL0     C 3230   3.580   5.618   1.616 -0.0478  0.3144 -0.1824
  783MOL0     C 3231   3.492   5.668   1.712 -0.3996 -0.1627  0.2970
  783MOL0     O 3232   3.364   5.643   1.700  1.0120 -0.3393 -0.0202
  783MOL0     C 3233   3.297   5.708   1.588 -0.0986  0.4011 -0.8557
  783MOL0     C 3234   3.172   5.633   1.561  0.3189  0.1476  0.3129
  783MOL0     C 3235   3.053   5.650   1.665  0.1180  0.0975 -0.4880
  783MOL0     C 3236   3.057   5.559   1.787  0.1585 -0.0581  0.1419
  783MOL0     C 3237   2.925   5.564   1.870 -0.2456  0.9216  0.4202
  783MOL0     C 3238   2.895   5.427   1.929  0.2956 -0.3289 -0.2318
  783MOL0     C 3239   2.756   5.432   1.990  0.6942 -0.3507  0.4034
  783MOL0     C 3240   2.712   5.306   2.056 -0.7070  0.1662  0.0858
  783MOL0     N 3241   2.587   5.322   2.137  0.0580  0.5292 -0.2793
  783MOL0     C 3242   2.505   5.434   2.131  0.7844  0.5642  0.2740
  783MOL0     C 3243   2.414   5.418   2.234 -0.5440 -0.5870 -0.1138
  783MOL0     C 3244   2.305   5.512   2.275  0.0945  0.0648 -0.5336
  783MOL0     C 3245   2.178   5.433   2.320  0.7078 -0.9093 -0.1915
  783MOL0     C 3246   2.071   5.534   2.386 -1.0347  0.5457  0.4953
  783MOL0     C 3247   1.946   5.455   2.436 -0.8547  0.0811  0.0323
  783MOL0     O 3248   1.840   5.551   2.447  0.5928  0.4203  0.6241
  783MOL0     C 3249   1.722   5.497   2.494  0.4761 -0.0816 -0.3689
  783MOL0     C 3250   1.690   5.464   2.631  0.2946 -0.3268  0.3820
  783MOL0     C 3251   1.580   5.389   2.663  0.2541  1.0044 -0.3879
  783MOL0     C 3252   1.491   5.350   2.557  0.4711  0.4557  0.2079
  783MOL0     C 3253   1.361   5.273   2.576 -0.7916  0.7866  0.1830
  783MOL0     O 3254   1.341   5.213   2.693 -0.3218  0.4233  0.2638
  783MOL0     C 3255   1.230   5.134   2.712  0.2186  0.6681  0.1685
  783MOL0     C 3256   1.234   4.993   2.741 -0.0556  0.1471  0.0654
  783MOL0     C 3257   1.113   4.914   2.761 -0.9820  0.3536 -0.6646
  783MOL0     C 3258   0.989   4.979   2.742  0.2023 -0.4318 -0.1748
  783MOL0     O 3259   0.868   4.926   2.744  1.1178 -0.0410  1.5649
  783MOL0     C 3260   0.853   4.806   2.819 -0.8819  0.6574 -0.0167
  783MOL0     C 3261   0.706   4.761   2.799 -0.3296 -0.6663  0.3257
  783MOL0     C 3262   0.681   4.702   2.653 -0.3512 -0.0222 -0.9344
  783MOL0     C 3263   0.545   4.627   2.661 -0.0269 -0.7586  1.1348
  783MOL0     C 3264   0.502   4.566   2.527  0.5699  0.5869  0.6334
  783MOL0     C 3265   0.602   4.487   2.446  0.0018  0.6994  0.4481
  783MOL0     C 3266   0.524   4.419   2.333 -0.3458  1.0168 -1.1329
  783MOL0     C 3267   0.592   4.297   2.268 -0.4350 -0.4254  0.0507
  783MOL0    Cl 3268   0.741   4.359   2.192  0.1136 -0.3427 -0.0798
  783MOL0     C 3269   0.989   5.113   2.701  0.6257  0.5580 -0.4196
  783MOL0     C 3270   1.100   5.189   2.693 -0.1269  0.1718 -0.2989
  783MOL0     O 3271   1.285   5.264   2.478 -0.5525 -0.7929 -0.1570
  783MOL0     C 3272   1.526   5.386   2.426 -0.2438  0.6716 -0.3668
  783MOL0     C 3273   1.637   5.452   2.393 -0.4107 -0.6834  0.1078
  783MOL0     N 3274   2.458   5.307   2.302 -1.0086  0.4284  0.1459
  783MOL0     N 3275   2.563   5.263   2.248 -0.2671  0.6524  0.1582
  783MOL0     C 3276   3.542   5.747   1.807 -0.1315  0.0646 -1.7036
  783MOL0     C 3277   3.682   5.761   1.831  1.0209  0.0990 -1.8339
  783MOL0     C 3278   4.132   5.750   1.731 -0.4028 -0.0624 -0.4229
  783MOL0     C 3279   4.236   5.822   1.656  0.1142  0.1710 -0.6097
  783MOL0     C 3280   4.372   5.825   1.686  1.1226 -0.2344 -0.1301
  783MOL0     C 3281   4.418   5.752   1.800  0.6892  0.2257 -0.6548
  783MOL0     O 3282   4.544   5.750   1.851 -0.1487 -0.4439 -0.3184
  783MOL0     C 3283   4.635   5.851   1.807 -0.9044  0.3863 -0.1899
  783MOL0     C 3284   4.702   5.830   1.670  0.4939 -0.2745  0.1972
  783MOL0     C 3285   4.730   5.686   1.645 -0.3863  0.1094  0.0655
  783MOL0     C 3286   4.795   5.642   1.521  0.6831 -0.3729  0.9148
  783MOL0     C 3287   4.911   5.720   1.483  0.3995 -0.7756 -0.6576
  783MOL0     C 3288   5.017   5.769   1.458 -0.3216  0.1353  0.1196
  783MOL0     C 3289   4.325   5.675   1.869 -0.5282 -0.4052 -0.9287
  783MOL0     C 3290   4.187   5.672   1.845  0.5915  0.2184  0.2805
  783MOL0     H 3291   3.788   5.574   1.563  0.0572 -1.2540 -0.5567
  783MOL0     H 3292   3.543   5.561   1.532  0.6622  0.5234 -0.6366
  783MOL0     H 3293   3.366   5.712   1.503 -0.0009  0.0691 -0.7931
  783MOL0     H 3294   3.260   5.807   1.616 -1.0756  0.6503 -2.8483
  783MOL0     H 3295   3.189   5.525   1.560  0.4334  0.1690 -0.3297
  783MOL0     H 3296   3.138   5.683   1.471  0.6575  1.7912  1.0656
  783MOL0     H 3297   2.960   5.635   1.608  0.6786  2.4525 -2.2094
  783MOL0     H 3298   3.064   5.750   1.708  0.3222  0.1257 -0.6056
  783MOL0     H 3299   3.076   5.459   1.746  1.9451  0.4974 -0.4568
  783MOL0     H 3300   3.142   5.588   1.848 -0.8261  2.5432  0.4304
  783MOL0     H 3301   2.847   5.604   1.804  0.6128  3.7853  1.0096
  783MOL0     H 3302   2.927   5.643   1.945 -1.2992  2.1268 -0.7460
  783MOL0     H 3303   2.965   5.401   2.008  0.2819 -0.3598 -0.2297
  783MOL0     H 3304   2.898   5.350   1.851  0.5199 -1.1002  0.5220
  783MOL0     H 3305   2.751   5.521   2.052  1.4163  3.3673 -4.2999
  783MOL0     H 3306   2.687   5.446   1.906 -2.0139 -1.6349  2.2515
  783MOL0     H 3307   2.795   5.270   2.118 -1.6566 -2.2125  0.0912
  783MOL0     H 3308   2.685   5.228   1.984  0.5511 -0.6894  0.5040
  783MOL0     H 3309   2.499   5.513   2.057 -0.7742 -0.2048 -0.4704
  783MOL0     H 3310   2.281   5.586   2.198 -0.3728  1.2448  0.7076
  783MOL0     H 3311   2.342   5.566   2.362 -1.5158  0.5676 -0.1171
  783MOL0     H 3312   2.196   5.343   2.379 -2.4744 -3.5494 -2.8375
  783MOL0     H 3313   2.137   5.390   2.228 -1.5335  0.0744  0.2797
  783MOL0     H 3314   2.116   5.595   2.465 -0.8928  1.5328 -0.3324
  783MOL0     H 3315   2.044   5.601   2.304 -4.1251  0.1161  1.0451
  783MOL0     H 3316   1.959   5.402   2.530  1.9893  3.5904  1.8680
  783MOL0     H 3317   1.918   5.386   2.356  1.5875  0.6757 -1.4242
  783MOL0     H 3318   1.763   5.502   2.701 -1.2603  1.0993  1.3072
  783MOL0     H 3319   1.555   5.375   2.767  2.4296  0.1711  0.0686
  783MOL0     H 3320   1.329   4.940   2.742 -0.3575 -0.5211 -1.9981
  783MOL0     H 3321   1.129   4.810   2.785  1.7315  0.9628  0.5478
  783MOL0     H 3322   0.851   4.829   2.926 -0.4361  1.6388 -0.2086
  783MOL0     H 3323   0.928   4.731   2.793  0.0597  1.2021  1.0162
  783MOL0     H 3324   0.646   4.853   2.807  1.8298  0.7497  1.1842
  783MOL0     H 3325   0.678   4.687   2.874  0.8356  0.0579  1.5083
  783MOL0     H 3326   0.764   4.632   2.636 -1.9581 -2.1781 -0.4356
  783MOL0     H 3327   0.687   4.785   2.583 -2.1324  1.9638  1.1101
  783MOL0     H 3328   0.538   4.548   2.737  0.5262 -3.1269 -1.1150
  783MOL0     H 3329   0.475   4.702   2.698 -0.2893 -0.3206 -0.2057
  783MOL0     H 3330   0.468   4.649   2.464  0.3975  1.6755  2.1033
  783MOL0     H 3331   0.412   4.508   2.552  0.9086  0.2501  1.0947
  783MOL0     H 3332   0.641   4.399   2.499  1.9029  1.7051  0.7878
  783MOL0     H 3333   0.683   4.547   2.404  0.2871 -1.4204 -2.3106
  783MOL0     H 3334   0.426   4.388   2.370 -0.6995  4.0147  0.8642
  783MOL0     H 3335   0.498   4.488   2.252 -0.0957  0.0005 -2.1133
  783MOL0     H 3336   0.522   4.256   2.195 -1.4114  1.5684 -0.1910
  783MOL0     H 3337   0.615   4.225   2.347  2.9009  0.2347 -0.1509
  783MOL0     H 3338   0.898   5.162   2.668  1.8023  1.5494 -2.4238
  783MOL0     H 3339   1.095   5.296   2.677 -1.3004 -0.0694 -1.8057
  783MOL0     H 3340   1.464   5.356   2.342 -2.3756 -0.4733  1.4863
  783MOL0     H 3341   1.659   5.480   2.291 -1.0327  4.1928  1.0490
  783MOL0     H 3342   3.481   5.799   1.880 -1.8428 -0.2633 -2.8312
  783MOL0     H 3343   3.721   5.815   1.917 -1.0549 -0.7079 -0.2921
  783MOL0     H 3344   4.204   5.890   1.578 -1.3810 -0.1957 -0.3367
  783MOL0     H 3345   4.441   5.889   1.633  0.5910  0.4053 -0.0623
  783MOL0     H 3346   4.715   5.856   1.882 -0.8856 -0.1338 -0.1716
  783MOL0     H 3347   4.582   5.947   1.817  0.1916  0.8652  1.4067
  783MOL0     H 3348   4.633   5.859   1.590 -1.7388 -0.3902  1.9800
  783MOL0     H 3349   4.793   5.891   1.665 -0.7341  1.5656 -1.2407
  783MOL0     H 3350   4.635   5.633   1.642  0.7272 -1.9717 -1.3628
  783MOL0     H 3351   4.799   5.649   1.722  0.9732  1.4342 -0.4520
  783MOL0     H 3352   4.828   5.540   1.542 -0.5444 -0.8239  0.7844
  783MOL0     H 3353   4.720   5.639   1.441 -1.5822 -0.4269  2.9269
  783MOL0     H 3354   5.116   5.800   1.432 -1.7077  3.6634 -1.5713
  783MOL0     H 3355   4.360   5.612   1.950  0.3759 -0.1110 -1.0836
  783MOL0     H 3356   4.126   5.617   1.916  1.3962  1.4618  2.0069
  784MOL0     O 3357   7.040   7.329   6.090  0.2375  0.0393 -0.3082
  784MOL0     C 3358   6.969   7.226   6.095  0.6038  0.1016 -0.4121
  784MOL0     O 3359   7.013   7.103   6.129  0.1088 -0.5599 -0.2353
  784MOL0     C 3360   7.149   7.096   6.148  0.9015 -0.2423 -0.1304
  784MOL0     C 3361   7.229   7.051   6.039 -0.5097 -0.5881 -0.0381
  784MOL0     C 3362   7.368   7.048   6.050 -0.2722 -0.1345 -0.6424
  784MOL0     C 3363   7.431   7.099   6.171  0.6656  0.3768 -0.6225
  784MOL0     O 3364   7.567   7.099   6.187 -0.6420  0.0390 -0.6232
  784MOL0     C 3365   7.650   7.066   6.079 -0.2656  0.3221  0.0886
  784MOL0     C 3366   7.789   7.017   6.132  0.1149 -0.9729 -0.1000
  784MOL0     C 3367   7.852   7.133   6.210 -0.7699  0.1388  0.2709
  784MOL0     C 3368   7.994   7.087   6.241  0.2329  0.8150 -0.0543
  784MOL0     C 3369   8.056   7.151   6.359  0.2443  0.4718  0.1265
  784MOL0     C 3370   8.205   7.117   6.355  0.3726  0.1672  0.3860
  784MOL0     C 3371   8.289   7.218   6.425  0.0942 -0.2219  0.1780
  784MOL0     C 3372   8.427   7.158   6.462  0.2125  0.4347  0.2994
  784MOL0     N 3373   8.504   7.133   6.341 -0.0571  0.1608  0.4916
  784MOL0     C 3374   8.568   7.224   6.256  0.0883  0.0172 -0.3739
  784MOL0     C 3375   8.623   7.155   6.154 -0.1137  0.3252  1.1998
  784MOL0     C 3376   8.693   7.206   6.022 -0.3675  0.0434  0.1420
  784MOL0     C 3377   8.607   7.167   5.904  0.1965  0.4279 -0.0833
  784MOL0     C 3378   8.472   7.246   5.889 -0.2048  0.5763  0.8050
  784MOL0     C 3379   8.339   7.169   5.923  0.2642  0.0433 -0.7376
  784MOL0     O 3380   8.224   7.252   5.894  0.1199  0.3039  0.2840
  784MOL0     C 3381   8.107   7.193   5.850  0.6717 -0.3879  0.0612
  784MOL0     C 3382   8.080   7.062   5.809  0.4464 -0.2079  0.2809
  784MOL0     C 3383   7.949   7.029   5.777 -0.4525  0.6889 -0.1113
  784MOL0     C 3384   7.843   7.123   5.783  0.6961 -0.7618  0.2597
  784MOL0     C 3385   7.710   7.083   5.747  0.2706 -0.1679 -0.4094
  784MOL0     O 3386   7.618   7.189   5.752 -0.0740 -0.1124 -0.4228
  784MOL0     C 3387   7.482   7.172   5.734 -0.3844 -0.4883 -0.0801
  784MOL0     C 3388   7.410   7.254   5.816 -0.3810  0.0454 -0.2324
  784MOL0     C 3389   7.275   7.267   5.796 -0.5057  0.1117  0.8520
  784MOL0     C 3390   7.207   7.180   5.703 -0.6538 -0.2547 -0.9887
  784MOL0     O 3391   7.074   7.205   5.712  0.4093 -0.5708 -0.6041
  784MOL0     C 3392   6.978   7.108   5.667 -0.0305 -0.3082  0.4333
  784MOL0     C 3393   6.956   6.994   5.761 -0.4214 -0.4662  0.8573
  784MOL0     C 3394   6.817   6.939   5.754  0.1547 -0.2772  0.3277
  784MOL0     C 3395   6.806   6.827   5.863  0.1589  0.9104 -0.1681
  784MOL0     C 3396   6.666   6.779   5.876 -0.1463 -0.1064 -0.1411
  784MOL0     C 3397   6.665   6.669   5.974 -0.1935  0.0335 -0.5424
  784MOL0     C 3398   6.523   6.616   6.002  0.0283  0.2822  0.1221
  784MOL0     C 3399   6.509   6.461   6.010 -0.1030 -0.0224  0.0712
  784MOL0    Cl 3400   6.339   6.440   5.974 -0.0602  0.2182  0.2040
  784MOL0     C 3401   7.285   7.079   5.647  0.0993  0.6257 -0.1449
  784MOL0     C 3402   7.420   7.082   5.649  0.3120 -0.5114  0.7035
  784MOL0     O 3403   7.678   6.969   5.712 -0.4296  0.6159  0.5517
  784MOL0     C 3404   7.875   7.255   5.820  0.3016 -0.3974 -0.2018
  784MOL0     C 3405   8.004   7.290   5.849 -0.1917  0.1110 -0.0159
  784MOL0     N 3406   8.604   7.018   6.180  0.3913  0.2759 -0.0977
  784MOL0     N 3407   8.530   7.010   6.288 -0.0492 -0.7957  0.6042
  784MOL0     C 3408   7.345   7.146   6.274 -1.2534 -0.4391  0.6903
  784MOL0     C 3409   7.211   7.146   6.265 -0.0115  0.0388  0.3974
  784MOL0     C 3410   6.824   7.244   6.094  0.0665 -0.0841 -0.1576
  784MOL0     C 3411   6.724   7.141   6.118  0.7957 -0.1185 -0.6651
  784MOL0     C 3412   6.588   7.167   6.131 -0.3658 -0.6649  0.2842
  784MOL0     C 3413   6.548   7.303   6.127 -0.7294 -0.7011 -0.2473
  784MOL0     O 3414   6.420   7.343   6.152 -0.6756 -0.0580 -0.4340
  784MOL0     C 3415   6.308   7.254   6.137  0.1361  1.1859 -0.0094
  784MOL0     C 3416   6.178   7.330   6.162 -0.1206 -0.4353 -0.2975
  784MOL0     C 3417   6.081   7.325   6.044 -0.7142  0.0944 -0.5229
  784MOL0     C 3418   5.949   7.391   6.061 -0.2504  0.1176 -0.4116
  784MOL0     C 3419   5.965   7.532   6.101  0.1947  0.4662  0.4483
  784MOL0     C 3420   5.976   7.638   6.144  0.2554 -1.1623 -0.9495
  784MOL0     C 3421   6.643   7.405   6.103 -0.7500  0.3217  0.2315
  784MOL0     C 3422   6.777   7.373   6.087  0.5002 -0.4911  0.2328
  784MOL0     H 3423   7.181   7.025   5.945 -1.6161  1.4675 -0.0965
  784MOL0     H 3424   7.425   7.019   5.962 -1.2438  1.9418 -2.0230
  784MOL0     H 3425   7.655   7.149   6.009 -2.2773  0.5279  0.1524
  784MOL0     H 3426   7.616   6.975   6.029 -0.8424  0.7723 -0.3464
  784MOL0     H 3427   7.854   6.985   6.050 -0.0496  0.0864 -0.6640
  784MOL0     H 3428   7.775   6.933   6.199  0.9435 -1.3170 -0.3514
  784MOL0     H 3429   7.791   7.142   6.300 -3.0427  1.0544 -1.2832
  784MOL0     H 3430   7.861   7.230   6.161  0.5884  0.8271  1.7862
  784MOL0     H 3431   7.991   6.978   6.251 -3.0142  0.3941 -3.2241
  784MOL0     H 3432   8.042   7.122   6.149 -1.3091  0.7603 -0.9297
  784MOL0     H 3433   8.010   7.120   6.454  1.7938  0.9581  1.0746
  784MOL0     H 3434   8.043   7.259   6.345 -0.4529  0.2697 -0.8957
  784MOL0     H 3435   8.238   7.118   6.251 -0.3315  1.0575  0.1615
  784MOL0     H 3436   8.218   7.016   6.395  0.2098 -0.2079 -0.4732
  784MOL0     H 3437   8.306   7.306   6.363  3.4011 -2.4210 -2.4171
  784MOL0     H 3438   8.235   7.249   6.515 -0.4360 -3.2885  1.0285
  784MOL0     H 3439   8.410   7.065   6.517  3.2272 -0.2632  0.2601
  784MOL0     H 3440   8.474   7.234   6.525  2.3186 -0.3872 -0.1957
  784MOL0     H 3441   8.570   7.332   6.253  0.0927  0.0707  1.0484
  784MOL0     H 3442   8.794   7.165   6.016 -0.1451  0.6092 -0.0315
  784MOL0     H 3443   8.707   7.314   6.031  1.9876 -0.3163  1.7888
  784MOL0     H 3444   8.587   7.060   5.890 -1.8159  0.6206  0.8997
  784MOL0     H 3445   8.666   7.202   5.819  0.5149  1.4995  0.5665
  784MOL0     H 3446   8.480   7.342   5.941 -0.2257  1.2187 -0.3439
  784MOL0     H 3447   8.463   7.269   5.782  0.5465  2.6583  1.1509
  784MOL0     H 3448   8.340   7.142   6.029 -0.6773 -1.4154 -1.0726
  784MOL0     H 3449   8.330   7.074   5.868  0.1805 -0.7302  0.5767
  784MOL0     H 3450   8.154   6.982   5.811  0.2070 -0.4461 -0.1474
  784MOL0     H 3451   7.931   6.925   5.753 -0.4211  0.1570  2.0074
  784MOL0     H 3452   7.436   7.338   5.880  0.0705  0.5641 -1.0805
  784MOL0     H 3453   7.218   7.346   5.843 -0.8052  0.1109  0.4870
  784MOL0     H 3454   7.006   7.073   5.567 -0.0680  0.1124  0.2750
  784MOL0     H 3455   6.881   7.156   5.653  0.1800  0.0304  0.1210
  784MOL0     H 3456   6.980   7.022   5.864  0.1505  0.4069  0.4951
  784MOL0     H 3457   7.025   6.913   5.736  0.3402  0.2504  0.6086
  784MOL0     H 3458   6.811   6.904   5.651  0.5655  2.1864 -0.6014
  784MOL0     H 3459   6.743   7.018   5.767 -0.7169 -1.5262  4.0100
  784MOL0     H 3460   6.877   6.746   5.843 -1.0624 -1.0607  2.7006
  784MOL0     H 3461   6.834   6.866   5.961  0.6090 -0.8196  0.4291
  784MOL0     H 3462   6.639   6.742   5.776  0.5070 -1.6737  0.2356
  784MOL0     H 3463   6.600   6.861   5.906  0.4823  0.0015  0.9980
  784MOL0     H 3464   6.691   6.707   6.073 -2.5537  0.4281 -0.0143
  784MOL0     H 3465   6.726   6.584   5.940  0.3594  1.1364 -2.4179
  784MOL0     H 3466   6.478   6.656   6.093 -3.6419  1.2773 -1.8954
  784MOL0     H 3467   6.457   6.644   5.919  3.1732  2.7611 -1.7361
  784MOL0     H 3468   6.540   6.406   6.100  2.9951 -0.3980 -1.1188
  784MOL0     H 3469   6.576   6.422   5.933  2.0225  2.1971  0.6692
  784MOL0     H 3470   7.234   7.000   5.592  4.4840 -3.7437  1.3064
  784MOL0     H 3471   7.487   7.017   5.593  1.0595  0.6777  0.1850
  784MOL0     H 3472   7.792   7.325   5.827  0.7790  0.5539 -2.7923
  784MOL0     H 3473   8.028   7.388   5.888  2.1452  0.2569 -1.6196
  784MOL0     H 3474   7.400   7.183   6.360  0.9677 -3.1725  0.5589
  784MOL0     H 3475   7.147   7.199   6.335  1.2493  2.2002 -0.0023
  784MOL0     H 3476   6.763   7.040   6.132  0.7333  0.1576  1.9330
  784MOL0     H 3477   6.510   7.093   6.144 -0.9148 -0.8510 -3.0902
  784MOL0     H 3478   6.327   7.177   6.213  2.8944  1.2253 -0.5458
  784MOL0     H 3479   6.296   7.215   6.035  0.9160  2.3973 -0.5854
  784MOL0     H 3480   6.128   7.288   6.250  1.9661 -2.3280  0.0646
  784MOL0     H 3481   6.203   7.435   6.181 -2.7042  0.6937 -2.4968
  784MOL0     H 3482   6.064   7.221   6.014  0.6106  0.3628 -2.3772
  784MOL0     H 3483   6.134   7.378   5.964  0.8462 -2.2298 -1.1270
  784MOL0     H 3484   5.882   7.376   5.976 -2.8414 -0.6802  1.6402
  784MOL0     H 3485   5.904   7.336   6.144  0.6592 -0.0329 -0.0053
  784MOL0     H 3486   5.969   7.739   6.180 -3.6274 -2.0038  1.2009
  784MOL0     H 3487   6.608   7.508   6.103 -1.3512  0.1286 -0.5136
  784MOL0     H 3488   6.850   7.453   6.073  1.3863 -0.9351  2.0800
  785MOL0     O 3489   3.124   6.791  11.109 -0.3854  0.2363  0.1982
  785MOL0     C 3490   3.138   6.690  11.175  0.4904 -0.8407 -0.6181
  785MOL0     O 3491   3.238   6.666  11.269 -0.4901 -0.5075  0.4683
  785MOL0     C 3492   3.325   6.773  11.297  0.2893 -0.6271 -0.1273
  785MOL0     C 3493   3.432   6.786  11.218 -0.5132 -0.3986  0.3271
  785MOL0     C 3494   3.534   6.875  11.256 -0.2705  0.1206  0.0631
  785MOL0     C 3495   3.524   6.946  11.376  0.1286 -0.1687 -0.2174
  785MOL0     O 3496   3.631   7.023  11.404  0.4026  0.5613 -0.2196
  785MOL0     C 3497   3.659   7.058  11.547  0.1028  0.1225  0.5751
  785MOL0     C 3498   3.805   7.111  11.553  1.3907  0.3009  0.1426
  785MOL0     C 3499   3.903   6.999  11.525  0.1111 -0.2304  0.4322
  785MOL0     C 3500   4.050   7.049  11.541  0.5880  0.4109 -0.2604
  785MOL0     C 3501   4.087   7.087  11.686 -0.6453 -0.1253  0.4695
  785MOL0     C 3502   4.238   7.138  11.691  0.2315  0.7933 -0.5072
  785MOL0     C 3503   4.284   7.157  11.834  1.0204  0.1946 -0.3238
  785MOL0     C 3504   4.265   7.299  11.894  0.2001  0.1985  1.0988
  785MOL0     N 3505   4.121   7.354  11.909 -0.8339 -0.4687  0.4308
  785MOL0     C 3506   4.018   7.311  11.996 -0.9078 -0.6830  0.3396
  785MOL0     C 3507   3.909   7.362  11.932 -0.0575  0.6092  0.3803
  785MOL0     C 3508   3.774   7.353  11.992 -0.0976  0.8735 -0.6889
  785MOL0     C 3509   3.703   7.221  11.956 -0.2752 -0.5224 -0.4087
  785MOL0     C 3510   3.576   7.188  12.052  0.1449  0.0706 -0.3338
  785MOL0     C 3511   3.456   7.248  11.975  0.4958 -0.5442  0.3496
  785MOL0     O 3512   3.428   7.188  11.847  0.2581  0.1861  0.1128
  785MOL0     C 3513   3.335   7.091  11.840  0.4073  0.3527  0.1341
  785MOL0     C 3514   3.370   6.959  11.805 -0.0064  0.0119  0.6630
  785MOL0     C 3515   3.266   6.867  11.790  0.3698 -0.5235 -0.1125
  785MOL0     C 3516   3.129   6.905  11.799 -0.2138 -0.6933  0.1258
  785MOL0     C 3517   3.010   6.821  11.763 -0.5051 -0.1840  0.2705
  785MOL0     O 3518   3.034   6.688  11.731 -0.1040 -0.1135  0.5866
  785MOL0     C 3519   2.940   6.611  11.672  0.4279 -0.0433  0.2866
  785MOL0     C 3520   2.933   6.589  11.532 -1.0997 -0.0329  0.2324
  785MOL0     C 3521   2.823   6.520  11.487  0.6264 -0.3657  0.1541
  785MOL0     C 3522   2.721   6.460  11.577 -0.4045 -1.0475  0.6934
  785MOL0     O 3523   2.622   6.393  11.512 -0.3573  1.0010  1.0124
  785MOL0     C 3524   2.529   6.313  11.586  0.4485  0.3445 -0.2175
  785MOL0     C 3525   2.431   6.244  11.487  0.0990 -0.4542  0.0152
  785MOL0     C 3526   2.299   6.205  11.546 -0.6980  0.3595 -0.1519
  785MOL0     C 3527   2.232   6.092  11.466 -0.2089 -0.0407  0.0961
  785MOL0     C 3528   2.096   6.058  11.530  0.2241  0.0186 -0.0414
  785MOL0     C 3529   2.017   5.949  11.451 -0.6220 -0.8031 -0.4071
  785MOL0     C 3530   1.913   5.890  11.551  0.2411 -0.0623 -0.8580
  785MOL0     C 3531   1.832   5.771  11.493 -0.0115  0.5413  0.4787
  785MOL0    Cl 3532   1.754   5.802  11.333  0.8596 -0.1187 -0.6490
  785MOL0     C 3533   2.732   6.482  11.710 -0.6949  0.6342 -0.3803
  785MOL0     C 3534   2.840   6.559  11.763  0.7722 -0.0553  0.3256
  785MOL0     O 3535   2.899   6.871  11.756  0.1983 -0.0465 -0.1214
  785MOL0     C 3536   3.099   7.036  11.845 -0.1541  0.4810  0.0579
  785MOL0     C 3537   3.197   7.126  11.872 -0.0150  0.4416 -0.6086
  785MOL0     N 3538   3.945   7.434  11.824 -0.0498  0.5367  0.4382
  785MOL0     N 3539   4.065   7.429  11.810  0.0062  0.2894 -0.9981
  785MOL0     C 3540   3.413   6.922  11.455  0.3363 -0.4556 -0.0859
  785MOL0     C 3541   3.308   6.841  11.413  0.0496  0.7627 -0.5136
  785MOL0     C 3542   3.040   6.585  11.142  0.6826  0.8442 -0.1401
  785MOL0     C 3543   2.930   6.604  11.054  0.2887 -0.2728  0.6742
  785MOL0     C 3544   2.851   6.498  11.023 -0.3962 -0.6348 -0.1676
  785MOL0     C 3545   2.858   6.376  11.091 -0.3337  0.3991 -0.4047
  785MOL0     O 3546   2.768   6.279  11.076  0.4932  0.3196  0.2570
  785MOL0     C 3547   2.684   6.269  11.187  0.9157  0.4077 -0.0144
  785MOL0     C 3548   2.602   6.139  11.164  0.5092 -0.0379 -0.5267
  785MOL0     C 3549   2.693   6.016  11.172 -0.1225 -0.3697  0.3848
  785MOL0     C 3550   2.632   5.881  11.130 -0.1444 -0.4524  0.4807
  785MOL0     C 3551   2.513   5.835  11.196 -0.5646 -0.6334  0.0158
  785MOL0     C 3552   2.403   5.828  11.242  0.5744  1.2300  0.1606
  785MOL0     C 3553   2.955   6.358  11.181  0.8551 -0.1826 -0.0730
  785MOL0     C 3554   3.053   6.462  11.198  1.3679 -0.5203  0.3439
  785MOL0     H 3555   3.442   6.712  11.139 -3.2294 -1.6642  1.0424
  785MOL0     H 3556   3.624   6.880  11.195  0.7894 -1.6185  1.3766
  785MOL0     H 3557   3.645   6.967  11.607  1.4306 -0.9706 -0.6923
  785MOL0     H 3558   3.587   7.136  11.572 -0.8928 -1.4045  2.7241
  785MOL0     H 3559   3.827   7.152  11.652 -1.4355 -0.9044  1.3805
  785MOL0     H 3560   3.813   7.190  11.477  0.2512  0.9250  0.6322
  785MOL0     H 3561   3.888   6.959  11.424  0.2440 -2.1546  1.1288
  785MOL0     H 3562   3.877   6.925  11.601  1.1537 -1.3181 -0.2227
  785MOL0     H 3563   4.123   6.977  11.503  0.9418  1.4019 -1.5522
  785MOL0     H 3564   4.055   7.141  11.481  1.1048  1.4606  1.3017
  785MOL0     H 3565   4.065   7.002  11.753 -0.8147 -1.9590 -1.7906
  785MOL0     H 3566   4.027   7.172  11.722  1.1414  2.2611 -1.8477
  785MOL0     H 3567   4.249   7.232  11.635 -0.4589  0.5636 -1.0483
  785MOL0     H 3568   4.298   7.061  11.642  0.4037  0.1865  0.6375
  785MOL0     H 3569   4.237   7.080  11.896 -1.9177  1.0046 -1.3244
  785MOL0     H 3570   4.391   7.141  11.819  0.3274 -3.2910 -3.1170
  785MOL0     H 3571   4.314   7.374  11.831 -1.1823  0.7630  0.6611
  785MOL0     H 3572   4.316   7.295  11.990  0.9879  0.2295  0.6881
  785MOL0     H 3573   4.026   7.257  12.090 -1.7333  0.0994  0.8753
  785MOL0     H 3574   3.721   7.438  11.946  1.1795  0.8012 -2.4287
  785MOL0     H 3575   3.791   7.375  12.097 -1.3968  2.1540 -0.7079
  785MOL0     H 3576   3.772   7.136  11.960 -1.9090 -1.8879  0.0713
  785MOL0     H 3577   3.670   7.242  11.854 -0.6691 -0.5889 -0.2949
  785MOL0     H 3578   3.565   7.079  12.056 -1.5748  0.2266 -0.0201
  785MOL0     H 3579   3.571   7.238  12.149 -1.5046  2.1237 -1.3921
  785MOL0     H 3580   3.477   7.354  11.957  1.8731 -1.1994 -2.4063
  785MOL0     H 3581   3.365   7.235  12.034 -1.3632 -0.5865 -2.3312
  785MOL0     H 3582   3.477   6.938  11.805  0.0243  0.1224  1.8859
  785MOL0     H 3583   3.289   6.768  11.751  1.1505  0.4002 -2.1569
  785MOL0     H 3584   2.996   6.650  11.469 -0.1851  0.6394  1.7368
  785MOL0     H 3585   2.826   6.503  11.380  1.9141  0.2504  0.0747
  785MOL0     H 3586   2.467   6.378  11.648 -0.4123 -0.8114  0.1659
  785MOL0     H 3587   2.586   6.255  11.659  0.4079  1.2349  0.5420
  785MOL0     H 3588   2.483   6.152  11.461  2.3002  1.0189 -1.1271
  785MOL0     H 3589   2.405   6.299  11.395 -1.9181  1.0786  1.4019
  785MOL0     H 3590   2.234   6.289  11.573  1.3583  1.4698  1.7601
  785MOL0     H 3591   2.325   6.166  11.645 -3.6334 -0.3198  0.4421
  785MOL0     H 3592   2.223   6.124  11.362 -1.2549 -0.9797 -0.1238
  785MOL0     H 3593   2.298   6.005  11.467  1.7659  1.3760  1.9800
  785MOL0     H 3594   2.028   6.143  11.539  1.2373  1.1058 -1.9998
  785MOL0     H 3595   2.105   6.016  11.630 -2.0261 -2.5546 -0.7558
  785MOL0     H 3596   2.082   5.877  11.400 -2.7551 -1.6240 -2.1304
  785MOL0     H 3597   1.965   5.999  11.369  1.3657 -3.6266 -3.6580
  785MOL0     H 3598   1.975   5.854  11.634 -1.9693 -0.2229  0.8203
  785MOL0     H 3599   1.836   5.958  11.589  0.1083 -0.5632 -0.2189
  785MOL0     H 3600   1.757   5.750  11.570  0.5213  0.6356  1.0319
  785MOL0     H 3601   1.893   5.681  11.481 -2.1261 -1.2351  2.0940
  785MOL0     H 3602   2.660   6.439  11.779  0.7824  0.9959  1.4722
  785MOL0     H 3603   2.852   6.578  11.870 -0.7274  0.8752  0.3621
  785MOL0     H 3604   2.993   7.056  11.856 -0.2065 -0.0683  0.6029
  785MOL0     H 3605   3.182   7.231  11.894  2.1160  0.7730 -0.4871
  785MOL0     H 3606   3.404   6.979  11.547 -0.6099  1.1289 -1.1195
  785MOL0     H 3607   3.222   6.814  11.473  1.4437  0.0911  1.3146
  785MOL0     H 3608   2.913   6.702  11.013  0.0787 -0.6930 -0.2636
  785MOL0     H 3609   2.769   6.514  10.953  1.6746  0.8434 -2.4055
  785MOL0     H 3610   2.623   6.360  11.194 -0.4314 -0.3672 -1.2237
  785MOL0     H 3611   2.735   6.256  11.283  0.6625  1.4444  0.2736
  785MOL0     H 3612   2.525   6.136  11.242  2.7161  0.6222  1.8515
  785MOL0     H 3613   2.553   6.148  11.067 -0.4017 -2.2545 -0.3232
  785MOL0     H 3614   2.736   6.010  11.272 -1.7139  1.1018  1.2050
  785MOL0     H 3615   2.778   6.027  11.103 -0.0467  1.7131  0.7320
  785MOL0     H 3616   2.605   5.890  11.025  0.9043 -2.3482  0.0129
  785MOL0     H 3617   2.708   5.805  11.147 -0.0561  0.0590  2.8199
  785MOL0     H 3618   2.303   5.822  11.279  0.7821 -7.3003  1.1369
  785MOL0     H 3619   2.957   6.266  11.240  0.6859 -0.5667 -0.6519
  785MOL0     H 3620   3.134   6.437  11.266  0.5782 -2.7857  0.5629
  786MOL0     O 3621   0.765   7.055  10.492  0.4336  0.3054  0.0974
  786MOL0     C 3622   0.819   7.074  10.384 -0.6826  0.2679 -0.4624
  786MOL0     O 3623   0.762   7.062  10.261 -0.2577  0.0789 -0.0314
  786MOL0     C 3624   0.623   7.039  10.251 -0.0923 -0.2834  0.0247
  786MOL0     C 3625   0.575   6.963  10.141  0.9061 -0.0816  0.2995
  786MOL0     C 3626   0.434   6.957  10.112 -0.6497 -0.1819 -0.1418
  786MOL0     C 3627   0.340   7.037  10.189 -0.3293 -0.6280 -0.0012
  786MOL0     O 3628   0.206   7.050  10.148 -0.0689 -0.4080  0.0493
  786MOL0     C 3629   0.133   7.168  10.184 -0.0742 -0.3730 -0.4073
  786MOL0     C 3630  -0.005   7.176  10.113 -0.5235  0.0060 -0.2195
  786MOL0     C 3631  -0.068   7.304  10.168 -0.1408  0.2841 -0.4047
  786MOL0     C 3632  -0.224   7.296  10.141  0.6655  0.1202 -0.6971
  786MOL0     C 3633  -0.293   7.416  10.205  0.2703 -0.3164  0.2506
  786MOL0     C 3634  -0.443   7.440  10.167  0.3534  0.8857 -0.0933
  786MOL0     C 3635  -0.532   7.331  10.217  0.4785 -0.6948 -0.3296
  786MOL0     C 3636  -0.679   7.366  10.191  0.3159 -0.1441 -0.6278
  786MOL0     N 3637  -0.782   7.278  10.243  0.9308  0.0455  0.4152
  786MOL0     C 3638  -0.918   7.295  10.278 -0.2944  0.5148  0.5697
  786MOL0     C 3639  -0.966   7.175  10.313 -0.3879  0.3000  0.1486
  786MOL0     C 3640  -1.107   7.145  10.357 -0.4297 -0.1541 -0.3619
  786MOL0     C 3641  -1.213   7.189  10.255 -0.2402  0.4809 -1.1972
  786MOL0     C 3642  -1.345   7.139  10.304 -0.5222  0.1712 -0.5204
  786MOL0     C 3643  -1.459   7.153  10.199 -0.2985  0.4205 -0.7459
  786MOL0     O 3644  -1.570   7.085  10.259 -0.0548  0.5099  0.5194
  786MOL0     C 3645  -1.698   7.119  10.221  0.5937  0.2384 -0.0672
  786MOL0     C 3646  -1.807   7.060  10.300 -0.1153 -0.0381  0.9641
  786MOL0     C 3647  -1.945   7.087  10.275 -0.5286 -0.2028  0.1636
  786MOL0     C 3648  -1.983   7.154  10.161 -0.8401 -0.1805  0.3793
  786MOL0     C 3649  -2.122   7.185  10.141 -0.1095 -0.2886 -0.2049
  786MOL0     O 3650  -2.214   7.092  10.190 -0.2134  0.2195 -0.1763
  786MOL0     C 3651  -2.342   7.122  10.157  0.7184 -0.8139 -0.1300
  786MOL0     C 3652  -2.407   7.070  10.040 -0.0189 -0.1169  0.3810
  786MOL0     C 3653  -2.546   7.091  10.020 -0.0957  0.0429 -0.3274
  786MOL0     C 3654  -2.624   7.150  10.117  0.4678 -0.7798  0.4872
  786MOL0     O 3655  -2.757   7.167  10.103 -0.1155  1.1366  0.2217
  786MOL0     C 3656  -2.807   7.197   9.970 -0.2663  0.8417  0.1934
  786MOL0     C 3657  -2.962   7.218   9.975  1.1114  0.5576  0.4644
  786MOL0     C 3658  -3.035   7.086  10.020  0.7225  0.1264 -0.0169
  786MOL0     C 3659  -3.173   7.123  10.086  0.2028 -0.2208 -0.0407
  786MOL0     C 3660  -3.238   6.990  10.110  0.2599 -0.0555  0.4460
  786MOL0     C 3661  -3.380   6.995  10.158 -0.2113 -0.2938 -0.3045
  786MOL0     C 3662  -3.434   6.865  10.228 -0.0132  0.4794  0.5486
  786MOL0     C 3663  -3.569   6.874  10.299 -0.5901 -0.0816  0.1971
  786MOL0    Cl 3664  -3.710   6.893  10.183 -0.2068 -0.0060 -0.1747
  786MOL0     C 3665  -2.566   7.193  10.235  0.7102  0.5685  1.1315
  786MOL0     C 3666  -2.423   7.179  10.251 -0.8209 -0.8451 -0.2353
  786MOL0     O 3667  -2.147   7.291  10.078  0.4892 -0.3737 -0.5332
  786MOL0     C 3668  -1.882   7.197  10.070  0.3109 -0.1499 -0.3181
  786MOL0     C 3669  -1.744   7.183  10.105 -0.2656 -0.2401 -0.3628
  786MOL0     N 3670  -0.867   7.082  10.299 -0.4177  0.2629 -0.2411
  786MOL0     N 3671  -0.763   7.146  10.261 -1.1115 -0.1005 -0.3313
  786MOL0     C 3672   0.395   7.113  10.291  0.0641 -0.6965  0.8707
  786MOL0     C 3673   0.528   7.118  10.320 -1.1388  0.6238  0.0305
  786MOL0     C 3674   0.964   7.091  10.380 -0.9081 -0.4920 -0.0452
  786MOL0     C 3675   1.041   7.122  10.492 -0.7277  0.7242 -0.1816
  786MOL0     C 3676   1.182   7.142  10.494  0.3617 -1.2932 -0.3920
  786MOL0     C 3677   1.250   7.112  10.375 -0.2953  0.9244  0.2324
  786MOL0     O 3678   1.389   7.110  10.356 -0.3378 -0.8338  0.2330
  786MOL0     C 3679   1.480   7.098  10.467 -0.2790 -1.0904 -0.2622
  786MOL0     C 3680   1.505   7.230  10.544 -0.4434  1.0338  0.6666
  786MOL0     C 3681   1.607   7.314  10.470  0.3101  0.8222 -0.0331
  786MOL0     C 3682   1.616   7.446  10.544  0.0536 -1.1834 -0.7137
  786MOL0     C 3683   1.754   7.495  10.525  0.5704  1.2864 -0.4895
  786MOL0     C 3684   1.868   7.546  10.512  0.6812 -0.7635 -0.4963
  786MOL0     C 3685   1.176   7.093  10.260  0.1256 -0.4223 -0.6296
  786MOL0     C 3686   1.037   7.076  10.259  0.1187  0.3736  0.0450
  786MOL0     H 3687   0.642   6.914  10.071 -0.3076 -0.7057 -0.4736
  786MOL0     H 3688   0.405   6.899  10.026  3.0132 -0.8775 -1.1103
  786MOL0     H 3689   0.192   7.257  10.160 -2.1271  1.6821  1.6601
  786MOL0     H 3690   0.114   7.161  10.291 -1.3320 -1.8478 -0.6881
  786MOL0     H 3691  -0.059   7.081  10.127 -0.5287  0.0223 -0.1218
  786MOL0     H 3692   0.007   7.191  10.006 -0.6877  3.0732  0.1094
  786MOL0     H 3693  -0.018   7.385  10.115  0.7557 -0.6247 -0.9767
  786MOL0     H 3694  -0.053   7.302  10.276  0.2024 -0.6242 -0.4550
  786MOL0     H 3695  -0.245   7.285  10.034  2.7239  0.1917 -1.1528
  786MOL0     H 3696  -0.250   7.203  10.192  0.7592  0.3456 -0.2391
  786MOL0     H 3697  -0.235   7.503  10.173  2.8917 -1.8809  0.3719
  786MOL0     H 3698  -0.281   7.409  10.314 -1.5459 -4.4835  0.3680
  786MOL0     H 3699  -0.455   7.454  10.059 -0.0243 -1.7925 -0.4812
  786MOL0     H 3700  -0.490   7.524  10.218 -0.7371 -0.1792  0.7097
  786MOL0     H 3701  -0.497   7.244  10.160  2.2908 -1.2009  1.4405
  786MOL0     H 3702  -0.520   7.308  10.323  1.2418 -0.8640 -0.4453
  786MOL0     H 3703  -0.695   7.375  10.084 -1.4701 -1.8902 -0.5634
  786MOL0     H 3704  -0.699   7.468  10.227  0.7353 -0.3336  0.1738
  786MOL0     H 3705  -0.969   7.390  10.291 -0.8025  0.1589  1.2549
  786MOL0     H 3706  -1.114   7.213  10.443  1.7972  0.9555 -0.9728
  786MOL0     H 3707  -1.118   7.039  10.383 -3.5374 -0.1880 -1.4298
  786MOL0     H 3708  -1.189   7.139  10.161  1.8637  0.0588 -0.5053
  786MOL0     H 3709  -1.206   7.298  10.241  3.9203  0.1168 -3.6392
  786MOL0     H 3710  -1.333   7.035  10.335 -2.4734  0.6447  2.0895
  786MOL0     H 3711  -1.376   7.196  10.392 -2.5051  1.6415 -2.0712
  786MOL0     H 3712  -1.426   7.107  10.104 -1.0171 -2.0732  0.1279
  786MOL0     H 3713  -1.471   7.261  10.192  0.5528  0.5493 -0.4049
  786MOL0     H 3714  -1.783   6.999  10.387  0.9994 -0.9112  0.0747
  786MOL0     H 3715  -2.020   7.056  10.348 -0.9365  1.3349  0.4226
  786MOL0     H 3716  -2.352   7.007   9.970  1.9008  0.9919  0.8280
  786MOL0     H 3717  -2.592   7.046   9.933  1.8338  0.2386 -1.5171
  786MOL0     H 3718  -2.793   7.105   9.914  1.4139  2.0398 -1.4778
  786MOL0     H 3719  -2.755   7.276   9.915 -0.0471  1.1144  0.7792
  786MOL0     H 3720  -2.995   7.247   9.875  2.7503 -0.6609 -0.4807
  786MOL0     H 3721  -2.975   7.305  10.040 -1.5999  1.7601 -1.5396
  786MOL0     H 3722  -2.973   7.035  10.094  4.3564 -0.6951 -3.3027
  786MOL0     H 3723  -3.048   7.018   9.936 -0.4856 -0.9444  1.0042
  786MOL0     H 3724  -3.158   7.183  10.177  1.4016  0.0342 -0.3826
  786MOL0     H 3725  -3.225   7.187  10.014  0.6211 -2.1059 -2.1216
  786MOL0     H 3726  -3.183   6.934  10.187  2.3616 -1.6419 -2.0530
  786MOL0     H 3727  -3.243   6.933  10.017  0.2353  0.1681  0.3084
  786MOL0     H 3728  -3.443   7.015  10.071  1.3234  0.5857 -1.2608
  786MOL0     H 3729  -3.393   7.078  10.229 -1.3305 -1.3571  0.7832
  786MOL0     H 3730  -3.434   6.776  10.165 -0.2346 -1.6100  3.3166
  786MOL0     H 3731  -3.359   6.852  10.306  1.4844  0.5104 -0.8214
  786MOL0     H 3732  -3.580   6.958  10.368  0.6949  1.2136 -1.0809
  786MOL0     H 3733  -3.583   6.780  10.353  1.0183 -0.3571  0.1994
  786MOL0     H 3734  -2.621   7.232  10.320 -0.4864  0.2123  0.5304
  786MOL0     H 3735  -2.385   7.211  10.347  0.7634  2.4229 -1.8084
  786MOL0     H 3736  -1.904   7.245   9.976 -0.9598 -0.5647 -0.2452
  786MOL0     H 3737  -1.669   7.228  10.040 -0.6492 -0.0048 -0.6472
  786MOL0     H 3738   0.323   7.177  10.341 -2.9410 -2.0820 -1.3896
  786MOL0     H 3739   0.576   7.195  10.379 -0.8087  2.1319 -2.0925
  786MOL0     H 3740   0.987   7.132  10.586 -0.3014 -0.1982  0.1823
  786MOL0     H 3741   1.237   7.170  10.583  0.2171  2.0867 -1.2345
  786MOL0     H 3742   1.580   7.067  10.435  0.9314 -0.7224  2.8019
  786MOL0     H 3743   1.455   7.013  10.531  0.4849 -1.6052 -0.6314
  786MOL0     H 3744   1.407   7.277  10.560  0.7283  3.9134 -0.0660
  786MOL0     H 3745   1.551   7.204  10.639 -1.9182  2.2536  1.7662
  786MOL0     H 3746   1.564   7.333  10.371  0.9405 -1.9309 -0.9171
  786MOL0     H 3747   1.702   7.260  10.478  0.8704  1.1180 -3.3445
  786MOL0     H 3748   1.527   7.498  10.507 -0.0645 -1.6104 -1.0349
  786MOL0     H 3749   1.606   7.434  10.652 -1.7189  3.6052 -0.0896
  786MOL0     H 3750   1.959   7.602  10.499 -1.4643  3.3008  0.1156
  786MOL0     H 3751   1.239   7.083  10.173 -1.8782 -0.5105 -2.1302
  786MOL0     H 3752   0.982   7.047  10.170 -2.9462 -0.1026  1.9546
  787MOL0     O 3753   7.301   1.503  11.159 -0.0738 -0.2115 -0.1705
  787MOL0     C 3754   7.357   1.501  11.050 -0.3790  0.5919  0.2242
  787MOL0     O 3755   7.321   1.580  10.943 -0.1353  0.2575 -0.0911
  787MOL0     C 3756   7.211   1.659  10.946  0.4429 -0.2388 -0.2007
  787MOL0     C 3757   7.094   1.628  10.876  0.3044  0.4841  1.0274
  787MOL0     C 3758   6.976   1.713  10.886 -0.8164  0.2316  0.3594
  787MOL0     C 3759   6.990   1.819  10.973  0.4963  0.0682 -0.9400
  787MOL0     O 3760   6.873   1.891  10.982 -0.3122  0.2993 -0.1255
  787MOL0     C 3761   6.817   1.897  11.108  0.1861  0.0797 -0.1291
  787MOL0     C 3762   6.699   1.990  11.117  0.2031 -0.7164  0.4771
  787MOL0     C 3763   6.582   1.941  11.035  0.1209  0.4743  0.5654
  787MOL0     C 3764   6.455   2.002  11.068 -0.2582 -0.0462  0.3090
  787MOL0     C 3765   6.335   1.955  10.986  0.3647 -1.4917 -0.6746
  787MOL0     C 3766   6.258   1.845  11.054  0.5062 -0.7101  0.5280
  787MOL0     C 3767   6.176   1.901  11.181 -0.0943 -0.0369 -0.3687
  787MOL0     C 3768   6.095   1.782  11.242 -0.1343 -0.8555 -0.5758
  787MOL0     N 3769   6.029   1.691  11.144 -0.0056  0.0423  0.0505
  787MOL0     C 3770   5.909   1.704  11.073 -0.5353  0.4521  0.4628
  787MOL0     C 3771   5.911   1.595  11.000  0.4900  0.1481 -0.3762
  787MOL0     C 3772   5.792   1.564  10.905  0.0084 -0.6783  0.2411
  787MOL0     C 3773   5.684   1.478  10.971  0.7915 -0.5308 -0.5179
  787MOL0     C 3774   5.571   1.460  10.873  0.7864  0.2601 -0.2209
  787MOL0     C 3775   5.593   1.367  10.757  0.3183 -0.2373 -0.7694
  787MOL0     O 3776   5.492   1.271  10.744 -0.0662 -0.4787  0.2291
  787MOL0     C 3777   5.361   1.312  10.727  0.2401  0.3601 -0.0369
  787MOL0     C 3778   5.337   1.406  10.632 -0.1672 -0.3369 -0.7179
  787MOL0     C 3779   5.214   1.456  10.613 -0.0082 -0.0645 -0.0605
  787MOL0     C 3780   5.105   1.414  10.700 -1.1456 -0.2784  0.5021
  787MOL0     C 3781   4.973   1.474  10.684 -1.1057 -0.5220  1.2393
  787MOL0     O 3782   4.966   1.570  10.582 -0.1499  0.0732  0.0978
  787MOL0     C 3783   4.846   1.635  10.562  0.4245 -0.0321  0.7240
  787MOL0     C 3784   4.781   1.629  10.437  0.8390  0.5899 -0.0896
  787MOL0     C 3785   4.671   1.705  10.410  0.3613 -0.8860 -0.1608
  787MOL0     C 3786   4.613   1.789  10.506  0.0886  0.2230 -0.2630
  787MOL0     O 3787   4.496   1.845  10.454 -0.3857  0.1145 -0.3331
  787MOL0     C 3788   4.403   1.878  10.554  0.2059 -0.0909  0.5458
  787MOL0     C 3789   4.257   1.885  10.511  0.8596  0.1405 -0.2448
  787MOL0     C 3790   4.197   1.747  10.488 -0.8054 -0.3350  0.7409
  787MOL0     C 3791   4.131   1.682  10.613 -1.1957 -1.1583 -0.1274
  787MOL0     C 3792   4.087   1.542  10.596  0.2309 -0.1227 -0.2900
  787MOL0     C 3793   3.997   1.501  10.707  0.1894 -0.1879  0.1138
  787MOL0     C 3794   3.961   1.359  10.710  0.4277  0.4305  0.4667
  787MOL0     C 3795   3.841   1.319  10.801  0.2845 -0.0993  0.6739
  787MOL0    Cl 3796   3.676   1.355  10.734  0.1120  0.0339  0.0058
  787MOL0     C 3797   4.677   1.799  10.635 -0.2710  0.3213 -0.1583
  787MOL0     C 3798   4.791   1.722  10.660 -0.3422 -0.0562  0.0767
  787MOL0     O 3799   4.888   1.453  10.768  0.5816 -1.0294  0.4208
  787MOL0     C 3800   5.128   1.318  10.800 -0.6106  0.6000 -0.1742
  787MOL0     C 3801   5.258   1.269  10.820  0.6888  0.2877  0.0951
  787MOL0     N 3802   6.023   1.511  11.017 -0.4032  0.2814 -1.0280
  787MOL0     N 3803   6.091   1.573  11.113  0.3733 -0.1151 -0.4978
  787MOL0     C 3804   7.109   1.851  11.043  0.6749 -1.2835  0.5898
  787MOL0     C 3805   7.219   1.774  11.028 -0.5921  1.0724  0.3444
  787MOL0     C 3806   7.474   1.415  11.021  0.5061 -1.2307  0.1909
  787MOL0     C 3807   7.476   1.287  11.069  0.2727 -0.7073  0.5839
  787MOL0     C 3808   7.590   1.216  11.040  0.4072  0.3893 -0.3987
  787MOL0     C 3809   7.696   1.254  10.957  0.9626 -0.7297 -0.0834
  787MOL0     O 3810   7.807   1.179  10.926 -0.4560 -0.2847 -0.0801
  787MOL0     C 3811   7.840   1.058  10.997  0.4316 -0.7632 -0.5141
  787MOL0     C 3812   7.900   1.106  11.132  0.3791  0.0757 -0.3861
  787MOL0     C 3813   8.015   1.193  11.108 -0.7109 -0.3531 -0.8331
  787MOL0     C 3814   8.082   1.231  11.244 -0.3829 -0.0720 -0.6258
  787MOL0     C 3815   8.216   1.297  11.214  0.0266  0.4983 -0.1087
  787MOL0     C 3816   8.340   1.316  11.201 -0.2068  0.2643  0.3416
  787MOL0     C 3817   7.687   1.383  10.911  0.6326 -0.4751 -1.2925
  787MOL0     C 3818   7.576   1.469  10.944  0.0212  0.0950  0.9852
  787MOL0     H 3819   7.104   1.529  10.832  2.1929  0.1883  2.0151
  787MOL0     H 3820   6.881   1.697  10.837 -0.3943  3.6346 -1.9436
  787MOL0     H 3821   6.889   1.943  11.176 -0.7990 -1.4137  2.0605
  787MOL0     H 3822   6.793   1.798  11.150 -0.1781  0.3240  0.2408
  787MOL0     H 3823   6.720   2.096  11.098  0.3599 -0.5598  1.4513
  787MOL0     H 3824   6.663   1.990  11.220 -0.4746  0.0144  0.2525
  787MOL0     H 3825   6.579   1.832  11.047  4.0090  0.4115  2.6211
  787MOL0     H 3826   6.607   1.955  10.930  3.0783  0.1142  1.1328
  787MOL0     H 3827   6.436   1.997  11.175 -0.4627  3.3061  0.5630
  787MOL0     H 3828   6.474   2.110  11.060 -1.1073  0.1933  1.3124
  787MOL0     H 3829   6.372   1.912  10.892  2.6939 -0.5900 -0.2395
  787MOL0     H 3830   6.267   2.036  10.960  1.1083 -0.0999  1.4265
  787MOL0     H 3831   6.312   1.755  11.084  1.4331  0.2438  1.8454
  787MOL0     H 3832   6.177   1.815  10.986  0.5597  1.5627 -0.6207
  787MOL0     H 3833   6.249   1.924  11.259  0.5226 -1.2527 -0.5710
  787MOL0     H 3834   6.107   1.981  11.154  0.1888 -0.3879 -2.2294
  787MOL0     H 3835   6.019   1.812  11.314  3.0317  0.4828  2.4883
  787MOL0     H 3836   6.167   1.721  11.298 -0.4060  0.6070  1.4632
  787MOL0     H 3837   5.837   1.785  11.079 -1.0081  0.1673 -0.9596
  787MOL0     H 3838   5.834   1.500  10.828 -0.7223 -0.5005 -0.3169
  787MOL0     H 3839   5.766   1.664  10.870  0.8289  0.3039  2.2641
  787MOL0     H 3840   5.649   1.528  11.062 -3.3044 -2.9525 -0.5431
  787MOL0     H 3841   5.713   1.376  10.996 -1.4946 -1.5706 -1.8132
  787MOL0     H 3842   5.484   1.431  10.933  2.5483 -0.5842  2.0649
  787MOL0     H 3843   5.556   1.564  10.842  2.1200  1.4220  2.6567
  787MOL0     H 3844   5.694   1.327  10.756  1.2185  1.3919  3.6521
  787MOL0     H 3845   5.584   1.432  10.669  2.5624 -0.3981 -1.1643
  787MOL0     H 3846   5.415   1.445  10.566  2.0773  0.5053  2.2304
  787MOL0     H 3847   5.194   1.528  10.535  1.8022 -0.2478 -0.7246
  787MOL0     H 3848   4.815   1.567  10.355  1.3819  0.5283  0.1791
  787MOL0     H 3849   4.646   1.714  10.305  0.5388  2.8536 -0.0495
  787MOL0     H 3850   4.425   1.980  10.586  0.5475  0.4852 -1.4093
  787MOL0     H 3851   4.402   1.802  10.633 -1.1612 -1.8288 -1.0544
  787MOL0     H 3852   4.251   1.959  10.431 -1.2863 -0.5614 -0.7808
  787MOL0     H 3853   4.192   1.927  10.588 -1.2561  0.9384 -2.3709
  787MOL0     H 3854   4.278   1.683  10.450  0.0246  0.4569  1.1330
  787MOL0     H 3855   4.125   1.759  10.407 -0.0521  0.2555  0.1314
  787MOL0     H 3856   4.199   1.701  10.696 -1.7134  0.3595 -0.0078
  787MOL0     H 3857   4.049   1.745  10.648 -0.5745 -0.2569 -0.2682
  787MOL0     H 3858   4.172   1.473  10.599 -0.5336 -1.0547  1.4957
  787MOL0     H 3859   4.031   1.528  10.503  0.4889  0.4818 -0.5404
  787MOL0     H 3860   3.908   1.564  10.693  0.3112 -0.2062 -0.8037
  787MOL0     H 3861   4.040   1.534  10.803 -0.6298 -0.1606  0.4867
  787MOL0     H 3862   3.958   1.322  10.608 -0.0301  2.1454 -0.1767
  787MOL0     H 3863   4.046   1.315  10.763 -0.6672 -2.8241 -0.2655
  787MOL0     H 3864   3.844   1.369  10.898 -0.1366  1.3072 -0.0266
  787MOL0     H 3865   3.848   1.213  10.830 -0.2511 -0.5008 -0.5866
  787MOL0     H 3866   4.639   1.871  10.707  0.4720  1.4399 -0.8620
  787MOL0     H 3867   4.839   1.743  10.755  2.4511  3.3179 -1.8240
  787MOL0     H 3868   5.052   1.276  10.865  1.1877 -2.8551 -0.0632
  787MOL0     H 3869   5.288   1.195  10.893  1.4735  1.9517  1.5424
  787MOL0     H 3870   7.109   1.928  11.120  0.4915 -0.7587  0.0780
  787MOL0     H 3871   7.314   1.795  11.076  0.6223 -1.1678 -0.8855
  787MOL0     H 3872   7.397   1.243  11.129  0.8565 -0.4634  1.5346
  787MOL0     H 3873   7.586   1.111  11.067 -0.4464  0.8841  1.5342
  787MOL0     H 3874   7.916   1.001  10.943 -0.1075 -0.0611 -2.0752
  787MOL0     H 3875   7.756   0.992  11.020  0.4703 -0.5940  0.1481
  787MOL0     H 3876   7.825   1.162  11.189  1.5508  0.5497  0.7508
  787MOL0     H 3877   7.919   1.015  11.189  0.0929 -1.2199 -2.2839
  787MOL0     H 3878   7.979   1.286  11.063  0.2534 -0.3574 -1.6396
  787MOL0     H 3879   8.085   1.152  11.035 -1.9934 -2.1018 -1.1417
  787MOL0     H 3880   8.026   1.306  11.301 -1.4756 -0.7087 -0.8525
  787MOL0     H 3881   8.100   1.139  11.301 -0.1041  0.1854 -0.2883
  787MOL0     H 3882   8.446   1.324  11.185  0.3132 -2.2176  1.9460
  787MOL0     H 3883   7.763   1.420  10.843  0.9882 -0.1831 -0.7424
  787MOL0     H 3884   7.564   1.569  10.905  1.3080  0.2844  1.0425
  788MOL0     O 3885   6.203   5.562   8.301 -0.3509 -0.6101  0.4797
  788MOL0     C 3886   6.194   5.626   8.194  0.1204  0.2017 -0.0629
  788MOL0     O 3887   6.093   5.618   8.106 -0.2437 -0.2303  0.6652
  788MOL0     C 3888   5.982   5.539   8.119 -0.5330  0.3383  0.0359
  788MOL0     C 3889   5.894   5.539   8.012 -0.5395 -0.1862 -0.3910
  788MOL0     C 3890   5.783   5.454   8.012  0.5744  0.0929  0.3972
  788MOL0     C 3891   5.751   5.372   8.125 -1.0877 -0.1579 -0.1492
  788MOL0     O 3892   5.661   5.264   8.124  0.8017  0.1292  0.1111
  788MOL0     C 3893   5.643   5.177   8.014 -0.0551  0.4081  0.1503
  788MOL0     C 3894   5.517   5.092   8.021  0.4352  0.3363 -0.8380
  788MOL0     C 3895   5.491   5.006   7.893 -0.3294  0.0981 -0.0940
  788MOL0     C 3896   5.337   4.977   7.884  0.3168 -0.4298 -0.3069
  788MOL0     C 3897   5.294   4.896   7.752 -0.0842 -0.3200 -0.7810
  788MOL0     C 3898   5.339   4.744   7.772  0.8899  0.4654  0.7570
  788MOL0     C 3899   5.342   4.669   7.640 -0.0522  0.0613 -0.2368
  788MOL0     C 3900   5.414   4.536   7.650  0.2726  0.2065 -0.0771
  788MOL0     N 3901   5.355   4.440   7.739  0.2594 -0.3788 -0.3249
  788MOL0     C 3902   5.261   4.339   7.711 -0.4141 -0.1820 -0.2153
  788MOL0     C 3903   5.276   4.256   7.820 -0.1990  0.3547  1.3211
  788MOL0     C 3904   5.209   4.128   7.828 -0.1347 -0.1260  0.4444
  788MOL0     C 3905   5.052   4.133   7.811  0.1298  0.1976  0.4894
  788MOL0     C 3906   4.983   4.221   7.914 -0.2211  0.1720 -0.2322
  788MOL0     C 3907   4.833   4.239   7.884 -1.3052 -0.2033  0.8500
  788MOL0     O 3908   4.752   4.142   7.949  0.0445  0.1815 -0.0003
  788MOL0     C 3909   4.616   4.138   7.913  0.7209 -0.1072 -0.1488
  788MOL0     C 3910   4.555   4.016   7.894 -0.3956  0.0189  0.2060
  788MOL0     C 3911   4.416   4.004   7.869  0.1141  0.1464 -0.3298
  788MOL0     C 3912   4.324   4.112   7.889  0.4509  0.1105  0.8133
  788MOL0     C 3913   4.179   4.090   7.883 -0.4281 -0.2035  0.0844
  788MOL0     O 3914   4.131   3.964   7.884 -0.1776 -0.1192 -1.0637
  788MOL0     C 3915   3.998   3.927   7.880  0.3037 -0.7043  0.5247
  788MOL0     C 3916   3.900   3.994   7.953  0.7534 -0.2297 -0.6024
  788MOL0     C 3917   3.768   3.943   7.949 -0.1829 -0.0409 -0.3685
  788MOL0     C 3918   3.741   3.832   7.873  0.1134 -1.0419 -0.3567
  788MOL0     O 3919   3.612   3.783   7.868 -0.3335  0.7336 -0.1401
  788MOL0     C 3920   3.532   3.785   7.990 -0.2156  0.0158 -0.2566
  788MOL0     C 3921   3.384   3.754   7.953  0.7364 -0.4455  0.2754
  788MOL0     C 3922   3.351   3.615   7.905  0.2102 -0.4370 -0.2333
  788MOL0     C 3923   3.365   3.520   8.016 -0.4946 -0.5142 -0.6615
  788MOL0     C 3924   3.235   3.441   8.050 -0.6909  0.5179 -0.4324
  788MOL0     C 3925   3.133   3.540   8.115  0.2600  0.3221 -0.2609
  788MOL0     C 3926   2.996   3.478   8.138  0.6675  0.2068 -0.1117
  788MOL0     C 3927   3.000   3.365   8.239 -0.2691 -0.1963  0.1190
  788MOL0    Cl 3928   2.856   3.261   8.223 -0.0192  0.2262  0.0834
  788MOL0     C 3929   3.838   3.773   7.796  0.7235  0.1256  0.0833
  788MOL0     C 3930   3.971   3.821   7.798  0.1261  0.7657  0.3730
  788MOL0     O 3931   4.109   4.190   7.880  0.6370  0.5081 -0.0529
  788MOL0     C 3932   4.386   4.235   7.926  0.5606  0.4433  0.5012
  788MOL0     C 3933   4.526   4.247   7.933  0.1643  0.5604  0.0540
  788MOL0     N 3934   5.359   4.311   7.914 -0.6622 -0.3341  0.1201
  788MOL0     N 3935   5.400   4.425   7.860 -0.1317  0.2626  0.0293
  788MOL0     C 3936   5.836   5.392   8.236  0.2318 -0.3468  0.1108
  788MOL0     C 3937   5.951   5.466   8.228  0.6877  0.2666 -0.4288
  788MOL0     C 3938   6.305   5.725   8.168 -0.5159  0.0144 -0.3144
  788MOL0     C 3939   6.431   5.708   8.229  0.7292 -0.0308 -1.0029
  788MOL0     C 3940   6.531   5.791   8.220  0.4556 -0.3340 -0.2662
  788MOL0     C 3941   6.521   5.911   8.146 -0.9929 -0.0738  0.5158
  788MOL0     O 3942   6.619   6.013   8.129 -0.2056 -0.0987 -0.4615
  788MOL0     C 3943   6.751   5.991   8.185  0.0448  0.2436 -0.3101
  788MOL0     C 3944   6.852   6.067   8.111  0.4976  0.4978  0.5323
  788MOL0     C 3945   6.988   6.044   8.187 -0.4356  0.1990  0.3114
  788MOL0     C 3946   7.115   6.112   8.125 -0.0110  1.1321 -1.1477
  788MOL0     C 3947   7.226   6.035   8.182 -0.2465 -0.1541 -0.5526
  788MOL0     C 3948   7.325   5.985   8.236 -0.0567  0.5447  0.4184
  788MOL0     C 3949   6.408   5.929   8.080  0.4558  0.0330  0.1795
  788MOL0     C 3950   6.302   5.837   8.082 -0.3809  0.2414 -0.2747
  788MOL0     H 3951   5.920   5.608   7.932  3.3784  1.3630  1.9494
  788MOL0     H 3952   5.720   5.444   7.924 -1.1373  1.2422  1.4177
  788MOL0     H 3953   5.731   5.111   8.010  1.1040  1.8851  0.5940
  788MOL0     H 3954   5.653   5.232   7.920 -2.1575 -1.6761 -1.4235
  788MOL0     H 3955   5.437   5.166   8.028 -0.1287 -0.4564  3.0315
  788MOL0     H 3956   5.511   5.036   8.114  1.1048  1.4733 -0.0762
  788MOL0     H 3957   5.548   4.912   7.895 -2.8052 -1.5391 -1.4322
  788MOL0     H 3958   5.529   5.045   7.799  2.3563 -1.9772  0.0175
  788MOL0     H 3959   5.308   4.922   7.974  2.4618  1.7849  1.9188
  788MOL0     H 3960   5.285   5.073   7.886 -0.9311 -1.0896  1.2786
  788MOL0     H 3961   5.343   4.948   7.670  2.0487  0.4562  0.8896
  788MOL0     H 3962   5.186   4.895   7.737 -0.2107 -1.9392  0.0544
  788MOL0     H 3963   5.285   4.693   7.852  1.7844 -0.4042  0.8260
  788MOL0     H 3964   5.444   4.750   7.803  0.5201  1.3687  1.9216
  788MOL0     H 3965   5.240   4.643   7.609 -0.1111  1.8268 -1.7022
  788MOL0     H 3966   5.367   4.726   7.550 -2.8811 -1.0248 -1.8389
  788MOL0     H 3967   5.515   4.551   7.687 -0.2333 -0.5152  1.6693
  788MOL0     H 3968   5.415   4.484   7.554  0.3350 -2.2701  1.2091
  788MOL0     H 3969   5.218   4.336   7.612 -1.7300  3.4422  0.1039
  788MOL0     H 3970   5.250   4.075   7.914  1.7505  1.9581  0.9287
  788MOL0     H 3971   5.247   4.064   7.748 -1.3853  0.3908 -0.6015
  788MOL0     H 3972   5.016   4.031   7.803 -1.1240  0.7790 -3.3934
  788MOL0     H 3973   5.026   4.183   7.717  1.9514 -2.4404 -1.5663
  788MOL0     H 3974   4.976   4.173   8.012 -2.4098  2.7236  0.9827
  788MOL0     H 3975   5.038   4.314   7.930  0.6458 -0.6213  1.8329
  788MOL0     H 3976   4.827   4.203   7.781  2.4253  1.1453  0.0313
  788MOL0     H 3977   4.806   4.345   7.885 -0.0485  0.1478 -0.1212
  788MOL0     H 3978   4.625   3.933   7.888 -1.4045 -0.7918 -1.1175
  788MOL0     H 3979   4.372   3.911   7.835 -4.2404  1.9608 -0.2772
  788MOL0     H 3980   3.921   4.076   8.020 -0.1347  0.4708 -1.1696
  788MOL0     H 3981   3.691   4.002   7.998 -1.9600 -2.0691 -0.5639
  788MOL0     H 3982   3.529   3.885   8.032 -1.9070 -0.0927 -0.0419
  788MOL0     H 3983   3.548   3.707   8.065 -3.9267 -1.3288 -0.6157
  788MOL0     H 3984   3.346   3.818   7.872 -2.6341 -0.2430  1.8539
  788MOL0     H 3985   3.325   3.771   8.043 -0.5110 -0.5163 -0.5065
  788MOL0     H 3986   3.412   3.597   7.816 -2.5189 -0.2557 -2.2560
  788MOL0     H 3987   3.252   3.609   7.858  0.8412  0.7851 -1.7987
  788MOL0     H 3988   3.432   3.440   7.984 -0.1588 -0.0211 -1.1971
  788MOL0     H 3989   3.410   3.563   8.106 -1.8396 -1.1852  0.3755
  788MOL0     H 3990   3.271   3.365   8.120  0.6793  1.7372  0.2391
  788MOL0     H 3991   3.193   3.396   7.959  2.2008 -2.5449 -0.4697
  788MOL0     H 3992   3.125   3.626   8.048  1.9994  0.4071 -0.4217
  788MOL0     H 3993   3.185   3.565   8.208 -2.5123  2.0889  0.9513
  788MOL0     H 3994   2.936   3.559   8.180 -1.6833 -1.5771  0.1530
  788MOL0     H 3995   2.952   3.426   8.053 -0.0322 -4.0932  2.5422
  788MOL0     H 3996   3.004   3.408   8.340  0.9505  0.3680 -0.1573
  788MOL0     H 3997   3.084   3.298   8.223 -0.7044 -0.4150 -1.3429
  788MOL0     H 3998   3.811   3.689   7.733 -1.7521  0.9366 -0.0553
  788MOL0     H 3999   4.050   3.766   7.748 -2.3909 -0.8156 -2.1978
  788MOL0     H 4000   4.320   4.318   7.945 -0.0360  0.2739 -0.7360
  788MOL0     H 4001   4.567   4.344   7.961 -0.8056  0.7014  1.0723
  788MOL0     H 4002   5.813   5.329   8.322  0.3651 -0.6808 -0.0959
  788MOL0     H 4003   6.008   5.448   8.318  0.8741 -3.4237 -1.1487
  788MOL0     H 4004   6.451   5.618   8.285  0.0446  1.2685  1.4508
  788MOL0     H 4005   6.620   5.752   8.269 -0.5137 -2.0076  0.2525
  788MOL0     H 4006   6.776   5.884   8.184 -1.4389 -0.2004  1.9043
  788MOL0     H 4007   6.754   6.019   8.291  0.0081  2.9038 -0.9495
  788MOL0     H 4008   6.870   6.027   8.011  1.7987 -0.8627  1.2672
  788MOL0     H 4009   6.813   6.168   8.099 -1.7225 -0.6364 -3.7835
  788MOL0     H 4010   7.005   5.936   8.187 -1.4348  0.0274  1.2864
  788MOL0     H 4011   6.980   6.072   8.292 -0.4196 -1.5933  0.8177
  788MOL0     H 4012   7.110   6.126   8.017 -2.7203  1.4543 -1.0428
  788MOL0     H 4013   7.129   6.211   8.169 -0.1792  0.3773  0.7292
  788MOL0     H 4014   7.410   5.943   8.286  0.2581 -0.8505 -1.1850
  788MOL0     H 4015   6.407   6.029   8.037  1.2582  0.7895  1.8366
  788MOL0     H 4016   6.210   5.842   8.025  0.5862 -3.2374 -2.4664
  789MOL0     O 4017   4.131   0.249   9.670  0.0112 -0.3150  0.5224
  789MOL0     C 4018   4.198   0.197   9.575 -0.3274  0.1768 -0.3523
  789MOL0     O 4019   4.177   0.079   9.508  0.5223 -0.5653  0.0165
  789MOL0     C 4020   4.069  -0.000   9.551  0.5084  0.0588 -0.2041
  789MOL0     C 4021   4.049  -0.055   9.681  0.1656 -0.3088  0.7920
  789MOL0     C 4022   3.955  -0.155   9.698  0.6250  0.8348  0.7473
  789MOL0     C 4023   3.887  -0.209   9.587  1.1434 -0.2997 -0.1349
  789MOL0     O 4024   3.787  -0.302   9.612  0.2747 -0.0642 -0.1905
  789MOL0     C 4025   3.727  -0.378   9.501  1.0720  0.3291 -0.2450
  789MOL0     C 4026   3.661  -0.499   9.559 -1.0281  1.1887  0.3988
  789MOL0     C 4027   3.511  -0.475   9.576  0.0587  0.5674  0.4620
  789MOL0     C 4028   3.436  -0.592   9.634  0.0848  0.5355  0.0621
  789MOL0     C 4029   3.294  -0.544   9.659 -0.0269  0.0382  0.2642
  789MOL0     C 4030   3.197  -0.655   9.686 -0.1242 -0.1087  0.4624
  789MOL0     C 4031   3.158  -0.729   9.556 -0.2729  0.5774 -0.7728
  789MOL0     C 4032   3.062  -0.842   9.598  0.5458 -0.1858  0.0608
  789MOL0     N 4033   2.923  -0.791   9.602 -0.8390  0.6930 -0.2642
  789MOL0     C 4034   2.836  -0.794   9.499  0.1760 -0.2805  0.1662
  789MOL0     C 4035   2.717  -0.775   9.552  0.1975 -0.2100  0.6347
  789MOL0     C 4036   2.589  -0.792   9.470  0.5968  0.6501  0.0611
  789MOL0     C 4037   2.468  -0.734   9.537 -0.4979 -0.0021  0.1881
  789MOL0     C 4038   2.345  -0.744   9.447  0.1561  0.8176 -0.1359
  789MOL0     C 4039   2.223  -0.734   9.526  0.0254  0.0469  0.5537
  789MOL0     O 4040   2.122  -0.705   9.438  0.3187  0.8317 -0.2848
  789MOL0     C 4041   1.991  -0.708   9.483  0.2349  0.0720 -0.0081
  789MOL0     C 4042   1.952  -0.728   9.620 -0.2043  0.0823 -0.1704
  789MOL0     C 4043   1.817  -0.729   9.657 -0.4910 -0.6657 -0.4322
  789MOL0     C 4044   1.722  -0.713   9.550  0.0383  0.1083  0.5033
  789MOL0     C 4045   1.575  -0.720   9.583 -0.3004 -0.6440 -0.3456
  789MOL0     O 4046   1.484  -0.727   9.482 -0.5910  0.3701  0.4545
  789MOL0     C 4047   1.352  -0.749   9.511  0.1326  0.6028 -0.7678
  789MOL0     C 4048   1.307  -0.836   9.611 -0.5926 -0.8354  0.4407
  789MOL0     C 4049   1.173  -0.892   9.614 -0.2568  0.1821 -0.9476
  789MOL0     C 4050   1.087  -0.851   9.520 -0.0855  0.0131 -0.5566
  789MOL0     O 4051   0.962  -0.907   9.517  0.5855 -0.9458  0.5842
  789MOL0     C 4052   0.877  -0.865   9.616 -0.3204 -0.0459  0.1440
  789MOL0     C 4053   0.751  -0.944   9.605  0.5868 -0.5131  0.0150
  789MOL0     C 4054   0.649  -0.899   9.716 -0.4794  0.0911 -0.0489
  789MOL0     C 4055   0.513  -0.936   9.671  0.0516 -0.2187  0.0527
  789MOL0     C 4056   0.410  -0.910   9.779  0.0206  0.1071  0.1077
  789MOL0     C 4057   0.280  -0.981   9.742 -0.0376  0.1569 -0.5240
  789MOL0     C 4058   0.158  -0.951   9.832  0.2152  0.5918  1.2776
  789MOL0     C 4059   0.029  -1.010   9.775 -0.4562 -0.1943 -0.4030
  789MOL0    Cl 4060  -0.014  -0.912   9.627  0.3989 -0.1357  0.1214
  789MOL0     C 4061   1.126  -0.753   9.425  0.6703 -0.1454 -0.7702
  789MOL0     C 4062   1.259  -0.713   9.416  0.2863  0.3128 -0.8663
  789MOL0     O 4063   1.544  -0.693   9.703 -0.2852 -0.0650  0.0421
  789MOL0     C 4064   1.770  -0.714   9.415 -0.3115 -0.1958  0.5740
  789MOL0     C 4065   1.903  -0.714   9.387 -0.2797  0.2159  0.2946
  789MOL0     N 4066   2.727  -0.766   9.695 -0.1386 -0.1639 -0.2844
  789MOL0     N 4067   2.850  -0.788   9.720 -0.9748 -0.5644 -0.3310
  789MOL0     C 4068   3.907  -0.146   9.466  0.5470 -0.3771  0.1246
  789MOL0     C 4069   3.999  -0.046   9.449  0.5055  0.5536  0.9403
  789MOL0     C 4070   4.299   0.286   9.506  0.1920 -0.0342  0.2233
  789MOL0     C 4071   4.316   0.421   9.545  0.2586  0.1249  0.2330
  789MOL0     C 4072   4.398   0.502   9.465  0.5195  0.0926 -0.8308
  789MOL0     C 4073   4.455   0.461   9.345 -0.4177 -0.2193 -1.2958
  789MOL0     O 4074   4.530   0.544   9.265  0.0761  0.2713  0.1460
  789MOL0     C 4075   4.587   0.667   9.308  0.4389  0.4160 -0.2966
  789MOL0     C 4076   4.721   0.669   9.224 -0.1589  0.1097 -0.7980
  789MOL0     C 4077   4.823   0.585   9.293 -0.5903  1.0964  0.7852
  789MOL0     C 4078   4.935   0.580   9.186 -0.3483 -0.2186 -0.1388
  789MOL0     C 4079   5.065   0.548   9.240  0.0482 -0.6322 -0.2834
  789MOL0     C 4080   5.158   0.517   9.313  0.7233 -0.8022 -0.4761
  789MOL0     C 4081   4.431   0.334   9.307 -0.0561 -0.0107  0.1277
  789MOL0     C 4082   4.348   0.246   9.374  0.7057  0.0657 -0.8167
  789MOL0     H 4083   4.118  -0.021   9.758  1.7499 -1.6071  0.0064
  789MOL0     H 4084   3.936  -0.210   9.790  1.5576 -2.6352 -0.9427
  789MOL0     H 4085   3.806  -0.399   9.428 -1.2198 -1.6821 -2.3181
  789MOL0     H 4086   3.650  -0.311   9.460 -1.2678  0.7078  4.2117
  789MOL0     H 4087   3.715  -0.527   9.649  1.1242  1.7015 -0.6681
  789MOL0     H 4088   3.666  -0.588   9.495  1.9244 -1.1218  3.4546
  789MOL0     H 4089   3.473  -0.457   9.475  0.6633 -1.9508 -0.2909
  789MOL0     H 4090   3.504  -0.381   9.633  1.2393  1.3493 -0.6288
  789MOL0     H 4091   3.450  -0.668   9.556  0.6444  1.0239 -0.3204
  789MOL0     H 4092   3.487  -0.640   9.719 -0.4557 -1.0480 -0.4835
  789MOL0     H 4093   3.247  -0.485   9.580 -0.1959 -1.7377 -1.0229
  789MOL0     H 4094   3.298  -0.476   9.745 -1.1741  1.7392 -0.9577
  789MOL0     H 4095   3.112  -0.608   9.737 -1.9078 -0.7977 -1.6946
  789MOL0     H 4096   3.248  -0.723   9.755  2.8354  3.6043  2.2727
  789MOL0     H 4097   3.109  -0.658   9.488 -0.5672  0.4164 -0.7315
  789MOL0     H 4098   3.240  -0.781   9.507  0.8506 -1.6579  3.0876
  789MOL0     H 4099   3.091  -0.878   9.697  1.6085 -0.9213 -0.4948
  789MOL0     H 4100   3.066  -0.930   9.533 -1.3493 -0.8126  0.7332
  789MOL0     H 4101   2.860  -0.825   9.398  1.6131  0.5384  0.2181
  789MOL0     H 4102   2.577  -0.901   9.465 -2.0167  0.9331 -1.6461
  789MOL0     H 4103   2.593  -0.755   9.367 -1.1963 -0.8251 -0.5937
  789MOL0     H 4104   2.496  -0.629   9.553 -0.0288  0.1135 -1.2647
  789MOL0     H 4105   2.451  -0.784   9.632  1.1139  1.8890  1.5452
  789MOL0     H 4106   2.340  -0.669   9.367 -2.9662 -1.8419 -2.7594
  789MOL0     H 4107   2.348  -0.836   9.389 -2.1159  1.5251 -1.5372
  789MOL0     H 4108   2.230  -0.649   9.595  0.7787  1.0286 -0.6792
  789MOL0     H 4109   2.201  -0.824   9.584  0.5307 -0.0439  0.6096
  789MOL0     H 4110   2.025  -0.726   9.700 -0.3398  1.3706 -0.0582
  789MOL0     H 4111   1.788  -0.732   9.762 -0.3426  1.7076 -0.2616
  789MOL0     H 4112   1.377  -0.886   9.678  0.2187 -1.6263 -0.9380
  789MOL0     H 4113   1.158  -0.973   9.685 -1.1219 -1.5629 -3.0216
  789MOL0     H 4114   0.864  -0.757   9.611  0.1262 -0.0251 -0.7139
  789MOL0     H 4115   0.913  -0.889   9.717  0.3064 -0.6372 -0.2187
  789MOL0     H 4116   0.766  -1.052   9.616 -0.0431 -0.8813 -2.2696
  789MOL0     H 4117   0.698  -0.914   9.514 -2.3071 -2.5768  0.8571
  789MOL0     H 4118   0.643  -0.792   9.739 -3.9900 -0.1335  0.6143
  789MOL0     H 4119   0.675  -0.945   9.812  3.5225  3.2899  0.7137
  789MOL0     H 4120   0.482  -0.877   9.584 -2.2366 -2.4071 -0.7707
  789MOL0     H 4121   0.500  -1.038   9.633 -0.8533 -0.3712  0.7160
  789MOL0     H 4122   0.399  -0.802   9.789  2.1589  0.2329  1.8165
  789MOL0     H 4123   0.449  -0.948   9.874  1.1630  0.8413 -0.0555
  789MOL0     H 4124   0.309  -1.086   9.754  3.5328  0.8887 -1.4807
  789MOL0     H 4125   0.257  -0.959   9.637 -1.1435  0.2164 -0.2787
  789MOL0     H 4126   0.183  -0.980   9.935  5.0333  1.9466  0.7263
  789MOL0     H 4127   0.141  -0.843   9.821  0.3770  0.3408 -2.6066
  789MOL0     H 4128  -0.050  -1.002   9.849  1.3452 -0.2207  1.6265
  789MOL0     H 4129   0.039  -1.117   9.751  1.6630  0.1359 -1.2833
  789MOL0     H 4130   1.059  -0.732   9.343 -1.8703  0.2569  1.2684
  789MOL0     H 4131   1.294  -0.663   9.326  3.0230 -0.6472 -0.4167
  789MOL0     H 4132   1.703  -0.705   9.330 -0.0365  0.9031  0.4505
  789MOL0     H 4133   1.945  -0.694   9.289  2.6957  0.9323  1.6195
  789MOL0     H 4134   3.853  -0.184   9.379  2.5144 -1.6445 -0.6322
  789MOL0     H 4135   4.025  -0.000   9.354  1.6873 -0.7136  0.6138
  789MOL0     H 4136   4.269   0.466   9.632 -1.2160  2.1614 -1.5190
  789MOL0     H 4137   4.418   0.606   9.487  0.8154  0.0708 -0.9878
  789MOL0     H 4138   4.604   0.670   9.416 -1.3101  0.2124  0.0026
  789MOL0     H 4139   4.514   0.746   9.289  1.9658  1.9341 -0.1205
  789MOL0     H 4140   4.694   0.628   9.127 -0.2116 -0.4366 -0.5547
  789MOL0     H 4141   4.764   0.768   9.205  1.6208 -0.3980  0.2991
  789MOL0     H 4142   4.800   0.482   9.319 -4.1348  2.1594  2.4558
  789MOL0     H 4143   4.865   0.635   9.381  1.7201  1.2726 -0.3455
  789MOL0     H 4144   4.902   0.515   9.104  1.5257  3.0051 -3.7760
  789MOL0     H 4145   4.953   0.678   9.141  1.4468 -1.4562 -2.3605
  789MOL0     H 4146   5.234   0.499   9.387  1.5507 -0.3924 -1.2199
  789MOL0     H 4147   4.485   0.309   9.216 -0.4059  0.2886 -0.1705
  789MOL0     H 4148   4.331   0.144   9.342  0.0746 -0.9539  2.4136
  790MOL0     O 4149   9.795   0.287   9.201  0.2097  0.1011 -0.6994
  790MOL0     C 4150   9.769   0.310   9.317  0.4409  0.1190  1.1821
  790MOL0     O 4151   9.703   0.415   9.363 -0.2911  0.0699  0.0941
  790MOL0     C 4152   9.626   0.486   9.273  0.1357  0.2428  0.2963
  790MOL0     C 4153   9.636   0.621   9.274  0.0072 -0.0896 -0.2288
  790MOL0     C 4154   9.564   0.698   9.182 -0.3505 -0.2838  0.1287
  790MOL0     C 4155   9.481   0.637   9.087  0.3951  0.1584  0.2707
  790MOL0     O 4156   9.413   0.719   8.999  0.6297  0.0634 -0.1970
  790MOL0     C 4157   9.321   0.671   8.901 -0.0280 -0.4035 -0.1345
  790MOL0     C 4158   9.186   0.634   8.949 -0.6829  0.0712 -0.2205
  790MOL0     C 4159   9.125   0.731   9.050  0.1704 -0.3462 -0.1811
  790MOL0     C 4160   9.037   0.840   8.976  0.1819 -0.8557 -0.7188
  790MOL0     C 4161   8.996   0.958   9.066 -0.0743 -0.1713  0.7141
  790MOL0     C 4162   8.915   1.070   9.011 -0.1663  0.7680  0.3202
  790MOL0     C 4163   8.770   1.037   8.974  0.7485 -0.2024 -0.1834
  790MOL0     C 4164   8.703   1.145   8.873 -0.0069 -0.4940 -0.1258
  790MOL0     N 4165   8.553   1.140   8.868  0.0259  0.4057  0.1761
  790MOL0     C 4166   8.468   1.029   8.892 -0.2491  0.4332 -0.1763
  790MOL0     C 4167   8.346   1.076   8.847 -0.3543 -0.1606 -0.5517
  790MOL0     C 4168   8.211   1.008   8.844  0.3357 -0.1409 -0.1831
  790MOL0     C 4169   8.108   1.102   8.904  0.5291  0.4109  0.1912
  790MOL0     C 4170   7.973   1.022   8.925 -0.8288  0.2157  0.2856
  790MOL0     C 4171   7.870   1.116   8.972 -0.5080  0.0139 -0.1325
  790MOL0     O 4172   7.757   1.035   9.008 -0.3916 -0.4056  0.1600
  790MOL0     C 4173   7.637   1.090   9.030  0.4230  0.3312 -0.3569
  790MOL0     C 4174   7.544   0.995   9.078  0.5555  0.3016  0.3726
  790MOL0     C 4175   7.410   1.032   9.100  0.6461  0.2491 -0.2264
  790MOL0     C 4176   7.361   1.161   9.078 -0.1439  0.3202 -0.6964
  790MOL0     C 4177   7.214   1.189   9.112  0.0632 -0.0695 -0.4542
  790MOL0     O 4178   7.176   1.313   9.144  0.7581 -0.7167  0.2628
  790MOL0     C 4179   7.063   1.348   9.220 -0.8392  0.6667 -0.0587
  790MOL0     C 4180   6.988   1.259   9.291  0.4454  0.9665  0.1266
  790MOL0     C 4181   6.854   1.292   9.341  0.2966  0.9822  0.2658
  790MOL0     C 4182   6.801   1.419   9.304 -0.1538 -0.1259 -0.1402
  790MOL0     O 4183   6.679   1.471   9.346  0.0064 -0.7103 -0.3771
  790MOL0     C 4184   6.598   1.397   9.443  0.0920 -0.8629 -0.2031
  790MOL0     C 4185   6.458   1.448   9.475  1.2649  0.4316  0.3404
  790MOL0     C 4186   6.457   1.593   9.522 -0.0757 -0.0129  0.8833
  790MOL0     C 4187   6.315   1.640   9.543  0.9818  0.1103 -0.6416
  790MOL0     C 4188   6.311   1.786   9.596  0.1102  0.2778  0.2959
  790MOL0     C 4189   6.169   1.849   9.594 -0.1494 -0.4414 -0.1755
  790MOL0     C 4190   6.084   1.792   9.699 -0.1508 -0.4522 -0.1114
  790MOL0     C 4191   5.946   1.866   9.728  0.1985  0.5005 -0.4752
  790MOL0    Cl 4192   5.983   2.027   9.785  0.3937  0.4568 -0.0625
  790MOL0     C 4193   6.887   1.509   9.241  0.3425 -0.1924 -0.5513
  790MOL0     C 4194   7.012   1.470   9.195  0.2211  0.1895  0.0367
  790MOL0     O 4195   7.142   1.093   9.107  0.0470  0.0410 -0.3742
  790MOL0     C 4196   7.455   1.256   9.024 -0.2151 -0.6278  0.0766
  790MOL0     C 4197   7.592   1.218   8.990  0.6317 -0.6034 -0.2777
  790MOL0     N 4198   8.364   1.206   8.801  0.0952 -0.1339 -0.6181
  790MOL0     N 4199   8.482   1.244   8.817 -0.9543 -0.3058  0.1301
  790MOL0     C 4200   9.466   0.493   9.087 -0.2403  0.3017 -1.2730
  790MOL0     C 4201   9.546   0.426   9.181  0.0552 -0.1257 -0.5099
  790MOL0     C 4202   9.820   0.211   9.409  0.3278 -0.3767 -0.0544
  790MOL0     C 4203   9.936   0.136   9.390 -0.6748 -0.1536 -0.1954
  790MOL0     C 4204   9.990   0.051   9.495 -0.1198 -0.3678 -0.0237
  790MOL0     C 4205   9.914   0.035   9.614 -0.9722 -0.1830  0.4801
  790MOL0     O 4206   9.948  -0.039   9.719 -0.3944 -0.1099  0.0176
  790MOL0     C 4207  10.063  -0.114   9.714 -0.4740 -0.4280 -0.5008
  790MOL0     C 4208  10.061  -0.199   9.833 -0.1194  0.5167 -1.0172
  790MOL0     C 4209  10.161  -0.319   9.844 -0.0477  0.4979 -0.5715
  790MOL0     C 4210  10.311  -0.279   9.822  0.1856  0.1306  0.3841
  790MOL0     C 4211  10.353  -0.194   9.927  0.0382  0.9411 -0.2606
  790MOL0     C 4212  10.400  -0.146  10.030 -0.2041 -0.3244  0.3212
  790MOL0     C 4213   9.795   0.097   9.625  0.4777 -0.4223 -0.0939
  790MOL0     C 4214   9.747   0.192   9.529 -0.5717  0.2364  0.3433
  790MOL0     H 4215   9.707   0.667   9.341  1.0722 -2.9160  0.7306
  790MOL0     H 4216   9.570   0.806   9.187 -0.2104 -0.3398  2.6297
  790MOL0     H 4217   9.366   0.593   8.838 -0.1087  1.8313 -3.2032
  790MOL0     H 4218   9.310   0.759   8.837  1.8437  0.0870  0.1513
  790MOL0     H 4219   9.194   0.535   8.995 -1.6550 -0.4450 -1.1308
  790MOL0     H 4220   9.132   0.631   8.855 -2.0098 -0.4357  0.5312
  790MOL0     H 4221   9.188   0.787   9.119  1.8139 -1.2139 -0.9198
  790MOL0     H 4222   9.057   0.665   9.105  0.7453  0.9448  2.2051
  790MOL0     H 4223   9.089   0.878   8.888  0.9336  1.9318  0.7935
  790MOL0     H 4224   8.950   0.788   8.936  0.7284 -0.8905 -1.9194
  790MOL0     H 4225   9.084   1.004   9.111  1.3392  0.1559 -2.1476
  790MOL0     H 4226   8.929   0.916   9.141 -1.8323  0.0012 -0.6706
  790MOL0     H 4227   8.955   1.105   8.915 -2.2592  0.3820 -0.7330
  790MOL0     H 4228   8.913   1.153   9.082 -1.5901  3.4072 -2.5689
  790MOL0     H 4229   8.752   0.946   8.916 -2.2282 -0.4312  0.8932
  790MOL0     H 4230   8.705   1.041   9.062  1.4515  0.8660  0.3164
  790MOL0     H 4231   8.755   1.128   8.778  2.1152  1.6078  0.5565
  790MOL0     H 4232   8.735   1.245   8.902  2.3533 -1.7424  2.0607
  790MOL0     H 4233   8.492   0.929   8.924  3.3954  1.4548  0.6461
  790MOL0     H 4234   8.210   0.921   8.909  0.1418  1.0137  1.4014
  790MOL0     H 4235   8.185   0.984   8.740  0.0427 -1.0822  0.0993
  790MOL0     H 4236   8.095   1.193   8.844  3.6535  0.9704  0.2091
  790MOL0     H 4237   8.150   1.138   8.998 -1.5832 -1.4841  1.9711
  790MOL0     H 4238   7.949   0.964   8.836  0.8023 -0.8531  0.4865
  790MOL0     H 4239   7.990   0.953   9.009 -2.5852 -0.6733 -0.0445
  790MOL0     H 4240   7.843   1.185   8.891 -0.6636 -1.4237 -1.3307
  790MOL0     H 4241   7.917   1.174   9.052  1.2529  0.1238 -1.1971
  790MOL0     H 4242   7.588   0.898   9.099  0.9561  0.3101 -0.3957
  790MOL0     H 4243   7.356   0.950   9.147  3.4364 -1.1794  0.7135
  790MOL0     H 4244   7.031   1.161   9.308 -1.2017  0.2351  0.2543
  790MOL0     H 4245   6.794   1.217   9.393  0.8693  0.1311 -0.2673
  790MOL0     H 4246   6.642   1.394   9.543 -0.1409  1.3753  0.0193
  790MOL0     H 4247   6.587   1.297   9.402  2.4611 -1.6292  0.8822
  790MOL0     H 4248   6.411   1.381   9.548  2.3544  0.1605  0.8212
  790MOL0     H 4249   6.391   1.433   9.390  0.9261  0.5712  0.5845
  790MOL0     H 4250   6.512   1.659   9.454 -2.0715  2.4610  1.5058
  790MOL0     H 4251   6.506   1.594   9.620 -2.8561 -1.2670  2.4125
  790MOL0     H 4252   6.257   1.646   9.451  0.2776  0.3900 -0.1896
  790MOL0     H 4253   6.263   1.575   9.614 -1.3470  2.2063 -0.2766
  790MOL0     H 4254   6.358   1.852   9.522 -0.6789 -2.5851 -3.0015
  790MOL0     H 4255   6.344   1.807   9.699  0.1911  1.4651  0.0412
  790MOL0     H 4256   6.106   1.832   9.506 -0.9256 -2.4231  0.7038
  790MOL0     H 4257   6.174   1.959   9.598 -2.7059 -0.2942  0.7267
  790MOL0     H 4258   6.055   1.689   9.675  2.0478 -0.6579 -2.2033
  790MOL0     H 4259   6.136   1.796   9.795  0.1334  1.5493 -0.3056
  790MOL0     H 4260   5.898   1.802   9.802  0.5772  0.3859 -0.3258
  790MOL0     H 4261   5.883   1.886   9.641 -2.7608  0.2717  1.4895
  790MOL0     H 4262   6.880   1.616   9.226  2.4789  0.0059 -0.5409
  790MOL0     H 4263   7.082   1.529   9.135 -4.2481  2.4781 -3.5602
  790MOL0     H 4264   7.421   1.354   8.992 -1.9506 -1.1026  0.3420
  790MOL0     H 4265   7.656   1.285   8.933  0.1623  0.1974  0.1182
  790MOL0     H 4266   9.413   0.436   9.011  0.6292 -0.7486 -1.1244
  790MOL0     H 4267   9.534   0.318   9.182 -1.9309  0.0420 -1.6569
  790MOL0     H 4268   9.994   0.142   9.299 -0.0527 -1.0877  0.1230
  790MOL0     H 4269  10.089   0.009   9.480 -0.2340  0.0876 -2.7279
  790MOL0     H 4270  10.154  -0.053   9.713 -0.8198  0.2139  2.0552
  790MOL0     H 4271  10.059  -0.188   9.633  1.0095 -1.8859  0.7050
  790MOL0     H 4272  10.080  -0.134   9.918 -1.1479 -3.7734  2.8703
  790MOL0     H 4273   9.960  -0.237   9.848  0.3988  0.1795  2.1196
  790MOL0     H 4274  10.128  -0.398   9.776 -0.2092 -0.0731  0.1603
  790MOL0     H 4275  10.153  -0.364   9.944  1.4329 -0.9118 -1.0216
  790MOL0     H 4276  10.371  -0.370   9.820 -1.6346 -1.1244  0.0412
  790MOL0     H 4277  10.310  -0.233   9.723 -0.1785 -1.3096 -0.3140
  790MOL0     H 4278  10.438  -0.084  10.109 -1.4541  0.5488  0.2668
  790MOL0     H 4279   9.744   0.087   9.720  2.1088  0.2996  0.9064
  790MOL0     H 4280   9.660   0.251   9.555 -0.4763  0.8175 -0.5705
  791MOL0     O 4281   8.197   9.569   1.762  0.2024 -0.1237 -1.1837
  791MOL0     C 4282   8.271   9.658   1.728 -0.1765 -0.8416  0.1619
  791MOL0     O 4283   8.237   9.780   1.699 -0.4047  0.8430  0.0206
  791MOL0     C 4284   8.109   9.815   1.716 -0.2941  0.3287 -0.2591
  791MOL0     C 4285   8.051   9.828   1.842  0.7818  0.4199  0.8689
  791MOL0     C 4286   7.923   9.879   1.851 -0.1063  0.8639  0.1735
  791MOL0     C 4287   7.841   9.900   1.734 -0.3562  0.5207 -0.3522
  791MOL0     O 4288   7.717   9.936   1.771 -0.0940 -0.4254  0.0020
  791MOL0     C 4289   7.617   9.890   1.683  0.2055  0.2263  0.3262
  791MOL0     C 4290   7.472   9.927   1.711 -0.2099 -1.5530 -0.1955
  791MOL0     C 4291   7.369   9.876   1.617 -0.1697 -0.6052 -1.0513
  791MOL0     C 4292   7.225   9.909   1.671 -0.8349  0.3477  0.1058
  791MOL0     C 4293   7.118   9.855   1.577 -0.2234  0.1996 -0.3745
  791MOL0     C 4294   6.973   9.918   1.599 -1.0567 -0.7848 -0.2876
  791MOL0     C 4295   6.915   9.863   1.723 -0.3424 -0.0216 -0.3583
  791MOL0     C 4296   6.769   9.898   1.726 -0.7634 -0.5373 -0.4973
  791MOL0     N 4297   6.692   9.845   1.623  0.3413  0.8109  0.0761
  791MOL0     C 4298   6.620   9.909   1.527 -0.5254  1.3889  0.2456
  791MOL0     C 4299   6.569   9.809   1.455  0.6065  0.2752 -0.2793
  791MOL0     C 4300   6.466   9.828   1.345 -0.4693  1.2016 -0.7214
  791MOL0     C 4301   6.346   9.738   1.364  0.7280 -0.8280  0.2691
  791MOL0     C 4302   6.266   9.769   1.494 -0.3624  0.3596  0.0913
  791MOL0     C 4303   6.170   9.665   1.540  0.0989 -0.3787  0.2319
  791MOL0     O 4304   6.070   9.646   1.444 -0.6704 -0.0185  1.2894
  791MOL0     C 4305   5.948   9.616   1.482  0.7904  0.2975  0.0687
  791MOL0     C 4306   5.920   9.519   1.583 -0.0469 -0.4504  0.6330
  791MOL0     C 4307   5.787   9.508   1.620  0.8115  0.0059 -0.2596
  791MOL0     C 4308   5.683   9.587   1.565 -0.5435  0.0190  0.6775
  791MOL0     C 4309   5.544   9.558   1.603 -0.1150 -0.3686  0.1698
  791MOL0     O 4310   5.449   9.637   1.549  0.1932 -0.2767  0.0912
  791MOL0     C 4311   5.323   9.610   1.608 -0.2593  0.0367  0.1987
  791MOL0     C 4312   5.283   9.670   1.729 -0.6199 -0.0547  0.2646
  791MOL0     C 4313   5.154   9.662   1.774  0.5393  0.0703 -0.5174
  791MOL0     C 4314   5.055   9.610   1.691  0.3965 -0.4865  0.2537
  791MOL0     O 4315   4.917   9.599   1.722  0.6901 -0.1486  0.0699
  791MOL0     C 4316   4.875   9.685   1.828 -0.3071  0.8762 -0.2561
  791MOL0     C 4317   4.722   9.675   1.845  0.4949 -0.3492  0.9137
  791MOL0     C 4318   4.666   9.782   1.942  0.3756 -0.3917  0.8871
  791MOL0     C 4319   4.545   9.723   2.018 -0.5141  0.3176 -0.3086
  791MOL0     C 4320   4.483   9.816   2.125  0.4664 -0.0057  0.8834
  791MOL0     C 4321   4.392   9.744   2.224 -0.4759 -0.3621  0.9559
  791MOL0     C 4322   4.272   9.682   2.156  0.4805 -0.0373 -0.4495
  791MOL0     C 4323   4.152   9.656   2.245  0.7045  0.0237  0.4585
  791MOL0    Cl 4324   4.071   9.806   2.285 -0.1598  0.1781 -0.2195
  791MOL0     C 4325   5.094   9.540   1.576  0.3037 -0.0586 -0.3157
  791MOL0     C 4326   5.224   9.541   1.530  0.1965  0.1813 -0.5734
  791MOL0     O 4327   5.526   9.481   1.696  0.0874 -0.0217  0.2101
  791MOL0     C 4328   5.717   9.694   1.471 -0.1856 -0.4108 -0.1951
  791MOL0     C 4329   5.851   9.708   1.432  0.3094 -0.3344 -0.2916
  791MOL0     N 4330   6.633   9.694   1.488  0.3115  1.1587 -0.2273
  791MOL0     N 4331   6.687   9.715   1.595 -0.5915  0.1845 -0.0967
  791MOL0     C 4332   7.898   9.889   1.613 -0.0734  0.3971  0.7972
  791MOL0     C 4333   8.035   9.845   1.597 -0.2569 -0.1427 -1.1070
  791MOL0     C 4334   8.419   9.637   1.743 -0.4723 -0.2317  0.0966
  791MOL0     C 4335   8.506   9.723   1.672  0.2237  0.6579 -0.2318
  791MOL0     C 4336   8.641   9.710   1.689 -0.5706 -0.6427  0.0154
  791MOL0     C 4337   8.703   9.620   1.770  1.1445  0.2452 -0.5304
  791MOL0     O 4338   8.833   9.600   1.785 -0.1224  0.2541 -0.0869
  791MOL0     C 4339   8.894   9.575   1.914  0.0418  0.2623  0.6110
  791MOL0     C 4340   8.887   9.683   2.015 -0.1172 -0.3283  0.0169
  791MOL0     C 4341   9.010   9.664   2.113  0.0427  0.1319  0.1568
  791MOL0     C 4342   9.007   9.775   2.225  0.3743 -0.2336 -0.4458
  791MOL0     C 4343   9.131   9.790   2.296 -0.3748 -0.2615  0.8151
  791MOL0     C 4344   9.228   9.791   2.364 -0.1875  0.5475  0.4807
  791MOL0     C 4345   8.618   9.534   1.842  0.3304 -0.0662  0.3326
  791MOL0     C 4346   8.473   9.541   1.828 -0.9177  0.1405 -0.3656
  791MOL0     H 4347   8.111   9.798   1.927  0.1942 -0.8872  0.8540
  791MOL0     H 4348   7.870   9.883   1.946 -0.2932 -0.2198  0.1323
  791MOL0     H 4349   7.606   9.781   1.690 -2.0375  0.5219  3.3333
  791MOL0     H 4350   7.648   9.911   1.580  1.6372  3.8497  1.3463
  791MOL0     H 4351   7.472  10.036   1.703 -0.3693 -1.5595 -0.2843
  791MOL0     H 4352   7.460   9.890   1.814 -1.4656 -1.5576 -0.3283
  791MOL0     H 4353   7.377   9.767   1.619  2.3150 -0.4745 -0.9303
  791MOL0     H 4354   7.374   9.922   1.518  0.9866  1.0837 -0.2541
  791MOL0     H 4355   7.215   9.863   1.770 -0.4436 -1.6123 -0.7185
  791MOL0     H 4356   7.215  10.017   1.685 -1.8396  0.7601 -2.9859
  791MOL0     H 4357   7.110   9.747   1.586 -2.3118  0.4202  0.9064
  791MOL0     H 4358   7.153   9.876   1.475  2.2038  2.9963  0.8551
  791MOL0     H 4359   6.920   9.897   1.506 -0.6135  0.6020 -0.8734
  791MOL0     H 4360   6.987  10.025   1.614  1.5054 -1.3112  1.9281
  791MOL0     H 4361   6.921   9.754   1.727  0.6574 -0.0121 -1.1622
  791MOL0     H 4362   6.969   9.897   1.813 -0.4843 -0.4154 -0.1208
  791MOL0     H 4363   6.753  10.006   1.720 -1.8766 -0.7629 -3.4022
  791MOL0     H 4364   6.731   9.854   1.819 -0.0665 -2.1921 -0.9454
  791MOL0     H 4365   6.598  10.015   1.513  2.9960  1.8263 -4.2208
  791MOL0     H 4366   6.508   9.800   1.248  0.5878  1.0625 -0.2341
  791MOL0     H 4367   6.426   9.929   1.356  0.9729  1.5737  1.9537
  791MOL0     H 4368   6.380   9.634   1.366 -1.4303 -1.5610  1.0991
  791MOL0     H 4369   6.278   9.753   1.279 -0.4924  1.0478  1.5063
  791MOL0     H 4370   6.332   9.801   1.576 -0.9143  3.4492 -0.5556
  791MOL0     H 4371   6.202   9.854   1.469 -1.0754  0.2828  1.5251
  791MOL0     H 4372   6.123   9.699   1.633 -0.0816 -0.2581  0.0973
  791MOL0     H 4373   6.220   9.569   1.554 -2.3182 -1.3825  3.0261
  791MOL0     H 4374   5.995   9.460   1.634  0.2089 -1.6636 -1.0883
  791MOL0     H 4375   5.767   9.434   1.697  0.7566  0.4308  0.1431
  791MOL0     H 4376   5.360   9.728   1.780 -1.1561  0.4100  0.5555
  791MOL0     H 4377   5.114   9.696   1.869 -3.8504  3.1983 -3.1081
  791MOL0     H 4378   4.911   9.787   1.811  0.8135  0.4362 -0.6402
  791MOL0     H 4379   4.920   9.649   1.921  0.7415  4.5710  0.8381
  791MOL0     H 4380   4.691   9.575   1.878  0.9844 -0.6428  0.4985
  791MOL0     H 4381   4.680   9.702   1.747  2.4487  0.2781  0.2020
  791MOL0     H 4382   4.626   9.873   1.895 -1.3246  0.0158  2.9740
  791MOL0     H 4383   4.747   9.811   2.009  1.7125  1.9295 -1.5074
  791MOL0     H 4384   4.464   9.704   1.948  0.1269 -0.0486 -0.9635
  791MOL0     H 4385   4.557   9.625   2.066 -1.0783  1.6909  2.9315
  791MOL0     H 4386   4.429   9.898   2.078  1.9554 -0.3986 -1.7123
  791MOL0     H 4387   4.569   9.852   2.181  1.7097  0.0187 -0.9485
  791MOL0     H 4388   4.354   9.814   2.298 -2.8528 -1.4188  0.8199
  791MOL0     H 4389   4.444   9.657   2.267  1.3040 -1.3316 -2.7759
  791MOL0     H 4390   4.242   9.747   2.073  2.3942 -0.7089 -1.7110
  791MOL0     H 4391   4.298   9.583   2.119 -0.8516 -0.9533  0.9081
  791MOL0     H 4392   4.198   9.612   2.335 -1.6441  0.3882  1.9353
  791MOL0     H 4393   4.094   9.584   2.187 -0.6537  0.7425  0.8765
  791MOL0     H 4394   5.023   9.485   1.514  1.5827 -1.4077 -0.6612
  791MOL0     H 4395   5.253   9.474   1.450  1.7969 -2.1252  1.7654
  791MOL0     H 4396   5.642   9.764   1.434 -0.4053 -0.6811 -0.2639
  791MOL0     H 4397   5.882   9.790   1.368 -0.9122  1.2058  0.9942
  791MOL0     H 4398   7.844   9.923   1.526  0.3852  2.8915  1.4019
  791MOL0     H 4399   8.090   9.846   1.503  0.6259 -1.3911 -0.6260
  791MOL0     H 4400   8.466   9.807   1.616 -0.6190 -0.5461 -1.4903
  791MOL0     H 4401   8.704   9.772   1.625 -0.5390 -0.6364  0.0527
  791MOL0     H 4402   9.000   9.563   1.894 -0.3399 -1.4164 -0.5871
  791MOL0     H 4403   8.852   9.479   1.945 -0.1016 -0.3783 -1.4183
  791MOL0     H 4404   8.887   9.783   1.969  0.1484  0.0702  0.8535
  791MOL0     H 4405   8.792   9.667   2.067 -0.5068  1.6886  0.0061
  791MOL0     H 4406   9.108   9.671   2.065  0.3166 -1.6036  0.4264
  791MOL0     H 4407   9.014   9.565   2.158 -1.1404  0.1580  0.3503
  791MOL0     H 4408   8.969   9.867   2.181 -1.0244 -0.1856  0.8019
  791MOL0     H 4409   8.939   9.742   2.305  1.5942 -0.8655  0.3705
  791MOL0     H 4410   9.319   9.813   2.415  1.2006 -1.6646 -0.8659
  791MOL0     H 4411   8.652   9.452   1.904 -1.4740 -1.2613 -0.1658
  791MOL0     H 4412   8.415   9.479   1.894  1.1312  0.5982  2.0016
  792MOL0     O 4413   7.628   6.969   2.547  0.8801 -0.0189  0.6768
  792MOL0     C 4414   7.651   6.851   2.514  0.8745 -0.5614 -0.2410
  792MOL0     O 4415   7.574   6.742   2.540 -0.1524  0.0652  0.0148
  792MOL0     C 4416   7.441   6.758   2.570 -0.2281  0.0331 -0.6534
  792MOL0     C 4417   7.358   6.844   2.497 -0.1780 -0.5400 -0.6061
  792MOL0     C 4418   7.221   6.849   2.517 -0.2662 -0.4936  0.3482
  792MOL0     C 4419   7.161   6.776   2.619 -0.4132 -0.8161 -0.1656
  792MOL0     O 4420   7.027   6.763   2.621  0.1017  0.9661  0.6083
  792MOL0     C 4421   6.963   6.802   2.742  0.3555  0.2801  0.6379
  792MOL0     C 4422   6.809   6.815   2.710  0.5454  0.9302 -0.2692
  792MOL0     C 4423   6.750   6.671   2.702 -0.0695 -0.5089 -0.5462
  792MOL0     C 4424   6.621   6.657   2.628 -0.4209  0.0111 -0.2217
  792MOL0     C 4425   6.510   6.770   2.654 -0.3219  0.6911 -0.2494
  792MOL0     C 4426   6.457   6.772   2.794 -0.4125  0.4567  1.1351
  792MOL0     C 4427   6.387   6.911   2.807 -0.4703  0.1538  0.3826
  792MOL0     C 4428   6.317   6.913   2.946 -0.6063  0.2298 -0.3425
  792MOL0     N 4429   6.176   6.875   2.942  0.8757  0.9216 -0.6586
  792MOL0     C 4430   6.120   6.756   2.985 -0.2882  0.2330 -0.8092
  792MOL0     C 4431   5.993   6.768   2.959  1.3757 -0.9204  0.2643
  792MOL0     C 4432   5.887   6.674   2.992  0.6542  0.7663 -0.6187
  792MOL0     C 4433   5.874   6.683   3.144  0.5324  0.0280 -0.1355
  792MOL0     C 4434   5.753   6.588   3.194 -0.0591 -0.0791 -0.1099
  792MOL0     C 4435   5.617   6.661   3.177 -0.4462  0.0665  0.4642
  792MOL0     O 4436   5.555   6.641   3.049  0.3363  0.0615  0.3265
  792MOL0     C 4437   5.421   6.663   3.049 -0.5807 -0.0909  0.5362
  792MOL0     C 4438   5.334   6.585   2.968 -1.1822 -0.0458  0.0159
  792MOL0     C 4439   5.200   6.615   2.952 -0.2057  0.3155  0.9415
  792MOL0     C 4440   5.140   6.713   3.036 -0.0155  0.6374 -0.3139
  792MOL0     C 4441   4.999   6.753   3.031  0.2151 -0.5456 -0.7407
  792MOL0     O 4442   4.954   6.854   3.123 -0.0325  0.2287  0.1031
  792MOL0     C 4443   4.831   6.910   3.125  0.9649 -0.2470  0.8126
  792MOL0     C 4444   4.819   7.021   3.208  0.0305 -0.9201  0.3398
  792MOL0     C 4445   4.697   7.093   3.215  0.4181 -0.3473  0.0603
  792MOL0     C 4446   4.585   7.052   3.140  0.3787 -0.6072 -0.2371
  792MOL0     O 4447   4.460   7.112   3.141 -0.5236  0.5383 -0.2097
  792MOL0     C 4448   4.444   7.217   3.240 -0.6563  0.2579  0.6438
  792MOL0     C 4449   4.303   7.260   3.240  0.4435 -1.1095 -0.1382
  792MOL0     C 4450   4.274   7.360   3.355 -0.7125 -0.5216 -0.0594
  792MOL0     C 4451   4.130   7.416   3.337  0.1642  0.1790 -1.1313
  792MOL0     C 4452   4.067   7.484   3.464 -0.7771 -0.7294 -0.9360
  792MOL0     C 4453   3.920   7.519   3.452 -0.2039  0.2633  0.7963
  792MOL0     C 4454   3.819   7.405   3.453 -0.6063  0.4015  0.8143
  792MOL0     C 4455   3.696   7.429   3.534  0.2490 -0.4563 -0.3008
  792MOL0    Cl 4456   3.596   7.571   3.479 -0.2665  0.2221 -0.3228
  792MOL0     C 4457   4.591   6.933   3.070 -0.0991 -0.2715 -0.1141
  792MOL0     C 4458   4.710   6.855   3.060 -0.4309 -0.8123 -0.1036
  792MOL0     O 4459   4.930   6.692   2.943 -0.1051  0.5415 -0.0753
  792MOL0     C 4460   5.223   6.774   3.131 -0.2675 -0.4710 -0.4437
  792MOL0     C 4461   5.360   6.751   3.133  0.0058 -1.3173 -0.6010
  792MOL0     N 4462   5.968   6.884   2.887  0.2470 -0.4914 -0.5610
  792MOL0     N 4463   6.080   6.949   2.893  0.3504  0.3237  0.4626
  792MOL0     C 4464   7.245   6.702   2.705  0.1129 -0.2577 -0.7278
  792MOL0     C 4465   7.386   6.689   2.683  0.0902 -0.1749  0.7644
  792MOL0     C 4466   7.772   6.829   2.436 -0.5227  0.7878  0.9305
  792MOL0     C 4467   7.846   6.711   2.454 -0.3303 -0.5976  0.8407
  792MOL0     C 4468   7.973   6.697   2.398 -0.8890 -0.3560 -0.2936
  792MOL0     C 4469   8.011   6.796   2.308  0.1531  0.2924  0.5437
  792MOL0     O 4470   8.131   6.787   2.241 -0.0781 -0.3521 -0.5563
  792MOL0     C 4471   8.205   6.667   2.227 -0.2439  0.2277 -0.2281
  792MOL0     C 4472   8.334   6.706   2.148  0.6691  0.8130 -0.0150
  792MOL0     C 4473   8.437   6.789   2.224  0.4188  0.4530  0.8087
  792MOL0     C 4474   8.556   6.806   2.135 -0.3271 -0.3139 -0.2469
  792MOL0     C 4475   8.647   6.912   2.175 -0.5772  0.2048 -0.8072
  792MOL0     C 4476   8.714   7.008   2.208 -0.5185  0.7906  0.1674
  792MOL0     C 4477   7.934   6.913   2.286  0.1186 -0.9346 -0.1104
  792MOL0     C 4478   7.817   6.930   2.350  0.4283  0.4416  0.3081
  792MOL0     H 4479   7.394   6.899   2.410 -0.7535 -0.7224 -0.9672
  792MOL0     H 4480   7.171   6.914   2.445  0.2700  1.4390  1.6551
  792MOL0     H 4481   6.992   6.903   2.770  4.0868 -0.2649 -0.6940
  792MOL0     H 4482   6.978   6.732   2.825  3.0174 -0.3261 -0.2533
  792MOL0     H 4483   6.792   6.869   2.617  0.5061  1.6818  0.1642
  792MOL0     H 4484   6.761   6.864   2.796  0.1398  0.3543 -0.1646
  792MOL0     H 4485   6.737   6.632   2.803 -1.5712 -0.5840 -0.7505
  792MOL0     H 4486   6.823   6.612   2.645 -0.1472 -1.4780  0.3255
  792MOL0     H 4487   6.644   6.659   2.521 -1.3933 -0.1787 -0.4401
  792MOL0     H 4488   6.570   6.565   2.657  1.2394  0.0217  3.2303
  792MOL0     H 4489   6.426   6.751   2.586 -2.1631  2.2467  1.4647
  792MOL0     H 4490   6.555   6.864   2.621  1.0543 -0.0068 -0.4216
  792MOL0     H 4491   6.528   6.752   2.875 -0.0287  0.2969  0.7579
  792MOL0     H 4492   6.378   6.699   2.813 -0.8434  0.2223 -1.2261
  792MOL0     H 4493   6.455   6.996   2.795 -3.2567  2.4954  0.2355
  792MOL0     H 4494   6.312   6.920   2.729  0.6332  0.9610 -0.6237
  792MOL0     H 4495   6.315   7.020   2.967 -1.3555  0.9455 -3.5353
  792MOL0     H 4496   6.371   6.858   3.024  1.4707  0.1692 -1.7177
  792MOL0     H 4497   6.155   6.671   3.044 -0.2857 -0.6306 -2.0142
  792MOL0     H 4498   5.920   6.572   2.970 -2.0077 -0.9907  2.5968
  792MOL0     H 4499   5.792   6.691   2.942 -0.8643 -1.3333  1.3418
  792MOL0     H 4500   5.868   6.784   3.186  0.9004  0.7537 -1.7559
  792MOL0     H 4501   5.965   6.638   3.184  0.0572 -2.4381 -1.6697
  792MOL0     H 4502   5.758   6.488   3.151 -2.5012 -1.2047  2.0135
  792MOL0     H 4503   5.767   6.566   3.300  3.5641 -2.8240 -0.9434
  792MOL0     H 4504   5.629   6.764   3.212 -1.3932  0.1228  0.6442
  792MOL0     H 4505   5.549   6.620   3.252 -2.2638  2.3428  0.1865
  792MOL0     H 4506   5.377   6.518   2.895  2.4526  2.8227 -0.7943
  792MOL0     H 4507   5.147   6.545   2.889  2.5037 -2.8022  1.8074
  792MOL0     H 4508   4.910   7.051   3.260  0.3311 -2.1077  0.5084
  792MOL0     H 4509   4.704   7.184   3.273 -1.4889 -0.8103  1.0986
  792MOL0     H 4510   4.513   7.298   3.214  0.2872  0.5334  3.6752
  792MOL0     H 4511   4.466   7.177   3.339  0.5432  2.6187  1.4052
  792MOL0     H 4512   4.235   7.176   3.249 -2.9120  1.4125  0.0756
  792MOL0     H 4513   4.286   7.306   3.142 -2.0219 -1.4125  0.0965
  792MOL0     H 4514   4.336   7.447   3.376  0.5278 -1.4856  0.3520
  792MOL0     H 4515   4.283   7.297   3.443  1.1937 -3.3050 -2.0751
  792MOL0     H 4516   4.113   7.484   3.253  0.8124  1.6811 -0.0997
  792MOL0     H 4517   4.068   7.327   3.324  0.3652  0.0354 -1.0986
  792MOL0     H 4518   4.119   7.579   3.477 -0.2522 -0.6882 -3.0402
  792MOL0     H 4519   4.093   7.414   3.545 -0.9603  3.3950  3.0834
  792MOL0     H 4520   3.906   7.575   3.359 -3.6497 -1.8737 -0.1491
  792MOL0     H 4521   3.899   7.593   3.531  2.0493  1.5996  0.2302
  792MOL0     H 4522   3.785   7.391   3.350  0.8162  1.2357  0.1971
  792MOL0     H 4523   3.860   7.314   3.497  3.5323  2.3669  1.5588
  792MOL0     H 4524   3.726   7.445   3.638 -2.2527 -2.2017  0.7998
  792MOL0     H 4525   3.636   7.338   3.526 -2.7280  1.3873 -0.7389
  792MOL0     H 4526   4.504   6.890   3.022 -1.2586 -0.7775  2.3252
  792MOL0     H 4527   4.716   6.765   2.999  2.7890  0.7491 -2.3776
  792MOL0     H 4528   5.172   6.839   3.201 -6.5207 -1.5210 -3.2886
  792MOL0     H 4529   5.422   6.810   3.200  0.7792  1.9338 -3.8941
  792MOL0     H 4530   7.199   6.652   2.790  0.0279 -0.8282 -1.1008
  792MOL0     H 4531   7.445   6.630   2.752  1.0787  0.9182  0.8677
  792MOL0     H 4532   7.806   6.629   2.512 -0.6299 -2.2750 -1.5697
  792MOL0     H 4533   8.040   6.616   2.424  1.5508  1.4356 -0.6277
  792MOL0     H 4534   8.159   6.590   2.165 -1.1343 -1.0267  1.8942
  792MOL0     H 4535   8.227   6.621   2.324 -0.2970 -2.0610 -1.2528
  792MOL0     H 4536   8.373   6.616   2.100 -0.3550 -0.8794  2.1490
  792MOL0     H 4537   8.289   6.765   2.067 -2.2946  0.2970  1.1199
  792MOL0     H 4538   8.468   6.733   2.312 -1.2950  1.4984  2.1388
  792MOL0     H 4539   8.391   6.883   2.254 -1.3556 -0.7877  2.1453
  792MOL0     H 4540   8.610   6.712   2.121 -0.3947 -0.9186  2.8784
  792MOL0     H 4541   8.521   6.838   2.036 -2.7045  0.1121  0.6773
  792MOL0     H 4542   8.736   7.112   2.226 -2.9700  1.1942  1.2616
  792MOL0     H 4543   7.970   6.997   2.228 -0.7834 -0.7993 -0.4868
  792MOL0     H 4544   7.758   7.020   2.337  1.5358  1.0317 -0.7684
  793MOL0     O 4545   1.119   0.943  10.192 -0.0614  0.0440 -0.4914
  793MOL0     C 4546   1.083   1.025  10.105  0.8363  0.1161 -0.0422
  793MOL0     O 4547   0.955   1.057  10.078 -0.0470  0.6110  0.6105
  793MOL0     C 4548   0.848   0.998  10.139 -0.2629  0.3811 -0.9303
  793MOL0     C 4549   0.728   1.038  10.080 -0.0566 -0.2677 -0.2804
  793MOL0     C 4550   0.607   0.999  10.138 -0.2176  0.9478  0.6285
  793MOL0     C 4551   0.599   0.913  10.240 -0.4049 -0.6681  0.6627
  793MOL0     O 4552   0.478   0.900  10.294  0.0252  0.6227 -0.0152
  793MOL0     C 4553   0.379   0.847  10.202 -0.1640  0.5572  0.6145
  793MOL0     C 4554   0.264   0.788  10.285  0.0995 -0.8232 -0.1386
  793MOL0     C 4555   0.145   0.759  10.201 -0.9792 -0.3331 -0.4541
  793MOL0     C 4556   0.046   0.680  10.277  0.4983 -0.1307 -0.0331
  793MOL0     C 4557  -0.063   0.639  10.173 -0.1003  0.1880  0.7387
  793MOL0     C 4558  -0.139   0.516  10.220  0.2801  0.7185 -0.5972
  793MOL0     C 4559  -0.249   0.470  10.118 -0.1707 -0.0139 -0.2404
  793MOL0     C 4560  -0.370   0.562  10.107 -0.1849 -0.8384 -0.3363
  793MOL0     N 4561  -0.472   0.494  10.022  0.2481  0.2199 -0.2772
  793MOL0     C 4562  -0.582   0.421  10.051  0.1126 -0.0408  0.3880
  793MOL0     C 4563  -0.609   0.338   9.945 -0.6458  0.6131  0.3494
  793MOL0     C 4564  -0.712   0.236   9.932  0.7286 -0.0909  0.4352
  793MOL0     C 4565  -0.849   0.283   9.894  0.2450  0.2974  0.0835
  793MOL0     C 4566  -0.956   0.173   9.911  0.5194 -0.3348  0.3994
  793MOL0     C 4567  -1.100   0.219   9.923 -0.1774 -0.2794 -0.1869
  793MOL0     O 4568  -1.143   0.289   9.805 -0.4914  0.0441  0.4075
  793MOL0     C 4569  -1.263   0.351   9.812 -0.0275  0.6529  0.4885
  793MOL0     C 4570  -1.371   0.336   9.913  0.2929  0.2131 -0.4249
  793MOL0     C 4571  -1.498   0.393   9.896  0.0178  0.3962  0.8316
  793MOL0     C 4572  -1.509   0.482   9.784  0.2855  0.0632  0.7805
  793MOL0     C 4573  -1.635   0.553   9.761  0.2904 -0.4622  0.6908
  793MOL0     O 4574  -1.656   0.630   9.648 -0.0739  0.2032  0.0288
  793MOL0     C 4575  -1.787   0.670   9.629  0.8716  0.0867  0.1833
  793MOL0     C 4576  -1.842   0.788   9.683 -0.7531  0.6160  0.2006
  793MOL0     C 4577  -1.966   0.830   9.655 -0.3633 -0.8161  0.0705
  793MOL0     C 4578  -2.044   0.763   9.561  1.0080 -0.6708 -0.5568
  793MOL0     O 4579  -2.175   0.802   9.546  0.6998 -0.4451  0.1700
  793MOL0     C 4580  -2.263   0.743   9.446  1.1173 -0.4140  0.4148
  793MOL0     C 4581  -2.392   0.832   9.451  0.3057 -0.0304 -0.0487
  793MOL0     C 4582  -2.510   0.791   9.362  0.5793 -0.1884  0.3046
  793MOL0     C 4583  -2.632   0.888   9.392  0.2209  0.5897 -0.3346
  793MOL0     C 4584  -2.746   0.876   9.293 -0.3956  0.1539  0.1481
  793MOL0     C 4585  -2.875   0.934   9.346  0.3409 -0.2283 -0.2603
  793MOL0     C 4586  -2.977   0.980   9.236 -0.9309  0.6111  0.4099
  793MOL0     C 4587  -3.111   1.015   9.300  0.3704  0.1264 -0.0999
  793MOL0    Cl 4588  -3.192   0.877   9.370 -0.3078  0.0878  0.1749
  793MOL0     C 4589  -2.000   0.648   9.504  1.0841 -0.2023  0.1794
  793MOL0     C 4590  -1.873   0.601   9.541  0.3563  0.5791 -0.1049
  793MOL0     O 4591  -1.718   0.542   9.852  0.4012  0.1286 -0.2012
  793MOL0     C 4592  -1.407   0.497   9.693 -0.6000  0.1803  0.4511
  793MOL0     C 4593  -1.283   0.438   9.706 -0.2035  0.6035  0.3343
  793MOL0     N 4594  -0.520   0.381   9.842  0.2215 -0.3435  0.0108
  793MOL0     N 4595  -0.439   0.465   9.895 -0.4267  0.2165  0.1220
  793MOL0     C 4596   0.720   0.875  10.308 -0.7192 -0.2371 -0.5091
  793MOL0     C 4597   0.848   0.912  10.250 -0.2444  0.5695 -0.7877
  793MOL0     C 4598   1.191   1.102  10.036 -0.6342  0.4778 -0.1985
  793MOL0     C 4599   1.181   1.161   9.909 -0.6089 -0.1736  0.7723
  793MOL0     C 4600   1.295   1.225   9.862  0.2979 -0.3554  0.5241
  793MOL0     C 4601   1.409   1.245   9.935  0.1275  0.1193  0.7899
  793MOL0     O 4602   1.509   1.328   9.892 -0.3759  0.4421  0.4272
  793MOL0     C 4603   1.519   1.374   9.755  0.2725  0.3086 -0.4605
  793MOL0     C 4604   1.658   1.444   9.738  1.4268  0.0488 -0.6826
  793MOL0     C 4605   1.663   1.577   9.829 -0.3446  1.1077 -0.2430
  793MOL0     C 4606   1.798   1.653   9.828  0.2697  0.0414 -0.0764
  793MOL0     C 4607   1.863   1.666   9.700 -0.1757  0.1889 -0.2029
  793MOL0     C 4608   1.919   1.669   9.595  0.3604  0.1531 -0.1868
  793MOL0     C 4609   1.420   1.179  10.057  0.3791  0.9549 -0.6037
  793MOL0     C 4610   1.312   1.106  10.110 -0.1729  0.4552  0.2070
  793MOL0     H 4611   0.730   1.116  10.005 -2.6646  0.7425  0.5641
  793MOL0     H 4612   0.510   1.037  10.109 -0.5791 -0.9585 -0.8822
  793MOL0     H 4613   0.424   0.769  10.140 -0.0020  0.2520  1.1141
  793MOL0     H 4614   0.343   0.928  10.137 -1.9115 -0.4013  0.3277
  793MOL0     H 4615   0.232   0.860  10.361  0.8804 -0.1580 -0.4235
  793MOL0     H 4616   0.294   0.692  10.328 -4.7845 -2.9969 -0.8392
  793MOL0     H 4617   0.178   0.703  10.113 -2.3711  0.1341 -1.2964
  793MOL0     H 4618   0.090   0.848  10.171 -2.0489 -0.7096  0.3345
  793MOL0     H 4619   0.095   0.594  10.324  0.2813  0.0793  0.5889
  793MOL0     H 4620   0.006   0.743  10.358 -0.5707 -2.9632  1.8194
  793MOL0     H 4621  -0.019   0.626  10.074 -2.1864 -1.7027 -0.0311
  793MOL0     H 4622  -0.137   0.716  10.153 -0.3781 -0.7231 -2.1128
  793MOL0     H 4623  -0.180   0.535  10.320  1.3227 -1.6505  0.3344
  793MOL0     H 4624  -0.077   0.428  10.238 -0.5627  0.6641  2.6269
  793MOL0     H 4625  -0.194   0.470  10.023 -0.5685 -3.5997 -0.6348
  793MOL0     H 4626  -0.289   0.370  10.139 -1.0921 -0.0093 -1.7706
  793MOL0     H 4627  -0.353   0.660  10.062 -1.9597 -1.4640 -2.5572
  793MOL0     H 4628  -0.404   0.570  10.211 -1.2496 -0.3419 -0.7055
  793MOL0     H 4629  -0.640   0.423  10.143 -1.7007 -1.7075 -0.6523
  793MOL0     H 4630  -0.723   0.206  10.036 -3.9472  1.8172  0.7333
  793MOL0     H 4631  -0.684   0.159   9.859 -1.6019  0.2758 -0.9450
  793MOL0     H 4632  -0.856   0.320   9.791 -2.3616  1.1784  0.5008
  793MOL0     H 4633  -0.870   0.360   9.969  2.0768 -0.5334  1.5241
  793MOL0     H 4634  -0.952   0.110   9.822 -0.4595  1.4390 -0.9478
  793MOL0     H 4635  -0.929   0.118  10.002  1.3973  0.6638  0.7565
  793MOL0     H 4636  -1.101   0.295  10.002 -1.5655 -0.4069 -0.0484
  793MOL0     H 4637  -1.165   0.135   9.950  1.9071 -2.1604 -0.7613
  793MOL0     H 4638  -1.355   0.263   9.992  2.3102 -0.5917 -1.5206
  793MOL0     H 4639  -1.574   0.382   9.972  0.7303  2.6751  1.9477
  793MOL0     H 4640  -1.780   0.841   9.753  2.2451  0.3140 -2.0306
  793MOL0     H 4641  -2.003   0.918   9.706  0.7292  2.0556 -3.6708
  793MOL0     H 4642  -2.285   0.637   9.463  0.9177 -0.4629 -0.1334
  793MOL0     H 4643  -2.224   0.759   9.345  0.4287 -2.1461 -0.1588
  793MOL0     H 4644  -2.362   0.935   9.430 -0.6394  0.4271  0.7454
  793MOL0     H 4645  -2.427   0.833   9.554  0.9721  0.7438  0.1765
  793MOL0     H 4646  -2.538   0.688   9.382 -2.4032  0.4933  0.1466
  793MOL0     H 4647  -2.484   0.808   9.257 -2.4487 -0.9562 -0.6442
  793MOL0     H 4648  -2.667   0.863   9.492 -2.6407  1.7542 -0.9642
  793MOL0     H 4649  -2.591   0.988   9.409 -0.7789  0.5389  3.0218
  793MOL0     H 4650  -2.755   0.770   9.265 -0.4754 -0.6394  2.8710
  793MOL0     H 4651  -2.721   0.938   9.207  0.2430 -1.5026 -0.9087
  793MOL0     H 4652  -2.847   1.026   9.398  0.7080 -0.1438 -0.6014
  793MOL0     H 4653  -2.908   0.853   9.412 -0.0248 -1.1846 -1.5701
  793MOL0     H 4654  -2.939   1.068   9.183 -0.7812 -0.2632 -0.9882
  793MOL0     H 4655  -2.991   0.897   9.166 -1.6647  1.7172 -0.7891
  793MOL0     H 4656  -3.166   1.051   9.214 -0.4773  0.5486  0.6076
  793MOL0     H 4657  -3.099   1.094   9.375 -1.3582 -0.0085  0.3617
  793MOL0     H 4658  -2.063   0.593   9.434  1.6176  0.3910 -0.7852
  793MOL0     H 4659  -1.830   0.513   9.494 -0.2532  0.0067  0.3930
  793MOL0     H 4660  -1.422   0.559   9.605 -0.4520 -2.5458 -1.6308
  793MOL0     H 4661  -1.202   0.463   9.639 -2.3268  0.6263 -2.4245
  793MOL0     H 4662   0.723   0.828  10.406  1.0284  0.8780  0.0213
  793MOL0     H 4663   0.936   0.896  10.311  0.5913 -0.4782 -2.2358
  793MOL0     H 4664   1.085   1.154   9.858 -1.3138 -1.9638  2.2315
  793MOL0     H 4665   1.280   1.267   9.763 -0.2585 -2.3084 -0.2606
  793MOL0     H 4666   1.441   1.449   9.737 -1.7620 -1.1712  1.6338
  793MOL0     H 4667   1.501   1.301   9.675 -0.7419 -0.2903  0.2908
  793MOL0     H 4668   1.741   1.376   9.758  2.0503  0.7023 -1.0121
  793MOL0     H 4669   1.655   1.479   9.634 -1.6782  1.0120 -0.3767
  793MOL0     H 4670   1.637   1.554   9.933  1.5641 -2.0690 -0.3248
  793MOL0     H 4671   1.583   1.641   9.791  0.2149  1.8844 -0.1216
  793MOL0     H 4672   1.793   1.756   9.866  2.7815  0.0192  0.4606
  793MOL0     H 4673   1.873   1.600   9.888  1.1750 -0.8920 -1.9578
  793MOL0     H 4674   1.991   1.666   9.516 -0.2235 -2.0906 -0.6836
  793MOL0     H 4675   1.510   1.195  10.116  1.8320 -0.5522 -2.2943
  793MOL0     H 4676   1.321   1.075  10.214  0.8350 -1.0410 -0.2945
  794MOL0     O 4677   7.995   8.086   4.574 -0.4312 -0.4886  0.2066
  794MOL0     C 4678   7.932   8.093   4.680  0.1483 -0.8226  0.0000
  794MOL0     O 4679   7.800   8.103   4.686  0.7215  0.5489 -0.3370
  794MOL0     C 4680   7.710   8.089   4.582 -0.1043  0.8517  0.1311
  794MOL0     C 4681   7.728   8.027   4.457  0.3585  0.9631  0.0173
  794MOL0     C 4682   7.620   8.026   4.364 -1.2292 -0.0242 -0.1559
  794MOL0     C 4683   7.499   8.077   4.394  0.9101 -0.2114 -0.6534
  794MOL0     O 4684   7.395   8.057   4.306 -0.0281 -0.2209  0.8386
  794MOL0     C 4685   7.426   8.052   4.166  0.8502 -0.7478 -0.5608
  794MOL0     C 4686   7.292   8.065   4.089  0.2493 -0.3627  0.5535
  794MOL0     C 4687   7.193   7.953   4.128  1.0643  0.4366  0.0346
  794MOL0     C 4688   7.095   7.927   4.017 -0.5488  0.1272 -0.0899
  794MOL0     C 4689   6.984   7.822   4.049 -0.4503 -0.1291 -0.0856
  794MOL0     C 4690   7.047   7.688   4.011  0.7465  0.8859  0.6801
  794MOL0     C 4691   6.932   7.579   4.002  0.6730  0.1789  0.6737
  794MOL0     C 4692   6.995   7.442   3.957 -0.6682 -0.6653  0.9098
  794MOL0     N 4693   6.910   7.327   3.967  0.1734  0.4308 -0.7225
  794MOL0     C 4694   6.811   7.287   3.879  0.4020 -0.1038  0.3696
  794MOL0     C 4695   6.762   7.174   3.934 -0.2196  0.6856  0.2635
  794MOL0     C 4696   6.647   7.099   3.862 -0.5014  0.5410 -0.6123
  794MOL0     C 4697   6.560   7.010   3.949  0.6085  0.4398  0.1994
  794MOL0     C 4698   6.459   6.939   3.859  0.3406  0.5997 -0.1664
  794MOL0     C 4699   6.358   6.865   3.951 -0.5165  0.0284  0.8248
  794MOL0     O 4700   6.282   6.957   4.033  0.1741  0.5073 -1.0275
  794MOL0     C 4701   6.174   6.910   4.107  0.0405  0.4179  0.4654
  794MOL0     C 4702   6.133   6.997   4.204 -0.3211 -0.1447  0.1154
  794MOL0     C 4703   6.014   6.970   4.280  0.4373 -0.0567  0.8088
  794MOL0     C 4704   5.947   6.855   4.258 -1.1148  0.0424  0.9040
  794MOL0     C 4705   5.837   6.815   4.344  0.4237 -0.3228 -1.3356
  794MOL0     O 4706   5.750   6.705   4.297 -0.4151 -0.3728 -0.1856
  794MOL0     C 4707   5.641   6.658   4.370 -0.1419 -0.8457 -0.5713
  794MOL0     C 4708   5.520   6.643   4.301  0.3503 -0.0005  0.0285
  794MOL0     C 4709   5.399   6.624   4.376  0.2993  0.4624 -0.2318
  794MOL0     C 4710   5.411   6.596   4.515 -0.3841 -0.0045 -0.2487
  794MOL0     O 4711   5.297   6.564   4.578 -0.7749  0.2283  0.4224
  794MOL0     C 4712   5.300   6.482   4.695 -0.4661 -0.4493  0.3901
  794MOL0     C 4713   5.162   6.448   4.753  0.1770  0.1094 -0.8510
  794MOL0     C 4714   5.120   6.530   4.877 -0.8811  0.7027 -0.3727
  794MOL0     C 4715   5.085   6.673   4.826 -0.3225  0.1682  0.5491
  794MOL0     C 4716   5.012   6.751   4.942 -0.6292 -0.1628  0.9839
  794MOL0     C 4717   5.112   6.800   5.051  0.4066 -0.0504  0.2918
  794MOL0     C 4718   5.090   6.722   5.182 -0.6081  0.1853  0.1828
  794MOL0     C 4719   5.083   6.790   5.312 -0.3634  0.7643  0.0876
  794MOL0    Cl 4720   4.943   6.888   5.329 -0.0165  0.3663  0.1695
  794MOL0     C 4721   5.531   6.610   4.582 -0.1367 -0.3159 -0.0467
  794MOL0     C 4722   5.652   6.641   4.510  0.1134 -0.5476 -0.5531
  794MOL0     O 4723   5.824   6.873   4.460 -0.5172  0.6607  1.1687
  794MOL0     C 4724   5.995   6.763   4.160 -0.6768  0.2914 -0.4762
  794MOL0     C 4725   6.105   6.790   4.082 -0.3536 -0.0605 -0.3564
  794MOL0     N 4726   6.836   7.145   4.047  0.1229 -0.1737 -0.5342
  794MOL0     N 4727   6.925   7.237   4.066  0.0409 -0.5777 -0.2597
  794MOL0     C 4728   7.482   8.135   4.518  0.7385 -0.5586  0.4565
  794MOL0     C 4729   7.587   8.147   4.610  0.9181  0.6610 -0.4505
  794MOL0     C 4730   8.009   8.100   4.805 -0.9033  0.2101 -0.1254
  794MOL0     C 4731   8.156   8.091   4.818  0.2335  0.4365  0.0759
  794MOL0     C 4732   8.217   8.100   4.942 -0.7069 -0.2243  0.3886
  794MOL0     C 4733   8.139   8.124   5.060  0.0318 -0.4776  0.4146
  794MOL0     O 4734   8.203   8.161   5.169 -0.1865  0.8831 -0.3325
  794MOL0     C 4735   8.175   8.295   5.217 -0.4319  0.2066  0.3233
  794MOL0     C 4736   8.282   8.334   5.322 -0.1497 -0.0678 -0.7981
  794MOL0     C 4737   8.223   8.295   5.460  0.0295 -0.5537 -0.7761
  794MOL0     C 4738   8.284   8.386   5.572  0.4513  0.2646  0.5988
  794MOL0     C 4739   8.426   8.364   5.570  0.2301 -0.0913  0.2856
  794MOL0     C 4740   8.540   8.331   5.559  0.0988  0.5791 -0.9572
  794MOL0     C 4741   7.999   8.137   5.051 -0.4723 -0.3839 -0.0692
  794MOL0     C 4742   7.939   8.121   4.926  1.0295  0.4557  0.1197
  794MOL0     H 4743   7.826   7.989   4.429  0.8297  2.8779 -1.0927
  794MOL0     H 4744   7.652   7.979   4.271  2.7933 -4.0095  2.7911
  794MOL0     H 4745   7.481   7.965   4.130  5.3272  1.4870  0.1611
  794MOL0     H 4746   7.494   8.131   4.132  1.4285 -0.8264  0.3746
  794MOL0     H 4747   7.312   8.061   3.982 -0.6743 -2.3159  0.4146
  794MOL0     H 4748   7.248   8.163   4.111 -0.3970 -0.1394 -1.4937
  794MOL0     H 4749   7.132   7.982   4.214  0.5821  1.8113 -0.7269
  794MOL0     H 4750   7.248   7.863   4.156  1.9398  0.9204 -0.0930
  794MOL0     H 4751   7.059   8.021   3.976 -0.9034 -0.2718 -0.7032
  794MOL0     H 4752   7.159   7.888   3.937 -0.9147 -1.6475  0.4323
  794MOL0     H 4753   6.906   7.848   3.977 -1.6484 -3.0442  0.0293
  794MOL0     H 4754   6.953   7.820   4.153 -0.7533  0.5221 -0.1597
  794MOL0     H 4755   7.125   7.647   4.076  2.1452 -1.9491 -2.5165
  794MOL0     H 4756   7.092   7.701   3.912 -0.7179  2.1617  0.1393
  794MOL0     H 4757   6.887   7.564   4.100  2.2575 -1.2021  1.2351
  794MOL0     H 4758   6.851   7.616   3.939  0.2241 -1.9940 -0.0927
  794MOL0     H 4759   7.080   7.431   4.025  1.3629 -0.9056 -1.5014
  794MOL0     H 4760   7.028   7.455   3.853 -0.2055 -0.3467  1.0912
  794MOL0     H 4761   6.771   7.336   3.791  0.1464  1.6523  1.4028
  794MOL0     H 4762   6.674   7.029   3.782  3.1443  0.9395  0.1073
  794MOL0     H 4763   6.577   7.176   3.828 -0.3339  2.5930  3.1993
  794MOL0     H 4764   6.509   7.072   4.023  2.3094  1.5210  0.5207
  794MOL0     H 4765   6.610   6.930   4.005 -0.2139 -0.2850 -0.0888
  794MOL0     H 4766   6.407   7.005   3.790  0.7044 -0.1241 -1.1602
  794MOL0     H 4767   6.508   6.860   3.802  1.1040 -0.5671  1.9670
  794MOL0     H 4768   6.413   6.792   4.012 -0.4732 -1.3197 -0.7433
  794MOL0     H 4769   6.292   6.811   3.882  1.2877  0.3300 -1.2281
  794MOL0     H 4770   6.194   7.086   4.208  0.2774 -0.5694  0.7093
  794MOL0     H 4771   5.986   7.046   4.352 -2.0757  0.9696 -1.1088
  794MOL0     H 4772   5.506   6.642   4.193  1.7059 -1.4001 -0.1698
  794MOL0     H 4773   5.309   6.613   4.317  0.0043  2.3244 -0.1896
  794MOL0     H 4774   5.361   6.526   4.775 -1.3491 -1.0491  1.4153
  794MOL0     H 4775   5.353   6.390   4.671  2.4164  1.3660 -0.8462
  794MOL0     H 4776   5.161   6.343   4.783 -2.8577 -0.5133 -2.7833
  794MOL0     H 4777   5.083   6.452   4.678 -1.1737 -3.0689  0.2470
  794MOL0     H 4778   5.206   6.527   4.945  0.3528 -1.8462 -1.9079
  794MOL0     H 4779   5.035   6.478   4.922 -0.4496  0.0590 -0.2813
  794MOL0     H 4780   5.172   6.730   4.792 -1.3220  0.5046 -1.5929
  794MOL0     H 4781   5.020   6.660   4.740  0.0509  0.1060  0.2726
  794MOL0     H 4782   4.919   6.702   4.972 -1.5408  0.7689 -0.1964
  794MOL0     H 4783   4.984   6.843   4.891 -1.1570 -1.2975 -0.8573
  794MOL0     H 4784   5.099   6.903   5.083  2.2209 -0.1661  1.5269
  794MOL0     H 4785   5.216   6.786   5.020 -0.2877  0.1003 -2.3604
  794MOL0     H 4786   4.995   6.669   5.173 -0.2406 -0.3148 -0.9705
  794MOL0     H 4787   5.169   6.647   5.176 -0.5935  0.1572  0.6451
  794MOL0     H 4788   5.168   6.856   5.326 -0.0484  0.0349  1.9827
  794MOL0     H 4789   5.092   6.710   5.387 -1.4052  0.9695  0.4513
  794MOL0     H 4790   5.536   6.589   4.688 -0.9438 -3.0815 -0.4943
  794MOL0     H 4791   5.743   6.633   4.569 -0.0866  3.5254  0.6175
  794MOL0     H 4792   5.939   6.670   4.164 -3.0437  1.6984  1.7043
  794MOL0     H 4793   6.141   6.730   3.998 -0.9839  1.6394 -1.9040
  794MOL0     H 4794   7.383   8.175   4.538  0.3924 -0.7401 -0.8545
  794MOL0     H 4795   7.565   8.201   4.701 -1.8959  0.9033 -1.1514
  794MOL0     H 4796   8.221   8.085   4.731 -0.1811  0.8118 -0.2663
  794MOL0     H 4797   8.323   8.078   4.948 -0.3284  1.2754 -0.3635
  794MOL0     H 4798   8.075   8.300   5.261  0.3760  0.2757  2.2337
  794MOL0     H 4799   8.189   8.367   5.135  0.8457  0.6789  0.9219
  794MOL0     H 4800   8.380   8.290   5.301 -0.0685  0.4304 -1.4879
  794MOL0     H 4801   8.281   8.443   5.330 -2.1316 -0.1906  2.0330
  794MOL0     H 4802   8.243   8.188   5.477  2.5132 -0.8137 -4.1000
  794MOL0     H 4803   8.116   8.312   5.468  0.0686  0.0609 -1.4772
  794MOL0     H 4804   8.251   8.489   5.556 -1.0177 -0.1134  1.0845
  794MOL0     H 4805   8.243   8.350   5.666 -1.1223 -1.1208 -0.5597
  794MOL0     H 4806   8.643   8.311   5.541  0.3499  1.4651 -0.5701
  794MOL0     H 4807   7.940   8.148   5.142  1.1992 -2.9100  1.4247
  794MOL0     H 4808   7.832   8.119   4.909  0.8712  0.3232  1.0814
  795MOL0     O 4809   3.126   8.945   6.195 -0.5418 -0.1502  0.2041
  795MOL0     C 4810   3.209   8.864   6.228 -0.4490  0.1813  0.6772
  795MOL0     O 4811   3.195   8.763   6.321 -0.7271  0.4699  0.5065
  795MOL0     C 4812   3.115   8.785   6.434 -0.1018  0.1606 -0.1819
  795MOL0     C 4813   3.068   8.675   6.501 -0.5817  0.2813  0.8751
  795MOL0     C 4814   2.978   8.680   6.601  0.9004 -0.0891  0.3000
  795MOL0     C 4815   2.948   8.802   6.655  0.5955 -0.6587 -0.4030
  795MOL0     O 4816   2.874   8.815   6.766  0.1334 -0.4787 -0.3869
  795MOL0     C 4817   2.904   8.729   6.882  0.1051 -0.6352 -0.0641
  795MOL0     C 4818   2.802   8.615   6.893  0.0074 -0.2032 -0.3545
  795MOL0     C 4819   2.663   8.664   6.940  0.5357 -0.2699 -0.2388
  795MOL0     C 4820   2.556   8.553   6.929 -0.1720  0.5203  0.8613
  795MOL0     C 4821   2.433   8.585   7.007  0.0585 -0.1894 -0.0085
  795MOL0     C 4822   2.311   8.500   6.975 -0.4730  0.1929 -0.0107
  795MOL0     C 4823   2.196   8.502   7.081  0.8027 -0.3798 -0.1956
  795MOL0     C 4824   2.166   8.636   7.141  0.2628  0.5884  0.2966
  795MOL0     N 4825   2.043   8.634   7.228 -0.0706 -0.2860 -0.4610
  795MOL0     C 4826   2.012   8.732   7.323 -0.0340  0.1760 -0.2150
  795MOL0     C 4827   1.888   8.701   7.366  0.0473 -0.5021  0.7682
  795MOL0     C 4828   1.813   8.768   7.480  0.5533 -0.3974  0.0983
  795MOL0     C 4829   1.687   8.844   7.427 -0.1964 -1.2759 -0.1327
  795MOL0     C 4830   1.617   8.920   7.544 -0.6335 -0.5953  0.2060
  795MOL0     C 4831   1.487   8.995   7.502  0.9331 -0.3702  0.0933
  795MOL0     O 4832   1.417   9.028   7.623 -0.6794  0.3671 -0.6825
  795MOL0     C 4833   1.281   9.010   7.613  0.0839  0.4519 -0.4856
  795MOL0     C 4834   1.208   9.051   7.501 -1.2446 -0.5946  0.1863
  795MOL0     C 4835   1.071   9.037   7.492  0.0458  0.2383 -0.3582
  795MOL0     C 4836   0.997   8.972   7.599 -0.8896 -0.2637  0.1182
  795MOL0     C 4837   0.846   8.961   7.603 -0.4302 -0.5893  0.1140
  795MOL0     O 4838   0.779   9.030   7.507 -0.6674  0.7801 -0.7946
  795MOL0     C 4839   0.647   9.047   7.522  0.4605  0.4551 -0.2506
  795MOL0     C 4840   0.580   8.972   7.431 -0.4443 -0.4962 -0.6841
  795MOL0     C 4841   0.434   8.968   7.436 -0.3189  0.2093  1.1527
  795MOL0     C 4842   0.368   9.049   7.531 -0.0350 -0.1586  0.1483
  795MOL0     O 4843   0.229   9.035   7.546  0.1760  0.7823 -0.0983
  795MOL0     C 4844   0.142   9.040   7.435  0.2544  0.9900  0.0406
  795MOL0     C 4845   0.007   9.074   7.490  0.6308  0.3392  0.2355
  795MOL0     C 4846  -0.105   9.061   7.382 -1.1292 -1.0567 -0.3980
  795MOL0     C 4847  -0.228   9.121   7.455  0.0249  0.2358 -0.3121
  795MOL0     C 4848  -0.353   9.146   7.372 -0.0994 -0.0484  0.5802
  795MOL0     C 4849  -0.490   9.161   7.425  0.1801 -0.2778 -1.0162
  795MOL0     C 4850  -0.608   9.112   7.337 -0.6230  0.3324  0.3372
  795MOL0     C 4851  -0.748   9.137   7.388  0.1855  0.4144 -0.2166
  795MOL0    Cl 4852  -0.796   9.303   7.417 -0.0768  0.1106 -0.1499
  795MOL0     C 4853   0.441   9.137   7.615  0.2006  0.0278  0.3451
  795MOL0     C 4854   0.581   9.134   7.613  0.2259 -0.3288 -0.4964
  795MOL0     O 4855   0.800   8.897   7.688 -0.5374 -0.0157  0.0089
  795MOL0     C 4856   1.074   8.930   7.712  0.1524 -0.0727  0.4432
  795MOL0     C 4857   1.206   8.954   7.716  0.2104 -0.6803  0.2254
  795MOL0     N 4858   1.848   8.592   7.298 -0.5614  0.8235  0.1836
  795MOL0     N 4859   1.938   8.549   7.217 -0.0575 -0.1531  0.1065
  795MOL0     C 4860   2.996   8.924   6.594 -0.5402 -0.1497  0.7632
  795MOL0     C 4861   3.076   8.916   6.483  0.4548 -0.1316 -0.0663
  795MOL0     C 4862   3.335   8.860   6.147 -0.3302 -0.2529 -0.8121
  795MOL0     C 4863   3.333   8.916   6.016  0.6318 -0.8968  0.0175
  795MOL0     C 4864   3.446   8.938   5.949 -0.3132 -0.3695  0.3299
  795MOL0     C 4865   3.568   8.898   5.997  0.0643 -0.5958 -0.4581
  795MOL0     O 4866   3.693   8.934   5.954 -0.9196  0.3913 -0.4721
  795MOL0     C 4867   3.729   8.943   5.820 -0.0457  0.5418 -0.0626
  795MOL0     C 4868   3.681   8.829   5.730  1.0329  0.0252 -0.2265
  795MOL0     C 4869   3.757   8.832   5.595  0.3273 -0.0775  0.8470
  795MOL0     C 4870   3.904   8.790   5.604 -0.2652  0.4357  0.1788
  795MOL0     C 4871   3.923   8.640   5.621 -0.2100  0.1892 -0.4258
  795MOL0     C 4872   3.913   8.521   5.647 -0.0570  0.4598 -0.2553
  795MOL0     C 4873   3.564   8.833   6.124 -0.0217 -0.7736  0.3558
  795MOL0     C 4874   3.454   8.815   6.204  1.0359 -0.1029  0.7785
  795MOL0     H 4875   3.089   8.576   6.461  1.7420  0.8530  0.5189
  795MOL0     H 4876   2.939   8.588   6.644 -1.3577  1.1156  0.9878
  795MOL0     H 4877   2.890   8.792   6.971  2.5628 -1.0844  0.6951
  795MOL0     H 4878   3.005   8.689   6.886 -0.6556 -2.6187  2.9439
  795MOL0     H 4879   2.837   8.532   6.955 -0.2117  0.8126  1.1873
  795MOL0     H 4880   2.795   8.580   6.790 -0.0773  0.6136 -0.6362
  795MOL0     H 4881   2.621   8.743   6.877 -1.7594  1.0550  2.7155
  795MOL0     H 4882   2.670   8.699   7.043 -2.1752  0.3870 -0.2089
  795MOL0     H 4883   2.532   8.543   6.823 -1.9894 -2.6885  1.4364
  795MOL0     H 4884   2.599   8.459   6.965  0.6038  1.4401  2.4890
  795MOL0     H 4885   2.399   8.686   6.983 -0.1720  0.0585  1.3117
  795MOL0     H 4886   2.459   8.584   7.113  2.6250  2.0559 -0.5057
  795MOL0     H 4887   2.339   8.394   6.964  2.4252  1.0089 -1.3451
  795MOL0     H 4888   2.275   8.524   6.874  1.3119 -1.2990 -1.0729
  795MOL0     H 4889   2.111   8.461   7.026 -0.4962 -0.3911  1.7074
  795MOL0     H 4890   2.218   8.432   7.162  0.2929  1.9615  2.0821
  795MOL0     H 4891   2.161   8.709   7.059  2.3042  0.1798 -0.2512
  795MOL0     H 4892   2.251   8.661   7.205  1.2792 -0.0896 -0.7535
  795MOL0     H 4893   2.071   8.820   7.344  1.8180 -0.5678 -1.9771
  795MOL0     H 4894   1.885   8.835   7.529  0.4637 -1.0665  1.1757
  795MOL0     H 4895   1.783   8.694   7.554  2.4207  0.0388  1.3731
  795MOL0     H 4896   1.622   8.773   7.376  1.1826 -2.8500  0.1795
  795MOL0     H 4897   1.737   8.916   7.362  0.6229 -1.7183 -0.0153
  795MOL0     H 4898   1.605   8.855   7.631  1.1863 -0.4256  0.6054
  795MOL0     H 4899   1.689   8.994   7.579  0.0852 -1.5099  0.7135
  795MOL0     H 4900   1.433   8.935   7.428 -1.6525 -0.9253  2.2783
  795MOL0     H 4901   1.512   9.090   7.452 -1.2640 -0.0879 -0.5858
  795MOL0     H 4902   1.270   9.092   7.422 -2.1158 -2.3604 -1.4855
  795MOL0     H 4903   1.024   9.062   7.397 -1.7317 -1.3984  0.0106
  795MOL0     H 4904   0.639   8.909   7.366  1.9334  1.5186 -0.6540
  795MOL0     H 4905   0.374   8.899   7.378  1.8535 -1.2723  0.5217
  795MOL0     H 4906   0.136   8.943   7.383  1.9364  0.9563 -0.1483
  795MOL0     H 4907   0.170   9.118   7.363 -0.4726  1.4498  0.2532
  795MOL0     H 4908   0.006   9.179   7.518  1.9870  1.0139 -1.9570
  795MOL0     H 4909  -0.022   9.008   7.572  0.7133  3.4459  2.9329
  795MOL0     H 4910  -0.116   8.956   7.352  4.8763 -2.9328  2.3786
  795MOL0     H 4911  -0.073   9.119   7.295 -2.1891  0.3066  0.0789
  795MOL0     H 4912  -0.268   9.051   7.529 -4.0207  1.1290 -1.3947
  795MOL0     H 4913  -0.204   9.211   7.512 -4.2413  1.2873  0.1575
  795MOL0     H 4914  -0.356   9.059   7.305 -2.2839  1.2636 -1.1356
  795MOL0     H 4915  -0.334   9.226   7.299  0.9196 -0.1845  0.6772
  795MOL0     H 4916  -0.504   9.265   7.458 -3.7553 -1.2119  0.9188
  795MOL0     H 4917  -0.503   9.105   7.518 -1.5502  1.8848  0.1535
  795MOL0     H 4918  -0.598   9.145   7.233 -0.6581  1.3723  0.6478
  795MOL0     H 4919  -0.589   9.005   7.333  1.8053  0.7258  0.1412
  795MOL0     H 4920  -0.747   9.085   7.484  1.3216  1.9352  0.6486
  795MOL0     H 4921  -0.816   9.080   7.325  2.2954 -3.3732  0.6431
  795MOL0     H 4922   0.379   9.204   7.673  0.7805 -0.5463  1.6521
  795MOL0     H 4923   0.647   9.201   7.667 -0.0784 -0.2229 -0.2515
  795MOL0     H 4924   1.014   8.889   7.793 -2.4012  2.3299 -0.0930
  795MOL0     H 4925   1.257   8.930   7.809 -0.2876 -2.2546  0.1156
  795MOL0     H 4926   2.963   9.023   6.624 -0.8898  0.5440 -1.6720
  795MOL0     H 4927   3.109   9.009   6.438 -0.7823 -0.3039 -1.4149
  795MOL0     H 4928   3.238   8.946   5.974 -0.5298 -1.1588  2.2752
  795MOL0     H 4929   3.457   8.988   5.853  0.9884  1.1775  1.2277
  795MOL0     H 4930   3.838   8.947   5.813 -0.1514  3.0662 -1.2630
  795MOL0     H 4931   3.681   9.037   5.795  0.6307  0.5298 -1.4737
  795MOL0     H 4932   3.689   8.730   5.776 -3.0559 -1.7765 -2.8228
  795MOL0     H 4933   3.574   8.840   5.709  1.4592 -0.0325 -2.6363
  795MOL0     H 4934   3.738   8.932   5.554 -3.1018 -1.0220 -0.2236
  795MOL0     H 4935   3.703   8.773   5.520  0.3721  1.7069 -0.6699
  795MOL0     H 4936   3.954   8.819   5.511 -0.1879 -0.5192 -0.0868
  795MOL0     H 4937   3.957   8.856   5.673 -0.2457 -0.1958  0.7690
  795MOL0     H 4938   3.885   8.425   5.686  0.4791 -0.6826 -2.4908
  795MOL0     H 4939   3.660   8.793   6.157  0.8080 -1.1672 -2.2962
  795MOL0     H 4940   3.461   8.772   6.303  0.1438  1.7041  1.6595
  796MOL0     O 4941   3.297   7.606   1.406 -1.0579 -0.2037  0.2645
  796MOL0     C 4942   3.370   7.509   1.418 -0.4857  0.1341 -0.6056
  796MOL0     O 4943   3.351   7.387   1.365 -0.8900 -0.4320 -0.8339
  796MOL0     C 4944   3.247   7.365   1.280 -0.2509  0.3498 -0.2881
  796MOL0     C 4945   3.116   7.370   1.328  0.8489  0.2463 -0.0106
  796MOL0     C 4946   3.007   7.326   1.247  0.1914 -0.8406 -0.6754
  796MOL0     C 4947   3.037   7.284   1.117  0.9818  0.2040 -0.6740
  796MOL0     O 4948   2.928   7.249   1.045  0.2134  0.2742  0.6664
  796MOL0     C 4949   2.929   7.137   0.959 -0.7266  0.0891  0.4182
  796MOL0     C 4950   2.919   7.010   1.039  0.2461  0.2663 -0.3215
  796MOL0     C 4951   2.851   6.895   0.957 -0.1491 -0.7475 -0.1632
  796MOL0     C 4952   2.696   6.927   0.963  0.5080  0.1229  0.1682
  796MOL0     C 4953   2.621   6.879   0.834  0.5873  0.3736  0.0643
  796MOL0     C 4954   2.640   6.971   0.716 -0.3050 -0.0462 -0.8771
  796MOL0     C 4955   2.556   6.938   0.602 -0.3459 -0.1683  0.5267
  796MOL0     C 4956   2.595   6.821   0.513 -0.0666  0.3565 -0.1243
  796MOL0     N 4957   2.472   6.758   0.457 -1.1847 -0.4193  0.3463
  796MOL0     C 4958   2.422   6.768   0.325 -0.0666  0.4006  0.0149
  796MOL0     C 4959   2.304   6.700   0.332  0.4818  0.1542 -0.2281
  796MOL0     C 4960   2.218   6.685   0.213 -0.1661 -0.1870 -0.1409
  796MOL0     C 4961   2.145   6.547   0.205 -0.1924 -0.4438 -0.0374
  796MOL0     C 4962   2.030   6.541   0.109 -0.8969  0.4827 -0.6103
  796MOL0     C 4963   1.958   6.406   0.132 -0.2284 -0.0133  0.2467
  796MOL0     O 4964   1.848   6.406   0.035  0.5939 -0.1683  0.1489
  796MOL0     C 4965   1.742   6.306   0.047  0.4100 -0.7839 -0.1094
  796MOL0     C 4966   1.719   6.216   0.153  0.2637  0.2875  0.2836
  796MOL0     C 4967   1.611   6.121   0.139 -0.2459  0.0839 -0.5442
  796MOL0     C 4968   1.531   6.119   0.026  0.2265 -0.7872 -0.3539
  796MOL0     C 4969   1.421   6.022   0.001  0.5445  0.0965 -0.8746
  796MOL0     O 4970   1.425   5.900   0.067  0.9149  0.8451  0.3854
  796MOL0     C 4971   1.316   5.812   0.054  0.8036 -0.5031 -0.0563
  796MOL0     C 4972   1.285   5.754  -0.061 -0.0589 -0.6944  0.1353
  796MOL0     C 4973   1.177   5.673  -0.087  0.4219 -0.3014  0.1909
  796MOL0     C 4974   1.107   5.633   0.028  0.2801  0.6133  0.7801
  796MOL0     O 4975   0.987   5.566   0.019 -0.3045 -0.4039  0.2632
  796MOL0     C 4976   0.943   5.505  -0.101 -0.2324  0.7884 -0.1663
  796MOL0     C 4977   0.842   5.403  -0.043  0.3482  0.4106 -1.0050
  796MOL0     C 4978   0.731   5.367  -0.147 -0.1983 -0.3914 -0.2932
  796MOL0     C 4979   0.622   5.277  -0.090  0.5391 -0.3636 -0.0410
  796MOL0     C 4980   0.491   5.300  -0.154  1.0359 -0.4795  0.0797
  796MOL0     C 4981   0.377   5.224  -0.089  0.2989  0.4061 -0.0005
  796MOL0     C 4982   0.248   5.263  -0.153  0.7460  0.0394 -0.2696
  796MOL0     C 4983   0.131   5.168  -0.122  0.3314  0.4077  0.3904
  796MOL0    Cl 4984   0.123   5.136   0.060 -0.2360  0.0639  0.0163
  796MOL0     C 4985   1.153   5.663   0.155  1.1601 -0.2534 -0.1104
  796MOL0     C 4986   1.251   5.760   0.164 -0.9779 -0.2062 -0.1889
  796MOL0     O 4987   1.338   6.054  -0.084  0.7485 -0.1264 -0.0715
  796MOL0     C 4988   1.550   6.220  -0.066  0.0597  0.4818  0.1043
  796MOL0     C 4989   1.660   6.311  -0.063  0.1609  0.3247  0.3769
  796MOL0     N 4990   2.288   6.638   0.457 -1.0679 -0.7862 -0.0157
  796MOL0     N 4991   2.392   6.674   0.527  0.7471 -0.2458 -0.0866
  796MOL0     C 4992   3.167   7.282   1.069  0.1541  0.6422  0.2396
  796MOL0     C 4993   3.275   7.311   1.153 -0.3719  0.4377 -0.3397
  796MOL0     C 4994   3.481   7.523   1.523 -0.5635  0.1958  0.0564
  796MOL0     C 4995   3.516   7.422   1.608  0.3177  0.3495 -0.0493
  796MOL0     C 4996   3.618   7.429   1.701 -1.1363 -0.8376 -0.0040
  796MOL0     C 4997   3.686   7.558   1.724  0.4275  0.0108  0.4484
  796MOL0     O 4998   3.795   7.567   1.805  0.5868  0.0290 -0.0041
  796MOL0     C 4999   3.907   7.506   1.743 -0.5007 -0.1620 -0.6774
  796MOL0     C 5000   4.007   7.471   1.851  0.6805 -0.0203  0.2987
  796MOL0     C 5001   4.137   7.416   1.785  1.0407  0.1187  0.2360
  796MOL0     C 5002   4.241   7.382   1.895  0.1929 -0.0469  0.0039
  796MOL0     C 5003   4.188   7.285   1.994 -0.6443 -0.2072  0.2801
  796MOL0     C 5004   4.169   7.195   2.069  0.3755 -0.3566 -0.3924
  796MOL0     C 5005   3.652   7.663   1.636  0.2255 -0.2324 -0.4595
  796MOL0     C 5006   3.535   7.653   1.547 -0.5875 -1.1063 -1.0707
  796MOL0     H 5007   3.105   7.404   1.430  1.3936  2.5385 -0.6678
  796MOL0     H 5008   2.908   7.328   1.293  1.4348  2.1763  2.2337
  796MOL0     H 5009   3.012   7.135   0.888 -1.1583 -1.5597 -0.0837
  796MOL0     H 5010   2.842   7.144   0.894  0.5132 -0.8249 -1.4233
  796MOL0     H 5011   2.871   7.033   1.135  3.0781  3.5957  0.5157
  796MOL0     H 5012   3.020   6.985   1.074  0.0605  1.6336  1.3272
  796MOL0     H 5013   2.883   6.797   0.991  0.5340 -1.2555 -2.1120
  796MOL0     H 5014   2.888   6.904   0.854  2.4236  0.1213  0.7743
  796MOL0     H 5015   2.657   6.880   1.054  2.0669  0.0719  0.8255
  796MOL0     H 5016   2.684   7.035   0.966  0.6578  0.1063  2.0117
  796MOL0     H 5017   2.513   6.873   0.852  0.4683  1.4359 -0.2594
  796MOL0     H 5018   2.656   6.776   0.818 -1.0021 -0.4117  1.2667
  796MOL0     H 5019   2.746   6.984   0.692 -0.7991  0.5897 -2.9679
  796MOL0     H 5020   2.605   7.070   0.747  0.4141  0.4959 -1.7400
  796MOL0     H 5021   2.452   6.939   0.635 -0.2211 -0.6206  0.9628
  796MOL0     H 5022   2.565   7.028   0.542  0.5149 -0.0605  0.8062
  796MOL0     H 5023   2.637   6.743   0.579 -1.9265  0.4483  1.2560
  796MOL0     H 5024   2.668   6.848   0.436  1.1812 -0.5695  0.6709
  796MOL0     H 5025   2.454   6.834   0.245  0.6363  1.3741  1.0622
  796MOL0     H 5026   2.280   6.708   0.126  0.5590  0.0444  0.4282
  796MOL0     H 5027   2.135   6.755   0.223  0.6682  1.0425 -1.4912
  796MOL0     H 5028   2.101   6.534   0.305 -0.2746  1.8786  0.2897
  796MOL0     H 5029   2.220   6.470   0.184  1.7434  0.7963  1.8914
  796MOL0     H 5030   1.960   6.622   0.130 -1.2142 -0.5115  2.6979
  796MOL0     H 5031   2.063   6.553   0.005  0.3830  2.8476  0.0093
  796MOL0     H 5032   1.926   6.406   0.237  1.0930  2.1274  0.6990
  796MOL0     H 5033   2.020   6.317   0.116  0.7415  0.4752  1.1290
  796MOL0     H 5034   1.788   6.203   0.236 -2.1128 -2.0925  2.0545
  796MOL0     H 5035   1.591   6.059   0.226 -0.5526  2.8292  1.4799
  796MOL0     H 5036   1.344   5.777  -0.149 -2.9062  1.1171 -1.4644
  796MOL0     H 5037   1.148   5.645  -0.188  1.7131  1.7655 -0.8377
  796MOL0     H 5038   1.022   5.463  -0.164  0.0905  2.5422 -1.0097
  796MOL0     H 5039   0.899   5.581  -0.165  2.4638  0.1805 -2.9869
  796MOL0     H 5040   0.791   5.446   0.043  0.1550 -4.5371  1.7080
  796MOL0     H 5041   0.899   5.319  -0.001  1.5770  1.5705 -0.2529
  796MOL0     H 5042   0.774   5.316  -0.233 -0.2046 -1.1923  0.1668
  796MOL0     H 5043   0.695   5.463  -0.185  1.7665 -0.3454 -2.2112
  796MOL0     H 5044   0.652   5.172  -0.096  0.7348 -0.3114  0.0227
  796MOL0     H 5045   0.614   5.297   0.017 -1.3119 -3.5844  0.5615
  796MOL0     H 5046   0.496   5.265  -0.257 -0.2199  1.1812 -0.5915
  796MOL0     H 5047   0.469   5.407  -0.157  1.7278 -0.3511 -0.7767
  796MOL0     H 5048   0.374   5.247   0.018 -0.6571 -1.2555  0.3650
  796MOL0     H 5049   0.394   5.117  -0.101 -3.5211 -0.3077 -0.4600
  796MOL0     H 5050   0.221   5.367  -0.135 -1.3775 -0.0991 -2.1341
  796MOL0     H 5051   0.264   5.254  -0.261  0.3643 -1.3286 -0.2311
  796MOL0     H 5052   0.140   5.073  -0.175 -1.4001 -0.0739  0.8866
  796MOL0     H 5053   0.035   5.210  -0.153  1.2319  1.5153 -1.0233
  796MOL0     H 5054   1.103   5.644   0.249  3.0649  0.1133  1.0342
  796MOL0     H 5055   1.265   5.791   0.267 -1.4119 -1.3958  0.2437
  796MOL0     H 5056   1.489   6.219  -0.155  1.6439 -1.5408 -1.0447
  796MOL0     H 5057   1.667   6.383  -0.143  2.9022  1.0182  1.1290
  796MOL0     H 5058   3.204   7.256   0.971 -0.8650  2.6046 -0.7225
  796MOL0     H 5059   3.380   7.297   1.131 -0.2409 -4.0928  2.0052
  796MOL0     H 5060   3.463   7.328   1.609  0.6175  0.1786 -0.2651
  796MOL0     H 5061   3.639   7.354   1.777  3.1063  3.2439  3.4631
  796MOL0     H 5062   3.958   7.563   1.664 -0.4645 -1.4504 -1.6223
  796MOL0     H 5063   3.875   7.418   1.686 -1.8119  0.3230 -0.7341
  796MOL0     H 5064   4.029   7.567   1.899  2.6921  0.7208 -1.9215
  796MOL0     H 5065   3.961   7.395   1.915 -2.3896  1.7013  0.3485
  796MOL0     H 5066   4.173   7.488   1.710  2.1031 -1.4011 -0.7836
  796MOL0     H 5067   4.115   7.322   1.733 -0.4083  0.6586 -0.1720
  796MOL0     H 5068   4.325   7.340   1.838 -0.2574 -2.1376  0.7791
  796MOL0     H 5069   4.277   7.470   1.948 -0.3461  1.5316 -2.1271
  796MOL0     H 5070   4.163   7.103   2.123 -1.5827  1.8468  3.6262
  796MOL0     H 5071   3.711   7.753   1.652  0.6000 -0.7274  1.1986
  796MOL0     H 5072   3.510   7.741   1.488 -0.9012  0.5778  1.3969
  797MOL0     O 5073   4.590   9.388   5.793  0.5257  0.1929 -0.4093
  797MOL0     C 5074   4.558   9.310   5.708 -0.1591  0.1574  0.6383
  797MOL0     O 5075   4.436   9.244   5.692 -0.4382  0.6794  0.3533
  797MOL0     C 5076   4.329   9.275   5.764 -0.2181 -0.1676 -0.9715
  797MOL0     C 5077   4.308   9.409   5.812  0.5268  1.3262  0.5465
  797MOL0     C 5078   4.191   9.444   5.880  0.9499  0.0727 -0.4656
  797MOL0     C 5079   4.088   9.350   5.907 -0.4985  0.5672  0.1331
  797MOL0     O 5080   3.968   9.390   5.970 -0.3558 -0.5574 -0.0152
  797MOL0     C 5081   3.855   9.298   5.974  0.1860  0.1033  0.6972
  797MOL0     C 5082   3.726   9.364   6.006  0.1098  0.6322 -0.1869
  797MOL0     C 5083   3.637   9.258   6.071 -1.0864  1.2024 -0.1228
  797MOL0     C 5084   3.522   9.334   6.123 -0.0042  0.3812  0.3887
  797MOL0     C 5085   3.420   9.236   6.191 -0.3481 -0.2003 -1.2469
  797MOL0     C 5086   3.322   9.311   6.275  0.9159  0.1136  0.5023
  797MOL0     C 5087   3.202   9.236   6.314 -0.0731 -0.3397  0.1356
  797MOL0     C 5088   3.107   9.328   6.387 -0.2605 -0.1357 -0.4115
  797MOL0     N 5089   2.977   9.259   6.408 -0.0733 -0.0927 -0.5133
  797MOL0     C 5090   2.913   9.155   6.335  0.7851 -0.6124 -0.6186
  797MOL0     C 5091   2.795   9.137   6.399  0.2156  0.0655 -0.1257
  797MOL0     C 5092   2.678   9.039   6.369  0.4712  0.0833 -0.2446
  797MOL0     C 5093   2.692   8.913   6.462 -0.4189 -0.8837  0.0761
  797MOL0     C 5094   2.565   8.825   6.448 -0.6156  0.0441 -0.5838
  797MOL0     C 5095   2.572   8.703   6.544  0.7959 -0.4463  1.2319
  797MOL0     O 5096   2.441   8.635   6.543 -0.1559  0.7353  0.1791
  797MOL0     C 5097   2.334   8.688   6.618  0.4753 -0.3362  0.5771
  797MOL0     C 5098   2.346   8.799   6.705  0.1159  1.2806  1.3156
  797MOL0     C 5099   2.234   8.841   6.780 -0.1470  0.8707  0.4668
  797MOL0     C 5100   2.108   8.780   6.760  0.3355 -0.3436  0.5223
  797MOL0     C 5101   1.996   8.821   6.846  0.0913  0.3477  0.2792
  797MOL0     O 5102   1.895   8.731   6.843 -0.3405  0.5270 -0.0859
  797MOL0     C 5103   1.772   8.779   6.890 -0.0335  0.3474  0.2508
  797MOL0     C 5104   1.718   8.749   7.019  0.1573 -0.0195 -0.0987
  797MOL0     C 5105   1.588   8.783   7.054 -0.6270 -0.1588  0.6417
  797MOL0     C 5106   1.507   8.857   6.978  0.4063 -0.0512 -0.1818
  797MOL0     O 5107   1.384   8.895   7.031 -0.2626  0.8662  0.5243
  797MOL0     C 5108   1.286   8.942   6.940  0.4141  0.0713  0.5706
  797MOL0     C 5109   1.167   8.986   7.036 -0.3065  0.0729  1.2980
  797MOL0     C 5110   1.050   9.033   6.951  0.9876 -0.1633 -0.6701
  797MOL0     C 5111   0.938   9.061   7.059 -0.0292  0.8647  0.3377
  797MOL0     C 5112   0.800   9.107   7.008 -0.4316 -0.1595  0.5847
  797MOL0     C 5113   0.700   9.144   7.128 -0.1822  0.4054  0.4386
  797MOL0     C 5114   0.561   9.178   7.063  0.6888  0.4819  1.2281
  797MOL0     C 5115   0.436   9.174   7.148  0.5212  0.3724 -0.9519
  797MOL0    Cl 5116   0.292   9.231   7.051  0.0164  0.2433 -0.1103
  797MOL0     C 5117   1.570   8.901   6.857 -0.1843  0.3089 -0.6419
  797MOL0     C 5118   1.695   8.860   6.807  0.1515 -0.3766 -0.3548
  797MOL0     O 5119   1.992   8.929   6.903 -0.6326 -0.1354  0.0827
  797MOL0     C 5120   2.100   8.683   6.658 -0.7801 -0.0858  0.3580
  797MOL0     C 5121   2.211   8.632   6.596 -0.0952  0.0416 -0.6372
  797MOL0     N 5122   2.801   9.208   6.516 -0.2837  0.1101 -0.2079
  797MOL0     N 5123   2.907   9.284   6.520 -0.0365 -0.3724  0.3053
  797MOL0     C 5124   4.105   9.215   5.862  1.1604 -0.2267 -0.4287
  797MOL0     C 5125   4.227   9.175   5.795  0.1953 -0.5998 -0.2665
  797MOL0     C 5126   4.647   9.300   5.589  0.0252  0.3239 -0.0694
  797MOL0     C 5127   4.612   9.215   5.481 -0.2422  0.4774  0.7020
  797MOL0     C 5128   4.697   9.216   5.369  0.3088 -0.9099  0.4225
  797MOL0     C 5129   4.809   9.304   5.352 -0.5640  0.2410  0.0843
  797MOL0     O 5130   4.870   9.301   5.227 -0.3317  0.3973  0.0835
  797MOL0     C 5131   4.935   9.412   5.169 -0.3977 -0.8224  0.2833
  797MOL0     C 5132   4.836   9.507   5.109  0.8261  0.0576 -0.1552
  797MOL0     C 5133   4.759   9.456   4.986  1.2569 -0.1509  0.6514
  797MOL0     C 5134   4.736   9.548   4.855  0.1417  0.2081  0.0259
  797MOL0     C 5135   4.630   9.638   4.886  0.0794  0.9322 -0.4412
  797MOL0     C 5136   4.549   9.724   4.918  0.1779  1.1695 -0.1618
  797MOL0     C 5137   4.848   9.387   5.464 -0.1569  0.3641 -0.3487
  797MOL0     C 5138   4.760   9.379   5.570 -0.5331  0.7280 -0.6728
  797MOL0     H 5139   4.372   9.493   5.788  0.7192  1.3096  0.9872
  797MOL0     H 5140   4.182   9.549   5.905 -0.0469 -0.1945  0.3754
  797MOL0     H 5141   3.874   9.215   6.043 -0.1307 -0.0023  0.6600
  797MOL0     H 5142   3.843   9.253   5.875 -0.9424  2.6807 -0.4127
  797MOL0     H 5143   3.676   9.397   5.915 -0.7053 -0.4462 -0.1432
  797MOL0     H 5144   3.739   9.448   6.075 -0.2090 -0.6359  1.4807
  797MOL0     H 5145   3.693   9.195   6.141 -2.2680  0.2846  0.0260
  797MOL0     H 5146   3.610   9.190   5.990  0.6519  0.4874 -0.1534
  797MOL0     H 5147   3.550   9.404   6.202 -0.1758  0.7142  0.1518
  797MOL0     H 5148   3.475   9.386   6.039  1.7668 -2.1673 -2.4122
  797MOL0     H 5149   3.472   9.162   6.252  0.4080 -0.2657 -1.9492
  797MOL0     H 5150   3.376   9.184   6.105 -1.0444 -0.9954 -0.4253
  797MOL0     H 5151   3.287   9.398   6.219 -0.8595  0.2579  1.7392
  797MOL0     H 5152   3.376   9.344   6.364 -1.9960  5.4226  0.7224
  797MOL0     H 5153   3.151   9.196   6.226  0.3074 -1.2134  0.2934
  797MOL0     H 5154   3.242   9.155   6.377  0.8793  1.8306  2.4973
  797MOL0     H 5155   3.094   9.426   6.340  2.7401  1.7473  2.2234
  797MOL0     H 5156   3.154   9.351   6.484  0.5712  3.1083 -1.4359
  797MOL0     H 5157   2.935   9.109   6.240  0.8436 -0.7710 -0.5290
  797MOL0     H 5158   2.677   9.017   6.262  2.3161 -1.2728 -0.0364
  797MOL0     H 5159   2.591   9.105   6.377  3.2402  4.7649 -3.5119
  797MOL0     H 5160   2.705   8.953   6.563 -2.9028 -0.2472  0.2146
  797MOL0     H 5161   2.778   8.848   6.441  0.1505 -0.9697  2.4127
  797MOL0     H 5162   2.471   8.879   6.459 -1.9111 -1.5826 -2.7633
  797MOL0     H 5163   2.558   8.777   6.349  2.1204 -0.6473 -0.5364
  797MOL0     H 5164   2.599   8.728   6.647  1.0169  2.2721  0.5770
  797MOL0     H 5165   2.645   8.630   6.506  0.2368 -0.1563 -0.4721
  797MOL0     H 5166   2.435   8.860   6.719  1.1455  0.4037 -0.9945
  797MOL0     H 5167   2.243   8.920   6.855 -0.8047  2.0082 -0.6040
  797MOL0     H 5168   1.783   8.702   7.092  0.7067 -0.1062 -0.6288
  797MOL0     H 5169   1.564   8.743   7.152  2.0471 -2.1929  0.5902
  797MOL0     H 5170   1.260   8.863   6.869 -1.2830  1.1131 -0.0257
  797MOL0     H 5171   1.332   9.024   6.883  0.1858 -0.2241 -0.0507
  797MOL0     H 5172   1.202   9.073   7.092  1.2213  1.0706 -1.0019
  797MOL0     H 5173   1.140   8.914   7.113  3.3887 -2.4593  0.5236
  797MOL0     H 5174   1.009   8.961   6.880 -2.7238 -1.2336  2.2059
  797MOL0     H 5175   1.069   9.132   6.907  1.5111 -0.0963 -0.3073
  797MOL0     H 5176   0.923   8.971   7.120  6.0893 -0.9218 -0.1845
  797MOL0     H 5177   0.976   9.137   7.128 -0.0247  0.8805  0.3182
  797MOL0     H 5178   0.763   9.027   6.943  3.9768 -3.0826  1.2196
  797MOL0     H 5179   0.819   9.199   6.953  2.0022 -0.1468  1.3149
  797MOL0     H 5180   0.751   9.220   7.187 -0.7885  0.1237  1.3406
  797MOL0     H 5181   0.694   9.056   7.192 -0.1320  1.1525  1.5021
  797MOL0     H 5182   0.571   9.276   7.015  0.3321 -0.5232 -1.0285
  797MOL0     H 5183   0.546   9.104   6.984 -1.2133  0.2418  1.7725
  797MOL0     H 5184   0.439   9.230   7.241 -1.2830  1.2879 -1.3935
  797MOL0     H 5185   0.421   9.067   7.170  1.6718  0.3389 -0.2698
  797MOL0     H 5186   1.524   8.970   6.786  0.8846 -1.0188 -2.7093
  797MOL0     H 5187   1.730   8.885   6.708 -2.0037  0.5796 -0.9422
  797MOL0     H 5188   2.014   8.620   6.639  0.0441 -0.1593 -3.9350
  797MOL0     H 5189   2.214   8.544   6.532 -0.2237  1.2096 -2.3068
  797MOL0     H 5190   4.038   9.136   5.893 -1.3736  1.2394 -1.8568
  797MOL0     H 5191   4.255   9.074   5.766  3.9110 -0.4646  2.2338
  797MOL0     H 5192   4.522   9.155   5.496 -0.3600  1.0695  2.5824
  797MOL0     H 5193   4.678   9.139   5.295 -1.7183 -1.4049  1.3747
  797MOL0     H 5194   4.998   9.369   5.090 -2.7031 -2.2403 -0.9084
  797MOL0     H 5195   5.000   9.466   5.239 -0.4517 -1.0096  0.4788
  797MOL0     H 5196   4.769   9.537   5.190  0.0653  2.6549 -1.6350
  797MOL0     H 5197   4.905   9.590   5.091  0.9290 -0.1748 -0.8601
  797MOL0     H 5198   4.659   9.426   5.018  2.6759 -0.8791  5.0707
  797MOL0     H 5199   4.805   9.367   4.941  1.1468  0.5513 -0.9153
  797MOL0     H 5200   4.830   9.594   4.822  0.7376 -0.3972  0.8432
  797MOL0     H 5201   4.698   9.486   4.773 -2.2477  1.1240  0.3579
  797MOL0     H 5202   4.475   9.788   4.960 -0.6417 -0.3957  0.8733
  797MOL0     H 5203   4.923   9.466   5.456 -0.8842  1.0807 -0.2400
  797MOL0     H 5204   4.795   9.443   5.649 -1.4717  0.2898  0.1176
  798MOL0     O 5205   7.147   9.946   8.636  0.2592 -0.1501  0.3504
  798MOL0     C 5206   7.159   9.835   8.588  0.4484 -0.0384 -0.4235
  798MOL0     O 5207   7.061   9.770   8.526 -0.0687 -1.3806 -0.2878
  798MOL0     C 5208   6.938   9.825   8.537 -0.1631 -0.2038 -0.2399
  798MOL0     C 5209   6.846   9.735   8.594 -0.5712  0.1193  0.1362
  798MOL0     C 5210   6.711   9.780   8.618  0.1216  0.5435 -0.2363
  798MOL0     C 5211   6.672   9.905   8.593 -0.3125 -1.1430 -0.3971
  798MOL0     O 5212   6.540   9.935   8.622 -0.6107 -0.3127 -0.3626
  798MOL0     C 5213   6.503  10.070   8.597  0.2453 -0.4779  0.1776
  798MOL0     C 5214   6.360  10.104   8.643 -1.0303 -0.6439 -0.7632
  798MOL0     C 5215   6.264  10.011   8.571 -0.0663  0.3507  0.1942
  798MOL0     C 5216   6.124  10.048   8.616  0.1165 -0.1015  0.4373
  798MOL0     C 5217   6.027   9.937   8.565 -0.1073 -1.0227  0.1059
  798MOL0     C 5218   5.876   9.973   8.571  0.0229  0.3000 -0.1510
  798MOL0     C 5219   5.836   9.936   8.713 -0.2078 -0.2016  0.2699
  798MOL0     C 5220   5.686   9.919   8.723  0.4533 -0.4094 -0.3765
  798MOL0     N 5221   5.636   9.796   8.673  0.5662  0.1127 -0.0134
  798MOL0     C 5222   5.614   9.675   8.743 -0.0001 -0.2230 -0.2518
  798MOL0     C 5223   5.547   9.596   8.648  0.7188  0.0741 -0.5007
  798MOL0     C 5224   5.500   9.461   8.674  0.2768  0.7272 -0.8101
  798MOL0     C 5225   5.341   9.446   8.677 -0.2170 -0.5190 -0.4065
  798MOL0     C 5226   5.283   9.519   8.794  0.7091  0.7409 -0.2889
  798MOL0     C 5227   5.127   9.513   8.781  0.0954  0.4612 -0.2250
  798MOL0     O 5228   5.087   9.377   8.798 -0.3993  0.4926  0.1065
  798MOL0     C 5229   4.950   9.346   8.826 -0.5830 -0.4220 -0.6226
  798MOL0     C 5230   4.913   9.237   8.915  0.3272 -0.2048 -0.4326
  798MOL0     C 5231   4.775   9.223   8.937  0.1982  0.1483 -0.9996
  798MOL0     C 5232   4.675   9.311   8.888  0.7257  0.2160  0.2876
  798MOL0     C 5233   4.528   9.282   8.904 -0.0033 -0.8798  0.0322
  798MOL0     O 5234   4.506   9.202   9.009  0.6680  0.1228 -0.1078
  798MOL0     C 5235   4.392   9.125   9.013 -0.0313  0.5522  0.1369
  798MOL0     C 5236   4.322   9.128   9.132  0.2581  0.2655 -0.6150
  798MOL0     C 5237   4.202   9.064   9.148  0.7486  0.7410  0.2710
  798MOL0     C 5238   4.135   9.015   9.030 -0.5307 -0.1722 -0.4536
  798MOL0     O 5239   4.003   8.987   9.044 -0.4654 -0.1366  0.0288
  798MOL0     C 5240   3.944   8.917   8.934 -0.2008  0.6821 -0.4952
  798MOL0     C 5241   3.793   8.892   8.964 -0.8949  0.9856  0.3629
  798MOL0     C 5242   3.779   8.772   9.058 -0.2541  0.6844  0.3168
  798MOL0     C 5243   3.672   8.784   9.163 -0.0778 -0.0037  0.4939
  798MOL0     C 5244   3.541   8.830   9.103 -0.1657  0.1572  0.0502
  798MOL0     C 5245   3.433   8.860   9.208  1.1071  0.8311  1.1099
  798MOL0     C 5246   3.302   8.914   9.155  0.9883  0.4065  0.5155
  798MOL0     C 5247   3.200   8.923   9.269  0.9087  0.0671  0.3050
  798MOL0    Cl 5248   3.117   8.776   9.305  1.0747  0.3871 -0.1292
  798MOL0     C 5249   4.202   9.009   8.902 -0.2853  0.2477  0.0587
  798MOL0     C 5250   4.334   9.059   8.902  0.2206  0.6347 -0.2047
  798MOL0     O 5251   4.447   9.318   8.814 -0.5409 -0.0839 -0.3407
  798MOL0     C 5252   4.718   9.416   8.804  0.0172  0.4824 -0.0738
  798MOL0     C 5253   4.852   9.431   8.778  0.2507 -0.0027  0.2906
  798MOL0     N 5254   5.527   9.666   8.534 -0.4129 -0.8202  0.9939
  798MOL0     N 5255   5.580   9.781   8.544 -0.0751 -0.5004  0.2442
  798MOL0     C 5256   6.763   9.994   8.530 -0.0379 -1.1277  0.4939
  798MOL0     C 5257   6.891   9.958   8.507 -0.1276 -0.1845 -0.0965
  798MOL0     C 5258   7.292   9.774   8.600  0.3449  0.7954 -0.6202
  798MOL0     C 5259   7.330   9.657   8.535 -0.6047 -0.8639  0.2734
  798MOL0     C 5260   7.455   9.598   8.567  0.0950  0.4409 -0.0147
  798MOL0     C 5261   7.551   9.659   8.641  0.1860  0.8406 -0.0483
  798MOL0     O 5262   7.666   9.593   8.652  0.0418 -0.0331  0.0856
  798MOL0     C 5263   7.773   9.655   8.724 -0.0322 -0.5610  0.2133
  798MOL0     C 5264   7.856   9.745   8.627 -0.3674 -0.4525  0.4467
  798MOL0     C 5265   8.005   9.774   8.658  0.1661 -0.3401  0.3699
  798MOL0     C 5266   8.105   9.665   8.615  0.0492 -0.0958 -0.0535
  798MOL0     C 5267   8.106   9.654   8.465 -0.8119  0.6951  0.3097
  798MOL0     C 5268   8.093   9.623   8.345 -0.9649 -0.0365 -0.0512
  798MOL0     C 5269   7.524   9.789   8.689  0.4295 -0.0028 -0.9160
  798MOL0     C 5270   7.392   9.843   8.673 -0.1603 -0.4454  0.6488
  798MOL0     H 5271   6.872   9.631   8.615  0.3217 -0.2072 -2.2879
  798MOL0     H 5272   6.633   9.721   8.665  0.5449  0.2191  0.0666
  798MOL0     H 5273   6.505  10.089   8.489  1.6643 -1.8895 -0.0722
  798MOL0     H 5274   6.578  10.142   8.631  1.4084 -1.8183  0.5488
  798MOL0     H 5275   6.338  10.205   8.608  0.4095 -0.1572 -0.3443
  798MOL0     H 5276   6.352  10.088   8.751 -3.1187 -0.0876 -0.7878
  798MOL0     H 5277   6.282   9.906   8.598 -2.8910 -0.5408 -0.9700
  798MOL0     H 5278   6.262  10.020   8.462  2.9918 -0.6899 -0.0285
  798MOL0     H 5279   6.111  10.064   8.724 -0.6600  1.7732  0.1195
  798MOL0     H 5280   6.096  10.147   8.579  2.1714  0.2765 -0.2001
  798MOL0     H 5281   6.052   9.841   8.611  0.5444 -0.6042  0.6601
  798MOL0     H 5282   6.041   9.927   8.457  1.4434  2.1557 -0.1184
  798MOL0     H 5283   5.810   9.916   8.505 -2.0588 -0.2370  2.2236
  798MOL0     H 5284   5.853  10.076   8.543 -0.0283 -0.5848 -3.8693
  798MOL0     H 5285   5.879   9.843   8.751  0.6319 -0.3735 -1.0449
  798MOL0     H 5286   5.875  10.017   8.777 -0.7184  0.6693 -0.5000
  798MOL0     H 5287   5.640  10.002   8.669 -0.7192 -2.8856 -3.5593
  798MOL0     H 5288   5.657   9.933   8.827 -0.0347 -3.5673  0.0079
  798MOL0     H 5289   5.631   9.642   8.845  1.0302 -2.1826 -1.0198
  798MOL0     H 5290   5.547   9.433   8.769 -2.3254 -1.6963 -0.1009
  798MOL0     H 5291   5.547   9.394   8.602 -2.2821 -0.3228 -1.6324
  798MOL0     H 5292   5.323   9.338   8.684 -1.4927 -0.3985 -1.4941
  798MOL0     H 5293   5.295   9.487   8.587  1.9301  1.4123 -0.7057
  798MOL0     H 5294   5.312   9.473   8.889  0.3759  0.8159 -0.1480
  798MOL0     H 5295   5.309   9.625   8.796 -3.1717  1.8529 -0.3014
  798MOL0     H 5296   5.096   9.541   8.680 -1.6103 -0.8283 -0.1126
  798MOL0     H 5297   5.077   9.581   8.850 -2.5624 -0.0114 -1.5388
  798MOL0     H 5298   4.980   9.160   8.952  0.5106  0.3947  0.5229
  798MOL0     H 5299   4.744   9.138   8.996  0.0115  0.9928  0.1670
  798MOL0     H 5300   4.365   9.179   9.217  1.0471 -1.5453  0.1353
  798MOL0     H 5301   4.148   9.069   9.242  1.0945 -0.1543  0.5332
  798MOL0     H 5302   3.995   8.822   8.914  0.0366  0.9735 -1.3562
  798MOL0     H 5303   3.947   8.961   8.833  3.1600  1.2350 -0.2629
  798MOL0     H 5304   3.745   8.876   8.867  0.8160  0.5867 -0.4565
  798MOL0     H 5305   3.762   8.982   9.018  1.7889  1.6577  0.9348
  798MOL0     H 5306   3.872   8.768   9.116  0.3638  1.0205 -0.6303
  798MOL0     H 5307   3.762   8.677   9.006 -2.4994  0.8151  0.7074
  798MOL0     H 5308   3.659   8.681   9.198 -1.6255 -0.6327 -1.7193
  798MOL0     H 5309   3.704   8.842   9.250 -0.0192 -0.5042  0.8058
  798MOL0     H 5310   3.507   8.756   9.030  2.3633  1.6019 -2.8228
  798MOL0     H 5311   3.563   8.926   9.056 -1.7360  0.5334 -0.0001
  798MOL0     H 5312   3.477   8.931   9.279  1.7462 -0.1710  1.7257
  798MOL0     H 5313   3.410   8.770   9.266 -0.6268  2.3700  2.9737
  798MOL0     H 5314   3.323   9.015   9.120 -1.0179  0.4459 -0.7424
  798MOL0     H 5315   3.261   8.880   9.059 -1.7388  4.9210 -0.2185
  798MOL0     H 5316   3.116   8.983   9.233 -0.1134 -2.1138 -1.2061
  798MOL0     H 5317   3.247   8.967   9.358  0.5783  0.2094  0.4088
  798MOL0     H 5318   4.168   8.970   8.806  2.9411  0.2764 -1.2377
  798MOL0     H 5319   4.392   9.066   8.811  1.0460  4.1749  0.4645
  798MOL0     H 5320   4.642   9.484   8.767  0.4566  1.1656  0.2459
  798MOL0     H 5321   4.887   9.513   8.717  1.3828 -0.5319  0.1942
  798MOL0     H 5322   6.726  10.093   8.507 -0.0211 -1.6315 -1.9421
  798MOL0     H 5323   6.962  10.036   8.481 -0.9124  1.9985  3.5218
  798MOL0     H 5324   7.267   9.599   8.469 -1.1896  0.5203 -0.4203
  798MOL0     H 5325   7.477   9.499   8.528  0.6914  1.1032 -1.4053
  798MOL0     H 5326   7.851   9.582   8.749  0.3476 -0.5418 -0.8626
  798MOL0     H 5327   7.739   9.710   8.812 -0.4999  3.5587 -2.2625
  798MOL0     H 5328   7.852   9.693   8.531  0.3284  0.2838  0.0082
  798MOL0     H 5329   7.804   9.840   8.613  1.8526  0.8377  0.4966
  798MOL0     H 5330   8.019   9.797   8.764 -1.1775 -2.0352  0.9669
  798MOL0     H 5331   8.022   9.867   8.602 -1.5308 -1.3810 -2.0380
  798MOL0     H 5332   8.199   9.707   8.652  0.6896 -0.1274 -1.5911
  798MOL0     H 5333   8.084   9.572   8.667  3.8036  0.7352  3.4224
  798MOL0     H 5334   8.103   9.572   8.251  1.3733 -1.4230  0.8763
  798MOL0     H 5335   7.587   9.852   8.750 -2.9305 -1.1746  4.4937
  798MOL0     H 5336   7.377   9.943   8.714  0.8809 -0.2440  0.5466
  799MOL0     O 5337   0.183   4.514   3.297  0.2965 -0.6595  0.6282
  799MOL0     C 5338   0.237   4.426   3.235  0.2957  0.7871  0.4919
  799MOL0     O 5339   0.191   4.304   3.205  0.3216 -0.2618  0.0802
  799MOL0     C 5340   0.070   4.278   3.260  0.1031  0.7656 -0.4956
  799MOL0     C 5341  -0.048   4.283   3.192 -0.4962  0.1720  0.2005
  799MOL0     C 5342  -0.168   4.253   3.253 -0.5236  0.2370 -0.5222
  799MOL0     C 5343  -0.168   4.218   3.387 -0.6392 -0.1866 -1.2084
  799MOL0     O 5344  -0.292   4.189   3.443 -0.0605  0.0889  0.4192
  799MOL0     C 5345  -0.284   4.153   3.589  0.2099 -0.3467  0.3776
  799MOL0     C 5346  -0.430   4.130   3.634 -0.7179  0.0688 -0.0031
  799MOL0     C 5347  -0.513   4.259   3.614  0.2237  0.5799 -0.8132
  799MOL0     C 5348  -0.649   4.233   3.679  0.6722 -0.5904  0.4442
  799MOL0     C 5349  -0.739   4.120   3.615  0.2255  0.3741 -0.4331
  799MOL0     C 5350  -0.836   4.078   3.730  0.2689  0.8707 -0.3604
  799MOL0     C 5351  -0.933   3.969   3.684  0.1340  0.9085 -0.0182
  799MOL0     C 5352  -0.847   3.836   3.659 -0.3066  0.1886  0.1306
  799MOL0     N 5353  -0.917   3.708   3.670  0.2680  0.2350  0.4129
  799MOL0     C 5354  -0.967   3.658   3.786  0.6498  0.0181  0.0047
  799MOL0     C 5355  -1.023   3.539   3.752  0.1842 -0.0110  0.5717
  799MOL0     C 5356  -1.106   3.435   3.833  0.0610 -0.3872 -0.7756
  799MOL0     C 5357  -1.255   3.490   3.847 -0.7838  1.2091 -0.5752
  799MOL0     C 5358  -1.343   3.429   3.737  0.2671 -0.3209  0.0163
  799MOL0     C 5359  -1.484   3.476   3.748 -0.3905  0.1520  0.4553
  799MOL0     O 5360  -1.540   3.412   3.868  0.4292  0.1197  0.4563
  799MOL0     C 5361  -1.641   3.460   3.947 -0.4451 -0.5080 -0.4711
  799MOL0     C 5362  -1.716   3.578   3.912  0.4752  0.4057 -0.2428
  799MOL0     C 5363  -1.827   3.612   3.993 -0.0620 -1.3322 -0.4745
  799MOL0     C 5364  -1.865   3.535   4.106  0.1285  0.0305 -0.6244
  799MOL0     C 5365  -1.983   3.572   4.188  0.7036  0.1246 -0.1356
  799MOL0     O 5366  -2.023   3.705   4.178  0.1739  0.1706 -0.2744
  799MOL0     C 5367  -2.115   3.755   4.271  0.3650  0.4273  0.6514
  799MOL0     C 5368  -2.089   3.784   4.402 -0.2499 -0.3797 -0.3447
  799MOL0     C 5369  -2.183   3.829   4.490  0.0598 -0.4090 -0.4847
  799MOL0     C 5370  -2.315   3.853   4.451  0.4754 -0.3827  0.0203
  799MOL0     O 5371  -2.411   3.909   4.536  0.3490 -0.0587  0.0883
  799MOL0     C 5372  -2.364   3.959   4.668 -0.3323  0.2460  0.1366
  799MOL0     C 5373  -2.475   3.989   4.768  0.4296  0.4435 -0.1098
  799MOL0     C 5374  -2.559   4.114   4.724  0.2665  0.7923 -0.6136
  799MOL0     C 5375  -2.648   4.141   4.851  0.6058  0.0762  0.0877
  799MOL0     C 5376  -2.763   4.041   4.851 -0.2923 -0.0828 -0.4457
  799MOL0     C 5377  -2.868   4.084   4.961  0.0448  0.8278  0.5012
  799MOL0     C 5378  -3.003   4.009   4.925  0.3446 -0.3148 -0.1522
  799MOL0     C 5379  -3.133   4.072   4.985  0.1071 -0.7675  0.7370
  799MOL0    Cl 5380  -3.102   4.092   5.165 -0.1123  0.1574 -1.1542
  799MOL0     C 5381  -2.353   3.821   4.317 -0.2105  0.0871 -0.2474
  799MOL0     C 5382  -2.244   3.782   4.230 -0.1456 -0.2414  0.3317
  799MOL0     O 5383  -2.035   3.489   4.252  0.3084 -0.1521  0.0664
  799MOL0     C 5384  -1.787   3.425   4.141 -0.7396  0.9510 -0.7299
  799MOL0     C 5385  -1.678   3.386   4.063 -0.3728 -0.6694  0.1421
  799MOL0     N 5386  -0.995   3.518   3.617 -0.1727  0.4562 -0.0392
  799MOL0     N 5387  -0.933   3.624   3.567  0.6187  0.4988 -0.1274
  799MOL0     C 5388  -0.048   4.206   3.455  0.7374 -0.3311  0.4972
  799MOL0     C 5389   0.072   4.236   3.388 -0.6119  0.4354 -0.0249
  799MOL0     C 5390   0.370   4.448   3.177  0.0137  0.9067  0.2739
  799MOL0     C 5391   0.434   4.574   3.189  0.1123  0.3045 -0.0361
  799MOL0     C 5392   0.558   4.586   3.127  0.1512  0.4025  0.0146
  799MOL0     C 5393   0.623   4.476   3.078 -0.7540 -0.0936  0.0180
  799MOL0     O 5394   0.752   4.493   3.030  0.3981 -0.1056 -0.3136
  799MOL0     C 5395   0.847   4.387   3.048  0.3280  0.5890  0.0548
  799MOL0     C 5396   0.985   4.453   3.006  0.1006 -0.1882 -0.1439
  799MOL0     C 5397   1.043   4.542   3.119  0.0206  0.1120  0.6515
  799MOL0     C 5398   1.191   4.586   3.084 -0.0102  0.6208 -0.1506
  799MOL0     C 5399   1.266   4.660   3.196  0.4521  0.2249 -0.0896
  799MOL0     C 5400   1.309   4.732   3.282 -0.1444  0.2478 -0.1499
  799MOL0     C 5401   0.562   4.354   3.066 -0.1859  0.4656 -0.0532
  799MOL0     C 5402   0.435   4.340   3.111 -0.0564  0.5616  0.0208
  799MOL0     H 5403  -0.040   4.303   3.085  1.5834 -3.9432 -0.5985
  799MOL0     H 5404  -0.256   4.246   3.190 -0.4422  1.7691 -0.8417
  799MOL0     H 5405  -0.242   4.236   3.647  0.6570 -1.0870  1.1474
  799MOL0     H 5406  -0.225   4.064   3.612 -1.2562 -0.8073  2.6928
  799MOL0     H 5407  -0.439   4.108   3.740  2.1228  3.9031  1.2845
  799MOL0     H 5408  -0.471   4.045   3.579  0.0279 -1.0305  1.1139
  799MOL0     H 5409  -0.514   4.271   3.505  1.1940 -2.6193 -1.2815
  799MOL0     H 5410  -0.469   4.351   3.655 -3.7570  1.6882  1.5989
  799MOL0     H 5411  -0.647   4.214   3.786 -1.7317 -3.2889  0.1322
  799MOL0     H 5412  -0.707   4.325   3.665 -0.5037 -1.4903 -0.8838
  799MOL0     H 5413  -0.677   4.037   3.580 -0.6869 -0.7136  0.4896
  799MOL0     H 5414  -0.795   4.155   3.527 -1.1717 -1.0913 -0.1603
  799MOL0     H 5415  -0.880   4.170   3.769  2.4085  1.1287  1.6961
  799MOL0     H 5416  -0.778   4.036   3.813 -0.5409 -3.4597 -1.7281
  799MOL0     H 5417  -1.002   3.949   3.767  0.9193  0.5683  0.5616
  799MOL0     H 5418  -0.995   4.007   3.602 -1.1312  1.2733  1.0608
  799MOL0     H 5419  -0.762   3.821   3.726  0.0372 -0.3174 -0.4056
  799MOL0     H 5420  -0.803   3.845   3.559  1.8988 -1.9538  0.8077
  799MOL0     H 5421  -0.964   3.705   3.883 -1.0193 -1.5454  0.8745
  799MOL0     H 5422  -1.058   3.419   3.931  3.6602  0.9708 -2.1342
  799MOL0     H 5423  -1.108   3.334   3.793  2.8302 -0.7440 -0.2209
  799MOL0     H 5424  -1.254   3.600   3.845 -0.0277  1.2855  1.7119
  799MOL0     H 5425  -1.299   3.474   3.946 -4.3476  1.5774 -1.9489
  799MOL0     H 5426  -1.298   3.467   3.645  2.8748 -2.2445  0.3840
  799MOL0     H 5427  -1.344   3.321   3.720  1.8344 -0.0089 -2.5558
  799MOL0     H 5428  -1.525   3.450   3.649 -0.6179  0.9333  0.3356
  799MOL0     H 5429  -1.489   3.585   3.753  1.7078  0.2631  0.6790
  799MOL0     H 5430  -1.690   3.637   3.825  5.5096 -1.3755 -0.2818
  799MOL0     H 5431  -1.881   3.701   3.963  0.5042 -0.6181  0.5954
  799MOL0     H 5432  -1.988   3.766   4.439 -0.3034 -0.2743 -0.1464
  799MOL0     H 5433  -2.131   3.852   4.582 -2.3522 -0.3053  0.9285
  799MOL0     H 5434  -2.297   4.044   4.652  0.4496 -0.7131 -2.1667
  799MOL0     H 5435  -2.315   3.875   4.718  0.1626  0.9548  0.8637
  799MOL0     H 5436  -2.434   4.006   4.868 -1.5932  0.2203  0.8020
  799MOL0     H 5437  -2.540   3.902   4.780  1.3193 -0.4824 -1.7661
  799MOL0     H 5438  -2.614   4.094   4.632  0.7753 -0.3290 -0.6911
  799MOL0     H 5439  -2.495   4.200   4.702  1.1891  0.7264  1.5392
  799MOL0     H 5440  -2.589   4.136   4.943  0.9079 -4.0071 -0.1464
  799MOL0     H 5441  -2.694   4.239   4.834  1.3721  0.6372  1.1240
  799MOL0     H 5442  -2.717   3.946   4.882  2.2840  0.5121 -2.1166
  799MOL0     H 5443  -2.814   4.038   4.754  0.3850  1.0307 -0.8593
  799MOL0     H 5444  -2.886   4.191   4.957  0.2173  0.9123  1.7488
  799MOL0     H 5445  -2.825   4.059   5.058  1.7429  1.5081 -0.0342
  799MOL0     H 5446  -3.018   4.006   4.817 -2.9357 -1.6766  0.2122
  799MOL0     H 5447  -2.996   3.905   4.960  0.2327 -0.6467 -1.0938
  799MOL0     H 5448  -3.219   4.004   4.974  0.2158 -0.7464 -0.2797
  799MOL0     H 5449  -3.146   4.174   4.949  2.7654 -0.4425  0.5273
  799MOL0     H 5450  -2.453   3.842   4.279 -0.1161  0.3860 -0.3360
  799MOL0     H 5451  -2.271   3.756   4.128 -2.8280 -2.9215  1.5842
  799MOL0     H 5452  -1.808   3.358   4.224  0.5020 -0.5826 -1.5762
  799MOL0     H 5453  -1.630   3.291   4.082  1.0588  0.3051  1.7229
  799MOL0     H 5454  -0.038   4.161   3.553 -0.7086 -0.5656  0.5597
  799MOL0     H 5455   0.170   4.224   3.432  0.3915  0.6447 -2.0905
  799MOL0     H 5456   0.385   4.651   3.248 -1.9242 -0.9812  0.0212
  799MOL0     H 5457   0.605   4.683   3.133  0.9471 -0.0403  1.6746
  799MOL0     H 5458   0.822   4.300   2.986 -2.0790  1.0353  0.3110
  799MOL0     H 5459   0.855   4.356   3.152  0.8216  0.1218 -0.1188
  799MOL0     H 5460   1.048   4.365   2.993  0.1257 -0.0907 -0.7309
  799MOL0     H 5461   0.983   4.510   2.913 -4.7042 -1.7440 -1.2864
  799MOL0     H 5462   1.035   4.485   3.212 -0.3560  0.7258  0.9943
  799MOL0     H 5463   0.984   4.633   3.127  2.9658  2.1194  1.1191
  799MOL0     H 5464   1.247   4.496   3.055 -3.0061 -2.0073  1.5351
  799MOL0     H 5465   1.182   4.648   2.994  0.3313  0.2564 -0.4396
  799MOL0     H 5466   1.335   4.812   3.348 -0.3905 -0.1476  0.4335
  799MOL0     H 5467   0.602   4.271   3.009 -0.7068  0.4918 -0.4590
  799MOL0     H 5468   0.381   4.250   3.082 -1.5186  1.5731 -0.5091
  800MOL0     O 5469  10.800   9.719   4.136  0.3701 -0.8319 -0.9817
  800MOL0     C 5470  10.802   9.619   4.209 -0.4604 -0.6599 -0.2196
  800MOL0     O 5471  10.706   9.527   4.214  0.0062 -0.1457  0.2615
  800MOL0     C 5472  10.587   9.539   4.145 -1.1453 -0.6372 -0.1143
  800MOL0     C 5473  10.555   9.439   4.056 -0.0050 -0.4800  0.3694
  800MOL0     C 5474  10.441   9.441   3.972 -0.3528 -0.1917  0.5161
  800MOL0     C 5475  10.343   9.544   3.992 -0.9288 -0.0279  0.0335
  800MOL0     O 5476  10.222   9.561   3.931  0.4908  0.1567  0.4646
  800MOL0     C 5477  10.217   9.481   3.816  0.4976  0.0491 -0.9481
  800MOL0     C 5478  10.083   9.498   3.734 -1.6082 -0.0210  0.0166
  800MOL0     C 5479   9.962   9.418   3.790 -0.0157 -1.1362  0.5337
  800MOL0     C 5480   9.844   9.450   3.686  0.2609  0.5647  0.2716
  800MOL0     C 5481   9.860   9.383   3.546 -0.0732  0.4940 -0.0930
  800MOL0     C 5482   9.732   9.393   3.460 -0.0472  0.5491 -0.2718
  800MOL0     C 5483   9.749   9.330   3.320 -0.1072  0.2012  0.2159
  800MOL0     C 5484   9.819   9.435   3.224  0.7198  0.1011 -0.1792
  800MOL0     N 5485   9.717   9.532   3.169  0.3088  0.2166 -0.4875
  800MOL0     C 5486   9.648   9.500   3.055  0.1855  0.7324 -0.3356
  800MOL0     C 5487   9.556   9.606   3.050 -0.3125  0.2543  0.2500
  800MOL0     C 5488   9.474   9.635   2.932 -0.2092 -0.2748 -0.5704
  800MOL0     C 5489   9.467   9.786   2.905  0.5224 -0.4076  0.7975
  800MOL0     C 5490   9.413   9.818   2.766  0.7848 -0.1545  0.0403
  800MOL0     C 5491   9.409   9.966   2.759 -0.4557  0.0163  0.6060
  800MOL0     O 5492   9.326  10.037   2.848 -0.0529  0.0648  0.4284
  800MOL0     C 5493   9.190  10.060   2.814 -0.6687  0.8595  0.3183
  800MOL0     C 5494   9.122  10.013   2.693  0.2629  0.3005 -0.6292
  800MOL0     C 5495   8.991  10.064   2.674 -1.0716  0.5064 -0.9358
  800MOL0     C 5496   8.933  10.140   2.773 -0.4585  0.3904 -0.0065
  800MOL0     C 5497   8.801  10.208   2.743 -0.3053  0.4274  0.8657
  800MOL0     O 5498   8.755  10.207   2.609 -0.3674  1.2389  0.2831
  800MOL0     C 5499   8.616  10.228   2.599 -0.7391 -0.9535  0.3156
  800MOL0     C 5500   8.585  10.349   2.536  0.7923 -0.4618  0.5122
  800MOL0     C 5501   8.449  10.371   2.515  0.9599 -0.3656  0.6603
  800MOL0     C 5502   8.349  10.282   2.549  0.5244  0.0950 -0.4339
  800MOL0     O 5503   8.217  10.321   2.521 -0.1551  1.0598 -0.0305
  800MOL0     C 5504   8.104  10.236   2.567 -0.8753  0.3431 -0.9017
  800MOL0     C 5505   7.975  10.319   2.572  0.3483 -0.2198  0.2584
  800MOL0     C 5506   7.935  10.355   2.423 -0.8254 -0.1366  0.6973
  800MOL0     C 5507   7.816  10.445   2.442 -1.0787  0.9369 -0.3334
  800MOL0     C 5508   7.776  10.512   2.303 -1.3160  0.2484  0.5033
  800MOL0     C 5509   7.688  10.406   2.230  0.0755 -0.3690 -0.6703
  800MOL0     C 5510   7.654  10.448   2.088 -0.5558 -0.3583  0.0566
  800MOL0     C 5511   7.588  10.587   2.085  0.4066  0.3805 -0.1138
  800MOL0    Cl 5512   7.487  10.608   1.947  0.0957 -0.3814  0.2391
  800MOL0     C 5513   8.386  10.162   2.613  0.6293 -0.3610  0.8794
  800MOL0     C 5514   8.517  10.137   2.641 -1.0021 -0.4871  0.2234
  800MOL0     O 5515   8.737  10.257   2.840 -0.1855  0.3192 -0.2310
  800MOL0     C 5516   8.994  10.174   2.894 -0.1250  0.4445 -0.2826
  800MOL0     C 5517   9.123  10.127   2.918  0.3877 -0.0161  0.7101
  800MOL0     N 5518   9.575   9.683   3.160  0.2459  0.8662 -0.8163
  800MOL0     N 5519   9.683   9.650   3.225 -0.3435 -0.2135 -0.2352
  800MOL0     C 5520  10.377   9.648   4.075  0.5741 -0.1025 -0.2607
  800MOL0     C 5521  10.494   9.647   4.146  0.0064  0.8438 -0.6168
  800MOL0     C 5522  10.933   9.588   4.275 -0.0073  0.0625  0.3065
  800MOL0     C 5523  11.030   9.680   4.290  0.0744 -0.7039  0.2961
  800MOL0     C 5524  11.152   9.644   4.339 -0.0972 -0.0652  0.3446
  800MOL0     C 5525  11.189   9.510   4.370  0.0881 -1.0309  0.3558
  800MOL0     O 5526  11.309   9.494   4.432 -0.0503 -0.1109  0.4279
  800MOL0     C 5527  11.331   9.380   4.517 -0.7806  0.2556  0.2108
  800MOL0     C 5528  11.357   9.244   4.438 -0.8623 -0.5807 -0.2745
  800MOL0     C 5529  11.501   9.190   4.445  1.2904 -0.2539  0.3983
  800MOL0     C 5530  11.609   9.285   4.422  0.1942 -0.3305 -0.9732
  800MOL0     C 5531  11.733   9.230   4.372 -0.0253  0.6053 -0.0324
  800MOL0     C 5532  11.841   9.183   4.339 -0.3885  0.1463  0.2276
  800MOL0     C 5533  11.087   9.413   4.364 -0.4298  0.5291 -0.3069
  800MOL0     C 5534  10.960   9.452   4.311 -0.1577 -0.0017 -0.2132
  800MOL0     H 5535  10.631   9.362   4.050 -0.0539 -0.5540  0.6803
  800MOL0     H 5536  10.450   9.364   3.896 -2.6878  0.1192 -0.1671
  800MOL0     H 5537  10.214   9.379   3.854  2.0234 -0.9357 -3.2418
  800MOL0     H 5538  10.302   9.485   3.747  0.4092 -1.4004 -1.1695
  800MOL0     H 5539  10.101   9.449   3.638 -0.8459  0.1138  0.0796
  800MOL0     H 5540  10.068   9.603   3.708 -1.5205  0.6906  2.5758
  800MOL0     H 5541   9.940   9.446   3.893 -1.6925  0.4252 -0.2085
  800MOL0     H 5542   9.984   9.311   3.793  2.3274 -0.6871  2.4814
  800MOL0     H 5543   9.762   9.412   3.747 -0.5882 -0.0200 -1.1872
  800MOL0     H 5544   9.820   9.556   3.682 -2.6797  0.0049  0.9165
  800MOL0     H 5545   9.888   9.278   3.563  1.4881  0.5224 -2.0980
  800MOL0     H 5546   9.950   9.430   3.505  0.3176 -0.7633 -0.7473
  800MOL0     H 5547   9.687   9.493   3.463 -2.0014 -0.2900  0.8078
  800MOL0     H 5548   9.663   9.336   3.524  0.9254 -0.3286  0.0099
  800MOL0     H 5549   9.809   9.239   3.336  0.2890  0.5287  0.6327
  800MOL0     H 5550   9.653   9.297   3.279  0.7825 -1.4382 -0.6602
  800MOL0     H 5551   9.860   9.381   3.139  1.1271 -1.0791  0.7354
  800MOL0     H 5552   9.904   9.483   3.274 -0.2351  2.0288 -0.2999
  800MOL0     H 5553   9.663   9.420   2.984  1.1537  0.4591  0.1494
  800MOL0     H 5554   9.371   9.603   2.949 -0.3615  0.7254  0.5174
  800MOL0     H 5555   9.508   9.579   2.844  0.4693  0.4414 -0.7741
  800MOL0     H 5556   9.566   9.832   2.905  2.0432 -2.6635 -5.2525
  800MOL0     H 5557   9.394   9.831   2.973  0.4653  3.0028 -1.2448
  800MOL0     H 5558   9.472   9.788   2.679 -0.3161  1.7538 -1.4505
  800MOL0     H 5559   9.322   9.760   2.754  0.0911  0.6618  1.1410
  800MOL0     H 5560   9.383  10.007   2.661 -0.5773 -0.6866  0.3412
  800MOL0     H 5561   9.509  10.005   2.778 -0.3224 -0.6192  1.2497
  800MOL0     H 5562   9.168   9.934   2.633 -0.9025  0.1862 -1.4011
  800MOL0     H 5563   8.943  10.046   2.578 -1.5353  0.2390 -0.6579
  800MOL0     H 5564   8.657  10.421   2.498  0.3187  0.1898  0.8140
  800MOL0     H 5565   8.426  10.462   2.460  0.2440 -1.0390 -0.1801
  800MOL0     H 5566   8.110  10.193   2.667  1.7954 -2.2488 -2.0094
  800MOL0     H 5567   8.090  10.159   2.490 -0.6994  0.1741 -0.7663
  800MOL0     H 5568   7.963  10.397   2.648 -0.5150  1.4459 -1.4980
  800MOL0     H 5569   7.899  10.246   2.600 -0.3169  0.5189  0.4224
  800MOL0     H 5570   7.899  10.276   2.357 -2.2742  1.4503 -0.5444
  800MOL0     H 5571   8.014  10.410   2.371 -2.7299  1.9939 -0.1522
  800MOL0     H 5572   7.738  10.386   2.492  0.4616  0.7495  2.0373
  800MOL0     H 5573   7.836  10.526   2.513 -2.1180  2.1010 -1.3089
  800MOL0     H 5574   7.865  10.525   2.241 -1.6457 -1.9539 -0.5160
  800MOL0     H 5575   7.720  10.602   2.330 -0.2571  0.3518  2.6202
  800MOL0     H 5576   7.602  10.395   2.297  0.0863  1.8225 -0.2402
  800MOL0     H 5577   7.741  10.310   2.226  2.8547  0.7747  3.1204
  800MOL0     H 5578   7.742  10.441   2.023  0.6012 -0.1721  1.5384
  800MOL0     H 5579   7.581  10.375   2.053  0.5540 -0.1354 -3.0511
  800MOL0     H 5580   7.654  10.673   2.102  0.7457  0.0566  0.2254
  800MOL0     H 5581   7.523  10.593   2.173  2.4997  1.4180  1.4411
  800MOL0     H 5582   8.312  10.087   2.640 -0.6504  0.1145 -1.0873
  800MOL0     H 5583   8.555  10.038   2.663 -1.7630 -1.2901 -1.8603
  800MOL0     H 5584   8.943  10.247   2.956  0.7365  0.9793 -0.1889
  800MOL0     H 5585   9.166  10.156   3.014 -0.9524  0.3774  1.2275
  800MOL0     H 5586  10.304   9.728   4.073 -0.9087 -1.4374 -0.9799
  800MOL0     H 5587  10.524   9.734   4.204  0.9949  0.8375 -1.1051
  800MOL0     H 5588  11.007   9.782   4.260  0.0504 -0.4761  1.0760
  800MOL0     H 5589  11.230   9.719   4.336 -0.5508  0.3923 -0.5648
  800MOL0     H 5590  11.243   9.371   4.580 -1.5244  2.3044 -0.4441
  800MOL0     H 5591  11.418   9.395   4.582 -1.5471 -5.2707  3.0768
  800MOL0     H 5592  11.286   9.165   4.467 -0.5436 -1.2495 -1.2903
  800MOL0     H 5593  11.352   9.262   4.331 -3.0306 -0.2386 -0.1633
  800MOL0     H 5594  11.507   9.115   4.365  2.6103 -3.6664  3.4290
  800MOL0     H 5595  11.519   9.130   4.535 -1.6046  0.4432  1.5343
  800MOL0     H 5596  11.578   9.359   4.348  1.6115  0.1452 -1.1088
  800MOL0     H 5597  11.634   9.318   4.524  1.1355 -1.6543 -0.7509
  800MOL0     H 5598  11.928   9.129   4.308 -0.8263  0.2746 -1.2823
  800MOL0     H 5599  11.104   9.311   4.397 -1.7806  0.7438  1.1903
  800MOL0     H 5600  10.882   9.376   4.314 -0.3942  0.2505  0.3625
  801MOL0     O 5601   2.629  10.299   7.329 -0.1588  0.3664 -0.0277
  801MOL0     C 5602   2.652  10.406   7.366 -0.5545  0.2355 -0.3294
  801MOL0     O 5603   2.647  10.451   7.496  0.6938 -0.4146  0.0494
  801MOL0     C 5604   2.674  10.346   7.586  0.5712  0.2777 -0.5684
  801MOL0     C 5605   2.570  10.289   7.663 -0.0986  0.3572 -0.6344
  801MOL0     C 5606   2.611  10.193   7.758  0.2255  0.0790  0.5923
  801MOL0     C 5607   2.741  10.152   7.779 -0.3658 -0.1933  0.6840
  801MOL0     O 5608   2.762  10.038   7.853  0.1134  0.4280  0.3464
  801MOL0     C 5609   2.775  10.076   7.989 -0.4161 -0.9042 -0.1792
  801MOL0     C 5610   2.845   9.979   8.082  0.0328  0.7913 -0.7714
  801MOL0     C 5611   2.765   9.855   8.079 -0.5680  0.2717  1.0098
  801MOL0     C 5612   2.814   9.756   8.186 -0.6395  0.4430  0.5020
  801MOL0     C 5613   2.730   9.625   8.201 -0.7228 -0.1401 -0.0923
  801MOL0     C 5614   2.584   9.647   8.238 -0.0746  0.0368  0.3550
  801MOL0     C 5615   2.570   9.700   8.377 -0.0193 -0.5455 -0.1830
  801MOL0     C 5616   2.426   9.688   8.429 -0.4574  1.3160  0.1833
  801MOL0     N 5617   2.341   9.782   8.357 -1.0294 -0.8913 -0.2505
  801MOL0     C 5618   2.347   9.913   8.378  0.7736 -1.1803 -0.2190
  801MOL0     C 5619   2.256   9.967   8.292 -0.6519 -0.4211 -0.5008
  801MOL0     C 5620   2.238  10.119   8.259  0.4273 -0.9759  0.4076
  801MOL0     C 5621   2.117  10.165   8.345  0.3739  0.2659  0.5257
  801MOL0     C 5622   2.062  10.306   8.330  0.1727  0.3877 -0.1404
  801MOL0     C 5623   1.995  10.312   8.189 -0.5693  0.2932 -0.3247
  801MOL0     O 5624   1.934  10.441   8.169 -0.3138 -0.3839  0.4845
  801MOL0     C 5625   1.804  10.439   8.216 -0.2840 -0.2545  0.2363
  801MOL0     C 5626   1.781  10.522   8.326 -0.1372 -0.0556 -0.4506
  801MOL0     C 5627   1.655  10.529   8.389 -0.5291  0.4180 -0.3560
  801MOL0     C 5628   1.554  10.451   8.341  0.9445  1.2079 -0.4807
  801MOL0     C 5629   1.419  10.454   8.405  0.0191  0.4821 -0.6959
  801MOL0     O 5630   1.314  10.381   8.351  0.0961 -0.5193 -0.5712
  801MOL0     C 5631   1.191  10.398   8.408 -0.1925  0.2156  0.5683
  801MOL0     C 5632   1.155  10.362   8.541  0.1778  0.0964 -0.1188
  801MOL0     C 5633   1.020  10.357   8.579 -0.0165  0.7772 -0.6222
  801MOL0     C 5634   0.919  10.402   8.495  0.7104  0.0576 -0.0195
  801MOL0     O 5635   0.782  10.402   8.522 -0.6848  0.5433 -0.6209
  801MOL0     C 5636   0.723  10.339   8.636 -0.6348  0.8072  0.3180
  801MOL0     C 5637   0.561  10.332   8.626 -0.9304 -0.5046  0.1118
  801MOL0     C 5638   0.511  10.265   8.751  0.2577 -0.5361  0.7667
  801MOL0     C 5639   0.360  10.270   8.761  0.0444  0.0571 -0.3953
  801MOL0     C 5640   0.317  10.204   8.896  0.2938  1.0174 -0.0513
  801MOL0     C 5641   0.163  10.193   8.903  0.3118 -0.0141 -0.3638
  801MOL0     C 5642   0.127  10.089   9.007 -0.8856  0.9648  0.6328
  801MOL0     C 5643  -0.019  10.086   9.043  0.5522  0.2859  0.4381
  801MOL0    Cl 5644  -0.096   9.978   8.928  0.2458  0.2247  0.1511
  801MOL0     C 5645   0.962  10.450   8.371 -0.5332 -0.5087  0.9676
  801MOL0     C 5646   1.092  10.440   8.322 -1.1522 -0.1381  0.3602
  801MOL0     O 5647   1.407  10.521   8.509 -0.7036  0.4201  0.7783
  801MOL0     C 5648   1.573  10.369   8.230  0.9923 -0.0248  0.0754
  801MOL0     C 5649   1.697  10.363   8.164 -0.1228  0.5647  0.2488
  801MOL0     N 5650   2.203   9.864   8.221 -0.8325 -0.3033  0.5985
  801MOL0     N 5651   2.245   9.752   8.267  0.5471  1.0430 -0.4151
  801MOL0     C 5652   2.842  10.208   7.689  0.7282 -0.2702  0.1079
  801MOL0     C 5653   2.809  10.311   7.606  0.6998  0.2538 -0.2116
  801MOL0     C 5654   2.683  10.502   7.265  0.1516 -0.4435  0.9679
  801MOL0     C 5655   2.635  10.633   7.282 -0.0778  0.0675  0.0762
  801MOL0     C 5656   2.666  10.732   7.187  0.7076  0.1847  0.1361
  801MOL0     C 5657   2.715  10.701   7.061 -0.1045 -0.8244 -0.1904
  801MOL0     O 5658   2.724  10.809   6.984  0.0685  1.0097  0.9432
  801MOL0     C 5659   2.776  10.798   6.843 -0.4055 -0.6072 -0.0853
  801MOL0     C 5660   2.653  10.780   6.753  0.4461  0.2489 -0.6038
  801MOL0     C 5661   2.582  10.909   6.722  0.5542 -0.8678  0.0034
  801MOL0     C 5662   2.476  10.906   6.614  0.8416 -0.1886  0.2609
  801MOL0     C 5663   2.346  10.870   6.667  0.3743 -0.0929 -0.3740
  801MOL0     C 5664   2.235  10.856   6.712  0.0214 -0.6348 -0.0276
  801MOL0     C 5665   2.760  10.576   7.038 -0.2365 -0.3543 -0.2263
  801MOL0     C 5666   2.746  10.478   7.135  0.5690  0.1363  0.3249
  801MOL0     H 5667   2.466  10.313   7.651 -0.3150 -0.9602 -1.5626
  801MOL0     H 5668   2.527  10.153   7.815 -1.9419  2.1691 -0.9702
  801MOL0     H 5669   2.681  10.108   8.034 -0.1877 -0.2529 -0.1549
  801MOL0     H 5670   2.829  10.171   7.997 -0.5643 -0.9795  2.1255
  801MOL0     H 5671   2.846  10.030   8.179 -0.2174  0.8630 -0.8052
  801MOL0     H 5672   2.948   9.948   8.061 -0.1855 -1.0436  0.6433
  801MOL0     H 5673   2.777   9.802   7.984  1.6306 -0.9790  1.9090
  801MOL0     H 5674   2.658   9.876   8.090 -1.0203 -1.4523  0.3007
  801MOL0     H 5675   2.913   9.718   8.158 -1.5930  0.1575 -2.8964
  801MOL0     H 5676   2.819   9.811   8.280  1.3125 -2.1809  2.0800
  801MOL0     H 5677   2.760   9.568   8.289 -0.7834  3.0620  2.1846
  801MOL0     H 5678   2.753   9.563   8.113 -0.3245 -0.9680  0.5761
  801MOL0     H 5679   2.537   9.548   8.232 -1.1447  0.5951 -1.2209
  801MOL0     H 5680   2.542   9.718   8.166  1.6769 -0.0469 -0.8210
  801MOL0     H 5681   2.624   9.639   8.449  0.0576 -0.2403  0.0194
  801MOL0     H 5682   2.608   9.802   8.387 -2.8898  0.5881  0.3965
  801MOL0     H 5683   2.429   9.729   8.530 -1.5212  1.5896  0.1205
  801MOL0     H 5684   2.381   9.589   8.418 -1.6651  1.6143  1.9199
  801MOL0     H 5685   2.405   9.963   8.455  2.1259 -1.8425 -0.7708
  801MOL0     H 5686   2.221  10.123   8.151 -0.8003 -0.1580  0.6140
  801MOL0     H 5687   2.329  10.174   8.287  0.4986 -0.9592  0.1461
  801MOL0     H 5688   2.145  10.137   8.447  3.2443  0.1897 -0.1798
  801MOL0     H 5689   2.033  10.097   8.329  2.1962 -1.8722 -0.6441
  801MOL0     H 5690   1.987  10.334   8.406  0.6047  1.2695 -0.0171
  801MOL0     H 5691   2.145  10.376   8.343  2.0313 -1.5565 -1.1092
  801MOL0     H 5692   1.920  10.233   8.190 -1.1715  0.8586  0.4877
  801MOL0     H 5693   2.079  10.295   8.120 -0.8017 -0.4873 -0.4157
  801MOL0     H 5694   1.875  10.571   8.350  0.4025 -1.0366 -0.5217
  801MOL0     H 5695   1.631  10.594   8.473 -1.4513 -0.0969 -0.2194
  801MOL0     H 5696   1.221  10.317   8.614 -0.7253 -0.6729  0.2459
  801MOL0     H 5697   0.997  10.319   8.678  1.8795  0.3912 -0.2965
  801MOL0     H 5698   0.764  10.385   8.727 -0.3931 -0.4513  0.8657
  801MOL0     H 5699   0.761  10.237   8.645 -0.1792  0.7857 -1.4649
  801MOL0     H 5700   0.531  10.280   8.534 -1.1876  0.8632 -0.5995
  801MOL0     H 5701   0.517  10.432   8.621 -1.2935 -0.6040  1.1323
  801MOL0     H 5702   0.556  10.319   8.835 -2.6905  1.7056  1.1113
  801MOL0     H 5703   0.547  10.163   8.760 -1.4146 -0.9961  3.3985
  801MOL0     H 5704   0.317  10.370   8.755  0.0406  0.0867  0.1445
  801MOL0     H 5705   0.317  10.217   8.675 -1.9254 -1.9759  1.7186
  801MOL0     H 5706   0.343  10.261   8.986  2.2852  1.5106 -0.8861
  801MOL0     H 5707   0.365  10.105   8.902  0.1489  0.7179 -2.5732
  801MOL0     H 5708   0.128  10.165   8.803  1.5310 -3.2829 -0.0031
  801MOL0     H 5709   0.122  10.291   8.930 -1.2295 -0.0844 -2.1805
  801MOL0     H 5710   0.157   9.992   8.965  1.2341  2.6276 -1.9534
  801MOL0     H 5711   0.177  10.103   9.103  0.6672  0.9321 -0.1451
  801MOL0     H 5712  -0.046  10.192   9.047 -0.9347 -0.0426 -0.2773
  801MOL0     H 5713  -0.032  10.040   9.141  1.2173 -0.3767  0.2229
  801MOL0     H 5714   0.888  10.492   8.305 -0.7128  0.0269  1.5111
  801MOL0     H 5715   1.113  10.471   8.220  1.4271 -0.6381  0.6834
  801MOL0     H 5716   1.492  10.310   8.187 -0.0190 -0.1433  2.0317
  801MOL0     H 5717   1.719  10.303   8.076 -0.0221 -0.2358  0.8135
  801MOL0     H 5718   2.948  10.185   7.696  0.3135 -2.2138  0.8637
  801MOL0     H 5719   2.889  10.376   7.570  0.2825 -0.1782 -2.0505
  801MOL0     H 5720   2.597  10.669   7.377  1.5470  4.9482 -0.7997
  801MOL0     H 5721   2.642  10.833   7.218  0.8028 -0.5721  2.9381
  801MOL0     H 5722   2.854  10.723   6.825 -0.3238 -0.4953 -0.1993
  801MOL0     H 5723   2.831  10.889   6.817  0.2341 -0.4623  1.6782
  801MOL0     H 5724   2.680  10.746   6.653 -1.4954  1.7068 -1.7057
  801MOL0     H 5725   2.588  10.707   6.800 -0.7694  2.1053  0.7560
  801MOL0     H 5726   2.663  10.970   6.680 -1.0722 -1.0875 -3.8105
  801MOL0     H 5727   2.545  10.954   6.815 -2.3790 -1.7780 -0.6318
  801MOL0     H 5728   2.477  11.007   6.572  0.2989 -0.3638 -0.1852
  801MOL0     H 5729   2.499  10.842   6.528  2.6162  0.8236 -0.0668
  801MOL0     H 5730   2.136  10.839   6.750 -0.1554  2.7781  1.4068
  801MOL0     H 5731   2.815  10.556   6.947  2.8459 -1.4591  1.7565
  801MOL0     H 5732   2.795  10.385   7.109 -2.4010 -1.1491 -1.2869
  802MOL0     O 5733   5.363   5.161   3.293 -0.1035  0.4730 -0.1571
  802MOL0     C 5734   5.347   5.285   3.292 -0.3144  1.2034 -0.1381
  802MOL0     O 5735   5.446   5.373   3.315  0.5190  0.2992 -0.2561
  802MOL0     C 5736   5.570   5.323   3.350  0.0365  0.2513  0.4792
  802MOL0     C 5737   5.617   5.326   3.481  0.8547 -0.5322  0.3450
  802MOL0     C 5738   5.749   5.284   3.506 -0.1692 -0.2617  0.2296
  802MOL0     C 5739   5.836   5.248   3.404 -0.7436  0.4364  0.2325
  802MOL0     O 5740   5.961   5.201   3.438  0.2959 -0.3820  0.3413
  802MOL0     C 5741   6.073   5.254   3.358 -0.0576 -0.5298 -0.0952
  802MOL0     C 5742   6.167   5.136   3.327 -0.6595 -0.6061 -0.3632
  802MOL0     C 5743   6.295   5.180   3.260 -0.4079  0.8234  1.1037
  802MOL0     C 5744   6.401   5.215   3.365 -0.6393  0.1794 -0.9336
  802MOL0     C 5745   6.547   5.229   3.333 -0.0734 -0.7407  0.3536
  802MOL0     C 5746   6.586   5.318   3.202  1.0142 -0.2888  0.1268
  802MOL0     C 5747   6.742   5.321   3.175  0.3557  0.7366  0.0362
  802MOL0     C 5748   6.783   5.428   3.071  0.0390 -0.2505  0.8946
  802MOL0     N 5749   6.685   5.448   2.957 -0.6046 -0.0496  0.4309
  802MOL0     C 5750   6.676   5.369   2.846  0.6191  0.1277  0.7230
  802MOL0     C 5751   6.571   5.426   2.777  0.2407  0.3416 -0.4644
  802MOL0     C 5752   6.527   5.362   2.648  0.1283 -0.7335 -0.2075
  802MOL0     C 5753   6.445   5.444   2.547 -0.4451 -0.9148 -0.9308
  802MOL0     C 5754   6.548   5.543   2.473  0.1843 -0.3902  0.0958
  802MOL0     C 5755   6.471   5.644   2.387 -0.1212  1.1619  0.1827
  802MOL0     O 5756   6.557   5.725   2.311 -0.1950 -0.0383  0.3449
  802MOL0     C 5757   6.519   5.853   2.277  0.3647 -0.2347 -0.4311
  802MOL0     C 5758   6.621   5.921   2.213  0.2510 -0.4493  0.4642
  802MOL0     C 5759   6.596   6.047   2.155  0.4531 -0.3525  0.4763
  802MOL0     C 5760   6.468   6.102   2.158  0.5819 -0.0199  0.1893
  802MOL0     C 5761   6.444   6.229   2.099  0.0276 -1.0693  0.3908
  802MOL0     O 5762   6.335   6.305   2.130 -0.4559  0.4601 -0.2508
  802MOL0     C 5763   6.305   6.427   2.066  0.5395  0.6031 -0.9232
  802MOL0     C 5764   6.194   6.485   2.127 -0.5081 -0.2272 -0.4981
  802MOL0     C 5765   6.145   6.609   2.085  0.6168  0.0919  0.1263
  802MOL0     C 5766   6.191   6.677   1.980  0.5470  0.3846  0.4688
  802MOL0     O 5767   6.138   6.795   1.933  0.9516 -0.0828 -0.0492
  802MOL0     C 5768   6.139   6.818   1.795 -0.4274  0.3578  0.4430
  802MOL0     C 5769   6.024   6.917   1.760 -0.1434 -0.7305  0.3877
  802MOL0     C 5770   6.032   7.062   1.827 -0.3089  0.6416  0.2646
  802MOL0     C 5771   5.933   7.161   1.785 -0.1415  0.3501 -0.0427
  802MOL0     C 5772   5.947   7.303   1.841  0.1253  0.3830 -0.2624
  802MOL0     C 5773   5.956   7.301   1.996 -0.7913  0.1904  0.2895
  802MOL0     C 5774   5.931   7.423   2.074 -0.5311 -0.1872  0.4452
  802MOL0     C 5775   5.912   7.396   2.225  0.4106  0.4274  0.5119
  802MOL0    Cl 5776   5.879   7.549   2.310  0.4288 -0.4173  0.1609
  802MOL0     C 5777   6.303   6.616   1.920  0.1657 -0.3946  0.4320
  802MOL0     C 5778   6.361   6.496   1.962  0.3355 -0.3897 -0.4912
  802MOL0     O 5779   6.530   6.269   2.014 -0.5446 -0.1917 -0.0988
  802MOL0     C 5780   6.363   6.027   2.214 -0.3591 -1.0084  0.0370
  802MOL0     C 5781   6.391   5.907   2.276 -0.2279  0.7488 -0.4462
  802MOL0     N 5782   6.518   5.537   2.847  0.7201 -0.1161  0.1550
  802MOL0     N 5783   6.596   5.550   2.957  0.3070 -0.4488 -0.1424
  802MOL0     C 5784   5.788   5.239   3.275  0.4336  0.2210  0.8126
  802MOL0     C 5785   5.657   5.277   3.246  0.7015 -0.3918  0.1756
  802MOL0     C 5786   5.212   5.335   3.259 -0.7676  0.2390 -0.2961
  802MOL0     C 5787   5.107   5.248   3.247  0.4165 -0.5397  1.3762
  802MOL0     C 5788   4.977   5.280   3.215  0.6839 -0.2208 -0.3266
  802MOL0     C 5789   4.954   5.410   3.181 -0.1541 -0.0007 -0.7693
  802MOL0     O 5790   4.831   5.470   3.167  0.1327 -0.0116 -0.0593
  802MOL0     C 5791   4.735   5.430   3.268  0.0670  0.4459 -0.4353
  802MOL0     C 5792   4.789   5.451   3.409 -0.4958 -0.1610  0.4055
  802MOL0     C 5793   4.820   5.608   3.432  0.3387 -0.4460  0.4181
  802MOL0     C 5794   4.867   5.647   3.579  0.2659 -0.8893 -0.5191
  802MOL0     C 5795   4.758   5.623   3.678  1.1055 -0.8093  0.0880
  802MOL0     C 5796   4.662   5.609   3.748 -0.3432  0.4450  0.1679
  802MOL0     C 5797   5.062   5.496   3.179  0.2128 -0.0868 -0.4226
  802MOL0     C 5798   5.184   5.462   3.232  0.2137  0.4957  0.4736
  802MOL0     H 5799   5.551   5.368   3.557 -2.1199 -1.3533 -1.5927
  802MOL0     H 5800   5.778   5.281   3.611 -0.9460  0.0905  0.4631
  802MOL0     H 5801   6.125   5.336   3.409  0.6673 -1.2094  0.2608
  802MOL0     H 5802   6.043   5.309   3.268  1.4873  4.9609  2.2875
  802MOL0     H 5803   6.112   5.074   3.255 -1.5119  0.5388 -0.7221
  802MOL0     H 5804   6.191   5.082   3.419 -1.2305  1.3412  0.9975
  802MOL0     H 5805   6.270   5.270   3.203 -0.5991  0.5541  0.7569
  802MOL0     H 5806   6.344   5.105   3.196  1.8317  3.2367 -0.2100
  802MOL0     H 5807   6.375   5.316   3.398 -0.9362 -0.1894  0.0098
  802MOL0     H 5808   6.404   5.136   3.441  1.3054 -0.8150 -1.9826
  802MOL0     H 5809   6.591   5.129   3.330  0.4829 -0.5169  0.7680
  802MOL0     H 5810   6.596   5.280   3.417  1.8403  1.2847 -1.8045
  802MOL0     H 5811   6.554   5.420   3.224 -0.5351 -0.0845 -2.6172
  802MOL0     H 5812   6.525   5.296   3.114 -1.8626  2.8511  1.1229
  802MOL0     H 5813   6.801   5.335   3.266  1.1649  2.1859 -0.6831
  802MOL0     H 5814   6.776   5.219   3.153  2.3519  1.4221 -0.2155
  802MOL0     H 5815   6.876   5.393   3.027  0.6895 -1.0734  2.8476
  802MOL0     H 5816   6.804   5.525   3.118 -0.6889  0.5897 -0.4256
  802MOL0     H 5817   6.724   5.275   2.820 -0.1418  0.6729 -3.4562
  802MOL0     H 5818   6.470   5.271   2.673 -1.4664  0.2275 -0.2289
  802MOL0     H 5819   6.607   5.325   2.583  0.3572  3.4039 -2.5793
  802MOL0     H 5820   6.362   5.499   2.593  0.7332 -1.0727  1.5651
  802MOL0     H 5821   6.402   5.367   2.482 -1.6449 -2.5719  1.6466
  802MOL0     H 5822   6.601   5.599   2.551 -2.6696  1.7006  0.6756
  802MOL0     H 5823   6.618   5.496   2.403 -0.1962  2.8618 -2.7416
  802MOL0     H 5824   6.411   5.712   2.448 -1.9650  0.0266 -0.2943
  802MOL0     H 5825   6.404   5.591   2.318  0.8868 -1.9734  1.4599
  802MOL0     H 5826   6.721   5.881   2.207  0.4782 -0.0523  1.5232
  802MOL0     H 5827   6.672   6.105   2.102  0.4338  2.3882  3.1611
  802MOL0     H 5828   6.148   6.419   2.201 -0.8410  0.6926  0.1293
  802MOL0     H 5829   6.066   6.655   2.143  1.1335  2.3488 -0.8741
  802MOL0     H 5830   6.127   6.725   1.740  2.6438 -0.5988  1.2179
  802MOL0     H 5831   6.235   6.861   1.765 -0.6008  2.7638  2.8627
  802MOL0     H 5832   5.927   6.883   1.798 -0.1287  0.7183  1.8560
  802MOL0     H 5833   6.013   6.928   1.651 -2.8772  1.1172  0.7486
  802MOL0     H 5834   6.133   7.093   1.799  0.3895  0.0565  2.0197
  802MOL0     H 5835   6.033   7.043   1.935  4.5028 -3.4555 -0.0904
  802MOL0     H 5836   5.934   7.171   1.676 -0.2655  2.7876  0.1168
  802MOL0     H 5837   5.830   7.134   1.813 -0.6209 -0.2473 -2.2070
  802MOL0     H 5838   5.858   7.363   1.817 -0.7778 -0.0753  1.6954
  802MOL0     H 5839   6.024   7.356   1.784  0.1514  0.9904  0.3236
  802MOL0     H 5840   6.047   7.247   2.023 -0.3374 -0.3795 -2.1689
  802MOL0     H 5841   5.879   7.235   2.037  1.6359 -1.2586  2.8700
  802MOL0     H 5842   6.021   7.482   2.057 -0.3843 -0.7597 -0.8495
  802MOL0     H 5843   5.846   7.481   2.039 -0.6246 -0.9569 -0.6588
  802MOL0     H 5844   6.003   7.353   2.268 -0.8657 -2.2900  0.6963
  802MOL0     H 5845   5.839   7.318   2.244 -1.2612  2.0009  0.8768
  802MOL0     H 5846   6.348   6.670   1.837 -1.1284  0.5974  0.3295
  802MOL0     H 5847   6.447   6.458   1.907  0.6512  1.6634 -1.5444
  802MOL0     H 5848   6.261   6.065   2.216 -0.9861 -2.6389  0.9826
  802MOL0     H 5849   6.309   5.850   2.319  0.9384 -1.0948 -0.5879
  802MOL0     H 5850   5.852   5.188   3.204  2.4242  1.5391  1.5835
  802MOL0     H 5851   5.638   5.279   3.140 -2.9004  0.8621  0.7005
  802MOL0     H 5852   5.130   5.142   3.257  0.2371 -0.7559 -0.2676
  802MOL0     H 5853   4.899   5.207   3.232 -0.2667  0.3003 -2.1950
  802MOL0     H 5854   4.705   5.330   3.235  0.7164  1.0847 -3.1766
  802MOL0     H 5855   4.649   5.497   3.256  0.5599  1.1617 -0.0921
  802MOL0     H 5856   4.711   5.425   3.481 -2.0046  0.1269 -1.0466
  802MOL0     H 5857   4.882   5.397   3.427 -0.6437 -0.2954  0.7728
  802MOL0     H 5858   4.733   5.668   3.403 -0.3413 -2.2427 -1.4265
  802MOL0     H 5859   4.901   5.631   3.362 -0.7998 -0.2549 -0.8636
  802MOL0     H 5860   4.952   5.582   3.598 -0.3481 -1.4388  0.4527
  802MOL0     H 5861   4.910   5.746   3.595 -0.4316 -1.0370  3.2893
  802MOL0     H 5862   4.570   5.589   3.799 -0.3026 -2.4720 -0.6818
  802MOL0     H 5863   5.056   5.604   3.166  0.7588  0.2172  1.5264
  802MOL0     H 5864   5.271   5.527   3.220  1.0040 -0.6145  0.0351
  803MOL0     O 5865   4.876   3.195  10.329  0.1804  0.5147  0.2862
  803MOL0     C 5866   4.869   3.298  10.259  0.6385 -0.0066 -0.3238
  803MOL0     O 5867   4.763   3.381  10.261 -0.3689 -0.6112  0.3867
  803MOL0     C 5868   4.668   3.370  10.357  0.4784 -0.7466 -0.2657
  803MOL0     C 5869   4.537   3.393  10.328 -0.5791 -0.2438 -0.4331
  803MOL0     C 5870   4.436   3.378  10.416 -0.1849 -0.0323  1.1609
  803MOL0     C 5871   4.456   3.341  10.545  0.3184  0.6323  0.1682
  803MOL0     O 5872   4.351   3.321  10.628 -0.3944 -0.3779  0.1236
  803MOL0     C 5873   4.366   3.222  10.731  0.5351  0.3635 -0.4716
  803MOL0     C 5874   4.227   3.161  10.754 -0.3258 -0.3562  0.7405
  803MOL0     C 5875   4.240   3.054  10.858 -1.1499  0.2073 -0.1310
  803MOL0     C 5876   4.111   2.968  10.879 -0.0224 -0.0196 -0.1174
  803MOL0     C 5877   3.983   3.035  10.921 -0.0547 -0.4338  0.0114
  803MOL0     C 5878   3.988   3.100  11.056 -0.1082 -0.5969  0.3188
  803MOL0     C 5879   3.850   3.108  11.123  0.1104 -0.5589 -0.8140
  803MOL0     C 5880   3.775   3.247  11.104  0.1302  0.3880  0.5027
  803MOL0     N 5881   3.842   3.344  11.197  0.3071  0.0848  0.1711
  803MOL0     C 5882   3.941   3.418  11.139 -0.0837 -0.0601 -0.7336
  803MOL0     C 5883   3.992   3.481  11.248 -0.0517  0.3833 -1.0089
  803MOL0     C 5884   4.130   3.547  11.253 -0.5476  0.1128 -0.7208
  803MOL0     C 5885   4.114   3.683  11.190  0.1879  0.4344 -0.7353
  803MOL0     C 5886   4.223   3.786  11.229  0.2370  0.4692  0.5316
  803MOL0     C 5887   4.356   3.733  11.180 -1.1101 -0.2935 -0.4600
  803MOL0     O 5888   4.452   3.825  11.210  0.3121  0.7593 -0.5559
  803MOL0     C 5889   4.580   3.801  11.175 -0.0951  0.3913 -0.9346
  803MOL0     C 5890   4.683   3.888  11.228 -0.0456 -0.5706  0.0181
  803MOL0     C 5891   4.815   3.881  11.188 -0.3590  0.6641  0.0556
  803MOL0     C 5892   4.854   3.769  11.108  0.5049  0.2492  0.4677
  803MOL0     C 5893   4.995   3.739  11.082 -0.3960  0.5901 -1.4790
  803MOL0     O 5894   5.081   3.831  11.128 -0.1760  0.2155  0.1725
  803MOL0     C 5895   5.221   3.815  11.141 -0.3737 -0.4967  0.3600
  803MOL0     C 5896   5.279   3.933  11.174  0.5775  0.1843 -0.1747
  803MOL0     C 5897   5.417   3.944  11.182 -0.1565 -0.0331 -0.5286
  803MOL0     C 5898   5.499   3.829  11.188  0.2024 -0.4920  0.2711
  803MOL0     O 5899   5.633   3.837  11.221  0.2818 -0.1685 -0.3256
  803MOL0     C 5900   5.698   3.965  11.202  0.4225 -0.0500 -0.3126
  803MOL0     C 5901   5.840   3.960  11.230 -0.3540  0.0886 -0.2704
  803MOL0     C 5902   5.891   3.856  11.137 -0.0971  0.2711  0.2537
  803MOL0     C 5903   6.045   3.882  11.121 -0.5609 -0.6172 -0.0928
  803MOL0     C 5904   6.101   3.796  11.006  1.0271 -0.2282  0.2460
  803MOL0     C 5905   6.076   3.849  10.856 -0.3441 -1.0837 -0.0538
  803MOL0     C 5906   6.118   3.992  10.845 -0.9071 -0.3773  1.5596
  803MOL0     C 5907   6.154   4.028  10.698 -0.2249  0.8615  0.7415
  803MOL0    Cl 5908   6.272   4.165  10.691  0.2497  0.3937  0.1917
  803MOL0     C 5909   5.438   3.709  11.161  0.3935 -0.7231  0.4389
  803MOL0     C 5910   5.295   3.700  11.142  0.0007  0.3311  0.0211
  803MOL0     O 5911   5.025   3.629  11.040  0.6360  0.0611  0.6323
  803MOL0     C 5912   4.754   3.689  11.050  0.0728 -0.7076 -0.5245
  803MOL0     C 5913   4.619   3.700  11.080 -0.7827  0.0282  0.4980
  803MOL0     N 5914   3.926   3.430  11.361  0.8219 -0.1869 -0.1051
  803MOL0     N 5915   3.835   3.352  11.328  0.6944  0.8500 -0.2412
  803MOL0     C 5916   4.593   3.336  10.589  0.5628 -0.1514 -0.5235
  803MOL0     C 5917   4.695   3.347  10.498 -0.0842  0.0164 -0.1521
  803MOL0     C 5918   4.981   3.318  10.161  0.3793 -0.4327 -0.2130
  803MOL0     C 5919   5.083   3.223  10.154  0.4581 -0.6129 -0.2329
  803MOL0     C 5920   5.187   3.221  10.060 -0.7013 -0.7192  0.1254
  803MOL0     C 5921   5.193   3.325   9.961 -0.1377  0.3885 -0.1956
  803MOL0     O 5922   5.294   3.323   9.867 -0.3647  0.7736 -0.1765
  803MOL0     C 5923   5.413   3.375   9.919  0.1428 -0.6824 -0.6440
  803MOL0     C 5924   5.460   3.457   9.802  0.1857  0.0505  0.3513
  803MOL0     C 5925   5.592   3.524   9.822 -0.1179 -0.3402 -0.2688
  803MOL0     C 5926   5.605   3.638   9.720 -0.0067  0.7568  0.2079
  803MOL0     C 5927   5.744   3.697   9.743  0.3553  1.0496 -0.5271
  803MOL0     C 5928   5.860   3.718   9.765 -0.7718 -0.6270  0.2116
  803MOL0     C 5929   5.101   3.429   9.976 -0.6724  0.2928 -0.1862
  803MOL0     C 5930   4.992   3.428  10.066 -0.7413 -0.1222 -0.3328
  803MOL0     H 5931   4.507   3.449  10.240 -2.4918  1.9365  1.4931
  803MOL0     H 5932   4.335   3.395  10.378  0.3621 -1.3062 -1.0389
  803MOL0     H 5933   4.403   3.288  10.810  1.8668  1.6444 -2.0904
  803MOL0     H 5934   4.439   3.143  10.707  2.0689  1.1857  1.2317
  803MOL0     H 5935   4.182   3.115  10.666 -1.5480 -0.3910  1.3542
  803MOL0     H 5936   4.171   3.249  10.788  1.7641  1.1589  0.4784
  803MOL0     H 5937   4.275   3.099  10.952 -1.8024 -1.4672  0.9791
  803MOL0     H 5938   4.321   2.987  10.828  0.9899  3.0170 -0.9844
  803MOL0     H 5939   4.104   2.910  10.786  2.5385 -0.6482  0.0056
  803MOL0     H 5940   4.130   2.898  10.961  1.7289  2.3770  1.6463
  803MOL0     H 5941   3.905   2.958  10.921 -0.0190 -0.6951 -3.9435
  803MOL0     H 5942   3.956   3.107  10.842 -0.8603 -0.1915  0.4942
  803MOL0     H 5943   4.029   3.201  11.052 -2.4595  0.3932 -1.5013
  803MOL0     H 5944   4.055   3.040  11.118  1.7657  0.2980 -0.7477
  803MOL0     H 5945   3.789   3.022  11.096 -1.6578 -0.0183  1.2499
  803MOL0     H 5946   3.862   3.108  11.231 -1.2771  0.8477 -0.6408
  803MOL0     H 5947   3.675   3.226  11.141 -0.3382 -4.0170 -2.5136
  803MOL0     H 5948   3.779   3.282  11.001  3.5260 -2.1523 -0.4405
  803MOL0     H 5949   3.975   3.422  11.036 -2.6344 -0.6963 -1.6872
  803MOL0     H 5950   4.209   3.487  11.208  1.2708  1.0540  1.0260
  803MOL0     H 5951   4.151   3.563  11.359  2.1138 -1.1421 -0.9834
  803MOL0     H 5952   4.019   3.726  11.223  0.4897  0.7410 -0.2619
  803MOL0     H 5953   4.120   3.671  11.081  0.8402  0.6732 -0.7330
  803MOL0     H 5954   4.203   3.882  11.181  1.2943  1.0463  1.2142
  803MOL0     H 5955   4.227   3.790  11.339 -0.6273  1.0511  0.5539
  803MOL0     H 5956   4.355   3.730  11.071  0.7234 -0.9941 -0.4856
  803MOL0     H 5957   4.382   3.634  11.216  1.1430 -0.4428 -2.2888
  803MOL0     H 5958   4.640   3.960  11.297 -1.5297 -2.8807  1.6474
  803MOL0     H 5959   4.890   3.952  11.221  0.6920  0.6565 -2.1108
  803MOL0     H 5960   5.209   4.015  11.179 -1.1318 -1.1686 -0.7451
  803MOL0     H 5961   5.457   4.041  11.210 -2.7809  1.1095 -0.4077
  803MOL0     H 5962   5.658   4.050  11.257  1.0712 -0.1833  0.3698
  803MOL0     H 5963   5.688   3.994  11.097 -2.2768 -1.6586 -0.6048
  803MOL0     H 5964   5.866   3.934  11.333 -0.2959 -0.0110 -0.3093
  803MOL0     H 5965   5.882   4.059  11.210  0.7936 -0.3439 -0.0830
  803MOL0     H 5966   5.838   3.865  11.042  1.9096  0.4005 -0.9242
  803MOL0     H 5967   5.865   3.756  11.172 -2.9896 -0.3202 -3.0198
  803MOL0     H 5968   6.072   3.987  11.107  0.8055 -0.7289  1.3935
  803MOL0     H 5969   6.085   3.849  11.218  0.8846 -0.9480 -0.7705
  803MOL0     H 5970   6.060   3.694  11.009  0.1570  0.0341 -1.5328
  803MOL0     H 5971   6.210   3.794  11.017  1.3036  2.6772 -1.1552
  803MOL0     H 5972   5.972   3.840  10.824 -0.7943  4.2631 -1.1392
  803MOL0     H 5973   6.139   3.791  10.788  1.4081 -0.3868  0.9101
  803MOL0     H 5974   6.045   4.068  10.873  0.8067  1.3767  1.4893
  803MOL0     H 5975   6.206   4.025  10.902  0.3103  1.4718 -1.1638
  803MOL0     H 5976   6.068   4.049  10.634 -0.3398  0.0794  0.6352
  803MOL0     H 5977   6.214   3.945  10.662  0.5394  0.2888  3.1264
  803MOL0     H 5978   5.498   3.619  11.148 -1.5004 -2.1238  0.8067
  803MOL0     H 5979   5.257   3.600  11.121 -0.3508 -0.4182  3.5688
  803MOL0     H 5980   4.790   3.611  10.985 -0.4238 -0.4176 -1.1541
  803MOL0     H 5981   4.544   3.650  11.020 -1.2500  2.6021 -1.1905
  803MOL0     H 5982   4.607   3.304  10.691  0.7885 -2.6068 -1.2562
  803MOL0     H 5983   4.799   3.351  10.528 -0.4298  1.7173  0.9749
  803MOL0     H 5984   5.082   3.144  10.229 -1.3640 -0.8810 -0.4873
  803MOL0     H 5985   5.266   3.149  10.074 -0.5931 -0.2548  2.1974
  803MOL0     H 5986   5.488   3.301   9.948 -0.2682 -0.4769  1.0162
  803MOL0     H 5987   5.398   3.439  10.006  2.8166  0.9691 -1.2974
  803MOL0     H 5988   5.461   3.386   9.719 -2.0056 -1.3846  1.4649
  803MOL0     H 5989   5.391   3.540   9.782  1.5287  1.1044 -0.0318
  803MOL0     H 5990   5.680   3.459   9.815  1.2466  1.4917 -1.0412
  803MOL0     H 5991   5.593   3.569   9.922  4.3213 -0.8662  0.1497
  803MOL0     H 5992   5.606   3.603   9.616  0.7410  0.6036  0.2622
  803MOL0     H 5993   5.527   3.713   9.730 -1.3038 -0.5668  0.4431
  803MOL0     H 5994   5.966   3.727   9.777 -0.5417 -1.2641 -1.0997
  803MOL0     H 5995   5.105   3.521   9.920  1.4411 -0.3829 -1.2615
  803MOL0     H 5996   4.923   3.512  10.070  0.3222  0.7465  3.1328
  804MOL0     O 5997   7.468   5.503   1.673  0.1621  0.5947 -0.7851
  804MOL0     C 5998   7.595   5.500   1.661  0.4407  0.5316 -0.5669
  804MOL0     O 5999   7.677   5.611   1.639  0.7085 -0.6284 -0.2290
  804MOL0     C 6000   7.617   5.732   1.604  1.0609  0.2222  0.3637
  804MOL0     C 6001   7.503   5.781   1.670  0.3280 -0.2811 -0.3117
  804MOL0     C 6002   7.432   5.894   1.631 -0.7374  0.2194 -0.5172
  804MOL0     C 6003   7.476   5.966   1.519  0.6713 -0.2413 -0.2879
  804MOL0     O 6004   7.414   6.072   1.466 -0.0849  0.2196  0.5283
  804MOL0     C 6005   7.286   6.108   1.512  0.2885 -0.7801 -0.1187
  804MOL0     C 6006   7.239   6.230   1.435  0.1320  0.6866 -0.6622
  804MOL0     C 6007   7.126   6.294   1.508 -0.3849 -0.0789  0.2215
  804MOL0     C 6008   7.052   6.393   1.421 -0.2517  0.1745 -0.1083
  804MOL0     C 6009   6.920   6.427   1.499 -0.3584  1.0228 -0.2556
  804MOL0     C 6010   6.847   6.532   1.422  0.8871 -0.1916 -0.4107
  804MOL0     C 6011   6.712   6.560   1.493 -0.4604  0.1806  0.3962
  804MOL0     C 6012   6.617   6.608   1.382 -0.0434  0.9778 -0.4575
  804MOL0     N 6013   6.483   6.629   1.435  0.1041 -1.0368 -0.2767
  804MOL0     C 6014   6.363   6.591   1.371 -0.3988 -0.7456 -0.0778
  804MOL0     C 6015   6.267   6.588   1.469  0.5245 -0.2298 -0.0556
  804MOL0     C 6016   6.120   6.566   1.459  0.5249  0.3440  0.4481
  804MOL0     C 6017   6.062   6.685   1.384  0.5457 -0.7297  0.3285
  804MOL0     C 6018   5.914   6.657   1.347  0.9753  0.4359  0.3184
  804MOL0     C 6019   5.823   6.670   1.470  0.2851  0.9937  0.0976
  804MOL0     O 6020   5.686   6.652   1.417  0.5501 -0.1037 -0.1312
  804MOL0     C 6021   5.579   6.689   1.497 -0.1446 -0.4074 -0.3055
  804MOL0     C 6022   5.460   6.706   1.434 -0.0516 -0.9403 -0.3271
  804MOL0     C 6023   5.357   6.753   1.512  0.2889  0.6333 -0.1942
  804MOL0     C 6024   5.368   6.772   1.652  0.2694  0.7236  0.1853
  804MOL0     C 6025   5.255   6.821   1.733 -0.0544 -0.5899  0.1362
  804MOL0     O 6026   5.123   6.802   1.677  0.4223 -0.6594  0.0932
  804MOL0     C 6027   5.023   6.876   1.729  0.1644 -0.3157  0.8053
  804MOL0     C 6028   4.928   6.919   1.634 -0.2092 -0.6955 -0.2769
  804MOL0     C 6029   4.806   6.975   1.681 -1.1942  0.7592  0.7806
  804MOL0     C 6030   4.775   6.983   1.822  0.1406 -0.4251  1.1440
  804MOL0     O 6031   4.657   7.048   1.860 -0.8896 -0.7870 -0.9243
  804MOL0     C 6032   4.659   7.090   1.999  0.0484  0.1681  0.5622
  804MOL0     C 6033   4.526   7.177   2.014 -0.0193  0.3262  0.7034
  804MOL0     C 6034   4.502   7.239   2.158  0.4314  0.0164  0.1421
  804MOL0     C 6035   4.609   7.349   2.191 -0.1511  0.3013  0.3939
  804MOL0     C 6036   4.566   7.433   2.304  0.9448 -0.6628  0.1843
  804MOL0     C 6037   4.650   7.564   2.321  0.4844 -0.9097 -0.2014
  804MOL0     C 6038   4.631   7.625   2.451  0.5685 -0.2673  0.0319
  804MOL0     C 6039   4.737   7.719   2.497 -0.0381 -0.1348 -0.1960
  804MOL0    Cl 6040   4.701   7.765   2.670 -0.6084 -0.2070  0.0681
  804MOL0     C 6041   4.873   6.929   1.916 -0.7964 -0.6233  0.4225
  804MOL0     C 6042   4.991   6.877   1.870  0.7744 -0.3820  0.5660
  804MOL0     O 6043   5.279   6.872   1.841  0.7192  0.5003 -0.2448
  804MOL0     C 6044   5.489   6.753   1.713 -0.2955  0.5977 -0.0753
  804MOL0     C 6045   5.601   6.721   1.635 -0.7432  0.3091 -0.1391
  804MOL0     N 6046   6.327   6.632   1.589  0.1122 -0.5261  0.4861
  804MOL0     N 6047   6.446   6.659   1.561 -0.6783 -0.3750 -1.1297
  804MOL0     C 6048   7.584   5.910   1.452 -0.9785  0.1717  0.4203
  804MOL0     C 6049   7.659   5.800   1.491  0.2365  0.5133 -0.1326
  804MOL0     C 6050   7.669   5.378   1.706 -0.1587 -0.5998  0.2159
  804MOL0     C 6051   7.807   5.400   1.731  0.2604  0.1983  0.2437
  804MOL0     C 6052   7.889   5.285   1.757  0.9077  0.3163  0.3285
  804MOL0     C 6053   7.839   5.158   1.784  0.7611 -0.6946  0.8553
  804MOL0     O 6054   7.890   5.041   1.819 -0.8630 -0.5980 -0.0844
  804MOL0     C 6055   8.035   5.034   1.849  0.1476 -0.2058 -0.9707
  804MOL0     C 6056   8.075   4.895   1.814 -0.4195  0.7226  0.6262
  804MOL0     C 6057   8.224   4.878   1.843 -0.1230 -0.7716 -0.0717
  804MOL0     C 6058   8.278   4.741   1.800  0.3257  0.1392 -0.0592
  804MOL0     C 6059   8.404   4.715   1.872 -0.6350  0.9789  0.0731
  804MOL0     C 6060   8.502   4.693   1.938  0.3161  0.1595  0.1412
  804MOL0     C 6061   7.698   5.152   1.762 -0.0650 -0.1861  0.3287
  804MOL0     C 6062   7.614   5.249   1.714 -0.1282  0.3407 -0.2859
  804MOL0     H 6063   7.470   5.718   1.752  0.8753  0.3112  0.3727
  804MOL0     H 6064   7.339   5.919   1.682 -0.8428 -1.7436  0.3312
  804MOL0     H 6065   7.293   6.136   1.618  1.1559  1.5584 -0.7273
  804MOL0     H 6066   7.206   6.034   1.504 -2.1107  1.8126 -2.1968
  804MOL0     H 6067   7.203   6.213   1.333  1.9816 -1.1092 -1.0789
  804MOL0     H 6068   7.324   6.298   1.436  0.7827 -0.0696  1.6681
  804MOL0     H 6069   7.152   6.339   1.605 -0.8862 -4.3277  2.5480
  804MOL0     H 6070   7.055   6.216   1.537 -0.4439  0.4602  1.6014
  804MOL0     H 6071   7.118   6.477   1.400 -1.2720  1.9465  3.0652
  804MOL0     H 6072   7.040   6.341   1.326  3.3748 -0.4779 -0.3779
  804MOL0     H 6073   6.948   6.470   1.595  0.5237  4.0411 -1.7508
  804MOL0     H 6074   6.856   6.338   1.498 -0.4744  1.0287 -3.5170
  804MOL0     H 6075   6.817   6.481   1.330  2.9109 -2.0169 -0.1505
  804MOL0     H 6076   6.913   6.618   1.406  1.6788 -0.7089  0.0167
  804MOL0     H 6077   6.673   6.477   1.552  0.7002 -0.0093  0.9454
  804MOL0     H 6078   6.735   6.641   1.564  1.8289 -0.7033  0.7702
  804MOL0     H 6079   6.620   6.545   1.293  0.9952  0.3444  0.0140
  804MOL0     H 6080   6.648   6.712   1.365 -2.6402  1.8899 -0.0190
  804MOL0     H 6081   6.341   6.562   1.269 -1.4874 -1.1385  0.2576
  804MOL0     H 6082   6.089   6.560   1.564 -1.7006  2.4670 -0.0035
  804MOL0     H 6083   6.104   6.472   1.405 -0.1105  1.1918 -0.8856
  804MOL0     H 6084   6.106   6.706   1.286 -1.0660  2.5841  0.1989
  804MOL0     H 6085   6.073   6.775   1.445  0.4585 -0.9279  0.6386
  804MOL0     H 6086   5.875   6.739   1.286 -3.7674  0.9935  3.5298
  804MOL0     H 6087   5.901   6.564   1.292 -0.6683  0.8838 -0.0995
  804MOL0     H 6088   5.855   6.765   1.514  2.4409  0.5524 -0.4210
  804MOL0     H 6089   5.856   6.600   1.548  2.1458  2.2367  0.4940
  804MOL0     H 6090   5.441   6.704   1.328  0.0575  1.0495 -0.4148
  804MOL0     H 6091   5.265   6.797   1.473 -0.5730 -0.9411 -0.0073
  804MOL0     H 6092   4.933   6.883   1.531  0.7037  3.0484 -1.7099
  804MOL0     H 6093   4.731   6.988   1.604  1.5689 -0.7868 -2.4316
  804MOL0     H 6094   4.744   7.156   2.018  0.3287  0.2273 -0.8450
  804MOL0     H 6095   4.657   6.997   2.057  2.4998 -0.7373 -0.6714
  804MOL0     H 6096   4.437   7.121   1.983 -2.6193  4.5785 -0.3448
  804MOL0     H 6097   4.535   7.254   1.937  1.4755 -2.7392 -2.4716
  804MOL0     H 6098   4.507   7.159   2.232 -0.2745  0.9834  1.2816
  804MOL0     H 6099   4.407   7.293   2.166  2.3316  3.4694  2.1188
  804MOL0     H 6100   4.700   7.295   2.221 -0.0113  0.5650  0.4450
  804MOL0     H 6101   4.630   7.411   2.104 -0.0871 -0.7575 -0.3654
  804MOL0     H 6102   4.550   7.371   2.393  2.9077 -2.5014 -0.6570
  804MOL0     H 6103   4.469   7.476   2.281  0.9389  1.1004  3.0674
  804MOL0     H 6104   4.616   7.635   2.244 -2.5307 -0.9826  0.9113
  804MOL0     H 6105   4.756   7.549   2.300  0.5206  2.7130 -4.1639
  804MOL0     H 6106   4.538   7.681   2.461  1.3796  0.8895  1.5201
  804MOL0     H 6107   4.622   7.546   2.526 -0.1097  1.1056  1.4432
  804MOL0     H 6108   4.747   7.810   2.437 -1.9694  0.7643  0.7604
  804MOL0     H 6109   4.832   7.666   2.498 -1.3533 -2.6755 -0.8898
  804MOL0     H 6110   4.863   6.925   2.024 -0.1211  0.1442  0.5281
  804MOL0     H 6111   5.059   6.824   1.936  1.1544 -0.5674  0.0350
  804MOL0     H 6112   5.493   6.753   1.822 -0.5249  0.9560 -0.0665
  804MOL0     H 6113   5.696   6.709   1.686 -0.4130 -0.6394 -0.9558
  804MOL0     H 6114   7.630   5.961   1.368  0.4877 -2.5266 -0.5259
  804MOL0     H 6115   7.745   5.765   1.434  0.2155  2.9392 -1.7847
  804MOL0     H 6116   7.860   5.493   1.709  0.9231 -0.3489 -0.5350
  804MOL0     H 6117   7.996   5.303   1.759  1.1732 -1.1521  0.4018
  804MOL0     H 6118   8.051   5.044   1.957 -1.6604 -5.3061  0.0598
  804MOL0     H 6119   8.097   5.102   1.790  2.2478 -2.8960 -2.0921
  804MOL0     H 6120   8.010   4.823   1.865  0.5111  0.2033  1.0903
  804MOL0     H 6121   8.063   4.880   1.706  1.4610 -2.2676  0.7223
  804MOL0     H 6122   8.251   4.903   1.946  1.4451 -1.9011 -0.1735
  804MOL0     H 6123   8.268   4.957   1.783 -0.2443  0.0488  0.8922
  804MOL0     H 6124   8.201   4.668   1.828 -0.3976  0.5019 -1.0478
  804MOL0     H 6125   8.291   4.735   1.692  1.6447 -2.2970  0.1616
  804MOL0     H 6126   8.583   4.669   2.003  0.4317 -0.0786 -0.0871
  804MOL0     H 6127   7.658   5.053   1.783  1.2269 -1.0123 -0.9259
  804MOL0     H 6128   7.507   5.235   1.707 -0.0364 -1.2188  0.9016
  805MOL0     O 6129   3.822   4.998   6.309  0.1106 -0.2219 -0.1338
  805MOL0     C 6130   3.855   5.109   6.266 -0.3365 -0.2854  0.2708
  805MOL0     O 6131   3.769   5.200   6.219  0.7567 -0.2163 -0.3143
  805MOL0     C 6132   3.637   5.205   6.256  0.1968  0.0624  0.1431
  805MOL0     C 6133   3.593   5.164   6.384  0.9036 -0.4098  0.0196
  805MOL0     C 6134   3.451   5.165   6.418 -0.9603 -0.6708 -0.5459
  805MOL0     C 6135   3.359   5.213   6.329 -0.1504 -0.1274  0.1618
  805MOL0     O 6136   3.237   5.225   6.388  0.6704  0.3118  0.4847
  805MOL0     C 6137   3.174   5.344   6.354  0.4228 -0.4528 -0.1036
  805MOL0     C 6138   3.042   5.362   6.424  0.3112  0.7943 -0.1019
  805MOL0     C 6139   2.945   5.245   6.391  0.3044  0.2770 -0.1740
  805MOL0     C 6140   2.802   5.254   6.447 -0.5220  0.1833 -0.9356
  805MOL0     C 6141   2.727   5.365   6.367  0.0683 -0.2862 -0.6256
  805MOL0     C 6142   2.588   5.377   6.414 -0.1794  0.3092  0.4942
  805MOL0     C 6143   2.518   5.493   6.347 -0.0540  0.0849 -0.0860
  805MOL0     C 6144   2.366   5.501   6.356 -0.2028  0.7228 -0.5831
  805MOL0     N 6145   2.320   5.633   6.323 -0.3117 -0.3145  0.3712
  805MOL0     C 6146   2.231   5.669   6.228  0.1890  0.1203 -0.2613
  805MOL0     C 6147   2.218   5.803   6.235 -1.0347 -0.0609 -0.1494
  805MOL0     C 6148   2.132   5.887   6.141  0.9500  0.4908 -0.4434
  805MOL0     C 6149   2.080   6.011   6.199  0.4222  0.4975 -1.1643
  805MOL0     C 6150   1.966   5.994   6.302 -0.2049  1.0244 -0.5274
  805MOL0     C 6151   1.957   6.125   6.386 -0.3854 -0.6978  0.0631
  805MOL0     O 6152   1.842   6.135   6.468  0.4342  0.1511 -0.9701
  805MOL0     C 6153   1.732   6.198   6.426  0.3542  1.0419 -0.0910
  805MOL0     C 6154   1.714   6.290   6.329  0.2521 -0.5924 -0.2692
  805MOL0     C 6155   1.587   6.348   6.293 -0.3565  0.7566 -0.0105
  805MOL0     C 6156   1.471   6.321   6.364  0.1080 -0.5802  0.3325
  805MOL0     C 6157   1.344   6.367   6.322 -0.1003 -1.2356 -0.1332
  805MOL0     O 6158   1.246   6.299   6.373 -0.2996  0.5166 -0.8585
  805MOL0     C 6159   1.118   6.311   6.330  0.4325 -0.2334  0.3282
  805MOL0     C 6160   1.075   6.255   6.209 -0.8161 -0.1382 -0.3205
  805MOL0     C 6161   0.949   6.274   6.167  0.4089 -0.1365  0.3822
  805MOL0     C 6162   0.850   6.329   6.249  0.2787  0.1148  0.7563
  805MOL0     O 6163   0.719   6.349   6.221 -0.4636  0.0006 -0.3949
  805MOL0     C 6164   0.667   6.324   6.094 -0.7622 -0.2677 -0.8054
  805MOL0     C 6165   0.522   6.373   6.082 -0.2715 -0.1399 -0.5030
  805MOL0     C 6166   0.421   6.267   6.118  0.0031 -0.2452  0.0848
  805MOL0     C 6167   0.285   6.335   6.117 -0.1698  0.2589 -0.4778
  805MOL0     C 6168   0.170   6.234   6.141 -0.6063 -0.2374 -0.4439
  805MOL0     C 6169   0.034   6.305   6.107  0.1115 -0.4637 -0.3491
  805MOL0     C 6170  -0.045   6.220   6.011  1.1759  0.5325  1.0534
  805MOL0     C 6171  -0.179   6.271   5.967  0.1998  0.0536  0.0603
  805MOL0    Cl 6172  -0.159   6.407   5.854 -0.3577 -0.5455  0.0266
  805MOL0     C 6173   0.883   6.365   6.377 -0.1040 -0.8403  1.1869
  805MOL0     C 6174   1.016   6.361   6.415 -0.4260  0.3355 -0.1396
  805MOL0     O 6175   1.337   6.460   6.238 -0.1577 -0.5496 -0.1149
  805MOL0     C 6176   1.490   6.228   6.469 -0.1623 -0.5062  0.1541
  805MOL0     C 6177   1.618   6.171   6.498  0.6837 -0.4219 -0.8740
  805MOL0     N 6178   2.296   5.843   6.349 -0.1446 -0.8452 -0.3974
  805MOL0     N 6179   2.355   5.744   6.394  0.0196  0.1766 -0.0267
  805MOL0     C 6180   3.409   5.256   6.203  0.2659  0.3539 -0.0916
  805MOL0     C 6181   3.541   5.251   6.165 -0.2786  0.7008  0.1614
  805MOL0     C 6182   4.002   5.145   6.250  0.2027 -0.5012  0.2286
  805MOL0     C 6183   4.102   5.108   6.346  0.6303  0.2805  0.1616
  805MOL0     C 6184   4.233   5.140   6.319 -0.5378  0.6255 -0.0321
  805MOL0     C 6185   4.272   5.219   6.210 -0.2752 -0.0015 -0.0421
  805MOL0     O 6186   4.406   5.252   6.198  0.0847  0.0709 -0.1486
  805MOL0     C 6187   4.504   5.221   6.303  0.4898 -0.0932 -0.4528
  805MOL0     C 6188   4.625   5.304   6.282 -0.1739 -0.1264 -0.1419
  805MOL0     C 6189   4.718   5.266   6.168 -0.5166 -0.3466  0.4716
  805MOL0     C 6190   4.838   5.355   6.165 -0.5752 -0.1497  0.4814
  805MOL0     C 6191   4.932   5.324   6.271  0.1234  0.7208  0.5763
  805MOL0     C 6192   5.011   5.292   6.359  0.5099 -0.0356  0.6643
  805MOL0     C 6193   4.174   5.259   6.119 -0.4251  0.0552  0.3991
  805MOL0     C 6194   4.045   5.221   6.138 -0.5134 -0.2379  0.1027
  805MOL0     H 6195   3.666   5.132   6.457  1.7235 -2.0434 -1.4611
  805MOL0     H 6196   3.431   5.136   6.521  0.9482 -0.0233  0.0348
  805MOL0     H 6197   3.144   5.343   6.249 -1.0969 -0.1055  0.2952
  805MOL0     H 6198   3.245   5.423   6.380 -0.1379  0.2427 -0.6491
  805MOL0     H 6199   2.991   5.457   6.404  0.3829  1.4415  2.3625
  805MOL0     H 6200   3.071   5.372   6.529  1.0451  3.5582 -0.4721
  805MOL0     H 6201   2.997   5.155   6.426 -1.2162 -0.2844  0.7271
  805MOL0     H 6202   2.936   5.239   6.282  3.5751 -2.3888 -0.4442
  805MOL0     H 6203   2.747   5.161   6.433 -1.1960  0.4715 -0.2956
  805MOL0     H 6204   2.810   5.277   6.554 -1.4775 -3.2045 -0.0330
  805MOL0     H 6205   2.732   5.327   6.264  0.9018  0.3522 -0.8334
  805MOL0     H 6206   2.774   5.464   6.377 -1.6658  0.3250  3.0155
  805MOL0     H 6207   2.585   5.392   6.522  0.6128 -1.3693  0.7871
  805MOL0     H 6208   2.526   5.290   6.390 -2.7724  2.1562  0.0060
  805MOL0     H 6209   2.562   5.583   6.389  0.1494 -1.2292  2.7644
  805MOL0     H 6210   2.540   5.483   6.240  0.0494 -2.7892  0.1135
  805MOL0     H 6211   2.325   5.471   6.453 -0.9502  0.9238 -0.8305
  805MOL0     H 6212   2.333   5.432   6.277  0.6185  0.5665 -0.8012
  805MOL0     H 6213   2.179   5.598   6.164  0.3327  0.7844 -1.1371
  805MOL0     H 6214   2.056   5.818   6.103  2.3219 -0.8811 -0.7604
  805MOL0     H 6215   2.180   5.904   6.044  0.0645 -1.5015 -1.2884
  805MOL0     H 6216   2.047   6.075   6.116  2.1565  0.8102 -1.6693
  805MOL0     H 6217   2.158   6.068   6.251 -1.2381  2.0427 -0.2643
  805MOL0     H 6218   1.873   5.965   6.254 -0.8078  1.6277  0.2407
  805MOL0     H 6219   1.994   5.915   6.372  0.0814  1.7461  0.1975
  805MOL0     H 6220   1.959   6.216   6.325 -3.1699  0.0273  0.8835
  805MOL0     H 6221   2.039   6.132   6.457 -0.2977  1.6860 -0.1704
  805MOL0     H 6222   1.799   6.324   6.271  0.8333  0.2919  1.0374
  805MOL0     H 6223   1.580   6.410   6.204  2.7085 -0.4351 -1.2375
  805MOL0     H 6224   1.141   6.219   6.131  2.5618  0.6884  1.9396
  805MOL0     H 6225   0.920   6.241   6.068 -3.4280 -2.8105  2.1858
  805MOL0     H 6226   0.666   6.215   6.082 -0.8421 -0.2805 -0.6939
  805MOL0     H 6227   0.738   6.367   6.023  0.2780 -0.4366  0.1006
  805MOL0     H 6228   0.501   6.399   5.978 -0.0447  2.4312  0.0243
  805MOL0     H 6229   0.511   6.468   6.137 -1.2331 -1.1461  1.1169
  805MOL0     H 6230   0.434   6.232   6.220 -0.9299  1.0081  0.6523
  805MOL0     H 6231   0.432   6.185   6.046  0.5248  0.2083 -0.3633
  805MOL0     H 6232   0.283   6.420   6.185 -1.6983  1.6728 -2.1778
  805MOL0     H 6233   0.266   6.380   6.019  0.2674 -2.0628 -1.7210
  805MOL0     H 6234   0.182   6.208   6.247  1.6547 -1.6079 -0.9852
  805MOL0     H 6235   0.183   6.137   6.092 -1.3786 -0.1506 -0.8497
  805MOL0     H 6236   0.046   6.407   6.069 -0.1651 -0.7429 -1.2268
  805MOL0     H 6237  -0.028   6.307   6.197  1.0578 -1.5817  0.3517
  805MOL0     H 6238   0.007   6.209   5.915 -1.0130  1.1377 -0.2665
  805MOL0     H 6239  -0.065   6.129   6.068 -0.1933  1.1974  1.6869
  805MOL0     H 6240  -0.237   6.298   6.055  2.3956  0.2682  1.5384
  805MOL0     H 6241  -0.237   6.192   5.920 -2.0407 -0.3969  3.2479
  805MOL0     H 6242   0.814   6.421   6.438 -2.1338 -0.3891 -1.3510
  805MOL0     H 6243   1.044   6.406   6.510 -0.1770  1.4903 -0.7490
  805MOL0     H 6244   1.404   6.195   6.526 -0.3874 -1.1630 -0.5393
  805MOL0     H 6245   1.620   6.093   6.573  0.4809  1.3266  1.0294
  805MOL0     H 6246   3.326   5.301   6.149 -0.4190 -0.5700  0.1633
  805MOL0     H 6247   3.575   5.292   6.070 -0.6740  3.0760  0.9850
  805MOL0     H 6248   4.072   5.044   6.428  0.3836 -0.2462 -0.3295
  805MOL0     H 6249   4.308   5.103   6.388  0.3397 -0.3757 -1.4672
  805MOL0     H 6250   4.539   5.117   6.304  0.1092 -0.2190  0.0460
  805MOL0     H 6251   4.463   5.230   6.404 -0.9399  0.3833 -1.0568
  805MOL0     H 6252   4.601   5.410   6.268  0.4473 -0.2209 -2.1661
  805MOL0     H 6253   4.688   5.301   6.372 -1.0370  0.3454  0.4906
  805MOL0     H 6254   4.664   5.267   6.073 -2.6404  0.2617  1.6223
  805MOL0     H 6255   4.750   5.163   6.190  0.2117  0.0890  1.5182
  805MOL0     H 6256   4.899   5.348   6.074  1.1235  0.4944  1.5211
  805MOL0     H 6257   4.807   5.460   6.161 -1.0579 -0.2193  2.0661
  805MOL0     H 6258   5.079   5.259   6.434  0.7554 -2.7705 -0.6295
  805MOL0     H 6259   4.200   5.333   6.044  1.9622 -0.5941  0.5052
  805MOL0     H 6260   3.973   5.248   6.062  0.2545  1.4162 -0.0952
  806MOL0     O 6261   0.934   7.207   2.877  0.1160  0.1177  0.3605
  806MOL0     C 6262   0.929   7.296   2.960  0.0357  0.8013  0.0870
  806MOL0     O 6263   0.810   7.340   3.024  0.5147  0.2967 -0.8115
  806MOL0     C 6264   0.685   7.277   3.009 -0.3034 -0.0532  0.5474
  806MOL0     C 6265   0.676   7.144   2.978  0.6383  0.7184  0.8164
  806MOL0     C 6266   0.552   7.091   2.937 -0.9947  0.1019  0.2855
  806MOL0     C 6267   0.438   7.177   2.923 -0.0453 -0.1236  0.9379
  806MOL0     O 6268   0.309   7.134   2.881  0.0390  0.2510  0.4173
  806MOL0     C 6269   0.267   6.993   2.872 -0.1452  0.2298 -0.9383
  806MOL0     C 6270   0.120   6.993   2.849 -0.6492  0.4331 -0.4817
  806MOL0     C 6271   0.078   6.854   2.861  0.0155  0.3473  0.4593
  806MOL0     C 6272  -0.067   6.844   2.876 -0.2627  0.7934 -0.0860
  806MOL0     C 6273  -0.109   6.696   2.887 -0.4362 -0.7900 -0.9084
  806MOL0     C 6274  -0.256   6.686   2.903  0.7314  0.1938 -0.4385
  806MOL0     C 6275  -0.305   6.537   2.926 -0.0296 -0.1178  0.7189
  806MOL0     C 6276  -0.233   6.429   2.847 -0.2900  0.1116  0.0748
  806MOL0     N 6277  -0.280   6.292   2.877  0.7760 -0.6258  0.4681
  806MOL0     C 6278  -0.388   6.235   2.814 -0.2776  1.0564 -0.2722
  806MOL0     C 6279  -0.379   6.102   2.859  0.0610 -0.3516  0.3624
  806MOL0     C 6280  -0.485   6.006   2.817  0.1217  0.1682  0.4380
  806MOL0     C 6281  -0.494   5.879   2.901  0.2006 -0.0701  0.1641
  806MOL0     C 6282  -0.610   5.786   2.849 -1.1055 -0.4980 -0.5672
  806MOL0     C 6283  -0.606   5.656   2.926 -0.2096 -0.0307  0.6168
  806MOL0     O 6284  -0.703   5.563   2.876 -0.3709  0.0283 -0.2938
  806MOL0     C 6285  -0.828   5.557   2.925  1.2219 -0.4606  0.2713
  806MOL0     C 6286  -0.893   5.432   2.913 -0.2706  0.1722 -0.0513
  806MOL0     C 6287  -1.024   5.407   2.957 -0.6718  0.7248  0.1788
  806MOL0     C 6288  -1.106   5.514   3.005  0.0646 -0.2731 -0.6765
  806MOL0     C 6289  -1.256   5.490   3.037  0.1651 -0.4115  0.6480
  806MOL0     O 6290  -1.270   5.363   3.082 -0.5824  0.1688 -0.1449
  806MOL0     C 6291  -1.391   5.313   3.092  0.6698 -0.2167  0.2330
  806MOL0     C 6292  -1.483   5.372   3.171  0.0384 -0.2723 -0.0409
  806MOL0     C 6293  -1.610   5.313   3.187 -0.2015 -0.5021  0.3624
  806MOL0     C 6294  -1.645   5.192   3.132  0.4242 -0.2464  0.0015
  806MOL0     O 6295  -1.769   5.136   3.144  0.0461 -1.0029  0.1250
  806MOL0     C 6296  -1.855   5.145   3.264  0.3552 -0.9445 -0.0248
  806MOL0     C 6297  -1.982   5.067   3.220 -0.1969 -0.4057 -0.5955
  806MOL0     C 6298  -2.056   5.132   3.097  0.4790 -0.5377 -0.5580
  806MOL0     C 6299  -2.207   5.098   3.093  0.6531 -0.4679 -0.1625
  806MOL0     C 6300  -2.266   5.117   2.954  0.5166 -0.2877  0.5363
  806MOL0     C 6301  -2.366   5.005   2.922  0.8609  0.0541  0.1323
  806MOL0     C 6302  -2.484   5.010   3.021  0.1038 -0.8327 -1.0246
  806MOL0     C 6303  -2.588   4.906   2.990  0.6060 -0.2563  0.2437
  806MOL0    Cl 6304  -2.514   4.751   2.992  0.2253 -0.1408 -0.5016
  806MOL0     C 6305  -1.553   5.134   3.049  0.4582  0.6421 -0.5626
  806MOL0     C 6306  -1.425   5.194   3.025  0.3259 -0.1844  0.3306
  806MOL0     O 6307  -1.346   5.573   2.999  0.3346 -0.7562 -0.3945
  806MOL0     C 6308  -1.048   5.641   3.019 -0.8201 -0.1972  0.5022
  806MOL0     C 6309  -0.914   5.656   2.977  0.0108  0.3521  0.3726
  806MOL0     N 6310  -0.273   6.083   2.941 -0.2308 -0.4790  0.0026
  806MOL0     N 6311  -0.214   6.197   2.944  0.2869 -0.3063  0.2222
  806MOL0     C 6312   0.447   7.309   2.962 -0.2060 -0.2859 -0.3570
  806MOL0     C 6313   0.568   7.362   3.001 -0.6262 -0.1913 -0.5787
  806MOL0     C 6314   1.052   7.365   3.001 -0.3077  0.9165 -0.2622
  806MOL0     C 6315   1.180   7.342   2.944  0.5690 -0.2903 -0.6987
  806MOL0     C 6316   1.295   7.422   2.987  0.0039 -0.0367  0.0119
  806MOL0     C 6317   1.280   7.526   3.086 -0.1237 -0.1686 -0.0387
  806MOL0     O 6318   1.373   7.615   3.128  0.1652 -0.3535  0.1056
  806MOL0     C 6319   1.494   7.629   3.052 -0.2447 -0.6289 -0.6149
  806MOL0     C 6320   1.588   7.739   3.093  0.7151 -0.0942 -0.6970
  806MOL0     C 6321   1.697   7.769   2.982 -0.0336 -0.0721  0.9533
  806MOL0     C 6322   1.827   7.829   3.037  0.6760  0.2796  0.7585
  806MOL0     C 6323   1.800   7.954   3.094 -0.4869 -0.5884 -0.6062
  806MOL0     C 6324   1.775   8.063   3.132  0.1412  0.5243  0.3936
  806MOL0     C 6325   1.153   7.534   3.142 -0.0847 -0.4453 -0.1063
  806MOL0     C 6326   1.038   7.462   3.099  0.7130 -0.9275 -0.4037
  806MOL0     H 6327   0.762   7.078   2.970 -0.2490 -0.2743 -1.6665
  806MOL0     H 6328   0.545   6.983   2.928  0.9623 -0.0742  0.2571
  806MOL0     H 6329   0.277   6.960   2.976 -0.5087  1.2519 -0.5716
  806MOL0     H 6330   0.326   6.940   2.797 -2.0806 -2.6158 -0.6046
  806MOL0     H 6331   0.091   7.046   2.759 -2.9859  1.5593  0.8558
  806MOL0     H 6332   0.071   7.045   2.932  0.7795  2.2902 -0.7286
  806MOL0     H 6333   0.114   6.810   2.954  0.7227 -0.0221  0.0224
  806MOL0     H 6334   0.110   6.799   2.772  1.1177  0.6539  0.6578
  806MOL0     H 6335  -0.113   6.887   2.966 -2.8222 -0.3068 -0.7679
  806MOL0     H 6336  -0.123   6.899   2.799  0.1512  1.5518  0.1475
  806MOL0     H 6337  -0.075   6.656   2.983  0.3068 -0.6228 -1.1002
  806MOL0     H 6338  -0.075   6.629   2.807  1.1202 -1.8402  0.5631
  806MOL0     H 6339  -0.307   6.735   2.820  0.1103 -1.3720 -1.0071
  806MOL0     H 6340  -0.294   6.736   2.993 -2.3622 -0.9541 -0.9674
  806MOL0     H 6341  -0.299   6.513   3.033 -0.1835 -0.4405  0.6552
  806MOL0     H 6342  -0.409   6.525   2.894  0.4283  0.4960 -1.1291
  806MOL0     H 6343  -0.126   6.428   2.869 -0.2017  0.8168 -0.3257
  806MOL0     H 6344  -0.246   6.446   2.740  0.2137 -1.5880 -0.3041
  806MOL0     H 6345  -0.446   6.285   2.738 -1.0654  0.6158  0.0229
  806MOL0     H 6346  -0.476   5.982   2.711 -2.6351  1.0666 -0.0890
  806MOL0     H 6347  -0.586   6.049   2.822 -0.2185 -0.4870 -0.4955
  806MOL0     H 6348  -0.516   5.899   3.007  3.7019 -0.3409  1.0831
  806MOL0     H 6349  -0.397   5.831   2.887  0.3282  0.4374 -0.7269
  806MOL0     H 6350  -0.710   5.829   2.862  0.6907  3.1233  3.4737
  806MOL0     H 6351  -0.596   5.763   2.743 -1.9114 -1.8437 -0.4122
  806MOL0     H 6352  -0.627   5.682   3.031 -1.2121  0.4411  0.3156
  806MOL0     H 6353  -0.510   5.605   2.926 -1.0741 -1.7661 -0.7769
  806MOL0     H 6354  -0.834   5.348   2.877  0.4824  1.3998 -1.8466
  806MOL0     H 6355  -1.069   5.310   2.936  2.1919 -0.5726 -0.3417
  806MOL0     H 6356  -1.473   5.472   3.214 -3.8480  0.2164  0.1515
  806MOL0     H 6357  -1.687   5.367   3.240  1.6348  1.6650  0.9881
  806MOL0     H 6358  -1.886   5.243   3.301 -2.2695 -0.5655 -2.8608
  806MOL0     H 6359  -1.812   5.094   3.350  0.5749  2.3954  2.0234
  806MOL0     H 6360  -2.050   5.068   3.306  0.7925 -1.5403  0.2372
  806MOL0     H 6361  -1.945   4.968   3.193  2.5803  0.6560 -1.0247
  806MOL0     H 6362  -2.009   5.096   3.006  1.4906 -1.7538  0.4173
  806MOL0     H 6363  -2.040   5.240   3.108 -1.3261 -0.1453 -1.4352
  806MOL0     H 6364  -2.223   4.998   3.134  2.4463 -0.2823  1.1090
  806MOL0     H 6365  -2.259   5.171   3.156 -2.5495 -1.0788 -1.8580
  806MOL0     H 6366  -2.188   5.111   2.878 -0.1419 -0.9812 -0.1117
  806MOL0     H 6367  -2.315   5.214   2.944  2.5043  0.6340 -0.8879
  806MOL0     H 6368  -2.317   4.907   2.923 -1.5140 -1.2154 -0.5695
  806MOL0     H 6369  -2.386   5.012   2.815  0.8000 -2.4967 -0.0826
  806MOL0     H 6370  -2.443   4.991   3.120  1.1036  1.0250 -1.0231
  806MOL0     H 6371  -2.532   5.108   3.024  2.0566  0.1554  1.4392
  806MOL0     H 6372  -2.630   4.935   2.893 -0.0679 -0.2700  0.5212
  806MOL0     H 6373  -2.671   4.905   3.061  0.9588 -1.8786  0.6898
  806MOL0     H 6374  -1.576   5.042   2.996  0.7402  0.8444 -1.0391
  806MOL0     H 6375  -1.368   5.149   2.945 -0.9460 -1.9428  0.3629
  806MOL0     H 6376  -1.113   5.726   3.038 -0.6951  0.1349 -0.5030
  806MOL0     H 6377  -0.875   5.757   2.980 -0.3217  0.5391 -0.8235
  806MOL0     H 6378   0.357   7.369   2.948  0.3067 -0.0395 -3.2298
  806MOL0     H 6379   0.575   7.466   3.032  1.4421 -0.7571  1.1055
  806MOL0     H 6380   1.202   7.276   2.861  1.8142 -1.6452  0.6483
  806MOL0     H 6381   1.383   7.401   2.928 -1.4010 -1.8544 -1.5535
  806MOL0     H 6382   1.456   7.661   2.954  0.2449  1.9498 -0.0189
  806MOL0     H 6383   1.550   7.535   3.043  1.5899  0.2622  0.8960
  806MOL0     H 6384   1.537   7.833   3.115  2.2295  0.7425 -0.6344
  806MOL0     H 6385   1.630   7.707   3.188  0.1668 -0.2314 -0.4967
  806MOL0     H 6386   1.654   7.846   2.917 -1.2486  1.2075  3.1515
  806MOL0     H 6387   1.717   7.686   2.914 -0.3997  1.4594 -1.1462
  806MOL0     H 6388   1.864   7.756   3.110  3.2312  1.0647  0.3520
  806MOL0     H 6389   1.896   7.850   2.955  0.3549  1.1347  0.6933
  806MOL0     H 6390   1.756   8.158   3.178 -1.1783  1.8646 -2.6375
  806MOL0     H 6391   1.140   7.614   3.215 -0.2684 -0.1713 -0.4348
  806MOL0     H 6392   0.945   7.494   3.144  1.5527 -2.6451  2.9410
  807MOL0     O 6393   9.690   3.614  10.325  0.8432  0.0550  0.5401
  807MOL0     C 6394   9.738   3.658  10.428  0.0976  0.5065 -0.2076
  807MOL0     O 6395   9.664   3.712  10.531 -0.1547  0.2896  0.1719
  807MOL0     C 6396   9.535   3.739  10.512  1.0216  0.4109  0.5673
  807MOL0     C 6397   9.491   3.799  10.396  0.1453 -0.5950  0.0340
  807MOL0     C 6398   9.357   3.833  10.388 -0.7608 -0.1031 -0.2552
  807MOL0     C 6399   9.270   3.813  10.497 -0.3386  0.3337 -0.2299
  807MOL0     O 6400   9.145   3.861  10.481  0.7087  0.1280  0.0569
  807MOL0     C 6401   9.051   3.872  10.591  0.6176  0.1216 -0.5361
  807MOL0     C 6402   8.916   3.917  10.542  1.1890 -0.7199  0.2271
  807MOL0     C 6403   8.909   4.035  10.449  0.5030 -0.1085 -0.1305
  807MOL0     C 6404   8.769   4.092  10.431 -0.2823  0.9167  0.5419
  807MOL0     C 6405   8.763   4.206  10.331  0.3494 -0.1990 -0.0306
  807MOL0     C 6406   8.622   4.261  10.298  0.0823 -0.3591  0.5576
  807MOL0     C 6407   8.626   4.384  10.218  0.2715 -0.1777 -0.1898
  807MOL0     C 6408   8.706   4.506  10.276  0.2261  0.8779  0.3681
  807MOL0     N 6409   8.682   4.620  10.186  0.6312 -0.4311 -0.4606
  807MOL0     C 6410   8.649   4.621  10.053  0.0915 -0.2357  0.2204
  807MOL0     C 6411   8.659   4.755  10.014 -0.0862 -0.7278 -0.3033
  807MOL0     C 6412   8.627   4.804   9.876 -0.0836 -0.3740 -0.7298
  807MOL0     C 6413   8.492   4.867   9.876  0.4736 -0.9958 -0.2194
  807MOL0     C 6414   8.436   4.843   9.739  0.0537 -0.0105 -0.1103
  807MOL0     C 6415   8.295   4.897   9.708  1.0592  0.9493  0.7675
  807MOL0     O 6416   8.198   4.815   9.775  0.0249 -0.3656 -0.6872
  807MOL0     C 6417   8.063   4.842   9.774 -0.0196 -0.0620  0.1555
  807MOL0     C 6418   7.996   4.917   9.690 -0.4731  0.8092  0.0997
  807MOL0     C 6419   7.853   4.924   9.690  0.0405  0.4048  0.3511
  807MOL0     C 6420   7.783   4.844   9.786 -0.0995  0.1529  0.0305
  807MOL0     C 6421   7.641   4.841   9.800  0.3619 -0.0966  0.0927
  807MOL0     O 6422   7.571   4.938   9.729  0.5226 -0.0821 -0.1541
  807MOL0     C 6423   7.438   4.950   9.772  0.5405 -0.7401 -0.1694
  807MOL0     C 6424   7.344   4.849   9.755  0.8881  0.1847  0.1980
  807MOL0     C 6425   7.203   4.875   9.775 -0.4539 -0.1802 -0.4300
  807MOL0     C 6426   7.158   5.002   9.806 -0.0147  0.0189  0.6165
  807MOL0     O 6427   7.025   5.029   9.828  0.1272  0.0571  0.0205
  807MOL0     C 6428   6.925   4.944   9.772 -0.3416  0.6283  0.9780
  807MOL0     C 6429   6.794   5.017   9.797  0.0635  1.2147 -0.6153
  807MOL0     C 6430   6.763   5.024   9.943  0.0833 -0.2990  0.5359
  807MOL0     C 6431   6.626   5.086   9.975 -0.5421 -0.9478  0.5862
  807MOL0     C 6432   6.588   5.063  10.123 -0.4639  0.0220 -0.9955
  807MOL0     C 6433   6.482   5.173  10.160 -0.6695 -0.1030 -0.7981
  807MOL0     C 6434   6.452   5.169  10.304  0.0379 -0.2732 -0.2316
  807MOL0     C 6435   6.329   5.261  10.325  0.0696  0.8959 -1.0198
  807MOL0    Cl 6436   6.187   5.181  10.250 -0.6462  0.1408  0.0668
  807MOL0     C 6437   7.256   5.101   9.824  0.8967 -0.4479  0.0337
  807MOL0     C 6438   7.390   5.075   9.802  0.4853  0.7852  0.2186
  807MOL0     O 6439   7.590   4.746   9.861  0.4476 -0.0599 -0.4337
  807MOL0     C 6440   7.859   4.762   9.866 -0.6918 -0.0337  0.9573
  807MOL0     C 6441   7.996   4.759   9.862 -0.3930  0.0385  0.1578
  807MOL0     N 6442   8.707   4.831  10.120 -0.0329  0.0364  0.6102
  807MOL0     N 6443   8.715   4.752  10.216  0.3508  0.0466 -0.2960
  807MOL0     C 6444   9.317   3.770  10.618  0.3875  0.5895  0.1569
  807MOL0     C 6445   9.449   3.731  10.628 -0.3420 -0.1079 -0.5331
  807MOL0     C 6446   9.885   3.618  10.458 -0.1255  0.4260 -0.3445
  807MOL0     C 6447   9.950   3.538  10.361  1.3284  1.0307 -0.0567
  807MOL0     C 6448  10.085   3.520  10.361  0.4947 -0.1057 -0.5404
  807MOL0     C 6449  10.156   3.561  10.466  0.9288  0.7839 -0.8712
  807MOL0     O 6450  10.294   3.540  10.477  0.2769 -0.7156 -0.1304
  807MOL0     C 6451  10.346   3.449  10.380 -0.0887 -0.5004 -0.2898
  807MOL0     C 6452  10.489   3.407  10.423  0.1770  0.2772 -0.3922
  807MOL0     C 6453  10.586   3.520  10.403  0.2836 -0.0340 -0.1044
  807MOL0     C 6454  10.722   3.506  10.460 -0.0938  0.2810  0.0517
  807MOL0     C 6455  10.808   3.616  10.418  0.0220  0.6431 -0.3615
  807MOL0     C 6456  10.872   3.705  10.360 -0.0558  0.4624  0.1145
  807MOL0     C 6457  10.098   3.637  10.563 -0.2940  0.9440  0.4796
  807MOL0     C 6458   9.966   3.671  10.557  0.1346 -0.3537 -0.1134
  807MOL0     H 6459   9.561   3.826  10.318 -0.1261  0.3372  0.1075
  807MOL0     H 6460   9.332   3.869  10.289 -0.5114 -0.4749 -0.4593
  807MOL0     H 6461   9.082   3.948  10.663 -2.2409  1.3625 -0.4896
  807MOL0     H 6462   9.045   3.777  10.645 -2.0894  0.9866  0.8388
  807MOL0     H 6463   8.858   3.938  10.633  2.1255 -0.5496  0.8018
  807MOL0     H 6464   8.866   3.828  10.503 -0.1844 -0.3748  1.1117
  807MOL0     H 6465   8.948   4.009  10.350  1.3223  1.3453 -0.2213
  807MOL0     H 6466   8.967   4.123  10.480 -2.7316  2.4562 -0.8191
  807MOL0     H 6467   8.700   4.012  10.399 -0.9526  1.0795  1.5189
  807MOL0     H 6468   8.736   4.126  10.530  5.9536  1.0190  3.0525
  807MOL0     H 6469   8.816   4.170  10.242 -0.5448 -2.1994  0.2028
  807MOL0     H 6470   8.833   4.285  10.362  1.0350 -0.1279 -1.6741
  807MOL0     H 6471   8.575   4.291  10.392 -0.8605 -1.1797  0.3639
  807MOL0     H 6472   8.569   4.174  10.257 -2.6239  0.5282  1.9533
  807MOL0     H 6473   8.673   4.358  10.122 -0.4794  1.2318 -0.9758
  807MOL0     H 6474   8.526   4.420  10.195  0.9789  2.1272  0.1094
  807MOL0     H 6475   8.815   4.498  10.274  0.4158  2.9179  0.2466
  807MOL0     H 6476   8.664   4.521  10.376  1.1548 -1.4381  1.1884
  807MOL0     H 6477   8.618   4.541   9.986 -0.6829  0.2529 -0.0142
  807MOL0     H 6478   8.633   4.717   9.811 -2.4042 -0.4838 -0.8865
  807MOL0     H 6479   8.701   4.882   9.852 -0.1740 -0.4276 -1.1850
  807MOL0     H 6480   8.508   4.974   9.891  1.3561 -0.7729 -2.3746
  807MOL0     H 6481   8.416   4.830   9.945 -0.3875  2.3231  0.8344
  807MOL0     H 6482   8.501   4.879   9.659  0.9858  0.8456  1.0032
  807MOL0     H 6483   8.428   4.735   9.722 -1.5394  0.2059 -0.8561
  807MOL0     H 6484   8.286   4.893   9.599  1.7076 -0.6220  0.7451
  807MOL0     H 6485   8.286   4.998   9.748  0.1321  1.2408 -0.1355
  807MOL0     H 6486   8.052   4.976   9.618  0.0932 -2.1525 -2.1067
  807MOL0     H 6487   7.803   5.004   9.636  0.5771  0.2898 -0.3301
  807MOL0     H 6488   7.353   4.748   9.716 -0.1717  0.0108  0.3719
  807MOL0     H 6489   7.132   4.796   9.751 -2.1934  0.9456  0.7955
  807MOL0     H 6490   6.921   4.846   9.821  0.6836 -1.2594 -2.3571
  807MOL0     H 6491   6.938   4.928   9.664  0.2510 -0.3355  1.1784
  807MOL0     H 6492   6.714   4.977   9.734  0.3187 -2.1416  0.9589
  807MOL0     H 6493   6.822   5.116   9.758  3.8212 -0.3334 -2.4140
  807MOL0     H 6494   6.835   5.090   9.992 -0.1440 -0.8514  1.6606
  807MOL0     H 6495   6.764   4.921   9.980 -3.5393 -0.5353  0.4122
  807MOL0     H 6496   6.626   5.191   9.945  2.0402 -1.1475 -0.3919
  807MOL0     H 6497   6.546   5.040   9.916 -0.1862 -0.7340 -0.0716
  807MOL0     H 6498   6.677   5.081  10.184 -1.2221  0.1674  0.0957
  807MOL0     H 6499   6.544   4.966  10.147  1.4172 -0.9763 -1.3683
  807MOL0     H 6500   6.394   5.164  10.097 -2.7206  1.8616  1.5692
  807MOL0     H 6501   6.517   5.274  10.138 -1.7361  0.6013  0.5376
  807MOL0     H 6502   6.433   5.066  10.336  0.8761  0.7010  4.0163
  807MOL0     H 6503   6.529   5.212  10.368  0.3089  1.8844 -1.9016
  807MOL0     H 6504   6.340   5.366  10.297 -0.7437  0.6334 -2.4029
  807MOL0     H 6505   6.311   5.251  10.433  0.2681 -3.2038 -1.2243
  807MOL0     H 6506   7.225   5.203   9.839 -1.9068 -0.9701 -1.5578
  807MOL0     H 6507   7.460   5.158   9.810  0.7837  0.7414 -1.5380
  807MOL0     H 6508   7.811   4.691   9.932  0.0390 -1.0937  0.3737
  807MOL0     H 6509   8.045   4.692   9.932  2.1870  0.9171 -0.7003
  807MOL0     H 6510   9.249   3.744  10.699 -0.7886 -1.4378 -1.3645
  807MOL0     H 6511   9.496   3.708  10.723  0.6472  2.4811 -0.3097
  807MOL0     H 6512   9.901   3.484  10.281  0.6563  0.2035  0.8820
  807MOL0     H 6513  10.124   3.461  10.279 -1.5739  1.3634 -2.7363
  807MOL0     H 6514  10.342   3.481  10.276 -0.2128 -0.1219 -0.1701
  807MOL0     H 6515  10.281   3.361  10.382 -1.0171  0.0300 -3.0657
  807MOL0     H 6516  10.478   3.374  10.526  1.5218 -2.3725 -1.0065
  807MOL0     H 6517  10.518   3.323  10.359 -1.1264 -1.0229  0.6699
  807MOL0     H 6518  10.551   3.618  10.435  1.0889  1.5417 -3.5670
  807MOL0     H 6519  10.597   3.525  10.294 -0.7058 -0.4795 -0.2381
  807MOL0     H 6520  10.708   3.508  10.568 -2.0208  0.2756 -0.1673
  807MOL0     H 6521  10.768   3.409  10.437  3.2420  1.0376  2.7538
  807MOL0     H 6522  10.928   3.788  10.321 -1.7475  2.4679  1.7118
  807MOL0     H 6523  10.173   3.654  10.639 -0.3094 -1.4246  1.1138
  807MOL0     H 6524   9.930   3.737  10.636  0.9397 -1.2957  1.0823
  808MOL0     O 6525   1.485   3.008  10.069 -0.6207  0.0194  0.6136
  808MOL0     C 6526   1.410   3.052   9.984  0.1393 -0.3355 -0.0674
  808MOL0     O 6527   1.446   3.159   9.909 -0.6088  0.3693  0.4163
  808MOL0     C 6528   1.579   3.178   9.898 -0.3519  0.0870 -0.3147
  808MOL0     C 6529   1.659   3.274   9.965 -0.3423 -0.1631 -1.3417
  808MOL0     C 6530   1.796   3.294   9.933  0.0667  0.0490 -0.2996
  808MOL0     C 6531   1.857   3.217   9.825 -0.4889  0.2728  0.2111
  808MOL0     O 6532   1.981   3.247   9.776 -0.2498 -0.3202 -0.9216
  808MOL0     C 6533   2.047   3.164   9.675  0.1245  0.7954 -0.2561
  808MOL0     C 6534   2.183   3.223   9.636  0.8412 -0.8042  0.4803
  808MOL0     C 6535   2.278   3.237   9.753 -0.4137 -0.2434 -0.3300
  808MOL0     C 6536   2.404   3.291   9.700 -0.5011 -0.2260  0.2123
  808MOL0     C 6537   2.420   3.441   9.704  0.6574 -0.6452  0.0275
  808MOL0     C 6538   2.550   3.501   9.650  0.1783  0.2434  0.2555
  808MOL0     C 6539   2.681   3.438   9.702 -0.1760 -0.0800 -0.1913
  808MOL0     C 6540   2.733   3.323   9.620 -0.1851  0.2016 -0.8957
  808MOL0     N 6541   2.750   3.351   9.483  0.1564 -0.3745 -0.0175
  808MOL0     C 6542   2.842   3.440   9.428  0.5846  0.6759  0.4568
  808MOL0     C 6543   2.817   3.450   9.300  0.4683 -0.1959  0.0054
  808MOL0     C 6544   2.898   3.530   9.207 -0.3008 -1.5340  0.0577
  808MOL0     C 6545   2.807   3.646   9.150  0.6047  0.6713 -0.0670
  808MOL0     C 6546   2.756   3.753   9.249 -0.1230 -0.5255  0.3814
  808MOL0     C 6547   2.618   3.727   9.306  0.1376 -0.3069  0.0795
  808MOL0     O 6548   2.596   3.824   9.410 -0.6051 -0.1118  0.7224
  808MOL0     C 6549   2.483   3.825   9.487 -0.2684 -0.4360  0.2452
  808MOL0     C 6550   2.369   3.768   9.437 -0.0729 -0.3797  0.3648
  808MOL0     C 6551   2.257   3.778   9.515 -0.4541 -0.5074  0.5805
  808MOL0     C 6552   2.259   3.845   9.636 -0.5169 -0.7631  0.1240
  808MOL0     C 6553   2.146   3.843   9.726  0.1835 -0.5428 -0.0707
  808MOL0     O 6554   2.051   3.746   9.715 -0.2273  0.4890  1.0050
  808MOL0     C 6555   1.929   3.753   9.775 -0.6900 -0.0298  0.2066
  808MOL0     C 6556   1.848   3.862   9.770 -0.5628  0.0414 -0.5462
  808MOL0     C 6557   1.710   3.850   9.802 -0.5282 -0.1631  0.4117
  808MOL0     C 6558   1.651   3.730   9.841 -0.5280  0.9412 -0.1546
  808MOL0     O 6559   1.520   3.736   9.876 -0.2310  0.1757 -0.2341
  808MOL0     C 6560   1.438   3.620   9.869  0.3159  0.2512 -0.2918
  808MOL0     C 6561   1.304   3.662   9.815  0.1135  0.5917  0.9463
  808MOL0     C 6562   1.206   3.537   9.811 -0.3889 -0.1599  0.3692
  808MOL0     C 6563   1.139   3.510   9.947  0.6458 -0.6360  0.5146
  808MOL0     C 6564   1.070   3.373   9.926  0.1978 -0.3759  0.4573
  808MOL0     C 6565   1.002   3.325  10.051 -0.3712 -0.1809 -0.6686
  808MOL0     C 6566   0.905   3.421  10.118  0.2530 -0.2094 -1.4509
  808MOL0     C 6567   0.803   3.354  10.213  0.0995  0.0807  0.9687
  808MOL0    Cl 6568   0.897   3.251  10.325 -0.1063  0.3161 -0.1335
  808MOL0     C 6569   1.731   3.620   9.848  0.3009  0.0621  0.4603
  808MOL0     C 6570   1.872   3.632   9.814 -0.2146 -0.0380  1.7321
  808MOL0     O 6571   2.147   3.924   9.816  0.0183 -0.3006  0.0540
  808MOL0     C 6572   2.377   3.913   9.676  0.1060 -0.6230 -0.3372
  808MOL0     C 6573   2.493   3.899   9.603  0.0325  0.4317  0.0384
  808MOL0     N 6574   2.698   3.384   9.276  0.7478  1.0246  0.6897
  808MOL0     N 6575   2.665   3.316   9.378  0.5215 -0.4293  0.3459
  808MOL0     C 6576   1.780   3.124   9.759  0.1084  0.0643  0.1306
  808MOL0     C 6577   1.644   3.108   9.789 -0.1323  0.7968 -1.3466
  808MOL0     C 6578   1.273   3.004   9.998  0.0183  0.5145  0.2210
  808MOL0     C 6579   1.223   2.946  10.117 -0.4364 -0.5933  0.0824
  808MOL0     C 6580   1.095   2.891  10.120  0.1277  0.2332  1.6670
  808MOL0     C 6581   1.007   2.894  10.008 -1.1013 -0.0093  0.3643
  808MOL0     O 6582   0.880   2.833  10.011 -0.1530 -0.5307  0.0965
  808MOL0     C 6583   0.790   2.884  10.109  0.7734 -0.0241  0.0006
  808MOL0     C 6584   0.682   2.977  10.053  0.9105 -0.8968  0.2691
  808MOL0     C 6585   0.640   2.952   9.910  0.1086 -1.0205  0.5678
  808MOL0     C 6586   0.696   3.025   9.783 -0.2961 -0.2572  0.3895
  808MOL0     C 6587   0.678   3.174   9.803  0.7005  0.9635  0.2232
  808MOL0     C 6588   0.684   3.290   9.828  0.4511 -0.0659 -0.4291
  808MOL0     C 6589   1.060   2.947   9.884  0.3715  0.1568 -0.1824
  808MOL0     C 6590   1.190   3.010   9.886  0.0325  0.6936  0.7527
  808MOL0     H 6591   1.620   3.339  10.042  1.0074 -0.8695 -0.0004
  808MOL0     H 6592   1.858   3.372   9.976  1.8703 -0.4851 -1.7884
  808MOL0     H 6593   1.977   3.171   9.591  0.3736  0.6119 -0.4788
  808MOL0     H 6594   2.063   3.062   9.711  0.2642  0.4884 -1.1537
  808MOL0     H 6595   2.155   3.318   9.591 -2.2771 -0.4825  2.7778
  808MOL0     H 6596   2.231   3.160   9.561 -0.7177 -0.0656 -1.2134
  808MOL0     H 6597   2.301   3.134   9.783 -0.6949 -0.4034 -0.6490
  808MOL0     H 6598   2.241   3.291   9.841  2.1301  0.0463  0.6610
  808MOL0     H 6599   2.479   3.247   9.766  0.1397 -2.7375 -2.0235
  808MOL0     H 6600   2.427   3.253   9.600  2.1981  0.0098  0.6702
  808MOL0     H 6601   2.411   3.464   9.810 -1.8436 -1.4685  0.0590
  808MOL0     H 6602   2.332   3.488   9.659  0.3278 -0.3245  0.9868
  808MOL0     H 6603   2.556   3.606   9.676 -1.6996  0.5122 -0.2451
  808MOL0     H 6604   2.549   3.505   9.540 -0.0949  1.1231  0.2879
  808MOL0     H 6605   2.764   3.508   9.716 -1.4188  1.3906  0.1933
  808MOL0     H 6606   2.659   3.399   9.802 -0.6044  1.3017  0.2871
  808MOL0     H 6607   2.670   3.235   9.636  4.8316 -4.3286 -3.0974
  808MOL0     H 6608   2.823   3.291   9.673 -0.7887  0.4219  0.3054
  808MOL0     H 6609   2.918   3.486   9.490 -1.1191  2.2521  1.5090
  808MOL0     H 6610   2.924   3.468   9.121  2.0295  0.5680 -0.8611
  808MOL0     H 6611   2.992   3.569   9.247 -0.2656 -0.8904 -0.6331
  808MOL0     H 6612   2.724   3.588   9.109  0.8579  0.4055 -0.2037
  808MOL0     H 6613   2.858   3.695   9.067 -0.6661  0.8378 -0.7714
  808MOL0     H 6614   2.833   3.764   9.325  1.5528 -0.8701 -1.1946
  808MOL0     H 6615   2.766   3.847   9.193  1.4096 -0.9220 -0.0577
  808MOL0     H 6616   2.619   3.635   9.366 -2.4701  0.8863  2.1027
  808MOL0     H 6617   2.534   3.726   9.236 -0.7742  0.2712  1.1382
  808MOL0     H 6618   2.348   3.728   9.338 -2.2225  0.1708  0.5451
  808MOL0     H 6619   2.167   3.723   9.490  0.5040 -2.0464  0.4310
  808MOL0     H 6620   1.890   3.956   9.736  1.0094 -0.7190 -0.7836
  808MOL0     H 6621   1.645   3.937   9.808 -2.3953 -1.3552 -1.1502
  808MOL0     H 6622   1.426   3.584   9.972 -0.7003  0.4006 -0.3516
  808MOL0     H 6623   1.480   3.543   9.804  2.4165  1.8807 -0.9930
  808MOL0     H 6624   1.328   3.692   9.712  2.3734  0.2821  1.3390
  808MOL0     H 6625   1.264   3.742   9.878  1.8174 -0.5447  3.6643
  808MOL0     H 6626   1.258   3.445   9.783 -0.3249  0.3473 -1.3111
  808MOL0     H 6627   1.128   3.541   9.734 -0.2338  0.7852  0.2422
  808MOL0     H 6628   1.206   3.511  10.033  0.8979  2.0975  0.3603
  808MOL0     H 6629   1.067   3.590   9.965  1.1956 -0.3121  1.3084
  808MOL0     H 6630   1.143   3.302   9.887  0.3173 -1.1862  2.0527
  808MOL0     H 6631   0.990   3.381   9.852 -0.9802  1.8214  1.8703
  808MOL0     H 6632   1.082   3.292  10.118  0.8551  0.3696 -1.8065
  808MOL0     H 6633   0.945   3.234  10.029 -2.0351  0.5594  0.3732
  808MOL0     H 6634   0.972   3.487  10.175  2.9166 -1.4944 -2.9157
  808MOL0     H 6635   0.846   3.478  10.045 -2.9929  0.8206  1.6794
  808MOL0     H 6636   0.734   3.299  10.148 -0.0863  0.8790  0.4719
  808MOL0     H 6637   0.741   3.432  10.259  0.4378  1.4734 -0.8279
  808MOL0     H 6638   1.695   3.527   9.890 -0.3658  1.1482  2.3964
  808MOL0     H 6639   1.936   3.546   9.824  1.8734  1.4083  1.3536
  808MOL0     H 6640   2.382   3.977   9.763 -0.5631 -1.5975  0.4404
  808MOL0     H 6641   2.586   3.946   9.634 -0.9605  2.3579  0.2623
  808MOL0     H 6642   1.814   3.071   9.671  0.3349 -0.3290  0.4519
  808MOL0     H 6643   1.572   3.040   9.744  1.0375 -0.8686 -0.8086
  808MOL0     H 6644   1.270   2.947  10.214 -2.4027 -0.3815  1.0920
  808MOL0     H 6645   1.058   2.845  10.211  2.7277 -2.0251  1.7180
  808MOL0     H 6646   0.845   2.934  10.189  0.2871  4.6407 -2.2039
  808MOL0     H 6647   0.736   2.802  10.157 -0.8590  1.2444  0.4429
  808MOL0     H 6648   0.599   2.967  10.123 -0.4500  0.0134 -1.1533
  808MOL0     H 6649   0.729   3.075  10.066 -0.3708 -0.5312  2.5759
  808MOL0     H 6650   0.537   2.990   9.917  0.1956 -0.2723 -1.4555
  808MOL0     H 6651   0.651   2.843   9.903  0.3882 -1.2155  3.1114
  808MOL0     H 6652   0.799   2.997   9.759 -1.0677 -2.7574 -0.2749
  808MOL0     H 6653   0.638   2.990   9.696 -2.9582 -1.2375  2.4158
  808MOL0     H 6654   0.698   3.391   9.861  1.1850 -1.3412  3.8955
  808MOL0     H 6655   1.000   2.944   9.793  0.0578  0.1259  0.0250
  808MOL0     H 6656   1.220   3.069   9.800 -0.6753  0.4309  0.3202
  809MOL0     O 6657  10.705   2.903   9.369  0.0615  0.1370  0.2402
  809MOL0     C 6658  10.643   2.841   9.279  0.1843  0.2294 -0.3882
  809MOL0     O 6659  10.513   2.845   9.253  0.0942 -0.6779  0.0773
  809MOL0     C 6660  10.444   2.937   9.325  0.8563 -0.4155  0.3341
  809MOL0     C 6661  10.482   3.067   9.340  0.6154  0.5357  1.0751
  809MOL0     C 6662  10.414   3.152   9.419 -0.1788  0.5359  0.0190
  809MOL0     C 6663  10.303   3.105   9.501  0.2796  0.1401 -0.3627
  809MOL0     O 6664  10.232   3.189   9.577  0.8576  0.1422 -0.6083
  809MOL0     C 6665  10.212   3.158   9.714  1.2432 -0.2994  0.8046
  809MOL0     C 6666  10.078   3.088   9.741 -1.0139  0.6026 -0.1877
  809MOL0     C 6667   9.969   3.186   9.689  0.9670 -0.5227  0.5101
  809MOL0     C 6668   9.829   3.124   9.693 -0.0429 -0.3319  0.1606
  809MOL0     C 6669   9.722   3.183   9.600 -0.2516 -0.0910  0.2466
  809MOL0     C 6670   9.734   3.332   9.586  0.1918  0.0432  0.0401
  809MOL0     C 6671   9.606   3.387   9.514 -0.0735 -0.0840  0.1376
  809MOL0     C 6672   9.614   3.541   9.503  0.1276  0.3950  0.3876
  809MOL0     N 6673   9.471   3.584   9.485 -0.5745  0.8787 -0.7872
  809MOL0     C 6674   9.415   3.608   9.363 -0.1081 -0.1087  0.1493
  809MOL0     C 6675   9.284   3.606   9.386 -0.1447  0.2633  0.2972
  809MOL0     C 6676   9.177   3.635   9.279 -0.3944  0.8186  0.1189
  809MOL0     C 6677   9.189   3.787   9.244  0.5432 -0.6498 -0.2310
  809MOL0     C 6678   9.083   3.805   9.133 -0.6144  0.5481  0.1043
  809MOL0     C 6679   9.045   3.955   9.131 -0.1517  0.6872 -0.4170
  809MOL0     O 6680   8.953   3.973   9.025  0.3737 -0.2629  0.1556
  809MOL0     C 6681   8.874   4.084   9.019  0.8228 -1.0142 -0.6386
  809MOL0     C 6682   8.773   4.076   8.926  0.0022 -0.0739  0.2704
  809MOL0     C 6683   8.692   4.185   8.903 -0.7860 -0.9808  0.6099
  809MOL0     C 6684   8.706   4.305   8.974 -0.7174 -0.7152 -0.4874
  809MOL0     C 6685   8.608   4.417   8.952 -0.1447  0.0823 -0.4353
  809MOL0     O 6686   8.486   4.393   8.888  0.6390  0.2705  0.3151
  809MOL0     C 6687   8.395   4.493   8.890  0.2326  0.8037  0.1080
  809MOL0     C 6688   8.329   4.535   9.005 -0.3172 -0.1661 -0.4874
  809MOL0     C 6689   8.216   4.623   9.011 -0.1254  0.0551  0.1889
  809MOL0     C 6690   8.180   4.670   8.884 -0.2545 -0.8137 -0.5396
  809MOL0     O 6691   8.094   4.774   8.888 -0.7326  0.6414 -0.8795
  809MOL0     C 6692   8.008   4.791   8.772  0.2709  0.1573 -0.6107
  809MOL0     C 6693   7.910   4.902   8.820  0.0372  0.3082 -0.6421
  809MOL0     C 6694   7.805   4.945   8.720  0.6534  0.6310  0.4203
  809MOL0     C 6695   7.717   5.054   8.776  0.1978 -0.8132 -0.0516
  809MOL0     C 6696   7.598   5.085   8.683 -0.0306  0.0124 -0.5146
  809MOL0     C 6697   7.496   5.181   8.758 -1.3558  0.4888  0.3258
  809MOL0     C 6698   7.379   5.220   8.667  0.4601  0.0263  0.7515
  809MOL0     C 6699   7.270   5.303   8.722 -0.6918 -0.7869  1.0445
  809MOL0    Cl 6700   7.202   5.243   8.863 -0.1975  0.4984 -0.1356
  809MOL0     C 6701   8.244   4.631   8.766  0.1735  0.3313 -0.1704
  809MOL0     C 6702   8.349   4.537   8.769 -0.3009  0.1640  0.5554
  809MOL0     O 6703   8.638   4.533   8.985 -0.0384  0.0155  0.4908
  809MOL0     C 6704   8.805   4.309   9.077  0.0190 -0.5139  0.1466
  809MOL0     C 6705   8.891   4.201   9.100 -0.3932 -0.0442 -0.2239
  809MOL0     N 6706   9.257   3.587   9.517 -0.1671 -0.4483 -0.5746
  809MOL0     N 6707   9.377   3.575   9.579  1.4396 -0.9340 -0.3142
  809MOL0     C 6708  10.258   2.972   9.486 -0.0566 -0.1227 -0.1617
  809MOL0     C 6709  10.338   2.887   9.405  0.5350  0.5856  0.8877
  809MOL0     C 6710  10.725   2.756   9.182 -0.2923 -0.2472 -1.2010
  809MOL0     C 6711  10.866   2.768   9.172 -0.0094  0.2935  0.6042
  809MOL0     C 6712  10.932   2.691   9.082 -0.4135 -0.1449  0.5485
  809MOL0     C 6713  10.876   2.599   9.003  1.0075  0.0327  0.0731
  809MOL0     O 6714  10.941   2.519   8.912  0.8634 -0.3192  0.5909
  809MOL0     C 6715  11.088   2.492   8.907  0.0185  0.0619  0.2037
  809MOL0     C 6716  11.164   2.604   8.821 -0.7016  0.4082 -0.4883
  809MOL0     C 6717  11.291   2.542   8.761  0.0218 -0.4040 -0.1234
  809MOL0     C 6718  11.405   2.533   8.857  0.7697  0.4088  0.8796
  809MOL0     C 6719  11.446   2.659   8.932 -0.0355 -0.0897  0.1801
  809MOL0     C 6720  11.483   2.756   8.993 -0.0180  0.8781 -0.2021
  809MOL0     C 6721  10.734   2.597   9.006  0.7682 -0.6002  0.2365
  809MOL0     C 6722  10.658   2.673   9.092  0.5858  0.1487 -0.4785
  809MOL0     H 6723  10.567   3.100   9.281 -1.2391  0.8148 -1.6385
  809MOL0     H 6724  10.455   3.250   9.437  0.9323  0.2521 -0.8703
  809MOL0     H 6725  10.214   3.256   9.762 -1.2939  0.1295  0.1860
  809MOL0     H 6726  10.285   3.089   9.757 -0.6891 -2.4884  0.8112
  809MOL0     H 6727  10.069   3.100   9.850 -1.0541 -1.2355  0.0322
  809MOL0     H 6728  10.073   2.980   9.731 -1.0348  0.4497  1.2664
  809MOL0     H 6729   9.985   3.197   9.581 -1.7118  1.1919  0.1892
  809MOL0     H 6730   9.965   3.283   9.739 -1.7889  0.4195 -1.3017
  809MOL0     H 6731   9.828   3.016   9.676 -3.1098 -0.2818 -0.5804
  809MOL0     H 6732   9.796   3.140   9.797  3.0326  2.4397  0.8873
  809MOL0     H 6733   9.619   3.159   9.630 -0.5156 -1.5348 -1.6163
  809MOL0     H 6734   9.717   3.133   9.503 -2.1935 -0.6141  0.5793
  809MOL0     H 6735   9.826   3.366   9.538  0.3394  1.3612  1.2034
  809MOL0     H 6736   9.742   3.373   9.687 -0.2085  0.2965 -0.0326
  809MOL0     H 6737   9.590   3.342   9.416 -1.7423 -0.3795  0.5193
  809MOL0     H 6738   9.523   3.353   9.577 -1.7572 -0.4901 -2.1614
  809MOL0     H 6739   9.669   3.582   9.418 -1.5613 -1.0294 -1.4957
  809MOL0     H 6740   9.656   3.589   9.592  2.6763  0.0910 -0.5647
  809MOL0     H 6741   9.471   3.627   9.272  2.0881  0.6588  1.5769
  809MOL0     H 6742   9.081   3.603   9.319 -0.6156  0.9790 -0.2800
  809MOL0     H 6743   9.201   3.572   9.193  2.4860  4.4280 -2.0356
  809MOL0     H 6744   9.292   3.812   9.216  0.9920  0.8675  2.4074
  809MOL0     H 6745   9.159   3.845   9.332 -0.2407  2.0631 -2.1590
  809MOL0     H 6746   9.109   3.779   9.030 -0.7926  0.6650  0.0284
  809MOL0     H 6747   8.999   3.741   9.163 -0.3233  1.2964  2.8180
  809MOL0     H 6748   9.132   4.021   9.122  1.0471 -0.5801  1.2228
  809MOL0     H 6749   8.994   3.973   9.226  0.2947  1.0493 -0.2477
  809MOL0     H 6750   8.758   3.985   8.870 -0.6407 -0.1922  0.6238
  809MOL0     H 6751   8.616   4.178   8.825 -0.9777 -1.2766  0.8210
  809MOL0     H 6752   8.363   4.479   9.091  1.2065  1.5216  0.0716
  809MOL0     H 6753   8.166   4.668   9.096 -0.2797 -0.0711  0.1660
  809MOL0     H 6754   7.962   4.695   8.748 -0.2779  0.1908  0.2607
  809MOL0     H 6755   8.066   4.836   8.691 -1.7749  2.0991 -1.1028
  809MOL0     H 6756   7.973   4.987   8.846 -0.9919  1.7664 -2.6620
  809MOL0     H 6757   7.859   4.864   8.909  0.7418 -1.0466 -0.7833
  809MOL0     H 6758   7.749   4.859   8.683 -0.7565  1.1333  1.2867
  809MOL0     H 6759   7.859   4.984   8.633 -1.6343  0.2128 -1.2542
  809MOL0     H 6760   7.668   5.020   8.867 -1.3170 -1.3352 -1.0207
  809MOL0     H 6761   7.775   5.146   8.788 -2.1843  0.4874  2.6118
  809MOL0     H 6762   7.536   4.997   8.664  0.2038 -0.3019  0.1418
  809MOL0     H 6763   7.629   5.124   8.586 -1.7111  1.3987 -0.5356
  809MOL0     H 6764   7.555   5.268   8.788 -0.3290  1.0360 -2.9218
  809MOL0     H 6765   7.453   5.131   8.845 -0.0337 -0.6062  0.3821
  809MOL0     H 6766   7.431   5.273   8.587 -0.5809 -1.3321 -0.8762
  809MOL0     H 6767   7.326   5.140   8.615  1.2684  0.5833 -1.0184
  809MOL0     H 6768   7.196   5.324   8.645  0.0158 -2.7841 -0.2460
  809MOL0     H 6769   7.300   5.407   8.741 -1.7755  0.1716 -1.9554
  809MOL0     H 6770   8.200   4.674   8.677 -2.4636 -0.4869  0.6259
  809MOL0     H 6771   8.390   4.489   8.681  2.9931 -0.3863  2.2192
  809MOL0     H 6772   8.828   4.401   9.131  3.2342 -0.4212 -1.1591
  809MOL0     H 6773   8.961   4.213   9.183 -1.7631  0.6925  0.8826
  809MOL0     H 6774  10.177   2.935   9.548  0.6186 -2.1604 -0.4037
  809MOL0     H 6775  10.316   2.782   9.391 -0.3428  0.5708  2.1626
  809MOL0     H 6776  10.923   2.834   9.236 -1.3245  1.7032  0.3636
  809MOL0     H 6777  11.040   2.695   9.079 -0.3179 -0.2056  2.4316
  809MOL0     H 6778  11.102   2.396   8.857  2.1668  0.7924 -0.7536
  809MOL0     H 6779  11.116   2.500   9.013 -0.2796  1.2518  0.2053
  809MOL0     H 6780  11.102   2.634   8.736  0.0723 -1.4713 -1.7812
  809MOL0     H 6781  11.184   2.692   8.883  1.8101  0.2869 -1.0466
  809MOL0     H 6782  11.312   2.609   8.676 -1.8647  0.3614 -0.0456
  809MOL0     H 6783  11.283   2.438   8.730  6.0812 -2.6371  3.9382
  809MOL0     H 6784  11.377   2.457   8.930  0.6420  0.9086  1.3569
  809MOL0     H 6785  11.494   2.497   8.805 -0.5163 -2.6827  0.5997
  809MOL0     H 6786  11.525   2.841   9.043  2.4509  0.7813 -1.8981
  809MOL0     H 6787  10.689   2.521   8.943 -0.4736 -2.0734  2.7214
  809MOL0     H 6788  10.550   2.666   9.093  0.5040  0.6853  2.0619
  810MOL0     O 6789   0.393   8.631   8.611 -0.0121 -0.3083  0.3525
  810MOL0     C 6790   0.441   8.523   8.567  0.2105 -0.3987  0.0999
  810MOL0     O 6791   0.371   8.408   8.532  0.2073 -1.0155 -0.6959
  810MOL0     C 6792   0.235   8.417   8.529 -0.2070  0.4890 -0.0133
  810MOL0     C 6793   0.163   8.379   8.643  0.0447  0.2764  0.2872
  810MOL0     C 6794   0.027   8.386   8.635  0.4771 -1.2293 -0.1346
  810MOL0     C 6795  -0.043   8.430   8.519 -0.8213 -0.4313  0.4213
  810MOL0     O 6796  -0.180   8.423   8.522 -0.1040 -0.1225 -0.2059
  810MOL0     C 6797  -0.253   8.492   8.425  0.6658  0.4461 -1.0086
  810MOL0     C 6798  -0.407   8.489   8.457  0.9914  0.1423 -0.0475
  810MOL0     C 6799  -0.484   8.546   8.337  0.1824 -0.1085  0.3612
  810MOL0     C 6800  -0.631   8.539   8.365 -0.0685 -0.0632 -0.1401
  810MOL0     C 6801  -0.721   8.578   8.251  0.4064  0.3441 -0.3284
  810MOL0     C 6802  -0.870   8.566   8.304 -0.0383 -0.3981 -0.4704
  810MOL0     C 6803  -0.958   8.596   8.183  0.5659 -0.3068  0.4316
  810MOL0     C 6804  -1.101   8.601   8.234  0.6866  0.6098 -0.3769
  810MOL0     N 6805  -1.189   8.637   8.127 -0.6121 -0.0104  0.1389
  810MOL0     C 6806  -1.206   8.750   8.060 -0.6637 -0.2033 -0.4833
  810MOL0     C 6807  -1.313   8.726   7.979 -0.3142 -0.4536  0.1007
  810MOL0     C 6808  -1.390   8.820   7.887  0.4631  0.4202 -0.4990
  810MOL0     C 6809  -1.377   8.777   7.742 -0.3052  0.2981  0.8609
  810MOL0     C 6810  -1.455   8.879   7.653 -0.0270 -0.3962 -0.0292
  810MOL0     C 6811  -1.413   8.860   7.505 -1.0664 -0.1589 -0.1168
  810MOL0     O 6812  -1.279   8.913   7.489 -0.3543 -0.1020  0.1109
  810MOL0     C 6813  -1.204   8.854   7.394 -0.3860  0.6119 -0.2727
  810MOL0     C 6814  -1.072   8.862   7.417  0.0356 -0.0599 -0.7192
  810MOL0     C 6815  -0.980   8.810   7.335 -0.6215  0.3752 -0.2301
  810MOL0     C 6816  -1.022   8.756   7.209  0.2728 -0.4196 -0.2406
  810MOL0     C 6817  -0.916   8.703   7.114  0.4320  0.3802  0.5378
  810MOL0     O 6818  -0.961   8.691   6.985 -0.4646 -0.0429 -0.2694
  810MOL0     C 6819  -0.898   8.628   6.880 -0.6718  0.1609 -0.1435
  810MOL0     C 6820  -0.923   8.673   6.742  0.7812  0.0953  0.1084
  810MOL0     C 6821  -0.867   8.609   6.633  0.0289 -0.8534  0.8094
  810MOL0     C 6822  -0.774   8.496   6.650 -0.0799 -0.6835 -0.3969
  810MOL0     O 6823  -0.712   8.453   6.536  0.4106 -0.1841 -0.6644
  810MOL0     C 6824  -0.599   8.373   6.556 -0.0470  0.2398 -0.5111
  810MOL0     C 6825  -0.559   8.345   6.417 -0.7199  0.9305  0.1082
  810MOL0     C 6826  -0.656   8.240   6.368 -1.0636  0.1066  0.4929
  810MOL0     C 6827  -0.657   8.207   6.212  0.0346  0.2674 -0.0706
  810MOL0     C 6828  -0.515   8.191   6.148  0.6212 -0.3203  0.0005
  810MOL0     C 6829  -0.518   8.201   5.994  0.4140 -0.0833 -0.4730
  810MOL0     C 6830  -0.542   8.061   5.943  0.8480  0.7557  0.9503
  810MOL0     C 6831  -0.613   8.055   5.813 -0.6899  0.2936  0.1386
  810MOL0    Cl 6832  -0.505   8.117   5.687  0.0060  0.0798 -0.1541
  810MOL0     C 6833  -0.768   8.448   6.784 -0.4147 -0.3853 -0.4316
  810MOL0     C 6834  -0.823   8.510   6.895  0.2750 -0.4587 -0.6616
  810MOL0     O 6835  -0.810   8.673   7.158  0.1990 -0.8146  0.5773
  810MOL0     C 6836  -1.161   8.749   7.187 -0.7206  0.6462  0.3108
  810MOL0     C 6837  -1.249   8.789   7.280  0.1265 -1.0009  0.1580
  810MOL0     N 6838  -1.354   8.601   8.005 -0.3083 -0.0237 -0.1263
  810MOL0     N 6839  -1.276   8.546   8.086  0.1030  0.5522  0.1821
  810MOL0     C 6840   0.035   8.465   8.413 -0.0658 -0.4569  0.4830
  810MOL0     C 6841   0.171   8.466   8.420 -0.3431 -0.6977 -0.0760
  810MOL0     C 6842   0.590   8.513   8.577 -0.6721  0.1973 -0.7755
  810MOL0     C 6843   0.676   8.627   8.584  0.0321 -0.2694 -0.0034
  810MOL0     C 6844   0.811   8.614   8.582  1.0184 -0.0308 -0.6066
  810MOL0     C 6845   0.866   8.484   8.581 -0.2676 -0.1126 -0.0535
  810MOL0     O 6846   0.999   8.469   8.574  0.0701  0.2262  0.8091
  810MOL0     C 6847   1.086   8.538   8.667 -0.6384 -0.0719 -0.0295
  810MOL0     C 6848   1.222   8.470   8.646  0.3714 -0.6129  0.2303
  810MOL0     C 6849   1.232   8.334   8.710  0.5866 -0.5156 -0.2364
  810MOL0     C 6850   1.370   8.272   8.699 -0.0975 -0.0569  0.3034
  810MOL0     C 6851   1.377   8.153   8.793 -0.7658 -0.4596  0.1739
  810MOL0     C 6852   1.371   8.062   8.868 -0.1311  0.4054 -0.3745
  810MOL0     C 6853   0.785   8.381   8.578 -0.2905 -0.1647 -0.3175
  810MOL0     C 6854   0.645   8.388   8.581  0.3024  0.6470  0.9792
  810MOL0     H 6855   0.213   8.353   8.735  2.4874  0.7223 -0.8361
  810MOL0     H 6856  -0.025   8.337   8.718  1.0234  0.6050  1.3554
  810MOL0     H 6857  -0.234   8.463   8.322  3.4884 -1.4183 -0.1032
  810MOL0     H 6858  -0.214   8.594   8.430 -0.5977  0.9843 -1.7341
  810MOL0     H 6859  -0.401   8.550   8.548  0.6651 -0.4403  0.3643
  810MOL0     H 6860  -0.440   8.386   8.470 -1.3564  0.3282 -3.2748
  810MOL0     H 6861  -0.479   8.489   8.244 -2.0484 -1.8182  1.1967
  810MOL0     H 6862  -0.451   8.649   8.331 -1.0040  0.3986  1.8675
  810MOL0     H 6863  -0.653   8.438   8.402 -1.1561  0.9022  1.9925
  810MOL0     H 6864  -0.654   8.607   8.447  1.1312  2.4021 -1.7441
  810MOL0     H 6865  -0.703   8.510   8.167 -0.6419  0.3064 -0.5278
  810MOL0     H 6866  -0.698   8.682   8.225 -0.3889  0.9957  1.4012
  810MOL0     H 6867  -0.895   8.634   8.386 -0.5772 -1.0338 -0.0921
  810MOL0     H 6868  -0.891   8.465   8.341  1.8556 -0.2192  1.2296
  810MOL0     H 6869  -0.922   8.685   8.131 -2.0737 -0.0859 -1.2329
  810MOL0     H 6870  -0.954   8.513   8.111  2.2412  0.2378 -0.1388
  810MOL0     H 6871  -1.110   8.682   8.307  2.0910 -0.4488  1.0272
  810MOL0     H 6872  -1.135   8.508   8.281  1.2481 -1.2933 -3.4436
  810MOL0     H 6873  -1.154   8.844   8.074  0.0619 -0.9244  2.1813
  810MOL0     H 6874  -1.366   8.925   7.905  0.6304 -0.0310  2.5090
  810MOL0     H 6875  -1.495   8.807   7.912  0.1718  1.0471 -1.3509
  810MOL0     H 6876  -1.425   8.681   7.722  0.9969  0.0396 -1.2879
  810MOL0     H 6877  -1.273   8.772   7.708 -0.5104  1.1080  0.1094
  810MOL0     H 6878  -1.561   8.852   7.661 -0.7065  1.0301 -2.9344
  810MOL0     H 6879  -1.448   8.984   7.681 -1.1563 -0.7293  1.6061
  810MOL0     H 6880  -1.481   8.919   7.443 -1.8148  0.4249  1.2162
  810MOL0     H 6881  -1.426   8.758   7.468  3.8445 -1.1598  0.2279
  810MOL0     H 6882  -1.032   8.909   7.507  0.6121  1.0184 -1.5209
  810MOL0     H 6883  -0.877   8.808   7.368 -0.9866 -0.8217  0.9223
  810MOL0     H 6884  -0.988   8.753   6.709  0.6345 -0.3510 -0.7167
  810MOL0     H 6885  -0.883   8.643   6.532  0.1427 -1.1232  0.6986
  810MOL0     H 6886  -0.616   8.284   6.616  0.5308 -0.2305 -1.0341
  810MOL0     H 6887  -0.522   8.429   6.610  1.8233 -0.2565 -2.5247
  810MOL0     H 6888  -0.462   8.293   6.414 -1.4811 -0.7679  2.2607
  810MOL0     H 6889  -0.549   8.435   6.355 -1.5728  0.4925 -0.6800
  810MOL0     H 6890  -0.760   8.272   6.385 -2.2396 -2.1401 -1.6962
  810MOL0     H 6891  -0.630   8.158   6.436 -2.7094  0.3422  1.4666
  810MOL0     H 6892  -0.711   8.114   6.191 -0.7567  0.8683 -0.7509
  810MOL0     H 6893  -0.723   8.275   6.158 -1.9350 -3.0883 -2.2922
  810MOL0     H 6894  -0.451   8.107   6.177  0.9136  1.0504  3.9108
  810MOL0     H 6895  -0.453   8.274   6.184  3.5714 -2.6322  0.7045
  810MOL0     H 6896  -0.424   8.231   5.947  1.2745 -1.1628  0.5112
  810MOL0     H 6897  -0.605   8.261   5.965  1.4540  1.0590 -1.3379
  810MOL0     H 6898  -0.445   8.011   5.937  0.0071 -0.9194  0.7344
  810MOL0     H 6899  -0.603   8.007   6.016  0.5368 -0.1840  0.0072
  810MOL0     H 6900  -0.706   8.111   5.801 -0.0073  1.3822 -0.2281
  810MOL0     H 6901  -0.642   7.952   5.791 -0.5364  0.1198  0.7376
  810MOL0     H 6902  -0.695   8.371   6.809  0.8095  0.8347 -0.1382
  810MOL0     H 6903  -0.810   8.470   6.995  1.3098  2.0178  0.2891
  810MOL0     H 6904  -1.195   8.695   7.099 -0.1742 -0.6011  0.8390
  810MOL0     H 6905  -1.352   8.779   7.246 -0.1630 -2.4385  1.3242
  810MOL0     H 6906  -0.005   8.511   8.323  2.4111  0.1099 -0.3907
  810MOL0     H 6907   0.242   8.505   8.347  0.8988  0.0758  1.4756
  810MOL0     H 6908   0.637   8.729   8.587  1.7003  0.3878  0.5359
  810MOL0     H 6909   0.869   8.705   8.574 -0.8917  1.2101 -0.8883
  810MOL0     H 6910   1.040   8.545   8.766  0.8441  1.7339  0.5914
  810MOL0     H 6911   1.107   8.643   8.643 -2.1018  0.1068 -0.6064
  810MOL0     H 6912   1.255   8.455   8.543  2.1794 -2.4280  1.0088
  810MOL0     H 6913   1.295   8.542   8.685 -0.4627 -0.7140  2.0860
  810MOL0     H 6914   1.163   8.259   8.670  0.1273 -1.7792  2.6072
  810MOL0     H 6915   1.194   8.341   8.813 -2.8021 -1.0925 -1.3140
  810MOL0     H 6916   1.377   8.229   8.599 -0.2908  2.2207 -0.7330
  810MOL0     H 6917   1.449   8.345   8.719  0.1569 -0.3448  0.3603
  810MOL0     H 6918   1.346   7.975   8.924  1.9434 -2.0413 -2.9496
  810MOL0     H 6919   0.821   8.279   8.585 -0.8880 -0.3676 -0.1596
  810MOL0     H 6920   0.590   8.295   8.580  0.3929  0.5882  1.2364
  811MOL0     O 6921   7.827   1.207   2.480  0.9074  0.2987  0.7385
  811MOL0     C 6922   7.928   1.137   2.460  0.2374  0.4627  0.8390
  811MOL0     O 6923   7.926   1.005   2.413 -0.5913 -0.5678 -0.1725
  811MOL0     C 6924   7.809   0.944   2.381 -0.6635  0.7412 -0.3023
  811MOL0     C 6925   7.686   0.957   2.450  1.3932  1.3287  0.0880
  811MOL0     C 6926   7.567   0.893   2.393 -1.0409  0.1059  0.1801
  811MOL0     C 6927   7.572   0.817   2.273  0.0348 -0.6739 -1.0870
  811MOL0     O 6928   7.453   0.758   2.226  0.3702 -0.1983  0.2308
  811MOL0     C 6929   7.445   0.695   2.090 -0.9484 -0.2763  1.0708
  811MOL0     C 6930   7.311   0.626   2.060  0.0856  0.1354 -0.2152
  811MOL0     C 6931   7.201   0.723   2.030 -0.1252 -0.0401 -0.3179
  811MOL0     C 6932   7.074   0.643   1.999 -0.0396 -0.3915 -0.2831
  811MOL0     C 6933   6.969   0.750   1.952  0.2481  0.2423  0.2367
  811MOL0     C 6934   6.837   0.679   1.894 -0.2993  0.1375  0.8283
  811MOL0     C 6935   6.735   0.788   1.868  0.6494  0.2705  0.1346
  811MOL0     C 6936   6.627   0.734   1.782 -0.1304  0.2840  0.4548
  811MOL0     N 6937   6.549   0.626   1.826  0.2444  0.5268 -0.0170
  811MOL0     C 6938   6.483   0.618   1.952 -0.4695  0.0053 -0.8574
  811MOL0     C 6939   6.444   0.485   1.962 -0.8281  0.5168  0.1520
  811MOL0     C 6940   6.367   0.423   2.072  0.0035 -0.0578  0.3175
  811MOL0     C 6941   6.211   0.416   2.049  0.6572  0.1809 -0.2191
  811MOL0     C 6942   6.169   0.304   1.956  0.3985 -0.3481 -0.4495
  811MOL0     C 6943   6.020   0.274   1.969 -1.1890  0.2667 -0.5682
  811MOL0     O 6944   5.951   0.375   1.904 -0.5748  0.1350 -0.3078
  811MOL0     C 6945   5.821   0.352   1.882 -0.2915 -0.2783 -0.4864
  811MOL0     C 6946   5.749   0.451   1.812  0.5514  0.6861  0.4009
  811MOL0     C 6947   5.610   0.454   1.806 -0.4903  0.3485  0.8849
  811MOL0     C 6948   5.532   0.348   1.864  0.3203 -0.9182 -0.3013
  811MOL0     C 6949   5.386   0.333   1.862 -0.5133  0.5013 -0.0199
  811MOL0     O 6950   5.335   0.211   1.890 -0.3466 -0.1986 -0.4645
  811MOL0     C 6951   5.204   0.185   1.915 -0.3792  0.1442 -0.3782
  811MOL0     C 6952   5.092   0.266   1.906  0.8145 -0.6531  0.0651
  811MOL0     C 6953   4.963   0.215   1.935  0.8658  0.5106 -0.2369
  811MOL0     C 6954   4.942   0.084   1.981 -0.4698  0.3564 -0.3947
  811MOL0     O 6955   4.817   0.032   2.001  0.2592 -0.2321  0.3931
  811MOL0     C 6956   4.712   0.066   1.908 -0.7109 -0.1948 -0.2120
  811MOL0     C 6957   4.579   0.027   1.974 -0.0368 -0.2020 -0.7231
  811MOL0     C 6958   4.582  -0.123   2.012 -0.2475 -0.0386  0.0226
  811MOL0     C 6959   4.447  -0.159   2.085 -0.1052 -0.0680 -0.2761
  811MOL0     C 6960   4.334  -0.178   1.985  0.0187  0.5461  0.1082
  811MOL0     C 6961   4.209  -0.222   2.065 -0.3718  0.4058  0.3553
  811MOL0     C 6962   4.165  -0.105   2.147  1.2508 -0.2948 -0.4726
  811MOL0     C 6963   4.030  -0.123   2.232  0.1303 -0.3031  0.5456
  811MOL0    Cl 6964   3.884  -0.180   2.134 -0.2490 -0.2166 -0.4011
  811MOL0     C 6965   5.056   0.001   1.999  0.1707  0.5902  0.4412
  811MOL0     C 6966   5.178   0.055   1.961 -0.8030  0.0339 -0.1920
  811MOL0     O 6967   5.333   0.437   1.846  0.3738  0.4228 -0.5461
  811MOL0     C 6968   5.606   0.245   1.927 -0.1143 -0.6424  0.6788
  811MOL0     C 6969   5.742   0.246   1.937  0.5713  0.0717  0.4441
  811MOL0     N 6970   6.473   0.424   1.832  0.2967  0.6377 -0.2352
  811MOL0     N 6971   6.532   0.513   1.756 -0.3155  0.2639 -0.0918
  811MOL0     C 6972   7.692   0.809   2.211  1.4730 -0.2513  0.3283
  811MOL0     C 6973   7.810   0.875   2.262  0.6300  0.0337  1.0117
  811MOL0     C 6974   8.063   1.187   2.489  0.2050  1.3798 -0.1711
  811MOL0     C 6975   8.172   1.096   2.503  0.2710  0.5997  0.7250
  811MOL0     C 6976   8.298   1.150   2.539  0.5685  0.5491  0.8729
  811MOL0     C 6977   8.320   1.276   2.585  0.8846 -0.1715 -0.1776
  811MOL0     O 6978   8.445   1.317   2.620  0.3393 -0.5884 -0.4317
  811MOL0     C 6979   8.468   1.452   2.680 -0.1281 -0.2147  0.4285
  811MOL0     C 6980   8.609   1.486   2.727  0.7906  1.1421 -0.2557
  811MOL0     C 6981   8.651   1.636   2.742  0.7290  0.5123 -0.2589
  811MOL0     C 6982   8.798   1.648   2.778 -0.5238  0.3533  0.8027
  811MOL0     C 6983   8.847   1.779   2.733  0.0049 -0.5106 -0.3657
  811MOL0     C 6984   8.896   1.879   2.686 -0.6449 -0.8308  0.2690
  811MOL0     C 6985   8.203   1.363   2.578 -0.6296 -0.0847  0.3924
  811MOL0     C 6986   8.085   1.318   2.529  0.2429 -0.6314  0.3282
  811MOL0     H 6987   7.681   1.010   2.544 -1.6333  0.3127  0.6131
  811MOL0     H 6988   7.468   0.900   2.436 -1.0423 -1.2543  0.4452
  811MOL0     H 6989   7.522   0.619   2.074  0.5885  1.7298 -1.8828
  811MOL0     H 6990   7.468   0.776   2.020 -0.7328 -0.4107  0.9835
  811MOL0     H 6991   7.282   0.576   2.152  1.6193  2.2952  1.5531
  811MOL0     H 6992   7.314   0.550   1.981 -2.0666  0.0225 -0.2463
  811MOL0     H 6993   7.226   0.789   1.947 -1.6651  2.3274  0.9797
  811MOL0     H 6994   7.193   0.788   2.117  0.7689 -2.8486  2.0141
  811MOL0     H 6995   7.092   0.577   1.913  0.6123  0.1994 -0.6113
  811MOL0     H 6996   7.035   0.588   2.085 -1.2992  0.9477  0.0237
  811MOL0     H 6997   7.008   0.814   1.872  2.6964 -2.4039 -0.8449
  811MOL0     H 6998   6.939   0.806   2.041 -1.6007  1.9083 -1.3505
  811MOL0     H 6999   6.797   0.611   1.971 -2.5715  1.4228  0.8808
  811MOL0     H 7000   6.866   0.613   1.812 -0.9356 -2.3245  2.4483
  811MOL0     H 7001   6.697   0.840   1.957 -2.8580  2.2555 -2.2576
  811MOL0     H 7002   6.787   0.876   1.828  0.9056  1.6279  3.1657
  811MOL0     H 7003   6.678   0.707   1.689 -1.2186 -0.0498 -0.0582
  811MOL0     H 7004   6.551   0.811   1.764  0.5843  0.5488 -1.7688
  811MOL0     H 7005   6.454   0.701   2.015 -2.6022 -0.3231 -1.3198
  811MOL0     H 7006   6.377   0.495   2.154  2.8844  1.5792 -1.3201
  811MOL0     H 7007   6.410   0.331   2.113 -1.1388  0.9255  4.1257
  811MOL0     H 7008   6.174   0.513   2.014 -1.7620 -1.2273 -1.8695
  811MOL0     H 7009   6.164   0.395   2.145 -2.9442 -0.0322 -1.8522
  811MOL0     H 7010   6.192   0.335   1.853 -1.2318 -5.2618 -2.6137
  811MOL0     H 7011   6.236   0.224   1.988  0.6529 -0.1432 -0.4677
  811MOL0     H 7012   5.995   0.272   2.075 -0.8253  1.5234 -0.4412
  811MOL0     H 7013   6.002   0.174   1.927  2.4804  0.5823 -3.4605
  811MOL0     H 7014   5.805   0.538   1.779  1.0330  0.1646 -0.1741
  811MOL0     H 7015   5.563   0.534   1.749  0.5093 -1.7954 -3.3179
  811MOL0     H 7016   5.095   0.369   1.872 -0.2279 -0.9645 -1.0650
  811MOL0     H 7017   4.879   0.279   1.911 -0.9076 -1.5544  0.0452
  811MOL0     H 7018   4.722   0.011   1.814  0.3526  0.9639 -0.8006
  811MOL0     H 7019   4.714   0.174   1.891  1.5602 -0.1012  0.3484
  811MOL0     H 7020   4.500   0.047   1.900  0.6003  0.8036 -1.1548
  811MOL0     H 7021   4.551   0.095   2.055  0.6058  1.5079 -1.8771
  811MOL0     H 7022   4.660  -0.140   2.088  0.5752 -1.0935 -1.0032
  811MOL0     H 7023   4.607  -0.184   1.924  1.1914  0.5080  0.0238
  811MOL0     H 7024   4.462  -0.250   2.144 -1.1463  0.0020  0.1105
  811MOL0     H 7025   4.431  -0.076   2.155 -0.4526 -1.5449  1.4557
  811MOL0     H 7026   4.350  -0.261   1.916  0.7307 -0.2427  1.2052
  811MOL0     H 7027   4.306  -0.097   1.917  1.3819  2.4547  1.6857
  811MOL0     H 7028   4.215  -0.312   2.128  2.4664  1.2359  1.4108
  811MOL0     H 7029   4.132  -0.255   1.994  0.6519  0.8356 -0.9854
  811MOL0     H 7030   4.236  -0.078   2.225  1.3994  1.3209 -1.1235
  811MOL0     H 7031   4.145  -0.017   2.086  3.1062 -0.2432 -1.0489
  811MOL0     H 7032   4.022  -0.026   2.281  3.7271 -0.0690  0.9408
  811MOL0     H 7033   4.039  -0.199   2.311  0.9820 -0.9745 -0.1786
  811MOL0     H 7034   5.041  -0.099   2.038 -0.9842  1.3380  2.0581
  811MOL0     H 7035   5.265  -0.010   1.966  0.9774  2.0745 -2.0455
  811MOL0     H 7036   5.556   0.151   1.950  0.4432 -1.9823 -3.0204
  811MOL0     H 7037   5.787   0.156   1.979  0.6127 -0.1586 -0.0913
  811MOL0     H 7038   7.698   0.766   2.112  0.5978 -0.6783  0.4510
  811MOL0     H 7039   7.895   0.876   2.195 -0.7671  0.1246 -0.8377
  811MOL0     H 7040   8.167   0.990   2.480  1.5144  0.7958 -0.5874
  811MOL0     H 7041   8.384   1.085   2.528 -0.4949 -0.4020 -4.6686
  811MOL0     H 7042   8.403   1.477   2.765  1.1150  2.5685  0.6510
  811MOL0     H 7043   8.442   1.526   2.604 -2.0980 -0.0267  1.2191
  811MOL0     H 7044   8.637   1.439   2.822  1.0216 -0.5070 -1.1038
  811MOL0     H 7045   8.672   1.437   2.653  0.6288  2.1210 -1.0670
  811MOL0     H 7046   8.594   1.681   2.824  0.7456 -2.7779  1.7163
  811MOL0     H 7047   8.630   1.697   2.654  2.6843  0.6602 -0.6777
  811MOL0     H 7048   8.828   1.624   2.880  2.0755  0.2898  0.0977
  811MOL0     H 7049   8.849   1.572   2.718 -3.7952 -3.5694  2.5054
  811MOL0     H 7050   8.934   1.965   2.635 -0.6974  0.2934  2.0584
  811MOL0     H 7051   8.218   1.469   2.595  1.3229 -0.6036  2.3829
  811MOL0     H 7052   8.001   1.387   2.526  0.9835  0.2638 -0.1346
  812MOL0     O 7053   1.055   8.198   3.129  0.6744 -0.0672  0.3443
  812MOL0     C 7054   1.076   8.261   3.019  0.1041  0.4630 -0.1095
  812MOL0     O 7055   0.984   8.285   2.922  0.4448 -0.0981 -0.1192
  812MOL0     C 7056   0.859   8.232   2.921  0.5402  0.1122 -0.6354
  812MOL0     C 7057   0.763   8.252   3.022 -0.6686 -0.1726  0.3339
  812MOL0     C 7058   0.616   8.235   2.991 -0.1752 -0.0936  0.2571
  812MOL0     C 7059   0.581   8.188   2.865  0.9425  0.6173  0.2191
  812MOL0     O 7060   0.449   8.150   2.833  0.2882 -0.8509  0.2504
  812MOL0     C 7061   0.343   8.180   2.916 -0.2265 -1.0108 -0.2761
  812MOL0     C 7062   0.216   8.153   2.841 -0.2413  0.5858  0.5071
  812MOL0     C 7063   0.105   8.216   2.927  0.1640  0.3904 -0.4327
  812MOL0     C 7064  -0.029   8.207   2.854 -0.5867 -0.6482 -0.5446
  812MOL0     C 7065  -0.133   8.279   2.940 -0.2790  0.5185  0.8094
  812MOL0     C 7066  -0.281   8.249   2.907  0.8374 -0.4505 -0.1174
  812MOL0     C 7067  -0.329   8.308   2.774  0.5031  0.2322  0.5035
  812MOL0     C 7068  -0.357   8.466   2.767  0.0184  0.4321 -0.0197
  812MOL0     N 7069  -0.480   8.498   2.844  0.2672 -0.7276 -0.2509
  812MOL0     C 7070  -0.483   8.583   2.960 -0.3311  0.1436  1.2289
  812MOL0     C 7071  -0.604   8.644   2.951 -0.7365  0.6592 -0.4654
  812MOL0     C 7072  -0.626   8.755   3.051  0.5444 -0.3472 -0.1140
  812MOL0     C 7073  -0.625   8.700   3.192  0.5147  0.5700  0.4663
  812MOL0     C 7074  -0.665   8.804   3.301 -0.3194  0.8753 -0.2123
  812MOL0     C 7075  -0.676   8.744   3.443  0.3548  0.3056  0.1864
  812MOL0     O 7076  -0.684   8.851   3.543 -0.2478 -0.1152 -0.9717
  812MOL0     C 7077  -0.572   8.856   3.624  0.5566  1.0505  0.0378
  812MOL0     C 7078  -0.560   8.792   3.753  0.0486 -0.0066 -1.1010
  812MOL0     C 7079  -0.445   8.802   3.831 -0.4182 -0.0794  0.1101
  812MOL0     C 7080  -0.337   8.872   3.785 -0.9860 -0.3866  0.0330
  812MOL0     C 7081  -0.215   8.882   3.859 -0.5014  0.6212 -0.4209
  812MOL0     O 7082  -0.207   8.818   3.985 -0.0306 -1.4107  0.2545
  812MOL0     C 7083  -0.094   8.800   4.057  0.1427  0.2360  0.2251
  812MOL0     C 7084  -0.096   8.674   4.135  0.2185 -0.5175 -0.5400
  812MOL0     C 7085   0.012   8.646   4.221 -0.1696  0.2564  0.2604
  812MOL0     C 7086   0.120   8.737   4.240  0.0645 -0.9096 -1.1027
  812MOL0     O 7087   0.221   8.713   4.343  0.2689 -0.3983  0.2987
  812MOL0     C 7088   0.354   8.761   4.317  0.1044  0.4733  0.6176
  812MOL0     C 7089   0.447   8.707   4.425  0.4812  0.8649 -0.8255
  812MOL0     C 7090   0.435   8.554   4.434  0.0544  0.0847 -0.2541
  812MOL0     C 7091   0.520   8.481   4.536 -0.1933 -0.1927 -1.2127
  812MOL0     C 7092   0.535   8.334   4.526 -0.2648 -0.2521  0.2114
  812MOL0     C 7093   0.586   8.260   4.652  0.3378  1.0442  0.0044
  812MOL0     C 7094   0.725   8.304   4.689  0.1171 -0.1942  0.4126
  812MOL0     C 7095   0.774   8.248   4.821  0.8490  0.5371  0.1353
  812MOL0    Cl 7096   0.926   8.307   4.863  0.0243 -0.3001  0.3701
  812MOL0     C 7097   0.122   8.858   4.155  1.4408  0.4107 -0.0466
  812MOL0     C 7098   0.019   8.882   4.065 -0.1399 -0.4789 -0.6250
  812MOL0     O 7099  -0.117   8.945   3.811  0.3295 -0.5764 -0.2355
  812MOL0     C 7100  -0.344   8.941   3.656 -0.8403  0.2912 -0.9602
  812MOL0     C 7101  -0.460   8.921   3.580 -0.0689  0.1839  0.1028
  812MOL0     N 7102  -0.666   8.609   2.842 -0.0373  0.3404  0.1920
  812MOL0     N 7103  -0.600   8.518   2.782 -0.1981 -0.0530  0.2572
  812MOL0     C 7104   0.678   8.152   2.772  0.5108 -0.5598 -0.0331
  812MOL0     C 7105   0.810   8.189   2.796  0.2771 -0.6286 -0.4828
  812MOL0     C 7106   1.215   8.316   2.999  0.7024  0.0087  0.0487
  812MOL0     C 7107   1.250   8.374   2.881  0.5958 -0.7528  0.8647
  812MOL0     C 7108   1.387   8.415   2.860  0.0702  0.0855  1.1939
  812MOL0     C 7109   1.479   8.395   2.960  0.2344 -0.0289 -0.1290
  812MOL0     O 7110   1.613   8.414   2.944 -0.2628 -0.7639 -0.1059
  812MOL0     C 7111   1.676   8.468   2.829  0.3645 -0.6804 -0.0208
  812MOL0     C 7112   1.822   8.512   2.849  0.2700  0.1586 -0.3204
  812MOL0     C 7113   1.911   8.412   2.929  0.2188  0.3786 -0.5262
  812MOL0     C 7114   1.929   8.285   2.844 -0.3886  0.3269  0.3125
  812MOL0     C 7115   2.035   8.201   2.901  0.4997  0.8210  0.0821
  812MOL0     C 7116   2.117   8.126   2.949 -0.4439 -0.3502 -0.0278
  812MOL0     C 7117   1.428   8.351   3.084  0.8949 -0.4392 -1.1457
  812MOL0     C 7118   1.298   8.312   3.113  0.2141 -0.8285 -0.5422
  812MOL0     H 7119   0.803   8.284   3.117 -0.2774 -2.5626  1.0538
  812MOL0     H 7120   0.555   8.271   3.073  0.7158  0.4783  0.6801
  812MOL0     H 7121   0.343   8.287   2.939 -1.0476 -1.1483  0.4143
  812MOL0     H 7122   0.343   8.127   3.012 -1.3265 -2.8574 -1.2456
  812MOL0     H 7123   0.205   8.050   2.807  1.1892  1.4065 -2.8184
  812MOL0     H 7124   0.213   8.207   2.746  1.4753  0.5545  0.4127
  812MOL0     H 7125   0.125   8.323   2.933  1.5268  0.1540 -0.4407
  812MOL0     H 7126   0.098   8.172   3.027 -0.0501  1.1111 -0.1207
  812MOL0     H 7127  -0.012   8.242   2.752 -0.0351  1.1911  0.1365
  812MOL0     H 7128  -0.060   8.102   2.854 -2.1374 -0.2085 -0.3926
  812MOL0     H 7129  -0.124   8.387   2.925 -1.1445  0.2430 -2.4485
  812MOL0     H 7130  -0.125   8.245   3.043 -1.5883 -0.5509  0.5920
  812MOL0     H 7131  -0.347   8.286   2.986  2.3495 -0.7106  1.3335
  812MOL0     H 7132  -0.296   8.140   2.908  2.0695 -0.7135 -2.6623
  812MOL0     H 7133  -0.256   8.274   2.700  0.0045 -1.2437  0.6586
  812MOL0     H 7134  -0.426   8.260   2.759 -0.8052  2.5465  1.0000
  812MOL0     H 7135  -0.380   8.493   2.663 -0.9791 -0.9844 -0.1968
  812MOL0     H 7136  -0.269   8.519   2.804  0.5115  0.0942 -0.6907
  812MOL0     H 7137  -0.409   8.593   3.039  0.2340  1.9577  0.5176
  812MOL0     H 7138  -0.729   8.787   3.033  1.2976  0.9224 -2.6938
  812MOL0     H 7139  -0.568   8.846   3.033 -1.0562  0.2514 -2.7074
  812MOL0     H 7140  -0.520   8.677   3.213  0.5209  1.8471  2.0626
  812MOL0     H 7141  -0.693   8.615   3.198 -0.3281  1.1783 -0.2746
  812MOL0     H 7142  -0.582   8.874   3.313  0.9425 -0.5162 -0.5486
  812MOL0     H 7143  -0.762   8.848   3.275 -0.6270 -0.1907 -0.9166
  812MOL0     H 7144  -0.589   8.685   3.473  0.9656  1.2446  0.3304
  812MOL0     H 7145  -0.759   8.674   3.445 -0.8532  1.5300 -2.5183
  812MOL0     H 7146  -0.647   8.733   3.779  0.9248 -0.1513  1.8673
  812MOL0     H 7147  -0.434   8.734   3.915  1.2851 -1.7902 -1.4314
  812MOL0     H 7148  -0.178   8.603   4.124  0.9362 -1.3591 -0.5839
  812MOL0     H 7149   0.026   8.556   4.280  0.6632  0.3436  0.2013
  812MOL0     H 7150   0.363   8.870   4.320  0.5015  0.4677  0.0086
  812MOL0     H 7151   0.383   8.741   4.213  2.0006  3.1328  0.5350
  812MOL0     H 7152   0.414   8.740   4.524 -0.6606  0.4908 -1.0731
  812MOL0     H 7153   0.554   8.730   4.416  1.2813 -1.2453  1.9417
  812MOL0     H 7154   0.464   8.512   4.337  2.1881 -1.7103  1.0621
  812MOL0     H 7155   0.331   8.528   4.455  0.2277 -2.0865 -1.7515
  812MOL0     H 7156   0.616   8.532   4.542 -0.8343  0.8740  1.3208
  812MOL0     H 7157   0.468   8.508   4.628 -3.6817  1.6067 -3.4773
  812MOL0     H 7158   0.619   8.318   4.457 -0.7325  0.8353 -0.6364
  812MOL0     H 7159   0.446   8.289   4.481 -0.5538  0.9229 -0.4326
  812MOL0     H 7160   0.591   8.151   4.640 -3.3000  0.3730  2.6232
  812MOL0     H 7161   0.514   8.282   4.732  0.0776  1.0518 -0.2308
  812MOL0     H 7162   0.796   8.260   4.618  1.3003 -1.6839  2.3785
  812MOL0     H 7163   0.725   8.412   4.703 -3.7151  0.0729 -0.5480
  812MOL0     H 7164   0.780   8.139   4.817 -4.5281 -0.0584  0.9008
  812MOL0     H 7165   0.696   8.274   4.893 -0.7474 -1.9560 -0.5553
  812MOL0     H 7166   0.199   8.934   4.159  2.1337 -0.2989  0.5692
  812MOL0     H 7167   0.034   8.962   3.993  1.4107  0.9518  1.1771
  812MOL0     H 7168  -0.275   9.019   3.626 -3.7258  2.8185 -1.5250
  812MOL0     H 7169  -0.475   8.965   3.483 -0.7113 -3.8970 -1.8665
  812MOL0     H 7170   0.641   8.103   2.683  0.0040 -1.3256  0.5829
  812MOL0     H 7171   0.880   8.179   2.714  0.4202  1.0125 -0.5964
  812MOL0     H 7172   1.175   8.381   2.803  1.2333  2.8586  0.4057
  812MOL0     H 7173   1.423   8.434   2.759 -2.4422 -2.3746 -0.3143
  812MOL0     H 7174   1.631   8.564   2.803  3.4515  0.5567 -1.2804
  812MOL0     H 7175   1.659   8.397   2.747 -0.6445 -1.0005  0.4511
  812MOL0     H 7176   1.869   8.530   2.752 -1.3647  0.0810 -1.1584
  812MOL0     H 7177   1.821   8.610   2.899  0.4968  0.5361 -1.0478
  812MOL0     H 7178   1.875   8.391   3.030  0.5038 -2.1404 -0.8828
  812MOL0     H 7179   2.008   8.460   2.937 -0.3961  1.8580 -1.4104
  812MOL0     H 7180   1.844   8.216   2.837 -0.5521  0.5370  0.2336
  812MOL0     H 7181   1.964   8.317   2.745  0.7919 -1.9124 -0.0727
  812MOL0     H 7182   2.171   8.041   2.985 -1.8744 -0.2808  2.4465
  812MOL0     H 7183   1.506   8.339   3.159 -0.7012 -2.7000  0.2691
  812MOL0     H 7184   1.263   8.270   3.207 -1.9074  1.3713 -0.2721
  813MOL0     O 7185   5.827   8.580  10.310  0.1512  0.1263  0.6020
  813MOL0     C 7186   5.841   8.671  10.386  0.6113  0.7794  1.0138
  813MOL0     O 7187   5.739   8.729  10.460 -0.0627 -0.6948  0.3115
  813MOL0     C 7188   5.604   8.695  10.469  0.2972  0.4373  0.6683
  813MOL0     C 7189   5.519   8.784  10.525  0.1445 -0.0596 -0.3034
  813MOL0     C 7190   5.389   8.754  10.554 -0.1729 -0.8839  0.7267
  813MOL0     C 7191   5.342   8.625  10.527  0.2339 -0.4352  0.5159
  813MOL0     O 7192   5.229   8.581  10.579 -0.2446 -0.3432 -0.8118
  813MOL0     C 7193   5.113   8.661  10.534  0.0771  0.1147 -0.5566
  813MOL0     C 7194   4.997   8.567  10.527 -0.0020 -0.0560 -0.1744
  813MOL0     C 7195   5.003   8.473  10.403  0.6152  1.1548  0.0952
  813MOL0     C 7196   4.907   8.351  10.394  0.0587 -0.3537  0.7136
  813MOL0     C 7197   4.929   8.277  10.257 -0.2921 -0.4784  0.8164
  813MOL0     C 7198   4.883   8.352  10.137 -0.1221 -0.1602 -0.6424
  813MOL0     C 7199   4.928   8.268  10.016 -0.2819  0.1850  0.7645
  813MOL0     C 7200   4.921   8.360   9.900 -0.0577 -0.3149  1.1959
  813MOL0     N 7201   4.972   8.299   9.787 -0.0982 -0.6986  0.0004
  813MOL0     C 7202   4.918   8.201   9.708 -0.6603 -0.1993 -0.2810
  813MOL0     C 7203   5.015   8.161   9.622 -0.7411 -0.2447  0.5552
  813MOL0     C 7204   5.023   8.040   9.530 -0.0435 -0.1720 -0.0034
  813MOL0     C 7205   4.947   8.051   9.395  0.3442 -1.1303 -0.6509
  813MOL0     C 7206   4.884   7.911   9.362 -0.1061  0.5396 -0.4273
  813MOL0     C 7207   4.784   7.924   9.243 -0.3183 -0.7258  0.1542
  813MOL0     O 7208   4.741   7.799   9.200 -0.9878 -0.1474  0.4791
  813MOL0     C 7209   4.621   7.784   9.135 -0.3465  0.7350  0.0709
  813MOL0     C 7210   4.532   7.879   9.089  0.7987 -0.6284 -0.2750
  813MOL0     C 7211   4.405   7.840   9.044  0.1025  0.2291 -1.0386
  813MOL0     C 7212   4.366   7.705   9.049  0.8661  0.4375  0.4730
  813MOL0     C 7213   4.231   7.666   9.003 -0.9485  0.0937 -0.9819
  813MOL0     O 7214   4.207   7.534   8.980 -0.0952  0.4977 -0.4699
  813MOL0     C 7215   4.080   7.492   8.973 -0.0464 -0.8685 -0.4281
  813MOL0     C 7216   4.021   7.505   8.847 -0.6083  0.6032 -0.6304
  813MOL0     C 7217   3.889   7.458   8.826 -1.1563  0.8487  0.4142
  813MOL0     C 7218   3.823   7.386   8.927 -0.0944 -0.2526  0.0857
  813MOL0     O 7219   3.702   7.335   8.915 -0.1560  0.0577  0.1810
  813MOL0     C 7220   3.636   7.330   8.788  0.3927 -0.2181 -0.6471
  813MOL0     C 7221   3.492   7.300   8.809  0.2910 -0.4295 -0.4162
  813MOL0     C 7222   3.410   7.404   8.893 -0.0195 -0.0241  0.4962
  813MOL0     C 7223   3.261   7.366   8.900 -0.2608  0.4950  0.6733
  813MOL0     C 7224   3.189   7.482   8.959  1.4307 -0.3585 -0.1278
  813MOL0     C 7225   3.040   7.462   8.985  0.0989 -0.7646 -0.1333
  813MOL0     C 7226   3.009   7.345   9.082 -0.3351 -0.1481  0.2777
  813MOL0     C 7227   2.858   7.334   9.113 -0.4106 -1.3777  0.4505
  813MOL0    Cl 7228   2.818   7.439   9.249  0.1772  0.3973  0.2203
  813MOL0     C 7229   3.891   7.369   9.048  1.0186 -0.4902 -0.4941
  813MOL0     C 7230   4.023   7.416   9.073  0.3125  0.1567 -0.4486
  813MOL0     O 7231   4.149   7.754   8.995  0.4312 -1.0966 -0.2451
  813MOL0     C 7232   4.458   7.606   9.091 -0.2809  0.1282  0.1570
  813MOL0     C 7233   4.580   7.651   9.134  0.2177 -0.0736  0.0757
  813MOL0     N 7234   5.132   8.241   9.643 -0.6537 -0.0333 -0.4825
  813MOL0     N 7235   5.102   8.310   9.753 -0.3240 -0.6287  0.8828
  813MOL0     C 7236   5.429   8.528  10.479 -0.0122  0.2473  0.1711
  813MOL0     C 7237   5.557   8.562  10.448 -0.1139 -0.8840 -0.7207
  813MOL0     C 7238   5.977   8.725  10.410  0.7787 -0.1133 -1.0262
  813MOL0     C 7239   6.087   8.670  10.343  0.0232 -1.2562  0.0034
  813MOL0     C 7240   6.215   8.702  10.392  0.1244  0.7927  0.1192
  813MOL0     C 7241   6.240   8.785  10.496 -0.8953 -0.2671  0.6433
  813MOL0     O 7242   6.369   8.781  10.544  0.3622  1.0511  0.7893
  813MOL0     C 7243   6.394   8.816  10.679  0.1963  0.0765  0.7310
  813MOL0     C 7244   6.418   8.962  10.717 -0.7667  0.1324  0.2470
  813MOL0     C 7245   6.537   9.029  10.652 -0.5283 -0.4346  0.4708
  813MOL0     C 7246   6.540   9.186  10.688  0.3505  0.5317  0.3364
  813MOL0     C 7247   6.596   9.226  10.808  0.4053  0.5286  0.0512
  813MOL0     C 7248   6.647   9.255  10.913 -0.2531 -0.4663  0.7891
  813MOL0     C 7249   6.134   8.838  10.565 -0.5035 -0.3836  0.2736
  813MOL0     C 7250   6.000   8.812  10.519 -0.2881 -0.8866  0.2115
  813MOL0     H 7251   5.558   8.879  10.559 -0.1573 -0.3390  0.8498
  813MOL0     H 7252   5.328   8.828  10.605 -1.7505 -0.7384 -1.2477
  813MOL0     H 7253   5.126   8.703  10.434  3.1017  0.4187 -0.1414
  813MOL0     H 7254   5.092   8.743  10.602 -0.0961 -2.2152  2.4313
  813MOL0     H 7255   4.901   8.619  10.530 -0.7616 -1.4392  1.2901
  813MOL0     H 7256   4.993   8.510  10.620 -0.7149 -1.4115 -0.9988
  813MOL0     H 7257   5.107   8.441  10.409  0.5573  0.9566  0.0671
  813MOL0     H 7258   5.004   8.538  10.315 -0.0056 -0.9411 -1.5418
  813MOL0     H 7259   4.922   8.276  10.473 -2.4021 -2.1387 -0.3896
  813MOL0     H 7260   4.804   8.388  10.389  0.4603  0.6324 -1.1675
  813MOL0     H 7261   4.886   8.176  10.254  1.0704 -1.0613 -0.7370
  813MOL0     H 7262   5.035   8.250  10.253 -0.8168 -2.5267 -1.5153
  813MOL0     H 7263   4.934   8.449  10.133  0.2238 -0.3781 -2.0924
  813MOL0     H 7264   4.777   8.378  10.142  0.3190  1.6862  0.0653
  813MOL0     H 7265   5.032   8.238  10.033  0.3534  2.0218  0.3783
  813MOL0     H 7266   4.871   8.175  10.000  2.0078 -1.0372 -0.9185
  813MOL0     H 7267   4.983   8.448   9.919  0.1021 -0.5686  1.8919
  813MOL0     H 7268   4.814   8.378   9.892 -0.2403 -1.7732 -0.1761
  813MOL0     H 7269   4.825   8.146   9.724  0.3690 -1.3802  2.2274
  813MOL0     H 7270   4.970   7.959   9.581  0.6096 -1.6937 -1.6525
  813MOL0     H 7271   5.129   8.025   9.511  0.1706 -0.8520  1.5387
  813MOL0     H 7272   5.009   8.078   9.310  0.7061 -1.1581 -0.3975
  813MOL0     H 7273   4.865   8.124   9.402 -0.5241 -2.0361 -1.0784
  813MOL0     H 7274   4.963   7.840   9.335  0.4025  0.7308  0.5137
  813MOL0     H 7275   4.830   7.880   9.452  2.0073  0.9927  1.0816
  813MOL0     H 7276   4.823   7.982   9.159  0.5861  2.5084  2.6083
  813MOL0     H 7277   4.696   7.979   9.277  0.3377  0.0352  0.6509
  813MOL0     H 7278   4.547   7.985   9.104  1.0746 -0.8563  1.1872
  813MOL0     H 7279   4.330   7.912   9.012 -0.5766  0.0133  0.0133
  813MOL0     H 7280   4.071   7.559   8.768  0.5151 -0.3649 -0.6085
  813MOL0     H 7281   3.845   7.475   8.728 -0.6905  1.3615  0.2901
  813MOL0     H 7282   3.682   7.249   8.730 -0.0596  0.2327 -1.6482
  813MOL0     H 7283   3.625   7.432   8.750 -3.5496 -0.5958 -0.9153
  813MOL0     H 7284   3.491   7.209   8.870 -2.4311  1.1469  2.1794
  813MOL0     H 7285   3.444   7.281   8.713 -2.4187  0.5021  0.6542
  813MOL0     H 7286   3.424   7.507   8.862 -0.4137  0.5442  2.1013
  813MOL0     H 7287   3.447   7.407   8.996 -1.3289  1.6374  0.9743
  813MOL0     H 7288   3.228   7.348   8.797 -0.5128 -0.0620  0.8445
  813MOL0     H 7289   3.253   7.272   8.955 -0.9788 -1.4074 -2.4109
  813MOL0     H 7290   3.207   7.571   8.897 -3.3975 -0.0799 -1.5026
  813MOL0     H 7291   3.240   7.501   9.055  0.5796  1.8432 -0.0422
  813MOL0     H 7292   2.990   7.436   8.892  0.7642 -4.3530  0.3759
  813MOL0     H 7293   3.000   7.556   9.026 -0.4975 -0.1012 -2.1377
  813MOL0     H 7294   3.035   7.252   9.030  1.8501  1.7868 -2.4149
  813MOL0     H 7295   3.072   7.350   9.171 -2.9140 -4.1308  2.6268
  813MOL0     H 7296   2.822   7.234   9.141 -3.6084 -0.7028 -0.8433
  813MOL0     H 7297   2.799   7.352   9.023  0.6811 -2.5376 -0.5474
  813MOL0     H 7298   3.844   7.308   9.126  0.4184  1.8311  1.0508
  813MOL0     H 7299   4.084   7.409   9.163  1.4152 -2.2520 -1.3103
  813MOL0     H 7300   4.438   7.499   9.096 -0.9229  0.2967  1.6632
  813MOL0     H 7301   4.641   7.572   9.177 -0.0575  0.1885  0.9552
  813MOL0     H 7302   5.394   8.426  10.466 -0.4187  0.0332  2.4803
  813MOL0     H 7303   5.624   8.485  10.410  1.8363 -0.5868  1.8476
  813MOL0     H 7304   6.068   8.617  10.251 -1.9600  0.4541 -0.6272
  813MOL0     H 7305   6.301   8.652  10.347 -1.3747 -0.3179 -1.6563
  813MOL0     H 7306   6.488   8.771  10.712  1.3338  0.0864 -2.1661
  813MOL0     H 7307   6.317   8.784  10.750 -1.9932  1.8636 -0.6869
  813MOL0     H 7308   6.326   9.013  10.687  0.3383  0.9060 -2.0681
  813MOL0     H 7309   6.424   8.974  10.825  1.9081  4.1607 -0.1255
  813MOL0     H 7310   6.533   9.021  10.543  0.2512  3.1627  0.0532
  813MOL0     H 7311   6.624   8.983  10.699  1.0145  1.7449 -0.0964
  813MOL0     H 7312   6.585   9.228  10.598 -1.1117 -1.2181 -1.3181
  813MOL0     H 7313   6.438   9.227  10.685 -1.0071 -2.5874 -1.9669
  813MOL0     H 7314   6.707   9.274  11.000  2.6674 -2.2101 -0.7237
  813MOL0     H 7315   6.144   8.891  10.660  1.3721  1.1340 -0.6824
  813MOL0     H 7316   5.917   8.864  10.566  0.0213  0.1949 -0.4009
  814MOL0     O 7317   2.958   9.266   1.946  0.4319 -0.5767  0.3671
  814MOL0     C 7318   3.015   9.196   2.034 -0.4747  0.6231 -0.1312
  814MOL0     O 7319   2.957   9.161   2.153  0.1136 -0.1876  0.0482
  814MOL0     C 7320   2.823   9.177   2.176  0.0753 -0.4266 -0.3065
  814MOL0     C 7321   2.781   9.245   2.291 -0.1988  0.3890 -0.1714
  814MOL0     C 7322   2.652   9.236   2.331  0.4650  1.0257  0.4401
  814MOL0     C 7323   2.557   9.193   2.230 -0.3678  0.2808 -0.1348
  814MOL0     O 7324   2.421   9.197   2.270 -0.3829 -0.1500  0.3914
  814MOL0     C 7325   2.333   9.264   2.179  0.4149 -0.6458 -1.4110
  814MOL0     C 7326   2.195   9.250   2.213  0.7685  0.3178  0.5713
  814MOL0     C 7327   2.164   9.302   2.351  0.7302 -0.0134  0.3648
  814MOL0     C 7328   2.017   9.347   2.373  0.9854 -0.5019  0.0585
  814MOL0     C 7329   1.910   9.234   2.365  0.2537  0.0679 -0.6173
  814MOL0     C 7330   1.775   9.275   2.425  0.2272 -0.4694  0.1221
  814MOL0     C 7331   1.670   9.162   2.426  0.9425  0.2551 -0.5947
  814MOL0     C 7332   1.648   9.100   2.289  0.6969  0.2643 -1.1282
  814MOL0     N 7333   1.546   9.001   2.293 -0.3302  0.6950 -0.0793
  814MOL0     C 7334   1.571   8.876   2.340  0.7882 -0.2804 -0.4205
  814MOL0     C 7335   1.457   8.808   2.322 -0.0028 -0.8361 -0.3122
  814MOL0     C 7336   1.430   8.662   2.350  0.5259  0.0325  0.2091
  814MOL0     C 7337   1.456   8.633   2.497 -0.1520 -0.4911 -0.7881
  814MOL0     C 7338   1.355   8.689   2.606  0.0457 -0.4433 -0.3810
  814MOL0     C 7339   1.219   8.624   2.586 -0.1052  0.4926  0.8386
  814MOL0     O 7340   1.225   8.489   2.564  0.8705 -0.0911  0.0228
  814MOL0     C 7341   1.108   8.426   2.540  0.4434  1.0742  0.4524
  814MOL0     C 7342   1.104   8.279   2.522 -0.0583 -0.5216  0.5501
  814MOL0     C 7343   0.984   8.211   2.484 -0.3294  0.6356  0.4673
  814MOL0     C 7344   0.868   8.286   2.460  0.2145 -0.7418  0.4676
  814MOL0     C 7345   0.740   8.228   2.398 -0.7509  0.7119 -0.0220
  814MOL0     O 7346   0.633   8.302   2.386  0.8649 -0.8280  0.0508
  814MOL0     C 7347   0.521   8.260   2.310 -0.7305 -0.7710  0.3121
  814MOL0     C 7348   0.426   8.189   2.374  0.3799  0.2881 -0.3439
  814MOL0     C 7349   0.319   8.126   2.307  0.2033 -0.7843 -0.4637
  814MOL0     C 7350   0.279   8.163   2.181 -0.7979 -1.4201  0.3688
  814MOL0     O 7351   0.161   8.126   2.128  0.0095 -0.2474  0.0125
  814MOL0     C 7352   0.044   8.154   2.210  0.9997  0.3030 -0.2315
  814MOL0     C 7353  -0.057   8.040   2.206  0.6912 -0.0743 -0.6185
  814MOL0     C 7354   0.008   7.904   2.237  0.8238 -1.0456 -0.4954
  814MOL0     C 7355  -0.096   7.793   2.222  0.2630  0.7520 -0.0948
  814MOL0     C 7356  -0.048   7.670   2.312  0.3753 -0.0690 -0.1152
  814MOL0     C 7357  -0.138   7.551   2.301  0.3078 -0.7548  0.2689
  814MOL0     C 7358  -0.274   7.584   2.362  0.2770  0.9435 -0.5179
  814MOL0     C 7359  -0.369   7.461   2.373  0.4828 -0.4243  0.0095
  814MOL0    Cl 7360  -0.425   7.429   2.209  0.1015  0.2157 -0.1398
  814MOL0     C 7361   0.372   8.249   2.115  0.0360 -0.2318  0.6439
  814MOL0     C 7362   0.490   8.288   2.177 -0.5549  0.3522 -1.1693
  814MOL0     O 7363   0.746   8.108   2.371 -0.1438 -0.8539  0.2586
  814MOL0     C 7364   0.867   8.419   2.494 -0.4071 -0.9361  0.6625
  814MOL0     C 7365   0.983   8.484   2.536  0.6202 -0.2385 -0.4337
  814MOL0     N 7366   1.366   8.891   2.257 -0.0665 -0.5088  0.4415
  814MOL0     N 7367   1.423   9.004   2.240  0.5925  0.8172  0.3791
  814MOL0     C 7368   2.594   9.140   2.116 -0.3519  0.0578 -0.2531
  814MOL0     C 7369   2.734   9.124   2.083  0.2312 -0.2680 -0.0148
  814MOL0     C 7370   3.149   9.147   2.010 -0.5230 -0.3573  0.2038
  814MOL0     C 7371   3.187   9.113   1.885 -0.0167 -0.5940  0.5327
  814MOL0     C 7372   3.315   9.065   1.856 -0.1625 -0.2400 -0.2515
  814MOL0     C 7373   3.415   9.066   1.954  0.4809 -0.4292  0.9619
  814MOL0     O 7374   3.539   9.023   1.921 -0.0752 -0.4194 -0.7438
  814MOL0     C 7375   3.645   9.028   2.029  0.1939 -0.2378 -0.3129
  814MOL0     C 7376   3.772   8.972   1.982 -0.3945 -0.2223  0.1198
  814MOL0     C 7377   3.864   9.065   1.895 -0.0562  0.4436  0.6250
  814MOL0     C 7378   3.991   8.986   1.855 -0.5131 -0.2591  0.0022
  814MOL0     C 7379   4.085   9.073   1.781  0.0857 -0.4501 -0.4269
  814MOL0     C 7380   4.163   9.143   1.725  0.4158  0.6098 -0.4351
  814MOL0     C 7381   3.376   9.108   2.084  1.3254 -0.7136 -0.0480
  814MOL0     C 7382   3.242   9.149   2.113  0.2225  0.5681  0.0251
  814MOL0     H 7383   2.855   9.284   2.359 -0.8099 -0.9694  1.3320
  814MOL0     H 7384   2.610   9.276   2.423 -0.5584  1.1369 -0.0666
  814MOL0     H 7385   2.357   9.241   2.075  2.4261 -1.6499 -0.7854
  814MOL0     H 7386   2.359   9.369   2.188 -1.4664 -0.2535  0.1434
  814MOL0     H 7387   2.165   9.145   2.209  1.1076  0.2407 -0.1344
  814MOL0     H 7388   2.138   9.300   2.135  0.5291 -1.9695 -0.7991
  814MOL0     H 7389   2.223   9.393   2.365 -1.3129  1.5500 -0.6522
  814MOL0     H 7390   2.185   9.228   2.429 -0.9525 -2.4469 -1.3206
  814MOL0     H 7391   2.018   9.387   2.475  2.4507  0.3403 -0.2509
  814MOL0     H 7392   1.999   9.424   2.297  0.3422 -0.4944  0.2127
  814MOL0     H 7393   1.941   9.142   2.416  0.1515  0.7691  0.7493
  814MOL0     H 7394   1.897   9.217   2.258 -0.3356  2.2229 -0.9346
  814MOL0     H 7395   1.733   9.355   2.364  1.1183  1.2348  1.6547
  814MOL0     H 7396   1.800   9.307   2.527 -1.0674 -0.2305  0.3906
  814MOL0     H 7397   1.688   9.084   2.501 -1.7270  0.3481  0.2369
  814MOL0     H 7398   1.581   9.200   2.477  1.9573 -2.5300  3.7781
  814MOL0     H 7399   1.735   9.055   2.239 -0.1229 -0.1190 -2.2494
  814MOL0     H 7400   1.619   9.187   2.229 -2.9633  1.0127  1.4218
  814MOL0     H 7401   1.661   8.849   2.394  0.3721  0.8225  0.8599
  814MOL0     H 7402   1.497   8.614   2.279  2.4303  1.6933  0.7840
  814MOL0     H 7403   1.328   8.637   2.317  1.2691 -3.7342  0.3620
  814MOL0     H 7404   1.552   8.664   2.538 -0.9525  0.1998  0.6181
  814MOL0     H 7405   1.471   8.524   2.503  3.0001 -0.1143  0.0395
  814MOL0     H 7406   1.399   8.681   2.706 -0.8627 -1.6766 -0.0469
  814MOL0     H 7407   1.354   8.798   2.597  4.5312 -0.2325 -0.6777
  814MOL0     H 7408   1.161   8.669   2.505  0.6164 -1.3854 -0.8049
  814MOL0     H 7409   1.164   8.650   2.678  0.3007  0.4287  1.1047
  814MOL0     H 7410   1.190   8.214   2.532  1.9473  1.5416 -1.9861
  814MOL0     H 7411   0.983   8.104   2.466 -1.9406  0.3784  1.7889
  814MOL0     H 7412   0.451   8.148   2.471  1.8476 -2.0584 -1.6265
  814MOL0     H 7413   0.272   8.048   2.366 -0.8400  0.6724  0.6657
  814MOL0     H 7414  -0.020   8.236   2.175 -2.5126 -1.3551  1.6704
  814MOL0     H 7415   0.064   8.168   2.317 -0.0976  0.1636  0.0095
  814MOL0     H 7416  -0.102   8.036   2.106  0.6489 -2.3463 -0.5622
  814MOL0     H 7417  -0.134   8.060   2.281  2.1432 -1.2783  1.2782
  814MOL0     H 7418   0.046   7.916   2.339  1.0625 -0.0633 -0.6913
  814MOL0     H 7419   0.101   7.891   2.180  0.6091  0.3470 -1.2116
  814MOL0     H 7420  -0.198   7.825   2.245 -0.3443 -1.1382  0.0156
  814MOL0     H 7421  -0.099   7.761   2.117 -1.1388 -1.5871  0.5857
  814MOL0     H 7422  -0.041   7.709   2.414 -0.4497 -1.3345  0.4529
  814MOL0     H 7423   0.052   7.634   2.287 -0.5931 -2.5627 -0.7314
  814MOL0     H 7424  -0.088   7.464   2.345  2.0835  1.1794  2.3402
  814MOL0     H 7425  -0.146   7.527   2.195 -2.9158 -1.2204  0.5296
  814MOL0     H 7426  -0.251   7.598   2.468  3.8325 -0.9685 -0.8949
  814MOL0     H 7427  -0.331   7.662   2.311 -1.8517  0.5822  1.1571
  814MOL0     H 7428  -0.448   7.461   2.448 -0.6080 -1.4599 -1.0785
  814MOL0     H 7429  -0.314   7.377   2.417 -1.3335 -0.1871  3.0118
  814MOL0     H 7430   0.365   8.275   2.010 -1.6671  0.4742  0.9067
  814MOL0     H 7431   0.572   8.344   2.133  0.3555  1.9338  2.2156
  814MOL0     H 7432   0.778   8.482   2.494  1.6750  2.3154 -0.9907
  814MOL0     H 7433   0.962   8.585   2.569 -2.6804 -0.2611 -2.0374
  814MOL0     H 7434   2.516   9.114   2.044 -3.5170  0.1083  2.8732
  814MOL0     H 7435   2.778   9.072   1.999  0.0373 -1.0615  0.3628
  814MOL0     H 7436   3.123   9.132   1.799  1.0321  2.1483  0.2450
  814MOL0     H 7437   3.351   9.036   1.758  1.8242  1.2457 -0.0264
  814MOL0     H 7438   3.618   8.978   2.122  0.1416 -1.4096 -0.9384
  814MOL0     H 7439   3.654   9.136   2.047 -1.1053 -0.2185  0.3568
  814MOL0     H 7440   3.830   8.941   2.069 -1.3098 -2.2548  0.0505
  814MOL0     H 7441   3.731   8.892   1.920 -1.3003  0.7850 -0.6129
  814MOL0     H 7442   3.879   9.148   1.964 -3.0515 -0.2189  2.2890
  814MOL0     H 7443   3.807   9.111   1.814 -2.6891 -0.7682  1.6716
  814MOL0     H 7444   4.043   8.946   1.943  0.7717  1.5673  0.1307
  814MOL0     H 7445   3.953   8.914   1.782 -0.5943  1.9957 -2.2910
  814MOL0     H 7446   4.228   9.208   1.670  0.0545 -0.4521 -2.2314
  814MOL0     H 7447   3.439   9.097   2.171 -2.0825  1.9642  3.0960
  814MOL0     H 7448   3.214   9.180   2.213  0.4716 -0.0020  0.2722
  815MOL0     O 7449   2.467   5.892   3.888 -0.9288 -0.5122  0.3467
  815MOL0     C 7450   2.431   6.008   3.889  0.4995 -0.5427 -0.1570
  815MOL0     O 7451   2.315   6.053   3.827 -0.0275 -0.2303  0.4319
  815MOL0     C 7452   2.226   5.980   3.752  0.2138  0.4909 -0.0100
  815MOL0     C 7453   2.104   6.045   3.736 -0.2406 -0.2469  0.0875
  815MOL0     C 7454   2.010   5.992   3.646 -0.3568 -1.0071  0.1058
  815MOL0     C 7455   2.025   5.866   3.587  0.0290  0.0405 -0.5008
  815MOL0     O 7456   1.928   5.832   3.495  0.5759  0.2461  0.2831
  815MOL0     C 7457   1.951   5.706   3.416 -0.2916 -0.3688  1.0769
  815MOL0     C 7458   1.821   5.662   3.364  0.6450 -0.0917  0.3151
  815MOL0     C 7459   1.696   5.696   3.451 -0.1133  0.1551 -0.4332
  815MOL0     C 7460   1.567   5.663   3.379  0.5416  0.3514 -0.1842
  815MOL0     C 7461   1.459   5.634   3.482  0.2621  0.0412  0.0564
  815MOL0     C 7462   1.315   5.618   3.429  0.5055  0.5302  0.1411
  815MOL0     C 7463   1.213   5.647   3.542  0.0788  0.2859  0.8776
  815MOL0     C 7464   1.065   5.644   3.494  0.0664 -0.0984  0.9184
  815MOL0     N 7465   0.994   5.519   3.543  0.0788  0.2531  0.2637
  815MOL0     C 7466   0.864   5.510   3.579 -0.1857  0.6474  0.1584
  815MOL0     C 7467   0.851   5.374   3.601  0.0501 -0.0077 -0.3995
  815MOL0     C 7468   0.728   5.301   3.642 -0.1801  0.1026  0.5740
  815MOL0     C 7469   0.604   5.375   3.587  0.0597 -0.0540  0.4157
  815MOL0     C 7470   0.483   5.270   3.571  0.3745 -0.6706 -0.3815
  815MOL0     C 7471   0.427   5.233   3.709 -0.1629  0.3762 -0.4132
  815MOL0     O 7472   0.358   5.112   3.705 -0.3750  0.3913 -0.3729
  815MOL0     C 7473   0.217   5.102   3.709 -0.2270  0.4688  0.8144
  815MOL0     C 7474   0.130   5.208   3.720  0.6926  0.4014  0.4502
  815MOL0     C 7475  -0.008   5.187   3.725  1.0255 -0.6762 -0.5282
  815MOL0     C 7476  -0.068   5.062   3.708 -0.3005  0.1188 -0.1686
  815MOL0     C 7477  -0.213   5.034   3.714  0.1274 -1.1250 -0.3900
  815MOL0     O 7478  -0.242   4.898   3.726 -0.1585 -0.4193 -0.8721
  815MOL0     C 7479  -0.374   4.843   3.723  0.2316  0.4122  0.1418
  815MOL0     C 7480  -0.405   4.728   3.644 -1.0391  0.0767  0.2188
  815MOL0     C 7481  -0.534   4.676   3.652 -0.6096  0.2517  0.8798
  815MOL0     C 7482  -0.628   4.732   3.738  0.2387  0.3024  0.5970
  815MOL0     O 7483  -0.743   4.654   3.756 -0.3789  0.5991  0.1837
  815MOL0     C 7484  -0.810   4.652   3.886 -0.0970  0.2969  0.2209
  815MOL0     C 7485  -0.919   4.540   3.881 -0.0323  0.5919  0.0566
  815MOL0     C 7486  -0.989   4.515   4.014 -0.0225 -0.1642 -0.6974
  815MOL0     C 7487  -1.081   4.391   4.002 -0.4074 -0.1072 -0.7373
  815MOL0     C 7488  -1.198   4.399   4.103  0.6269  0.3216 -0.1228
  815MOL0     C 7489  -1.272   4.267   4.130 -0.0581  0.3608 -0.4260
  815MOL0     C 7490  -1.401   4.284   4.211 -0.0627  0.2461 -0.2935
  815MOL0     C 7491  -1.379   4.336   4.348  0.6167  0.1117 -0.7858
  815MOL0    Cl 7492  -1.295   4.217   4.446 -0.0172  0.1377  0.3711
  815MOL0     C 7493  -0.603   4.850   3.810  1.0067 -0.0992 -0.6117
  815MOL0     C 7494  -0.473   4.903   3.803  0.3730 -0.4983 -0.6648
  815MOL0     O 7495  -0.294   5.121   3.695  0.2419 -0.2940  0.4206
  815MOL0     C 7496   0.015   4.958   3.668 -0.3576 -0.1811 -0.7403
  815MOL0     C 7497   0.153   4.981   3.681 -0.8683  0.7865 -0.2512
  815MOL0     N 7498   0.965   5.304   3.573 -0.5849 -0.0105 -0.0383
  815MOL0     N 7499   1.053   5.394   3.533  0.3794  0.6982 -0.1822
  815MOL0     C 7500   2.153   5.804   3.612  0.1017  0.2074 -0.2644
  815MOL0     C 7501   2.250   5.855   3.690  0.0629 -0.6847  0.0576
  815MOL0     C 7502   2.498   6.087   3.986  0.0397  0.2451 -0.1275
  815MOL0     C 7503   2.536   6.033   4.109 -0.4364 -0.1282  0.6971
  815MOL0     C 7504   2.598   6.104   4.209  0.1570  0.3473  0.2861
  815MOL0     C 7505   2.598   6.246   4.184  0.2744 -0.0772  0.2674
  815MOL0     O 7506   2.659   6.329   4.271 -0.3388  0.3095  0.2597
  815MOL0     C 7507   2.743   6.278   4.381  0.0077 -0.7397  0.0555
  815MOL0     C 7508   2.894   6.254   4.344 -0.3708 -0.3647  0.2365
  815MOL0     C 7509   2.964   6.385   4.322 -0.1211 -0.0829  0.5945
  815MOL0     C 7510   3.113   6.362   4.292 -0.4123  1.0203 -0.4871
  815MOL0     C 7511   3.188   6.483   4.258  0.5184  0.4137 -0.4384
  815MOL0     C 7512   3.262   6.572   4.242  0.1407 -0.4370 -0.1747
  815MOL0     C 7513   2.565   6.295   4.056 -0.6750  0.4159  0.5367
  815MOL0     C 7514   2.529   6.216   3.950 -0.3000  0.2723 -0.2530
  815MOL0     H 7515   2.093   6.134   3.797 -0.6452 -2.4562  3.5240
  815MOL0     H 7516   1.921   6.048   3.617 -0.6127 -2.1441 -1.3969
  815MOL0     H 7517   2.002   5.623   3.465  1.8955 -0.1014 -0.6145
  815MOL0     H 7518   2.015   5.723   3.329 -0.7688  0.5410  0.8893
  815MOL0     H 7519   1.822   5.552   3.356 -3.9275 -0.3493  0.4961
  815MOL0     H 7520   1.806   5.709   3.267  0.4320  1.4256  1.0576
  815MOL0     H 7521   1.696   5.801   3.479  2.2634 -0.1141  0.8901
  815MOL0     H 7522   1.710   5.628   3.536  0.2563  0.1266 -0.5168
  815MOL0     H 7523   1.533   5.745   3.317  1.3003 -0.1868 -1.3460
  815MOL0     H 7524   1.591   5.582   3.309 -1.1272 -1.4125  1.1593
  815MOL0     H 7525   1.467   5.711   3.559 -4.1687  0.6908  0.1035
  815MOL0     H 7526   1.483   5.534   3.521  1.2152 -1.6995 -4.4257
  815MOL0     H 7527   1.309   5.514   3.396  0.5017 -0.3643  2.6941
  815MOL0     H 7528   1.292   5.691   3.351 -0.0843 -0.5102 -0.6743
  815MOL0     H 7529   1.233   5.574   3.621  0.2981  2.5487  3.0178
  815MOL0     H 7530   1.237   5.745   3.583  1.5791  0.9616 -1.3989
  815MOL0     H 7531   1.059   5.639   3.385 -0.1175  1.3902  0.8498
  815MOL0     H 7532   1.004   5.728   3.528 -2.2806 -1.2078 -0.2647
  815MOL0     H 7533   0.787   5.585   3.594 -1.8694 -0.7823 -0.8435
  815MOL0     H 7534   0.726   5.281   3.749  1.4708 -2.3333  0.2364
  815MOL0     H 7535   0.734   5.205   3.589  1.6771  1.0657 -1.1211
  815MOL0     H 7536   0.616   5.425   3.490 -0.1371  2.6491  1.6872
  815MOL0     H 7537   0.591   5.465   3.647 -1.0571  0.6936 -0.8796
  815MOL0     H 7538   0.399   5.314   3.517  0.5830  0.2782  0.0495
  815MOL0     H 7539   0.515   5.187   3.507  0.8251 -1.2619  0.5975
  815MOL0     H 7540   0.366   5.317   3.743  1.5224  1.6364 -0.3838
  815MOL0     H 7541   0.503   5.207   3.783 -0.9288 -1.2312 -0.1463
  815MOL0     H 7542   0.156   5.313   3.730 -1.1006  0.8877  0.2286
  815MOL0     H 7543  -0.073   5.267   3.759 -1.7486 -3.9893  2.8401
  815MOL0     H 7544  -0.322   4.690   3.586 -1.1854 -1.0909  0.7571
  815MOL0     H 7545  -0.555   4.583   3.599  2.0251  0.7728 -1.2896
  815MOL0     H 7546  -0.848   4.750   3.917  1.9251  0.8760  1.0031
  815MOL0     H 7547  -0.749   4.626   3.973 -2.7801  1.8378  2.7528
  815MOL0     H 7548  -0.870   4.450   3.845 -1.4471 -0.3996  0.5173
  815MOL0     H 7549  -0.994   4.566   3.806 -0.2833 -1.2373 -0.3517
  815MOL0     H 7550  -1.041   4.607   4.042 -0.2025 -0.6052  0.4254
  815MOL0     H 7551  -0.916   4.484   4.089  1.8497 -0.4467 -2.5185
  815MOL0     H 7552  -1.128   4.402   3.904 -0.0433  1.1990 -0.7854
  815MOL0     H 7553  -1.019   4.302   4.021  1.7928  1.5767  0.5395
  815MOL0     H 7554  -1.272   4.471   4.066  0.6969  0.7497  0.5523
  815MOL0     H 7555  -1.162   4.444   4.196  3.8658  0.6711 -1.4263
  815MOL0     H 7556  -1.203   4.199   4.182 -0.7551 -0.9746 -1.1962
  815MOL0     H 7557  -1.298   4.223   4.033 -0.7606 -1.9910  0.7372
  815MOL0     H 7558  -1.477   4.337   4.153 -1.4569 -1.1666  0.1664
  815MOL0     H 7559  -1.446   4.187   4.235  1.5496  0.4427  4.7350
  815MOL0     H 7560  -1.478   4.352   4.391  1.3744  2.7585  0.1712
  815MOL0     H 7561  -1.322   4.429   4.338  2.4141 -1.2030 -5.9563
  815MOL0     H 7562  -0.668   4.891   3.886  1.8512  0.1943 -0.0395
  815MOL0     H 7563  -0.447   4.971   3.884 -0.4954 -1.8280  0.8043
  815MOL0     H 7564  -0.025   4.863   3.633  1.2517 -0.2310 -2.5931
  815MOL0     H 7565   0.214   4.899   3.644 -2.3587 -0.2481 -0.5274
  815MOL0     H 7566   2.172   5.708   3.566  1.5146 -0.3170  1.3096
  815MOL0     H 7567   2.337   5.795   3.714 -0.2214 -0.5932  1.3840
  815MOL0     H 7568   2.504   5.933   4.138  0.4993  0.4618  4.1456
  815MOL0     H 7569   2.620   6.056   4.304  0.6399  0.0575  0.0308
  815MOL0     H 7570   2.709   6.182   4.421 -0.9478  0.0673  1.2511
  815MOL0     H 7571   2.739   6.349   4.464  1.3641 -0.8610  0.2462
  815MOL0     H 7572   2.940   6.193   4.422  1.3379  0.5624 -0.0227
  815MOL0     H 7573   2.907   6.203   4.248  1.0084  0.2551  0.0816
  815MOL0     H 7574   2.946   6.443   4.414  2.0673 -0.0055  1.0350
  815MOL0     H 7575   2.921   6.443   4.241  0.9826  0.4748  0.3814
  815MOL0     H 7576   3.163   6.337   4.386  0.9431  3.1401 -0.5690
  815MOL0     H 7577   3.131   6.292   4.210  2.5857 -0.8050  1.5438
  815MOL0     H 7578   3.314   6.661   4.214 -0.7280 -0.2185 -1.1980
  815MOL0     H 7579   2.587   6.400   4.039 -3.2818  0.6365 -2.4929
  815MOL0     H 7580   2.490   6.259   3.859 -1.5731  1.6040  0.8700
  816MOL0     O 7581   9.660   7.457   7.849  0.2406 -0.0238 -0.0741
  816MOL0     C 7582   9.706   7.491   7.741 -0.6232  0.2373  0.2674
  816MOL0     O 7583   9.670   7.590   7.670  0.1699 -0.7510 -0.4987
  816MOL0     C 7584   9.567   7.664   7.718  0.4998 -0.0105 -0.1639
  816MOL0     C 7585   9.441   7.658   7.649  0.4166 -0.7078 -0.1023
  816MOL0     C 7586   9.340   7.746   7.674  0.4836 -0.9160  0.1811
  816MOL0     C 7587   9.351   7.845   7.771 -0.3817 -0.5651  0.2955
  816MOL0     O 7588   9.241   7.925   7.800 -0.1424  0.2832 -0.2738
  816MOL0     C 7589   9.242   8.019   7.903  0.0983  0.2288 -0.1506
  816MOL0     C 7590   9.112   8.088   7.905 -0.3136 -0.0924  0.2597
  816MOL0     C 7591   9.103   8.164   7.779  0.0018 -0.8278  0.3602
  816MOL0     C 7592   8.994   8.276   7.769 -0.5624 -0.4671 -0.5465
  816MOL0     C 7593   9.016   8.368   7.645  0.1404  0.4171  0.2717
  816MOL0     C 7594   8.933   8.496   7.638 -0.6833 -0.0724 -0.0988
  816MOL0     C 7595   8.790   8.466   7.627 -1.2176  0.1170 -0.3407
  816MOL0     C 7596   8.736   8.437   7.488 -0.4632  0.9409 -0.4780
  816MOL0     N 7597   8.593   8.377   7.496 -0.2135  0.0190 -0.0377
  816MOL0     C 7598   8.558   8.274   7.577  0.9212 -0.4140  0.8033
  816MOL0     C 7599   8.426   8.268   7.564  0.5848 -0.7400  0.3760
  816MOL0     C 7600   8.347   8.180   7.647 -0.3955 -0.0091 -0.4457
  816MOL0     C 7601   8.355   8.034   7.597  1.6624  1.1240  0.2213
  816MOL0     C 7602   8.330   8.011   7.450 -0.3986  0.5395  0.2267
  816MOL0     C 7603   8.209   8.072   7.380 -0.3618  0.1259 -0.2453
  816MOL0     O 7604   8.102   8.029   7.458  0.8876 -0.6255  0.0998
  816MOL0     C 7605   7.970   8.032   7.411  0.4940  0.0877 -0.0367
  816MOL0     C 7606   7.870   7.965   7.485 -0.8230 -0.3608 -0.0793
  816MOL0     C 7607   7.742   7.960   7.430  0.6104  0.2591  0.4611
  816MOL0     C 7608   7.707   8.023   7.310  0.5241  0.4704 -0.2056
  816MOL0     C 7609   7.569   8.032   7.265  0.4189 -0.9022  0.3575
  816MOL0     O 7610   7.477   7.980   7.346  0.4389  0.2853 -0.0185
  816MOL0     C 7611   7.340   7.992   7.315  0.5674  0.5025 -0.5344
  816MOL0     C 7612   7.275   7.895   7.239  0.5649  0.3427 -0.2628
  816MOL0     C 7613   7.135   7.891   7.220 -0.8673  0.5007 -0.0699
  816MOL0     C 7614   7.058   7.997   7.262 -0.2162 -0.0669  0.2409
  816MOL0     O 7615   6.920   7.996   7.267  0.3164 -0.1681 -0.1796
  816MOL0     C 7616   6.878   7.910   7.383  0.4861 -0.3516  0.5088
  816MOL0     C 7617   6.768   7.803   7.351 -0.5846  0.6459 -0.3212
  816MOL0     C 7618   6.758   7.698   7.460 -0.0662  0.0817 -0.4312
  816MOL0     C 7619   6.881   7.610   7.477  0.0553 -0.4010 -0.3903
  816MOL0     C 7620   6.889   7.571   7.632 -0.3722 -0.1303  0.3018
  816MOL0     C 7621   6.772   7.482   7.681 -0.0938 -0.8398 -0.1081
  816MOL0     C 7622   6.755   7.348   7.615 -0.2175  0.6727  0.0203
  816MOL0     C 7623   6.617   7.289   7.652  0.7583 -0.2711 -1.3860
  816MOL0    Cl 7624   6.600   7.273   7.828 -0.1224 -0.3502  0.1317
  816MOL0     C 7625   7.117   8.101   7.336 -0.0535  0.2636  0.0708
  816MOL0     C 7626   7.254   8.099   7.363 -1.0230  0.3187 -0.1554
  816MOL0     O 7627   7.545   8.085   7.153 -0.6337 -0.2126  0.0258
  816MOL0     C 7628   7.805   8.088   7.243  0.0769 -0.1436  0.2957
  816MOL0     C 7629   7.935   8.093   7.285 -0.4081 -0.1617 -0.0288
  816MOL0     N 7630   8.381   8.364   7.469 -0.0317 -1.1165  0.9088
  816MOL0     N 7631   8.480   8.434   7.440 -0.4504  0.1572  0.5720
  816MOL0     C 7632   9.479   7.862   7.825 -0.1974  0.2615  0.2460
  816MOL0     C 7633   9.585   7.777   7.805 -0.2647  0.6003  0.0636
  816MOL0     C 7634   9.814   7.415   7.686 -0.5572 -0.4485 -0.2576
  816MOL0     C 7635   9.867   7.304   7.757 -0.3897 -0.1706  0.0380
  816MOL0     C 7636   9.984   7.227   7.713  0.0753 -0.8587  0.2427
  816MOL0     C 7637  10.047   7.266   7.593  0.1098 -0.3564 -0.5558
  816MOL0     O 7638  10.164   7.217   7.539  0.6393  0.1524  0.0087
  816MOL0     C 7639  10.255   7.133   7.610  0.7881 -0.1283  0.1311
  816MOL0     C 7640  10.388   7.118   7.546 -0.1670  0.5598 -0.6706
  816MOL0     C 7641  10.385   7.049   7.412  0.4514  1.1903  1.3294
  816MOL0     C 7642  10.520   6.986   7.375 -0.1703 -0.0617 -0.4718
  816MOL0     C 7643  10.623   7.091   7.372 -0.1336  0.9891  0.1340
  816MOL0     C 7644  10.711   7.169   7.359 -0.1812 -1.0155  0.4092
  816MOL0     C 7645   9.993   7.367   7.517  0.4838 -0.1718  0.2103
  816MOL0     C 7646   9.884   7.446   7.560 -0.3104  0.0981  0.7397
  816MOL0     H 7647   9.444   7.589   7.564  0.7989 -2.0838  0.9842
  816MOL0     H 7648   9.248   7.741   7.617  0.2343 -1.5258  0.6226
  816MOL0     H 7649   9.318   8.094   7.878  0.5854 -0.1002  0.3116
  816MOL0     H 7650   9.250   7.970   8.000  0.9274  0.7501  0.0615
  816MOL0     H 7651   9.107   8.148   7.997 -1.6296 -0.1220  0.2215
  816MOL0     H 7652   9.028   8.020   7.917  0.1214 -0.2928  2.7747
  816MOL0     H 7653   9.086   8.095   7.696 -2.0846 -3.2631  2.6272
  816MOL0     H 7654   9.198   8.205   7.745  0.8403 -2.9279 -0.0072
  816MOL0     H 7655   8.892   8.237   7.763 -1.5660  1.7160  1.1204
  816MOL0     H 7656   8.997   8.344   7.854  0.5545 -2.8429  1.4286
  816MOL0     H 7657   9.004   8.307   7.555  3.9614 -0.1723 -0.0102
  816MOL0     H 7658   9.124   8.390   7.642 -0.1225  1.8095 -2.2744
  816MOL0     H 7659   8.972   8.568   7.566  0.5996 -1.4099 -0.7969
  816MOL0     H 7660   8.941   8.561   7.726 -1.8954  0.9183 -0.6848
  816MOL0     H 7661   8.765   8.382   7.693 -1.5460  1.2590  1.0578
  816MOL0     H 7662   8.740   8.557   7.662 -0.5913  0.5278 -0.4984
  816MOL0     H 7663   8.809   8.370   7.441 -0.5314  0.9913 -0.6568
  816MOL0     H 7664   8.721   8.530   7.434  0.2781  1.0260 -0.5424
  816MOL0     H 7665   8.617   8.222   7.652 -0.8395 -1.5824  1.4556
  816MOL0     H 7666   8.244   8.217   7.642  0.0863  1.3492 -0.7137
  816MOL0     H 7667   8.371   8.177   7.754  0.9535  0.6633 -0.7024
  816MOL0     H 7668   8.283   7.972   7.651  1.9730  0.2892 -0.3022
  816MOL0     H 7669   8.456   7.995   7.613  0.6846 -1.6684  0.1341
  816MOL0     H 7670   8.418   8.034   7.389  0.6770 -2.1438  0.6170
  816MOL0     H 7671   8.318   7.903   7.445 -2.4439  0.7625 -0.5909
  816MOL0     H 7672   8.195   8.022   7.284 -0.0523 -0.0658 -0.1923
  816MOL0     H 7673   8.225   8.177   7.355  0.7343  0.1119  0.3315
  816MOL0     H 7674   7.910   7.919   7.574 -0.1643 -1.3863 -0.8826
  816MOL0     H 7675   7.665   7.927   7.498 -2.0424  2.6821 -1.1338
  816MOL0     H 7676   7.337   7.815   7.199 -0.2803  0.9476 -2.9671
  816MOL0     H 7677   7.089   7.801   7.181 -0.8937  0.4024  0.1896
  816MOL0     H 7678   6.842   7.962   7.472 -4.0948 -3.1682  0.6029
  816MOL0     H 7679   6.966   7.856   7.419  0.8107  0.6759  1.2918
  816MOL0     H 7680   6.807   7.746   7.266  0.8321 -0.3718  0.9608
  816MOL0     H 7681   6.668   7.847   7.341 -0.7625  0.4289  0.4255
  816MOL0     H 7682   6.679   7.626   7.436  1.0882 -0.9108 -1.3650
  816MOL0     H 7683   6.725   7.753   7.549 -2.2387  2.3202 -2.4306
  816MOL0     H 7684   6.873   7.516   7.423 -1.2135 -0.5581  0.0584
  816MOL0     H 7685   6.975   7.659   7.448  0.4876 -0.3466  1.0272
  816MOL0     H 7686   6.893   7.664   7.689  0.8459 -0.1083  0.1966
  816MOL0     H 7687   6.981   7.517   7.654 -1.3878 -1.5979  1.1167
  816MOL0     H 7688   6.684   7.541   7.655 -0.1840 -1.3486 -1.0242
  816MOL0     H 7689   6.779   7.451   7.786 -1.6463 -3.9042 -0.7825
  816MOL0     H 7690   6.750   7.360   7.506 -1.4334  0.0906 -0.0048
  816MOL0     H 7691   6.830   7.273   7.643 -0.6794 -0.0258 -0.5766
  816MOL0     H 7692   6.590   7.193   7.608 -1.5009 -1.0525  1.3890
  816MOL0     H 7693   6.543   7.363   7.620 -0.4844 -0.3416  1.1113
  816MOL0     H 7694   7.059   8.186   7.368 -0.3696  0.2679 -0.5014
  816MOL0     H 7695   7.302   8.184   7.411  0.6472 -1.3634  1.3276
  816MOL0     H 7696   7.791   8.141   7.150  3.5776 -0.8411 -0.7707
  816MOL0     H 7697   8.012   8.143   7.226  1.5729 -1.9199  0.9234
  816MOL0     H 7698   9.502   7.949   7.885  1.0828  1.4510 -1.8464
  816MOL0     H 7699   9.682   7.794   7.852  0.9059 -0.0721 -1.9746
  816MOL0     H 7700   9.818   7.268   7.848  1.5890 -1.4414  0.6649
  816MOL0     H 7701  10.016   7.145   7.776  2.8731  1.3736  1.9635
  816MOL0     H 7702  10.209   7.034   7.610 -2.3421  1.1296  2.6770
  816MOL0     H 7703  10.256   7.158   7.717 -1.2724  2.5770 -0.3384
  816MOL0     H 7704  10.418   7.221   7.524 -1.9227  0.9341 -1.5495
  816MOL0     H 7705  10.435   7.058   7.624 -4.3703 -1.8034  0.3510
  816MOL0     H 7706  10.359   7.123   7.336  0.5680  1.5254  1.6176
  816MOL0     H 7707  10.312   6.967   7.412  0.0304  1.4440 -1.8078
  816MOL0     H 7708  10.551   6.907   7.443 -0.8553 -1.2185 -1.4688
  816MOL0     H 7709  10.507   6.938   7.278 -2.5508 -0.2405 -0.1383
  816MOL0     H 7710  10.777   7.252   7.342 -1.4812 -0.3563 -1.9067
  816MOL0     H 7711  10.040   7.395   7.423 -2.1864  0.5073 -1.0237
  816MOL0     H 7712   9.838   7.513   7.488  0.2803 -1.5861 -1.3094
  817MOL0     O 7713   7.389   7.594   3.920 -0.0659  0.0308  0.3665
  817MOL0     C 7714   7.396   7.497   3.998 -0.2275 -1.0766 -0.3649
  817MOL0     O 7715   7.368   7.368   3.972  0.5962  0.3016  0.0391
  817MOL0     C 7716   7.334   7.318   3.851  1.0215  0.9054 -0.0072
  817MOL0     C 7717   7.417   7.344   3.744  0.1374  0.2654  0.1866
  817MOL0     C 7718   7.388   7.297   3.619 -0.0506  0.0198  0.3427
  817MOL0     C 7719   7.286   7.205   3.599  0.1478 -0.1409  0.1402
  817MOL0     O 7720   7.248   7.136   3.479 -0.1335  0.5942  0.0102
  817MOL0     C 7721   7.295   7.185   3.349 -0.2129 -0.3466 -0.2131
  817MOL0     C 7722   7.249   7.082   3.246 -0.0284 -0.4997 -0.0542
  817MOL0     C 7723   7.262   6.926   3.291  0.8132 -0.2546  0.6085
  817MOL0     C 7724   7.225   6.829   3.172 -0.2547  0.6993 -0.3602
  817MOL0     C 7725   7.078   6.843   3.130 -0.0126  0.2144  0.8688
  817MOL0     C 7726   6.986   6.802   3.245  0.3532 -0.2465 -0.1002
  817MOL0     C 7727   6.838   6.791   3.205 -0.0176 -0.3124  0.0133
  817MOL0     C 7728   6.761   6.725   3.322  0.4251  0.7178  0.0699
  817MOL0     N 7729   6.637   6.666   3.259  0.2946  0.5190  0.5778
  817MOL0     C 7730   6.583   6.546   3.290 -0.0269  0.2249 -0.2482
  817MOL0     C 7731   6.473   6.536   3.219 -0.0364  0.3635  0.1223
  817MOL0     C 7732   6.380   6.424   3.232 -1.1614  0.8967 -0.5595
  817MOL0     C 7733   6.232   6.451   3.246 -0.0725 -0.3028  0.5387
  817MOL0     C 7734   6.165   6.328   3.315 -0.4055  0.1061 -0.0641
  817MOL0     C 7735   6.013   6.350   3.334 -0.7462 -0.1901 -0.2287
  817MOL0     O 7736   5.955   6.255   3.426 -0.4524 -0.0962 -0.4811
  817MOL0     C 7737   5.833   6.285   3.452  0.3411 -1.1525 -0.0155
  817MOL0     C 7738   5.743   6.257   3.355  0.3545  0.9296 -0.2399
  817MOL0     C 7739   5.606   6.291   3.375  0.5134 -0.4708 -0.6241
  817MOL0     C 7740   5.558   6.356   3.498 -0.5381 -0.1805  0.6886
  817MOL0     C 7741   5.415   6.391   3.515 -0.2862  0.1495  0.5439
  817MOL0     O 7742   5.330   6.350   3.422 -0.2594  0.1171  0.4964
  817MOL0     C 7743   5.201   6.390   3.433 -0.5952 -0.2531 -0.0878
  817MOL0     C 7744   5.158   6.472   3.321 -0.0134 -0.2637 -0.5077
  817MOL0     C 7745   5.027   6.518   3.324 -1.2288 -0.0802  1.0379
  817MOL0     C 7746   4.935   6.474   3.418  0.8767 -0.9051 -0.4615
  817MOL0     O 7747   4.806   6.526   3.434  0.1954  0.6779  0.5635
  817MOL0     C 7748   4.786   6.655   3.365  0.6967 -0.1436 -0.1612
  817MOL0     C 7749   4.675   6.728   3.442 -0.2986 -0.2102  0.1664
  817MOL0     C 7750   4.541   6.663   3.398 -0.4270  0.5564  0.5631
  817MOL0     C 7751   4.414   6.706   3.481 -0.1827 -0.1266 -0.0652
  817MOL0     C 7752   4.359   6.850   3.447 -0.0803  0.1733 -0.4618
  817MOL0     C 7753   4.225   6.893   3.505 -0.1843  0.6156 -0.8466
  817MOL0     C 7754   4.213   6.873   3.650  0.2999  0.2440 -0.8133
  817MOL0     C 7755   4.106   6.949   3.727 -0.1320 -0.3988  0.0265
  817MOL0    Cl 7756   4.113   6.915   3.908 -0.1941  0.3341  0.2523
  817MOL0     C 7757   4.972   6.398   3.530 -0.3509  0.2973  0.4128
  817MOL0     C 7758   5.109   6.363   3.542  0.4348 -0.6468  0.5178
  817MOL0     O 7759   5.384   6.464   3.610  0.5320 -0.1506 -0.7662
  817MOL0     C 7760   5.661   6.393   3.593  0.0988 -0.7121 -0.2177
  817MOL0     C 7761   5.792   6.357   3.570 -0.4762  0.4272  0.4806
  817MOL0     N 7762   6.453   6.654   3.143  0.4014  0.1445 -0.3884
  817MOL0     N 7763   6.555   6.726   3.168 -0.1629 -0.4335  0.0849
  817MOL0     C 7764   7.208   7.164   3.708  0.5545 -0.5831  0.4473
  817MOL0     C 7765   7.229   7.224   3.832 -0.3964 -0.0240 -0.4926
  817MOL0     C 7766   7.432   7.532   4.137  0.8197 -0.0808 -0.8856
  817MOL0     C 7767   7.449   7.664   4.174  0.0441 -0.3642  0.7073
  817MOL0     C 7768   7.480   7.708   4.301  0.5067 -0.0093  0.6170
  817MOL0     C 7769   7.504   7.606   4.400  0.5938 -0.7080  0.0603
  817MOL0     O 7770   7.521   7.627   4.535 -0.1823 -0.1921 -0.4773
  817MOL0     C 7771   7.500   7.768   4.581  0.0812 -0.2581 -0.3217
  817MOL0     C 7772   7.468   7.761   4.735 -0.3916 -0.5967  0.5121
  817MOL0     C 7773   7.576   7.692   4.806 -0.2364 -0.0657  0.1105
  817MOL0     C 7774   7.700   7.784   4.833  0.5775  0.3112 -1.3149
  817MOL0     C 7775   7.802   7.711   4.911  0.1973 -0.6979  0.1748
  817MOL0     C 7776   7.879   7.650   4.984 -0.0157 -0.1872 -0.1135
  817MOL0     C 7777   7.491   7.472   4.363 -0.2274 -0.3661  1.1329
  817MOL0     C 7778   7.468   7.435   4.234  0.1050 -0.6157 -0.0415
  817MOL0     H 7779   7.495   7.420   3.743  0.0244  0.3939 -1.3292
  817MOL0     H 7780   7.454   7.333   3.540  0.0595  1.8604  1.2303
  817MOL0     H 7781   7.403   7.199   3.355 -0.3042 -0.0521  1.0697
  817MOL0     H 7782   7.249   7.283   3.330 -1.1924 -0.2530  2.2559
  817MOL0     H 7783   7.308   7.108   3.157 -2.1087  0.2839 -1.2785
  817MOL0     H 7784   7.148   7.119   3.228  1.0246  1.9459 -1.5138
  817MOL0     H 7785   7.188   6.915   3.371 -2.3724  1.6909 -1.8667
  817MOL0     H 7786   7.364   6.908   3.327  1.5005 -0.3634 -1.2635
  817MOL0     H 7787   7.290   6.838   3.084  1.0767 -1.8337  0.2599
  817MOL0     H 7788   7.237   6.725   3.203 -1.9465  0.5979  0.0215
  817MOL0     H 7789   7.063   6.766   3.054 -1.8487  0.1534  1.2448
  817MOL0     H 7790   7.067   6.946   3.094 -0.1485  0.5219  1.7471
  817MOL0     H 7791   6.985   6.866   3.334 -0.1107 -0.4674  0.0551
  817MOL0     H 7792   7.017   6.700   3.266 -0.6016 -0.2556  1.4380
  817MOL0     H 7793   6.796   6.891   3.187  3.4423  1.3171  0.1726
  817MOL0     H 7794   6.824   6.727   3.117  0.4971  1.7871 -1.6868
  817MOL0     H 7795   6.744   6.803   3.396 -2.0675  1.2504 -0.9720
  817MOL0     H 7796   6.821   6.639   3.353  1.4615  0.6794 -1.8471
  817MOL0     H 7797   6.630   6.480   3.362  1.5609  1.3535 -0.1958
  817MOL0     H 7798   6.413   6.374   3.323 -2.3756  0.9694 -0.0597
  817MOL0     H 7799   6.394   6.342   3.161 -0.1063 -0.5141  1.2056
  817MOL0     H 7800   6.194   6.485   3.149 -1.6258 -2.4463  0.3162
  817MOL0     H 7801   6.217   6.539   3.308  3.1246  2.2333 -1.9284
  817MOL0     H 7802   6.186   6.233   3.266 -1.2154 -0.8331  1.3326
  817MOL0     H 7803   6.215   6.326   3.413  2.9177 -0.4361 -1.6402
  817MOL0     H 7804   5.976   6.346   3.231  2.9785 -0.4469 -1.7289
  817MOL0     H 7805   6.002   6.448   3.381  3.1585 -0.9947  2.9417
  817MOL0     H 7806   5.770   6.202   3.266 -0.3764  1.3866 -0.7559
  817MOL0     H 7807   5.545   6.271   3.287  0.1501 -1.3154 -0.1902
  817MOL0     H 7808   5.218   6.503   3.236 -1.2400  2.4212 -0.5041
  817MOL0     H 7809   4.993   6.573   3.236  1.8403 -1.2550 -1.0725
  817MOL0     H 7810   4.772   6.639   3.258  0.2037 -0.5510 -0.0394
  817MOL0     H 7811   4.879   6.711   3.380  1.2293 -1.5214  2.4365
  817MOL0     H 7812   4.689   6.835   3.421  3.0676 -0.7851 -1.2517
  817MOL0     H 7813   4.694   6.727   3.550  0.0589  3.2877  0.2587
  817MOL0     H 7814   4.544   6.553   3.397 -1.4490  0.5137 -1.0448
  817MOL0     H 7815   4.528   6.691   3.293 -0.5255 -1.4230  0.0039
  817MOL0     H 7816   4.336   6.634   3.454 -0.6603  0.2199  0.3846
  817MOL0     H 7817   4.444   6.705   3.586  2.4969 -3.0994 -0.7001
  817MOL0     H 7818   4.367   6.852   3.338 -1.2208 -2.1935 -0.6537
  817MOL0     H 7819   4.427   6.923   3.492  2.6017 -1.1683 -2.0686
  817MOL0     H 7820   4.145   6.836   3.457 -0.1763  1.0742 -1.4225
  817MOL0     H 7821   4.215   7.000   3.480  1.0099  0.1767 -3.6878
  817MOL0     H 7822   4.201   6.767   3.671 -0.0456  0.1060 -1.6802
  817MOL0     H 7823   4.311   6.899   3.692  0.4900 -1.8170  0.1438
  817MOL0     H 7824   4.010   6.915   3.685  0.6630 -0.4677 -1.8502
  817MOL0     H 7825   4.116   7.055   3.705  3.2947 -0.0446  2.5816
  817MOL0     H 7826   4.910   6.370   3.614  1.1906 -0.0676  1.4711
  817MOL0     H 7827   5.144   6.320   3.635  1.2426 -0.0846  0.4861
  817MOL0     H 7828   5.639   6.455   3.679 -0.1184 -2.4238  1.0264
  817MOL0     H 7829   5.872   6.390   3.636 -0.0464 -2.7692  1.7297
  817MOL0     H 7830   7.126   7.097   3.685 -0.4489  1.1396 -1.3446
  817MOL0     H 7831   7.165   7.203   3.917  2.6391  0.6394  2.1606
  817MOL0     H 7832   7.421   7.744   4.106 -1.9693 -0.1595  1.7048
  817MOL0     H 7833   7.465   7.813   4.321  0.8356  0.5365 -1.7661
  817MOL0     H 7834   7.412   7.802   4.527 -0.4306 -0.3813  0.4127
  817MOL0     H 7835   7.588   7.830   4.564  0.7000 -0.5421  1.5960
  817MOL0     H 7836   7.440   7.854   4.785 -2.8635 -1.0676  0.1160
  817MOL0     H 7837   7.383   7.693   4.742  1.7296 -3.2777  2.3855
  817MOL0     H 7838   7.611   7.608   4.745 -0.5339  0.0686 -0.2461
  817MOL0     H 7839   7.530   7.658   4.899 -2.2448 -1.1081 -1.2108
  817MOL0     H 7840   7.735   7.809   4.732  2.6396 -0.1427 -0.7417
  817MOL0     H 7841   7.680   7.874   4.892  0.8255 -0.2812 -0.3218
  817MOL0     H 7842   7.941   7.588   5.045  1.0428  0.9303 -0.0172
  817MOL0     H 7843   7.499   7.395   4.439 -0.8641 -0.7947  0.7813
  817MOL0     H 7844   7.463   7.330   4.208  0.9747 -0.7809  0.4028
  818MOL0     O 7845   6.262   9.569   7.672 -0.4287  0.6107 -0.1999
  818MOL0     C 7846   6.281   9.489   7.764  0.5141 -0.2229 -0.1398
  818MOL0     O 7847   6.187   9.425   7.841  0.3175  0.8478  0.1008
  818MOL0     C 7848   6.051   9.434   7.814 -0.9331 -0.1213 -0.7195
  818MOL0     C 7849   5.968   9.536   7.874 -0.0111  0.5884  0.2028
  818MOL0     C 7850   5.828   9.530   7.846  0.2036 -0.1918 -1.5126
  818MOL0     C 7851   5.775   9.426   7.773 -0.4503 -0.2894  0.6463
  818MOL0     O 7852   5.639   9.408   7.740 -0.3524  0.0036  0.9046
  818MOL0     C 7853   5.541   9.498   7.801 -0.0403  0.2286  0.2004
  818MOL0     C 7854   5.402   9.458   7.749  0.2400  0.3382  0.1941
  818MOL0     C 7855   5.284   9.509   7.831 -0.5852 -0.1267 -0.1598
  818MOL0     C 7856   5.152   9.516   7.754 -0.3653  0.1101  0.8145
  818MOL0     C 7857   5.032   9.565   7.832  0.1992  0.2783 -0.1951
  818MOL0     C 7858   4.979   9.462   7.935  0.0686 -0.1944 -0.2061
  818MOL0     C 7859   4.847   9.515   8.001 -0.1723 -0.1881 -0.1714
  818MOL0     C 7860   4.732   9.554   7.911  0.3476  1.2829  0.1112
  818MOL0     N 7861   4.703   9.440   7.819  0.5060 -0.8269 -0.6961
  818MOL0     C 7862   4.681   9.313   7.854  0.5988  0.2377  0.0233
  818MOL0     C 7863   4.711   9.245   7.745 -0.2681 -0.4794 -0.2999
  818MOL0     C 7864   4.689   9.101   7.738 -0.7887 -0.1238 -0.5320
  818MOL0     C 7865   4.536   9.068   7.742 -0.6027  0.4364  0.2583
  818MOL0     C 7866   4.519   8.923   7.721  0.0702  0.6002  0.2854
  818MOL0     C 7867   4.381   8.872   7.726 -0.1528 -0.0015  0.3119
  818MOL0     O 7868   4.289   8.965   7.667 -0.0972  0.2662 -0.2395
  818MOL0     C 7869   4.159   8.915   7.672  0.3763  0.3153 -1.0615
  818MOL0     C 7870   4.059   8.998   7.636  0.1237 -0.2535 -0.0067
  818MOL0     C 7871   3.926   8.953   7.620 -0.9638 -0.0959  0.1042
  818MOL0     C 7872   3.892   8.813   7.636 -0.1997  0.3708 -0.1843
  818MOL0     C 7873   3.753   8.759   7.604  0.1927 -0.2186  0.8021
  818MOL0     O 7874   3.651   8.858   7.600 -0.2051 -0.5654 -0.7556
  818MOL0     C 7875   3.518   8.814   7.604 -1.2884  0.6864  0.0489
  818MOL0     C 7876   3.458   8.779   7.724  0.5241  0.5632 -0.6357
  818MOL0     C 7877   3.320   8.728   7.731  0.5917 -0.3491  0.5659
  818MOL0     C 7878   3.251   8.705   7.614 -0.5121 -0.6793  0.3342
  818MOL0     O 7879   3.118   8.662   7.593 -0.5723 -0.4233  0.4335
  818MOL0     C 7880   3.046   8.588   7.692 -0.1300 -1.0858 -0.2973
  818MOL0     C 7881   2.963   8.691   7.778  1.1195  0.3999  0.2928
  818MOL0     C 7882   2.843   8.635   7.865 -0.2117  0.8054 -0.2418
  818MOL0     C 7883   2.751   8.743   7.913 -0.5281 -0.8741  0.1224
  818MOL0     C 7884   2.609   8.693   7.896 -0.1779  0.0821 -0.0794
  818MOL0     C 7885   2.520   8.789   7.979  0.6490 -0.0727  0.2604
  818MOL0     C 7886   2.370   8.759   7.960  0.5710  0.1089  0.1061
  818MOL0     C 7887   2.280   8.831   8.042  0.2913 -0.5003 -0.2666
  818MOL0    Cl 7888   2.299   9.010   8.029 -0.2658 -0.1750  0.1178
  818MOL0     C 7889   3.326   8.715   7.495 -0.2119 -0.4646  0.7338
  818MOL0     C 7890   3.450   8.784   7.483 -0.4745 -0.2027 -0.2445
  818MOL0     O 7891   3.737   8.633   7.620 -0.6334 -0.8832 -0.3113
  818MOL0     C 7892   3.991   8.730   7.678 -0.5036  0.4204 -0.8008
  818MOL0     C 7893   4.123   8.774   7.690 -0.1958 -0.3887  0.1569
  818MOL0     N 7894   4.750   9.329   7.647  0.4528  0.0710  0.0610
  818MOL0     N 7895   4.753   9.445   7.694 -0.3553  0.1502 -0.2636
  818MOL0     C 7896   5.854   9.324   7.716 -0.0678 -0.5165  0.6071
  818MOL0     C 7897   5.989   9.327   7.744  0.6026 -0.3271 -0.1639
  818MOL0     C 7898   6.424   9.462   7.786 -0.1130  0.0691  0.7535
  818MOL0     C 7899   6.453   9.367   7.888 -1.6316 -0.8649 -0.1176
  818MOL0     C 7900   6.591   9.334   7.922 -0.3686 -0.1110 -0.5211
  818MOL0     C 7901   6.701   9.397   7.857  0.0015  0.4179 -0.1912
  818MOL0     O 7902   6.818   9.369   7.922 -0.1709 -0.0887  0.6252
  818MOL0     C 7903   6.930   9.433   7.865 -0.9412 -0.0388  0.1776
  818MOL0     C 7904   7.042   9.396   7.956  0.0488 -0.6070  0.7245
  818MOL0     C 7905   7.166   9.472   7.919 -0.1420 -0.0237  0.1072
  818MOL0     C 7906   7.258   9.470   8.038  0.3025  0.9268 -0.2887
  818MOL0     C 7907   7.396   9.503   7.997  0.7105  0.4022 -0.2708
  818MOL0     C 7908   7.503   9.531   7.953 -0.2304  0.4088 -0.3442
  818MOL0     C 7909   6.665   9.487   7.752  0.1675  1.2151  0.2576
  818MOL0     C 7910   6.533   9.525   7.722 -0.1562 -0.2553  0.6876
  818MOL0     H 7911   6.006   9.621   7.930  0.4100 -1.1125  2.6429
  818MOL0     H 7912   5.769   9.602   7.902  2.3715  0.7111 -0.2436
  818MOL0     H 7913   5.574   9.596   7.765 -1.8930  0.2416 -1.6200
  818MOL0     H 7914   5.543   9.499   7.911 -0.9671  1.5063  0.2305
  818MOL0     H 7915   5.394   9.350   7.740 -2.9377  0.5978 -1.5509
  818MOL0     H 7916   5.392   9.493   7.646 -1.0153 -3.7366 -1.2366
  818MOL0     H 7917   5.302   9.613   7.862  2.0711  0.3739 -2.9222
  818MOL0     H 7918   5.272   9.443   7.918 -2.7122  2.5173  1.7367
  818MOL0     H 7919   5.171   9.582   7.669 -0.6453 -1.5059 -0.5586
  818MOL0     H 7920   5.117   9.422   7.708  0.1420  1.1777 -1.9640
  818MOL0     H 7921   4.945   9.587   7.770  0.1399 -1.6139 -0.8567
  818MOL0     H 7922   5.062   9.657   7.883  1.9255 -0.5526  0.3680
  818MOL0     H 7923   5.044   9.442   8.021 -0.9396 -1.9602  0.2129
  818MOL0     H 7924   4.968   9.365   7.885  0.2489 -1.3075  1.7886
  818MOL0     H 7925   4.820   9.431   8.066 -1.5034 -1.0531 -1.7709
  818MOL0     H 7926   4.862   9.594   8.075  0.0639 -1.5535  1.3045
  818MOL0     H 7927   4.753   9.640   7.848 -3.0834  1.2816 -1.2142
  818MOL0     H 7928   4.642   9.571   7.970 -0.8048 -2.4831 -0.3134
  818MOL0     H 7929   4.655   9.272   7.951 -0.3323 -0.1954 -0.4025
  818MOL0     H 7930   4.724   9.047   7.827 -3.0062  0.3188  0.6821
  818MOL0     H 7931   4.735   9.061   7.647  1.5701  3.3985 -1.0859
  818MOL0     H 7932   4.477   9.130   7.674  1.6734  2.2958 -0.1515
  818MOL0     H 7933   4.491   9.085   7.841  1.5144 -0.3105  1.4199
  818MOL0     H 7934   4.564   8.900   7.624  1.1340  4.2049 -0.2381
  818MOL0     H 7935   4.581   8.863   7.789 -0.0837 -1.1081 -1.0110
  818MOL0     H 7936   4.370   8.867   7.834  0.8796  2.0331  0.5442
  818MOL0     H 7937   4.382   8.771   7.683 -2.6579  0.8447 -2.0660
  818MOL0     H 7938   4.077   9.104   7.617 -0.6674  0.1698  1.4373
  818MOL0     H 7939   3.846   9.015   7.581 -2.2717 -0.8463  1.4787
  818MOL0     H 7940   3.512   8.791   7.818 -0.6947  2.2427 -0.0993
  818MOL0     H 7941   3.264   8.713   7.823 -0.2760  0.1862  0.1370
  818MOL0     H 7942   3.122   8.545   7.758 -1.1081 -0.4844  1.2783
  818MOL0     H 7943   2.984   8.507   7.653  2.4990 -2.8933 -1.0540
  818MOL0     H 7944   2.927   8.767   7.709  3.2681  0.4126 -0.8968
  818MOL0     H 7945   3.030   8.747   7.845  0.7513  2.1333 -0.7354
  818MOL0     H 7946   2.869   8.567   7.947 -3.7952  1.6243  1.7913
  818MOL0     H 7947   2.787   8.563   7.804 -3.8426  1.7870  1.6298
  818MOL0     H 7948   2.784   8.768   8.014  0.4220  2.5553 -0.8865
  818MOL0     H 7949   2.763   8.830   7.848  0.2746  0.0357  1.4413
  818MOL0     H 7950   2.598   8.589   7.927 -0.7410 -0.4213 -1.8174
  818MOL0     H 7951   2.576   8.685   7.791  3.1980 -4.7641 -1.1371
  818MOL0     H 7952   2.533   8.893   7.947 -2.9649  0.4179 -0.0979
  818MOL0     H 7953   2.546   8.779   8.085  0.6201  2.6913  0.6010
  818MOL0     H 7954   2.356   8.766   7.852  3.0298 -0.5428 -0.3321
  818MOL0     H 7955   2.361   8.652   7.979 -1.6333  0.4061  1.0686
  818MOL0     H 7956   2.290   8.798   8.146 -3.4676 -0.3466  0.2920
  818MOL0     H 7957   2.177   8.805   8.018 -0.3748  0.2951  1.5179
  818MOL0     H 7958   3.278   8.678   7.405 -1.6048  1.1158  0.7907
  818MOL0     H 7959   3.494   8.790   7.384 -0.8776  3.6498 -0.3449
  818MOL0     H 7960   3.974   8.623   7.683  0.1781  0.2519 -1.8498
  818MOL0     H 7961   4.200   8.704   7.719  0.2573 -0.5132 -1.2356
  818MOL0     H 7962   5.801   9.250   7.657  0.3217 -1.6177  1.6047
  818MOL0     H 7963   6.059   9.248   7.718  2.5469  1.7431 -1.6103
  818MOL0     H 7964   6.368   9.316   7.934 -0.6842 -0.7447  1.8552
  818MOL0     H 7965   6.598   9.261   8.003 -0.4982  0.9316  0.4564
  818MOL0     H 7966   6.918   9.540   7.846  0.5573 -0.0909 -1.2841
  818MOL0     H 7967   6.938   9.386   7.767  1.9844 -3.1650  1.7060
  818MOL0     H 7968   7.005   9.432   8.053 -2.5327  2.2959 -1.1609
  818MOL0     H 7969   7.065   9.289   7.950 -1.1740 -0.8795  0.6943
  818MOL0     H 7970   7.144   9.574   7.888 -0.0314  0.5336  1.7741
  818MOL0     H 7971   7.200   9.419   7.829 -1.9145  3.3808 -2.8232
  818MOL0     H 7972   7.238   9.550   8.110 -0.6236  0.8100 -0.3980
  818MOL0     H 7973   7.248   9.375   8.093 -1.8347 -0.7458 -3.2578
  818MOL0     H 7974   7.595   9.570   7.915  0.4706 -0.5385  0.3428
  818MOL0     H 7975   6.739   9.538   7.690 -0.1342  0.1137 -1.0662
  818MOL0     H 7976   6.517   9.610   7.656  0.0184 -2.1445 -1.9353
  819MOL0     O 7977   5.226   8.651   8.271 -0.0100 -0.1885 -0.7742
  819MOL0     C 7978   5.172   8.597   8.181  0.3764  0.6080 -1.1476
  819MOL0     O 7979   5.045   8.541   8.190 -0.2147  0.4919  0.4100
  819MOL0     C 7980   4.979   8.518   8.310  0.7442 -0.5044 -0.1217
  819MOL0     C 7981   5.037   8.499   8.438 -0.2458  0.1607 -0.2584
  819MOL0     C 7982   4.967   8.451   8.545  0.6857 -0.1241  0.3001
  819MOL0     C 7983   4.828   8.427   8.534 -0.1534 -0.0838 -0.1446
  819MOL0     O 7984   4.771   8.379   8.648 -0.5393  0.0927 -0.3037
  819MOL0     C 7985   4.626   8.365   8.634 -0.6551 -0.1120 -0.6044
  819MOL0     C 7986   4.577   8.304   8.769  0.4220 -0.2865  0.8381
  819MOL0     C 7987   4.429   8.276   8.761  0.7461  0.5855 -0.5662
  819MOL0     C 7988   4.389   8.215   8.896 -0.5225  0.2233  0.2427
  819MOL0     C 7989   4.239   8.181   8.896 -0.4217  0.5314 -0.0985
  819MOL0     C 7990   4.204   8.060   8.805  0.6453 -0.2309  0.6576
  819MOL0     C 7991   4.051   8.034   8.822 -0.0671  0.3216  0.3485
  819MOL0     C 7992   4.002   7.912   8.734  0.5899  0.3352 -0.4087
  819MOL0     N 7993   3.855   7.895   8.758  0.5342 -0.1047 -0.3576
  819MOL0     C 7994   3.803   7.837   8.878  0.7411 -0.5392  0.3937
  819MOL0     C 7995   3.673   7.822   8.851 -0.0086 -0.5518 -0.2333
  819MOL0     C 7996   3.573   7.761   8.950  0.0983 -0.6665  0.2248
  819MOL0     C 7997   3.545   7.863   9.063 -0.1697  0.1478  0.1604
  819MOL0     C 7998   3.421   7.803   9.144  0.2141 -0.7047  0.3663
  819MOL0     C 7999   3.386   7.890   9.262  0.0848  0.1011  0.3233
  819MOL0     O 8000   3.264   7.846   9.320 -0.1762  0.5138  0.6317
  819MOL0     C 8001   3.144   7.850   9.245 -0.3954  0.2846 -0.1885
  819MOL0     C 8002   3.044   7.756   9.257 -0.3154 -0.4696 -0.5612
  819MOL0     C 8003   2.917   7.774   9.195 -0.1050  0.0126  0.4522
  819MOL0     C 8004   2.897   7.891   9.109 -0.4003  0.3492 -0.4385
  819MOL0     C 8005   2.765   7.902   9.042 -0.7587 -0.8522 -0.3449
  819MOL0     O 8006   2.667   7.821   9.090  0.1558 -0.4795  0.0726
  819MOL0     C 8007   2.547   7.805   9.030  0.8234 -0.5130 -0.5333
  819MOL0     C 8008   2.475   7.921   8.999 -0.5066  0.1169  0.4295
  819MOL0     C 8009   2.358   7.908   8.936  0.8275  0.0216 -0.3887
  819MOL0     C 8010   2.303   7.784   8.907 -0.5193  0.0147  0.0408
  819MOL0     O 8011   2.176   7.774   8.849  0.4581 -0.5157  0.3522
  819MOL0     C 8012   2.066   7.852   8.906  0.6661 -0.7674 -0.1628
  819MOL0     C 8013   1.940   7.810   8.829  0.4359 -0.1893 -0.3975
  819MOL0     C 8014   1.811   7.872   8.885  0.9762  0.3063  0.5593
  819MOL0     C 8015   1.685   7.854   8.785 -1.0685  0.1838 -0.1110
  819MOL0     C 8016   1.718   7.865   8.635  0.3855  0.0228  0.2831
  819MOL0     C 8017   1.596   7.854   8.550 -0.7081  0.0886  0.2203
  819MOL0     C 8018   1.624   7.851   8.398  0.8854  0.5036 -0.5159
  819MOL0     C 8019   1.490   7.842   8.322 -0.9320  0.0815  0.1163
  819MOL0    Cl 8020   1.503   7.875   8.144 -0.2588  0.2347 -0.2624
  819MOL0     C 8021   2.378   7.668   8.924  0.2056  0.2884  1.4518
  819MOL0     C 8022   2.502   7.673   8.989 -0.0257 -0.4122 -0.0443
  819MOL0     O 8023   2.758   7.977   8.944 -0.0395 -0.2511 -0.4809
  819MOL0     C 8024   3.007   7.969   9.089  0.2713 -0.4514  0.8912
  819MOL0     C 8025   3.122   7.958   9.159  0.4169  0.7371  0.1240
  819MOL0     N 8026   3.652   7.857   8.719  0.1503 -0.3558 -0.0835
  819MOL0     N 8027   3.760   7.907   8.662  0.0762 -0.3951  0.2789
  819MOL0     C 8028   4.772   8.448   8.409 -0.6002  0.6983 -0.7295
  819MOL0     C 8029   4.844   8.502   8.303 -0.0838  0.6067 -0.8073
  819MOL0     C 8030   5.252   8.583   8.063  0.3679  0.3308  0.4340
  819MOL0     C 8031   5.217   8.629   7.929  0.4420 -0.3705  0.0176
  819MOL0     C 8032   5.303   8.636   7.824 -0.1390  0.3103 -0.7022
  819MOL0     C 8033   5.439   8.598   7.837  0.8360  0.3071  0.1273
  819MOL0     O 8034   5.537   8.603   7.738  0.7652  0.0732  0.6157
  819MOL0     C 8035   5.493   8.559   7.604 -1.2590 -0.1077 -0.3118
  819MOL0     C 8036   5.560   8.654   7.504 -0.6599  0.1919  1.1757
  819MOL0     C 8037   5.699   8.613   7.460 -0.5305 -0.0747  0.0366
  819MOL0     C 8038   5.816   8.677   7.552  1.2348  0.0827  0.3369
  819MOL0     C 8039   5.938   8.644   7.484 -0.3142 -0.2470 -0.2976
  819MOL0     C 8040   6.057   8.634   7.457  0.3224 -0.3455 -0.5399
  819MOL0     C 8041   5.481   8.558   7.966 -0.0127  0.1142  0.7026
  819MOL0     C 8042   5.390   8.546   8.076  1.3108  0.0884  0.5553
  819MOL0     H 8043   5.142   8.522   8.456  0.3763 -2.0328 -0.7600
  819MOL0     H 8044   5.016   8.456   8.641  0.5738 -0.3133  0.3670
  819MOL0     H 8045   4.621   8.292   8.553  1.2984 -2.5545  1.3156
  819MOL0     H 8046   4.582   8.462   8.608 -0.3801  0.6988  1.7434
  819MOL0     H 8047   4.613   8.366   8.852  2.2671  0.1540 -0.2236
  819MOL0     H 8048   4.639   8.214   8.767  2.0696  0.8022 -0.4012
  819MOL0     H 8049   4.409   8.214   8.673  1.5572 -0.0674 -0.3052
  819MOL0     H 8050   4.376   8.372   8.756 -5.3719 -2.1817  1.7196
  819MOL0     H 8051   4.449   8.125   8.904 -0.6774  0.0193 -0.7631
  819MOL0     H 8052   4.419   8.295   8.964 -1.1407  1.3150 -0.7269
  819MOL0     H 8053   4.180   8.266   8.861  0.7814  0.4409 -2.6092
  819MOL0     H 8054   4.201   8.174   8.998  0.5213  2.3511  0.4355
  819MOL0     H 8055   4.264   7.973   8.833  1.4792  0.1620  0.1338
  819MOL0     H 8056   4.240   8.077   8.703  0.3636  0.0007  0.5973
  819MOL0     H 8057   4.026   8.000   8.923  0.3367 -0.3057  0.2441
  819MOL0     H 8058   3.998   8.124   8.790 -0.4850 -0.9992 -3.0408
  819MOL0     H 8059   4.056   7.820   8.758  0.1608 -0.2470 -1.6288
  819MOL0     H 8060   4.016   7.953   8.634  3.3794  1.9521  0.5087
  819MOL0     H 8061   3.860   7.820   8.969  0.3864  0.8644  0.9046
  819MOL0     H 8062   3.618   7.667   8.982  2.0464 -1.1345 -3.3722
  819MOL0     H 8063   3.477   7.729   8.908 -0.7829 -0.6369  2.0982
  819MOL0     H 8064   3.514   7.955   9.012 -2.1800 -0.8476 -0.5176
  819MOL0     H 8065   3.635   7.886   9.120  0.2961  0.0212 -0.5133
  819MOL0     H 8066   3.340   7.809   9.071 -1.0037 -3.6350  1.3055
  819MOL0     H 8067   3.427   7.697   9.172  2.5775 -0.3807  1.3063
  819MOL0     H 8068   3.385   7.995   9.234 -0.6802 -0.1952 -0.8082
  819MOL0     H 8069   3.455   7.875   9.346  0.9085  1.9737  0.0350
  819MOL0     H 8070   3.046   7.669   9.321  0.8114 -0.2004 -0.1998
  819MOL0     H 8071   2.835   7.705   9.215 -0.7834  1.1977  2.0408
  819MOL0     H 8072   2.515   8.015   9.035  4.4673 -1.5318  0.0638
  819MOL0     H 8073   2.303   8.000   8.919 -0.2832 -0.2225  1.6123
  819MOL0     H 8074   2.078   7.959   8.887 -3.7657 -0.2899 -1.4132
  819MOL0     H 8075   2.044   7.831   9.011 -1.7403  0.7568 -0.2855
  819MOL0     H 8076   1.931   7.701   8.830 -0.6942 -0.1112 -0.9821
  819MOL0     H 8077   1.957   7.829   8.723  1.3811 -4.2476 -1.1780
  819MOL0     H 8078   1.831   7.978   8.897 -1.1374  0.9833 -1.1726
  819MOL0     H 8079   1.786   7.814   8.975  2.1094 -1.3338 -0.1362
  819MOL0     H 8080   1.647   7.754   8.808 -0.7709  0.5118  2.0303
  819MOL0     H 8081   1.614   7.933   8.812 -0.8210  0.2325  0.4164
  819MOL0     H 8082   1.790   7.788   8.605 -0.3212 -2.2697  3.7752
  819MOL0     H 8083   1.765   7.961   8.613  0.7450  0.5970  3.1328
  819MOL0     H 8084   1.536   7.944   8.573  0.3906  1.2417 -1.2412
  819MOL0     H 8085   1.546   7.759   8.570  1.5886 -1.2704 -0.1750
  819MOL0     H 8086   1.676   7.940   8.362  1.0733  0.4362 -0.4111
  819MOL0     H 8087   1.679   7.762   8.369  0.5733 -0.0031  0.4045
  819MOL0     H 8088   1.425   7.921   8.360 -1.2948 -0.2432  0.1776
  819MOL0     H 8089   1.433   7.749   8.337 -2.1128 -0.1030 -4.0813
  819MOL0     H 8090   2.341   7.575   8.883 -0.2342 -1.1173  4.7450
  819MOL0     H 8091   2.548   7.576   8.999 -0.7472 -1.3334 -3.9951
  819MOL0     H 8092   3.007   8.051   9.018  2.1546 -0.8873  0.3330
  819MOL0     H 8093   3.198   8.036   9.162  0.0149  1.1096  1.7450
  819MOL0     H 8094   4.669   8.426   8.383 -1.8376  4.6377  0.1245
  819MOL0     H 8095   4.782   8.514   8.214 -0.5240  0.1480 -0.5658
  819MOL0     H 8096   5.114   8.661   7.918  0.5892  0.4109  0.8295
  819MOL0     H 8097   5.261   8.661   7.728 -0.3488 -2.0203 -1.2792
  819MOL0     H 8098   5.385   8.556   7.584 -1.5332  3.3225  0.0964
  819MOL0     H 8099   5.532   8.459   7.585 -0.8047 -0.1975  0.9574
  819MOL0     H 8100   5.495   8.666   7.416 -0.6737 -0.1864  1.1313
  819MOL0     H 8101   5.566   8.754   7.548  0.6105  1.5643 -1.8441
  819MOL0     H 8102   5.723   8.635   7.356 -0.6342 -2.6935 -0.6100
  819MOL0     H 8103   5.709   8.505   7.476  0.1271  0.0169  0.2776
  819MOL0     H 8104   5.801   8.785   7.554  1.4602  0.1923  4.7159
  819MOL0     H 8105   5.807   8.653   7.658  0.3351 -0.4459  0.1503
  819MOL0     H 8106   6.162   8.617   7.444  0.7557  0.8257  1.1325
  819MOL0     H 8107   5.585   8.532   7.981  0.7267  1.3789 -1.7886
  819MOL0     H 8108   5.426   8.519   8.175 -0.1290  0.4203  1.1999
  820MOL0     O 8109   3.013   9.386  10.666  0.0019 -0.1179 -0.2456
  820MOL0     C 8110   3.045   9.387  10.550 -0.1278  0.6574 -0.5135
  820MOL0     O 8111   2.975   9.334  10.450  0.1452 -0.0969 -0.4608
  820MOL0     C 8112   2.841   9.304  10.468 -0.4504 -0.4327 -0.5528
  820MOL0     C 8113   2.752   9.407  10.433 -0.4121 -0.3965 -0.6561
  820MOL0     C 8114   2.618   9.394  10.466 -0.0818 -0.8416  0.0584
  820MOL0     C 8115   2.567   9.279  10.522  0.6185  0.3304 -0.7512
  820MOL0     O 8116   2.430   9.277  10.545 -0.2419 -0.8375  0.0330
  820MOL0     C 8117   2.372   9.156  10.596  0.3034  0.4157  0.2301
  820MOL0     C 8118   2.214   9.149  10.576 -0.7586  0.5078  0.3415
  820MOL0     C 8119   2.150   9.248  10.672  0.1362 -0.0530 -0.2884
  820MOL0     C 8120   1.992   9.250  10.661  0.1876 -0.0936 -0.3282
  820MOL0     C 8121   1.947   9.358  10.559  0.3718 -0.5285  0.5130
  820MOL0     C 8122   1.790   9.354  10.557  0.9106 -0.6180 -0.6875
  820MOL0     C 8123   1.740   9.489  10.505 -0.5529  0.1493  0.5721
  820MOL0     C 8124   1.592   9.488  10.488  0.1673  0.3524 -0.9773
  820MOL0     N 8125   1.528   9.595  10.409  0.5032  0.4876  0.2972
  820MOL0     C 8126   1.573   9.652  10.291  0.1654 -0.2856  0.0405
  820MOL0     C 8127   1.483   9.743  10.257 -0.2744 -0.4047  0.0708
  820MOL0     C 8128   1.484   9.831  10.137 -0.0542 -0.2081 -0.0703
  820MOL0     C 8129   1.411   9.765  10.025 -0.2084 -0.5134  0.5263
  820MOL0     C 8130   1.471   9.798   9.886 -0.6202  0.3895  0.3976
  820MOL0     C 8131   1.614   9.770   9.873 -0.3842  0.5554  0.2338
  820MOL0     O 8132   1.655   9.753   9.739 -0.3939 -0.5784 -0.0728
  820MOL0     C 8133   1.791   9.734   9.702 -0.2521  0.7016  0.8988
  820MOL0     C 8134   1.901   9.750   9.787  0.2287  0.1924  0.9610
  820MOL0     C 8135   2.031   9.737   9.743 -0.6558  1.0414  0.0185
  820MOL0     C 8136   2.063   9.698   9.605 -0.0460  0.4983 -0.0822
  820MOL0     C 8137   2.202   9.696   9.558 -0.4323 -0.2952 -0.0735
  820MOL0     O 8138   2.225   9.621   9.444  0.1129  0.0408 -0.2002
  820MOL0     C 8139   2.348   9.598   9.393 -0.8187 -0.4110 -0.4430
  820MOL0     C 8140   2.344   9.493   9.299  0.5180  0.3972  0.3745
  820MOL0     C 8141   2.462   9.462   9.232 -0.7140  0.2255 -0.6232
  820MOL0     C 8142   2.582   9.521   9.260  0.1560  1.0297  0.6009
  820MOL0     O 8143   2.685   9.484   9.177 -0.0553 -0.2044  0.3353
  820MOL0     C 8144   2.812   9.553   9.187 -0.7671  0.6320  0.7438
  820MOL0     C 8145   2.939   9.509   9.097  0.6484 -0.4171 -0.0455
  820MOL0     C 8146   2.911   9.538   8.947 -0.2569  0.1365 -0.3639
  820MOL0     C 8147   3.014   9.475   8.848 -0.2975  0.3026 -0.4293
  820MOL0     C 8148   2.948   9.452   8.710  0.1367 -0.1590 -0.8001
  820MOL0     C 8149   3.060   9.405   8.620 -0.1095  0.8415  0.2102
  820MOL0     C 8150   3.005   9.375   8.479 -0.1719 -0.1066  0.2421
  820MOL0     C 8151   3.116   9.337   8.383 -0.1250  1.0328 -0.3821
  820MOL0    Cl 8152   3.191   9.191   8.441  0.0437  0.0373  0.1390
  820MOL0     C 8153   2.581   9.626   9.347 -0.5313 -0.1035 -0.1185
  820MOL0     C 8154   2.469   9.664   9.422  0.2473 -0.5845  0.2410
  820MOL0     O 8155   2.293   9.753   9.628 -0.2390 -1.2154 -0.0392
  820MOL0     C 8156   1.952   9.665   9.519 -0.2469 -0.7351 -0.3779
  820MOL0     C 8157   1.821   9.683   9.572 -0.2598  0.7980 -0.0346
  820MOL0     N 8158   1.376   9.738  10.346 -0.2262 -0.3022 -0.8642
  820MOL0     N 8159   1.402   9.648  10.434  0.0844  0.1771  0.3830
  820MOL0     C 8160   2.658   9.181  10.561 -0.2018 -0.2863  0.8732
  820MOL0     C 8161   2.793   9.198  10.542 -0.7910  0.2403 -0.2473
  820MOL0     C 8162   3.171   9.445  10.511 -0.0902  0.1341  0.5057
  820MOL0     C 8163   3.193   9.466  10.371  0.6754 -0.2051 -0.1576
  820MOL0     C 8164   3.310   9.522  10.321  0.7238  0.4391  0.6737
  820MOL0     C 8165   3.410   9.551  10.409  0.0740 -0.1865  0.1498
  820MOL0     O 8166   3.532   9.570  10.342 -0.0157 -0.2553 -0.2722
  820MOL0     C 8167   3.653   9.580  10.415  0.2413 -0.0308 -0.6414
  820MOL0     C 8168   3.763   9.635  10.318  0.2966  0.0213 -0.1898
  820MOL0     C 8169   3.900   9.643  10.375 -0.2876  0.3568 -0.4177
  820MOL0     C 8170   3.995   9.739  10.305  0.1370  0.3601 -0.2566
  820MOL0     C 8171   4.122   9.741  10.373 -0.1296 -0.0453 -0.1394
  820MOL0     C 8172   4.223   9.746  10.436  0.0271 -0.3476  0.3813
  820MOL0     C 8173   3.389   9.532  10.542 -0.0338  0.2652 -0.2032
  820MOL0     C 8174   3.279   9.481  10.596  0.0803  0.8233 -0.4125
  820MOL0     H 8175   2.795   9.497  10.389  0.1602 -1.2526 -1.9359
  820MOL0     H 8176   2.552   9.480  10.457  0.7115 -0.2929 -0.7582
  820MOL0     H 8177   2.397   9.131  10.700 -2.0319 -2.6725  0.1663
  820MOL0     H 8178   2.412   9.075  10.535 -1.1878  0.3626 -0.7232
  820MOL0     H 8179   2.184   9.047  10.602 -0.9392  0.9659  2.0067
  820MOL0     H 8180   2.178   9.170  10.475  0.1947  1.1244  0.1114
  820MOL0     H 8181   2.193   9.346  10.654  1.4260 -0.6213 -0.4362
  820MOL0     H 8182   2.178   9.209  10.771  0.7270  1.5533  0.2148
  820MOL0     H 8183   1.949   9.155  10.627 -0.1976  1.1280 -3.6492
  820MOL0     H 8184   1.952   9.272  10.760 -1.4010 -0.2237 -0.9104
  820MOL0     H 8185   1.980   9.329  10.459 -2.3868 -1.5630 -0.1940
  820MOL0     H 8186   1.993   9.453  10.588  1.5578 -0.3902 -1.6015
  820MOL0     H 8187   1.755   9.336  10.659  3.0298 -1.7665 -0.0934
  820MOL0     H 8188   1.745   9.279  10.491 -0.1978 -2.1724  1.6955
  820MOL0     H 8189   1.771   9.574  10.567 -3.4646 -0.6752  3.4122
  820MOL0     H 8190   1.782   9.497  10.404 -0.9922 -1.1535  0.2585
  820MOL0     H 8191   1.548   9.492  10.588 -0.9898  0.1265 -1.4571
  820MOL0     H 8192   1.560   9.391  10.449 -0.2722  1.0057 -2.3122
  820MOL0     H 8193   1.656   9.631  10.224 -0.3660 -0.7295 -0.5037
  820MOL0     H 8194   1.588   9.845  10.106 -0.4511  2.7485 -0.2875
  820MOL0     H 8195   1.442   9.928  10.164  0.3537  0.2886 -1.1736
  820MOL0     H 8196   1.307   9.798  10.030 -0.5851 -1.8082  2.0085
  820MOL0     H 8197   1.418   9.657  10.038  2.5335 -0.2752  1.6283
  820MOL0     H 8198   1.415   9.742   9.811 -0.0370 -0.4230  0.5516
  820MOL0     H 8199   1.446   9.902   9.861 -4.7398 -0.6507 -0.5353
  820MOL0     H 8200   1.650   9.682   9.928  0.0829 -1.0950 -2.4685
  820MOL0     H 8201   1.673   9.856   9.904  1.7184  0.0362 -1.9600
  820MOL0     H 8202   1.879   9.776   9.890  1.5748  0.9031  1.0812
  820MOL0     H 8203   2.113   9.767   9.807 -1.8735 -0.4703  2.4580
  820MOL0     H 8204   2.247   9.452   9.274  0.4119  0.4145  0.7359
  820MOL0     H 8205   2.459   9.375   9.168  2.7498  0.7590 -1.6987
  820MOL0     H 8206   2.856   9.540   9.286 -0.2895 -0.3982  0.4100
  820MOL0     H 8207   2.790   9.658   9.169 -3.0607 -0.1410 -1.6458
  820MOL0     H 8208   2.950   9.401   9.103  0.4270 -0.5312 -1.3737
  820MOL0     H 8209   3.029   9.555   9.139  0.1587 -1.0379  1.7990
  820MOL0     H 8210   2.917   9.646   8.936  1.1956  0.2748  1.4183
  820MOL0     H 8211   2.812   9.502   8.915 -0.4641 -0.2069  0.6231
  820MOL0     H 8212   3.103   9.536   8.832  0.9653 -1.0582  1.0885
  820MOL0     H 8213   3.047   9.380   8.891 -0.4166 -0.1489 -1.3140
  820MOL0     H 8214   2.909   9.547   8.672  1.8057  1.4478  1.2347
  820MOL0     H 8215   2.870   9.375   8.706  0.9603 -1.0025 -0.8049
  820MOL0     H 8216   3.097   9.308   8.655  0.5426  1.2103  0.5532
  820MOL0     H 8217   3.144   9.475   8.616  0.3606  0.2373 -1.1473
  820MOL0     H 8218   2.922   9.304   8.479  0.5298 -0.9976 -1.4613
  820MOL0     H 8219   2.961   9.466   8.438  0.4795  0.0674 -0.0799
  820MOL0     H 8220   3.194   9.413   8.381  1.6897 -0.7584 -2.1579
  820MOL0     H 8221   3.069   9.320   8.286 -1.9840  1.0899  0.4576
  820MOL0     H 8222   2.679   9.672   9.353  0.2842 -0.8939 -4.0695
  820MOL0     H 8223   2.481   9.741   9.498  0.3753 -2.6671  2.4709
  820MOL0     H 8224   1.970   9.636   9.416 -0.8980 -0.2812 -0.6320
  820MOL0     H 8225   1.734   9.662   9.510 -1.4431  1.0561  1.4699
  820MOL0     H 8226   2.638   9.102  10.633  0.4224 -0.7897  0.4993
  820MOL0     H 8227   2.862   9.124  10.581 -0.1051 -0.1093 -2.0358
  820MOL0     H 8228   3.121   9.431  10.298  2.7964 -1.8439 -1.5973
  820MOL0     H 8229   3.314   9.544  10.214 -3.0088 -3.0568 -0.4764
  820MOL0     H 8230   3.673   9.483  10.462 -0.5713  1.4870  3.2418
  820MOL0     H 8231   3.637   9.648  10.499 -1.0509 -0.8813 -0.1783
  820MOL0     H 8232   3.776   9.585  10.222 -1.8380  0.8830 -0.9764
  820MOL0     H 8233   3.731   9.737  10.295  0.1624  0.4205  1.6155
  820MOL0     H 8234   3.941   9.542  10.385 -1.7763 -0.2435 -0.0994
  820MOL0     H 8235   3.897   9.684  10.477  0.9277  1.2026 -0.7016
  820MOL0     H 8236   4.014   9.723  10.198  2.8626  0.1886  0.1836
  820MOL0     H 8237   3.940   9.833  10.300 -0.0514  0.1999 -2.1119
  820MOL0     H 8238   4.313   9.741  10.495  0.0286 -1.0761  0.3269
  820MOL0     H 8239   3.471   9.548  10.611 -1.1271 -1.4027  1.5982
  820MOL0     H 8240   3.265   9.466  10.702  0.9918  1.9717 -0.1181
  821MOL0     O 8241   5.570   9.973   5.004 -0.3289 -1.0062  0.0017
  821MOL0     C 8242   5.663   9.914   4.963  0.0670  0.0794 -0.0313
  821MOL0     O 8243   5.736   9.829   5.037  0.0739  0.3367 -0.6511
  821MOL0     C 8244   5.685   9.817   5.162  1.4311  0.5423 -0.5537
  821MOL0     C 8245   5.727   9.890   5.264 -0.3456  0.1998 -0.1684
  821MOL0     C 8246   5.679   9.877   5.397 -0.0597 -0.5189  0.5753
  821MOL0     C 8247   5.576   9.786   5.421 -0.3535  1.2883 -0.0850
  821MOL0     O 8248   5.528   9.780   5.551  0.9753 -0.0665  0.3464
  821MOL0     C 8249   5.392   9.824   5.563  0.4533 -0.2571  0.1836
  821MOL0     C 8250   5.360   9.841   5.714  0.0127  0.4389 -0.2990
  821MOL0     C 8251   5.214   9.868   5.725 -0.2212  0.3921 -0.1241
  821MOL0     C 8252   5.182   9.915   5.861  0.2424  0.3053  0.2850
  821MOL0     C 8253   5.034   9.888   5.895 -0.8511 -0.7312  0.3623
  821MOL0     C 8254   4.997   9.936   6.036  0.0335 -0.3793  0.0171
  821MOL0     C 8255   4.851   9.927   6.041  0.1943 -0.1444 -0.1419
  821MOL0     C 8256   4.806  10.019   6.157 -0.7360  0.2103  0.1302
  821MOL0     N 8257   4.664  10.061   6.160 -0.8001  0.6690 -0.4540
  821MOL0     C 8258   4.609  10.192   6.156  0.1890  0.8344 -0.0742
  821MOL0     C 8259   4.472  10.178   6.163 -0.6667 -0.2722 -0.7686
  821MOL0     C 8260   4.368  10.293   6.188 -0.1611  0.8422 -0.7958
  821MOL0     C 8261   4.243  10.275   6.278 -0.5020 -0.4524  0.1709
  821MOL0     C 8262   4.129  10.211   6.200  0.3612 -0.0595 -0.3191
  821MOL0     C 8263   4.019  10.183   6.301  0.8531 -0.1007  0.7089
  821MOL0     O 8264   3.896  10.175   6.217 -0.1307 -0.5428 -0.3471
  821MOL0     C 8265   3.774  10.184   6.276 -0.0434 -0.9061 -0.1871
  821MOL0     C 8266   3.662  10.193   6.191  0.0504  0.3910  0.7273
  821MOL0     C 8267   3.527  10.207   6.246 -0.6291  0.4990 -0.4570
  821MOL0     C 8268   3.504  10.203   6.383  0.4869  0.5053  0.3082
  821MOL0     C 8269   3.365  10.201   6.430  0.2782  0.2879 -0.1250
  821MOL0     O 8270   3.346  10.153   6.564  0.3494 -0.1091  0.0791
  821MOL0     C 8271   3.215  10.166   6.612  0.0671  0.1034 -0.4300
  821MOL0     C 8272   3.220  10.176   6.755 -0.1178 -0.0706  0.8284
  821MOL0     C 8273   3.099  10.176   6.830  0.0055  0.4535 -0.6839
  821MOL0     C 8274   2.978  10.153   6.763 -0.1578  1.2274 -1.1327
  821MOL0     O 8275   2.867  10.161   6.843  0.2910 -0.0697  0.0174
  821MOL0     C 8276   2.744  10.109   6.798 -0.1194  0.0977 -0.7443
  821MOL0     C 8277   2.636  10.150   6.902  0.8336 -0.4650  0.4505
  821MOL0     C 8278   2.583  10.287   6.860 -0.6917 -0.4094 -0.3043
  821MOL0     C 8279   2.460  10.313   6.952  0.0727 -0.1225  0.0242
  821MOL0     C 8280   2.401  10.444   6.922 -0.4333 -0.9761 -0.6935
  821MOL0     C 8281   2.273  10.485   6.988  0.3751 -0.4631 -1.0067
  821MOL0     C 8282   2.227  10.622   6.943 -0.0569 -0.2482  0.3324
  821MOL0     C 8283   2.099  10.654   7.027  0.3523  0.0427  0.0135
  821MOL0    Cl 8284   2.029  10.812   6.976  0.2549 -0.0065 -0.0156
  821MOL0     C 8285   2.983  10.128   6.624  0.3542  0.5698 -0.0314
  821MOL0     C 8286   3.096  10.139   6.548  0.1081 -0.7328 -0.6185
  821MOL0     O 8287   3.280  10.261   6.364  0.5785  0.8412  0.7431
  821MOL0     C 8288   3.618  10.189   6.468  0.4645 -0.4807 -0.5228
  821MOL0     C 8289   3.751  10.188   6.413  0.8400  0.2785 -0.5165
  821MOL0     N 8290   4.453  10.045   6.179  0.4990 -0.4390 -0.6820
  821MOL0     N 8291   4.562   9.977   6.183 -0.6047 -0.4066 -0.6092
  821MOL0     C 8292   5.530   9.705   5.318 -0.4720  0.5301 -0.6752
  821MOL0     C 8293   5.587   9.718   5.194 -0.6289 -0.8140 -0.6501
  821MOL0     C 8294   5.708   9.942   4.829  0.1052  0.6536  0.0798
  821MOL0     C 8295   5.843   9.925   4.795  0.0822  1.3649  0.8936
  821MOL0     C 8296   5.887   9.940   4.661 -0.0674  0.4502  0.2598
  821MOL0     C 8297   5.796   9.981   4.566  0.3118  0.0584  0.3383
  821MOL0     O 8298   5.824  10.011   4.432 -0.6229 -0.0952  0.5125
  821MOL0     C 8299   5.968  10.005   4.393  0.0625  0.0031  0.5681
  821MOL0     C 8300   5.989  10.028   4.236 -0.2961  0.4431  0.1214
  821MOL0     C 8301   5.977  10.171   4.185  0.2170 -0.3788 -0.5528
  821MOL0     C 8302   6.009  10.200   4.037 -0.0248  0.6433 -0.6494
  821MOL0     C 8303   6.144  10.156   3.997  0.9381 -0.3507 -0.3275
  821MOL0     C 8304   6.255  10.110   3.988 -0.1741  0.6792  0.3172
  821MOL0     C 8305   5.667  10.008   4.600  1.0472 -0.1732  0.7836
  821MOL0     C 8306   5.620   9.989   4.731 -0.1861 -0.3874 -0.5516
  821MOL0     H 8307   5.800   9.965   5.237  0.9828 -1.0564 -0.2250
  821MOL0     H 8308   5.719   9.937   5.478  3.1598 -0.3963 -0.9292
  821MOL0     H 8309   5.343   9.733   5.529  2.0649 -0.6710 -1.1455
  821MOL0     H 8310   5.364   9.911   5.502  0.2971  2.1560  3.4382
  821MOL0     H 8311   5.414   9.930   5.746  0.9973  0.8561 -2.8852
  821MOL0     H 8312   5.392   9.749   5.766 -3.9975 -2.2769 -2.0977
  821MOL0     H 8313   5.164   9.771   5.720 -0.8507  0.7861 -2.9899
  821MOL0     H 8314   5.174   9.944   5.658  0.3672  0.4880 -0.3735
  821MOL0     H 8315   5.248   9.874   5.937  2.0334 -0.5502 -1.6188
  821MOL0     H 8316   5.199  10.023   5.861  1.6760  0.1151 -0.5958
  821MOL0     H 8317   5.014   9.782   5.879  2.3341 -1.0863 -2.4836
  821MOL0     H 8318   4.972   9.928   5.813  0.0169  0.1789  0.1238
  821MOL0     H 8319   5.037  10.037   6.046  0.6243 -0.3138 -2.4657
  821MOL0     H 8320   5.027   9.867   6.115 -2.2603 -0.3008  1.0615
  821MOL0     H 8321   4.808   9.959   5.945  2.5681 -0.1814 -1.2925
  821MOL0     H 8322   4.813   9.826   6.058  0.0718 -0.5175 -2.2914
  821MOL0     H 8323   4.864  10.112   6.155 -1.1528  0.4932  0.9252
  821MOL0     H 8324   4.833   9.970   6.251  0.0532 -0.4154 -0.4112
  821MOL0     H 8325   4.659  10.287   6.139  0.4093  0.6181 -0.6235
  821MOL0     H 8326   4.340  10.336   6.091  1.0931 -0.7470 -1.9128
  821MOL0     H 8327   4.427  10.371   6.237  0.1489  0.2881 -0.2732
  821MOL0     H 8328   4.214  10.376   6.309 -0.3341 -0.3776  0.0887
  821MOL0     H 8329   4.262  10.220   6.370 -0.0378 -0.0958  0.2877
  821MOL0     H 8330   4.101  10.281   6.121  1.4780  0.3711 -0.3523
  821MOL0     H 8331   4.170  10.121   6.155 -0.2260 -0.1017 -0.7851
  821MOL0     H 8332   3.998  10.267   6.367 -0.0363  0.2476 -0.0191
  821MOL0     H 8333   4.036  10.091   6.359  0.7923  0.9454  2.4373
  821MOL0     H 8334   3.673  10.205   6.084  1.5159 -0.1730  0.7907
  821MOL0     H 8335   3.444  10.215   6.177 -0.3298 -0.2078 -0.9040
  821MOL0     H 8336   3.313  10.212   6.799 -0.6042  3.4030 -0.6703
  821MOL0     H 8337   3.092  10.202   6.936  0.5372 -0.6775 -0.3609
  821MOL0     H 8338   2.738  10.000   6.806  2.0252 -0.2282 -2.4428
  821MOL0     H 8339   2.710  10.139   6.699  2.5067  0.2140 -1.7073
  821MOL0     H 8340   2.686  10.142   6.999  1.2465 -1.1968  0.1880
  821MOL0     H 8341   2.551  10.081   6.907  0.7455 -0.5037 -1.1063
  821MOL0     H 8342   2.544  10.276   6.759  0.8557  0.9570 -1.1035
  821MOL0     H 8343   2.666  10.359   6.863  0.4221 -1.6286 -0.7887
  821MOL0     H 8344   2.392  10.230   6.934  0.7556 -0.2774 -2.1146
  821MOL0     H 8345   2.485  10.314   7.059 -0.4518 -1.1915  0.1621
  821MOL0     H 8346   2.379  10.445   6.814 -0.4552 -2.0220 -0.7033
  821MOL0     H 8347   2.478  10.520   6.939 -1.0162  0.1357 -2.6615
  821MOL0     H 8348   2.285  10.495   7.097 -1.7664  0.7686 -0.8107
  821MOL0     H 8349   2.189  10.417   6.974 -0.9189  0.5544  1.1851
  821MOL0     H 8350   2.299  10.705   6.953  0.3027 -0.4836 -0.2351
  821MOL0     H 8351   2.203  10.611   6.837  2.0458 -2.6959  0.0213
  821MOL0     H 8352   2.130  10.651   7.131 -1.0983 -1.8303  0.4588
  821MOL0     H 8353   2.018  10.583   7.008 -0.8522  0.5383  2.8515
  821MOL0     H 8354   2.895  10.091   6.574  1.8744  2.8819 -5.1008
  821MOL0     H 8355   3.094  10.125   6.440  1.3294 -1.8400 -0.5361
  821MOL0     H 8356   3.615  10.177   6.576 -0.1027  2.8899 -0.0565
  821MOL0     H 8357   3.835  10.167   6.478  0.5098 -1.2192 -0.5334
  821MOL0     H 8358   5.448   9.637   5.339  0.6940 -0.5730  0.4559
  821MOL0     H 8359   5.557   9.649   5.115 -1.7540  1.5316 -2.4270
  821MOL0     H 8360   5.918   9.904   4.870 -1.3707  1.9222  2.5863
  821MOL0     H 8361   5.988   9.912   4.632 -0.4588  0.1017 -0.8307
  821MOL0     H 8362   6.010   9.908   4.419  2.1687  0.5085 -0.6669
  821MOL0     H 8363   6.039  10.079   4.432  1.9783  0.4693 -3.3241
  821MOL0     H 8364   6.087   9.982   4.216 -0.4224 -0.5362  1.5595
  821MOL0     H 8365   5.915   9.971   4.180 -1.4439  0.7689  1.2615
  821MOL0     H 8366   6.031  10.239   4.252  1.1039 -2.3704  0.8811
  821MOL0     H 8367   5.871  10.192   4.202  0.8439  1.0398  2.2900
  821MOL0     H 8368   5.935  10.150   3.974  1.9495 -1.7492 -1.2223
  821MOL0     H 8369   6.002  10.310   4.033 -2.2787  0.8289  3.1565
  821MOL0     H 8370   6.353  10.067   3.995 -1.9251 -3.5220  1.6933
  821MOL0     H 8371   5.608  10.041   4.516  0.3951 -0.4063  1.1412
  821MOL0     H 8372   5.515  10.005   4.755 -0.2825 -0.1482 -1.1061
  822MOL0     O 8373   8.744   2.813   5.094 -0.0891  0.3032 -0.4030
  822MOL0     C 8374   8.763   2.792   4.975  0.4382 -1.0773  0.3570
  822MOL0     O 8375   8.666   2.796   4.879  0.2786  0.3189 -0.1074
  822MOL0     C 8376   8.533   2.827   4.900 -0.7867  0.4975  0.9715
  822MOL0     C 8377   8.493   2.925   4.995  0.3729  0.1067 -1.0479
  822MOL0     C 8378   8.361   2.970   5.006 -0.7651 -0.4921 -0.9818
  822MOL0     C 8379   8.258   2.914   4.926 -0.5124  0.0909  0.1575
  822MOL0     O 8380   8.133   2.959   4.952  0.7994  0.4931  0.3589
  822MOL0     C 8381   8.016   2.891   4.901 -0.6034  0.9336 -0.8367
  822MOL0     C 8382   7.900   2.980   4.959 -0.7929 -0.0741  0.6976
  822MOL0     C 8383   7.776   2.931   4.913  0.5143 -0.0548  0.3407
  822MOL0     C 8384   7.662   2.988   4.999 -0.0084 -0.6924 -0.6803
  822MOL0     C 8385   7.527   3.009   4.933 -0.8784  0.1984 -0.3374
  822MOL0     C 8386   7.452   2.880   4.895  0.8806  1.0215 -0.0692
  822MOL0     C 8387   7.318   2.910   4.833 -0.0895 -0.3828  0.1492
  822MOL0     C 8388   7.263   2.781   4.770  0.0131  0.4270  0.3324
  822MOL0     N 8389   7.116   2.790   4.762  1.2430  0.3227  0.2106
  822MOL0     C 8390   7.021   2.704   4.814 -1.4291 -1.4576  0.0710
  822MOL0     C 8391   6.905   2.771   4.823  0.0534  0.0816  0.3555
  822MOL0     C 8392   6.778   2.720   4.890 -0.0641 -0.5805 -0.1578
  822MOL0     C 8393   6.720   2.590   4.830  0.5767 -0.3119  0.0543
  822MOL0     C 8394   6.725   2.575   4.682 -0.4107  0.3900  0.0011
  822MOL0     C 8395   6.627   2.470   4.631 -0.9780 -0.0615  0.0613
  822MOL0     O 8396   6.492   2.517   4.617 -0.5049 -0.4810 -0.3302
  822MOL0     C 8397   6.397   2.425   4.596  0.1587 -0.4164  0.2863
  822MOL0     C 8398   6.419   2.292   4.554  0.3096 -0.1856  0.0618
  822MOL0     C 8399   6.309   2.198   4.550  0.1532 -0.6635  0.2354
  822MOL0     C 8400   6.175   2.243   4.563 -0.8475 -0.3655 -0.2379
  822MOL0     C 8401   6.057   2.154   4.552 -0.4388 -0.0472  0.5821
  822MOL0     O 8402   5.941   2.187   4.620 -0.1669 -0.1928 -0.9085
  822MOL0     C 8403   5.837   2.113   4.576  0.4675  0.3014 -0.4481
  822MOL0     C 8404   5.754   2.150   4.468 -0.1822  1.1145  0.5974
  822MOL0     C 8405   5.645   2.066   4.434  0.1766  0.4269  0.9856
  822MOL0     C 8406   5.614   1.947   4.503 -1.6061 -0.3359 -0.2330
  822MOL0     O 8407   5.508   1.876   4.450 -0.3570  0.2799  0.1134
  822MOL0     C 8408   5.466   1.757   4.530  0.1694  0.7889  0.4835
  822MOL0     C 8409   5.330   1.701   4.474 -0.1903 -0.8946 -0.3245
  822MOL0     C 8410   5.352   1.642   4.332 -0.5216  0.5453  1.3632
  822MOL0     C 8411   5.215   1.591   4.286  0.0786 -0.0037  0.1553
  822MOL0     C 8412   5.222   1.510   4.151 -0.1218 -0.1564 -0.2278
  822MOL0     C 8413   5.098   1.520   4.066  0.1590  0.2674 -0.7757
  822MOL0     C 8414   4.978   1.439   4.120  0.1897  0.9057  0.1298
  822MOL0     C 8415   4.843   1.448   4.052  0.1501  0.1190 -0.0484
  822MOL0    Cl 8416   4.853   1.357   3.897  0.2580  0.0660 -0.3632
  822MOL0     C 8417   5.695   1.919   4.613 -0.4191  0.0022 -0.1300
  822MOL0     C 8418   5.804   2.000   4.644 -0.7951  0.6906  0.4955
  822MOL0     O 8419   6.071   2.059   4.473  0.1439 -0.0884 -0.7281
  822MOL0     C 8420   6.161   2.380   4.594  0.2306 -0.4194  0.3057
  822MOL0     C 8421   6.267   2.466   4.608 -0.4602  0.5820  0.1954
  822MOL0     N 8422   6.922   2.895   4.764 -0.1459 -0.7814  0.7671
  822MOL0     N 8423   7.042   2.897   4.725 -0.0931 -0.4049 -0.6228
  822MOL0     C 8424   8.297   2.807   4.835  0.1708  0.3567 -0.5669
  822MOL0     C 8425   8.436   2.762   4.821 -0.0560  0.5684 -0.4391
  822MOL0     C 8426   8.902   2.757   4.931  0.3539  0.6913  0.2456
  822MOL0     C 8427   8.926   2.741   4.792 -0.2439 -0.5074  0.0899
  822MOL0     C 8428   9.058   2.707   4.747  0.7783 -0.0884  0.0015
  822MOL0     C 8429   9.170   2.698   4.837 -0.6682 -0.5424 -0.0009
  822MOL0     O 8430   9.286   2.655   4.786 -0.2850  0.4337 -0.2447
  822MOL0     C 8431   9.407   2.689   4.865  0.4003  0.4363 -0.3912
  822MOL0     C 8432   9.528   2.651   4.783  0.5799 -0.5054  0.8030
  822MOL0     C 8433   9.550   2.498   4.748  0.0470 -0.7193 -0.3241
  822MOL0     C 8434   9.620   2.477   4.620 -0.1379  0.1040 -0.8333
  822MOL0     C 8435   9.760   2.534   4.622  0.3839  0.1845  0.1889
  822MOL0     C 8436   9.873   2.590   4.625 -0.4343 -0.2713 -0.1724
  822MOL0     C 8437   9.149   2.725   4.967  0.2915 -0.4515 -0.6705
  822MOL0     C 8438   9.021   2.756   5.008  0.5298  0.2008 -0.8089
  822MOL0     H 8439   8.569   2.975   5.054  0.7800  0.5573 -1.9391
  822MOL0     H 8440   8.333   3.038   5.086  2.6468 -0.0067 -0.0106
  822MOL0     H 8441   8.017   2.787   4.935  2.2667  0.2124 -2.8168
  822MOL0     H 8442   8.013   2.892   4.792  0.6051  1.5821 -0.8768
  822MOL0     H 8443   7.904   3.087   4.935  0.0341  0.2304  2.0382
  822MOL0     H 8444   7.904   2.977   5.068  1.6655  1.8149  0.7603
  822MOL0     H 8445   7.780   2.823   4.924  2.4969  0.1453  2.2087
  822MOL0     H 8446   7.763   2.951   4.806  0.3422  0.8230  0.5178
  822MOL0     H 8447   7.653   2.931   5.092 -0.2658 -0.1982 -0.3974
  822MOL0     H 8448   7.703   3.085   5.029 -2.3083 -0.5947  2.6844
  822MOL0     H 8449   7.559   3.069   4.848  2.1263 -1.4746 -0.5095
  822MOL0     H 8450   7.461   3.071   4.995 -0.0509  3.7867 -2.7225
  822MOL0     H 8451   7.432   2.832   4.991  0.1657  3.2852  0.9818
  822MOL0     H 8452   7.502   2.812   4.824 -2.8223 -2.2843  0.1198
  822MOL0     H 8453   7.250   2.938   4.915  1.1212 -0.3148  1.1583
  822MOL0     H 8454   7.330   2.999   4.771  1.6028 -0.3899  0.4355
  822MOL0     H 8455   7.281   2.691   4.829 -2.1323 -3.2965 -4.0743
  822MOL0     H 8456   7.315   2.756   4.678  1.3067 -1.3898  1.4992
  822MOL0     H 8457   7.048   2.605   4.850 -3.1527 -1.4349  1.5601
  822MOL0     H 8458   6.705   2.802   4.897 -0.6985 -1.1299 -0.1834
  822MOL0     H 8459   6.813   2.693   4.990  1.4896 -1.3510 -0.8787
  822MOL0     H 8460   6.613   2.582   4.854  0.8342  0.7690  1.7372
  822MOL0     H 8461   6.783   2.507   4.862 -0.3513 -0.5800  1.2728
  822MOL0     H 8462   6.705   2.671   4.633 -2.3792 -0.4860 -1.0398
  822MOL0     H 8463   6.824   2.541   4.651 -0.5337 -1.3076  1.3370
  822MOL0     H 8464   6.633   2.379   4.692  3.9875 -0.7529 -1.0194
  822MOL0     H 8465   6.659   2.444   4.530  3.2341  1.4050  0.7742
  822MOL0     H 8466   6.517   2.252   4.531  0.0662  0.8952 -3.3745
  822MOL0     H 8467   6.328   2.097   4.514 -0.4154 -0.5356 -0.4657
  822MOL0     H 8468   5.770   2.244   4.415 -0.6099  0.3266 -1.0159
  822MOL0     H 8469   5.581   2.099   4.353  0.0988 -1.6459  0.1454
  822MOL0     H 8470   5.457   1.787   4.635  2.7964  0.4952  0.8746
  822MOL0     H 8471   5.550   1.687   4.519 -0.3578  0.4562 -1.8810
  822MOL0     H 8472   5.259   1.783   4.463 -0.0607 -0.9615 -1.9888
  822MOL0     H 8473   5.291   1.625   4.541  1.0796 -0.6442  0.7282
  822MOL0     H 8474   5.423   1.560   4.321 -1.6042 -0.0442 -2.3343
  822MOL0     H 8475   5.403   1.713   4.265 -1.8216  0.6755  0.4820
  822MOL0     H 8476   5.171   1.528   4.364 -0.1613 -2.3765 -1.7929
  822MOL0     H 8477   5.145   1.673   4.271 -3.5781 -2.7198  1.0909
  822MOL0     H 8478   5.242   1.406   4.181 -0.2564  0.3749  1.8630
  822MOL0     H 8479   5.307   1.544   4.092  0.0560  1.8464  1.0875
  822MOL0     H 8480   5.116   1.501   3.960 -0.5687 -0.8301 -0.7238
  822MOL0     H 8481   5.067   1.624   4.068  0.1806  0.2893  1.4060
  822MOL0     H 8482   4.991   1.332   4.138  2.5789  0.6345 -2.5739
  822MOL0     H 8483   4.962   1.468   4.224 -0.1677  0.7368  0.1234
  822MOL0     H 8484   4.816   1.551   4.025 -3.7203 -1.0722 -1.3921
  822MOL0     H 8485   4.766   1.407   4.117 -0.1977  0.0637 -0.4898
  822MOL0     H 8486   5.680   1.829   4.672  1.5188  1.0713  2.1825
  822MOL0     H 8487   5.853   1.979   4.738 -2.1540  1.7040  1.4597
  822MOL0     H 8488   6.061   2.422   4.602 -0.2528 -1.6872  1.1730
  822MOL0     H 8489   6.247   2.571   4.629  2.4169  0.5033  4.8021
  822MOL0     H 8490   8.221   2.758   4.775 -0.8812 -0.2415  1.1889
  822MOL0     H 8491   8.450   2.683   4.748 -1.9971 -0.2713  0.0478
  822MOL0     H 8492   8.852   2.730   4.714  1.9365  0.7104 -2.3291
  822MOL0     H 8493   9.079   2.705   4.640 -1.5072  2.4184 -0.6046
  822MOL0     H 8494   9.420   2.651   4.967  1.3172  2.5818  0.3428
  822MOL0     H 8495   9.406   2.797   4.882 -1.8863  0.5126 -0.6373
  822MOL0     H 8496   9.525   2.711   4.692  0.7920 -5.2463 -2.7176
  822MOL0     H 8497   9.614   2.692   4.836 -1.1856  2.8819  1.3486
  822MOL0     H 8498   9.456   2.443   4.744  0.1969 -1.5144  3.5237
  822MOL0     H 8499   9.612   2.446   4.821  1.2029  0.8919 -0.1049
  822MOL0     H 8500   9.621   2.369   4.606 -0.7664 -0.2131  1.2510
  822MOL0     H 8501   9.564   2.526   4.540 -0.2281  1.3070 -0.0594
  822MOL0     H 8502   9.969   2.635   4.611 -0.5240  0.1239  0.4098
  822MOL0     H 8503   9.228   2.729   5.041  1.3050  0.2650 -1.7454
  822MOL0     H 8504   9.013   2.781   5.113  2.6060 -1.3339 -0.2201
  823MOL0     O 8505   8.300   3.184   4.081  0.1060  0.1940 -0.6090
  823MOL0     C 8506   8.346   3.070   4.057  0.9313 -0.2410 -0.6374
  823MOL0     O 8507   8.270   2.965   4.013  0.1744  0.5923  0.1182
  823MOL0     C 8508   8.132   2.959   4.019 -0.1157 -0.6728  0.5767
  823MOL0     C 8509   8.045   3.072   4.005 -0.4029  0.0655  0.5196
  823MOL0     C 8510   7.905   3.054   4.024  0.1303  0.5392 -0.5159
  823MOL0     C 8511   7.849   2.937   4.042 -0.2130 -0.0126  0.0110
  823MOL0     O 8512   7.710   2.916   4.046 -0.6273 -0.7002 -0.3271
  823MOL0     C 8513   7.643   2.975   4.156  0.3603  0.2563  0.3079
  823MOL0     C 8514   7.494   2.988   4.118 -0.5670  0.5858  0.5004
  823MOL0     C 8515   7.420   3.082   4.221  0.0490  0.3791 -0.5692
  823MOL0     C 8516   7.278   3.094   4.196 -0.5646 -0.8294  0.3743
  823MOL0     C 8517   7.205   2.957   4.214  0.2364  0.0518  0.7965
  823MOL0     C 8518   7.194   2.897   4.357 -0.6825 -0.2192 -0.0310
  823MOL0     C 8519   7.078   2.805   4.373  0.4490  0.4703  0.0757
  823MOL0     C 8520   7.096   2.677   4.291 -0.1157  0.5453  0.6782
  823MOL0     N 8521   7.223   2.607   4.297 -0.4818 -0.0381 -0.9928
  823MOL0     C 8522   7.324   2.616   4.207  0.0326  0.6540 -0.5699
  823MOL0     C 8523   7.426   2.549   4.264  0.1281  0.1557  0.1521
  823MOL0     C 8524   7.553   2.523   4.193  0.0326  0.7362 -1.0223
  823MOL0     C 8525   7.638   2.409   4.254 -0.1652 -0.5506 -0.3288
  823MOL0     C 8526   7.763   2.384   4.153  0.1195  0.2351 -0.1181
  823MOL0     C 8527   7.849   2.276   4.220  0.4611 -0.1772 -0.1725
  823MOL0     O 8528   7.965   2.238   4.142  0.0292  0.4837  0.0294
  823MOL0     C 8529   8.073   2.216   4.218  0.1919 -0.7907  0.2983
  823MOL0     C 8530   8.091   2.109   4.307 -0.3551 -0.5551 -0.4019
  823MOL0     C 8531   8.207   2.072   4.373 -0.3350 -0.3107 -0.1713
  823MOL0     C 8532   8.325   2.148   4.357  0.0610 -0.1952  0.6272
  823MOL0     C 8533   8.452   2.107   4.410 -0.1636 -0.4812 -0.2836
  823MOL0     O 8534   8.565   2.173   4.384 -0.4651  0.1911  0.7173
  823MOL0     C 8535   8.682   2.106   4.409 -0.0319  0.2194  0.5139
  823MOL0     C 8536   8.756   2.064   4.299  0.0406  0.5767 -0.0269
  823MOL0     C 8537   8.874   1.995   4.329  0.0608  0.2519  0.7753
  823MOL0     C 8538   8.917   1.979   4.463  0.0359  0.2814  0.1994
  823MOL0     O 8539   9.028   1.906   4.491 -0.2486 -0.2690  0.5658
  823MOL0     C 8540   9.108   1.921   4.613  0.3173  0.1123  0.7280
  823MOL0     C 8541   9.215   1.810   4.622  0.1420  0.5081  0.6372
  823MOL0     C 8542   9.169   1.677   4.565  0.2838  0.4687  0.3679
  823MOL0     C 8543   9.266   1.563   4.609 -0.5688  0.3509  0.1817
  823MOL0     C 8544   9.416   1.578   4.569 -0.5659 -0.7246 -0.2660
  823MOL0     C 8545   9.506   1.472   4.645  0.8160  0.0510 -1.0992
  823MOL0     C 8546   9.658   1.500   4.619  0.3311  0.2846 -0.6397
  823MOL0     C 8547   9.723   1.578   4.731  0.2198  0.2417  0.5249
  823MOL0    Cl 8548   9.890   1.585   4.694  0.2175  0.2061 -0.5527
  823MOL0     C 8549   8.844   2.030   4.569 -0.9610  0.4173 -0.3822
  823MOL0     C 8550   8.720   2.082   4.543 -0.1811  0.1213  0.8718
  823MOL0     O 8551   8.444   2.004   4.478  0.7253 -0.0898  0.3012
  823MOL0     C 8552   8.314   2.253   4.262 -0.0241  0.1442 -0.6830
  823MOL0     C 8553   8.193   2.288   4.195 -0.6998  0.5724 -0.6330
  823MOL0     N 8554   7.389   2.496   4.386  0.6328 -0.0873 -0.7691
  823MOL0     N 8555   7.269   2.539   4.413 -0.6090 -0.5497 -0.4805
  823MOL0     C 8556   7.926   2.825   4.041  0.5822 -0.0034 -0.2491
  823MOL0     C 8557   8.064   2.841   4.030 -0.0460  0.8074  0.6822
  823MOL0     C 8558   8.491   3.046   4.071 -0.3927 -0.4838  0.0253
  823MOL0     C 8559   8.576   3.151   4.118  0.3956  0.4922 -0.6787
  823MOL0     C 8560   8.706   3.128   4.131 -0.4916 -0.2191  0.0997
  823MOL0     C 8561   8.765   2.999   4.114  0.0110 -0.2565 -0.4761
  823MOL0     O 8562   8.896   2.969   4.121  0.0315  0.2127  0.3596
  823MOL0     C 8563   8.994   3.066   4.157  0.2534 -0.4338  0.1391
  823MOL0     C 8564   9.126   2.994   4.154  0.1418  0.3713  0.8492
  823MOL0     C 8565   9.244   3.086   4.186  0.6172 -0.2270 -0.2663
  823MOL0     C 8566   9.374   3.010   4.204  0.4305 -0.5291  0.0470
  823MOL0     C 8567   9.370   2.908   4.314  0.2362 -0.4560  0.7566
  823MOL0     C 8568   9.372   2.821   4.396  0.3002  0.0997  0.5893
  823MOL0     C 8569   8.682   2.894   4.077  0.2441 -0.0060  0.8484
  823MOL0     C 8570   8.539   2.916   4.058 -0.5347  0.2084  0.2605
  823MOL0     H 8571   8.073   3.177   3.996 -0.3837 -0.0233 -0.6329
  823MOL0     H 8572   7.835   3.136   4.025  0.5225  0.8879  0.7685
  823MOL0     H 8573   7.673   3.078   4.178 -2.1018  0.9462  0.7013
  823MOL0     H 8574   7.670   2.915   4.243  1.1956 -1.4305 -1.0331
  823MOL0     H 8575   7.443   2.891   4.118 -1.0304  0.7616 -2.0208
  823MOL0     H 8576   7.482   3.027   4.017 -0.3357 -1.3055 -0.2809
  823MOL0     H 8577   7.465   3.181   4.207  0.5247  0.3631  0.6730
  823MOL0     H 8578   7.432   3.060   4.328 -0.9706 -0.3007 -0.5834
  823MOL0     H 8579   7.243   3.165   4.271  0.6576 -0.6220  0.7635
  823MOL0     H 8580   7.263   3.121   4.091  5.0844  1.4791 -0.2311
  823MOL0     H 8581   7.244   2.884   4.141  0.0382  0.5949  0.1356
  823MOL0     H 8582   7.103   2.976   4.178  0.7982 -0.7409 -1.4481
  823MOL0     H 8583   7.190   2.983   4.426  2.6475  0.9442 -1.0957
  823MOL0     H 8584   7.284   2.840   4.381 -1.1289 -1.4291 -1.1356
  823MOL0     H 8585   7.075   2.778   4.479 -0.2922 -0.0747 -0.0763
  823MOL0     H 8586   6.989   2.865   4.355  1.4538  1.6940 -1.0422
  823MOL0     H 8587   7.076   2.703   4.186  1.1602 -1.4580 -0.1120
  823MOL0     H 8588   7.023   2.603   4.326  1.5424 -0.7333  1.5832
  823MOL0     H 8589   7.312   2.676   4.117 -0.2549  3.1178  1.0153
  823MOL0     H 8590   7.613   2.613   4.207  0.5086 -0.0321  3.1435
  823MOL0     H 8591   7.540   2.513   4.084  2.7759  0.1927 -1.3680
  823MOL0     H 8592   7.580   2.318   4.271 -0.7748 -0.0801  0.1612
  823MOL0     H 8593   7.670   2.422   4.357 -3.6244 -3.8098  1.3931
  823MOL0     H 8594   7.734   2.344   4.056 -4.1660 -0.6087  1.2834
  823MOL0     H 8595   7.822   2.475   4.135 -1.1217  1.1890  0.3999
  823MOL0     H 8596   7.798   2.182   4.243  1.7291 -0.7102  0.6101
  823MOL0     H 8597   7.883   2.328   4.310  0.1409  0.0362 -0.1730
  823MOL0     H 8598   8.009   2.043   4.333  1.6921 -2.1873  2.4849
  823MOL0     H 8599   8.190   1.994   4.446  0.0778  2.0578  2.6406
  823MOL0     H 8600   8.737   2.080   4.193 -0.5841 -0.3083 -0.0588
  823MOL0     H 8601   8.925   1.951   4.245 -2.4218 -1.5912  0.1180
  823MOL0     H 8602   9.045   1.910   4.702 -1.6141 -1.6294 -0.7640
  823MOL0     H 8603   9.153   2.020   4.607 -0.2468  0.4228  1.4704
  823MOL0     H 8604   9.242   1.803   4.727  1.1313  0.8260  0.4066
  823MOL0     H 8605   9.302   1.845   4.566 -1.1630  1.1410 -1.0867
  823MOL0     H 8606   9.151   1.679   4.457 -0.4951 -2.1898  0.3834
  823MOL0     H 8607   9.068   1.652   4.599 -1.7057  4.2192 -2.1388
  823MOL0     H 8608   9.257   1.549   4.717 -1.1379  2.8439  0.5165
  823MOL0     H 8609   9.226   1.472   4.561 -0.1469  0.2317  0.0486
  823MOL0     H 8610   9.448   1.681   4.591 -1.5221 -0.2709 -0.9077
  823MOL0     H 8611   9.425   1.559   4.462 -0.6291 -2.5267  0.0233
  823MOL0     H 8612   9.494   1.370   4.609  0.5352 -0.1617 -0.4123
  823MOL0     H 8613   9.485   1.481   4.752 -2.2655 -3.7716 -1.1638
  823MOL0     H 8614   9.709   1.404   4.614 -1.0663 -0.4374 -3.1272
  823MOL0     H 8615   9.677   1.543   4.521  1.0783 -0.6551 -0.9246
  823MOL0     H 8616   9.710   1.543   4.833 -0.1227 -2.1681 -0.2684
  823MOL0     H 8617   9.688   1.681   4.716 -0.7525 -0.3569 -1.7554
  823MOL0     H 8618   8.869   2.026   4.674 -3.4645  0.9968  0.3139
  823MOL0     H 8619   8.668   2.129   4.626  0.1667  1.9852  0.0786
  823MOL0     H 8620   8.405   2.308   4.240  0.7106 -1.6368 -2.5159
  823MOL0     H 8621   8.187   2.374   4.129  0.7226  0.6048 -0.7360
  823MOL0     H 8622   7.895   2.722   4.054 -0.5499  0.4596  0.9462
  823MOL0     H 8623   8.116   2.748   4.012 -0.5832  0.6632 -0.1587
  823MOL0     H 8624   8.534   3.249   4.140 -0.7911 -0.2261  0.4312
  823MOL0     H 8625   8.770   3.209   4.163  1.5932 -2.0360  0.7738
  823MOL0     H 8626   8.968   3.110   4.254 -2.6925 -0.2379 -0.6414
  823MOL0     H 8627   8.993   3.141   4.078 -3.0811  0.2607  0.6891
  823MOL0     H 8628   9.124   2.912   4.227 -2.0853 -0.0418  0.3861
  823MOL0     H 8629   9.133   2.953   4.052 -0.5961  1.8841  0.1583
  823MOL0     H 8630   9.220   3.135   4.280 -0.4118 -0.3882 -0.4381
  823MOL0     H 8631   9.260   3.160   4.107  0.5454  0.5618  0.4527
  823MOL0     H 8632   9.394   2.964   4.106 -2.4826  0.7428 -1.2475
  823MOL0     H 8633   9.455   3.080   4.225 -0.3266  0.3801 -0.0162
  823MOL0     H 8634   9.386   2.751   4.476  1.7515  0.7068  0.9054
  823MOL0     H 8635   8.715   2.792   4.058 -0.5325 -0.0840 -0.1141
  823MOL0     H 8636   8.487   2.826   4.026 -0.8572  0.2873  0.5618
  824MOL0     O 8637   5.135   4.510   5.818  0.2048 -0.0531 -0.4242
  824MOL0     C 8638   5.095   4.422   5.741  0.2095  0.1184  0.2465
  824MOL0     O 8639   5.177   4.360   5.650  0.4063 -0.1858 -0.0241
  824MOL0     C 8640   5.297   4.418   5.635 -0.5767 -0.8662  0.0765
  824MOL0     C 8641   5.400   4.327   5.600  0.4746 -0.0466  0.6090
  824MOL0     C 8642   5.526   4.368   5.570 -0.0260 -0.0217 -0.2301
  824MOL0     C 8643   5.565   4.504   5.569 -0.2565 -0.6293 -0.8314
  824MOL0     O 8644   5.696   4.528   5.531  0.1044 -0.1883 -0.8069
  824MOL0     C 8645   5.727   4.668   5.519  0.2446 -0.6105  0.1669
  824MOL0     C 8646   5.781   4.728   5.652  0.0148  0.3846  0.0852
  824MOL0     C 8647   5.824   4.869   5.619  0.3112  0.2518 -0.0637
  824MOL0     C 8648   5.896   4.934   5.740  0.6082  0.3754  0.6921
  824MOL0     C 8649   5.783   4.995   5.826  0.5421 -0.1992  0.4200
  824MOL0     C 8650   5.740   5.137   5.781  0.0086  0.7407 -0.2997
  824MOL0     C 8651   5.606   5.173   5.856  0.7458  0.3490  1.3597
  824MOL0     C 8652   5.639   5.198   6.003  0.2855 -0.2920 -0.2716
  824MOL0     N 8653   5.529   5.263   6.074  0.0420  0.1245 -0.4641
  824MOL0     C 8654   5.485   5.392   6.063  0.3516 -0.2548  0.2404
  824MOL0     C 8655   5.362   5.400   6.120 -0.3777 -0.0152 -0.8873
  824MOL0     C 8656   5.276   5.517   6.126 -0.1011 -0.8166 -0.4576
  824MOL0     C 8657   5.354   5.647   6.164 -0.0476  0.8468  0.0349
  824MOL0     C 8658   5.272   5.778   6.124 -0.2868  0.2212  0.5604
  824MOL0     C 8659   5.123   5.782   6.162 -0.3084 -0.6013 -0.3396
  824MOL0     O 8660   5.108   5.760   6.302  0.0324 -0.6249  0.0913
  824MOL0     C 8661   4.979   5.728   6.352 -0.7075 -0.2596 -0.0318
  824MOL0     C 8662   4.969   5.690   6.487 -1.0901 -0.3275  0.0840
  824MOL0     C 8663   4.846   5.660   6.550 -0.7359 -0.8009  0.2653
  824MOL0     C 8664   4.729   5.648   6.470  0.1767  0.2639 -0.6604
  824MOL0     C 8665   4.597   5.604   6.526 -0.6483 -0.1353  0.9438
  824MOL0     O 8666   4.496   5.616   6.442  0.0760  0.0014  0.4526
  824MOL0     C 8667   4.373   5.599   6.492 -0.5692 -0.0144  0.1849
  824MOL0     C 8668   4.320   5.664   6.607 -0.1037 -0.2197 -0.6811
  824MOL0     C 8669   4.190   5.636   6.648 -0.4827 -0.4944 -0.3983
  824MOL0     C 8670   4.100   5.559   6.573  0.6763 -0.0479  1.3828
  824MOL0     O 8671   3.971   5.549   6.621 -0.6165  0.6086  0.3575
  824MOL0     C 8672   3.877   5.472   6.546  1.1269  0.2260 -0.7165
  824MOL0     C 8673   3.737   5.459   6.610 -0.0046  0.0994 -0.1403
  824MOL0     C 8674   3.674   5.597   6.619 -0.0314 -0.5897 -0.0733
  824MOL0     C 8675   3.546   5.569   6.714  0.3429 -0.2205 -0.7896
  824MOL0     C 8676   3.437   5.672   6.694 -0.1039  0.2577 -0.2626
  824MOL0     C 8677   3.344   5.683   6.814  0.7792 -0.4496  0.1732
  824MOL0     C 8678   3.233   5.585   6.797  0.3506 -0.0214 -0.1511
  824MOL0     C 8679   3.135   5.592   6.909  0.0945 -0.2906  0.2919
  824MOL0    Cl 8680   3.003   5.473   6.900 -0.1404 -0.1038 -0.2710
  824MOL0     C 8681   4.142   5.518   6.444 -0.4210 -0.0265 -0.3756
  824MOL0     C 8682   4.284   5.533   6.410 -0.2966  0.5480  0.3605
  824MOL0     O 8683   4.591   5.576   6.645 -0.4041  0.3571  0.7110
  824MOL0     C 8684   4.742   5.685   6.332  0.1146 -0.4246 -0.8806
  824MOL0     C 8685   4.865   5.725   6.278 -0.0726  0.5613 -0.0764
  824MOL0     N 8686   5.329   5.278   6.179  0.3496  0.9079  0.0816
  824MOL0     N 8687   5.431   5.197   6.154  0.0219  0.1525 -0.7295
  824MOL0     C 8688   5.466   4.596   5.610  0.3928 -0.8843  0.7934
  824MOL0     C 8689   5.334   4.557   5.629 -0.2145  0.1777  0.2157
  824MOL0     C 8690   4.949   4.392   5.738  0.6584 -0.0383 -0.2677
  824MOL0     C 8691   4.857   4.482   5.801  0.6169  1.1866 -0.0467
  824MOL0     C 8692   4.718   4.469   5.793  0.6053 -0.1250 -0.0331
  824MOL0     C 8693   4.675   4.354   5.725  0.9456  0.3940  0.5768
  824MOL0     O 8694   4.540   4.333   5.727  0.0359  0.2287  0.5791
  824MOL0     C 8695   4.486   4.207   5.699 -0.0706 -1.3265 -0.8680
  824MOL0     C 8696   4.341   4.199   5.761  0.3788 -0.0726 -0.1426
  824MOL0     C 8697   4.247   4.295   5.699  0.4345 -0.6422  0.8118
  824MOL0     C 8698   4.104   4.269   5.755 -0.7241 -0.1094  0.9909
  824MOL0     C 8699   4.013   4.387   5.747 -0.6139 -0.5464 -0.7958
  824MOL0     C 8700   3.948   4.491   5.754 -0.0062 -0.0460 -0.0358
  824MOL0     C 8701   4.758   4.264   5.656  0.1086  0.0850 -0.6665
  824MOL0     C 8702   4.899   4.283   5.672  0.1435 -0.0208  0.5079
  824MOL0     H 8703   5.371   4.222   5.602 -0.9104  0.2736 -0.9917
  824MOL0     H 8704   5.601   4.298   5.534 -0.4698  0.0715 -1.3715
  824MOL0     H 8705   5.636   4.713   5.479 -0.2310 -2.6213 -1.1937
  824MOL0     H 8706   5.796   4.685   5.436 -1.0989 -0.2211 -0.9077
  824MOL0     H 8707   5.854   4.656   5.690 -2.0143 -1.1022  1.4010
  824MOL0     H 8708   5.696   4.735   5.720  0.2132  0.2996  0.3418
  824MOL0     H 8709   5.737   4.925   5.584  0.2395 -0.0623 -0.3928
  824MOL0     H 8710   5.888   4.868   5.531  0.4684 -1.2214  0.0464
  824MOL0     H 8711   5.942   4.856   5.800  0.4418  0.6750  1.2160
  824MOL0     H 8712   5.968   5.009   5.706 -0.8958  1.7416  0.3445
  824MOL0     H 8713   5.801   4.999   5.934  0.7173  0.5882  0.3656
  824MOL0     H 8714   5.698   4.931   5.799  2.0456 -0.7521 -3.7407
  824MOL0     H 8715   5.724   5.138   5.673 -3.5173  0.4451  0.1057
  824MOL0     H 8716   5.821   5.207   5.803 -0.3579  2.0671 -2.8246
  824MOL0     H 8717   5.565   5.259   5.802 -3.4167 -1.3750  1.4032
  824MOL0     H 8718   5.536   5.090   5.843  0.3995  0.6202  1.4658
  824MOL0     H 8719   5.716   5.276   5.995 -1.9075  1.8251 -2.6268
  824MOL0     H 8720   5.677   5.111   6.057  1.2692 -0.5414 -1.3038
  824MOL0     H 8721   5.528   5.476   6.008 -0.3313  0.3077  0.5622
  824MOL0     H 8722   5.200   5.489   6.199 -0.8495 -3.4330 -2.1070
  824MOL0     H 8723   5.218   5.535   6.035  0.1172 -3.7620 -1.2791
  824MOL0     H 8724   5.455   5.644   6.123 -0.0213  0.7530  0.1053
  824MOL0     H 8725   5.356   5.647   6.273 -3.9669  0.5291  0.2458
  824MOL0     H 8726   5.322   5.863   6.171  1.0670 -1.1269  1.6703
  824MOL0     H 8727   5.277   5.796   6.016 -1.1992  1.0280  0.6450
  824MOL0     H 8728   5.066   5.712   6.101  0.0699  0.3262 -1.8154
  824MOL0     H 8729   5.082   5.882   6.140 -1.3541 -0.5712  1.5532
  824MOL0     H 8730   5.068   5.680   6.531 -0.4171 -2.9745 -1.7812
  824MOL0     H 8731   4.849   5.633   6.655  0.4894  0.4051  0.5666
  824MOL0     H 8732   4.380   5.730   6.668 -0.4214  0.7799 -1.4393
  824MOL0     H 8733   4.163   5.676   6.745  1.9114  0.1993  0.0654
  824MOL0     H 8734   3.904   5.366   6.542  0.7059  0.0724  0.2840
  824MOL0     H 8735   3.858   5.504   6.443 -1.0600  1.0329 -0.1094
  824MOL0     H 8736   3.754   5.416   6.709  1.0820 -1.6454 -1.0358
  824MOL0     H 8737   3.683   5.390   6.545  3.0090 -2.4275 -0.1812
  824MOL0     H 8738   3.636   5.638   6.525 -2.0541  2.5633  1.9410
  824MOL0     H 8739   3.733   5.677   6.665 -1.2576  0.3933 -0.1407
  824MOL0     H 8740   3.500   5.473   6.691 -1.7037  1.0860 -2.6362
  824MOL0     H 8741   3.577   5.569   6.819  1.9682  0.4734 -1.2412
  824MOL0     H 8742   3.383   5.656   6.600  1.2645  2.9173 -1.6326
  824MOL0     H 8743   3.500   5.762   6.683  0.5051 -0.0725  0.4083
  824MOL0     H 8744   3.296   5.781   6.806  1.6471  0.1883  2.1589
  824MOL0     H 8745   3.396   5.676   6.910 -1.2038 -2.7222  1.1985
  824MOL0     H 8746   3.179   5.594   6.702 -1.2776 -2.9503  0.3618
  824MOL0     H 8747   3.268   5.482   6.789  1.6260  0.2717  1.2488
  824MOL0     H 8748   3.074   5.682   6.897  0.1761  0.0123  1.9631
  824MOL0     H 8749   3.183   5.584   7.007  0.5405 -0.4190  0.0630
  824MOL0     H 8750   4.089   5.459   6.370  0.2543 -0.3718 -0.5885
  824MOL0     H 8751   4.316   5.478   6.322  0.6593 -0.7176  1.4610
  824MOL0     H 8752   4.659   5.698   6.263  0.9877  0.3677 -1.8062
  824MOL0     H 8753   4.877   5.751   6.173  1.5515 -3.0051 -0.9137
  824MOL0     H 8754   5.491   4.698   5.639 -2.2655  0.3685 -0.9664
  824MOL0     H 8755   5.266   4.640   5.642  1.2837  1.7807 -1.4682
  824MOL0     H 8756   4.897   4.555   5.871 -2.6458  1.2995  1.8979
  824MOL0     H 8757   4.647   4.533   5.844  1.1463  1.7557 -1.5131
  824MOL0     H 8758   4.540   4.134   5.758  1.2253  0.2733  0.0172
  824MOL0     H 8759   4.492   4.176   5.594 -0.2326  0.5369 -1.4829
  824MOL0     H 8760   4.308   4.096   5.748  0.6442 -0.2387  0.4605
  824MOL0     H 8761   4.352   4.221   5.868  2.6780  0.2539 -0.3818
  824MOL0     H 8762   4.249   4.274   5.592  0.4262 -2.3578  1.1226
  824MOL0     H 8763   4.269   4.402   5.708 -0.6867 -0.0765 -2.1003
  824MOL0     H 8764   4.067   4.191   5.689  0.1039  2.9826 -3.6039
  824MOL0     H 8765   4.115   4.226   5.855  2.0258 -0.9567  0.4131
  824MOL0     H 8766   3.895   4.584   5.760  0.1771  0.1596 -1.3778
  824MOL0     H 8767   4.721   4.178   5.600  3.6099 -0.8137 -1.8890
  824MOL0     H 8768   4.961   4.208   5.624 -0.3364 -0.6514  0.8532
  825MOL0     O 8769   9.485   1.206   1.412  0.0474  0.2183 -0.0249
  825MOL0     C 8770   9.541   1.311   1.396 -0.3105 -0.2015 -0.7390
  825MOL0     O 8771   9.520   1.391   1.289 -0.2777 -0.2396  0.1247
  825MOL0     C 8772   9.402   1.357   1.218 -0.3363  0.3198 -0.5433
  825MOL0     C 8773   9.283   1.401   1.282  0.5757  0.6460  0.1813
  825MOL0     C 8774   9.159   1.369   1.227  0.6557 -0.4416 -0.1997
  825MOL0     C 8775   9.153   1.295   1.107 -0.2554 -0.1643 -0.0301
  825MOL0     O 8776   9.031   1.264   1.058  0.2479 -0.1394  0.5389
  825MOL0     C 8777   9.007   1.130   1.028 -0.7485  0.0644 -0.1311
  825MOL0     C 8778   8.887   1.121   0.927 -0.3597  0.2309 -0.0117
  825MOL0     C 8779   8.890   1.225   0.807  0.1532 -0.9955  0.1851
  825MOL0     C 8780   8.749   1.227   0.743 -0.7378 -0.0306  0.2723
  825MOL0     C 8781   8.750   1.315   0.620  0.4701  0.2577 -0.8680
  825MOL0     C 8782   8.617   1.344   0.554 -0.0507  0.3390 -0.3616
  825MOL0     C 8783   8.630   1.437   0.426  0.4964 -0.1084  0.3224
  825MOL0     C 8784   8.534   1.388   0.301  0.3585  0.2071 -0.4119
  825MOL0     N 8785   8.558   1.260   0.258 -0.8301 -0.0816  0.7485
  825MOL0     C 8786   8.468   1.159   0.264 -0.1866 -0.2435  0.4530
  825MOL0     C 8787   8.537   1.051   0.215 -0.3372 -0.2427 -0.6540
  825MOL0     C 8788   8.475   0.910   0.207 -0.5962 -0.3883 -0.8414
  825MOL0     C 8789   8.412   0.901   0.064  0.7527 -0.0177 -0.3736
  825MOL0     C 8790   8.309   0.788   0.060 -0.0172 -0.8064  0.1822
  825MOL0     C 8791   8.212   0.782  -0.061  0.8948 -0.2046 -0.2521
  825MOL0     O 8792   8.084   0.743  -0.010 -0.8136  0.2159  0.4735
  825MOL0     C 8793   7.987   0.726  -0.106 -0.9061 -0.2897 -0.1321
  825MOL0     C 8794   8.006   0.690  -0.239 -0.4895 -0.5076  0.2012
  825MOL0     C 8795   7.889   0.659  -0.308  0.1355 -0.3162  0.9728
  825MOL0     C 8796   7.760   0.668  -0.256 -0.5759  0.2425  0.3740
  825MOL0     C 8797   7.643   0.602  -0.326 -0.8779 -0.4861 -0.9004
  825MOL0     O 8798   7.547   0.558  -0.244 -0.5990  0.6446  0.3223
  825MOL0     C 8799   7.421   0.526  -0.279  0.1514  0.1074 -0.8337
  825MOL0     C 8800   7.358   0.571  -0.396 -0.0749 -0.0621 -0.5489
  825MOL0     C 8801   7.230   0.518  -0.427 -0.2974  0.4875  0.0316
  825MOL0     C 8802   7.166   0.440  -0.344  0.2386  0.4869 -0.4331
  825MOL0     O 8803   7.036   0.402  -0.370 -0.0331  0.0686 -0.2043
  825MOL0     C 8804   6.959   0.325  -0.278  0.4415  0.3755 -0.0426
  825MOL0     C 8805   6.829   0.282  -0.343  0.3992  0.4251  0.9673
  825MOL0     C 8806   6.727   0.388  -0.362 -0.2875  0.1184  0.0703
  825MOL0     C 8807   6.593   0.326  -0.413  0.3708  0.0775 -0.0708
  825MOL0     C 8808   6.495   0.433  -0.467 -0.2124 -0.3470  0.1426
  825MOL0     C 8809   6.414   0.503  -0.358 -0.7747 -0.3435 -0.3925
  825MOL0     C 8810   6.327   0.413  -0.277 -0.0591  0.2351  0.0963
  825MOL0     C 8811   6.235   0.334  -0.363  0.5117  1.1681  0.5168
  825MOL0    Cl 8812   6.082   0.269  -0.291 -0.1307  0.1003 -0.4377
  825MOL0     C 8813   7.231   0.401  -0.223 -0.0478 -0.2357 -0.0850
  825MOL0     C 8814   7.359   0.439  -0.195 -0.1864 -0.4107 -0.0685
  825MOL0     O 8815   7.646   0.605  -0.446 -0.0098 -0.0929 -0.7638
  825MOL0     C 8816   7.743   0.702  -0.123 -0.5636  0.1176  0.0093
  825MOL0     C 8817   7.863   0.738  -0.047  0.7303 -0.3334  0.0933
  825MOL0     N 8818   8.654   1.095   0.162  0.0475 -0.1352  0.1195
  825MOL0     N 8819   8.663   1.222   0.180 -0.8615  1.0533 -0.0255
  825MOL0     C 8820   9.274   1.270   1.038  0.2837 -0.5082 -0.1019
  825MOL0     C 8821   9.398   1.313   1.091  0.6171 -0.3153 -0.2571
  825MOL0     C 8822   9.635   1.352   1.497 -0.1494 -0.8581 -0.4093
  825MOL0     C 8823   9.683   1.483   1.492 -1.1537  0.0052  0.0982
  825MOL0     C 8824   9.776   1.528   1.594 -0.0840  1.2132 -0.0551
  825MOL0     C 8825   9.817   1.446   1.702 -0.1030  0.1187 -0.3027
  825MOL0     O 8826   9.912   1.502   1.790  0.4107  0.0636  0.2809
  825MOL0     C 8827   9.920   1.430   1.909 -0.6669 -0.3369  0.0612
  825MOL0     C 8828  10.003   1.507   2.008  0.4125 -0.0865  1.0756
  825MOL0     C 8829   9.925   1.631   2.056  0.1226  0.1065 -0.3880
  825MOL0     C 8830   9.995   1.720   2.157 -0.0861  0.1592 -0.0114
  825MOL0     C 8831   9.905   1.812   2.218  0.3141 -0.2982 -0.2953
  825MOL0     C 8832   9.839   1.895   2.284 -0.0912  0.1235  0.8373
  825MOL0     C 8833   9.770   1.314   1.704  0.8063 -0.1572  0.5136
  825MOL0     C 8834   9.682   1.267   1.604  0.1033 -0.5299  0.0126
  825MOL0     H 8835   9.289   1.462   1.372 -1.3092  0.0151  0.7668
  825MOL0     H 8836   9.066   1.400   1.274  0.4627 -3.1781  1.4419
  825MOL0     H 8837   8.977   1.076   1.119 -0.9541  2.0060  0.9962
  825MOL0     H 8838   9.098   1.083   0.991  0.2338  1.2160  0.7569
  825MOL0     H 8839   8.790   1.131   0.977 -1.0669  1.8794 -1.6143
  825MOL0     H 8840   8.894   1.023   0.879 -2.2936  0.6905 -1.3300
  825MOL0     H 8841   8.966   1.192   0.736 -0.3117  1.3789 -1.5430
  825MOL0     H 8842   8.916   1.328   0.834 -2.6490  0.0829 -0.8667
  825MOL0     H 8843   8.723   1.124   0.718  1.6842 -0.6857  0.1895
  825MOL0     H 8844   8.670   1.252   0.814  1.0364  0.1958  2.3024
  825MOL0     H 8845   8.799   1.258   0.540 -0.5265  0.1783 -1.4351
  825MOL0     H 8846   8.804   1.410   0.633  2.0586 -0.6813 -0.2658
  825MOL0     H 8847   8.560   1.397   0.630  0.6417  0.9411 -0.2477
  825MOL0     H 8848   8.567   1.251   0.523  1.5236  0.0495 -2.2459
  825MOL0     H 8849   8.594   1.536   0.456 -0.6227  0.5929 -2.9059
  825MOL0     H 8850   8.737   1.443   0.403 -0.0144  0.9780 -2.0090
  825MOL0     H 8851   8.540   1.461   0.220  0.1160  0.6520 -0.0340
  825MOL0     H 8852   8.432   1.389   0.341 -0.0064  0.1608 -1.2998
  825MOL0     H 8853   8.367   1.171   0.302 -0.5290 -1.2949 -0.0660
  825MOL0     H 8854   8.399   0.893   0.284 -0.3314  2.2500  0.1022
  825MOL0     H 8855   8.553   0.834   0.217  0.3780  0.4853 -1.6090
  825MOL0     H 8856   8.483   0.882  -0.017 -0.7280 -1.9632 -1.2816
  825MOL0     H 8857   8.361   0.997   0.046  0.7185 -0.0521 -0.4630
  825MOL0     H 8858   8.358   0.690   0.061 -3.9485 -3.0170 -1.8006
  825MOL0     H 8859   8.241   0.783   0.146  0.2563 -0.1742  0.4409
  825MOL0     H 8860   8.253   0.723  -0.143 -1.1966 -1.7673 -0.2369
  825MOL0     H 8861   8.196   0.885  -0.094 -0.8049  0.5700  2.6442
  825MOL0     H 8862   8.105   0.677  -0.282 -0.6395 -3.5281  0.5801
  825MOL0     H 8863   7.904   0.623  -0.409 -0.7939 -1.8619  1.3585
  825MOL0     H 8864   7.388   0.650  -0.464  0.1391 -0.4736 -0.9365
  825MOL0     H 8865   7.190   0.554  -0.521  1.5389 -2.2874 -1.9719
  825MOL0     H 8866   6.933   0.382  -0.189 -0.1732 -2.4437  1.7022
  825MOL0     H 8867   7.015   0.235  -0.252  0.7103 -0.0668 -1.9694
  825MOL0     H 8868   6.783   0.210  -0.275  0.2798 -0.0420  0.3959
  825MOL0     H 8869   6.860   0.237  -0.437 -1.3529 -3.1634  1.9160
  825MOL0     H 8870   6.771   0.443  -0.446 -1.8760  0.3812 -0.6281
  825MOL0     H 8871   6.721   0.456  -0.277  0.7316  2.0596 -1.3230
  825MOL0     H 8872   6.619   0.254  -0.491  0.0301  3.4992 -3.6175
  825MOL0     H 8873   6.557   0.264  -0.331  0.8124  0.7342  0.6405
  825MOL0     H 8874   6.432   0.385  -0.542 -1.3407  0.4955  0.5203
  825MOL0     H 8875   6.557   0.511  -0.514  1.7436 -1.7654  0.2562
  825MOL0     H 8876   6.349   0.581  -0.398  1.0086  1.0093 -0.7690
  825MOL0     H 8877   6.470   0.561  -0.284 -0.6847  1.5497 -1.8643
  825MOL0     H 8878   6.386   0.341  -0.221  2.1884  1.6745 -0.2947
  825MOL0     H 8879   6.262   0.469  -0.209 -1.6136 -0.2931 -0.8825
  825MOL0     H 8880   6.283   0.240  -0.391  0.5820  1.0364  1.0619
  825MOL0     H 8881   6.217   0.386  -0.457 -1.2814 -0.4950 -0.1421
  825MOL0     H 8882   7.177   0.350  -0.144  0.8880 -0.6368  0.3080
  825MOL0     H 8883   7.418   0.387  -0.120 -0.2190 -1.6849 -0.8983
  825MOL0     H 8884   7.652   0.695  -0.064 -1.5135  0.3870 -1.3857
  825MOL0     H 8885   7.867   0.766   0.058 -0.4857 -0.1097  0.0967
  825MOL0     H 8886   9.280   1.248   0.932 -2.3409  0.2401 -0.4913
  825MOL0     H 8887   9.486   1.317   1.028  1.6847  1.8561  1.2552
  825MOL0     H 8888   9.666   1.541   1.402  1.0444 -0.3617 -0.6133
  825MOL0     H 8889   9.814   1.629   1.608  0.7510  0.6908  1.8795
  825MOL0     H 8890   9.971   1.333   1.899  2.3737  1.1748 -0.2716
  825MOL0     H 8891   9.817   1.419   1.945 -0.7310 -0.3656 -0.1301
  825MOL0     H 8892  10.026   1.441   2.092 -2.7168 -1.9533  0.6156
  825MOL0     H 8893  10.101   1.538   1.971  0.3057  0.3885  1.1792
  825MOL0     H 8894   9.827   1.594   2.088  0.2035  0.3560  0.1618
  825MOL0     H 8895   9.901   1.696   1.972  0.1422  0.3028 -0.2414
  825MOL0     H 8896  10.037   1.660   2.238  1.0011  2.0007  0.8269
  825MOL0     H 8897  10.062   1.779   2.094  1.1738  1.9695  2.8499
  825MOL0     H 8898   9.788   1.973   2.337 -0.9523  0.9220 -1.0529
  825MOL0     H 8899   9.805   1.239   1.774 -0.1779 -1.2549 -0.1337
  825MOL0     H 8900   9.643   1.166   1.614  0.9611 -0.7373  1.7280
  826MOL0     O 8901   1.383   9.281   8.356 -0.7102  0.1412  0.3122
  826MOL0     C 8902   1.445   9.371   8.304  0.2090 -0.2384  0.2238
  826MOL0     O 8903   1.391   9.479   8.258  0.3186 -0.3909  0.5043
  826MOL0     C 8904   1.256   9.511   8.226  0.3173 -0.4400 -0.3023
  826MOL0     C 8905   1.165   9.411   8.205  0.5765  0.6994 -0.0710
  826MOL0     C 8906   1.036   9.456   8.181  0.0413  0.4027 -0.3198
  826MOL0     C 8907   0.992   9.592   8.173  0.2238 -0.0944 -0.2362
  826MOL0     O 8908   0.867   9.637   8.142  0.1539  0.3460 -0.1453
  826MOL0     C 8909   0.752   9.558   8.175  0.0300 -0.4543 -0.4482
  826MOL0     C 8910   0.627   9.633   8.156 -1.0979  0.6732 -0.1200
  826MOL0     C 8911   0.503   9.553   8.213 -0.1976  0.2510  0.1248
  826MOL0     C 8912   0.366   9.629   8.174 -0.0623  0.0764  0.0954
  826MOL0     C 8913   0.261   9.596   8.272 -0.0856 -0.3369 -0.1558
  826MOL0     C 8914   0.199   9.457   8.264 -0.2150  0.5283 -0.0730
  826MOL0     C 8915   0.090   9.454   8.376  1.2709  1.4180  0.3291
  826MOL0     C 8916   0.041   9.307   8.361  0.1428  0.1964 -0.4416
  826MOL0     N 8917  -0.070   9.287   8.465 -0.1046  0.6664 -0.0902
  826MOL0     C 8918  -0.061   9.258   8.594  0.4392  0.8601 -0.1857
  826MOL0     C 8919  -0.182   9.257   8.648 -0.1958 -0.4447 -0.8372
  826MOL0     C 8920  -0.219   9.226   8.792 -0.4970 -0.5024 -0.0165
  826MOL0     C 8921  -0.353   9.156   8.804  1.0723 -0.3251  0.3834
  826MOL0     C 8922  -0.445   9.238   8.884  0.5439 -0.4253  0.1097
  826MOL0     C 8923  -0.579   9.162   8.895  1.5199  0.4342 -0.5790
  826MOL0     O 8924  -0.677   9.265   8.889 -0.1262 -0.2484  0.3950
  826MOL0     C 8925  -0.810   9.232   8.892  0.4639 -0.5616  0.1826
  826MOL0     C 8926  -0.901   9.336   8.883  0.3348 -0.1000  0.5738
  826MOL0     C 8927  -1.042   9.306   8.873 -0.5464 -0.5686 -0.1165
  826MOL0     C 8928  -1.086   9.171   8.878  0.0874  0.4909 -0.0111
  826MOL0     C 8929  -1.232   9.137   8.872  0.1637  1.2823  0.5917
  826MOL0     O 8930  -1.321   9.236   8.871  0.5358  0.2879 -0.4801
  826MOL0     C 8931  -1.442   9.210   8.822  1.5773  0.1086 -0.4774
  826MOL0     C 8932  -1.555   9.222   8.907 -0.0026 -0.9309 -0.6916
  826MOL0     C 8933  -1.680   9.199   8.861  1.2433  0.0648 -0.0264
  826MOL0     C 8934  -1.698   9.160   8.724 -0.1388 -0.2101 -0.1080
  826MOL0     O 8935  -1.822   9.119   8.689  0.0905  0.6177  0.2424
  826MOL0     C 8936  -1.840   9.075   8.551 -0.7320  0.9757  0.4443
  826MOL0     C 8937  -1.988   9.046   8.531 -0.5478 -0.3114 -0.1814
  826MOL0     C 8938  -2.017   9.015   8.376  0.1445 -0.3110  0.0761
  826MOL0     C 8939  -2.164   8.956   8.363 -0.3336 -0.7609 -0.4143
  826MOL0     C 8940  -2.198   8.920   8.225  0.7068 -0.0041  0.0382
  826MOL0     C 8941  -2.120   8.801   8.176 -0.9050 -0.5551  0.0670
  826MOL0     C 8942  -2.166   8.740   8.044 -0.6456 -0.3061  0.9666
  826MOL0     C 8943  -2.084   8.611   8.025  0.2971 -0.1825 -0.7601
  826MOL0    Cl 8944  -2.168   8.481   8.106 -0.1000  0.1063  0.0532
  826MOL0     C 8945  -1.587   9.152   8.631 -0.2379  0.1931 -0.2503
  826MOL0     C 8946  -1.461   9.176   8.687  0.9390  0.7302  0.9825
  826MOL0     O 8947  -1.263   9.018   8.860  0.3138  0.3457 -0.4692
  826MOL0     C 8948  -0.989   9.071   8.893  0.6585  0.0396 -0.2749
  826MOL0     C 8949  -0.852   9.098   8.905  0.3390 -0.3758 -0.3735
  826MOL0     N 8950  -0.272   9.266   8.537  0.0269  0.4700 -0.1480
  826MOL0     N 8951  -0.205   9.289   8.427  0.1476 -0.3465 -0.0389
  826MOL0     C 8952   1.086   9.686   8.183 -1.0362 -0.5515 -0.2634
  826MOL0     C 8953   1.221   9.650   8.223  0.1379 -0.1098 -0.2017
  826MOL0     C 8954   1.587   9.350   8.288 -0.1505  0.2304 -0.3529
  826MOL0     C 8955   1.656   9.449   8.209  0.3725 -0.0630  1.0103
  826MOL0     C 8956   1.790   9.430   8.178 -0.2123  0.3419  0.3893
  826MOL0     C 8957   1.861   9.320   8.222  0.1512 -0.0479 -0.5364
  826MOL0     O 8958   1.999   9.307   8.211  0.6467  0.3231 -0.1028
  826MOL0     C 8959   2.055   9.339   8.077  0.2844 -0.3343  0.2481
  826MOL0     C 8960   2.155   9.455   8.080 -0.3056 -0.2818  0.1351
  826MOL0     C 8961   2.202   9.484   7.929 -0.6565 -0.0614  0.7270
  826MOL0     C 8962   2.315   9.580   7.932 -0.8420 -0.7020 -0.6042
  826MOL0     C 8963   2.381   9.612   7.802  0.4674  0.3085  0.0577
  826MOL0     C 8964   2.428   9.639   7.695 -0.1779 -0.2297  1.0614
  826MOL0     C 8965   1.791   9.214   8.292  0.4371 -0.8210  0.0779
  826MOL0     C 8966   1.656   9.227   8.326 -0.4956 -0.6705 -0.2099
  826MOL0     H 8967   1.181   9.306   8.226  3.7890  0.5344 -2.6088
  826MOL0     H 8968   0.953   9.386   8.172  0.0694  0.5774 -2.7369
  826MOL0     H 8969   0.775   9.509   8.270  0.0427 -1.2817 -0.8609
  826MOL0     H 8970   0.738   9.464   8.120 -0.0321 -4.0852  5.0668
  826MOL0     H 8971   0.622   9.648   8.048  0.5808  1.2585 -0.1502
  826MOL0     H 8972   0.644   9.730   8.203  0.9908  0.3423 -0.0733
  826MOL0     H 8973   0.533   9.554   8.318  2.5117 -0.0158 -0.5806
  826MOL0     H 8974   0.500   9.450   8.176 -1.9024  0.1242  0.5318
  826MOL0     H 8975   0.385   9.736   8.172  2.4551 -0.2088  2.6329
  826MOL0     H 8976   0.337   9.589   8.076 -3.0192 -0.6492  1.1548
  826MOL0     H 8977   0.182   9.670   8.257 -0.3233 -0.5449  0.0899
  826MOL0     H 8978   0.303   9.612   8.372 -1.6057  1.3132  0.2796
  826MOL0     H 8979   0.281   9.387   8.283 -0.5250  0.4331  1.0019
  826MOL0     H 8980   0.152   9.449   8.166 -0.6052  0.2046  0.1381
  826MOL0     H 8981   0.125   9.472   8.477 -1.5989 -0.5418  1.8275
  826MOL0     H 8982   0.008   9.523   8.352  0.5565  0.0115 -1.6596
  826MOL0     H 8983   0.119   9.232   8.376 -0.3253 -0.2282 -0.0959
  826MOL0     H 8984   0.007   9.300   8.257 -2.5782  0.5028  0.3441
  826MOL0     H 8985   0.036   9.252   8.643  0.0921 -2.6121  0.3378
  826MOL0     H 8986  -0.223   9.323   8.843 -0.5504  1.3702 -3.3033
  826MOL0     H 8987  -0.137   9.175   8.844 -0.6411 -0.3689  0.3487
  826MOL0     H 8988  -0.341   9.071   8.872 -0.6547  0.0922  1.2667
  826MOL0     H 8989  -0.400   9.125   8.711 -1.7139  0.2890  1.5061
  826MOL0     H 8990  -0.402   9.275   8.977 -1.4655  1.4325  0.3794
  826MOL0     H 8991  -0.470   9.320   8.816 -4.1304 -0.5673  1.3093
  826MOL0     H 8992  -0.585   9.123   8.997 -1.2477  4.1156  0.8973
  826MOL0     H 8993  -0.586   9.085   8.818  1.1952  0.8078 -0.9260
  826MOL0     H 8994  -0.865   9.439   8.880 -2.7321  1.0694 -0.8084
  826MOL0     H 8995  -1.113   9.389   8.872 -1.2388 -1.0766  1.8801
  826MOL0     H 8996  -1.545   9.234   9.014 -2.4219  0.4369 -0.5613
  826MOL0     H 8997  -1.764   9.208   8.928  1.4331  1.2834  0.0666
  826MOL0     H 8998  -1.789   8.982   8.526 -1.7425  0.1853  1.2447
  826MOL0     H 8999  -1.806   9.148   8.477  3.4900  1.4531  2.5605
  826MOL0     H 9000  -2.054   9.130   8.554 -0.9950 -0.1517 -1.9536
  826MOL0     H 9001  -2.026   8.968   8.599  2.1348 -4.2599 -2.7594
  826MOL0     H 9002  -1.949   8.934   8.348  0.5126  0.0424 -0.0612
  826MOL0     H 9003  -2.000   9.100   8.309  1.8255  0.2856  1.1971
  826MOL0     H 9004  -2.182   8.878   8.437 -1.5501  1.5748  1.9381
  826MOL0     H 9005  -2.230   9.040   8.388 -0.0581 -0.2983 -1.1867
  826MOL0     H 9006  -2.181   9.012   8.168  0.5872  0.4341  0.6948
  826MOL0     H 9007  -2.303   8.888   8.220  1.2709 -2.1238  0.8057
  826MOL0     H 9008  -2.128   8.722   8.252  0.1476  1.5752  2.5748
  826MOL0     H 9009  -2.017   8.836   8.162 -1.4899  1.1067 -0.3260
  826MOL0     H 9010  -2.272   8.711   8.049  0.1497 -3.3276  2.2034
  826MOL0     H 9011  -2.140   8.810   7.964  1.4201 -0.2172  1.6678
  826MOL0     H 9012  -1.980   8.626   8.054  0.5944  1.6324 -2.5169
  826MOL0     H 9013  -2.093   8.576   7.921 -2.0611 -0.3710 -0.5462
  826MOL0     H 9014  -1.603   9.109   8.533 -1.1437 -2.4500  0.9486
  826MOL0     H 9015  -1.376   9.158   8.623  0.8321  0.5880  0.8792
  826MOL0     H 9016  -1.017   8.966   8.886  0.9901 -0.1284  0.6764
  826MOL0     H 9017  -0.778   9.020   8.923 -2.2751 -3.0616 -0.4959
  826MOL0     H 9018   1.066   9.792   8.171  1.5196  0.1930  1.2030
  826MOL0     H 9019   1.296   9.725   8.247  0.7088 -0.4191 -0.9728
  826MOL0     H 9020   1.613   9.538   8.163  1.2561  0.5335  1.3237
  826MOL0     H 9021   1.836   9.507   8.117 -1.2022  0.7205  0.0951
  826MOL0     H 9022   1.981   9.350   7.997 -0.2327  2.0640  0.9719
  826MOL0     H 9023   2.118   9.254   8.050 -0.7545 -0.7356 -1.0827
  826MOL0     H 9024   2.091   9.536   8.113 -0.0856  0.1112 -0.3939
  826MOL0     H 9025   2.243   9.443   8.144  0.1904 -2.2780 -0.8162
  826MOL0     H 9026   2.115   9.519   7.872 -1.9093  0.7541  2.9882
  826MOL0     H 9027   2.236   9.390   7.883  0.4326  0.8448 -0.3959
  826MOL0     H 9028   2.280   9.677   7.969 -0.7562 -1.0947  0.5289
  826MOL0     H 9029   2.391   9.540   7.999 -2.3020 -1.4721  0.6490
  826MOL0     H 9030   2.482   9.675   7.610  0.7217 -1.7769  0.9561
  826MOL0     H 9031   1.846   9.126   8.325  0.4837 -0.3195  1.4322
  826MOL0     H 9032   1.598   9.147   8.371 -0.5591 -1.6265 -1.9026
  827MOL0     O 9033  10.716   0.439  10.549  0.5021 -0.4316 -0.7140
  827MOL0     C 9034  10.775   0.546  10.521  0.1947  0.4241  0.0006
  827MOL0     O 9035  10.723   0.640  10.446  0.1063 -0.8403 -0.2486
  827MOL0     C 9036  10.586   0.665  10.448  0.9047 -0.4953 -0.9447
  827MOL0     C 9037  10.504   0.668  10.567 -0.1272 -0.4088 -0.1260
  827MOL0     C 9038  10.372   0.693  10.558 -0.8075  0.2261  0.4035
  827MOL0     C 9039  10.314   0.753  10.443  0.3594 -0.1938  0.4726
  827MOL0     O 9040  10.186   0.802  10.458 -0.4056 -0.6198 -0.2168
  827MOL0     C 9041  10.122   0.865  10.340 -0.7456 -0.0955 -0.1021
  827MOL0     C 9042   9.973   0.899  10.353  0.1050  0.5837 -0.2174
  827MOL0     C 9043   9.899   0.960  10.230 -1.0077  0.5997  0.2795
  827MOL0     C 9044   9.760   1.016  10.267 -0.2168  0.3077 -0.2455
  827MOL0     C 9045   9.672   1.047  10.155  0.2569  0.3775  0.6099
  827MOL0     C 9046   9.539   1.074  10.213  0.0817 -0.3822  0.6140
  827MOL0     C 9047   9.438   1.125  10.102  0.0412 -0.5101 -0.2883
  827MOL0     C 9048   9.298   1.133  10.162 -0.2539  0.0496  0.3402
  827MOL0     N 9049   9.202   1.195  10.070 -0.4034  0.3167  0.2171
  827MOL0     C 9050   9.139   1.120   9.973 -1.2885 -0.1101 -0.0720
  827MOL0     C 9051   9.028   1.191   9.941  1.3250  0.4133  0.2800
  827MOL0     C 9052   8.922   1.152   9.835  0.1997  0.1439 -0.3132
  827MOL0     C 9053   8.976   1.166   9.697 -0.7060 -0.7773  1.1384
  827MOL0     C 9054   9.004   1.318   9.667  0.1345 -0.9568 -0.0191
  827MOL0     C 9055   9.045   1.354   9.521 -0.5068  0.4709  0.8320
  827MOL0     O 9056   8.963   1.289   9.416  0.1208 -0.1247  0.4068
  827MOL0     C 9057   8.831   1.328   9.417 -0.1831  0.1621 -0.1704
  827MOL0     C 9058   8.789   1.455   9.468 -0.9655  0.0628 -0.1462
  827MOL0     C 9059   8.656   1.482   9.460 -0.7207 -0.6351 -0.1386
  827MOL0     C 9060   8.559   1.406   9.400  0.5909  0.0274 -0.5048
  827MOL0     C 9061   8.412   1.438   9.396  0.1287 -0.5020  0.7695
  827MOL0     O 9062   8.383   1.538   9.474 -0.9983  0.0555  0.6917
  827MOL0     C 9063   8.249   1.574   9.498  0.5024  0.0431  0.1652
  827MOL0     C 9064   8.154   1.493   9.560  0.0862 -0.0382 -1.1711
  827MOL0     C 9065   8.028   1.541   9.595  0.4000  0.8529 -0.1645
  827MOL0     C 9066   7.993   1.677   9.559  0.5136 -0.4215 -0.2052
  827MOL0     O 9067   7.874   1.742   9.586  0.5293 -0.3727 -0.4104
  827MOL0     C 9068   7.838   1.736   9.720  0.1172  0.0170  0.5615
  827MOL0     C 9069   7.776   1.872   9.764 -0.9621  0.0125  0.4336
  827MOL0     C 9070   7.625   1.879   9.740 -0.4807 -0.4215 -0.2776
  827MOL0     C 9071   7.550   1.804   9.843  0.3952 -0.7959 -0.0032
  827MOL0     C 9072   7.397   1.816   9.841 -0.0343 -0.0718  0.5727
  827MOL0     C 9073   7.354   1.955   9.891  0.0359 -0.5381  0.1399
  827MOL0     C 9074   7.204   1.965   9.954  0.5598 -0.3274 -0.7560
  827MOL0     C 9075   7.106   2.011   9.845 -0.5171  0.5462  0.2867
  827MOL0    Cl 9076   6.950   2.022   9.924 -0.0729  0.2258 -0.2634
  827MOL0     C 9077   8.085   1.754   9.472 -0.5138  0.1597 -0.0272
  827MOL0     C 9078   8.213   1.699   9.445  0.1269 -0.0476  0.4131
  827MOL0     O 9079   8.333   1.371   9.333  0.3336  0.4912  0.6489
  827MOL0     C 9080   8.600   1.285   9.349  0.3416 -0.1052  0.5945
  827MOL0     C 9081   8.731   1.246   9.358 -0.0813 -0.9224  0.0558
  827MOL0     N 9082   9.025   1.313  10.006 -0.4252  0.2671 -0.2990
  827MOL0     N 9083   9.130   1.312  10.083 -0.3305  0.1776  0.7092
  827MOL0     C 9084  10.390   0.754  10.325 -0.3102 -0.1021  0.5656
  827MOL0     C 9085  10.521   0.710  10.328  0.0109 -0.0382 -0.5029
  827MOL0     C 9086  10.914   0.576  10.568 -1.1148  0.1199  0.1234
  827MOL0     C 9087  10.965   0.703  10.564 -0.8479  0.1481  0.9614
  827MOL0     C 9088  11.099   0.723  10.602 -0.2016  0.1921  0.1532
  827MOL0     C 9089  11.179   0.618  10.639 -0.2019 -0.3093 -0.0996
  827MOL0     O 9090  11.314   0.639  10.678  0.2650  0.8420 -0.4635
  827MOL0     C 9091  11.358   0.771  10.736  0.2220  0.7762  0.0048
  827MOL0     C 9092  11.483   0.735  10.815  1.2692 -0.4601  0.6683
  827MOL0     C 9093  11.594   0.712  10.716  0.8690  0.3998 -0.0838
  827MOL0     C 9094  11.722   0.700  10.788 -0.3015 -0.8723  0.1867
  827MOL0     C 9095  11.757   0.831  10.840  0.3554  0.1394 -0.5564
  827MOL0     C 9096  11.782   0.936  10.884 -0.3275 -0.2825 -0.3671
  827MOL0     C 9097  11.132   0.484  10.639 -0.3797 -0.6855 -0.1046
  827MOL0     C 9098  11.001   0.466  10.605  0.8996 -0.2406 -0.1479
  827MOL0     H 9099  10.545   0.644  10.664  2.4480  0.5932 -0.8609
  827MOL0     H 9100  10.312   0.689  10.648 -0.0506  0.1631  0.9205
  827MOL0     H 9101  10.132   0.800  10.253  1.4079  1.0830 -0.7931
  827MOL0     H 9102  10.176   0.956  10.313 -2.5121  1.9808  2.7255
  827MOL0     H 9103   9.967   0.969  10.438 -2.8784 -1.0713  1.0633
  827MOL0     H 9104   9.912   0.810  10.367  0.2320 -0.2688 -4.0196
  827MOL0     H 9105   9.903   0.885  10.151  1.4824  1.1884 -0.2684
  827MOL0     H 9106   9.953   1.049  10.195  2.1287 -0.6205  1.6175
  827MOL0     H 9107   9.716   0.932  10.322 -0.1311 -0.6635 -1.5984
  827MOL0     H 9108   9.762   1.107  10.328 -0.7933 -0.6295  1.2198
  827MOL0     H 9109   9.658   0.957  10.095  1.4624 -2.5947  4.3062
  827MOL0     H 9110   9.727   1.129  10.107  2.3497  0.3527  2.7609
  827MOL0     H 9111   9.533   1.151  10.290 -0.3546  0.9189 -0.6677
  827MOL0     H 9112   9.509   0.975  10.249  1.8785 -0.9374  0.6696
  827MOL0     H 9113   9.475   1.225  10.074 -0.2181 -0.4060 -0.2617
  827MOL0     H 9114   9.431   1.054  10.020  1.3328  0.6789 -1.4870
  827MOL0     H 9115   9.310   1.194  10.253  2.3298  1.1653 -0.6333
  827MOL0     H 9116   9.259   1.035  10.188 -2.7471  0.6724 -0.7779
  827MOL0     H 9117   9.180   1.026   9.937  1.9323  2.0943 -2.7277
  827MOL0     H 9118   8.825   1.200   9.847 -0.4688 -1.0659 -0.7109
  827MOL0     H 9119   8.900   1.047   9.857  1.7864 -0.5964 -1.9896
  827MOL0     H 9120   8.898   1.124   9.633 -0.0519  1.1846 -1.0856
  827MOL0     H 9121   9.067   1.108   9.680 -2.1155 -2.6690 -0.4351
  827MOL0     H 9122   8.910   1.362   9.701  1.2744 -0.7773  3.2994
  827MOL0     H 9123   9.085   1.355   9.731  0.9212 -2.6062  0.0100
  827MOL0     H 9124   9.146   1.314   9.510 -1.2213 -1.3585  0.5893
  827MOL0     H 9125   9.041   1.463   9.517 -1.4031  0.6584  3.9818
  827MOL0     H 9126   8.853   1.534   9.505 -0.5277  0.1325 -1.0352
  827MOL0     H 9127   8.622   1.577   9.499 -0.5459  0.7940 -3.1765
  827MOL0     H 9128   8.192   1.400   9.603 -0.4225  1.2599  2.4872
  827MOL0     H 9129   7.954   1.488   9.655  1.9698  0.3281  1.4220
  827MOL0     H 9130   7.919   1.703   9.786  0.2500  1.2254  1.0219
  827MOL0     H 9131   7.760   1.661   9.736 -2.1610  2.0348 -0.4738
  827MOL0     H 9132   7.820   1.958   9.712 -0.1528 -0.6020  0.0793
  827MOL0     H 9133   7.799   1.877   9.870  0.6215 -0.4192  0.1340
  827MOL0     H 9134   7.595   1.850   9.638  2.2373 -0.5228 -1.1176
  827MOL0     H 9135   7.602   1.985   9.752  1.2418 -0.2129  1.6310
  827MOL0     H 9136   7.563   1.699   9.816 -1.4574 -1.3709  1.1082
  827MOL0     H 9137   7.589   1.829   9.942  0.7967 -1.9269  0.1478
  827MOL0     H 9138   7.355   1.743   9.911  1.9802  0.1150  2.0517
  827MOL0     H 9139   7.349   1.793   9.745  1.5641 -1.4649  0.0597
  827MOL0     H 9140   7.376   2.029   9.813 -2.1549 -2.1841 -2.2367
  827MOL0     H 9141   7.418   1.966   9.979  0.2270 -2.4781  0.2738
  827MOL0     H 9142   7.168   1.865   9.982  0.3902 -0.2673 -0.7562
  827MOL0     H 9143   7.205   2.038  10.035 -0.2112  0.7943 -1.7274
  827MOL0     H 9144   7.101   1.937   9.764 -0.6336 -0.2256  0.9842
  827MOL0     H 9145   7.123   2.113   9.809  0.6309  1.0113  2.0251
  827MOL0     H 9146   8.064   1.846   9.419 -1.8958 -0.3090 -0.3171
  827MOL0     H 9147   8.282   1.746   9.376  0.9397  3.1565  3.1320
  827MOL0     H 9148   8.529   1.219   9.300  0.6127  2.1507 -3.1528
  827MOL0     H 9149   8.766   1.151   9.317  0.3908 -0.7972  0.1621
  827MOL0     H 9150  10.357   0.807  10.236 -0.4801  0.3564  0.8958
  827MOL0     H 9151  10.575   0.703  10.234  0.7980  1.3045 -0.1626
  827MOL0     H 9152  10.899   0.785  10.537 -1.1860 -0.0079  1.2981
  827MOL0     H 9153  11.151   0.818  10.605  2.4679 -1.1354 -1.0794
  827MOL0     H 9154  11.279   0.804  10.805  1.4533  2.7050  0.5815
  827MOL0     H 9155  11.369   0.851  10.662  0.8762  1.0982  0.4469
  827MOL0     H 9156  11.504   0.815  10.886 -0.9010  1.3246 -0.5769
  827MOL0     H 9157  11.461   0.645  10.873  2.4460 -1.3845 -0.2542
  827MOL0     H 9158  11.593   0.782  10.632  1.8826 -0.7074 -1.0615
  827MOL0     H 9159  11.580   0.613  10.672  1.1572 -0.0629  0.8352
  827MOL0     H 9160  11.714   0.628  10.870 -1.5196 -0.4180  0.4896
  827MOL0     H 9161  11.798   0.664  10.718  0.7575 -0.3671  1.0557
  827MOL0     H 9162  11.790   1.037  10.920  1.6821 -0.2822 -0.6898
  827MOL0     H 9163  11.192   0.397  10.662  0.4141  0.2941  1.6997
  827MOL0     H 9164  10.965   0.364  10.592  0.4561 -0.0530 -0.4114
  828MOL0     O 9165  10.462   2.083   9.037  0.0659 -0.5319  0.1785
  828MOL0     C 9166  10.533   2.154   8.959  0.5671  0.1236  0.5145
  828MOL0     O 9167  10.534   2.292   8.958  0.3857  0.0173 -0.3140
  828MOL0     C 9168  10.477   2.361   9.062 -0.0751  0.0202 -0.1364
  828MOL0     C 9169  10.547   2.373   9.192 -0.2799 -0.9957  0.2317
  828MOL0     C 9170  10.479   2.411   9.308 -0.0452 -0.2653  0.0852
  828MOL0     C 9171  10.348   2.436   9.303  0.1615  0.1956 -0.0304
  828MOL0     O 9172  10.270   2.473   9.416 -0.7374 -0.4826 -0.0389
  828MOL0     C 9173  10.318   2.423   9.543 -0.0741  0.0520  0.1228
  828MOL0     C 9174  10.197   2.380   9.624 -0.5118  0.1232 -0.1157
  828MOL0     C 9175  10.081   2.480   9.652 -0.3691  0.3881 -0.8164
  828MOL0     C 9176   9.993   2.421   9.765 -0.9502  0.4747  0.3953
  828MOL0     C 9177   9.870   2.502   9.798  0.4485  0.1481  0.3253
  828MOL0     C 9178   9.892   2.649   9.851  0.1665 -0.2861  0.3473
  828MOL0     C 9179   9.758   2.713   9.901 -0.3267 -0.8447  0.2287
  828MOL0     C 9180   9.698   2.642  10.021  0.2392  0.1879 -0.1372
  828MOL0     N 9181   9.626   2.730  10.109 -0.1372 -0.0129 -0.0104
  828MOL0     C 9182   9.522   2.814  10.072  0.1880 -1.1570 -0.3333
  828MOL0     C 9183   9.454   2.845  10.194 -0.3584  0.0529  0.3191
  828MOL0     C 9184   9.336   2.929  10.199  0.1533 -0.7183  0.4320
  828MOL0     C 9185   9.213   2.876  10.123  0.0072 -0.4556 -0.0179
  828MOL0     C 9186   9.082   2.943  10.147 -0.6134 -0.3493 -1.0023
  828MOL0     C 9187   9.062   3.079  10.090 -0.0590 -0.3566 -0.7275
  828MOL0     O 9188   8.929   3.123  10.121  0.5693 -0.0664  0.4316
  828MOL0     C 9189   8.885   3.230  10.051 -0.1310 -0.6263 -0.2388
  828MOL0     C 9190   8.749   3.241  10.022 -0.4788 -0.2421 -0.1260
  828MOL0     C 9191   8.697   3.345   9.942 -1.2310  0.3895 -0.1488
  828MOL0     C 9192   8.784   3.449   9.894  0.3954  0.2694  0.4736
  828MOL0     C 9193   8.725   3.561   9.812 -0.2070 -0.2096  0.6816
  828MOL0     O 9194   8.614   3.528   9.752 -0.4724 -0.0780 -0.4135
  828MOL0     C 9195   8.519   3.599   9.693  0.3214 -0.1059  0.3741
  828MOL0     C 9196   8.426   3.522   9.628  0.2998  0.0611 -0.1515
  828MOL0     C 9197   8.322   3.586   9.554 -0.7099  0.1587 -0.2923
  828MOL0     C 9198   8.304   3.726   9.563 -0.2786 -0.4240  0.5509
  828MOL0     O 9199   8.208   3.799   9.500 -0.8085 -0.2836  0.3648
  828MOL0     C 9200   8.116   3.732   9.407 -0.1572  0.2885  0.3982
  828MOL0     C 9201   8.011   3.838   9.358 -0.7226 -0.0045 -0.3371
  828MOL0     C 9202   7.881   3.782   9.329  1.0866 -0.2540 -0.0690
  828MOL0     C 9203   7.765   3.871   9.272 -0.0880 -0.7097  0.3918
  828MOL0     C 9204   7.795   3.950   9.142 -0.3217  0.6974  0.1861
  828MOL0     C 9205   7.659   4.018   9.093 -0.6129  0.3897 -0.5520
  828MOL0     C 9206   7.677   4.072   8.953  0.5548 -0.5186 -0.1210
  828MOL0     C 9207   7.544   4.126   8.884  0.3301  0.1733 -0.1619
  828MOL0    Cl 9208   7.445   3.990   8.820  0.0758 -0.0098  0.1053
  828MOL0     C 9209   8.407   3.801   9.623  0.0332 -0.9042 -0.0469
  828MOL0     C 9210   8.509   3.738   9.693 -0.0942 -0.8085  0.4184
  828MOL0     O 9211   8.785   3.667   9.797 -0.0040  0.3320  0.2239
  828MOL0     C 9212   8.925   3.436   9.923  0.3500  0.3502 -0.1005
  828MOL0     C 9213   8.973   3.333  10.002  0.3639 -0.3687  0.2509
  828MOL0     N 9214   9.522   2.782  10.290  0.1271 -0.1475  0.0577
  828MOL0     N 9215   9.626   2.719  10.243 -1.4509  0.8334 -0.0506
  828MOL0     C 9216  10.286   2.427   9.176 -0.8371 -0.3758 -0.5298
  828MOL0     C 9217  10.346   2.382   9.062 -0.3163 -0.2907  0.5044
  828MOL0     C 9218  10.633   2.075   8.877  0.3008 -0.5781  0.5204
  828MOL0     C 9219  10.737   2.143   8.814 -0.1450 -0.2247 -0.7225
  828MOL0     C 9220  10.849   2.071   8.760 -0.4952  0.3154 -0.5107
  828MOL0     C 9221  10.842   1.933   8.739  0.1246 -1.4309  0.6186
  828MOL0     O 9222  10.950   1.884   8.672 -0.6971 -0.5908  0.1026
  828MOL0     C 9223  10.953   1.757   8.627 -0.2179  0.0227  0.3271
  828MOL0     C 9224  10.966   1.643   8.732  0.5628 -0.5687  0.6671
  828MOL0     C 9225  11.058   1.525   8.673 -0.1102  0.7057 -0.4186
  828MOL0     C 9226  11.062   1.393   8.761 -0.4841 -0.1529 -0.0159
  828MOL0     C 9227  11.121   1.392   8.892  0.0769  0.1109  0.3969
  828MOL0     C 9228  11.176   1.393   8.995 -0.7224 -0.4637  0.2026
  828MOL0     C 9229  10.724   1.867   8.782  0.2669  0.5965 -0.3035
  828MOL0     C 9230  10.634   1.935   8.864  0.3511  0.1539 -1.3896
  828MOL0     H 9231  10.652   2.347   9.184 -0.2929 -1.1362  0.5245
  828MOL0     H 9232  10.533   2.439   9.398  0.9416  0.8442 -0.8005
  828MOL0     H 9233  10.375   2.495   9.604  0.1039 -1.1179  1.3718
  828MOL0     H 9234  10.372   2.328   9.541  1.2481  0.4130  5.3224
  828MOL0     H 9235  10.228   2.340   9.721  0.0402  2.1258  0.5828
  828MOL0     H 9236  10.151   2.290   9.583 -0.3444 -0.1167  0.2171
  828MOL0     H 9237  10.019   2.497   9.563 -2.1811 -2.6402 -0.3137
  828MOL0     H 9238  10.121   2.575   9.688 -0.1683  0.4083 -1.0878
  828MOL0     H 9239   9.961   2.322   9.731  0.0183  0.2551  0.1014
  828MOL0     H 9240  10.048   2.397   9.856 -0.6292 -0.7602 -0.0965
  828MOL0     H 9241   9.817   2.443   9.874 -0.5219  1.0836  0.3992
  828MOL0     H 9242   9.805   2.508   9.711  1.8591 -0.5405 -0.8129
  828MOL0     H 9243   9.933   2.713   9.771 -2.0477  3.3675  1.9062
  828MOL0     H 9244   9.968   2.652   9.929 -0.4680  0.6444  0.9472
  828MOL0     H 9245   9.774   2.819   9.919 -2.0454 -0.6560  0.7917
  828MOL0     H 9246   9.687   2.711   9.818  0.1681  1.2221 -0.2993
  828MOL0     H 9247   9.766   2.598  10.094 -0.6144 -0.0537  0.5174
  828MOL0     H 9248   9.635   2.557   9.995  2.1437 -1.8738  1.5212
  828MOL0     H 9249   9.486   2.857   9.979 -0.1298 -2.1337 -0.6683
  828MOL0     H 9250   9.359   3.027  10.156  1.8940 -1.2539  0.0951
  828MOL0     H 9251   9.302   2.947  10.301  0.8391  3.5132  0.1205
  828MOL0     H 9252   9.196   2.771  10.147 -1.2260 -0.4006 -0.5594
  828MOL0     H 9253   9.220   2.881  10.014 -3.8800  0.3566 -0.3623
  828MOL0     H 9254   9.010   2.881  10.093 -1.7703 -0.9020  1.0535
  828MOL0     H 9255   9.058   2.942  10.254  0.1068 -1.2113 -0.8365
  828MOL0     H 9256   9.073   3.066   9.982  2.5233  0.7803 -0.6791
  828MOL0     H 9257   9.142   3.142  10.129  0.9116 -1.0214 -1.5859
  828MOL0     H 9258   8.693   3.164  10.075 -1.1373  0.6002  0.4412
  828MOL0     H 9259   8.590   3.341   9.925 -1.1493  1.8621 -1.1655
  828MOL0     H 9260   8.450   3.417   9.623  0.4414  0.0031  1.4442
  828MOL0     H 9261   8.251   3.528   9.496 -0.1357  0.8034 -1.6837
  828MOL0     H 9262   8.062   3.653   9.461 -1.2438  0.3432 -0.5798
  828MOL0     H 9263   8.164   3.684   9.321  0.9998 -1.1770  1.7964
  828MOL0     H 9264   8.050   3.882   9.266  1.7351 -0.2206  0.5304
  828MOL0     H 9265   8.013   3.919   9.432  2.6997 -1.0576  0.9203
  828MOL0     H 9266   7.845   3.738   9.422 -2.9735 -0.0898 -1.3898
  828MOL0     H 9267   7.892   3.695   9.263  1.7661 -0.4546  0.3000
  828MOL0     H 9268   7.684   3.798   9.257 -0.7941  0.2140 -0.3756
  828MOL0     H 9269   7.734   3.954   9.336 -0.8408  1.4287 -2.5321
  828MOL0     H 9270   7.841   3.880   9.071 -0.5999 -0.0273  0.7050
  828MOL0     H 9271   7.876   4.022   9.151  0.4567 -0.2060  0.5286
  828MOL0     H 9272   7.626   4.097   9.161 -2.9587  1.0469 -2.3248
  828MOL0     H 9273   7.576   3.946   9.090 -1.3984  1.2478 -0.1077
  828MOL0     H 9274   7.744   4.157   8.963  1.3220 -1.0200 -0.8732
  828MOL0     H 9275   7.728   3.993   8.898  2.0765 -0.1735  0.7416
  828MOL0     H 9276   7.553   4.200   8.803 -0.9274  2.2807  1.5266
  828MOL0     H 9277   7.477   4.173   8.957 -1.8185 -1.2637 -1.0947
  828MOL0     H 9278   8.397   3.909   9.615  0.8067 -0.7163  1.2893
  828MOL0     H 9279   8.587   3.795   9.742  0.2525 -0.5783 -0.3786
  828MOL0     H 9280   8.994   3.508   9.880 -0.5413  1.7142  0.6687
  828MOL0     H 9281   9.079   3.318  10.020  0.0303 -4.3372 -0.1008
  828MOL0     H 9282  10.179   2.446   9.169 -0.9017 -0.1696  0.7283
  828MOL0     H 9283  10.288   2.361   8.973 -1.3593  1.6214  0.6713
  828MOL0     H 9284  10.737   2.251   8.821  1.1554 -0.1460 -1.6061
  828MOL0     H 9285  10.935   2.133   8.738 -0.6292  1.0257  0.8647
  828MOL0     H 9286  11.032   1.751   8.551 -1.1041  2.4207 -0.9099
  828MOL0     H 9287  10.855   1.739   8.582 -0.8776 -0.7113  1.9748
  828MOL0     H 9288  11.003   1.681   8.828 -2.3134  1.1307  1.2549
  828MOL0     H 9289  10.869   1.602   8.763  1.3782 -2.3658  0.9381
  828MOL0     H 9290  11.159   1.564   8.653  0.7456 -1.5013 -0.6700
  828MOL0     H 9291  11.019   1.501   8.574 -0.2097 -0.2194 -0.1624
  828MOL0     H 9292  10.963   1.346   8.767 -0.3023 -0.4166  1.0202
  828MOL0     H 9293  11.118   1.319   8.704  1.0249  2.2772 -1.9301
  828MOL0     H 9294  11.238   1.380   9.082 -0.5046 -1.9109 -0.1389
  828MOL0     H 9295  10.717   1.759   8.776  1.7608  0.4754 -0.2812
  828MOL0     H 9296  10.557   1.886   8.922  1.4566  2.0214  1.9474
  829MOL0     O 9297   8.508  10.333  11.010  0.1609  0.4567 -0.5276
  829MOL0     C 9298   8.556  10.329  10.896  0.5979  0.2589  0.0303
  829MOL0     O 9299   8.679  10.379  10.860 -0.1795  0.0175 -0.2792
  829MOL0     C 9300   8.776  10.424  10.942 -0.5162  0.2340  0.2484
  829MOL0     C 9301   8.795  10.408  11.082 -0.8418  0.8583 -0.5833
  829MOL0     C 9302   8.914  10.452  11.139  0.8855  0.7361  0.0102
  829MOL0     C 9303   9.021  10.506  11.075  0.4480  1.0825  0.2974
  829MOL0     O 9304   9.136  10.525  11.149  0.2229  0.2575 -0.1339
  829MOL0     C 9305   9.237  10.601  11.089  0.3102 -0.0631  0.7240
  829MOL0     C 9306   9.361  10.573  11.172 -0.2223  0.4148 -0.4092
  829MOL0     C 9307   9.486  10.635  11.117  0.5424  0.4830 -0.2383
  829MOL0     C 9308   9.592  10.627  11.231  0.6398  0.0726 -0.3262
  829MOL0     C 9309   9.730  10.694  11.204  0.2170 -0.1429  0.0316
  829MOL0     C 9310   9.792  10.668  11.073 -0.1145  0.3471 -0.2662
  829MOL0     C 9311   9.925  10.738  11.059 -0.7019 -0.4164 -0.1796
  829MOL0     C 9312   9.993  10.689  10.934 -0.6180  0.0483  0.6002
  829MOL0     N 9313   9.910  10.706  10.814  0.3475 -0.5530 -0.2743
  829MOL0     C 9314   9.870  10.825  10.752 -0.9237  0.6538 -0.1596
  829MOL0     C 9315   9.788  10.779  10.645  0.8624  0.5640 -1.2858
  829MOL0     C 9316   9.714  10.862  10.544 -0.0340 -0.3744  0.0077
  829MOL0     C 9317   9.593  10.919  10.609  0.4553  0.6346  0.2271
  829MOL0     C 9318   9.620  11.069  10.639 -0.2610 -0.1386 -0.0417
  829MOL0     C 9319   9.494  11.155  10.647 -0.2168  0.2070  0.2640
  829MOL0     O 9320   9.434  11.173  10.524 -0.2769  0.9659  0.1417
  829MOL0     C 9321   9.299  11.149  10.511  0.2165  0.5441  0.0474
  829MOL0     C 9322   9.205  11.203  10.603 -0.4338  0.3005 -0.2931
  829MOL0     C 9323   9.067  11.184  10.594  0.0188 -0.0055 -0.0344
  829MOL0     C 9324   9.021  11.117  10.478 -0.0359  0.0541 -0.3441
  829MOL0     C 9325   8.878  11.095  10.461  0.4755  1.1752 -0.7733
  829MOL0     O 9326   8.835  11.082  10.332  0.5093  0.7526 -0.1437
  829MOL0     C 9327   8.707  11.070  10.287  0.1515  0.1766 -0.8313
  829MOL0     C 9328   8.585  11.104  10.361 -0.2467 -0.0242  0.2400
  829MOL0     C 9329   8.461  11.097  10.288 -0.0962 -0.3779 -0.7482
  829MOL0     C 9330   8.446  11.074  10.155 -0.8154 -0.2563  0.3651
  829MOL0     O 9331   8.330  11.064  10.086  0.0219  0.5903 -0.2928
  829MOL0     C 9332   8.221  11.121  10.151  0.4358 -0.6058 -0.3703
  829MOL0     C 9333   8.113  11.101  10.046 -0.8450 -0.2357 -1.1026
  829MOL0     C 9334   7.993  11.190  10.080 -0.4870  0.2091 -0.5514
  829MOL0     C 9335   7.873  11.133  10.009  0.4851  0.3387 -0.3595
  829MOL0     C 9336   7.759  11.239  10.001  0.1478  0.0370  0.6327
  829MOL0     C 9337   7.642  11.193   9.903 -0.4191  0.0104 -0.0860
  829MOL0     C 9338   7.534  11.310   9.886  0.6011  0.1508  1.0626
  829MOL0     C 9339   7.453  11.298   9.750  0.2349  0.6523 -0.0744
  829MOL0    Cl 9340   7.355  11.152   9.777  0.1446  0.2656 -0.3836
  829MOL0     C 9341   8.572  11.049  10.082  0.3764 -0.0734 -1.2435
  829MOL0     C 9342   8.696  11.052  10.150 -0.0702 -0.1345  0.3899
  829MOL0     O 9343   8.806  11.085  10.557  0.3915 -0.5626 -0.6041
  829MOL0     C 9344   9.105  11.074  10.382  1.0804  0.1608  0.2291
  829MOL0     C 9345   9.243  11.082  10.399 -0.0476 -0.1928  0.0429
  829MOL0     N 9346   9.776  10.642  10.650 -0.1393 -0.4335 -0.0266
  829MOL0     N 9347   9.855  10.602  10.747  0.0854 -0.4103 -1.1700
  829MOL0     C 9348   9.002  10.525  10.938 -0.1188 -0.2750  0.7222
  829MOL0     C 9349   8.878  10.483  10.873 -0.2277 -0.4938 -0.6004
  829MOL0     C 9350   8.463  10.295  10.783 -1.2351 -0.3470  0.2651
  829MOL0     C 9351   8.339  10.238  10.806  0.7296  0.8616 -0.2373
  829MOL0     C 9352   8.249  10.204  10.702  0.9219 -0.2373 -0.0002
  829MOL0     C 9353   8.288  10.213  10.567  0.0661 -0.0349  0.5784
  829MOL0     O 9354   8.208  10.181  10.456 -0.0193  0.5450 -0.0298
  829MOL0     C 9355   8.068  10.173  10.483  0.0402 -0.0168  0.1804
  829MOL0     C 9356   7.993  10.144  10.354 -0.3477  0.3989 -0.5946
  829MOL0     C 9357   7.890  10.032  10.360 -0.1170  0.3839 -0.8861
  829MOL0     C 9358   7.741  10.097  10.372  0.1185  0.3467 -0.0492
  829MOL0     C 9359   7.650  10.027  10.450 -0.6400  0.4761 -0.2662
  829MOL0     C 9360   7.567   9.965  10.510  0.1639  0.2363 -0.3421
  829MOL0     C 9361   8.416  10.270  10.551 -0.4586 -0.1539 -0.6691
  829MOL0     C 9362   8.504  10.309  10.650 -0.1464  0.1964  0.1959
  829MOL0     H 9363   8.726  10.359  11.150 -2.3019  1.7978 -1.3378
  829MOL0     H 9364   8.924  10.450  11.247 -1.9617 -1.0126  0.3467
  829MOL0     H 9365   9.218  10.708  11.085 -2.9163 -0.5626 -0.9678
  829MOL0     H 9366   9.253  10.566  10.987 -0.7675  0.8090  0.2396
  829MOL0     H 9367   9.367  10.465  11.187 -3.7172  0.1477 -0.1511
  829MOL0     H 9368   9.345  10.627  11.266  0.8002  0.3131 -0.1647
  829MOL0     H 9369   9.466  10.735  11.076  0.5974 -1.2626 -5.1234
  829MOL0     H 9370   9.527  10.584  11.030  1.0536  0.3508  0.0740
  829MOL0     H 9371   9.557  10.671  11.325  2.7448  0.9085  0.1180
  829MOL0     H 9372   9.598  10.519  11.244 -2.8880 -0.0816  0.9913
  829MOL0     H 9373   9.801  10.649  11.274  3.6510 -0.1713 -3.2032
  829MOL0     H 9374   9.727  10.802  11.224  0.7230 -0.7173  4.1842
  829MOL0     H 9375   9.725  10.703  10.993  1.3542  1.0872 -1.2094
  829MOL0     H 9376   9.805  10.560  11.064  2.5476  0.5477  0.5109
  829MOL0     H 9377   9.910  10.844  11.041  0.2958 -0.4278 -1.2433
  829MOL0     H 9378   9.987  10.718  11.147 -0.7430  0.4933  0.0575
  829MOL0     H 9379  10.021  10.584  10.944 -1.4816 -0.3222 -0.5919
  829MOL0     H 9380  10.081  10.751  10.914 -0.4520 -0.3487  0.0960
  829MOL0     H 9381   9.886  10.927  10.782 -0.0765  0.2269  0.8783
  829MOL0     H 9382   9.691  10.788  10.467  0.3116  1.3628 -1.8402
  829MOL0     H 9383   9.777  10.938  10.496  0.0109 -0.2723  0.2294
  829MOL0     H 9384   9.570  10.877  10.707  0.9347 -1.4997 -0.5315
  829MOL0     H 9385   9.505  10.905  10.545 -0.7154  2.4340  1.3244
  829MOL0     H 9386   9.673  11.071  10.734  2.7177 -4.5282 -1.3019
  829MOL0     H 9387   9.697  11.114  10.575 -0.2401  0.1344  0.1739
  829MOL0     H 9388   9.526  11.247  10.698  2.4001 -0.5395  0.1316
  829MOL0     H 9389   9.422  11.114  10.718 -1.3761  0.0480 -0.9645
  829MOL0     H 9390   9.246  11.251  10.692 -1.2635  1.8633 -0.7126
  829MOL0     H 9391   9.002  11.226  10.670  0.0701 -0.8240  0.4779
  829MOL0     H 9392   8.595  11.140  10.463 -2.0150 -0.4058  0.5722
  829MOL0     H 9393   8.374  11.124  10.346 -0.2192  1.1101 -1.5740
  829MOL0     H 9394   8.251  11.225  10.159  2.1602 -1.1124  0.3300
  829MOL0     H 9395   8.193  11.076  10.247 -0.5187  1.0659  0.1679
  829MOL0     H 9396   8.094  10.993  10.040  2.4231 -1.0958  1.1368
  829MOL0     H 9397   8.139  11.125   9.943  0.6074 -2.1188 -1.2220
  829MOL0     H 9398   8.017  11.288  10.037 -2.4686  0.0496 -2.2036
  829MOL0     H 9399   7.973  11.199  10.187  0.3325 -2.1676 -0.1361
  829MOL0     H 9400   7.908  11.122   9.906  3.9753  0.8412  0.6376
  829MOL0     H 9401   7.837  11.038  10.050  1.0788  0.1282 -0.3126
  829MOL0     H 9402   7.799  11.334   9.963 -0.6675  0.7928  1.6064
  829MOL0     H 9403   7.717  11.260  10.099 -1.2315  3.2115 -0.4975
  829MOL0     H 9404   7.583  11.111   9.944 -0.6634 -0.7077 -1.7777
  829MOL0     H 9405   7.692  11.158   9.811 -1.7376  1.3385 -1.3553
  829MOL0     H 9406   7.467  11.321   9.972  0.9050  0.1467  1.3007
  829MOL0     H 9407   7.584  11.407   9.881  2.7268 -0.7391  3.2723
  829MOL0     H 9408   7.526  11.293   9.669  0.4925 -0.4402  0.2032
  829MOL0     H 9409   7.379  11.376   9.733 -1.5535 -0.5159  1.8203
  829MOL0     H 9410   8.576  11.020   9.978  0.2244 -0.7507 -1.0668
  829MOL0     H 9411   8.788  11.030  10.098 -0.3464 -0.6180  0.1020
  829MOL0     H 9412   9.066  11.013  10.301  3.2351 -1.0690  0.0482
  829MOL0     H 9413   9.311  11.035  10.328  1.2547  0.8380  0.5571
  829MOL0     H 9414   9.083  10.567  10.880 -0.5506 -0.5428 -0.0978
  829MOL0     H 9415   8.868  10.506  10.768  0.5345 -0.5444 -0.6843
  829MOL0     H 9416   8.298  10.234  10.906 -2.8573  2.3203 -1.5030
  829MOL0     H 9417   8.158  10.152  10.731  0.3866  0.3873 -0.5024
  829MOL0     H 9418   8.018  10.258  10.529 -1.3073 -0.8794  0.3392
  829MOL0     H 9419   8.058  10.086  10.548 -1.2199 -0.5897 -0.7424
  829MOL0     H 9420   7.942  10.235  10.320 -2.4030  0.0269  1.2554
  829MOL0     H 9421   8.074  10.112  10.287  0.2703 -0.0373  0.3424
  829MOL0     H 9422   7.909   9.961  10.442  1.2585 -0.1906 -1.6807
  829MOL0     H 9423   7.890   9.983  10.262  0.2311 -4.3397  1.1872
  829MOL0     H 9424   7.742  10.201  10.408 -0.2611  0.6511 -0.8832
  829MOL0     H 9425   7.688  10.103  10.276 -1.1797  1.4346  0.6921
  829MOL0     H 9426   7.476   9.914  10.533  0.5595 -0.1329  0.4430
  829MOL0     H 9427   8.452  10.288  10.450 -1.3267 -2.2946 -1.4005
  829MOL0     H 9428   8.599  10.352  10.620  0.6381 -0.0557  2.1928
  830MOL0     O 9429   5.511   3.421  10.257 -0.0180 -0.0351 -0.3661
  830MOL0     C 9430   5.580   3.521  10.220  0.7389  0.4960  0.1254
  830MOL0     O 9431   5.551   3.647  10.240 -0.0530  0.9558  0.8115
  830MOL0     C 9432   5.428   3.676  10.299 -0.0380  0.2641 -0.4109
  830MOL0     C 9433   5.303   3.621  10.271  0.4015 -0.0985 -0.5408
  830MOL0     C 9434   5.187   3.657  10.342  0.4401  0.0317  0.1159
  830MOL0     C 9435   5.195   3.754  10.438 -0.2200 -0.2588  0.4276
  830MOL0     O 9436   5.092   3.806  10.510 -0.5172  0.0084  0.4298
  830MOL0     C 9437   4.969   3.738  10.499  0.3883  0.0718 -0.3602
  830MOL0     C 9438   4.856   3.794  10.582 -0.2729  0.1368  0.1822
  830MOL0     C 9439   4.727   3.719  10.559 -0.1738  0.2296  0.3292
  830MOL0     C 9440   4.622   3.778  10.646  0.8483  0.8410 -0.7581
  830MOL0     C 9441   4.515   3.677  10.664 -0.1885  0.5899 -0.2266
  830MOL0     C 9442   4.387   3.743  10.715 -0.0887  0.0957 -0.0463
  830MOL0     C 9443   4.263   3.649  10.708 -0.9035  0.7295  0.3898
  830MOL0     C 9444   4.125   3.714  10.710  0.6793 -0.0116  0.0462
  830MOL0     N 9445   4.018   3.611  10.721 -0.5273  0.0689  0.5795
  830MOL0     C 9446   3.972   3.544  10.610 -0.3460  0.5332  0.1685
  830MOL0     C 9447   3.875   3.466  10.659 -0.0636  0.7805  0.2429
  830MOL0     C 9448   3.802   3.371  10.576 -0.1116  0.8493 -0.3441
  830MOL0     C 9449   3.709   3.446  10.485 -0.4035  0.0126 -0.1276
  830MOL0     C 9450   3.622   3.336  10.409 -0.3835  0.0034 -1.1758
  830MOL0     C 9451   3.520   3.408  10.323 -0.2909 -0.7103 -0.6055
  830MOL0     O 9452   3.465   3.308  10.243 -0.1371  0.6149 -0.6108
  830MOL0     C 9453   3.335   3.323  10.192 -0.2982 -0.9928  0.1241
  830MOL0     C 9454   3.245   3.220  10.209 -0.2438 -0.6863  0.8633
  830MOL0     C 9455   3.117   3.228  10.161  0.1901 -0.1028  0.4511
  830MOL0     C 9456   3.067   3.346  10.105 -0.1703  0.2484  0.7003
  830MOL0     C 9457   2.922   3.348  10.056 -0.0804 -0.0167 -0.8839
  830MOL0     O 9458   2.859   3.224  10.068 -0.1293  0.6509 -0.0752
  830MOL0     C 9459   2.724   3.202  10.060 -0.7972  0.4926 -0.1452
  830MOL0     C 9460   2.690   3.071  10.043 -0.2268  0.0381  0.3629
  830MOL0     C 9461   2.556   3.031  10.044 -0.0851  0.9516  0.0219
  830MOL0     C 9462   2.453   3.128  10.050  0.6710 -0.1267 -0.7456
  830MOL0     O 9463   2.321   3.097  10.046  0.1186  0.6841  0.2856
  830MOL0     C 9464   2.256   3.135  10.176 -0.1587  0.5353 -0.2250
  830MOL0     C 9465   2.102   3.122  10.157 -0.3034 -0.1792 -0.6108
  830MOL0     C 9466   2.036   3.126  10.297 -0.3120  0.7921  0.5594
  830MOL0     C 9467   1.885   3.132  10.290 -0.0486  0.0082  0.3775
  830MOL0     C 9468   1.826   3.118  10.428 -0.1406  0.2444  0.2297
  830MOL0     C 9469   1.673   3.109  10.427 -0.3154  0.2828 -0.4527
  830MOL0     C 9470   1.627   2.968  10.399 -0.3600 -0.1067  0.0976
  830MOL0     C 9471   1.475   2.970  10.409  0.4918 -0.6632  0.2183
  830MOL0    Cl 9472   1.418   2.971  10.581  0.4448  0.3834  0.0009
  830MOL0     C 9473   2.488   3.260  10.057 -0.2462 -0.0712 -0.4366
  830MOL0     C 9474   2.627   3.301  10.064  0.3252  0.0178 -0.0599
  830MOL0     O 9475   2.871   3.454  10.015 -0.5313  0.2391  0.0572
  830MOL0     C 9476   3.160   3.451  10.086 -0.1540  0.1369 -0.7823
  830MOL0     C 9477   3.293   3.441  10.133  0.1205 -0.3226  0.0894
  830MOL0     N 9478   3.868   3.486  10.792 -0.3502 -0.1709 -0.3414
  830MOL0     N 9479   3.966   3.563  10.837  0.8825  0.3814  1.0578
  830MOL0     C 9480   5.319   3.810  10.469 -0.0698  0.5625  0.7072
  830MOL0     C 9481   5.432   3.765  10.408 -0.3291  0.2425 -0.9013
  830MOL0     C 9482   5.705   3.497  10.155 -0.2714  0.3649  0.7699
  830MOL0     C 9483   5.802   3.599  10.141 -0.7111  0.6437  0.1395
  830MOL0     C 9484   5.920   3.573  10.065  0.5522 -0.4309 -0.2426
  830MOL0     C 9485   5.949   3.451  10.012  0.3057 -0.1972 -0.2197
  830MOL0     O 9486   6.075   3.420   9.958 -0.2336  0.1377 -0.1934
  830MOL0     C 9487   6.086   3.314   9.857  1.0410 -0.2028 -0.1912
  830MOL0     C 9488   6.207   3.343   9.765 -0.0025 -0.6071  0.4405
  830MOL0     C 9489   6.206   3.253   9.640 -1.3236  0.0455 -0.5058
  830MOL0     C 9490   6.087   3.255   9.542 -0.8416  0.3108  0.1572
  830MOL0     C 9491   6.125   3.202   9.409  0.0597  0.0336 -0.2750
  830MOL0     C 9492   6.153   3.159   9.304 -0.3181  0.6108 -0.1835
  830MOL0     C 9493   5.853   3.348  10.022 -0.5807  0.0999  0.0163
  830MOL0     C 9494   5.731   3.369  10.095  0.4480 -0.0438  0.3733
  830MOL0     H 9495   5.296   3.554  10.185  0.8653 -1.3341  0.3630
  830MOL0     H 9496   5.089   3.624  10.309  0.5106 -0.1798  0.1168
  830MOL0     H 9497   4.987   3.633  10.525  0.5293 -0.0179 -0.8008
  830MOL0     H 9498   4.934   3.734  10.395 -0.7521  1.0833 -0.0281
  830MOL0     H 9499   4.863   3.903  10.573  1.3490 -0.0287 -0.9678
  830MOL0     H 9500   4.885   3.774  10.686  0.9395  0.1618 -0.1326
  830MOL0     H 9501   4.753   3.614  10.575  0.8537  0.2525 -0.9812
  830MOL0     H 9502   4.699   3.720  10.453  1.1794  0.9215 -0.0551
  830MOL0     H 9503   4.670   3.812  10.738  1.0908  0.8264 -0.8760
  830MOL0     H 9504   4.582   3.866  10.595 -0.9224  0.5052  0.0025
  830MOL0     H 9505   4.538   3.597  10.736 -1.8546 -0.4420 -0.7788
  830MOL0     H 9506   4.505   3.628  10.567  1.7781  0.5228 -0.4380
  830MOL0     H 9507   4.373   3.826  10.645 -1.2505  1.1826  1.4124
  830MOL0     H 9508   4.403   3.787  10.813  0.2891  1.4171 -0.6792
  830MOL0     H 9509   4.281   3.586  10.620  2.3197 -1.7982  2.5759
  830MOL0     H 9510   4.270   3.582  10.794  2.6332 -0.7621 -0.8464
  830MOL0     H 9511   4.118   3.769  10.615  1.4804 -2.2579 -1.3976
  830MOL0     H 9512   4.121   3.791  10.787 -1.6283 -0.7007  0.7185
  830MOL0     H 9513   3.994   3.549  10.504 -0.7461 -0.5843  0.0230
  830MOL0     H 9514   3.750   3.297  10.637 -1.3677 -0.9206 -3.3719
  830MOL0     H 9515   3.874   3.310  10.521 -1.0010 -0.3552 -0.2130
  830MOL0     H 9516   3.766   3.503  10.411  1.1328 -3.2509 -1.6835
  830MOL0     H 9517   3.640   3.513  10.536 -0.2805  1.2777 -1.5534
  830MOL0     H 9518   3.699   3.280  10.355 -0.5714 -0.6351 -0.7895
  830MOL0     H 9519   3.569   3.272  10.480 -0.7279  0.9436 -0.5628
  830MOL0     H 9520   3.564   3.485  10.259  2.9682 -2.3571 -0.5189
  830MOL0     H 9521   3.451   3.460  10.391  1.7265 -0.0121  1.0328
  830MOL0     H 9522   3.274   3.123  10.248  2.9895 -0.6532 -1.1042
  830MOL0     H 9523   3.056   3.138  10.157 -1.1383  0.8071 -1.4060
  830MOL0     H 9524   2.772   3.001  10.054 -0.3740 -0.0276  1.0712
  830MOL0     H 9525   2.527   2.927  10.046  0.6423  0.7531  0.8020
  830MOL0     H 9526   2.278   3.241  10.195  1.0269  0.0023  1.5984
  830MOL0     H 9527   2.301   3.072  10.253 -1.5396 -1.6358 -1.0907
  830MOL0     H 9528   2.074   3.030  10.105 -0.6829  0.0917 -0.8926
  830MOL0     H 9529   2.070   3.213  10.105 -2.5035 -0.4421  0.2030
  830MOL0     H 9530   2.068   3.217  10.347  0.2238  1.1305 -0.3822
  830MOL0     H 9531   2.068   3.035  10.350  1.0900  1.0373  0.1549
  830MOL0     H 9532   1.862   3.232  10.253 -0.7674  0.5371  2.1578
  830MOL0     H 9533   1.850   3.053  10.223 -1.3092 -0.6273  1.7269
  830MOL0     H 9534   1.863   3.201  10.490 -0.8652 -1.1423  2.6523
  830MOL0     H 9535   1.861   3.029  10.480  0.3139  0.0929 -0.3296
  830MOL0     H 9536   1.648   3.174  10.343  1.1045 -0.8266 -1.7924
  830MOL0     H 9537   1.630   3.150  10.519 -0.2021 -0.4251 -0.0815
  830MOL0     H 9538   1.662   2.942  10.299  1.1542  0.9986  0.3032
  830MOL0     H 9539   1.670   2.887  10.458  1.3566 -0.3936 -1.4458
  830MOL0     H 9540   1.450   2.872  10.369  2.9490 -1.0308 -0.5528
  830MOL0     H 9541   1.418   3.047  10.355  3.6288  2.3820  0.8526
  830MOL0     H 9542   2.412   3.337  10.054  1.9106  2.2456  0.5381
  830MOL0     H 9543   2.653   3.405  10.082  2.0668 -0.5556  0.9647
  830MOL0     H 9544   3.130   3.540  10.033  1.0627  2.0457  1.5257
  830MOL0     H 9545   3.365   3.521  10.118  0.0191  0.3771  2.8738
  830MOL0     H 9546   5.311   3.879  10.552 -1.5395  1.3465 -0.0526
  830MOL0     H 9547   5.534   3.793  10.432 -1.0767  2.2255  0.1746
  830MOL0     H 9548   5.789   3.702  10.174 -1.0126  0.2231  1.3731
  830MOL0     H 9549   5.992   3.654  10.056 -2.7696  2.7762 -0.2529
  830MOL0     H 9550   5.994   3.326   9.799  1.3378  1.7035 -0.3536
  830MOL0     H 9551   6.090   3.213   9.899 -1.1845 -0.7520 -1.1625
  830MOL0     H 9552   6.214   3.445   9.725  0.2252 -1.6285 -2.3129
  830MOL0     H 9553   6.297   3.335   9.827  1.0469 -0.4600 -1.0304
  830MOL0     H 9554   6.221   3.151   9.677  0.8475  0.4880 -0.0217
  830MOL0     H 9555   6.295   3.268   9.578 -1.9099  1.2225 -1.0892
  830MOL0     H 9556   5.997   3.204   9.578 -0.2480 -1.2890 -0.5293
  830MOL0     H 9557   6.051   3.357   9.526 -1.5803 -0.0757 -0.8029
  830MOL0     H 9558   6.172   3.119   9.206  1.0802  0.2906  0.1946
  830MOL0     H 9559   5.876   3.250   9.980  3.3087  0.6030  0.5579
  830MOL0     H 9560   5.663   3.284  10.098 -0.1961  0.4376 -0.1921
  831MOL0     O 9561   9.224   7.262   2.805  0.1522  0.0587  0.2302
  831MOL0     C 9562   9.311   7.278   2.716 -0.4593  0.3342  0.3611
  831MOL0     O 9563   9.432   7.331   2.740 -0.2484 -0.2281  0.0260
  831MOL0     C 9564   9.461   7.427   2.839 -0.2082 -0.0887 -0.0039
  831MOL0     C 9565   9.369   7.520   2.895 -0.1639 -0.2711  0.0385
  831MOL0     C 9566   9.411   7.608   2.992 -0.1350  0.4963 -0.4437
  831MOL0     C 9567   9.542   7.604   3.039 -0.3012 -0.1697  0.3786
  831MOL0     O 9568   9.590   7.671   3.144  0.3028 -0.9865 -0.1403
  831MOL0     C 9569   9.510   7.762   3.226 -0.8721  0.4305  0.3745
  831MOL0     C 9570   9.609   7.806   3.331  0.8930 -0.3036 -0.3021
  831MOL0     C 9571   9.544   7.927   3.410  0.2100  0.6387  0.1593
  831MOL0     C 9572   9.634   7.982   3.518 -0.1110  1.1370 -0.9428
  831MOL0     C 9573   9.609   8.128   3.564 -0.1158  0.7281  0.2785
  831MOL0     C 9574   9.464   8.141   3.630 -0.1147 -0.3233  0.2708
  831MOL0     C 9575   9.413   8.290   3.671 -0.0761  0.2099  0.3885
  831MOL0     C 9576   9.429   8.395   3.565 -0.7937  0.1584  0.2616
  831MOL0     N 9577   9.381   8.527   3.604  0.3536  0.5787 -0.1246
  831MOL0     C 9578   9.247   8.567   3.632  0.1310 -0.1442 -0.1999
  831MOL0     C 9579   9.257   8.692   3.688  0.4325 -0.6036  0.0376
  831MOL0     C 9580   9.153   8.778   3.742 -0.1024 -0.6160  1.0699
  831MOL0     C 9581   9.053   8.839   3.647  0.1461 -0.2589 -0.8852
  831MOL0     C 9582   8.914   8.774   3.661 -0.5326  0.4012  0.0176
  831MOL0     C 9583   8.799   8.833   3.573  0.9203 -0.4424  0.8069
  831MOL0     O 9584   8.803   8.748   3.458 -0.1443 -0.1449  0.7226
  831MOL0     C 9585   8.710   8.759   3.355 -0.4103  0.2352  0.0369
  831MOL0     C 9586   8.685   8.646   3.278 -0.9269  0.2543 -0.6166
  831MOL0     C 9587   8.591   8.654   3.174  0.6251  0.7142  0.1529
  831MOL0     C 9588   8.524   8.767   3.142 -0.4554  0.5141  0.4245
  831MOL0     C 9589   8.443   8.778   3.023 -0.0835 -0.2017  0.4586
  831MOL0     O 9590   8.370   8.908   3.013  0.5556 -0.3593  0.1089
  831MOL0     C 9591   8.315   8.936   2.890 -0.4151 -0.6176 -0.1682
  831MOL0     C 9592   8.389   8.985   2.781 -0.5152  0.4129 -0.6963
  831MOL0     C 9593   8.323   9.028   2.667  0.1371  0.3617  0.6339
  831MOL0     C 9594   8.184   9.016   2.660  0.8282  0.4043  0.2767
  831MOL0     O 9595   8.131   9.050   2.532  0.3575  0.2747  0.3089
  831MOL0     C 9596   8.012   9.127   2.534  0.5575  0.6540  0.2429
  831MOL0     C 9597   7.896   9.036   2.487 -0.0633  0.1245  0.3860
  831MOL0     C 9598   7.752   9.099   2.509 -0.4519 -0.4717  0.0714
  831MOL0     C 9599   7.738   9.216   2.417  0.5868  0.0797  1.0576
  831MOL0     C 9600   7.597   9.242   2.352  0.1726  0.0800 -0.2922
  831MOL0     C 9601   7.497   9.308   2.452  0.1153  0.0273 -0.1695
  831MOL0     C 9602   7.358   9.309   2.392  0.5031  0.4175  0.6543
  831MOL0     C 9603   7.277   9.426   2.442 -0.5077  0.0488 -0.0432
  831MOL0    Cl 9604   7.113   9.404   2.388  0.0351 -0.6712  0.2666
  831MOL0     C 9605   8.107   8.958   2.766  0.0218  0.4863 -0.3286
  831MOL0     C 9606   8.177   8.922   2.884 -0.4553  0.1134 -0.6044
  831MOL0     O 9607   8.464   8.692   2.931  0.1504 -0.1298 -0.6750
  831MOL0     C 9608   8.541   8.877   3.227  0.2830  0.4470  0.9886
  831MOL0     C 9609   8.631   8.870   3.330 -0.3209 -0.8313  0.3444
  831MOL0     N 9610   9.388   8.733   3.684  0.3769  0.1326 -0.5779
  831MOL0     N 9611   9.456   8.634   3.634 -0.3685 -0.2153 -0.5904
  831MOL0     C 9612   9.639   7.517   2.983 -0.0552 -0.6203 -1.2074
  831MOL0     C 9613   9.596   7.429   2.888  0.0721 -0.0677 -0.0469
  831MOL0     C 9614   9.282   7.227   2.579  0.3115 -0.1441 -0.7900
  831MOL0     C 9615   9.386   7.224   2.484  0.1175 -0.3570  1.0172
  831MOL0     C 9616   9.368   7.162   2.359 -0.0010  0.4054  0.2891
  831MOL0     C 9617   9.240   7.102   2.327 -0.6547 -0.2888  0.0274
  831MOL0     O 9618   9.231   7.040   2.208  0.1135  0.5800  0.1781
  831MOL0     C 9619   9.117   6.968   2.168 -0.3753 -0.4824  0.5009
  831MOL0     C 9620   9.117   6.939   2.021  0.1102  0.9601 -0.5640
  831MOL0     C 9621   9.228   6.830   1.996 -0.4154 -0.2402 -0.5106
  831MOL0     C 9622   9.273   6.823   1.857  0.2173  0.7982  0.5453
  831MOL0     C 9623   9.158   6.785   1.768 -0.8477  0.0049 -0.0950
  831MOL0     C 9624   9.061   6.762   1.704  0.2176 -0.0285  0.9195
  831MOL0     C 9625   9.141   7.094   2.429 -0.5762 -0.4499 -0.0283
  831MOL0     C 9626   9.163   7.169   2.545  0.6558  0.7062 -0.2372
  831MOL0     H 9627   9.264   7.518   2.867  0.2860  2.3791 -2.3392
  831MOL0     H 9628   9.345   7.684   3.031 -1.0626  0.0041 -0.9998
  831MOL0     H 9629   9.431   7.699   3.269 -1.3389  0.8248  0.1132
  831MOL0     H 9630   9.477   7.854   3.177 -1.8090  0.0567  0.2787
  831MOL0     H 9631   9.705   7.836   3.289  1.2240  1.3327  1.5181
  831MOL0     H 9632   9.639   7.723   3.394 -2.7828 -1.6773 -0.0846
  831MOL0     H 9633   9.460   7.894   3.471 -0.0265  0.9533  0.0063
  831MOL0     H 9634   9.515   8.006   3.340 -1.7996 -0.8702 -0.8271
  831MOL0     H 9635   9.632   7.913   3.602  0.0040  0.6443 -1.3425
  831MOL0     H 9636   9.734   7.965   3.477 -0.0006 -1.7131  0.2697
  831MOL0     H 9637   9.592   8.190   3.476 -0.9427 -0.5875 -0.5335
  831MOL0     H 9638   9.698   8.163   3.617 -0.2167  0.2502  0.7825
  831MOL0     H 9639   9.475   8.080   3.720  0.2243 -1.4351 -0.5001
  831MOL0     H 9640   9.398   8.089   3.560  0.5666 -0.2866 -0.4199
  831MOL0     H 9641   9.308   8.281   3.699 -0.5643 -0.7894 -1.5589
  831MOL0     H 9642   9.461   8.317   3.766 -1.5688 -0.2375  1.2981
  831MOL0     H 9643   9.381   8.368   3.471  1.0721  1.6620 -1.2196
  831MOL0     H 9644   9.534   8.412   3.536 -0.8741  0.6847  0.2665
  831MOL0     H 9645   9.159   8.511   3.604 -0.3972  2.1991 -4.1236
  831MOL0     H 9646   9.198   8.868   3.784 -2.4081  0.6442  1.0264
  831MOL0     H 9647   9.107   8.728   3.828  1.4516 -2.0727  1.1007
  831MOL0     H 9648   9.088   8.832   3.543 -0.3491 -1.5526 -0.9903
  831MOL0     H 9649   9.034   8.945   3.665  0.6769 -0.1955 -0.6758
  831MOL0     H 9650   8.929   8.667   3.642  3.1052  0.8839 -0.7002
  831MOL0     H 9651   8.893   8.781   3.768 -1.8945  1.7378 -0.3091
  831MOL0     H 9652   8.824   8.936   3.546 -1.6917 -0.3473 -1.6633
  831MOL0     H 9653   8.705   8.826   3.630 -0.5088 -0.3457 -1.4249
  831MOL0     H 9654   8.741   8.557   3.305 -0.9461  0.4762  0.1870
  831MOL0     H 9655   8.575   8.568   3.109  1.8518  0.0878  0.6546
  831MOL0     H 9656   8.497   9.001   2.787 -0.1056 -1.4829 -2.0864
  831MOL0     H 9657   8.384   9.068   2.588  0.2240 -1.4935 -0.3074
  831MOL0     H 9658   8.007   9.210   2.463 -1.2572 -0.3571 -0.9046
  831MOL0     H 9659   7.979   9.167   2.631 -1.0117 -0.0634  0.0377
  831MOL0     H 9660   7.903   8.938   2.536  2.6878 -0.9474 -1.8669
  831MOL0     H 9661   7.919   9.007   2.384  0.7515 -1.9278  1.0752
  831MOL0     H 9662   7.726   9.130   2.611 -1.3031 -0.5448 -0.1126
  831MOL0     H 9663   7.681   9.016   2.501  1.0711 -1.8648  0.6242
  831MOL0     H 9664   7.778   9.307   2.463 -1.4069  1.0747  0.9543
  831MOL0     H 9665   7.801   9.189   2.332  0.8788 -3.3697  2.2038
  831MOL0     H 9666   7.560   9.140   2.337 -0.2620  0.4452 -1.9660
  831MOL0     H 9667   7.606   9.294   2.256  2.2008  0.1621 -0.0966
  831MOL0     H 9668   7.530   9.412   2.457 -3.0072  1.1042  0.3814
  831MOL0     H 9669   7.498   9.265   2.553  0.8797 -1.1396 -0.6578
  831MOL0     H 9670   7.365   9.324   2.284 -3.5604 -0.1777  0.1743
  831MOL0     H 9671   7.308   9.215   2.415  3.1619 -0.4830  3.5507
  831MOL0     H 9672   7.329   9.520   2.420  1.4356 -1.5353 -2.8513
  831MOL0     H 9673   7.269   9.421   2.550 -1.4753  1.4472 -0.0098
  831MOL0     H 9674   8.005   8.929   2.742 -0.1652  2.6536 -2.6657
  831MOL0     H 9675   8.120   8.892   2.971 -0.9791  0.4207 -0.8366
  831MOL0     H 9676   8.483   8.968   3.222 -0.7599 -0.2392 -0.1264
  831MOL0     H 9677   8.639   8.954   3.398  0.2401  0.7315 -1.5712
  831MOL0     H 9678   9.732   7.506   3.038 -0.6827  1.9971  0.5425
  831MOL0     H 9679   9.672   7.359   2.854 -1.0368 -2.4927  2.0826
  831MOL0     H 9680   9.480   7.274   2.507  1.4270 -0.7349 -2.7400
  831MOL0     H 9681   9.449   7.158   2.287 -0.5303 -0.6298 -0.2747
  831MOL0     H 9682   9.028   7.030   2.179  0.9100  1.5603 -0.1830
  831MOL0     H 9683   9.107   6.873   2.222 -0.1763 -0.6293  0.2813
  831MOL0     H 9684   9.019   6.904   1.986 -0.2141  2.0005 -0.7112
  831MOL0     H 9685   9.129   7.031   1.963  1.1073  1.1333 -0.0886
  831MOL0     H 9686   9.189   6.734   2.029  1.2097 -0.6900  0.1791
  831MOL0     H 9687   9.321   6.844   2.052  0.5622 -1.1744 -1.8460
  831MOL0     H 9688   9.318   6.918   1.825  2.5968 -0.8647 -1.5267
  831MOL0     H 9689   9.347   6.743   1.849 -0.2575  0.4030  0.0373
  831MOL0     H 9690   8.965   6.740   1.661 -0.8317  6.1725 -1.0063
  831MOL0     H 9691   9.047   7.038   2.426 -0.5475 -0.4554 -1.6930
  831MOL0     H 9692   9.077   7.184   2.610 -0.3919  0.1264 -1.4237
  832MOL0     O 9693   3.041   8.722   1.157  0.3368 -0.0293  0.1602
  832MOL0     C 9694   2.996   8.797   1.068  0.0558 -0.2509 -0.3251
  832MOL0     O 9695   2.867   8.810   1.036  0.5347 -0.6138 -0.3328
  832MOL0     C 9696   2.767   8.710   1.063 -1.0811 -0.5019  0.0991
  832MOL0     C 9697   2.634   8.754   1.070 -0.2115  0.2449  0.0214
  832MOL0     C 9698   2.526   8.682   1.121 -0.1802  0.4432 -0.1602
  832MOL0     C 9699   2.553   8.548   1.157  0.0870 -0.1996 -0.6452
  832MOL0     O 9700   2.456   8.462   1.202 -0.0132 -0.1306 -0.3344
  832MOL0     C 9701   2.316   8.497   1.210  0.1736  0.5090  1.3155
  832MOL0     C 9702   2.224   8.367   1.239  0.0075  1.2176 -0.3563
  832MOL0     C 9703   2.090   8.413   1.294  0.1375  0.3166  0.6271
  832MOL0     C 9704   2.007   8.290   1.334 -0.3234  0.6410 -0.5845
  832MOL0     C 9705   1.882   8.310   1.421  0.4835  0.4141 -0.1407
  832MOL0     C 9706   1.835   8.172   1.484  0.1914  0.0440 -0.0926
  832MOL0     C 9707   1.727   8.186   1.595  0.2899 -0.2810 -0.5161
  832MOL0     C 9708   1.604   8.268   1.555  0.9065 -0.1807 -0.0811
  832MOL0     N 9709   1.528   8.190   1.455 -0.2128 -0.1330  0.1763
  832MOL0     C 9710   1.540   8.221   1.321 -0.0810  0.4459 -0.3150
  832MOL0     C 9711   1.421   8.172   1.274  0.1930  0.0061 -0.0991
  832MOL0     C 9712   1.375   8.180   1.127 -0.0316  0.9368  0.2237
  832MOL0     C 9713   1.262   8.079   1.100  0.4905  0.3825  0.0923
  832MOL0     C 9714   1.193   8.115   0.959  0.6864  0.0878 -0.1725
  832MOL0     C 9715   1.079   8.019   0.940  0.5936 -0.7199  1.4290
  832MOL0     O 9716   1.000   8.074   0.829 -0.5454  0.5923 -0.5269
  832MOL0     C 9717   0.888   8.006   0.804 -0.7043 -0.4885 -0.6905
  832MOL0     C 9718   0.774   8.027   0.880  0.2341 -0.3661  0.0913
  832MOL0     C 9719   0.670   7.933   0.876  0.0138 -0.9609  0.1163
  832MOL0     C 9720   0.664   7.835   0.781  0.3542  0.0400  0.7563
  832MOL0     C 9721   0.523   7.752   0.769  0.4582 -0.6772 -1.0171
  832MOL0     O 9722   0.412   7.803   0.831  0.1511 -0.1905 -0.6043
  832MOL0     C 9723   0.290   7.739   0.834  0.5604  0.5643 -0.2514
  832MOL0     C 9724   0.236   7.711   0.958 -0.9561  0.6495 -0.4706
  832MOL0     C 9725   0.113   7.656   0.982  0.2278 -0.3349  0.2181
  832MOL0     C 9726   0.037   7.615   0.872 -0.5244  0.3408  0.2050
  832MOL0     O 9727  -0.090   7.560   0.893 -0.3094 -0.4046  0.9818
  832MOL0     C 9728  -0.169   7.508   0.782  0.1054 -0.2354 -0.5351
  832MOL0     C 9729  -0.310   7.475   0.838 -0.0451 -0.1015  0.3337
  832MOL0     C 9730  -0.411   7.602   0.845 -0.6326  0.1306 -0.7398
  832MOL0     C 9731  -0.552   7.570   0.898  0.5762  0.3354 -0.3137
  832MOL0     C 9732  -0.633   7.694   0.856  0.2539 -0.4237  1.4732
  832MOL0     C 9733  -0.781   7.658   0.859 -0.1818 -0.0126 -0.6509
  832MOL0     C 9734  -0.876   7.773   0.850 -0.2514 -0.2955 -0.4968
  832MOL0     C 9735  -1.005   7.715   0.791  0.3596  0.3109 -0.8477
  832MOL0    Cl 9736  -1.127   7.844   0.769  0.2410  0.0810  0.5139
  832MOL0     C 9737   0.087   7.631   0.743  0.1330  0.3893 -0.1453
  832MOL0     C 9738   0.208   7.698   0.723 -0.4356  0.6871  1.0483
  832MOL0     O 9739   0.515   7.654   0.701 -0.7591  0.1811  0.4753
  832MOL0     C 9740   0.784   7.812   0.707 -0.0790 -0.5361 -0.0426
  832MOL0     C 9741   0.895   7.899   0.718 -0.8349 -0.8525 -0.0545
  832MOL0     N 9742   1.347   8.107   1.370 -0.4567 -0.6925 -0.3753
  832MOL0     N 9743   1.413   8.127   1.489  0.4324 -0.1210 -0.2914
  832MOL0     C 9744   2.679   8.501   1.142  0.2965  0.5226 -0.3694
  832MOL0     C 9745   2.788   8.582   1.102  0.6349 -0.1162  0.4031
  832MOL0     C 9746   3.093   8.875   0.990 -0.2672  0.6549 -0.3986
  832MOL0     C 9747   3.220   8.902   1.041 -0.0838 -0.2896 -0.6814
  832MOL0     C 9748   3.310   8.975   0.968 -0.2877  0.7775 -0.1095
  832MOL0     C 9749   3.287   9.031   0.846 -0.1262  0.2057 -0.4624
  832MOL0     O 9750   3.380   9.106   0.790 -0.1223 -0.3786 -0.5139
  832MOL0     C 9751   3.365   9.157   0.657  0.0578  0.2589 -0.3060
  832MOL0     C 9752   3.494   9.212   0.588 -0.0765  0.0922 -0.1468
  832MOL0     C 9753   3.590   9.103   0.551 -0.7164  0.5154  0.3258
  832MOL0     C 9754   3.742   9.144   0.539 -0.1596  0.1043 -0.2608
  832MOL0     C 9755   3.757   9.223   0.419 -0.0115 -0.3335  0.1150
  832MOL0     C 9756   3.778   9.274   0.315  0.1506  0.4233  0.1844
  832MOL0     C 9757   3.158   9.011   0.788  0.3533 -0.2779 -0.9824
  832MOL0     C 9758   3.059   8.932   0.866  0.1361 -0.1650  0.2645
  832MOL0     H 9759   2.614   8.850   1.023 -1.6015  0.3774  0.8289
  832MOL0     H 9760   2.435   8.740   1.131  0.2552  0.8549  2.0040
  832MOL0     H 9761   2.296   8.531   1.108  0.3414  0.2555  1.1967
  832MOL0     H 9762   2.300   8.585   1.274  2.7254  1.6789  0.4677
  832MOL0     H 9763   2.285   8.305   1.305 -0.4265 -0.8382 -1.7616
  832MOL0     H 9764   2.201   8.313   1.147 -0.7152  1.7673 -0.5104
  832MOL0     H 9765   2.053   8.477   1.214  0.8938 -2.6840 -2.3881
  832MOL0     H 9766   2.092   8.462   1.391 -2.0633  1.2240  0.2744
  832MOL0     H 9767   1.978   8.225   1.252  2.1169 -0.2787 -0.7969
  832MOL0     H 9768   2.071   8.227   1.397  0.5413  1.4308 -0.6556
  832MOL0     H 9769   1.807   8.366   1.364 -1.0544  1.1046  2.4040
  832MOL0     H 9770   1.898   8.373   1.509 -0.4669 -0.2261  0.5071
  832MOL0     H 9771   1.924   8.123   1.526 -1.5427 -4.5756 -1.1318
  832MOL0     H 9772   1.808   8.100   1.406 -0.8567  0.9747 -0.6067
  832MOL0     H 9773   1.694   8.087   1.628 -1.4738  0.8865  1.5194
  832MOL0     H 9774   1.778   8.228   1.683 -1.3959  1.5342 -0.3289
  832MOL0     H 9775   1.630   8.364   1.509  0.8350  0.4929  1.2452
  832MOL0     H 9776   1.533   8.291   1.635  1.7521 -1.2641  1.0244
  832MOL0     H 9777   1.614   8.279   1.267  0.2668 -1.2280 -1.7363
  832MOL0     H 9778   1.455   8.148   1.059 -2.3500 -0.2676 -2.1525
  832MOL0     H 9779   1.342   8.282   1.107  0.1869  0.8756 -0.4790
  832MOL0     H 9780   1.177   8.072   1.168 -1.5495 -3.0347 -2.4258
  832MOL0     H 9781   1.308   7.979   1.102  2.0641  0.9253  5.5259
  832MOL0     H 9782   1.158   8.219   0.960  2.2489  0.6627 -1.0142
  832MOL0     H 9783   1.271   8.100   0.884  0.1808 -2.3498 -0.2789
  832MOL0     H 9784   1.015   8.019   1.028  0.4578  1.2849  1.3671
  832MOL0     H 9785   1.109   7.916   0.917 -0.6389 -1.0432  1.1487
  832MOL0     H 9786   0.768   8.119   0.937  0.7300 -0.6926  0.6877
  832MOL0     H 9787   0.581   7.960   0.931 -0.0505  3.0802 -1.6461
  832MOL0     H 9788   0.296   7.737   1.045  0.3127 -0.9000 -0.8598
  832MOL0     H 9789   0.078   7.643   1.084 -0.1879 -3.2614 -0.1942
  832MOL0     H 9790  -0.125   7.415   0.747 -2.4713 -1.5688 -0.4866
  832MOL0     H 9791  -0.186   7.577   0.699 -1.0610  0.1044 -0.0413
  832MOL0     H 9792  -0.296   7.436   0.939 -1.1099 -0.8603  0.2075
  832MOL0     H 9793  -0.351   7.398   0.772 -0.4474 -1.9752  2.6489
  832MOL0     H 9794  -0.417   7.631   0.740  1.2525  2.5626 -0.2659
  832MOL0     H 9795  -0.355   7.678   0.900  1.2279 -1.1546 -0.7262
  832MOL0     H 9796  -0.593   7.481   0.849  1.2237  1.1519 -2.4506
  832MOL0     H 9797  -0.552   7.554   1.007  1.5178  0.3333 -0.3082
  832MOL0     H 9798  -0.602   7.729   0.757  0.1678 -1.5786  1.0161
  832MOL0     H 9799  -0.621   7.782   0.919 -0.6107  0.4346  0.4801
  832MOL0     H 9800  -0.804   7.590   0.942 -1.3667  1.5561  0.3724
  832MOL0     H 9801  -0.800   7.593   0.773  1.1013 -0.2975 -0.7309
  832MOL0     H 9802  -0.902   7.825   0.943 -1.9581 -1.5574 -0.2177
  832MOL0     H 9803  -0.837   7.853   0.786  0.3552 -0.0783  0.1390
  832MOL0     H 9804  -1.048   7.634   0.850  1.9281 -0.5472 -0.8428
  832MOL0     H 9805  -0.982   7.678   0.690 -0.0728  1.7262 -1.4920
  832MOL0     H 9806   0.038   7.604   0.650 -0.0179  1.3976 -0.3687
  832MOL0     H 9807   0.259   7.702   0.628  0.4499 -1.0164  1.4054
  832MOL0     H 9808   0.784   7.725   0.642  2.4502 -0.3509 -0.3911
  832MOL0     H 9809   0.980   7.871   0.656 -1.3822 -1.4681 -0.5559
  832MOL0     H 9810   2.704   8.399   1.173  0.5463  0.1651 -1.6931
  832MOL0     H 9811   2.883   8.529   1.096 -0.1060 -1.4903  0.3736
  832MOL0     H 9812   3.262   8.874   1.137  2.3707  0.3312 -1.4985
  832MOL0     H 9813   3.408   8.995   1.011 -0.4040 -0.9691  1.0334
  832MOL0     H 9814   3.292   9.238   0.661  0.8142  0.9197  0.8892
  832MOL0     H 9815   3.324   9.088   0.583 -1.9919  1.0422  0.0335
  832MOL0     H 9816   3.465   9.273   0.502 -0.7942 -0.8316 -0.5757
  832MOL0     H 9817   3.542   9.287   0.651 -2.9570  2.1452 -0.1961
  832MOL0     H 9818   3.556   9.045   0.465  0.3637  2.3168 -1.4193
  832MOL0     H 9819   3.588   9.030   0.632  2.2193  2.1670  2.0803
  832MOL0     H 9820   3.788   9.189   0.628  0.8218  0.4011 -0.8961
  832MOL0     H 9821   3.800   9.052   0.528  1.0468  0.4165  2.5779
  832MOL0     H 9822   3.814   9.324   0.227  1.6503 -0.1055  0.4562
  832MOL0     H 9823   3.135   9.059   0.694 -1.4067  1.5869  0.3140
  832MOL0     H 9824   2.955   8.927   0.833 -0.5874  2.7387  1.6809
  833MOL0     O 9825   1.587   1.229   3.559  0.6369  0.5349 -0.4972
  833MOL0     C 9826   1.516   1.322   3.528 -0.0207  0.0169  0.4587
  833MOL0     O 9827   1.525   1.394   3.417 -0.1680  0.1104  0.2894
  833MOL0     C 9828   1.619   1.373   3.316  0.3400 -0.3167  0.5398
  833MOL0     C 9829   1.746   1.305   3.334 -0.0264 -0.3511  1.0415
  833MOL0     C 9830   1.824   1.295   3.219  0.1906 -0.0596  0.1443
  833MOL0     C 9831   1.789   1.357   3.101  0.1632  0.3687 -0.1031
  833MOL0     O 9832   1.861   1.334   2.990  0.2226 -0.2514 -0.0231
  833MOL0     C 9833   1.875   1.201   2.940 -0.3122 -0.0766  1.5964
  833MOL0     C 9834   1.940   1.216   2.799  0.5698 -0.2194  0.0107
  833MOL0     C 9835   1.845   1.281   2.690  0.9445 -0.8482 -0.2153
  833MOL0     C 9836   1.877   1.428   2.669 -0.1464 -0.2724  0.1166
  833MOL0     C 9837   1.779   1.485   2.568  0.4286 -0.3980  0.8435
  833MOL0     C 9838   1.817   1.625   2.540  0.9924  1.0857 -0.5307
  833MOL0     C 9839   1.699   1.695   2.475  0.0748  0.0701  0.5229
  833MOL0     C 9840   1.763   1.815   2.401 -0.5968 -0.0504 -0.0815
  833MOL0     N 9841   1.662   1.913   2.366 -0.2986 -0.4974 -0.0263
  833MOL0     C 9842   1.677   2.030   2.292  0.0190  0.4299  0.2793
  833MOL0     C 9843   1.551   2.081   2.284 -0.3105 -0.6747 -0.3977
  833MOL0     C 9844   1.504   2.204   2.210 -0.1506 -0.2319 -0.3923
  833MOL0     C 9845   1.483   2.171   2.054 -0.6059 -0.4966  0.0269
  833MOL0     C 9846   1.361   2.085   2.019 -0.5207  0.0933 -0.5423
  833MOL0     C 9847   1.222   2.155   2.028 -0.2641 -0.4722  0.5495
  833MOL0     O 9848   1.133   2.071   1.949  0.4327  0.6099 -0.3041
  833MOL0     C 9849   1.002   2.109   1.955 -0.1780  1.1380 -0.0754
  833MOL0     C 9850   0.959   2.233   2.008 -0.4766 -0.4919 -0.2348
  833MOL0     C 9851   0.826   2.267   1.994 -0.7380 -0.2429  0.2223
  833MOL0     C 9852   0.735   2.175   1.938  0.2969 -0.6279 -0.1968
  833MOL0     C 9853   0.593   2.211   1.915 -0.3634  0.5199  0.1190
  833MOL0     O 9854   0.512   2.115   1.864 -0.1733  0.7969 -0.3183
  833MOL0     C 9855   0.376   2.139   1.840 -0.1344  0.3061  0.3889
  833MOL0     C 9856   0.330   2.245   1.762  0.0134 -1.1733  1.2467
  833MOL0     C 9857   0.186   2.252   1.744 -0.2012 -0.3747 -0.2963
  833MOL0     C 9858   0.097   2.164   1.809  0.2783  0.0594  0.1411
  833MOL0     O 9859  -0.046   2.157   1.798 -0.3472 -0.2698 -0.2348
  833MOL0     C 9860  -0.099   2.080   1.695 -1.3229  0.8981  0.4058
  833MOL0     C 9861  -0.250   2.099   1.705  0.7237  0.8617  0.6361
  833MOL0     C 9862  -0.304   2.133   1.846  0.0173 -0.0662  0.0323
  833MOL0     C 9863  -0.457   2.111   1.849  0.1964  0.5786  1.2905
  833MOL0     C 9864  -0.516   2.128   1.988  0.0699  0.2436  1.2004
  833MOL0     C 9865  -0.666   2.099   1.984  0.3005  0.3211  0.3574
  833MOL0     C 9866  -0.729   2.107   2.131 -0.0194  0.3384  0.0619
  833MOL0     C 9867  -0.868   2.049   2.141  0.0485 -0.3151  0.0259
  833MOL0    Cl 9868  -0.877   1.875   2.084  0.0428  0.5881  0.4818
  833MOL0     C 9869   0.148   2.063   1.900  0.1833 -0.7482  0.4450
  833MOL0     C 9870   0.290   2.050   1.906  0.2570  0.4049  0.1928
  833MOL0     O 9871   0.561   2.324   1.938  0.1972 -0.2729 -0.5267
  833MOL0     C 9872   0.783   2.060   1.884  0.0908 -0.0599 -0.1043
  833MOL0     C 9873   0.912   2.025   1.895 -0.2884  0.2498 -0.4171
  833MOL0     N 9874   1.465   2.006   2.355 -0.2223  0.4263 -0.4892
  833MOL0     N 9875   1.531   1.915   2.410  0.1261  0.0097  0.7740
  833MOL0     C 9876   1.683   1.443   3.092  0.8835  0.2321 -0.7396
  833MOL0     C 9877   1.598   1.442   3.199 -0.0845  0.2226 -0.4504
  833MOL0     C 9878   1.407   1.343   3.624  0.1713 -0.3141  0.2552
  833MOL0     C 9879   1.297   1.429   3.590  0.2105  0.2328 -0.3277
  833MOL0     C 9880   1.192   1.448   3.681  1.0473  0.5634 -0.5238
  833MOL0     C 9881   1.187   1.383   3.808  0.4645  0.6319 -0.3228
  833MOL0     O 9882   1.074   1.389   3.884 -0.0337 -0.2000 -0.0567
  833MOL0     C 9883   1.070   1.308   4.000  0.4532  0.1367 -0.0984
  833MOL0     C 9884   0.921   1.275   4.029  0.1448 -0.6527  0.0279
  833MOL0     C 9885   0.925   1.158   4.133  0.3545  0.5251 -0.1340
  833MOL0     C 9886   0.794   1.080   4.115 -0.8359 -0.3956 -0.5207
  833MOL0     C 9887   0.678   1.165   4.152 -0.0307 -1.0459  0.2409
  833MOL0     C 9888   0.592   1.242   4.185 -0.9089 -0.1377  0.0001
  833MOL0     C 9889   1.303   1.309   3.847 -0.2650  0.2564 -0.2970
  833MOL0     C 9890   1.406   1.281   3.756  0.5686  0.1745 -0.6879
  833MOL0     H 9891   1.788   1.263   3.425  1.2333  1.3609  1.2922
  833MOL0     H 9892   1.915   1.237   3.226  0.5129  0.4493  0.3175
  833MOL0     H 9893   1.784   1.141   2.927  1.1095 -1.9260 -0.5877
  833MOL0     H 9894   1.949   1.151   3.003 -0.6700 -0.5116  1.6815
  833MOL0     H 9895   1.967   1.117   2.762  0.7178 -1.5275  3.2643
  833MOL0     H 9896   2.031   1.277   2.802 -0.3344  1.1469  1.6434
  833MOL0     H 9897   1.740   1.267   2.717  0.1247 -0.8653 -3.0594
  833MOL0     H 9898   1.853   1.228   2.595 -0.6269  1.6039 -1.8403
  833MOL0     H 9899   1.869   1.476   2.767  0.1227 -1.9958  1.0172
  833MOL0     H 9900   1.980   1.441   2.633  0.3587  0.0128  1.5856
  833MOL0     H 9901   1.677   1.481   2.609  0.6497 -0.6145  1.3913
  833MOL0     H 9902   1.793   1.431   2.474  2.3149  1.1012  0.2033
  833MOL0     H 9903   1.904   1.621   2.473  2.1280 -1.5792  0.9665
  833MOL0     H 9904   1.838   1.676   2.634 -1.6458 -1.5413  1.6601
  833MOL0     H 9905   1.640   1.633   2.407 -2.2226  1.0365  1.5141
  833MOL0     H 9906   1.626   1.725   2.551  1.1339  0.8269  1.2780
  833MOL0     H 9907   1.820   1.781   2.314 -0.5868  1.0160 -0.5010
  833MOL0     H 9908   1.831   1.869   2.467  2.1377 -1.3606 -1.6430
  833MOL0     H 9909   1.765   2.071   2.243 -0.4301 -1.4048 -2.2821
  833MOL0     H 9910   1.571   2.286   2.238 -2.7546  2.2849 -0.9654
  833MOL0     H 9911   1.408   2.234   2.253  0.3417  1.3288 -0.3324
  833MOL0     H 9912   1.573   2.125   2.012  0.4497  3.6200 -2.8424
  833MOL0     H 9913   1.477   2.265   2.000 -1.1432 -0.2090  0.5744
  833MOL0     H 9914   1.364   2.035   1.922 -0.4128 -1.4202  0.2199
  833MOL0     H 9915   1.352   2.000   2.088 -1.9754 -0.2506 -1.1047
  833MOL0     H 9916   1.222   2.257   1.989 -1.1972 -1.0663 -1.0877
  833MOL0     H 9917   1.189   2.160   2.132  1.2642  0.5800  1.0176
  833MOL0     H 9918   1.032   2.303   2.048 -0.6205 -0.1875 -0.5032
  833MOL0     H 9919   0.794   2.363   2.033 -0.3483  0.4634 -1.1168
  833MOL0     H 9920   0.399   2.305   1.704 -1.0994 -0.6408  0.4249
  833MOL0     H 9921   0.145   2.334   1.686  2.1908  0.8220 -0.4135
  833MOL0     H 9922  -0.076   1.974   1.712 -2.8245  0.3873 -0.6182
  833MOL0     H 9923  -0.053   2.121   1.605  2.8596  3.6008  3.4041
  833MOL0     H 9924  -0.311   2.014   1.672  0.7406  1.1469 -0.1516
  833MOL0     H 9925  -0.278   2.174   1.631 -1.2845 -0.5641 -0.1506
  833MOL0     H 9926  -0.278   2.237   1.868  0.2681 -0.0073 -0.5412
  833MOL0     H 9927  -0.264   2.067   1.924 -2.1650 -1.7737 -0.2012
  833MOL0     H 9928  -0.503   2.182   1.780  0.1151 -0.8662 -0.2041
  833MOL0     H 9929  -0.486   2.011   1.814 -1.3369  1.3041  0.3960
  833MOL0     H 9930  -0.493   2.227   2.029  1.0173 -0.5865  2.8002
  833MOL0     H 9931  -0.465   2.059   2.056  2.9079  1.8743  0.9128
  833MOL0     H 9932  -0.681   2.000   1.939 -0.9415  0.0295  1.3377
  833MOL0     H 9933  -0.712   2.176   1.922  0.8196  1.6783  1.6062
  833MOL0     H 9934  -0.663   2.044   2.191 -0.4268  1.3668  1.6228
  833MOL0     H 9935  -0.718   2.212   2.159  0.7310  0.7943 -1.7262
  833MOL0     H 9936  -0.937   2.113   2.085 -1.0272 -2.5625 -1.4043
  833MOL0     H 9937  -0.910   2.053   2.242 -3.4386 -0.7267 -1.2348
  833MOL0     H 9938   0.071   2.010   1.956 -1.6272  1.6949  0.4083
  833MOL0     H 9939   0.320   1.982   1.985 -0.1460  1.2514  1.0846
  833MOL0     H 9940   0.721   1.991   1.828  2.9913 -3.0865  0.0623
  833MOL0     H 9941   0.951   1.933   1.853  1.8739  0.6696  0.5262
  833MOL0     H 9942   1.652   1.507   3.010  2.3885  0.1906 -1.3638
  833MOL0     H 9943   1.502   1.492   3.201 -1.6811 -2.6437 -0.2939
  833MOL0     H 9944   1.286   1.478   3.494  1.2712  0.1805 -0.4933
  833MOL0     H 9945   1.111   1.516   3.658  1.1694  1.0409  0.3989
  833MOL0     H 9946   1.113   1.361   4.086 -0.0780  0.2519  0.1004
  833MOL0     H 9947   1.124   1.214   3.987  1.1824  0.5551 -0.1555
  833MOL0     H 9948   0.883   1.368   4.072  1.6605  0.1111 -0.2138
  833MOL0     H 9949   0.862   1.250   3.940  0.8057 -1.3123 -0.2363
  833MOL0     H 9950   0.930   1.203   4.233 -1.2953  2.3337 -0.8095
  833MOL0     H 9951   1.009   1.090   4.117 -0.0905 -0.1736  0.4326
  833MOL0     H 9952   0.787   1.044   4.012 -1.0725  0.9673 -1.0086
  833MOL0     H 9953   0.795   1.000   4.189  2.0623  1.9457  2.2952
  833MOL0     H 9954   0.523   1.319   4.213 -1.8509 -0.0486 -2.3623
  833MOL0     H 9955   1.315   1.278   3.950 -1.4142  1.6462  0.2905
  833MOL0     H 9956   1.487   1.216   3.788 -1.9238 -3.1417 -0.5799
  834MOL0     O 9957   8.551   9.214   3.382 -1.0298 -0.3320 -0.4442
  834MOL0     C 9958   8.542   9.148   3.488 -0.7225 -0.6607 -0.0690
  834MOL0     O 9959   8.436   9.076   3.524  0.0193 -0.0484  0.4988
  834MOL0     C 9960   8.313   9.085   3.458 -0.3911 -0.0033 -0.5347
  834MOL0     C 9961   8.236   8.968   3.460  0.0198 -0.4241 -0.2922
  834MOL0     C 9962   8.115   8.958   3.392 -0.0096 -0.0453 -0.0115
  834MOL0     C 9963   8.069   9.061   3.313 -0.0533 -0.1071  0.4262
  834MOL0     O 9964   7.965   9.040   3.226 -0.4611  0.7301 -0.1164
  834MOL0     C 9965   7.939   9.129   3.120 -0.5200 -0.5916 -0.2303
  834MOL0     C 9966   7.855   9.057   3.015 -0.3597 -0.4502 -0.2737
  834MOL0     C 9967   7.699   9.083   3.045 -0.9532 -0.2069 -0.2848
  834MOL0     C 9968   7.620   9.028   2.931  0.1610  0.7207  0.7189
  834MOL0     C 9969   7.474   9.062   2.944  0.5646  0.2617  0.5886
  834MOL0     C 9970   7.392   8.990   2.840 -0.0014  0.2627 -0.1396
  834MOL0     C 9971   7.247   9.022   2.831 -0.5062  0.0704 -0.5172
  834MOL0     C 9972   7.204   9.161   2.811  0.2394 -0.4110  0.8571
  834MOL0     N 9973   7.072   9.147   2.744  0.2857 -0.2586 -0.0154
  834MOL0     C 9974   6.952   9.122   2.809 -0.9354 -0.5809 -0.2491
  834MOL0     C 9975   6.862   9.112   2.707 -0.7548 -0.1367 -0.3322
  834MOL0     C 9976   6.715   9.074   2.711  0.0547 -0.1074  0.6581
  834MOL0     C 9977   6.631   9.191   2.747 -0.1567  0.1252 -0.2586
  834MOL0     C 9978   6.491   9.136   2.790 -0.2168 -1.0772  0.2949
  834MOL0     C 9979   6.397   9.257   2.830  0.6352  0.0712  0.2163
  834MOL0     O 9980   6.261   9.209   2.852 -0.2177 -0.3872 -0.0534
  834MOL0     C 9981   6.158   9.296   2.874  0.2322 -0.1049 -0.2232
  834MOL0     C 9982   6.148   9.425   2.811 -0.4685  0.1953  0.6302
  834MOL0     C 9983   6.025   9.495   2.825  0.3128 -0.0296  0.4421
  834MOL0     C 9984   5.913   9.439   2.894 -0.2289 -0.2091 -0.6284
  834MOL0     C 9985   5.787   9.504   2.904  0.2794 -0.5740  0.2204
  834MOL0     O 9986   5.705   9.447   3.000  0.5996 -0.2006  0.1673
  834MOL0     C 9987   5.590   9.516   3.027  0.3720  0.4676 -0.5698
  834MOL0     C 9988   5.490   9.523   2.934 -0.6659 -0.3593 -0.3151
  834MOL0     C 9989   5.365   9.585   2.963  0.7235 -0.9577 -0.0743
  834MOL0     C 9990   5.340   9.642   3.087 -0.6977  0.0231  0.3806
  834MOL0     O 9991   5.214   9.693   3.103  0.1897 -0.2059  0.4142
  834MOL0     C 9992   5.170   9.725   3.233 -0.0792 -0.7899 -1.0883
  834MOL0     C 9993   5.027   9.777   3.247  0.1249 -0.2462 -0.1264
  834MOL0     C 9994   4.920   9.667   3.217  0.3527  0.8806 -0.1435
  834MOL0     C 9995   4.904   9.571   3.336  0.1829  0.3030  0.1380
  834MOL0     C 9996   4.837   9.436   3.290 -0.0728 -0.6383  0.8873
  834MOL0     C 9997   4.823   9.352   3.418 -0.5319 -0.2268  0.1535
  834MOL0     C 9998   4.961   9.304   3.472  0.5522 -0.7243 -0.3238
  834MOL0     C 9999   5.026   9.198   3.380  0.7588 -0.4584 -0.0580
  834MOL0    Cl10000   5.154   9.101   3.458 -0.1114 -0.3464 -0.4665
  834MOL0     C10001   5.444   9.654   3.173  0.0936 -0.6626 -0.6757
  834MOL0     C10002   5.570   9.584   3.146 -0.2561 -0.7805  0.2737
  834MOL0     O10003   5.756   9.601   2.831 -0.1806  0.7713 -0.1846
  834MOL0     C10004   5.927   9.316   2.958 -0.0554  0.1663 -0.6608
  834MOL0     C10005   6.044   9.239   2.936 -0.7399 -0.7910  0.4708
  834MOL0     N10006   6.930   9.126   2.586 -0.1367  0.4260 -0.0741
  834MOL0     N10007   7.060   9.142   2.609  1.0093  0.4124  0.1731
  834MOL0     C10008   8.137   9.189   3.313  0.3433 -1.5455 -0.8297
  834MOL0     C10009   8.265   9.193   3.385 -1.2604 -0.2470 -0.1177
  834MOL0     C10010   8.646   9.157   3.592  0.2840  0.0959 -1.9671
  834MOL0     C10011   8.622   9.100   3.721 -0.2463 -0.0188  1.3627
  834MOL0     C10012   8.716   9.114   3.824 -0.3508  0.7767 -0.3718
  834MOL0     C10013   8.834   9.187   3.798 -1.0039  0.0239 -0.2773
  834MOL0     O10014   8.939   9.227   3.887  0.8563 -0.5279 -0.6874
  834MOL0     C10015   8.922   9.191   4.026 -0.1470 -0.1358  0.1171
  834MOL0     C10016   9.012   9.275   4.116 -0.3493 -0.5873  0.3919
  834MOL0     C10017   9.155   9.221   4.136 -0.0784 -0.4265  0.2440
  834MOL0     C10018   9.176   9.090   4.201 -0.4704 -0.0765 -0.1369
  834MOL0     C10019   9.318   9.067   4.234 -0.3097  0.2553 -0.1148
  834MOL0     C10020   9.431   9.055   4.281 -0.1095 -0.5622  0.4623
  834MOL0     C10021   8.860   9.233   3.669 -0.6047 -0.5422 -0.1021
  834MOL0     C10022   8.768   9.226   3.571 -0.6447 -0.2543  0.1105
  834MOL0     H10023   8.271   8.879   3.513  1.6316 -0.5026 -1.3979
  834MOL0     H10024   8.067   8.861   3.382  0.8593 -0.3420 -1.4141
  834MOL0     H10025   8.037   9.152   3.076  1.3070 -1.7847  2.8925
  834MOL0     H10026   7.893   9.221   3.158 -1.3200 -1.6486  1.4679
  834MOL0     H10027   7.884   8.951   3.019 -1.7245 -0.7993  1.0540
  834MOL0     H10028   7.872   9.091   2.912 -3.0156  1.4109 -0.1887
  834MOL0     H10029   7.687   9.191   3.057 -3.1022 -0.6757  3.3592
  834MOL0     H10030   7.666   9.045   3.142 -3.7223 -0.7753 -1.3768
  834MOL0     H10031   7.662   9.064   2.837  0.4073  1.6327  1.1670
  834MOL0     H10032   7.624   8.918   2.930 -0.0289  0.7090 -0.7208
  834MOL0     H10033   7.470   9.171   2.939 -4.1187  0.2855  0.6344
  834MOL0     H10034   7.434   9.039   3.043 -1.4486  3.5067  0.6655
  834MOL0     H10035   7.399   8.883   2.861 -0.6734 -0.0265 -1.2884
  834MOL0     H10036   7.453   9.005   2.750  0.8163  1.1954  0.5576
  834MOL0     H10037   7.220   8.958   2.746  1.6325  0.5100 -1.5986
  834MOL0     H10038   7.198   8.970   2.914  0.8840  0.3450  0.4996
  834MOL0     H10039   7.268   9.213   2.739 -1.0612  1.2473  0.8379
  834MOL0     H10040   7.203   9.210   2.909 -0.4211  0.1471  0.5824
  834MOL0     H10041   6.931   9.105   2.915  1.8165  1.6309  0.7823
  834MOL0     H10042   6.700   8.988   2.776  0.5336 -1.4744 -0.9800
  834MOL0     H10043   6.694   9.039   2.610  1.0611  0.4360  0.2435
  834MOL0     H10044   6.631   9.273   2.675  3.1372  0.5539  0.0945
  834MOL0     H10045   6.671   9.244   2.833 -0.3106 -1.8260  1.0883
  834MOL0     H10046   6.438   9.075   2.716  0.7231 -0.1412 -1.1961
  834MOL0     H10047   6.501   9.081   2.884  1.5980  1.9417  2.0361
  834MOL0     H10048   6.402   9.329   2.749 -0.6719  1.2150  1.1109
  834MOL0     H10049   6.430   9.304   2.923 -0.6389  0.0855  0.6819
  834MOL0     H10050   6.230   9.470   2.755 -0.5263  0.4366  0.7359
  834MOL0     H10051   6.018   9.590   2.773  2.6783 -0.8239 -1.5119
  834MOL0     H10052   5.514   9.488   2.834 -1.5486 -0.5978 -0.4538
  834MOL0     H10053   5.282   9.582   2.892  0.8700  0.9579 -0.3593
  834MOL0     H10054   5.221   9.813   3.272 -4.9522  1.6471  0.6866
  834MOL0     H10055   5.186   9.645   3.306  0.4465  0.6198  0.4026
  834MOL0     H10056   5.011   9.852   3.170 -0.9647 -2.6024 -2.3452
  834MOL0     H10057   5.008   9.828   3.342 -2.6631 -2.9333  0.9121
  834MOL0     H10058   4.945   9.605   3.131 -2.7962 -0.7699 -0.0409
  834MOL0     H10059   4.817   9.695   3.194 -0.4654 -1.7051  0.1021
  834MOL0     H10060   5.005   9.552   3.375 -0.7807  0.1146  2.7634
  834MOL0     H10061   4.845   9.606   3.421 -1.9798 -3.1430  0.2319
  834MOL0     H10062   4.896   9.394   3.208 -1.7890  1.7149 -1.7288
  834MOL0     H10063   4.738   9.461   3.253  0.0710 -2.0272 -0.5612
  834MOL0     H10064   4.761   9.263   3.403  2.3361 -2.5195  0.8521
  834MOL0     H10065   4.775   9.413   3.495 -1.1707 -1.8366  1.0843
  834MOL0     H10066   5.032   9.386   3.488 -0.0414 -0.1025 -0.8042
  834MOL0     H10067   4.937   9.259   3.569  0.3860  0.0923  0.0230
  834MOL0     H10068   5.055   9.261   3.296 -0.9475  2.8240  1.6243
  834MOL0     H10069   4.946   9.136   3.339 -3.4159  2.0420  3.5150
  834MOL0     H10070   5.434   9.691   3.275  1.1938 -0.4209 -0.6435
  834MOL0     H10071   5.652   9.580   3.216 -0.2366 -0.8717  0.2460
  834MOL0     H10072   5.846   9.277   3.019 -0.2971 -0.1089 -1.1538
  834MOL0     H10073   6.048   9.136   2.970  1.2500 -0.0268  2.8613
  834MOL0     H10074   8.096   9.276   3.264 -0.2458 -1.2986  0.0696
  834MOL0     H10075   8.321   9.284   3.366 -1.2895 -0.1047  0.4578
  834MOL0     H10076   8.536   9.036   3.737 -2.1334  2.7066  3.0156
  834MOL0     H10077   8.698   9.058   3.915 -0.1051  1.2901 -0.0077
  834MOL0     H10078   8.933   9.084   4.045 -3.2335 -0.0003  3.5812
  834MOL0     H10079   8.818   9.205   4.054 -0.0753  0.7274 -0.0085
  834MOL0     H10080   9.006   9.377   4.076 -2.8117 -1.2985 -1.3296
  834MOL0     H10081   8.961   9.276   4.213 -2.3696  2.2335 -0.5815
  834MOL0     H10082   9.207   9.302   4.188  2.7181  1.5604 -4.8837
  834MOL0     H10083   9.204   9.219   4.038  3.4537  2.4782  1.7283
  834MOL0     H10084   9.114   9.085   4.291 -0.8284 -0.7889 -0.4153
  834MOL0     H10085   9.149   9.001   4.144  1.7211 -2.0924  1.7022
  834MOL0     H10086   9.526   9.031   4.323 -0.0625 -1.9928 -0.4012
  834MOL0     H10087   8.959   9.278   3.664 -1.8000  2.6361  1.5233
  834MOL0     H10088   8.784   9.274   3.474 -1.8700  0.5147  0.2618
  835MOL0     O10089   4.134   4.102   6.333  0.6770  0.0233  0.3856
  835MOL0     C10090   4.141   4.153   6.446 -0.0923  0.6913  0.9430
  835MOL0     O10091   4.037   4.166   6.526 -0.4190 -0.0641  0.1470
  835MOL0     C10092   3.933   4.074   6.531 -0.6474  1.0357  0.2322
  835MOL0     C10093   3.825   4.129   6.608  0.6064 -0.7398 -0.0775
  835MOL0     C10094   3.701   4.053   6.615 -0.7703  0.0773  0.1575
  835MOL0     C10095   3.678   3.937   6.533 -1.3568 -0.5756 -0.5369
  835MOL0     O10096   3.553   3.886   6.525  0.4832  0.5612 -0.0244
  835MOL0     C10097   3.541   3.774   6.432 -0.7196  0.6002 -0.4699
  835MOL0     C10098   3.390   3.736   6.428 -0.3655  0.2362  0.0569
  835MOL0     C10099   3.366   3.633   6.317 -0.4651 -0.6314 -0.4495
  835MOL0     C10100   3.219   3.583   6.323 -0.2490  0.3707  0.9442
  835MOL0     C10101   3.101   3.689   6.310 -0.3757 -0.9698 -0.1841
  835MOL0     C10102   3.105   3.773   6.172  0.5530 -0.0731  0.5298
  835MOL0     C10103   3.046   3.908   6.194 -0.6637  0.1858  0.0875
  835MOL0     C10104   2.895   3.898   6.222  1.1555  0.1302  0.4388
  835MOL0     N10105   2.829   4.020   6.276 -0.8999  0.1900  0.1843
  835MOL0     C10106   2.801   4.134   6.202  0.2936  0.3433 -0.0363
  835MOL0     C10107   2.741   4.222   6.286 -0.9552 -0.8770  0.5337
  835MOL0     C10108   2.722   4.368   6.271 -0.3614  0.0317 -0.8134
  835MOL0     C10109   2.588   4.402   6.338  0.3922 -0.0463  0.2564
  835MOL0     C10110   2.561   4.552   6.317  0.5665 -1.1075 -0.6585
  835MOL0     C10111   2.425   4.588   6.388  0.4143 -0.5467 -0.3268
  835MOL0     O10112   2.312   4.563   6.308  0.0279  0.2061  0.0705
  835MOL0     C10113   2.193   4.575   6.368  0.0978 -0.7461 -0.5200
  835MOL0     C10114   2.159   4.699   6.433  0.8450  0.1148  0.6981
  835MOL0     C10115   2.029   4.720   6.472  0.3242  0.4090  0.2488
  835MOL0     C10116   1.934   4.622   6.460 -0.3156  0.4004 -0.5223
  835MOL0     C10117   1.798   4.624   6.535 -0.3708  0.6971 -0.4202
  835MOL0     O10118   1.707   4.522   6.525 -0.6681  0.1488  0.0262
  835MOL0     C10119   1.581   4.521   6.583 -0.8018 -0.9061 -0.2960
  835MOL0     C10120   1.504   4.404   6.564 -0.3022 -0.2254 -0.1226
  835MOL0     C10121   1.378   4.392   6.627  0.8438  0.1342  0.7791
  835MOL0     C10122   1.323   4.502   6.691  0.1249  0.0063 -0.2868
  835MOL0     O10123   1.195   4.498   6.746 -0.0405 -0.4020 -0.1316
  835MOL0     C10124   1.097   4.393   6.717 -0.7327 -0.2447 -0.2268
  835MOL0     C10125   0.960   4.439   6.759  0.1161 -0.1901  0.0920
  835MOL0     C10126   0.939   4.470   6.901  0.0707  0.6645  0.5291
  835MOL0     C10127   0.792   4.498   6.931  0.2181 -0.8397  0.2462
  835MOL0     C10128   0.770   4.518   7.089 -0.1941 -0.1817  0.2359
  835MOL0     C10129   0.638   4.582   7.117  1.0074  0.3747 -0.0341
  835MOL0     C10130   0.520   4.494   7.090  0.6780  0.4603 -0.4385
  835MOL0     C10131   0.402   4.548   7.177  0.3299  0.3114  0.0920
  835MOL0    Cl10132   0.317   4.406   7.266  0.5725 -0.3255 -0.3967
  835MOL0     C10133   1.385   4.628   6.694 -0.9755  0.4357 -1.1741
  835MOL0     C10134   1.521   4.632   6.651 -0.5932 -0.1307  0.2346
  835MOL0     O10135   1.771   4.736   6.586  0.1252  0.1825  0.2587
  835MOL0     C10136   1.966   4.497   6.405 -0.0078 -0.6201  0.4363
  835MOL0     C10137   2.098   4.469   6.366 -0.6838  0.2283 -0.0879
  835MOL0     N10138   2.728   4.156   6.407  0.3056 -0.5443 -0.3233
  835MOL0     N10139   2.777   4.035   6.402 -0.5573  0.2148  0.4572
  835MOL0     C10140   3.792   3.882   6.469  0.4669 -0.2007  0.1467
  835MOL0     C10141   3.915   3.950   6.466  0.1331  0.4213  0.2025
  835MOL0     C10142   4.270   4.211   6.489 -0.4865 -0.6264 -0.0084
  835MOL0     C10143   4.278   4.258   6.618  0.6453 -0.1436 -0.0198
  835MOL0     C10144   4.400   4.308   6.665  0.3688  0.2096 -0.3062
  835MOL0     C10145   4.508   4.324   6.583  0.0332  0.1790  0.3455
  835MOL0     O10146   4.619   4.384   6.640 -0.6476  0.7229 -0.9263
  835MOL0     C10147   4.748   4.372   6.573  0.2361 -0.0372 -0.2803
  835MOL0     C10148   4.790   4.500   6.501 -0.2276 -0.0785  0.2090
  835MOL0     C10149   4.938   4.475   6.457 -0.1066 -0.1988 -0.6148
  835MOL0     C10150   4.987   4.581   6.359 -0.3558  0.5250 -0.2987
  835MOL0     C10151   5.142   4.568   6.348  0.8461 -1.1480 -0.6098
  835MOL0     C10152   5.266   4.554   6.349  0.6978 -0.0011 -0.0964
  835MOL0     C10153   4.503   4.283   6.447  0.1868  0.3131  0.2531
  835MOL0     C10154   4.382   4.219   6.402  0.0967 -0.7449 -0.0224
  835MOL0     H10155   3.834   4.213   6.676 -0.1011 -0.9263  0.2510
  835MOL0     H10156   3.616   4.086   6.674 -0.6741  1.5594 -0.4732
  835MOL0     H10157   3.596   3.684   6.459  2.0267  2.4844  0.7434
  835MOL0     H10158   3.554   3.816   6.331  0.3939  0.2307 -0.4900
  835MOL0     H10159   3.330   3.825   6.407 -2.9043 -0.8595  2.0666
  835MOL0     H10160   3.356   3.707   6.529  2.9091  0.0308  1.2227
  835MOL0     H10161   3.443   3.558   6.337  2.1839  2.5377  2.4873
  835MOL0     H10162   3.391   3.684   6.223 -0.3380 -0.5385 -0.3645
  835MOL0     H10163   3.205   3.515   6.238  0.9312  1.2850 -0.0240
  835MOL0     H10164   3.210   3.533   6.419 -1.1537  0.6026  0.9848
  835MOL0     H10165   3.101   3.761   6.392  0.8857  0.2213 -1.1728
  835MOL0     H10166   3.009   3.632   6.319 -0.3355 -1.1977 -1.1339
  835MOL0     H10167   3.046   3.731   6.091 -1.5092 -0.3426  2.0828
  835MOL0     H10168   3.211   3.793   6.152  0.5688  0.5277  1.1467
  835MOL0     H10169   3.106   3.950   6.275 -0.5145  1.3413 -0.6082
  835MOL0     H10170   3.069   3.974   6.110 -0.1484  0.2545  0.2767
  835MOL0     H10171   2.883   3.814   6.291  2.5431 -1.3066 -0.9729
  835MOL0     H10172   2.835   3.874   6.134  3.8993  1.1998 -1.9087
  835MOL0     H10173   2.823   4.146   6.096  2.6690 -1.5427  0.1632
  835MOL0     H10174   2.724   4.392   6.164  0.6260 -1.1741 -1.1038
  835MOL0     H10175   2.810   4.411   6.321 -0.1605 -1.7008  0.4095
  835MOL0     H10176   2.593   4.391   6.447  1.0489  1.9164  0.4644
  835MOL0     H10177   2.509   4.344   6.289  0.8124 -0.1458 -0.3072
  835MOL0     H10178   2.633   4.618   6.366 -1.6001  1.5567 -0.8668
  835MOL0     H10179   2.555   4.582   6.212 -1.9804 -2.0350 -0.8437
  835MOL0     H10180   2.428   4.696   6.408  0.4471 -0.6510  0.2460
  835MOL0     H10181   2.422   4.538   6.485  3.3078  1.3730  0.8875
  835MOL0     H10182   2.224   4.785   6.448  1.1114  0.0519 -0.0501
  835MOL0     H10183   2.007   4.817   6.517  2.7410  1.0881  0.1363
  835MOL0     H10184   1.553   4.320   6.517 -0.6018 -0.2799 -0.3355
  835MOL0     H10185   1.329   4.296   6.639  0.0835  0.8201  4.4595
  835MOL0     H10186   1.136   4.303   6.765 -1.4696  0.8768  2.6429
  835MOL0     H10187   1.102   4.369   6.610  3.2442 -0.9574 -0.0295
  835MOL0     H10188   0.884   4.368   6.727 -0.8282  1.0191 -0.4301
  835MOL0     H10189   0.950   4.527   6.695  1.1440 -1.5848 -2.1158
  835MOL0     H10190   0.992   4.561   6.930  0.3459  0.9734 -0.8588
  835MOL0     H10191   0.968   4.388   6.967 -0.5919  0.0122  0.0173
  835MOL0     H10192   0.751   4.578   6.869 -2.0203 -0.9778  1.4192
  835MOL0     H10193   0.734   4.409   6.904 -1.8176  0.8808 -1.3789
  835MOL0     H10194   0.861   4.568   7.123 -0.9814  1.0650  0.5794
  835MOL0     H10195   0.779   4.415   7.126 -1.3736  0.0971  1.3778
  835MOL0     H10196   0.631   4.680   7.070 -0.1341  0.9599  1.2768
  835MOL0     H10197   0.640   4.603   7.224 -1.0710  0.6070  0.0015
  835MOL0     H10198   0.504   4.472   6.984  0.4512 -1.5863 -0.0258
  835MOL0     H10199   0.542   4.395   7.133 -0.4954  0.0904 -0.6676
  835MOL0     H10200   0.342   4.605   7.106  1.7663  1.0091 -0.6182
  835MOL0     H10201   0.425   4.625   7.252 -0.4315 -1.5123  2.3244
  835MOL0     H10202   1.330   4.714   6.732  1.0916  1.2878  0.0868
  835MOL0     H10203   1.568   4.728   6.672  0.8613 -0.4344 -1.4578
  835MOL0     H10204   1.901   4.411   6.398  2.0789 -2.1712 -0.8748
  835MOL0     H10205   2.114   4.370   6.323  1.6799  0.2572  0.5675
  835MOL0     H10206   3.791   3.782   6.427  1.3472  1.2262 -3.6346
  835MOL0     H10207   3.997   3.896   6.421  0.4244  1.1058 -0.1010
  835MOL0     H10208   4.193   4.257   6.685 -1.3693  0.1042 -2.4064
  835MOL0     H10209   4.400   4.342   6.768  1.3958 -2.1790  0.5519
  835MOL0     H10210   4.757   4.286   6.506 -0.2998  0.1146 -0.5504
  835MOL0     H10211   4.824   4.370   6.653  0.9556  2.5217 -0.8109
  835MOL0     H10212   4.723   4.519   6.417 -1.2705  2.8514  1.5510
  835MOL0     H10213   4.786   4.582   6.574 -1.3326  0.6052 -0.5940
  835MOL0     H10214   4.950   4.376   6.411  1.2184  0.7059 -2.3395
  835MOL0     H10215   5.001   4.490   6.545  0.4728  1.9121 -1.3268
  835MOL0     H10216   4.948   4.562   6.258 -0.1171 -0.8052 -0.1542
  835MOL0     H10217   4.942   4.671   6.402 -0.6799 -0.2779  1.0995
  835MOL0     H10218   5.366   4.521   6.332 -0.1912 -2.0660 -2.0649
  835MOL0     H10219   4.583   4.291   6.375 -0.8437 -0.3926 -1.0172
  835MOL0     H10220   4.382   4.176   6.302  0.2254  0.5573 -0.6075
  836MOL0     O10221  10.207   2.895   4.973 -0.7725  0.2351  0.6808
  836MOL0     C10222  10.224   2.870   4.852  0.3663 -0.0790 -0.6202
  836MOL0     O10223  10.129   2.885   4.752 -0.2270 -0.6989 -0.3207
  836MOL0     C10224  10.001   2.923   4.783 -0.1775  0.0825 -0.0020
  836MOL0     C10225   9.922   2.950   4.673  0.5585  0.6183 -0.3460
  836MOL0     C10226   9.786   2.974   4.680  0.4411  0.0723  0.3473
  836MOL0     C10227   9.723   2.987   4.809 -0.1607  0.1357  0.0588
  836MOL0     O10228   9.588   2.996   4.836  0.0133 -0.3830 -0.2577
  836MOL0     C10229   9.512   3.026   4.715  1.0791  0.5553 -0.0193
  836MOL0     C10230   9.360   3.067   4.738 -0.8370  0.1765 -0.8164
  836MOL0     C10231   9.285   3.094   4.614  0.4689  0.1464  1.0750
  836MOL0     C10232   9.155   3.161   4.643  0.8801 -0.6914  0.1961
  836MOL0     C10233   9.064   3.179   4.522  0.0490 -0.6531  0.0480
  836MOL0     C10234   8.931   3.246   4.556  0.3496  0.1078 -0.9549
  836MOL0     C10235   8.949   3.393   4.588  0.1872 -0.1061  0.5786
  836MOL0     C10236   8.821   3.475   4.564  0.3942  1.0670  0.5156
  836MOL0     N10237   8.781   3.475   4.418 -0.8846 -0.3755  0.5740
  836MOL0     C10238   8.867   3.487   4.305  0.4985  0.1321  0.1259
  836MOL0     C10239   8.792   3.474   4.194  0.4909  0.3590 -0.1373
  836MOL0     C10240   8.839   3.477   4.043  0.5536  0.7001  0.2885
  836MOL0     C10241   8.736   3.432   3.937  0.3074  0.8512  0.1332
  836MOL0     C10242   8.740   3.503   3.806  1.5207  1.2432 -0.3144
  836MOL0     C10243   8.872   3.492   3.738  0.5332 -0.1432 -0.5375
  836MOL0     O10244   8.898   3.355   3.697  0.1327  0.0996 -0.0690
  836MOL0     C10245   9.022   3.325   3.642 -0.1495  0.1873  0.0652
  836MOL0     C10246   9.026   3.336   3.504 -0.5422  0.0740 -0.6505
  836MOL0     C10247   9.148   3.317   3.443 -0.3010 -0.1682 -0.5860
  836MOL0     C10248   9.263   3.296   3.522  0.1345 -0.4643 -0.1959
  836MOL0     C10249   9.389   3.292   3.456  0.4069 -0.6679  0.3960
  836MOL0     O10250   9.489   3.226   3.516  0.4215 -0.0261 -0.4983
  836MOL0     C10251   9.621   3.214   3.480  0.1658  0.1251  0.7207
  836MOL0     C10252   9.665   3.258   3.348 -0.5797  0.1633 -1.0333
  836MOL0     C10253   9.806   3.250   3.319  0.7548  0.5836 -0.5640
  836MOL0     C10254   9.889   3.179   3.403  0.0729 -0.2866  0.3777
  836MOL0     O10255  10.017   3.166   3.353 -0.0102  0.3662 -0.6216
  836MOL0     C10256  10.105   3.106   3.443  0.2565 -0.3092  0.0452
  836MOL0     C10257  10.240   3.093   3.379  0.6465 -0.0167  1.1721
  836MOL0     C10258  10.258   2.989   3.266  0.4797 -1.0897 -0.1667
  836MOL0     C10259  10.390   3.004   3.187  0.4503  0.0601  0.4927
  836MOL0     C10260  10.412   2.880   3.099 -0.1944  0.6596  0.1734
  836MOL0     C10261  10.531   2.877   3.016  0.6409 -0.4508  0.8795
  836MOL0     C10262  10.652   2.842   3.102  0.4978 -0.2982  0.4068
  836MOL0     C10263  10.770   2.824   3.012 -0.1140 -0.2567 -1.1704
  836MOL0    Cl10264  10.928   2.793   3.105 -0.0247  0.4169 -0.0882
  836MOL0     C10265   9.838   3.118   3.526 -0.7682 -0.4482 -0.7837
  836MOL0     C10266   9.706   3.142   3.563 -1.1770 -0.2795 -0.3002
  836MOL0     O10267   9.389   3.326   3.336 -0.1350 -0.2264  0.0439
  836MOL0     C10268   9.253   3.279   3.666 -0.0178 -0.2738  0.2788
  836MOL0     C10269   9.125   3.295   3.730 -1.3137  0.0335  0.3345
  836MOL0     N10270   8.654   3.457   4.240 -0.6741  0.1474  0.3013
  836MOL0     N10271   8.658   3.445   4.372  0.1901 -0.6229  0.0541
  836MOL0     C10272   9.803   2.963   4.925  0.6215 -0.2289 -0.1647
  836MOL0     C10273   9.936   2.929   4.909 -0.2015 -0.4922  0.5624
  836MOL0     C10274  10.357   2.818   4.816  0.1403  0.3061 -0.7185
  836MOL0     C10275  10.458   2.811   4.915 -0.0398  0.2558  1.0548
  836MOL0     C10276  10.588   2.776   4.880  0.4645  0.0256  1.1893
  836MOL0     C10277  10.619   2.756   4.749 -0.0997 -0.3177  0.3140
  836MOL0     O10278  10.748   2.723   4.721 -1.0241 -0.3762 -0.2669
  836MOL0     C10279  10.823   2.816   4.638  0.4131 -1.0564 -0.2471
  836MOL0     C10280  10.953   2.856   4.709  0.4099  0.0402 -0.0755
  836MOL0     C10281  11.048   2.950   4.638  0.9101 -0.1653  1.0739
  836MOL0     C10282  11.170   2.988   4.731  0.9952 -0.5800  0.1993
  836MOL0     C10283  11.271   3.083   4.682  0.6029 -0.3855  1.0833
  836MOL0     C10284  11.358   3.154   4.631  0.5042  0.3464 -0.2322
  836MOL0     C10285  10.527   2.774   4.649 -1.0463  0.6142 -0.8226
  836MOL0     C10286  10.392   2.811   4.681  0.0074  0.5662 -1.0341
  836MOL0     H10287   9.979   2.941   4.581  0.5367 -1.8202 -0.1818
  836MOL0     H10288   9.729   2.991   4.590  1.6512 -2.1049 -0.9149
  836MOL0     H10289   9.526   2.943   4.645 -1.9759  0.2302 -0.3914
  836MOL0     H10290   9.553   3.113   4.663  3.4457 -1.6117 -2.1016
  836MOL0     H10291   9.353   3.153   4.805  1.6187 -2.3975  3.2055
  836MOL0     H10292   9.316   2.983   4.792 -1.3621  0.8515 -0.1830
  836MOL0     H10293   9.256   2.999   4.566  0.2441 -1.6645  4.4696
  836MOL0     H10294   9.342   3.157   4.545 -2.1409  4.1712  2.2372
  836MOL0     H10295   9.106   3.102   4.721  0.1445 -1.6722 -0.9708
  836MOL0     H10296   9.171   3.263   4.679  0.9066  0.3485 -2.5125
  836MOL0     H10297   9.043   3.083   4.474  1.1079 -1.3720  0.9705
  836MOL0     H10298   9.117   3.235   4.445 -0.7346 -0.2707 -0.2264
  836MOL0     H10299   8.885   3.184   4.633  3.1331 -0.4041  0.4311
  836MOL0     H10300   8.873   3.236   4.463  1.1399 -0.6397 -1.3888
  836MOL0     H10301   8.969   3.412   4.694  2.4383  2.8513 -0.2618
  836MOL0     H10302   9.022   3.442   4.524 -1.0663  3.3172  1.5000
  836MOL0     H10303   8.832   3.581   4.584  1.8696  0.7177  1.7131
  836MOL0     H10304   8.741   3.434   4.627  1.5813  0.8326  1.9130
  836MOL0     H10305   8.974   3.505   4.305  0.8557 -1.7756  0.9612
  836MOL0     H10306   8.924   3.409   4.031  0.1902  0.3739 -0.4835
  836MOL0     H10307   8.877   3.577   4.017 -0.1941  0.4970 -1.6753
  836MOL0     H10308   8.636   3.452   3.979 -0.7989 -0.3690 -1.7858
  836MOL0     H10309   8.743   3.323   3.925 -0.3515  0.4118  2.9487
  836MOL0     H10310   8.652   3.480   3.746 -0.6937  1.4797  2.6294
  836MOL0     H10311   8.714   3.607   3.830 -2.2751  1.2403 -3.4875
  836MOL0     H10312   8.944   3.538   3.806 -1.5986  2.1757  0.3262
  836MOL0     H10313   8.868   3.544   3.642 -0.2757  1.1179  0.1543
  836MOL0     H10314   8.937   3.352   3.443 -0.3613  2.6750 -0.3435
  836MOL0     H10315   9.155   3.321   3.335  3.7272  0.2091 -0.4562
  836MOL0     H10316   9.598   3.300   3.274 -0.3182  3.3894  0.3776
  836MOL0     H10317   9.845   3.299   3.230  1.0232 -0.0778 -0.8133
  836MOL0     H10318  10.077   3.005   3.476 -0.9052  0.3151  1.0496
  836MOL0     H10319  10.110   3.184   3.520 -0.4691  0.0076 -0.2238
  836MOL0     H10320  10.307   3.070   3.462 -1.3025  0.1872  2.8825
  836MOL0     H10321  10.278   3.185   3.334 -1.3987  0.4861  0.3543
  836MOL0     H10322  10.177   3.010   3.195  3.5926  0.7284 -3.5304
  836MOL0     H10323  10.252   2.888   3.309 -0.2370 -1.0286 -0.1143
  836MOL0     H10324  10.384   3.087   3.117  2.2237  0.6330  0.9534
  836MOL0     H10325  10.467   3.035   3.259 -0.0509  1.6951  0.3520
  836MOL0     H10326  10.330   2.872   3.027 -1.5395  3.9303  1.1816
  836MOL0     H10327  10.431   2.787   3.153 -0.3653  0.5028 -0.0369
  836MOL0     H10328  10.545   2.979   2.978 -1.8556 -0.1018  0.7118
  836MOL0     H10329  10.510   2.815   2.929  1.0393 -0.7343  0.9826
  836MOL0     H10330  10.671   2.918   3.179 -1.1503 -1.0547  1.6262
  836MOL0     H10331  10.631   2.748   3.155  0.8687 -0.9028 -0.4993
  836MOL0     H10332  10.779   2.915   2.953  0.8008 -0.7234 -1.7625
  836MOL0     H10333  10.764   2.728   2.959 -1.1104 -1.0044  0.2158
  836MOL0     H10334   9.894   3.059   3.598 -0.6258 -1.2729 -1.5494
  836MOL0     H10335   9.652   3.096   3.645 -2.4676  1.9467  0.1525
  836MOL0     H10336   9.342   3.273   3.728 -0.6770 -1.8880  1.1379
  836MOL0     H10337   9.110   3.288   3.837 -0.2309  0.3439  0.5136
  836MOL0     H10338   9.753   2.979   5.019 -1.0570  1.7474 -1.3206
  836MOL0     H10339   9.976   2.894   5.004 -0.9254 -2.4867  0.1770
  836MOL0     H10340  10.440   2.830   5.020  1.6917 -0.3462  1.5055
  836MOL0     H10341  10.666   2.766   4.955  0.8181 -2.8035  0.5469
  836MOL0     H10342  10.764   2.908   4.628  1.2274 -0.2705  1.7046
  836MOL0     H10343  10.839   2.779   4.537 -1.6891  1.1481 -1.5215
  836MOL0     H10344  10.919   2.890   4.807 -1.8566  4.9563 -2.2125
  836MOL0     H10345  11.008   2.763   4.724  1.4621  0.8417  1.3122
  836MOL0     H10346  10.993   3.034   4.594 -0.4578 -1.3531  0.4330
  836MOL0     H10347  11.092   2.895   4.554  0.5531 -1.7271  1.8801
  836MOL0     H10348  11.120   3.042   4.812 -0.1245 -2.5711  0.9264
  836MOL0     H10349  11.206   2.896   4.778  1.0213 -1.9878 -2.3696
  836MOL0     H10350  11.428   3.211   4.573 -2.2065  1.2577 -2.8535
  836MOL0     H10351  10.562   2.751   4.549  0.5929 -0.5850 -0.0155
  836MOL0     H10352  10.321   2.834   4.603  2.8059  1.1902 -3.5807
  837MOL0     O10353   1.482   6.368   1.681 -0.0173 -1.3636 -0.2993
  837MOL0     C10354   1.511   6.487   1.671  0.2945  0.0704 -0.1073
  837MOL0     O10355   1.444   6.577   1.607 -0.1446  1.0992  0.0927
  837MOL0     C10356   1.357   6.527   1.517  0.5684  0.2308  0.0530
  837MOL0     C10357   1.216   6.535   1.544  0.0525 -0.0794  1.0254
  837MOL0     C10358   1.131   6.493   1.449  0.3250 -0.7371  0.3685
  837MOL0     C10359   1.169   6.437   1.325 -1.2114  0.0479 -0.6696
  837MOL0     O10360   1.091   6.379   1.228  0.3857  0.0956  0.5080
  837MOL0     C10361   0.948   6.365   1.251 -0.1327 -0.4887 -0.3456
  837MOL0     C10362   0.874   6.309   1.131  1.0354  0.2143  0.1029
  837MOL0     C10363   0.725   6.340   1.147 -0.4678  0.2665  0.3524
  837MOL0     C10364   0.654   6.270   1.025 -0.4601  0.3269 -0.2519
  837MOL0     C10365   0.509   6.319   1.015  0.5729 -0.2855  0.5290
  837MOL0     C10366   0.454   6.273   0.885  0.3361 -0.1807 -0.2026
  837MOL0     C10367   0.493   6.333   0.751  0.5094  0.4756  0.0975
  837MOL0     C10368   0.474   6.487   0.740 -0.0450 -0.7153  0.6042
  837MOL0     N10369   0.574   6.559   0.816  0.3207  0.1039 -0.0286
  837MOL0     C10370   0.705   6.538   0.794  0.0348 -0.8117 -1.1994
  837MOL0     C10371   0.764   6.634   0.870 -0.8970  0.8456 -0.5798
  837MOL0     C10372   0.918   6.658   0.868  0.7015  0.2621 -0.2766
  837MOL0     C10373   0.970   6.699   1.007 -0.0567 -0.0186  0.1089
  837MOL0     C10374   1.108   6.755   0.984 -0.0271 -0.6627  0.0687
  837MOL0     C10375   1.186   6.775   1.108  0.2420 -0.1571  0.1471
  837MOL0     O10376   1.146   6.886   1.187 -0.2509 -0.1318  0.2956
  837MOL0     C10377   1.240   6.938   1.273  0.0376  0.0651  0.0651
  837MOL0     C10378   1.322   6.852   1.357  0.7154 -0.1071 -0.2808
  837MOL0     C10379   1.413   6.916   1.447  0.5618 -0.9089  0.5231
  837MOL0     C10380   1.423   7.059   1.454 -0.3259  0.0723 -1.1665
  837MOL0     C10381   1.519   7.118   1.554  0.7540  0.1070 -0.0521
  837MOL0     O10382   1.586   7.039   1.639  0.2324 -0.3842 -0.4228
  837MOL0     C10383   1.677   7.107   1.714  0.4848  0.1898  0.8828
  837MOL0     C10384   1.649   7.127   1.855 -0.9596  0.0598  0.6235
  837MOL0     C10385   1.751   7.189   1.925 -0.2946 -1.1566 -0.0808
  837MOL0     C10386   1.865   7.244   1.869 -0.0892  0.6461  0.4011
  837MOL0     O10387   1.955   7.307   1.949 -0.7182 -0.2177 -0.5084
  837MOL0     C10388   1.993   7.239   2.073 -0.4538  0.7671  0.2550
  837MOL0     C10389   2.094   7.114   2.049 -0.4021  0.3377 -0.2582
  837MOL0     C10390   2.165   7.064   2.175 -0.2407 -0.5160  0.2340
  837MOL0     C10391   2.288   7.157   2.218 -0.3326 -0.2256 -0.4023
  837MOL0     C10392   2.421   7.133   2.141 -0.7485  1.1441 -0.1874
  837MOL0     C10393   2.496   6.997   2.161 -0.0579 -0.8768  0.1121
  837MOL0     C10394   2.631   6.993   2.082  1.7097 -0.5615  0.2418
  837MOL0     C10395   2.698   6.856   2.112 -0.1108 -0.4680  0.4058
  837MOL0    Cl10396   2.792   6.900   2.261 -0.0663  0.6361  0.3445
  837MOL0     C10397   1.886   7.237   1.732 -0.0320  0.2731 -1.0445
  837MOL0     C10398   1.793   7.171   1.647  0.4835 -0.2657 -0.4955
  837MOL0     O10399   1.537   7.237   1.541 -0.5539  0.2632  0.3895
  837MOL0     C10400   1.341   7.142   1.379 -0.9105 -0.4962 -0.2479
  837MOL0     C10401   1.255   7.081   1.289  1.0509 -0.4676 -0.2487
  837MOL0     N10402   0.664   6.713   0.929 -0.0586 -0.3783 -0.0359
  837MOL0     N10403   0.551   6.668   0.896  0.3224 -0.2233 -1.0428
  837MOL0     C10404   1.307   6.428   1.304  0.3749 -0.9083  0.2592
  837MOL0     C10405   1.403   6.472   1.392  0.5500 -0.1879  0.1292
  837MOL0     C10406   1.631   6.535   1.739 -0.4027  0.0248  0.0322
  837MOL0     C10407   1.682   6.664   1.723  0.0506  0.8527  0.1994
  837MOL0     C10408   1.803   6.706   1.783 -0.3166 -0.1458  0.1805
  837MOL0     C10409   1.886   6.613   1.852 -0.4818 -0.3605  0.1924
  837MOL0     O10410   2.001   6.660   1.904 -0.1374 -0.0012  0.6754
  837MOL0     C10411   2.120   6.566   1.918 -0.0904 -0.3040  0.2827
  837MOL0     C10412   2.219   6.652   1.993  0.4929 -0.2960  0.5277
  837MOL0     C10413   2.339   6.564   2.020  0.4814  0.3471  0.4330
  837MOL0     C10414   2.428   6.546   1.902  0.2071 -1.0313  0.3108
  837MOL0     C10415   2.496   6.663   1.856 -0.6313  0.2870 -0.1854
  837MOL0     C10416   2.551   6.758   1.797 -0.6568  0.6726  0.1486
  837MOL0     C10417   1.831   6.482   1.886  0.8804 -0.1933  0.4418
  837MOL0     C10418   1.709   6.452   1.820  0.1583  0.4851  0.0216
  837MOL0     H10419   1.178   6.567   1.640  1.8286  1.3236  1.3217
  837MOL0     H10420   1.026   6.504   1.474  0.0379 -0.6288 -0.8063
  837MOL0     H10421   0.899   6.457   1.284  2.0529  1.5139 -2.2740
  837MOL0     H10422   0.942   6.292   1.333  1.8420 -0.4938 -0.1379
  837MOL0     H10423   0.890   6.201   1.124 -2.0998 -0.4370  1.3389
  837MOL0     H10424   0.897   6.361   1.038 -1.5336  0.2144 -0.6139
  837MOL0     H10425   0.712   6.449   1.149  0.4252  0.3870  0.1552
  837MOL0     H10426   0.675   6.296   1.234 -3.3339  1.2931 -0.6537
  837MOL0     H10427   0.704   6.301   0.932 -0.5836  0.7010 -0.1913
  837MOL0     H10428   0.651   6.162   1.042 -2.3516  0.1536 -1.4228
  837MOL0     H10429   0.504   6.428   1.027 -2.8413 -0.0790 -1.4379
  837MOL0     H10430   0.448   6.281   1.097  0.4286  0.7974  0.9339
  837MOL0     H10431   0.345   6.279   0.898  0.6837  0.5194  3.2656
  837MOL0     H10432   0.466   6.164   0.885  0.2917 -0.1864 -0.2599
  837MOL0     H10433   0.590   6.289   0.729 -0.2291 -1.7348  0.9825
  837MOL0     H10434   0.440   6.273   0.676  3.2543  0.6693 -2.1572
  837MOL0     H10435   0.371   6.509   0.770 -0.7305 -0.7056 -1.6217
  837MOL0     H10436   0.484   6.522   0.637  1.4445 -2.1782  0.1986
  837MOL0     H10437   0.752   6.471   0.722  0.2486  0.1389 -1.9656
  837MOL0     H10438   0.932   6.733   0.790  3.0279  0.5690  0.3688
  837MOL0     H10439   0.960   6.561   0.840 -1.9346 -1.4314  1.1342
  837MOL0     H10440   0.962   6.619   1.081 -2.5138 -0.2251 -0.2964
  837MOL0     H10441   0.903   6.779   1.039 -1.9469 -0.9942 -1.2220
  837MOL0     H10442   1.160   6.677   0.928  1.1639 -1.8673  2.7266
  837MOL0     H10443   1.114   6.843   0.918  1.0989 -1.0033 -0.3049
  837MOL0     H10444   1.292   6.776   1.079 -0.5214  2.0741 -3.1753
  837MOL0     H10445   1.183   6.685   1.170  0.5234 -1.0078 -1.0409
  837MOL0     H10446   1.294   6.747   1.357 -2.8570  0.7039 -0.9777
  837MOL0     H10447   1.480   6.856   1.508  0.4402 -1.2395  0.3364
  837MOL0     H10448   1.559   7.086   1.899 -1.5024  0.1517 -0.3724
  837MOL0     H10449   1.736   7.211   2.031  0.1442  0.7699 -0.3677
  837MOL0     H10450   1.915   7.205   2.142  0.6457 -0.1232  1.0978
  837MOL0     H10451   2.033   7.312   2.143  1.1725  0.1083  0.0505
  837MOL0     H10452   2.173   7.131   1.975  0.3335  2.3661  0.9379
  837MOL0     H10453   2.032   7.030   2.018 -2.5330  0.8274  2.3452
  837MOL0     H10454   2.204   6.965   2.150 -1.6384 -0.6705 -1.5450
  837MOL0     H10455   2.098   7.057   2.261  2.2304  0.1732  2.3448
  837MOL0     H10456   2.267   7.264   2.207  3.7912  1.0070  1.5024
  837MOL0     H10457   2.305   7.152   2.326  1.7936  0.3213 -0.6669
  837MOL0     H10458   2.492   7.212   2.167  1.4785 -1.3664  1.8518
  837MOL0     H10459   2.392   7.145   2.036  0.2223  0.8884 -0.4938
  837MOL0     H10460   2.435   6.916   2.118 -1.1136 -0.9567  1.6543
  837MOL0     H10461   2.513   6.975   2.267 -0.8684 -1.6965  0.0892
  837MOL0     H10462   2.617   7.005   1.974  5.2455  2.6523 -0.0375
  837MOL0     H10463   2.708   7.065   2.110  2.0381 -1.0271  0.5453
  837MOL0     H10464   2.760   6.826   2.027 -0.8788  0.6228 -0.5705
  837MOL0     H10465   2.628   6.778   2.140 -2.5023  1.5090  0.2889
  837MOL0     H10466   1.983   7.279   1.706  0.8970 -0.8364  0.4529
  837MOL0     H10467   1.809   7.176   1.540  0.3893  3.9184 -0.4903
  837MOL0     H10468   1.345   7.250   1.389  0.6427 -0.7090  2.5589
  837MOL0     H10469   1.190   7.133   1.219 -1.7361 -0.3402  2.2272
  837MOL0     H10470   1.337   6.379   1.212 -0.0916  0.4728 -0.6695
  837MOL0     H10471   1.505   6.458   1.360  1.0654  0.1501  1.5373
  837MOL0     H10472   1.623   6.729   1.659 -0.4244 -1.7557 -2.2238
  837MOL0     H10473   1.832   6.809   1.767 -0.9192 -0.0859 -0.5385
  837MOL0     H10474   2.161   6.545   1.819  2.7566 -2.0089  1.6854
  837MOL0     H10475   2.090   6.475   1.971  2.1312  0.2415  2.6726
  837MOL0     H10476   2.255   6.742   1.940  2.7410 -1.1523  0.4630
  837MOL0     H10477   2.166   6.690   2.080 -0.5786  1.9079 -0.9665
  837MOL0     H10478   2.308   6.465   2.056 -1.9952  0.7699 -0.3290
  837MOL0     H10479   2.392   6.608   2.105  0.9205  0.5130  0.0741
  837MOL0     H10480   2.504   6.470   1.924  0.3849 -1.1819 -0.7751
  837MOL0     H10481   2.373   6.520   1.812 -0.6197  4.0557 -0.9647
  837MOL0     H10482   2.593   6.846   1.752 -2.5658  1.2837 -0.5398
  837MOL0     H10483   1.866   6.409   1.958  0.1321 -0.6605  0.3383
  837MOL0     H10484   1.678   6.349   1.838 -1.0461  1.0849  1.5511
  838MOL0     O10485   9.400   1.022   3.640  0.2225 -0.1852 -0.1633
  838MOL0     C10486   9.410   0.993   3.762 -0.9814 -0.0915  1.0084
  838MOL0     O10487   9.306   0.978   3.843  0.2632  0.1777 -0.3135
  838MOL0     C10488   9.172   0.968   3.811 -0.6108 -0.0046 -0.4292
  838MOL0     C10489   9.106   0.979   3.690 -0.3319 -0.1527  0.6450
  838MOL0     C10490   8.967   0.981   3.681 -0.6602  0.1215 -0.2920
  838MOL0     C10491   8.897   0.955   3.796 -0.1462  0.7913  0.7556
  838MOL0     O10492   8.756   0.963   3.780  0.0465  0.2332 -0.1378
  838MOL0     C10493   8.664   0.909   3.877 -0.4742  0.8066 -0.4358
  838MOL0     C10494   8.527   0.907   3.818 -0.2551  0.1126  0.0338
  838MOL0     C10495   8.412   0.869   3.911 -0.5129  0.1194 -0.4699
  838MOL0     C10496   8.369   0.966   4.020 -0.5024 -0.5669  0.2181
  838MOL0     C10497   8.268   0.916   4.124 -0.1438 -0.4450  0.3212
  838MOL0     C10498   8.180   1.016   4.190  0.5865 -0.2913 -0.7438
  838MOL0     C10499   8.122   0.951   4.317  1.3465  0.4827 -0.1327
  838MOL0     C10500   8.058   1.064   4.404 -0.4777  1.0608 -0.8148
  838MOL0     N10501   7.949   1.139   4.335 -0.4678 -0.5493  0.8694
  838MOL0     C10502   7.952   1.255   4.252  0.9820  0.1051  0.0135
  838MOL0     C10503   7.828   1.257   4.198 -0.4552 -0.3497  0.1125
  838MOL0     C10504   7.777   1.357   4.097 -0.3757  0.4959 -0.7400
  838MOL0     C10505   7.835   1.325   3.959  0.3449 -1.1230 -0.3125
  838MOL0     C10506   7.810   1.178   3.895  0.4675  0.5791 -0.7404
  838MOL0     C10507   7.669   1.148   3.879  0.2324  0.0119 -0.0191
  838MOL0     O10508   7.607   1.256   3.803 -0.7779  0.5238  0.8061
  838MOL0     C10509   7.470   1.222   3.775 -1.6184  0.9448 -0.4113
  838MOL0     C10510   7.452   1.166   3.646 -0.1431  0.3712 -0.3525
  838MOL0     C10511   7.324   1.139   3.603  0.7312  0.1076  0.0977
  838MOL0     C10512   7.214   1.167   3.679  0.5058  0.1634 -1.4665
  838MOL0     C10513   7.077   1.134   3.630  1.0869 -0.0833 -0.6381
  838MOL0     O10514   6.965   1.129   3.723 -0.9898  0.0908 -0.2664
  838MOL0     C10515   6.844   1.097   3.669 -0.1367  0.7306 -0.3407
  838MOL0     C10516   6.808   0.969   3.639 -0.3539 -0.0719 -0.2420
  838MOL0     C10517   6.677   0.941   3.609  0.6622  0.4822  0.5834
  838MOL0     C10518   6.578   1.039   3.585 -0.6427 -0.4348  0.2536
  838MOL0     O10519   6.454   1.015   3.537 -0.1462 -0.2258  0.8126
  838MOL0     C10520   6.374   0.952   3.641  0.0277  0.5174  0.0535
  838MOL0     C10521   6.225   0.942   3.604 -0.2232 -0.2027  0.0831
  838MOL0     C10522   6.196   0.838   3.496  0.4836  0.2524 -0.0913
  838MOL0     C10523   6.053   0.778   3.510  0.0797 -0.5438 -0.2842
  838MOL0     C10524   6.018   0.648   3.433  0.4628 -0.1840 -0.7267
  838MOL0     C10525   5.870   0.613   3.443  0.1047 -0.0933  0.9874
  838MOL0     C10526   5.839   0.473   3.377 -0.6426 -0.1951 -0.2847
  838MOL0     C10527   5.781   0.487   3.234 -0.3359 -0.0660 -0.2154
  838MOL0    Cl10528   5.772   0.316   3.175  0.4235  0.2777 -0.3373
  838MOL0     C10529   6.619   1.177   3.602 -0.5090  0.3925 -0.5387
  838MOL0     C10530   6.751   1.200   3.657  0.1930  0.7147  0.3324
  838MOL0     O10531   7.067   1.101   3.515 -0.0434  0.2289 -0.2688
  838MOL0     C10532   7.235   1.220   3.810  0.3994  0.9364 -0.1457
  838MOL0     C10533   7.365   1.243   3.858 -0.6908 -0.0686  0.2540
  838MOL0     N10534   7.756   1.152   4.241  0.0978 -0.0126  0.2979
  838MOL0     N10535   7.828   1.087   4.327  0.3980  0.2145  0.5902
  838MOL0     C10536   8.957   0.924   3.915 -0.1187  0.2145  0.2556
  838MOL0     C10537   9.095   0.932   3.927 -0.7285  0.3490 -0.0637
  838MOL0     C10538   9.547   0.996   3.818  0.4391 -0.2425  0.9751
  838MOL0     C10539   9.566   0.974   3.956 -0.4795 -0.6860  0.0394
  838MOL0     C10540   9.695   0.975   4.018 -0.3178 -0.2286  0.0762
  838MOL0     C10541   9.808   0.996   3.939  0.9188  0.3345  0.1818
  838MOL0     O10542   9.940   1.003   3.975 -0.2728 -0.3483 -0.1906
  838MOL0     C10543   9.958   0.981   4.119  0.1918  0.4522 -0.1955
  838MOL0     C10544  10.107   0.987   4.172 -0.1658  1.0794  0.8947
  838MOL0     C10545  10.178   0.850   4.143  0.3468  1.1322 -0.7005
  838MOL0     C10546  10.322   0.826   4.188 -0.5114 -0.2585  0.8149
  838MOL0     C10547  10.417   0.896   4.091 -0.1448  0.4562 -0.4606
  838MOL0     C10548  10.496   0.937   4.009 -0.4706  0.7089  0.0132
  838MOL0     C10549   9.785   1.008   3.812  1.0820  0.1693  0.2558
  838MOL0     C10550   9.662   1.003   3.747 -0.0626  1.0525  0.2320
  838MOL0     H10551   9.156   1.016   3.601 -0.2257  0.2260  0.8582
  838MOL0     H10552   8.914   1.013   3.592 -1.2252  3.5679  1.1130
  838MOL0     H10553   8.659   0.978   3.961  0.9578 -0.6714  0.9477
  838MOL0     H10554   8.695   0.807   3.902  0.2745  0.7635 -1.4783
  838MOL0     H10555   8.532   0.838   3.734  0.1955 -2.6461  2.1847
  838MOL0     H10556   8.509   1.007   3.778 -0.6107 -0.0587 -0.2310
  838MOL0     H10557   8.455   0.782   3.961 -0.1921  0.2725 -0.4741
  838MOL0     H10558   8.329   0.832   3.851 -1.1200 -3.6538  2.3626
  838MOL0     H10559   8.453   1.007   4.077  1.6305 -1.5693 -2.0261
  838MOL0     H10560   8.323   1.049   3.966  0.5437 -0.5137 -0.6240
  838MOL0     H10561   8.320   0.855   4.197  2.7021 -1.2327 -2.1512
  838MOL0     H10562   8.207   0.841   4.073  0.2690 -1.0094  0.6575
  838MOL0     H10563   8.104   1.045   4.117 -1.3372 -2.5025  0.2444
  838MOL0     H10564   8.235   1.108   4.211  0.8547  0.4186 -3.9233
  838MOL0     H10565   8.044   0.883   4.280  1.5333  0.1279  0.1262
  838MOL0     H10566   8.191   0.887   4.373  0.1827 -1.0874 -0.4184
  838MOL0     H10567   8.142   1.125   4.440  2.5284 -3.2939  0.4072
  838MOL0     H10568   8.010   1.018   4.491  2.9330 -2.2863 -0.4173
  838MOL0     H10569   8.038   1.313   4.221  0.6071 -1.0105 -3.4723
  838MOL0     H10570   7.795   1.461   4.126  2.7064 -0.1752  0.0791
  838MOL0     H10571   7.669   1.339   4.088 -0.1380 -2.7998  1.2592
  838MOL0     H10572   7.943   1.344   3.965  0.3770 -0.5746 -2.0877
  838MOL0     H10573   7.794   1.402   3.893  0.0450 -0.2676  0.8364
  838MOL0     H10574   7.856   1.175   3.796 -0.3732  0.8544 -1.1482
  838MOL0     H10575   7.855   1.100   3.957 -1.9525 -0.4572 -0.1690
  838MOL0     H10576   7.620   1.151   3.977 -0.6815  1.8819 -0.4773
  838MOL0     H10577   7.650   1.050   3.835  1.3651  0.3873 -1.4375
  838MOL0     H10578   7.537   1.156   3.580  1.1916  0.6306  1.2805
  838MOL0     H10579   7.309   1.097   3.504 -0.6083  0.4581  0.1308
  838MOL0     H10580   6.883   0.892   3.656  2.2907  2.3845 -0.0278
  838MOL0     H10581   6.658   0.837   3.585 -0.0893  1.1062 -1.7668
  838MOL0     H10582   6.373   1.006   3.736 -0.6162 -1.8330  1.4556
  838MOL0     H10583   6.408   0.850   3.661 -1.3652 -0.1359 -0.7507
  838MOL0     H10584   6.189   1.041   3.576  0.1485  0.7023  2.6076
  838MOL0     H10585   6.178   0.903   3.694  0.1134  1.3683  0.9729
  838MOL0     H10586   6.263   0.752   3.503 -2.0488 -1.9904 -1.3366
  838MOL0     H10587   6.207   0.885   3.398 -2.1923 -0.1522 -0.6816
  838MOL0     H10588   6.026   0.766   3.615  0.2405  0.0333 -0.1756
  838MOL0     H10589   5.994   0.862   3.474 -0.0333  0.6122  2.3732
  838MOL0     H10590   6.081   0.572   3.479 -0.3483 -0.8392 -0.6938
  838MOL0     H10591   6.047   0.656   3.328  2.2009 -0.3169 -0.2883
  838MOL0     H10592   5.814   0.688   3.386  1.4566  0.6361  0.5562
  838MOL0     H10593   5.839   0.619   3.548  0.8511 -2.4652  1.3985
  838MOL0     H10594   5.928   0.409   3.369 -1.9796 -2.0379 -1.4716
  838MOL0     H10595   5.755   0.430   3.433 -1.6218 -0.0490 -1.5791
  838MOL0     H10596   5.858   0.528   3.167 -1.0440 -1.3071 -1.8630
  838MOL0     H10597   5.683   0.536   3.226 -0.0267  0.5034 -0.6018
  838MOL0     H10598   6.563   1.269   3.586  0.7994  1.5148  0.9807
  838MOL0     H10599   6.777   1.303   3.680  1.6277  0.7664 -1.3158
  838MOL0     H10600   7.149   1.238   3.873  2.0624  1.2163  2.2058
  838MOL0     H10601   7.380   1.297   3.952  0.9415 -0.0890  0.0272
  838MOL0     H10602   8.890   0.896   3.996 -0.2634 -0.4025 -0.0708
  838MOL0     H10603   9.128   0.908   4.028  0.5767  1.1244 -0.2846
  838MOL0     H10604   9.476   0.952   4.013 -0.7517 -1.8050 -0.7826
  838MOL0     H10605   9.696   0.971   4.126  2.8288  1.0632  0.1833
  838MOL0     H10606   9.919   0.883   4.147 -0.8303  0.6909 -0.7272
  838MOL0     H10607   9.894   1.053   4.171  2.9402  3.4924 -0.6971
  838MOL0     H10608  10.157   1.070   4.121  0.0597  0.1817 -0.3922
  838MOL0     H10609  10.110   1.005   4.280 -0.4687 -1.2891  1.3567
  838MOL0     H10610  10.169   0.812   4.041 -0.1740  2.1779 -1.0538
  838MOL0     H10611  10.119   0.774   4.196  0.0930  1.3750 -0.6290
  838MOL0     H10612  10.344   0.861   4.289  2.5063  0.8108 -0.1118
  838MOL0     H10613  10.342   0.721   4.166  1.8729  0.3974 -0.5575
  838MOL0     H10614  10.555   0.973   3.927 -0.5804 -0.7527 -0.7552
  838MOL0     H10615   9.871   1.023   3.748 -0.5370  2.2211 -1.5770
  838MOL0     H10616   9.659   1.004   3.639 -4.2469  1.5438  0.1899
  839MOL0     O10617   3.507   9.842   0.110 -0.0066  0.3612 -0.3504
  839MOL0     C10618   3.590   9.904   0.183 -0.4009 -0.1991  0.5357
  839MOL0     O10619   3.575   9.950   0.311 -0.1410  0.4045 -0.0800
  839MOL0     C10620   3.443   9.942   0.352 -0.1888 -0.7805 -0.2776
  839MOL0     C10621   3.347  10.021   0.287 -0.1246  0.1930  0.6053
  839MOL0     C10622   3.209  10.020   0.335 -1.1946 -0.6016  0.2394
  839MOL0     C10623   3.181   9.937   0.445 -0.0689 -0.6767  0.6410
  839MOL0     O10624   3.047   9.939   0.487  0.1358  0.2496  0.0062
  839MOL0     C10625   3.010   9.850   0.600 -0.2842 -0.1046  0.4840
  839MOL0     C10626   2.865   9.884   0.642 -0.6573  0.6182 -0.4549
  839MOL0     C10627   2.807   9.818   0.766 -0.1096  0.7430 -0.2894
  839MOL0     C10628   2.802   9.657   0.757  0.1896  0.3019  0.1493
  839MOL0     C10629   2.732   9.595   0.886 -0.2222 -0.0811  0.0807
  839MOL0     C10630   2.588   9.642   0.908 -0.3027  0.3206  0.3182
  839MOL0     C10631   2.522   9.589   1.027 -0.0491 -0.3041 -0.4702
  839MOL0     C10632   2.398   9.679   1.053 -0.3014 -0.2654  0.6408
  839MOL0     N10633   2.319   9.608   1.149  0.2068  0.0940 -0.2946
  839MOL0     C10634   2.284   9.640   1.274 -0.0970 -0.6824 -0.2449
  839MOL0     C10635   2.189   9.549   1.310 -0.8949 -0.5277 -0.9045
  839MOL0     C10636   2.133   9.545   1.455 -0.2267 -0.4010  0.2864
  839MOL0     C10637   1.983   9.572   1.476 -0.6108 -0.4673  0.5640
  839MOL0     C10638   1.907   9.444   1.473  0.3103  0.7779 -0.5532
  839MOL0     C10639   1.762   9.465   1.510  0.8844  0.4920  0.2274
  839MOL0     O10640   1.692   9.338   1.499 -0.1346  0.1676 -0.8407
  839MOL0     C10641   1.554   9.352   1.509 -0.2673 -0.5655 -0.1126
  839MOL0     C10642   1.499   9.340   1.639 -1.1096 -0.3398 -0.1113
  839MOL0     C10643   1.365   9.352   1.656 -0.1536 -0.1812 -0.4314
  839MOL0     C10644   1.283   9.373   1.545  0.3158  0.8617  0.5774
  839MOL0     C10645   1.131   9.384   1.549 -0.0682 -0.0607 -0.1492
  839MOL0     O10646   1.061   9.382   1.433 -0.2591  0.1716  0.3074
  839MOL0     C10647   0.926   9.415   1.435  0.1688  0.4039  0.8505
  839MOL0     C10648   0.836   9.312   1.408 -0.7027 -0.3442  0.5628
  839MOL0     C10649   0.700   9.340   1.406 -0.1707 -0.1913  0.6322
  839MOL0     C10650   0.646   9.463   1.437  1.2500  0.0742  0.5166
  839MOL0     O10651   0.506   9.486   1.441 -0.9373 -0.0193  0.0469
  839MOL0     C10652   0.420   9.381   1.486  0.4407  0.4007  0.2565
  839MOL0     C10653   0.307   9.452   1.567 -0.2288 -0.5923 -0.0338
  839MOL0     C10654   0.202   9.522   1.493  0.6966 -1.3210  0.5313
  839MOL0     C10655   0.150   9.445   1.371 -0.1187 -0.1761  0.0407
  839MOL0     C10656   0.007   9.480   1.334  1.0633  0.4968 -0.1720
  839MOL0     C10657  -0.095   9.435   1.440  0.2958 -0.1783  0.5726
  839MOL0     C10658  -0.243   9.451   1.395  0.3849  0.5421  0.6188
  839MOL0     C10659  -0.356   9.454   1.500 -0.2174  0.8417  0.0466
  839MOL0    Cl10660  -0.506   9.527   1.434  0.2733  0.1025  0.0309
  839MOL0     C10661   0.738   9.567   1.468  0.3894  0.2416  0.4171
  839MOL0     C10662   0.886   9.546   1.464  0.7841  0.7545  0.1817
  839MOL0     O10663   1.077   9.390   1.666  0.0388  0.8582  0.3044
  839MOL0     C10664   1.336   9.384   1.419 -0.3518 -0.0590  0.3898
  839MOL0     C10665   1.472   9.379   1.398 -0.8895 -0.3002 -0.5861
  839MOL0     N10666   2.173   9.456   1.210  0.5387 -0.4906  0.7429
  839MOL0     N10667   2.250   9.492   1.117 -0.8022  0.9565 -0.1642
  839MOL0     C10668   3.279   9.865   0.508  0.1770 -0.2951 -0.2639
  839MOL0     C10669   3.407   9.864   0.460 -0.4749  0.5445  0.7338
  839MOL0     C10670   3.724   9.927   0.121  0.4277  0.4803 -0.3425
  839MOL0     C10671   3.835   9.972   0.193 -0.5167 -0.3922  0.4552
  839MOL0     C10672   3.955  10.003   0.118 -0.5519 -0.3311  0.1608
  839MOL0     C10673   3.953   9.990  -0.024 -0.1964 -0.1466  0.0650
  839MOL0     O10674   4.068  10.023  -0.096 -0.5332  0.2057  0.5197
  839MOL0     C10675   4.184  10.075  -0.027  0.6028 -0.0735  0.8177
  839MOL0     C10676   4.280  10.123  -0.133 -0.2132  0.1233  0.8903
  839MOL0     C10677   4.338  10.008  -0.219  0.7514 -0.9719 -0.3132
  839MOL0     C10678   4.408  10.065  -0.344  0.2803  0.0421  0.5565
  839MOL0     C10679   4.439   9.946  -0.427  0.5470 -0.0441  0.0046
  839MOL0     C10680   4.449   9.855  -0.507 -0.2981  0.2164 -0.6184
  839MOL0     C10681   3.839   9.951  -0.095  0.0684 -0.8920 -0.2548
  839MOL0     C10682   3.731   9.921  -0.025  0.7515 -0.4379 -0.7459
  839MOL0     H10683   3.382  10.083   0.205 -1.6988 -2.3901 -2.2139
  839MOL0     H10684   3.136  10.086   0.288  0.1328 -0.4764 -1.7639
  839MOL0     H10685   3.068   9.863   0.692 -0.7731 -0.8304  0.9005
  839MOL0     H10686   3.023   9.746   0.570 -1.1189  0.1576 -0.8739
  839MOL0     H10687   2.802   9.865   0.555 -0.5661 -1.0928 -0.1798
  839MOL0     H10688   2.865   9.990   0.668  0.7884  1.3048 -2.9453
  839MOL0     H10689   2.703   9.851   0.760 -0.5860 -0.7949 -0.9241
  839MOL0     H10690   2.844   9.851   0.864  0.7423  1.7844 -0.9404
  839MOL0     H10691   2.738   9.633   0.672  2.0252  0.3553 -1.2933
  839MOL0     H10692   2.899   9.608   0.740 -0.4609 -1.0029  0.0741
  839MOL0     H10693   2.788   9.608   0.979 -0.5782 -0.0026  0.2853
  839MOL0     H10694   2.729   9.487   0.869  1.8528  0.0020 -1.2016
  839MOL0     H10695   2.531   9.618   0.818 -0.0327 -0.6105  0.3877
  839MOL0     H10696   2.593   9.751   0.916 -1.6827  0.3919  0.4077
  839MOL0     H10697   2.494   9.483   1.029  3.0893 -1.2714  1.9928
  839MOL0     H10698   2.580   9.596   1.120 -1.3833  0.5114  0.3292
  839MOL0     H10699   2.340   9.678   0.960  1.7786 -1.6776 -0.7344
  839MOL0     H10700   2.436   9.779   1.075  0.8687 -0.6121  0.2426
  839MOL0     H10701   2.322   9.725   1.329  0.6680 -0.2146 -1.4795
  839MOL0     H10702   2.192   9.620   1.510  0.0260  0.9831 -1.7734
  839MOL0     H10703   2.159   9.449   1.502 -0.6170 -0.5626  0.1724
  839MOL0     H10704   1.940   9.653   1.416 -1.0540 -0.2573  1.1603
  839MOL0     H10705   1.984   9.609   1.579  0.9519  0.2818  0.3119
  839MOL0     H10706   1.893   9.406   1.371  0.0042 -0.4826 -0.0627
  839MOL0     H10707   1.960   9.369   1.532  2.6576  1.8566 -1.1588
  839MOL0     H10708   1.719   9.546   1.449  0.7164  0.1406 -0.1307
  839MOL0     H10709   1.767   9.491   1.616  0.1203  1.0334  0.1457
  839MOL0     H10710   1.562   9.314   1.723 -2.4023 -0.7952  0.7493
  839MOL0     H10711   1.319   9.353   1.755 -2.2340 -1.9725 -1.2974
  839MOL0     H10712   0.879   9.213   1.395  2.3971  1.0644 -1.0148
  839MOL0     H10713   0.633   9.256   1.390 -0.2409 -0.2162  1.0561
  839MOL0     H10714   0.481   9.318   1.552  0.2952  0.6559  0.6407
  839MOL0     H10715   0.385   9.316   1.405  0.3027  0.0841  0.5658
  839MOL0     H10716   0.342   9.512   1.651  2.5390 -2.0652 -0.0078
  839MOL0     H10717   0.253   9.365   1.606 -3.0463  1.3344  0.6945
  839MOL0     H10718   0.241   9.618   1.458 -0.9572 -0.9287 -0.3267
  839MOL0     H10719   0.123   9.548   1.565  0.5089  1.8748 -0.6856
  839MOL0     H10720   0.219   9.451   1.287 -0.3664  0.1261 -0.1399
  839MOL0     H10721   0.157   9.338   1.394 -1.4511 -0.8014 -2.2162
  839MOL0     H10722  -0.013   9.438   1.235 -0.0292  2.0889 -0.6686
  839MOL0     H10723   0.012   9.588   1.317  3.3954  0.1756 -2.0201
  839MOL0     H10724  -0.087   9.496   1.530  0.8643  0.2464  0.2427
  839MOL0     H10725  -0.079   9.330   1.466  0.9676 -1.5823 -4.3893
  839MOL0     H10726  -0.255   9.546   1.342 -0.2535  0.1359  0.0189
  839MOL0     H10727  -0.270   9.369   1.328  0.9288 -0.3330  1.4370
  839MOL0     H10728  -0.334   9.511   1.590 -2.5666  1.3734  0.3591
  839MOL0     H10729  -0.374   9.351   1.532 -2.2302  0.8176 -0.9755
  839MOL0     H10730   0.695   9.663   1.494 -1.8278 -0.9916  1.6224
  839MOL0     H10731   0.961   9.619   1.492  1.4862 -0.7124  2.4352
  839MOL0     H10732   1.274   9.409   1.334 -2.1373 -0.3417  1.5633
  839MOL0     H10733   1.516   9.400   1.301  1.1297  0.9337  0.5291
  839MOL0     H10734   3.268   9.811   0.601 -1.2838  1.0615  0.4049
  839MOL0     H10735   3.482   9.796   0.497  0.7844  1.3251 -0.3176
  839MOL0     H10736   3.838   9.971   0.302  0.5912 -3.2248  0.4944
  839MOL0     H10737   4.040  10.039   0.175 -0.2484  0.3475 -0.7048
  839MOL0     H10738   4.241  10.011   0.041  2.7341  2.7491  1.8524
  839MOL0     H10739   4.157  10.162   0.034  3.4330  1.2964  0.2667
  839MOL0     H10740   4.226  10.201  -0.187 -1.4827  0.0390  1.9778
  839MOL0     H10741   4.360  10.182  -0.087  0.6860 -0.3813  0.0114
  839MOL0     H10742   4.258   9.943  -0.256  1.1414  0.0077 -3.1819
  839MOL0     H10743   4.422   9.955  -0.174  1.6539 -0.6817 -1.5832
  839MOL0     H10744   4.347  10.134  -0.402  0.4154  0.6785  1.1555
  839MOL0     H10745   4.492  10.127  -0.312  0.1194 -0.4637  2.0457
  839MOL0     H10746   4.453   9.787  -0.590  1.5218  1.8357 -1.9659
  839MOL0     H10747   3.837   9.950  -0.203 -2.2581 -1.8726 -0.2632
  839MOL0     H10748   3.641   9.889  -0.075  0.1950  0.0661 -0.0815
  840MOL0     O10749   1.329   8.430   5.581 -0.6792  0.0325  0.1200
  840MOL0     C10750   1.369   8.516   5.662 -0.2155 -0.6541  0.0368
  840MOL0     O10751   1.297   8.570   5.767 -0.2407 -0.1444 -0.2463
  840MOL0     C10752   1.168   8.528   5.791  0.8376 -0.0920 -0.2029
  840MOL0     C10753   1.071   8.505   5.692 -0.0641 -0.1767  0.0372
  840MOL0     C10754   0.939   8.475   5.720  1.1786  1.3900  0.0015
  840MOL0     C10755   0.899   8.455   5.849  0.8707  0.5216 -0.1062
  840MOL0     O10756   0.776   8.409   5.872 -0.5295  0.7870 -0.3108
  840MOL0     C10757   0.747   8.276   5.832  0.5110  0.5275 -0.8491
  840MOL0     C10758   0.607   8.259   5.892  0.0641  0.2936 -0.3368
  840MOL0     C10759   0.509   8.348   5.813  0.1046  0.3662  0.2035
  840MOL0     C10760   0.374   8.330   5.871 -0.0548  0.1065  0.1348
  840MOL0     C10761   0.267   8.381   5.772  0.0645 -0.5816  0.0750
  840MOL0     C10762   0.127   8.343   5.814 -0.9925  0.4329 -0.5887
  840MOL0     C10763   0.014   8.398   5.725 -0.1873  0.0007 -0.0417
  840MOL0     C10764  -0.125   8.370   5.785 -0.6277 -0.4974 -0.1930
  840MOL0     N10765  -0.218   8.462   5.721 -0.1924 -0.8215  0.6150
  840MOL0     C10766  -0.323   8.420   5.641 -0.2018 -0.4688  0.0758
  840MOL0     C10767  -0.396   8.535   5.619  0.0678  0.6577  0.1226
  840MOL0     C10768  -0.525   8.558   5.552 -0.1218  0.1760  0.6729
  840MOL0     C10769  -0.607   8.439   5.588  0.2690  0.1283  1.3609
  840MOL0     C10770  -0.753   8.439   5.539  0.3603 -0.2861 -0.5079
  840MOL0     C10771  -0.830   8.333   5.615  0.1462  0.1079  0.5807
  840MOL0     O10772  -0.790   8.203   5.556  0.2647 -0.0472  0.3605
  840MOL0     C10773  -0.880   8.145   5.476  0.1007 -0.3561  0.4262
  840MOL0     C10774  -0.970   8.219   5.396  0.0345  0.2106 -1.0203
  840MOL0     C10775  -1.059   8.151   5.316  0.6918  0.2858 -0.6669
  840MOL0     C10776  -1.069   8.013   5.315  0.2925  0.3580  0.1650
  840MOL0     C10777  -1.169   7.949   5.229  0.3490 -0.5120 -0.0897
  840MOL0     O10778  -1.258   8.032   5.158  0.1101  0.1482  0.4031
  840MOL0     C10779  -1.351   7.979   5.070  0.2617  0.3752 -0.2668
  840MOL0     C10780  -1.344   7.851   5.012  0.3184 -0.3385  0.0319
  840MOL0     C10781  -1.448   7.810   4.925 -0.1289  0.4710 -0.2275
  840MOL0     C10782  -1.557   7.888   4.910  0.5309  0.6504  0.2784
  840MOL0     O10783  -1.664   7.825   4.841 -0.4200 -0.1762  0.1693
  840MOL0     C10784  -1.796   7.880   4.836  0.3272  0.0213  0.5705
  840MOL0     C10785  -1.883   7.820   4.721 -0.5622 -0.1830 -0.6399
  840MOL0     C10786  -2.003   7.889   4.703  1.2354  0.0086  0.5490
  840MOL0     C10787  -2.097   7.809   4.607 -0.8801  0.8595 -0.4975
  840MOL0     C10788  -2.236   7.881   4.584  0.6892 -0.0802  0.1799
  840MOL0     C10789  -2.314   7.812   4.473 -0.8951  0.7641  0.1228
  840MOL0     C10790  -2.464   7.863   4.472  0.2021 -0.1002 -0.1621
  840MOL0     C10791  -2.533   7.798   4.351  0.0106 -0.5574  0.0600
  840MOL0    Cl10792  -2.490   7.873   4.197 -0.0743  0.1826 -0.0344
  840MOL0     C10793  -1.568   8.013   4.973  0.2838 -0.5003  0.3545
  840MOL0     C10794  -1.459   8.060   5.047  0.4779  0.3747 -0.5941
  840MOL0     O10795  -1.188   7.826   5.243 -0.8075  0.0805 -0.0018
  840MOL0     C10796  -0.984   7.945   5.405 -0.5344  0.0500  0.3816
  840MOL0     C10797  -0.890   8.012   5.481  0.5866 -0.2176  0.5567
  840MOL0     N10798  -0.338   8.639   5.688  0.3345  0.4304 -0.2687
  840MOL0     N10799  -0.229   8.597   5.744  0.3208  0.2678 -0.2239
  840MOL0     C10800   0.980   8.482   5.953 -0.7179 -0.5296 -0.3616
  840MOL0     C10801   1.108   8.535   5.925 -0.0685 -0.2871  0.3994
  840MOL0     C10802   1.503   8.566   5.641 -0.5270  0.8238  0.0181
  840MOL0     C10803   1.596   8.471   5.599 -0.0815 -0.0447  0.1935
  840MOL0     C10804   1.727   8.525   5.591 -0.0731  0.2595  0.3930
  840MOL0     C10805   1.757   8.660   5.601 -1.3060  0.5851  0.3903
  840MOL0     O10806   1.893   8.697   5.587  0.3868 -0.5110  0.7325
  840MOL0     C10807   1.993   8.620   5.651  0.3400 -0.4343 -0.4984
  840MOL0     C10808   2.086   8.572   5.544 -0.0122  0.0708 -0.3399
  840MOL0     C10809   2.149   8.691   5.465  0.7336  0.5623 -0.2057
  840MOL0     C10810   2.250   8.642   5.353  0.3278 -0.3591 -1.1585
  840MOL0     C10811   2.356   8.738   5.322 -0.1731 -0.2213 -0.1418
  840MOL0     C10812   2.447   8.804   5.277  0.3406  0.0948  0.5359
  840MOL0     C10813   1.667   8.746   5.643  0.1771  0.6376  0.2147
  840MOL0     C10814   1.535   8.694   5.669  0.7906  1.0679 -0.0787
  840MOL0     H10815   1.096   8.495   5.587 -2.6951 -2.6988 -0.4551
  840MOL0     H10816   0.881   8.462   5.629 -0.1362  1.6738  0.7689
  840MOL0     H10817   0.805   8.190   5.866 -2.1023 -0.8520  0.4964
  840MOL0     H10818   0.749   8.281   5.723  1.5267  0.0562 -0.8643
  840MOL0     H10819   0.591   8.280   5.998 -1.3845  0.6534 -0.6020
  840MOL0     H10820   0.578   8.155   5.875 -0.1229  0.4712 -1.1314
  840MOL0     H10821   0.492   8.324   5.708  0.0700  1.0871  0.0395
  840MOL0     H10822   0.530   8.456   5.808 -1.4369  0.8754  2.9680
  840MOL0     H10823   0.359   8.224   5.894  0.8460  0.1276  0.8785
  840MOL0     H10824   0.371   8.379   5.969 -0.4392  0.3775 -0.0082
  840MOL0     H10825   0.290   8.352   5.669 -0.8593 -0.7145 -0.1046
  840MOL0     H10826   0.278   8.490   5.774  0.0461 -0.5614 -0.6113
  840MOL0     H10827   0.113   8.389   5.913  0.0838 -1.9958  0.7659
  840MOL0     H10828   0.108   8.236   5.819  0.8466  0.0707 -0.6480
  840MOL0     H10829   0.033   8.505   5.718 -1.9045  0.5257  2.0221
  840MOL0     H10830   0.013   8.355   5.625 -1.8650 -0.9058  0.3249
  840MOL0     H10831  -0.138   8.397   5.890 -4.6385  1.2389 -0.9561
  840MOL0     H10832  -0.162   8.270   5.763  1.5140 -0.5607 -4.5518
  840MOL0     H10833  -0.349   8.318   5.613 -1.2867  0.2344 -1.6359
  840MOL0     H10834  -0.515   8.557   5.443  0.1725 -1.8937  0.6773
  840MOL0     H10835  -0.566   8.654   5.583 -2.1971 -0.7383  0.9249
  840MOL0     H10836  -0.606   8.437   5.697  0.0342  1.4925  1.4040
  840MOL0     H10837  -0.562   8.352   5.539 -1.3283 -0.0018  0.0192
  840MOL0     H10838  -0.805   8.534   5.556  1.7904  0.9684 -2.6051
  840MOL0     H10839  -0.751   8.412   5.433  0.1214 -2.4208 -0.0088
  840MOL0     H10840  -0.937   8.350   5.601  0.3208 -0.3353 -1.5729
  840MOL0     H10841  -0.807   8.348   5.721 -0.3515 -0.2639  0.7499
  840MOL0     H10842  -0.969   8.327   5.386 -0.6803  0.3943  0.6177
  840MOL0     H10843  -1.122   8.216   5.257 -0.7773 -0.1723  0.3587
  840MOL0     H10844  -1.264   7.777   5.015  2.6260  1.6987 -3.7206
  840MOL0     H10845  -1.438   7.718   4.868  1.9086  0.7248 -0.3756
  840MOL0     H10846  -1.794   7.989   4.838 -1.4139  0.1400  4.8547
  840MOL0     H10847  -1.852   7.848   4.924 -1.1534 -2.3367 -1.1046
  840MOL0     H10848  -1.910   7.719   4.753 -1.0443  0.5580  1.4358
  840MOL0     H10849  -1.828   7.818   4.626  0.7050 -1.1711  0.0859
  840MOL0     H10850  -1.984   7.983   4.650 -3.3958  0.1664 -1.2568
  840MOL0     H10851  -2.061   7.910   4.793 -0.8070 -0.9229 -0.4829
  840MOL0     H10852  -2.040   7.782   4.518 -0.0986  0.0201  0.2427
  840MOL0     H10853  -2.113   7.717   4.663  1.5012  0.3731 -0.5241
  840MOL0     H10854  -2.222   7.983   4.547 -0.4725  0.1241  0.2782
  840MOL0     H10855  -2.281   7.892   4.683  2.9884 -2.6982  1.6664
  840MOL0     H10856  -2.298   7.705   4.491 -1.3872  0.1454 -2.7287
  840MOL0     H10857  -2.276   7.826   4.372  2.8906 -1.6163  1.0108
  840MOL0     H10858  -2.514   7.845   4.567  1.4020  0.0563  0.5102
  840MOL0     H10859  -2.457   7.971   4.457 -0.5012 -0.1857 -1.2336
  840MOL0     H10860  -2.641   7.800   4.369 -0.0641 -0.1075 -0.4303
  840MOL0     H10861  -2.496   7.695   4.351  4.7342  0.8753 -0.3303
  840MOL0     H10862  -1.658   8.074   4.972  1.1676  0.8509 -1.1372
  840MOL0     H10863  -1.464   8.157   5.097 -3.8702  0.3531 -0.6126
  840MOL0     H10864  -0.975   7.837   5.407  1.3823  0.1685  0.5847
  840MOL0     H10865  -0.828   7.951   5.545  2.3222  4.0983  3.4581
  840MOL0     H10866   0.928   8.476   6.047 -3.4946  2.9312 -1.4748
  840MOL0     H10867   1.172   8.581   5.998 -0.7901  0.0782  0.8138
  840MOL0     H10868   1.565   8.368   5.584  0.6908 -0.6743  2.4838
  840MOL0     H10869   1.789   8.454   5.537 -2.7539 -1.7611 -0.2670
  840MOL0     H10870   1.955   8.529   5.698 -0.0731  0.1830  0.3781
  840MOL0     H10871   2.042   8.675   5.732  1.2256 -0.3144 -1.0995
  840MOL0     H10872   2.169   8.511   5.582  1.1551  1.3116 -0.8188
  840MOL0     H10873   2.024   8.510   5.478 -1.7104  0.4835  0.7907
  840MOL0     H10874   2.209   8.741   5.541  0.7392  0.1724  0.0495
  840MOL0     H10875   2.067   8.752   5.425  0.7540  1.4990  1.1108
  840MOL0     H10876   2.297   8.547   5.379 -0.5013 -1.0984 -2.2356
  840MOL0     H10877   2.186   8.636   5.264 -0.7918 -2.3019 -0.2856
  840MOL0     H10878   2.525   8.852   5.221  0.7825  0.3054  1.3161
  840MOL0     H10879   1.701   8.847   5.664  1.5614  0.1197  0.5934
  840MOL0     H10880   1.454   8.759   5.700  0.9046  1.6017 -0.8637
  841MOL0     O10881   4.916   2.701   8.762  0.0787 -0.4988  0.0785
  841MOL0     C10882   4.952   2.808   8.717 -0.1102  0.1627 -0.4111
  841MOL0     O10883   4.874   2.911   8.659  0.5687 -0.6790  0.4185
  841MOL0     C10884   4.742   2.875   8.660  0.1360  0.4250 -0.2807
  841MOL0     C10885   4.664   2.895   8.775 -0.8763  0.2153 -0.0840
  841MOL0     C10886   4.539   2.845   8.784 -0.1061  0.2806  0.2843
  841MOL0     C10887   4.480   2.784   8.672  0.1526 -0.1941  0.3533
  841MOL0     O10888   4.352   2.739   8.681  0.6180  0.2236  0.0658
  841MOL0     C10889   4.339   2.600   8.728 -0.8547  0.0441  0.0875
  841MOL0     C10890   4.207   2.583   8.795  0.1371 -0.5850 -0.1099
  841MOL0     C10891   4.100   2.560   8.695 -0.4847  0.3526 -0.4703
  841MOL0     C10892   3.965   2.572   8.762  0.8838  0.0130 -0.1475
  841MOL0     C10893   3.842   2.539   8.673  0.6917 -0.3849  0.7839
  841MOL0     C10894   3.835   2.400   8.603  0.6177  0.0955 -0.3923
  841MOL0     C10895   3.707   2.386   8.529  0.5455  0.7214  0.6877
  841MOL0     C10896   3.697   2.259   8.436  0.2080 -0.2222  0.6936
  841MOL0     N10897   3.716   2.136   8.506 -0.7172  0.4128 -0.0004
  841MOL0     C10898   3.613   2.057   8.554  0.3722 -0.0893  0.1034
  841MOL0     C10899   3.665   1.941   8.607  0.9983  0.3670  0.4835
  841MOL0     C10900   3.578   1.829   8.663  0.1283 -0.4744 -0.3075
  841MOL0     C10901   3.532   1.722   8.567  0.0776  0.4094 -0.4733
  841MOL0     C10902   3.493   1.780   8.431 -0.1149  0.4499 -0.6381
  841MOL0     C10903   3.441   1.677   8.338  0.4792 -0.2660 -0.2547
  841MOL0     O10904   3.311   1.641   8.364 -0.0249  0.4593  0.0003
  841MOL0     C10905   3.258   1.532   8.300 -0.1628  0.6147 -0.2890
  841MOL0     C10906   3.124   1.503   8.345 -0.0187 -0.1202 -1.0454
  841MOL0     C10907   3.055   1.401   8.286 -0.1589 -0.2830  0.6484
  841MOL0     C10908   3.116   1.319   8.188  0.9724  0.2600 -0.3244
  841MOL0     C10909   3.037   1.203   8.139  0.5684  0.5750 -0.5481
  841MOL0     O10910   3.106   1.125   8.060 -0.3813 -0.0545 -0.3606
  841MOL0     C10911   3.049   1.008   7.995 -0.5981 -0.1121  0.1203
  841MOL0     C10912   2.922   0.995   7.949  0.1110 -0.5734 -0.0577
  841MOL0     C10913   2.875   0.902   7.863 -0.3021  0.4648 -0.5495
  841MOL0     C10914   2.971   0.817   7.803  0.3934  0.2150 -0.2261
  841MOL0     O10915   2.954   0.726   7.701 -0.3977 -0.1097 -0.5270
  841MOL0     C10916   2.825   0.722   7.636  0.3840  0.6858  0.0133
  841MOL0     C10917   2.730   0.634   7.703  0.3092 -0.0926 -0.6094
  841MOL0     C10918   2.583   0.645   7.678 -0.0800  0.2219 -0.9780
  841MOL0     C10919   2.517   0.526   7.751  0.1760  0.1936  0.2567
  841MOL0     C10920   2.365   0.538   7.732  0.4234  0.2477 -0.1761
  841MOL0     C10921   2.290   0.439   7.823 -0.1648  0.1451  0.1128
  841MOL0     C10922   2.157   0.414   7.754 -0.7001  0.4414  0.2252
  841MOL0     C10923   2.060   0.342   7.840  0.7267 -0.7389  0.4242
  841MOL0    Cl10924   1.997   0.427   7.980 -0.2903  0.2741  0.3832
  841MOL0     C10925   3.107   0.831   7.835  0.1482 -0.0164 -0.1365
  841MOL0     C10926   3.143   0.922   7.935  0.3363  0.3624  0.9369
  841MOL0     O10927   2.927   1.181   8.190 -0.0890 -0.2508  0.9585
  841MOL0     C10928   3.251   1.353   8.139 -0.3304  0.2579  0.0366
  841MOL0     C10929   3.317   1.461   8.192 -0.1805  0.6749 -0.0898
  841MOL0     N10930   3.798   1.954   8.584  0.0086  0.4856  0.1072
  841MOL0     N10931   3.825   2.059   8.520 -0.5019  0.1058 -1.1605
  841MOL0     C10932   4.559   2.765   8.554  0.5085 -0.3157  0.3198
  841MOL0     C10933   4.697   2.814   8.549  0.6233 -0.2673  0.0888
  841MOL0     C10934   5.097   2.853   8.730  0.3560  1.4412 -0.6532
  841MOL0     C10935   5.185   2.770   8.805 -0.0080  0.2408  0.1343
  841MOL0     C10936   5.324   2.798   8.818 -0.3824  0.5821  0.2336
  841MOL0     C10937   5.378   2.903   8.745 -0.5039 -0.5507 -0.9856
  841MOL0     O10938   5.511   2.924   8.733 -0.7495 -0.0355  0.1621
  841MOL0     C10939   5.597   2.805   8.773  0.8605 -0.3702 -0.5414
  841MOL0     C10940   5.742   2.835   8.722  0.2820 -0.3286  0.1423
  841MOL0     C10941   5.759   2.835   8.566 -0.8278 -0.6178 -0.3089
  841MOL0     C10942   5.897   2.833   8.512 -0.9106  0.6775  0.2100
  841MOL0     C10943   5.948   2.696   8.536 -0.1217  0.0273  0.0397
  841MOL0     C10944   5.992   2.588   8.535 -0.5088  0.4153 -1.1049
  841MOL0     C10945   5.294   2.989   8.671  0.1445 -0.2926 -0.1421
  841MOL0     C10946   5.154   2.968   8.664  0.1639  0.4220 -0.5211
  841MOL0     H10947   4.715   2.940   8.860  0.2832 -1.2436  0.0299
  841MOL0     H10948   4.491   2.856   8.880  1.3893 -0.7775  1.1940
  841MOL0     H10949   4.409   2.582   8.811 -1.9182 -2.0268  0.6123
  841MOL0     H10950   4.346   2.522   8.652 -3.9401 -0.9965  0.7285
  841MOL0     H10951   4.175   2.667   8.858 -2.2568 -1.3564 -0.2145
  841MOL0     H10952   4.219   2.510   8.876  0.3255  1.3245  1.6558
  841MOL0     H10953   4.119   2.455   8.672  0.7534 -0.6301  4.0281
  841MOL0     H10954   4.115   2.614   8.601 -0.2297  0.2783 -0.4725
  841MOL0     H10955   3.963   2.501   8.845  1.2323  1.6423  1.3138
  841MOL0     H10956   3.962   2.673   8.805  0.4743 -0.3521  0.6896
  841MOL0     H10957   3.835   2.618   8.597 -0.5066  0.9513  2.1930
  841MOL0     H10958   3.752   2.552   8.734 -0.4949  0.3664 -1.0181
  841MOL0     H10959   3.852   2.321   8.677  3.7831  0.6947 -0.3406
  841MOL0     H10960   3.904   2.382   8.521 -2.5113 -0.3719 -3.1344
  841MOL0     H10961   3.621   2.404   8.595 -0.4818  1.0512 -0.6739
  841MOL0     H10962   3.710   2.476   8.465 -0.4004  1.6733  1.9261
  841MOL0     H10963   3.781   2.261   8.366  2.0374  0.3483  2.7924
  841MOL0     H10964   3.602   2.257   8.382  0.8649  2.2465 -0.6814
  841MOL0     H10965   3.506   2.075   8.548 -0.1784 -2.3995  1.6550
  841MOL0     H10966   3.486   1.873   8.705  1.9473  1.6101  1.8176
  841MOL0     H10967   3.630   1.786   8.749 -0.1587 -0.7504 -0.2712
  841MOL0     H10968   3.445   1.679   8.617  2.5507 -1.8439  2.2617
  841MOL0     H10969   3.610   1.647   8.549  2.0429  1.8274  1.5406
  841MOL0     H10970   3.415   1.857   8.439 -2.2542 -1.5897 -0.8761
  841MOL0     H10971   3.575   1.827   8.377  0.5276 -0.7789 -0.7452
  841MOL0     H10972   3.504   1.588   8.335  0.1951 -0.4525 -2.2079
  841MOL0     H10973   3.428   1.733   8.245 -2.6693  2.1191  1.4319
  841MOL0     H10974   3.072   1.568   8.416 -1.6716 -2.5094  0.0458
  841MOL0     H10975   2.958   1.374   8.327 -0.7914  1.0134  0.0666
  841MOL0     H10976   2.856   1.077   7.973  1.7272  1.5263 -2.2855
  841MOL0     H10977   2.769   0.906   7.842 -0.8320  0.6270  1.8675
  841MOL0     H10978   2.835   0.681   7.536 -0.0177 -2.9862  1.3118
  841MOL0     H10979   2.787   0.823   7.614  2.9091  1.3298 -1.8594
  841MOL0     H10980   2.747   0.646   7.810  2.0531  1.8757 -1.0296
  841MOL0     H10981   2.761   0.531   7.684 -0.5798 -0.4493 -0.1656
  841MOL0     H10982   2.551   0.634   7.574  0.9116 -0.3701 -1.2389
  841MOL0     H10983   2.554   0.743   7.716  3.1255 -0.1482  3.1951
  841MOL0     H10984   2.551   0.426   7.720  0.4457 -0.0003  1.1505
  841MOL0     H10985   2.546   0.541   7.855 -0.0095  3.0742 -0.0371
  841MOL0     H10986   2.339   0.516   7.628 -0.8289 -0.0504  0.1867
  841MOL0     H10987   2.342   0.643   7.755  3.2324  1.1587 -1.0427
  841MOL0     H10988   2.267   0.473   7.924  1.3694  1.4895  0.0444
  841MOL0     H10989   2.339   0.341   7.821  2.2150  1.2686 -0.2611
  841MOL0     H10990   2.130   0.515   7.721  1.0882  0.7748 -0.3224
  841MOL0     H10991   2.167   0.347   7.669 -3.1987  0.9550 -0.5372
  841MOL0     H10992   2.085   0.241   7.874 -1.0405 -1.0770  0.8165
  841MOL0     H10993   1.971   0.327   7.779  0.4305 -6.5108  1.6766
  841MOL0     H10994   3.178   0.765   7.786  3.0186  0.1830  3.3739
  841MOL0     H10995   3.247   0.942   7.956 -0.2685  3.6782  1.3229
  841MOL0     H10996   3.297   1.304   8.053  0.5356  2.0546 -0.5766
  841MOL0     H10997   3.418   1.483   8.162  0.7012  0.1889  2.2896
  841MOL0     H10998   4.504   2.717   8.475  0.3476  3.2827 -1.9798
  841MOL0     H10999   4.756   2.785   8.462 -1.2048  2.3653 -2.1999
  841MOL0     H11000   5.148   2.678   8.849 -0.9005  0.4578 -0.1504
  841MOL0     H11001   5.383   2.734   8.884 -1.0171  1.6381  1.9001
  841MOL0     H11002   5.563   2.720   8.713  2.4521  1.4422 -4.3621
  841MOL0     H11003   5.603   2.792   8.881  3.3870 -1.6823 -0.7547
  841MOL0     H11004   5.760   2.933   8.768  2.5353 -1.4466  1.8795
  841MOL0     H11005   5.806   2.757   8.765 -2.2409 -2.3505  0.5001
  841MOL0     H11006   5.718   2.930   8.530  0.6060 -0.4364 -1.5865
  841MOL0     H11007   5.708   2.750   8.519  0.4040 -0.6706 -1.6307
  841MOL0     H11008   5.900   2.834   8.403  0.9465  0.3031  0.2382
  841MOL0     H11009   5.950   2.921   8.549  1.2912 -1.1814  1.7127
  841MOL0     H11010   6.022   2.489   8.509 -0.7762 -0.9600  3.0822
  841MOL0     H11011   5.355   3.074   8.642  2.6710 -1.3916  1.5484
  841MOL0     H11012   5.088   3.027   8.601 -0.5075 -0.7917 -0.9926
  842MOL0     O11013  11.133   5.452   5.382 -0.4591  0.3109 -0.2837
  842MOL0     C11014  11.179   5.559   5.403  0.1516  0.0049  0.1207
  842MOL0     O11015  11.114   5.677   5.400 -0.3189  0.3035  0.4051
  842MOL0     C11016  10.981   5.668   5.423 -0.9364  0.2125  0.1299
  842MOL0     C11017  10.923   5.673   5.548 -0.4696  0.9661  0.0239
  842MOL0     C11018  10.787   5.663   5.571 -0.3510 -0.1633 -0.0034
  842MOL0     C11019  10.707   5.638   5.458  1.1124  0.0701  0.7783
  842MOL0     O11020  10.574   5.613   5.484  0.3844 -0.7636  0.9350
  842MOL0     C11021  10.492   5.543   5.384 -0.0701  0.0530  0.4556
  842MOL0     C11022  10.363   5.501   5.452 -0.1600  0.8905 -0.4265
  842MOL0     C11023  10.279   5.408   5.366  0.6187  0.2548 -0.0071
  842MOL0     C11024  10.128   5.393   5.411 -0.2641 -0.1448  0.7411
  842MOL0     C11025  10.060   5.273   5.336 -1.2002 -0.8245 -0.1615
  842MOL0     C11026   9.917   5.262   5.361 -0.4712  0.1355  0.4212
  842MOL0     C11027   9.843   5.166   5.257 -0.8088  0.0052  0.1952
  842MOL0     C11028   9.696   5.173   5.286  0.4538 -0.5221 -0.0851
  842MOL0     N11029   9.627   5.060   5.225 -0.0994 -0.4377 -0.5658
  842MOL0     C11030   9.557   4.970   5.296  0.0288  0.2054  0.2923
  842MOL0     C11031   9.503   4.887   5.204  0.0655  0.5195  0.1318
  842MOL0     C11032   9.405   4.790   5.247  0.0838  0.2613  0.1851
  842MOL0     C11033   9.270   4.848   5.281  0.5238 -0.2650  0.6448
  842MOL0     C11034   9.165   4.738   5.309 -0.7124 -0.2165  0.0074
  842MOL0     C11035   9.022   4.790   5.285 -0.6325  0.0478  0.0635
  842MOL0     O11036   8.984   4.887   5.383 -0.7664 -0.1101 -0.2456
  842MOL0     C11037   8.865   4.947   5.374  0.3108  0.1611 -0.2735
  842MOL0     C11038   8.847   5.069   5.440  0.4537 -0.0098  0.3665
  842MOL0     C11039   8.723   5.137   5.436 -0.4995 -0.1172 -0.1924
  842MOL0     C11040   8.618   5.095   5.353 -0.3036  0.4853 -0.1790
  842MOL0     C11041   8.488   5.159   5.348  0.0644 -0.3573  0.2829
  842MOL0     O11042   8.389   5.098   5.275  0.0623 -1.0926 -0.5292
  842MOL0     C11043   8.269   5.160   5.258 -0.1436  0.1228 -0.2989
  842MOL0     C11044   8.259   5.252   5.149 -0.6498  0.9895 -0.0246
  842MOL0     C11045   8.133   5.302   5.112  0.5956  1.0069  1.0559
  842MOL0     C11046   8.015   5.261   5.188  0.5591  0.2379  0.1578
  842MOL0     O11047   7.889   5.302   5.154 -0.1877 -0.0631  0.0451
  842MOL0     C11048   7.855   5.313   5.011 -1.2157 -0.4311 -0.2826
  842MOL0     C11049   7.717   5.380   5.017  0.1441  0.5547 -0.4874
  842MOL0     C11050   7.651   5.356   4.878  0.8721 -0.5145  0.4530
  842MOL0     C11051   7.496   5.348   4.893  0.2286 -0.1525 -0.1152
  842MOL0     C11052   7.435   5.371   4.756  0.2847  0.4671 -0.3565
  842MOL0     C11053   7.278   5.389   4.762 -1.3118 -0.6308 -0.2083
  842MOL0     C11054   7.212   5.427   4.637  0.5036  0.5119 -0.7585
  842MOL0     C11055   7.169   5.573   4.639 -0.1201  0.3015 -0.7605
  842MOL0    Cl11056   7.080   5.603   4.487  0.1908 -0.3326  0.3492
  842MOL0     C11057   8.033   5.181   5.296  0.6205 -0.0555 -0.9829
  842MOL0     C11058   8.160   5.133   5.339  0.3661 -0.8912  0.1225
  842MOL0     O11059   8.480   5.270   5.397 -0.4671 -0.0780  0.1546
  842MOL0     C11060   8.646   4.980   5.284  0.0948  0.1131 -0.5912
  842MOL0     C11061   8.766   4.912   5.284  0.6175 -0.0190 -0.3690
  842MOL0     N11062   9.553   4.918   5.085  0.9071  0.7214  0.4579
  842MOL0     N11063   9.639   5.010   5.098 -0.6805 -0.1593  0.7331
  842MOL0     C11064  10.763   5.632   5.323 -0.0288  0.4936 -0.4632
  842MOL0     C11065  10.907   5.647   5.308  0.0454 -0.2850  0.1809
  842MOL0     C11066  11.322   5.568   5.434 -0.0811  0.3210 -0.9934
  842MOL0     C11067  11.370   5.675   5.515  0.5890 -0.6796 -0.0614
  842MOL0     C11068  11.513   5.677   5.554  0.3593 -0.3561 -0.0273
  842MOL0     C11069  11.609   5.605   5.481  0.8849 -0.5049  0.8042
  842MOL0     O11070  11.749   5.620   5.514 -0.6994  0.4254  0.1572
  842MOL0     C11071  11.827   5.632   5.404 -0.2405  0.0623 -0.1256
  842MOL0     C11072  11.888   5.766   5.415  0.0259 -0.7549  0.7397
  842MOL0     C11073  12.003   5.797   5.310  0.3261  0.3440  0.2841
  842MOL0     C11074  11.957   5.816   5.167  0.0757 -0.1355  1.0359
  842MOL0     C11075  11.852   5.923   5.154 -0.1774 -0.3726  0.0616
  842MOL0     C11076  11.772   6.009   5.150  0.9470  0.8406 -0.6721
  842MOL0     C11077  11.552   5.506   5.397  0.7524  0.6951 -0.0257
  842MOL0     C11078  11.414   5.481   5.381  0.5344 -0.7029 -0.0503
  842MOL0     H11079  10.977   5.672   5.642 -0.4859 -4.2941  0.2889
  842MOL0     H11080  10.752   5.677   5.673  0.8422  1.8020  0.1785
  842MOL0     H11081  10.558   5.462   5.354  0.0802  0.5663 -0.6569
  842MOL0     H11082  10.469   5.604   5.295  1.8602  1.3906  0.8152
  842MOL0     H11083  10.291   5.580   5.477 -0.5704 -0.1151  1.8038
  842MOL0     H11084  10.382   5.452   5.549  1.0395  3.2724  0.6259
  842MOL0     H11085  10.327   5.310   5.372  1.9785  0.8818 -0.3271
  842MOL0     H11086  10.296   5.439   5.263  0.6421 -0.3885 -0.2045
  842MOL0     H11087  10.110   5.388   5.519  0.3556 -0.4167  0.8366
  842MOL0     H11088  10.072   5.481   5.377  1.5766  0.4534 -0.8724
  842MOL0     H11089  10.106   5.177   5.358 -0.5725 -0.6052 -0.4793
  842MOL0     H11090  10.073   5.300   5.230  2.1937  0.7684  0.4897
  842MOL0     H11091   9.867   5.359   5.352 -3.1019 -1.2770 -1.9210
  842MOL0     H11092   9.909   5.230   5.465  0.1345  0.8804  0.7064
  842MOL0     H11093   9.852   5.204   5.155 -1.7118 -2.8871 -1.0866
  842MOL0     H11094   9.883   5.064   5.251  0.1068  0.4367 -1.6470
  842MOL0     H11095   9.664   5.275   5.259  2.0179 -0.0711 -0.3401
  842MOL0     H11096   9.679   5.171   5.394  2.4374  0.0470  0.2767
  842MOL0     H11097   9.523   4.977   5.399  1.5836  1.7243  0.7553
  842MOL0     H11098   9.450   4.725   5.323  1.2339 -1.7304 -2.0729
  842MOL0     H11099   9.397   4.726   5.159  0.2100  0.5006 -0.0024
  842MOL0     H11100   9.230   4.914   5.203 -0.7620 -2.0343 -0.2561
  842MOL0     H11101   9.282   4.917   5.366  1.5744  3.5416 -2.3336
  842MOL0     H11102   9.186   4.652   5.244  1.7999 -0.2752  0.7990
  842MOL0     H11103   9.175   4.704   5.412  2.1061  2.2296  0.7016
  842MOL0     H11104   8.959   4.701   5.298  0.8856 -1.4658 -2.1351
  842MOL0     H11105   9.008   4.832   5.185 -0.0582  1.5913  0.5958
  842MOL0     H11106   8.916   5.115   5.510  1.5050 -0.8228 -0.1002
  842MOL0     H11107   8.729   5.228   5.496 -1.5040 -1.4648  2.0576
  842MOL0     H11108   8.347   5.291   5.101 -0.4319 -1.3036 -1.6685
  842MOL0     H11109   8.125   5.380   5.038 -0.3700  0.3764  0.4810
  842MOL0     H11110   7.853   5.216   4.962 -3.0296 -0.1508 -0.8501
  842MOL0     H11111   7.920   5.372   4.947 -2.2136  0.4469 -0.5251
  842MOL0     H11112   7.725   5.485   5.045  3.9951  0.2288  0.0772
  842MOL0     H11113   7.672   5.326   5.101  1.8159 -0.7865 -0.4124
  842MOL0     H11114   7.684   5.260   4.838  2.0952 -0.5351  1.4623
  842MOL0     H11115   7.685   5.427   4.801 -2.0520  0.4274 -0.0785
  842MOL0     H11116   7.473   5.252   4.940 -1.6729  1.8403  3.5786
  842MOL0     H11117   7.460   5.422   4.966  1.7837 -1.6521  2.3030
  842MOL0     H11118   7.451   5.279   4.699 -3.0568 -1.4154  1.4433
  842MOL0     H11119   7.485   5.457   4.711  0.5584  0.8182  0.5909
  842MOL0     H11120   7.265   5.477   4.826  0.6132  2.2430 -3.4021
  842MOL0     H11121   7.221   5.305   4.802 -1.8893  0.5551  1.5845
  842MOL0     H11122   7.280   5.410   4.553  0.3017 -0.5782 -0.7216
  842MOL0     H11123   7.129   5.357   4.624  1.7423 -2.1038  3.3944
  842MOL0     H11124   7.254   5.642   4.640  0.6561 -0.6000 -2.0465
  842MOL0     H11125   7.101   5.596   4.722 -1.7935  1.3802 -2.3330
  842MOL0     H11126   7.952   5.155   5.363  0.3417  0.1291 -1.2462
  842MOL0     H11127   8.176   5.077   5.430 -2.4836  0.0640  1.3219
  842MOL0     H11128   8.566   4.952   5.217 -0.1119 -0.0735 -0.2671
  842MOL0     H11129   8.777   4.820   5.229  3.6233  0.5428 -0.8867
  842MOL0     H11130  10.702   5.633   5.233  0.0412  0.9427 -0.5086
  842MOL0     H11131  10.944   5.650   5.206 -0.8321 -1.1417 -0.1755
  842MOL0     H11132  11.304   5.733   5.578  1.6415  1.4242 -0.8172
  842MOL0     H11133  11.540   5.757   5.622 -0.8077 -1.1619  1.4338
  842MOL0     H11134  11.772   5.634   5.310 -2.4348  1.8896  1.1012
  842MOL0     H11135  11.906   5.556   5.408 -0.4866 -0.1560  0.9344
  842MOL0     H11136  11.819   5.850   5.419  1.7985  0.7468  3.2267
  842MOL0     H11137  11.936   5.776   5.513  1.4994 -0.8196  0.0511
  842MOL0     H11138  12.081   5.721   5.311  0.9763  0.9771 -0.4441
  842MOL0     H11139  12.054   5.891   5.336  1.3372 -0.2060  0.3465
  842MOL0     H11140  12.043   5.842   5.105  1.0562 -2.4666  1.2879
  842MOL0     H11141  11.907   5.723   5.140 -2.1716  0.9590  1.1732
  842MOL0     H11142  11.702   6.089   5.136  0.8724  1.0338  0.6405
  842MOL0     H11143  11.613   5.433   5.344 -1.3421 -1.3262  0.1730
  842MOL0     H11144  11.381   5.396   5.323 -1.0199 -0.3420  0.2596
  843MOL0     O11145   1.337   4.655   0.297  0.6513  0.1129  0.3665
  843MOL0     C11146   1.305   4.740   0.219 -0.5646 -0.2929 -0.0706
  843MOL0     O11147   1.176   4.769   0.172  0.0725  0.5989  0.7165
  843MOL0     C11148   1.063   4.707   0.230  0.5349  0.3292 -0.3963
  843MOL0     C11149   1.048   4.668   0.366 -0.2929  0.1900  0.0170
  843MOL0     C11150   0.926   4.627   0.423  0.3675  0.5560 -0.0979
  843MOL0     C11151   0.809   4.618   0.339  0.4586 -0.1731 -0.2222
  843MOL0     O11152   0.690   4.560   0.371 -0.2100 -0.4827 -0.5065
  843MOL0     C11153   0.681   4.479   0.488 -0.2512  0.1663  0.1902
  843MOL0     C11154   0.546   4.486   0.558 -0.8679  0.2070 -0.2461
  843MOL0     C11155   0.427   4.438   0.474  0.7660 -0.0439  0.5755
  843MOL0     C11156   0.290   4.429   0.544 -0.6969 -0.4041  0.0087
  843MOL0     C11157   0.177   4.390   0.453 -0.2212  0.0161 -0.2492
  843MOL0     C11158   0.062   4.325   0.535 -0.6679 -0.2349 -0.4205
  843MOL0     C11159  -0.055   4.280   0.449  0.3439 -0.7083 -0.2895
  843MOL0     C11160  -0.121   4.402   0.388  0.0097 -0.2882  0.1768
  843MOL0     N11161  -0.259   4.378   0.349 -0.2580 -0.0093 -0.0089
  843MOL0     C11162  -0.368   4.345   0.426  0.1821  0.3293  0.0252
  843MOL0     C11163  -0.472   4.327   0.339  0.6050  0.3356  0.2083
  843MOL0     C11164  -0.611   4.278   0.376 -0.4585  0.0004  0.4007
  843MOL0     C11165  -0.703   4.320   0.272  0.6521 -0.4277  0.3347
  843MOL0     C11166  -0.839   4.245   0.289 -0.3919  0.2794  0.3999
  843MOL0     C11167  -0.923   4.230   0.164 -0.9265  0.0285 -0.2577
  843MOL0     O11168  -1.029   4.138   0.187  0.2288  0.2133  0.6375
  843MOL0     C11169  -1.163   4.176   0.189  0.1622 -0.4188 -0.1355
  843MOL0     C11170  -1.237   4.063   0.191  0.7010  1.2644 -0.2148
  843MOL0     C11171  -1.371   4.073   0.162 -0.3302 -0.2091  0.5544
  843MOL0     C11172  -1.439   4.194   0.144 -0.0070 -0.2140  0.2354
  843MOL0     C11173  -1.587   4.199   0.133 -0.0386  0.0861  0.0031
  843MOL0     O11174  -1.643   4.316   0.156 -0.7041 -0.6052  0.0172
  843MOL0     C11175  -1.777   4.320   0.132 -0.3429 -0.1266  0.4699
  843MOL0     C11176  -1.849   4.281   0.016  0.4586  0.2475  0.2909
  843MOL0     C11177  -1.989   4.298   0.006  0.9654 -0.2920  0.0613
  843MOL0     C11178  -2.067   4.349   0.114  0.0694  0.8046 -0.0984
  843MOL0     O11179  -2.203   4.353   0.126 -0.1239 -1.0105  0.2500
  843MOL0     C11180  -2.273   4.360   0.003 -0.7253  0.2275  0.3442
  843MOL0     C11181  -2.401   4.443   0.004 -0.3518  0.7872 -0.3114
  843MOL0     C11182  -2.382   4.581   0.075  0.1401 -0.0058  0.1005
  843MOL0     C11183  -2.525   4.642   0.077  0.3233 -0.2058 -0.7622
  843MOL0     C11184  -2.536   4.783   0.123  0.5256 -0.8495 -0.5639
  843MOL0     C11185  -2.682   4.832   0.128 -0.1902 -0.4095  0.2363
  843MOL0     C11186  -2.689   4.983   0.149  0.2488  0.2789 -0.1985
  843MOL0     C11187  -2.838   5.029   0.151  0.1444  0.9031 -0.4647
  843MOL0    Cl11188  -2.851   5.204   0.116 -0.1058  0.3445 -0.1717
  843MOL0     C11189  -1.997   4.370   0.236  0.1172 -0.0058  0.2518
  843MOL0     C11190  -1.853   4.361   0.237  0.5824  0.0242  0.7432
  843MOL0     O11191  -1.639   4.095   0.081 -0.3387 -0.2900  0.2499
  843MOL0     C11192  -1.357   4.312   0.143 -0.5434 -0.7464  0.1222
  843MOL0     C11193  -1.217   4.304   0.163  0.2319 -0.9031 -0.3906
  843MOL0     N11194  -0.419   4.352   0.210 -0.4654  0.2474  0.2030
  843MOL0     N11195  -0.294   4.391   0.219  0.3251  0.0123  0.2556
  843MOL0     C11196   0.823   4.665   0.211  0.3712  0.1603  0.1442
  843MOL0     C11197   0.941   4.714   0.161 -0.7408  0.1835 -0.6890
  843MOL0     C11198   1.420   4.821   0.156 -0.1402 -0.5373  0.5446
  843MOL0     C11199   1.401   4.898   0.048  0.1381 -0.2690 -0.1919
  843MOL0     C11200   1.508   4.961  -0.011  0.1596  0.9007  0.4031
  843MOL0     C11201   1.636   4.943   0.040 -0.3554  0.3868 -0.3053
  843MOL0     O11202   1.734   5.010  -0.025 -0.2056  0.4087 -0.2801
  843MOL0     C11203   1.868   5.005   0.014  0.1477 -1.0314  0.6760
  843MOL0     C11204   1.956   5.092  -0.075  0.0236 -0.0797 -0.2713
  843MOL0     C11205   2.102   5.079  -0.042 -0.7297 -0.7008  0.0550
  843MOL0     C11206   2.190   5.121  -0.153 -0.0754 -0.4001  0.8594
  843MOL0     C11207   2.334   5.105  -0.119  0.1667  0.0813 -0.8479
  843MOL0     C11208   2.456   5.096  -0.105  0.8436 -0.0644  0.2921
  843MOL0     C11209   1.657   4.874   0.156 -0.3480  0.0598  0.2176
  843MOL0     C11210   1.548   4.808   0.212 -0.2491  0.1826  0.1951
  843MOL0     H11211   1.132   4.683   0.433 -0.2902 -1.3233  0.3862
  843MOL0     H11212   0.931   4.602   0.529  3.6565  1.0913 -0.0264
  843MOL0     H11213   0.752   4.508   0.565 -1.0344 -0.3690  1.1296
  843MOL0     H11214   0.702   4.373   0.476 -1.0339 -0.2279  2.0064
  843MOL0     H11215   0.542   4.581   0.611 -0.0134  0.1744 -0.1059
  843MOL0     H11216   0.550   4.405   0.631 -1.3032 -0.3156 -0.7880
  843MOL0     H11217   0.439   4.334   0.441 -2.5924  0.0236 -1.3206
  843MOL0     H11218   0.415   4.494   0.380  1.0577 -2.0625 -0.7188
  843MOL0     H11219   0.308   4.351   0.619  0.0421  1.3765  1.7448
  843MOL0     H11220   0.261   4.521   0.595 -0.8659 -0.8010  0.6469
  843MOL0     H11221   0.218   4.329   0.372  0.4570  0.2145 -0.0561
  843MOL0     H11222   0.137   4.479   0.403  0.2553  0.6749  0.5234
  843MOL0     H11223   0.036   4.402   0.609  1.7540  0.8665 -0.6183
  843MOL0     H11224   0.105   4.235   0.580  1.4337 -0.1799 -2.1543
  843MOL0     H11225  -0.011   4.217   0.371  1.3012 -2.5667  1.6505
  843MOL0     H11226  -0.122   4.220   0.512  1.1157  0.1741  1.4392
  843MOL0     H11227  -0.057   4.436   0.306 -0.1546 -1.8919 -0.6546
  843MOL0     H11228  -0.130   4.470   0.473 -0.3006 -0.2761  0.1346
  843MOL0     H11229  -0.372   4.337   0.534 -1.1094 -0.7000 -0.0639
  843MOL0     H11230  -0.652   4.320   0.469 -2.6575  1.4442 -1.1467
  843MOL0     H11231  -0.600   4.169   0.384 -3.1601 -0.2936  0.8164
  843MOL0     H11232  -0.651   4.313   0.176  0.9314 -1.4681  0.5408
  843MOL0     H11233  -0.729   4.424   0.290 -0.9152 -0.6009 -0.6856
  843MOL0     H11234  -0.820   4.142   0.322  3.6210 -0.0144 -2.1400
  843MOL0     H11235  -0.898   4.296   0.366 -1.1572  1.8987 -1.1892
  843MOL0     H11236  -0.850   4.186   0.095  1.0650 -1.9278  2.8339
  843MOL0     H11237  -0.951   4.330   0.131  0.2840  0.0110 -1.4432
  843MOL0     H11238  -1.190   3.968   0.214 -3.2606 -0.4336  1.8274
  843MOL0     H11239  -1.415   3.974   0.171  0.9321 -1.2333 -2.8549
  843MOL0     H11240  -1.802   4.231  -0.068 -1.9263 -0.1035 -0.9451
  843MOL0     H11241  -2.037   4.267  -0.086 -0.1108  0.0260  0.5106
  843MOL0     H11242  -2.292   4.256  -0.027  2.2596  0.1741 -1.8317
  843MOL0     H11243  -2.203   4.405  -0.068 -1.4170 -0.6545 -0.9354
  843MOL0     H11244  -2.470   4.384   0.064 -1.1345  4.3570  2.6960
  843MOL0     H11245  -2.446   4.465  -0.093 -0.0131  3.2853  0.0251
  843MOL0     H11246  -2.313   4.646   0.021 -1.9494  1.7294 -0.6085
  843MOL0     H11247  -2.343   4.552   0.173 -2.4548 -0.4209  1.0883
  843MOL0     H11248  -2.586   4.638  -0.014 -0.7368 -0.0995 -0.0649
  843MOL0     H11249  -2.582   4.583   0.149  1.1285  1.9036  1.7736
  843MOL0     H11250  -2.471   4.849   0.066  3.5660 -2.1790  1.1355
  843MOL0     H11251  -2.505   4.798   0.227  0.3488  0.8038 -0.7127
  843MOL0     H11252  -2.736   4.790   0.213 -0.8518 -2.7304 -1.2572
  843MOL0     H11253  -2.720   4.796   0.032 -0.2683 -3.4480  1.3087
  843MOL0     H11254  -2.636   4.998   0.244  0.6524 -1.4749 -0.1160
  843MOL0     H11255  -2.639   5.036   0.067  0.7553 -1.9579 -1.4212
  843MOL0     H11256  -2.881   5.000   0.247 -1.5934 -0.0175 -1.4734
  843MOL0     H11257  -2.895   4.972   0.077  0.7376 -0.5370  0.1413
  843MOL0     H11258  -2.042   4.412   0.325  3.0981 -1.4817  2.6267
  843MOL0     H11259  -1.808   4.400   0.328 -1.5394  1.8051  1.1096
  843MOL0     H11260  -1.397   4.411   0.126  0.7459 -0.2010  0.1424
  843MOL0     H11261  -1.156   4.393   0.152 -2.2816  0.8308 -0.8522
  843MOL0     H11262   0.742   4.659   0.138  2.9743 -1.7723 -2.8202
  843MOL0     H11263   0.947   4.766   0.066  1.2634  0.1708 -0.6087
  843MOL0     H11264   1.307   4.927   0.004  0.2347  1.2234  0.5369
  843MOL0     H11265   1.498   5.018  -0.103 -1.5125 -2.3136 -1.5818
  843MOL0     H11266   1.900   4.901   0.008  2.5886 -0.2684 -1.0994
  843MOL0     H11267   1.884   5.059   0.108  1.9012  4.3175 -2.2693
  843MOL0     H11268   1.945   5.066  -0.181  1.8275 -0.4429 -0.4021
  843MOL0     H11269   1.937   5.199  -0.068  2.4110  0.3673 -0.1314
  843MOL0     H11270   2.115   4.975  -0.010  0.1886 -0.0649  1.8782
  843MOL0     H11271   2.120   5.133   0.052 -3.8157 -0.0565  0.4121
  843MOL0     H11272   2.163   5.066  -0.244 -0.5548  2.6870 -1.0235
  843MOL0     H11273   2.164   5.226  -0.170  0.3947  0.0165  2.5939
  843MOL0     H11274   2.562   5.086  -0.105  1.3356  3.8261  0.2242
  843MOL0     H11275   1.757   4.857   0.195 -0.2772  2.6317  1.3579
  843MOL0     H11276   1.566   4.746   0.299 -2.5659 -0.1831  0.4815
  844MOL0     O11277   9.625   9.922   5.175 -0.4602 -0.8012 -0.0726
  844MOL0     C11278   9.635   9.950   5.056 -0.5112  0.5312 -0.4095
  844MOL0     O11279   9.735  10.027   5.002 -0.1641 -0.0373 -0.6795
  844MOL0     C11280   9.853  10.037   5.074 -0.1913 -0.5830  0.1695
  844MOL0     C11281   9.863  10.115   5.190 -0.3191 -0.1139 -0.6510
  844MOL0     C11282   9.986  10.122   5.256  0.3339  0.0828 -0.5986
  844MOL0     C11283  10.106  10.068   5.201  0.3069  0.5440  0.0966
  844MOL0     O11284  10.231  10.100   5.251 -0.1817  0.4983  0.0902
  844MOL0     C11285  10.251  10.195   5.357 -0.4730 -0.4608  0.1020
  844MOL0     C11286  10.397  10.189   5.386  0.1385  0.6419  0.0821
  844MOL0     C11287  10.423  10.271   5.513 -0.1108  0.2067 -0.3423
  844MOL0     C11288  10.565  10.276   5.555  0.2688  0.5042  0.6071
  844MOL0     C11289  10.592  10.391   5.655 -1.1040 -0.7699 -0.0770
  844MOL0     C11290  10.726  10.365   5.724 -0.2738 -0.4241  0.3766
  844MOL0     C11291  10.696  10.254   5.837 -0.4673 -0.7000 -0.2995
  844MOL0     C11292  10.570  10.271   5.940  0.0247 -0.2841 -0.0633
  844MOL0     N11293  10.579  10.391   6.020 -0.6749  0.1219  0.5293
  844MOL0     C11294  10.677  10.425   6.113  0.6328 -0.1149 -0.5141
  844MOL0     C11295  10.651  10.558   6.131 -0.4700  0.1284 -0.2551
  844MOL0     C11296  10.741  10.651   6.214 -0.1222  0.0082  0.2640
  844MOL0     C11297  10.672  10.778   6.269  0.1982 -1.0177 -0.4233
  844MOL0     C11298  10.575  10.741   6.387 -0.8311 -0.4284  0.2830
  844MOL0     C11299  10.494  10.867   6.419 -0.4860 -0.2886  0.1542
  844MOL0     O11300  10.382  10.840   6.503 -0.5189 -0.4683  0.3898
  844MOL0     C11301  10.270  10.804   6.432  0.2808 -0.2674 -0.4144
  844MOL0     C11302  10.263  10.783   6.293 -0.5205 -0.7310 -0.2821
  844MOL0     C11303  10.142  10.749   6.233  0.1620  0.1003 -0.4097
  844MOL0     C11304  10.024  10.719   6.307 -0.2071 -0.7359  0.0243
  844MOL0     C11305   9.904  10.666   6.246 -0.3725 -0.4514 -0.4252
  844MOL0     O11306   9.901  10.648   6.112  0.2766 -0.2041 -0.7957
  844MOL0     C11307   9.789  10.625   6.038  0.1364 -0.2768 -0.0600
  844MOL0     C11308   9.782  10.677   5.914  0.5459 -0.4719  0.5590
  844MOL0     C11309   9.678  10.651   5.828 -0.3140  0.2026 -0.0701
  844MOL0     C11310   9.575  10.561   5.864  0.6585 -0.9379  0.3270
  844MOL0     O11311   9.470  10.525   5.786  0.8216 -0.1032 -0.0643
  844MOL0     C11312   9.480  10.526   5.644  0.4911 -0.3567  0.0889
  844MOL0     C11313   9.371  10.431   5.604  0.6149 -0.6632  0.3051
  844MOL0     C11314   9.364  10.420   5.449  0.0603 -0.6308 -0.7829
  844MOL0     C11315   9.252  10.329   5.420 -0.2190  0.5524 -0.3697
  844MOL0     C11316   9.248  10.310   5.274 -0.0035 -0.2852 -0.0210
  844MOL0     C11317   9.146  10.211   5.224  0.5116  0.3788 -0.6493
  844MOL0     C11318   9.131  10.213   5.070 -0.7319  0.1880 -0.6339
  844MOL0     C11319   9.048  10.096   5.028  0.4241 -0.5002  0.5567
  844MOL0    Cl11320   8.883  10.138   5.090  0.3119 -0.4443  0.2176
  844MOL0     C11321   9.587  10.504   5.996 -0.0257  0.4248  0.2822
  844MOL0     C11322   9.690  10.538   6.085  0.5092 -0.3656 -0.6796
  844MOL0     O11323   9.808  10.651   6.314  0.8799 -0.1026  0.0592
  844MOL0     C11324  10.040  10.728   6.448 -0.4580  0.0467 -0.4262
  844MOL0     C11325  10.158  10.777   6.507  0.8911 -0.5247 -0.3675
  844MOL0     N11326  10.535  10.594   6.066  0.7264 -0.7283 -0.4620
  844MOL0     N11327  10.497  10.497   5.996  0.8046  0.5212  0.3552
  844MOL0     C11328  10.092  10.013   5.076 -0.0634 -0.2510 -0.0648
  844MOL0     C11329   9.969   9.993   5.010 -0.2826 -0.2773  0.0535
  844MOL0     C11330   9.533   9.895   4.970 -0.3002 -0.7445  0.1577
  844MOL0     C11331   9.437   9.807   5.016  0.5898  0.1739 -0.4210
  844MOL0     C11332   9.331   9.770   4.925  0.6589 -0.2277 -0.1667
  844MOL0     C11333   9.320   9.812   4.795  0.2044 -0.4811 -0.2162
  844MOL0     O11334   9.218   9.778   4.710  0.0628  0.1218  0.0730
  844MOL0     C11335   9.106   9.701   4.756 -0.8324 -0.0105 -0.3703
  844MOL0     C11336   8.995   9.697   4.646 -0.5553 -0.4096 -0.2102
  844MOL0     C11337   8.877   9.604   4.687  0.2109 -0.4934  0.0488
  844MOL0     C11338   8.831   9.529   4.561  0.1788 -0.7425 -0.5276
  844MOL0     C11339   8.941   9.460   4.499  0.4678 -0.4473  0.4883
  844MOL0     C11340   9.037   9.405   4.452 -0.2977 -0.1076  0.4543
  844MOL0     C11341   9.431   9.889   4.750  0.3173  0.3704  0.3985
  844MOL0     C11342   9.531   9.934   4.839 -0.4825  0.1203 -0.1623
  844MOL0     H11343   9.769  10.145   5.235 -0.0628  1.1749 -0.9427
  844MOL0     H11344   9.998  10.184   5.344  1.4598  2.0413 -2.0560
  844MOL0     H11345  10.186  10.169   5.441 -0.6990 -1.6197 -0.4095
  844MOL0     H11346  10.222  10.299   5.341 -1.1987 -0.3234  2.0192
  844MOL0     H11347  10.450  10.225   5.298 -0.8285 -1.7115 -1.5919
  844MOL0     H11348  10.426  10.085   5.405 -0.7336  0.6832  1.8439
  844MOL0     H11349  10.369  10.227   5.597 -1.2663  1.0380 -0.6081
  844MOL0     H11350  10.380  10.367   5.483 -3.9114 -2.1323 -3.3802
  844MOL0     H11351  10.589  10.176   5.592 -3.8170 -1.1500 -0.6340
  844MOL0     H11352  10.616  10.300   5.461 -3.1315 -0.5058 -1.6787
  844MOL0     H11353  10.503  10.406   5.717  0.4334  0.6141  1.8733
  844MOL0     H11354  10.593  10.485   5.599 -1.9636 -0.4355  0.4477
  844MOL0     H11355  10.769  10.457   5.764  2.1022 -0.8431 -1.0378
  844MOL0     H11356  10.807  10.332   5.659 -2.1122 -0.0945 -2.2189
  844MOL0     H11357  10.689  10.150   5.803  1.0067 -0.8198 -0.2763
  844MOL0     H11358  10.782  10.252   5.904 -1.1809 -0.5342  0.6340
  844MOL0     H11359  10.575  10.178   5.998 -0.2793 -1.8002 -2.3142
  844MOL0     H11360  10.473  10.268   5.888 -1.5340  1.4101  2.5457
  844MOL0     H11361  10.765  10.373   6.151  1.7103  0.6733 -1.8418
  844MOL0     H11362  10.812  10.680   6.137 -1.6768  0.6745 -0.9816
  844MOL0     H11363  10.787  10.595   6.296  1.2596  1.3197  0.4164
  844MOL0     H11364  10.628  10.828   6.182  1.1761  0.4431 -0.1128
  844MOL0     H11365  10.738  10.851   6.317 -0.6461 -1.3524  1.3186
  844MOL0     H11366  10.513  10.659   6.349  0.4320 -1.3041  0.0485
  844MOL0     H11367  10.619  10.699   6.478 -1.9712 -1.4789  0.3767
  844MOL0     H11368  10.472  10.925   6.329  2.1667  0.7641  0.0802
  844MOL0     H11369  10.561  10.936   6.471  0.4795  0.3958 -1.8946
  844MOL0     H11370  10.352  10.805   6.234 -1.2413  0.6697 -0.8987
  844MOL0     H11371  10.156  10.737   6.126 -0.2365  1.4193 -0.6176
  844MOL0     H11372   9.857  10.751   5.887  0.3079  0.1279  1.5267
  844MOL0     H11373   9.689  10.692   5.728  1.3669 -1.3936 -0.5872
  844MOL0     H11374   9.576  10.486   5.609  0.0414 -0.8146 -0.6441
  844MOL0     H11375   9.463  10.623   5.598 -2.1375  0.1190  1.8275
  844MOL0     H11376   9.276  10.459   5.650  0.5295 -0.8181  0.2238
  844MOL0     H11377   9.383  10.330   5.642  0.0561 -1.3999 -1.3547
  844MOL0     H11378   9.458  10.370   5.422  2.0135  1.7689  1.1338
  844MOL0     H11379   9.353  10.514   5.394  0.0088 -1.1415 -1.6599
  844MOL0     H11380   9.261  10.229   5.463 -0.2318  0.8096  0.2560
  844MOL0     H11381   9.162  10.376   5.460  1.9111  3.1712  1.7879
  844MOL0     H11382   9.351  10.285   5.245  1.1498  3.0632  0.7791
  844MOL0     H11383   9.227  10.404   5.222  0.3562 -0.8177 -1.1585
  844MOL0     H11384   9.050  10.228   5.274  0.0459  0.9222 -1.6905
  844MOL0     H11385   9.177  10.110   5.253 -1.3705 -0.1092 -0.1962
  844MOL0     H11386   9.090  10.306   5.028 -0.3553  0.2538 -0.8664
  844MOL0     H11387   9.233  10.196   5.035 -0.2540 -1.8686  1.5642
  844MOL0     H11388   9.076  10.003   5.077 -0.6462 -0.2828  1.6408
  844MOL0     H11389   9.029  10.095   4.920 -0.2057 -1.2833  0.6621
  844MOL0     H11390   9.506  10.443   6.035 -1.2790  3.0391  2.0493
  844MOL0     H11391   9.705  10.500   6.186  1.6948 -0.2942 -0.8105
  844MOL0     H11392   9.964  10.702   6.521 -0.3572  1.2640  0.1399
  844MOL0     H11393  10.153  10.783   6.615  1.5608  1.9104 -0.4088
  844MOL0     H11394  10.172   9.976   5.012 -0.3599  1.0222 -1.2125
  844MOL0     H11395   9.967   9.932   4.920  2.7247 -3.7653  2.1271
  844MOL0     H11396   9.442   9.765   5.116  2.9100  1.0481 -0.1069
  844MOL0     H11397   9.261   9.696   4.962 -0.3079  0.7838  0.0472
  844MOL0     H11398   9.062   9.747   4.845  1.3413  0.7283  0.3850
  844MOL0     H11399   9.137   9.601   4.788 -2.4441 -0.7148 -0.9008
  844MOL0     H11400   8.951   9.796   4.637 -0.8850 -0.6314 -1.2808
  844MOL0     H11401   9.040   9.666   4.551  1.0761 -1.2439  0.7783
  844MOL0     H11402   8.792   9.667   4.715  1.6556  1.4516  0.3194
  844MOL0     H11403   8.908   9.536   4.767  1.9209 -0.0248 -0.1673
  844MOL0     H11404   8.747   9.464   4.587 -0.2965  0.7398  2.0375
  844MOL0     H11405   8.790   9.604   4.493 -1.3755  0.9777  2.1031
  844MOL0     H11406   9.119   9.349   4.414  0.3975  0.9696  0.3121
  844MOL0     H11407   9.439   9.925   4.648  0.6795 -2.5117 -0.6862
  844MOL0     H11408   9.609  10.005   4.813  1.8485 -2.5470 -0.9685
  845MOL0     O11409   0.998   9.971   3.898 -0.0121 -0.2237 -0.0994
  845MOL0     C11410   1.029   9.919   4.007 -0.0304 -0.2362 -0.4776
  845MOL0     O11411   0.984   9.802   4.053 -0.2877  0.0933 -0.4007
  845MOL0     C11412   0.884   9.737   3.981 -0.3312  0.3865 -0.0066
  845MOL0     C11413   0.756   9.799   3.957 -0.8912  0.3319  0.3619
  845MOL0     C11414   0.643   9.733   3.899 -0.1024 -0.0351  0.7870
  845MOL0     C11415   0.655   9.594   3.863  0.2944  0.0189  0.3223
  845MOL0     O11416   0.553   9.518   3.816 -0.4769 -0.5855 -0.0031
  845MOL0     C11417   0.426   9.573   3.787 -0.1361  0.4208 -0.5813
  845MOL0     C11418   0.338   9.591   3.909 -0.1924 -0.2165  0.2457
  845MOL0     C11419   0.209   9.670   3.880 -0.5978  0.2497  0.1757
  845MOL0     C11420   0.140   9.693   4.007  0.4022  0.2019  0.2080
  845MOL0     C11421   0.013   9.784   3.977 -0.6487  0.2114 -0.1656
  845MOL0     C11422  -0.082   9.733   3.873  0.1485 -0.3324 -0.0421
  845MOL0     C11423  -0.191   9.841   3.866  0.0072 -0.1396  0.3191
  845MOL0     C11424  -0.290   9.827   3.753 -1.1841  0.2866 -0.4633
  845MOL0     N11425  -0.420   9.900   3.775 -0.2331 -0.0152 -0.3008
  845MOL0     C11426  -0.528   9.868   3.856 -0.4231  0.6046 -0.6737
  845MOL0     C11427  -0.618   9.966   3.818 -0.5528 -0.4853  0.3453
  845MOL0     C11428  -0.746   9.991   3.875 -0.3119  0.1488 -0.3639
  845MOL0     C11429  -0.854   9.925   3.791  0.8960  0.2851  0.2162
  845MOL0     C11430  -0.993   9.958   3.863  0.0606  0.2040  0.3326
  845MOL0     C11431  -1.114   9.921   3.779 -0.7536  0.0891 -0.6981
  845MOL0     O11432  -1.111   9.989   3.654  0.5563 -0.5400  0.2984
  845MOL0     C11433  -1.172  10.112   3.650  0.0214 -0.0609  0.8030
  845MOL0     C11434  -1.178  10.189   3.535 -0.9571  0.4435  0.0675
  845MOL0     C11435  -1.239  10.310   3.524 -0.2672 -0.0904  0.0032
  845MOL0     C11436  -1.313  10.363   3.629 -0.1358 -0.1635 -0.5151
  845MOL0     C11437  -1.392  10.483   3.617  0.4615  0.3296 -0.3326
  845MOL0     O11438  -1.493  10.488   3.706  0.4479  0.1051 -0.0705
  845MOL0     C11439  -1.569  10.598   3.718 -0.3156 -1.2599 -0.0296
  845MOL0     C11440  -1.519  10.718   3.769  0.1252  0.7047 -0.3466
  845MOL0     C11441  -1.598  10.824   3.780  0.6734 -0.6603 -0.0823
  845MOL0     C11442  -1.734  10.822   3.742 -0.9822  0.9129  0.5382
  845MOL0     O11443  -1.809  10.935   3.757  0.0518 -0.3492 -0.1693
  845MOL0     C11444  -1.789  11.013   3.877  0.0941 -0.1814  0.1729
  845MOL0     C11445  -1.920  11.051   3.933  0.3544  0.1346 -0.4169
  845MOL0     C11446  -2.009  10.932   3.976  0.6156  0.0628  0.6820
  845MOL0     C11447  -2.140  10.981   4.052  0.1332 -0.8788  0.0355
  845MOL0     C11448  -2.234  10.869   4.095 -0.1224 -0.6483  0.4771
  845MOL0     C11449  -2.349  10.919   4.188  0.0083  0.8225  0.1233
  845MOL0     C11450  -2.426  10.802   4.243 -0.4152 -0.1807  0.2428
  845MOL0     C11451  -2.531  10.855   4.333 -1.2270  0.1643 -0.0174
  845MOL0    Cl11452  -2.567  10.733   4.461 -0.0421 -0.0614  0.0463
  845MOL0     C11453  -1.788  10.706   3.686 -0.0275  0.1090 -0.4481
  845MOL0     C11454  -1.702  10.597   3.668 -0.3190 -0.1499 -0.1809
  845MOL0     O11455  -1.357  10.572   3.542  0.4236 -0.1551  0.2704
  845MOL0     C11456  -1.318  10.281   3.745  0.3140  0.6752 -0.2101
  845MOL0     C11457  -1.242  10.171   3.755 -0.4528  0.3587 -0.3126
  845MOL0     N11458  -0.561  10.049   3.728 -0.0197 -0.3474 -0.1050
  845MOL0     N11459  -0.447  10.009   3.693  0.2600  0.4544 -0.6876
  845MOL0     C11460   0.781   9.534   3.878 -1.0721 -0.2747  0.2171
  845MOL0     C11461   0.892   9.596   3.944 -0.4088  0.2220 -0.1794
  845MOL0     C11462   1.101  10.015   4.097  0.3437 -0.4862  1.0705
  845MOL0     C11463   1.101  10.154   4.059 -0.5661 -0.1014  0.3679
  845MOL0     C11464   1.162  10.243   4.143  0.1865  0.7254  0.1796
  845MOL0     C11465   1.229  10.203   4.260 -0.0143  0.5560  0.6759
  845MOL0     O11466   1.283  10.307   4.341  0.1311 -0.1137 -0.0662
  845MOL0     C11467   1.348  10.269   4.466 -0.6972 -0.7893  0.9731
  845MOL0     C11468   1.342  10.402   4.545 -0.2403 -1.0698  0.4761
  845MOL0     C11469   1.416  10.383   4.687  0.9937  0.1911  0.5291
  845MOL0     C11470   1.431  10.515   4.760  0.8435 -0.4875 -0.3009
  845MOL0     C11471   1.303  10.570   4.796 -0.4851  0.4378 -0.1517
  845MOL0     C11472   1.191  10.610   4.812  0.1715 -0.4124 -0.4662
  845MOL0     C11473   1.232  10.068   4.300 -0.0033  0.2614  0.4959
  845MOL0     C11474   1.159   9.982   4.219  0.1890  0.1526  0.0902
  845MOL0     H11475   0.738   9.903   3.981 -1.1180  0.9245 -2.1290
  845MOL0     H11476   0.553   9.791   3.882  1.5126  2.5907  0.6409
  845MOL0     H11477   0.371   9.491   3.740  0.5126 -1.2495  1.4285
  845MOL0     H11478   0.439   9.665   3.729  2.8011 -0.1281 -0.9352
  845MOL0     H11479   0.392   9.644   3.988 -0.3931  1.1847 -0.5316
  845MOL0     H11480   0.314   9.490   3.943 -1.8920  0.9206  2.7749
  845MOL0     H11481   0.158   9.609   3.805  0.4040 -0.1712 -0.1819
  845MOL0     H11482   0.239   9.765   3.835  4.3445  0.2339  2.7076
  845MOL0     H11483   0.108   9.599   4.053  0.9733 -0.4221 -0.6249
  845MOL0     H11484   0.208   9.727   4.086 -0.4758  1.7383  0.3343
  845MOL0     H11485   0.049   9.882   3.945  0.1622 -0.4784 -1.4499
  845MOL0     H11486  -0.039   9.799   4.073 -3.2615  0.4963 -1.5358
  845MOL0     H11487  -0.110   9.633   3.906  3.4004 -0.9512  1.2596
  845MOL0     H11488  -0.042   9.725   3.772  2.5846  1.3352  0.6777
  845MOL0     H11489  -0.247   9.851   3.960 -1.2607  1.4741 -0.5535
  845MOL0     H11490  -0.145   9.936   3.839  3.3177 -2.0281 -1.3486
  845MOL0     H11491  -0.301   9.720   3.732  0.4645 -0.3480  1.5732
  845MOL0     H11492  -0.236   9.861   3.665 -0.2671 -0.6303 -0.2698
  845MOL0     H11493  -0.537   9.785   3.927  2.6004  2.1798  1.8275
  845MOL0     H11494  -0.763  10.098   3.862 -1.2268  0.0381 -0.1682
  845MOL0     H11495  -0.754   9.972   3.982 -2.3457  0.5557 -0.3976
  845MOL0     H11496  -0.832   9.818   3.796 -0.5629 -0.0330  0.3781
  845MOL0     H11497  -0.860   9.960   3.688  0.8559  1.0955  0.4836
  845MOL0     H11498  -0.991   9.897   3.955  2.4746 -2.0290 -1.0558
  845MOL0     H11499  -0.993  10.065   3.886  0.3828  0.3824 -0.4839
  845MOL0     H11500  -1.211   9.930   3.828 -2.2164  2.0672 -3.6965
  845MOL0     H11501  -1.113   9.813   3.757  1.6997  0.5530 -3.5083
  845MOL0     H11502  -1.131  10.156   3.443 -0.6069  1.2210 -0.0386
  845MOL0     H11503  -1.232  10.361   3.428 -0.6934 -1.6119 -0.8620
  845MOL0     H11504  -1.418  10.724   3.807  0.3769 -5.2338  0.9583
  845MOL0     H11505  -1.559  10.919   3.814 -1.5567 -0.3591  1.9262
  845MOL0     H11506  -1.731  11.100   3.845 -0.5485  0.3222  0.3527
  845MOL0     H11507  -1.734  10.953   3.949 -1.9294  1.0217  2.8901
  845MOL0     H11508  -1.974  11.115   3.863  2.7230  1.3096 -1.2773
  845MOL0     H11509  -1.893  11.119   4.015  2.3207 -0.6426 -0.3629
  845MOL0     H11510  -1.955  10.873   4.050  0.1832 -0.2867  0.7182
  845MOL0     H11511  -2.038  10.868   3.892 -1.7151  1.4140  0.3798
  845MOL0     H11512  -2.103  11.020   4.148  1.0255  1.2502 -1.1061
  845MOL0     H11513  -2.194  11.063   4.004 -0.7888 -1.6610 -0.2850
  845MOL0     H11514  -2.171  10.800   4.152 -0.0774 -0.6929  0.3737
  845MOL0     H11515  -2.285  10.822   4.011 -1.8170 -0.4078  1.3247
  845MOL0     H11516  -2.418  10.985   4.134  3.5056  2.5579 -2.6917
  845MOL0     H11517  -2.305  10.972   4.273 -2.6043  2.2475  0.6902
  845MOL0     H11518  -2.481  10.753   4.162 -0.9652  1.0010 -0.1267
  845MOL0     H11519  -2.373  10.722   4.297 -2.7115 -1.1124  1.2303
  845MOL0     H11520  -2.612  10.883   4.265 -2.5294 -3.3352 -0.1314
  845MOL0     H11521  -2.498  10.941   4.392 -1.2416 -1.5300  2.6816
  845MOL0     H11522  -1.895  10.707   3.672 -0.2113  2.1857  0.6326
  845MOL0     H11523  -1.737  10.503   3.624 -1.1961  0.6652 -1.2791
  845MOL0     H11524  -1.366  10.301   3.841  0.8545  0.4701  0.1080
  845MOL0     H11525  -1.234  10.115   3.848 -0.0183 -3.8149 -2.5990
  845MOL0     H11526   0.799   9.429   3.857 -1.3371 -0.1487 -0.6672
  845MOL0     H11527   0.985   9.544   3.970  0.1749  0.9150 -0.8517
  845MOL0     H11528   1.063  10.189   3.963 -3.1597  2.2165  2.0694
  845MOL0     H11529   1.158  10.350   4.124 -0.2210  1.2068  2.6435
  845MOL0     H11530   1.453  10.244   4.450 -0.7952  0.8235 -3.7755
  845MOL0     H11531   1.297  10.190   4.523 -2.7154  0.9857  1.7445
  845MOL0     H11532   1.390  10.487   4.496 -1.5283 -0.3887  0.3682
  845MOL0     H11533   1.236  10.424   4.555 -0.2506 -0.2318 -1.1950
  845MOL0     H11534   1.513  10.334   4.669  0.3072 -0.3689 -2.0880
  845MOL0     H11535   1.367  10.314   4.756  0.9261 -0.2133  0.0823
  845MOL0     H11536   1.487  10.489   4.850 -1.6295 -0.6981  1.2713
  845MOL0     H11537   1.481  10.582   4.690  3.7027 -0.6500  1.4124
  845MOL0     H11538   1.093  10.653   4.811  1.5843  3.1565 -0.9712
  845MOL0     H11539   1.276  10.031   4.392 -2.4295 -2.5639  0.6660
  845MOL0     H11540   1.151   9.877   4.246 -3.2925  0.1831 -0.3545
  846MOL0     O11541   5.886   3.887  10.040 -0.1146  0.0807 -0.1090
  846MOL0     C11542   5.896   3.986   9.963  0.2808  0.3560 -0.1153
  846MOL0     O11543   5.797   4.052   9.904 -0.4116  0.0477  0.0979
  846MOL0     C11544   5.671   4.013   9.909 -0.6087  0.0667  0.4624
  846MOL0     C11545   5.605   3.943  10.017 -0.3504  1.0621  0.2055
  846MOL0     C11546   5.466   3.928  10.027 -0.1194 -0.5288 -0.3919
  846MOL0     C11547   5.381   3.982   9.926  0.9379  0.4864  0.4018
  846MOL0     O11548   5.245   3.985   9.935  0.1655 -0.6190 -0.4563
  846MOL0     C11549   5.166   3.891  10.006 -0.2617 -0.3581 -0.1258
  846MOL0     C11550   5.028   3.950   9.984 -0.8271  0.3653 -0.4547
  846MOL0     C11551   4.918   3.864  10.034  0.3330  0.8895 -0.3530
  846MOL0     C11552   4.781   3.924   9.996 -0.5476  0.0492  0.1575
  846MOL0     C11553   4.678   3.826  10.051 -0.5213  0.1109  0.1122
  846MOL0     C11554   4.540   3.867  10.017  0.3230  0.0686 -0.0351
  846MOL0     C11555   4.434   3.772  10.078 -0.3569 -0.7532 -0.3894
  846MOL0     C11556   4.293   3.816  10.037  0.5608  0.3567  0.7983
  846MOL0     N11557   4.202   3.735  10.125 -0.1630 -0.0449 -0.2405
  846MOL0     C11558   4.198   3.596  10.125 -0.5066 -0.4980 -0.5650
  846MOL0     C11559   4.095   3.568  10.209  0.2832 -0.0251 -0.2713
  846MOL0     C11560   4.051   3.438  10.250 -0.4790  0.1346  0.0350
  846MOL0     C11561   3.962   3.375  10.141 -0.2613  0.3184  0.0933
  846MOL0     C11562   3.849   3.452  10.069 -0.2184 -0.2290 -0.4487
  846MOL0     C11563   3.752   3.367   9.993 -0.1838 -0.4269 -0.2230
  846MOL0     O11564   3.661   3.453   9.934  0.5848 -0.6069 -0.3753
  846MOL0     C11565   3.537   3.403   9.901  0.5200 -0.5997 -0.3841
  846MOL0     C11566   3.503   3.271   9.904 -0.4179  0.2631 -0.6959
  846MOL0     C11567   3.387   3.233   9.850  0.9262  0.0014  0.4964
  846MOL0     C11568   3.282   3.315   9.803 -0.7486 -0.7581 -0.2967
  846MOL0     C11569   3.153   3.264   9.757 -0.1690  0.0219  0.7045
  846MOL0     O11570   3.113   3.138   9.788  0.6227 -0.0582  0.7350
  846MOL0     C11571   3.004   3.077   9.721 -0.6376  0.1756 -0.4547
  846MOL0     C11572   2.916   2.999   9.801  0.5859  0.8474  1.0029
  846MOL0     C11573   2.804   2.936   9.736 -0.5921  0.4434 -0.6220
  846MOL0     C11574   2.793   2.944   9.602  0.8936 -0.6442  0.6231
  846MOL0     O11575   2.683   2.882   9.537 -0.4500 -0.0634  0.6575
  846MOL0     C11576   2.559   2.894   9.598 -0.8577  0.5839 -0.0672
  846MOL0     C11577   2.447   2.884   9.486 -0.4268  0.4732  0.5912
  846MOL0     C11578   2.303   2.905   9.537  0.5828 -0.1863 -0.6484
  846MOL0     C11579   2.235   2.773   9.603  0.1935 -0.8027  0.7027
  846MOL0     C11580   2.291   2.726   9.734  0.2300  0.3490  0.4778
  846MOL0     C11581   2.256   2.835   9.852 -0.0481 -0.0362  0.9648
  846MOL0     C11582   2.129   2.787   9.931  0.3363 -0.1068  0.4330
  846MOL0     C11583   1.999   2.862   9.908 -0.2923 -0.0415  0.1335
  846MOL0    Cl11584   1.921   2.789   9.770  0.0986  0.2165  0.5030
  846MOL0     C11585   2.880   3.016   9.527  0.7545  1.1092 -0.2447
  846MOL0     C11586   2.990   3.060   9.584  0.2990 -0.2856  0.9436
  846MOL0     O11587   3.094   3.350   9.691  0.0398  0.3317  0.2493
  846MOL0     C11588   3.311   3.451   9.807 -0.3125 -0.2185 -0.3453
  846MOL0     C11589   3.443   3.492   9.858  0.3376  0.2074  0.0352
  846MOL0     N11590   4.046   3.689  10.251  0.9268  0.9300 -0.6877
  846MOL0     N11591   4.104   3.788  10.201  0.3431  0.1122 -0.0098
  846MOL0     C11592   5.454   4.036   9.819  0.1295 -0.4161 -0.0714
  846MOL0     C11593   5.594   4.055   9.810 -0.8384 -1.2329  0.2305
  846MOL0     C11594   6.027   4.044   9.928  0.0861 -0.2410  0.2641
  846MOL0     C11595   6.144   3.980   9.983  0.6120 -0.4471 -0.8439
  846MOL0     C11596   6.274   4.022   9.953 -0.0054 -0.1709  0.3749
  846MOL0     C11597   6.287   4.141   9.874  0.1768  0.0384 -0.5019
  846MOL0     O11598   6.420   4.185   9.857  1.0121  0.2251  0.5487
  846MOL0     C11599   6.471   4.140   9.735 -0.4492 -0.6171 -0.2772
  846MOL0     C11600   6.601   4.215   9.699  1.0084  0.5956 -0.8899
  846MOL0     C11601   6.642   4.169   9.560 -0.2123  0.6590  0.2407
  846MOL0     C11602   6.725   4.281   9.498  0.0789 -0.2983 -0.0038
  846MOL0     C11603   6.865   4.251   9.529  0.1526  0.2328 -0.8131
  846MOL0     C11604   6.980   4.212   9.534 -0.0766 -0.1493 -0.1311
  846MOL0     C11605   6.178   4.195   9.809  0.1802 -0.4677  0.0412
  846MOL0     C11606   6.046   4.145   9.835  0.3571 -0.0660 -0.4448
  846MOL0     H11607   5.663   3.896  10.095  2.1227  0.8191 -1.6801
  846MOL0     H11608   5.420   3.864  10.102 -2.7152  0.1273 -1.3100
  846MOL0     H11609   5.185   3.897  10.113 -1.3856  1.5783  0.0161
  846MOL0     H11610   5.175   3.796   9.952 -1.7462  0.3962 -1.8147
  846MOL0     H11611   5.007   3.971   9.879  0.0707  1.9836 -0.3472
  846MOL0     H11612   5.030   4.044  10.040  0.0324 -0.0629  0.2582
  846MOL0     H11613   4.935   3.843  10.140  2.0409  1.2627 -0.5143
  846MOL0     H11614   4.919   3.773   9.974  0.7200  1.3012 -0.9859
  846MOL0     H11615   4.765   4.023  10.039 -2.8374  0.8670 -2.2874
  846MOL0     H11616   4.770   3.938   9.888 -2.8646  1.7547  0.5606
  846MOL0     H11617   4.699   3.807  10.157 -1.1218 -2.7156 -0.1923
  846MOL0     H11618   4.694   3.721  10.026 -0.6163 -0.1034  0.8996
  846MOL0     H11619   4.520   3.870   9.909 -1.7018  0.7514  0.3257
  846MOL0     H11620   4.523   3.971  10.044 -0.7872 -0.0023 -0.4147
  846MOL0     H11621   4.450   3.682  10.017 -1.7016 -1.0040 -0.4022
  846MOL0     H11622   4.450   3.749  10.184 -1.6857  1.2999  0.3054
  846MOL0     H11623   4.283   3.788   9.932  3.8939 -3.6311  1.2535
  846MOL0     H11624   4.290   3.923  10.063  0.8750  0.5545  0.0270
  846MOL0     H11625   4.270   3.528  10.079 -0.7236 -2.1011  1.3140
  846MOL0     H11626   3.985   3.462  10.334  0.2121 -2.5176  1.4207
  846MOL0     H11627   4.137   3.379  10.282 -0.3882 -0.5074 -1.3279
  846MOL0     H11628   3.921   3.286  10.190  2.5281 -0.5860  0.9882
  846MOL0     H11629   4.030   3.346  10.060 -3.2551  0.2242 -2.5462
  846MOL0     H11630   3.787   3.508  10.139 -2.2464  0.2775 -2.5334
  846MOL0     H11631   3.892   3.531  10.008  1.9103  1.2540  2.7221
  846MOL0     H11632   3.713   3.300  10.070  1.9345  0.9786  2.2499
  846MOL0     H11633   3.809   3.316   9.915  0.0613  1.4070 -1.2950
  846MOL0     H11634   3.582   3.199   9.922 -1.4771 -0.9370 -0.7260
  846MOL0     H11635   3.362   3.127   9.844 -1.1825  0.5354 -2.7215
  846MOL0     H11636   2.943   2.991   9.906 -0.0377 -0.9551  1.0547
  846MOL0     H11637   2.733   2.881   9.797 -1.4779  0.8070 -1.3044
  846MOL0     H11638   2.545   2.988   9.652  0.7798  0.0086  1.4771
  846MOL0     H11639   2.554   2.817   9.676  1.5214  2.3540  2.0168
  846MOL0     H11640   2.465   2.787   9.439 -0.1022  1.6727 -1.9461
  846MOL0     H11641   2.468   2.968   9.419 -0.2211 -1.1359 -1.4570
  846MOL0     H11642   2.243   2.936   9.451 -0.3136  0.3813  0.1667
  846MOL0     H11643   2.310   2.981   9.615  0.6625 -1.0079  0.1600
  846MOL0     H11644   2.126   2.785   9.601  0.4334  2.0265 -0.0493
  846MOL0     H11645   2.258   2.696   9.529 -0.1603  0.8093 -1.1717
  846MOL0     H11646   2.399   2.713   9.726  0.4912  0.3470  3.2699
  846MOL0     H11647   2.251   2.628   9.762 -1.8800  0.8315 -0.5924
  846MOL0     H11648   2.241   2.935   9.810  2.3082  0.3756  0.9783
  846MOL0     H11649   2.339   2.846   9.922  0.6896 -3.2933  0.7760
  846MOL0     H11650   2.116   2.679   9.926 -1.0380  0.0420  0.3181
  846MOL0     H11651   2.150   2.805  10.037 -0.6947 -1.6248  0.9150
  846MOL0     H11652   2.017   2.967   9.886 -0.0974 -0.6954 -3.2481
  846MOL0     H11653   1.942   2.854  10.001  0.8714  1.3369  1.0059
  846MOL0     H11654   2.847   3.025   9.424  0.3966 -0.1620 -0.2673
  846MOL0     H11655   3.072   3.093   9.521  0.7363 -0.0904  1.6107
  846MOL0     H11656   3.231   3.518   9.774  1.9189  3.3208  0.8796
  846MOL0     H11657   3.478   3.593   9.846 -1.1632  0.5131 -2.5246
  846MOL0     H11658   5.395   4.083   9.741 -2.0498  0.1761  1.8100
  846MOL0     H11659   5.648   4.095   9.725  0.2226  1.1659  1.8776
  846MOL0     H11660   6.134   3.904  10.059  1.1278  0.1539 -0.1727
  846MOL0     H11661   6.362   3.987  10.005  0.4112 -0.5976 -0.5952
  846MOL0     H11662   6.395   4.172   9.663 -2.7571 -1.4212  1.6501
  846MOL0     H11663   6.484   4.032   9.725  0.7717 -0.3746 -1.5299
  846MOL0     H11664   6.578   4.322   9.707 -1.7874  0.0529 -0.5053
  846MOL0     H11665   6.678   4.183   9.770 -1.5195 -0.3081  1.6478
  846MOL0     H11666   6.550   4.167   9.500 -0.1370  2.5684  0.0086
  846MOL0     H11667   6.686   4.069   9.557 -4.0938 -1.2480 -2.2403
  846MOL0     H11668   6.709   4.283   9.390  1.9331  2.1870 -0.3032
  846MOL0     H11669   6.706   4.381   9.536  1.0553 -0.5635  1.2456
  846MOL0     H11670   7.079   4.174   9.522 -0.2155 -0.5196 -0.1390
  846MOL0     H11671   6.196   4.274   9.737 -0.4113 -2.8501 -2.8930
  846MOL0     H11672   5.962   4.184   9.779 -0.0316  1.9793  1.4433
  847MOL0     O11673   2.936   1.724   1.739  0.5807 -0.6911 -0.3613
  847MOL0     C11674   2.929   1.633   1.662 -0.0135  0.4072  0.5767
  847MOL0     O11675   2.829   1.529   1.657 -0.0847 -0.3119 -0.3013
  847MOL0     C11676   2.705   1.543   1.723  0.9663 -0.3773 -0.0055
  847MOL0     C11677   2.628   1.659   1.745 -0.8703  0.1643 -0.6962
  847MOL0     C11678   2.513   1.666   1.818  0.6811  0.0272 -0.3305
  847MOL0     C11679   2.461   1.545   1.870  0.2317 -0.1963  0.0264
  847MOL0     O11680   2.347   1.554   1.947  0.1485  0.5703  0.6125
  847MOL0     C11681   2.355   1.484   2.073 -0.3229 -0.2177 -0.1709
  847MOL0     C11682   2.248   1.551   2.168  0.5438 -0.3676  0.5711
  847MOL0     C11683   2.297   1.662   2.261  0.8211  0.5977  0.8443
  847MOL0     C11684   2.208   1.667   2.390 -0.4690  0.0300  0.2119
  847MOL0     C11685   2.229   1.799   2.463  0.7536  0.6801  0.6364
  847MOL0     C11686   2.372   1.829   2.504  0.3401 -0.0441 -0.4780
  847MOL0     C11687   2.369   1.968   2.567  0.2505 -0.5571  0.0762
  847MOL0     C11688   2.321   1.991   2.714 -0.1932 -0.0705  0.0110
  847MOL0     N11689   2.176   1.980   2.741  0.2684 -0.6851  0.4881
  847MOL0     C11690   2.119   1.896   2.826  0.2137  0.8551 -0.3997
  847MOL0     C11691   1.982   1.908   2.802  0.0803  0.2296  0.2536
  847MOL0     C11692   1.874   1.821   2.859  0.2630 -0.4498  0.8839
  847MOL0     C11693   1.822   1.879   2.976 -0.1722 -0.4676  0.1680
  847MOL0     C11694   1.721   1.782   3.046 -0.1315 -0.1767  1.0889
  847MOL0     C11695   1.671   1.850   3.178 -0.3706 -0.3288  0.8402
  847MOL0     O11696   1.620   1.752   3.265  0.9598 -0.6848  0.0279
  847MOL0     C11697   1.500   1.794   3.330  0.0143 -0.4421 -1.8510
  847MOL0     C11698   1.385   1.799   3.269  0.5593  0.6092  0.8134
  847MOL0     C11699   1.262   1.842   3.329  0.3953  0.7745  0.3130
  847MOL0     C11700   1.267   1.876   3.473  0.6201 -0.2670 -0.8292
  847MOL0     C11701   1.143   1.911   3.549  0.2621  0.3244  0.5111
  847MOL0     O11702   1.134   1.866   3.681 -0.0283  0.1864  0.2222
  847MOL0     C11703   1.008   1.874   3.734 -0.9393  0.0598 -0.4519
  847MOL0     C11704   0.976   1.984   3.813 -0.3181  0.7716 -0.1042
  847MOL0     C11705   0.849   2.004   3.857 -0.8668 -0.1086 -0.0506
  847MOL0     C11706   0.748   1.905   3.840  0.4155 -0.7529  0.3414
  847MOL0     O11707   0.620   1.922   3.886  0.4661  0.1135  0.7644
  847MOL0     C11708   0.608   1.976   4.018 -0.4812 -0.0888  0.3436
  847MOL0     C11709   0.462   1.960   4.072 -0.2866 -0.1228  0.1844
  847MOL0     C11710   0.425   1.818   4.097 -0.6081 -0.0511 -0.3890
  847MOL0     C11711   0.293   1.817   4.182  0.8399  0.7230  0.1673
  847MOL0     C11712   0.215   1.681   4.176 -1.0831  0.6967  0.4119
  847MOL0     C11713   0.298   1.559   4.204 -0.1057 -1.3549 -0.4258
  847MOL0     C11714   0.212   1.437   4.235 -0.4745 -0.1133 -0.5243
  847MOL0     C11715   0.153   1.367   4.113  0.4148  0.1055 -0.8126
  847MOL0    Cl11716   0.198   1.190   4.136 -0.2911  0.1756  0.0218
  847MOL0     C11717   0.780   1.800   3.756 -0.3417 -0.5527  0.4904
  847MOL0     C11718   0.908   1.781   3.704  0.7186  0.5703  0.3989
  847MOL0     O11719   1.050   1.960   3.482 -0.6253 -0.2670  0.0117
  847MOL0     C11720   1.390   1.862   3.536  0.1765  0.4527  0.8899
  847MOL0     C11721   1.502   1.814   3.472 -0.5085  0.0888  0.4779
  847MOL0     N11722   1.971   1.998   2.697 -0.0741 -0.1700 -0.6031
  847MOL0     N11723   2.083   2.051   2.676 -0.2760  0.3475  0.1561
  847MOL0     C11724   2.530   1.425   1.846 -1.0653 -0.2246 -0.5610
  847MOL0     C11725   2.656   1.425   1.782  0.1927  0.0103  0.9567
  847MOL0     C11726   3.033   1.628   1.555  0.0108  0.0055  0.5987
  847MOL0     C11727   2.999   1.554   1.442  0.0080 -0.2053 -0.0303
  847MOL0     C11728   3.091   1.540   1.341 -0.3828 -0.2417  0.3247
  847MOL0     C11729   3.209   1.618   1.341 -0.1128 -0.5681 -0.0105
  847MOL0     O11730   3.316   1.612   1.251 -0.2909 -0.4842 -0.2136
  847MOL0     C11731   3.328   1.510   1.149  0.8236  0.6559 -0.6119
  847MOL0     C11732   3.457   1.436   1.183  0.0076  0.9989  0.3269
  847MOL0     C11733   3.583   1.520   1.135  0.0061  0.3511  0.6358
  847MOL0     C11734   3.719   1.467   1.187  0.0641  0.3379  0.2292
  847MOL0     C11735   3.772   1.341   1.137 -0.1917 -0.3871  0.4287
  847MOL0     C11736   3.785   1.231   1.081 -0.7095 -0.3448  0.1906
  847MOL0     C11737   3.228   1.706   1.445  0.6668 -0.2567  0.2192
  847MOL0     C11738   3.147   1.708   1.556  0.2512  0.3231 -0.4146
  847MOL0     H11739   2.676   1.748   1.705 -2.6214  2.5254  2.0639
  847MOL0     H11740   2.460   1.756   1.848  1.0246 -0.1665  0.9216
  847MOL0     H11741   2.457   1.488   2.112 -0.2398 -1.7960 -0.1726
  847MOL0     H11742   2.329   1.379   2.057  0.7533 -0.8128  1.6828
  847MOL0     H11743   2.210   1.468   2.228 -0.2397 -1.7445 -1.7165
  847MOL0     H11744   2.165   1.598   2.116  2.5341 -0.0890 -2.6263
  847MOL0     H11745   2.296   1.760   2.214 -2.8159  0.7137  0.9076
  847MOL0     H11746   2.397   1.644   2.301  0.4708 -1.0758  1.0507
  847MOL0     H11747   2.101   1.656   2.370 -0.3844 -0.2705 -0.1012
  847MOL0     H11748   2.241   1.583   2.452 -0.6191 -0.6199 -0.5612
  847MOL0     H11749   2.166   1.793   2.552  1.4686 -2.9805  1.0521
  847MOL0     H11750   2.179   1.872   2.398  1.1921 -0.4871 -1.0796
  847MOL0     H11751   2.442   1.833   2.420 -1.5812 -0.1093 -2.1342
  847MOL0     H11752   2.417   1.764   2.579  0.9555  2.6716  1.6659
  847MOL0     H11753   2.474   1.999   2.574  0.9166 -2.2778 -1.4655
  847MOL0     H11754   2.316   2.041   2.504 -1.6952 -1.3247  0.7759
  847MOL0     H11755   2.339   2.099   2.727 -2.9898  0.4154  0.3670
  847MOL0     H11756   2.365   1.924   2.788 -1.5904 -0.1775  0.7696
  847MOL0     H11757   2.168   1.822   2.889 -1.4421 -0.1627 -0.2397
  847MOL0     H11758   1.912   1.719   2.874  2.8955  0.5239  1.3383
  847MOL0     H11759   1.791   1.823   2.788  1.4554 -1.0822 -0.6043
  847MOL0     H11760   1.766   1.971   2.958  0.3648 -0.4458 -1.5526
  847MOL0     H11761   1.905   1.905   3.041  0.9799  2.9935 -2.4130
  847MOL0     H11762   1.636   1.763   2.980  2.8234 -1.9059 -2.6183
  847MOL0     H11763   1.770   1.685   3.062 -0.9438 -0.4330  2.1200
  847MOL0     H11764   1.602   1.930   3.150  3.1963  1.7229 -3.1601
  847MOL0     H11765   1.752   1.909   3.222 -2.4673  2.7643  0.8870
  847MOL0     H11766   1.395   1.782   3.162  0.6437 -2.4483  1.2101
  847MOL0     H11767   1.175   1.862   3.268  0.4082  1.7446  0.5793
  847MOL0     H11768   1.064   2.047   3.828  0.5492 -0.9142  2.4646
  847MOL0     H11769   0.825   2.097   3.909  0.6213  0.4380 -0.3009
  847MOL0     H11770   0.641   2.080   4.010  2.2271 -0.9995 -2.0348
  847MOL0     H11771   0.675   1.922   4.085 -2.7203 -1.7829  1.3598
  847MOL0     H11772   0.389   2.012   4.010  0.0882 -0.4501 -0.5458
  847MOL0     H11773   0.469   2.012   4.168 -0.9939 -1.5224  1.0343
  847MOL0     H11774   0.504   1.770   4.157 -1.1337  0.7643  0.9985
  847MOL0     H11775   0.425   1.762   4.002  1.6871 -0.3799 -0.2470
  847MOL0     H11776   0.317   1.846   4.285  2.3544 -0.0185  0.0502
  847MOL0     H11777   0.224   1.890   4.138  2.3074  3.1354  1.5773
  847MOL0     H11778   0.175   1.675   4.075  0.7636 -2.0159 -0.2850
  847MOL0     H11779   0.129   1.684   4.243 -0.6730  0.8015  0.9505
  847MOL0     H11780   0.354   1.586   4.294  0.6409  0.8288 -1.4708
  847MOL0     H11781   0.365   1.546   4.118  1.6396  3.3666 -0.0947
  847MOL0     H11782   0.272   1.367   4.294 -0.8592  1.9523  2.5129
  847MOL0     H11783   0.128   1.464   4.300  0.2076 -3.3093  1.9431
  847MOL0     H11784   0.203   1.413   4.027  3.8299 -0.9486  0.4827
  847MOL0     H11785   0.045   1.383   4.106  0.5726  2.4310  0.9352
  847MOL0     H11786   0.696   1.735   3.733  0.2248 -0.2859 -2.7052
  847MOL0     H11787   0.941   1.699   3.642 -1.4350  1.3708 -1.9954
  847MOL0     H11788   1.392   1.889   3.641 -0.8708 -0.4075  1.1440
  847MOL0     H11789   1.597   1.802   3.522  0.9064 -2.1174 -2.4353
  847MOL0     H11790   2.489   1.332   1.884 -3.2663  1.2095  0.8462
  847MOL0     H11791   2.721   1.339   1.784  0.5052  0.2394  3.1356
  847MOL0     H11792   2.907   1.497   1.437  0.0268 -0.2152 -0.2867
  847MOL0     H11793   3.056   1.479   1.258  0.1540 -2.1360  1.4218
  847MOL0     H11794   3.331   1.554   1.049  2.3370 -0.3110 -1.0429
  847MOL0     H11795   3.242   1.444   1.162  1.0297  0.6426  0.8005
  847MOL0     H11796   3.466   1.418   1.291  1.4714 -1.7124 -0.1606
  847MOL0     H11797   3.466   1.336   1.139 -2.1088  1.3775 -1.1054
  847MOL0     H11798   3.576   1.625   1.165  0.8851  0.9460 -1.1035
  847MOL0     H11799   3.581   1.519   1.025 -1.9068  0.2960  0.6282
  847MOL0     H11800   3.796   1.540   1.161 -1.6106  2.4112  0.8373
  847MOL0     H11801   3.704   1.459   1.295  1.4087 -2.5695  0.3011
  847MOL0     H11802   3.784   1.132   1.040  1.2043 -1.5262  2.6891
  847MOL0     H11803   3.324   1.757   1.450 -0.7603  2.5552  1.8382
  847MOL0     H11804   3.162   1.787   1.629 -1.4986  0.4219 -0.1093
  848MOL0     O11805   1.101   2.132   1.163 -0.3452  0.1360  0.1182
  848MOL0     C11806   1.178   2.049   1.199 -0.1097 -0.0202  1.0471
  848MOL0     O11807   1.148   1.912   1.220 -0.2816 -0.3074 -0.6477
  848MOL0     C11808   1.021   1.860   1.187 -0.6484 -0.5230  0.5657
  848MOL0     C11809   0.948   1.901   1.072 -0.0606  1.2424 -0.1142
  848MOL0     C11810   0.816   1.840   1.053 -0.5465 -0.1243 -0.2902
  848MOL0     C11811   0.767   1.748   1.139 -0.0029  0.1337 -0.6795
  848MOL0     O11812   0.637   1.719   1.122  0.1319  0.3865 -0.6444
  848MOL0     C11813   0.575   1.614   1.201  0.4363 -0.8657 -0.0843
  848MOL0     C11814   0.435   1.602   1.149 -0.6831 -0.0595 -0.1921
  848MOL0     C11815   0.331   1.554   1.248  0.2166  0.3430 -0.5504
  848MOL0     C11816   0.214   1.500   1.164  0.1769  0.2256 -0.3492
  848MOL0     C11817   0.118   1.423   1.260 -0.4486  0.2887 -0.0116
  848MOL0     C11818  -0.013   1.403   1.194 -0.1581 -0.0247  0.5291
  848MOL0     C11819  -0.110   1.325   1.275 -1.1947  0.2283  0.4810
  848MOL0     C11820  -0.229   1.291   1.182  0.3754 -0.1988  1.0542
  848MOL0     N11821  -0.334   1.223   1.251 -0.2172  0.2826  0.1955
  848MOL0     C11822  -0.421   1.284   1.330 -0.0753  0.2583  0.4530
  848MOL0     C11823  -0.510   1.188   1.354 -0.8493 -0.0594 -0.4544
  848MOL0     C11824  -0.649   1.214   1.415 -0.1033  0.7636  0.0664
  848MOL0     C11825  -0.648   1.183   1.566 -0.4929 -0.0079  0.4343
  848MOL0     C11826  -0.600   1.044   1.615  0.8900  0.5612 -0.1239
  848MOL0     C11827  -0.662   0.926   1.547  0.2538  0.0448  0.0568
  848MOL0     O11828  -0.629   0.799   1.610 -0.2394  0.7208 -0.3009
  848MOL0     C11829  -0.687   0.681   1.567 -0.4074 -0.1237 -0.0194
  848MOL0     C11830  -0.808   0.677   1.493 -0.3665 -0.3664 -0.2598
  848MOL0     C11831  -0.868   0.559   1.459 -0.2621 -0.6153  0.1794
  848MOL0     C11832  -0.824   0.439   1.512 -0.1261  0.2807  0.1438
  848MOL0     C11833  -0.894   0.314   1.486 -0.1029 -0.4579  0.1393
  848MOL0     O11834  -1.031   0.332   1.457  0.3526  0.7974 -0.2263
  848MOL0     C11835  -1.103   0.230   1.395 -0.3296  0.4973 -0.1738
  848MOL0     C11836  -1.239   0.240   1.394  0.1921 -0.1776 -0.7399
  848MOL0     C11837  -1.327   0.149   1.334 -0.1918  0.6032  0.0299
  848MOL0     C11838  -1.274   0.046   1.261  0.4564 -0.2534 -0.1272
  848MOL0     O11839  -1.351  -0.057   1.198 -0.3145 -0.0840 -0.2519
  848MOL0     C11840  -1.490  -0.027   1.198  0.3045  0.4082  0.4973
  848MOL0     C11841  -1.558  -0.133   1.108 -0.6247 -0.2393 -0.2399
  848MOL0     C11842  -1.701  -0.098   1.081  0.3226  0.6669  1.2643
  848MOL0     C11843  -1.777  -0.222   1.013  0.5675  0.4682  0.8281
  848MOL0     C11844  -1.911  -0.180   0.972 -0.4353  1.0590 -0.0257
  848MOL0     C11845  -1.992  -0.296   0.918  0.7810  0.7136  0.7463
  848MOL0     C11846  -2.123  -0.251   0.858 -0.3590 -0.2181 -0.2246
  848MOL0     C11847  -2.216  -0.367   0.851 -0.3366  0.2914  0.0860
  848MOL0    Cl11848  -2.380  -0.335   0.777  0.0593  0.3905 -0.2917
  848MOL0     C11849  -1.138   0.016   1.263 -0.5042  0.1494  0.1897
  848MOL0     C11850  -1.059   0.111   1.329  0.8223 -0.2004 -1.2811
  848MOL0     O11851  -0.835   0.208   1.503 -0.8722  0.5107  0.2722
  848MOL0     C11852  -0.706   0.439   1.583  0.8648  0.4894 -0.4585
  848MOL0     C11853  -0.638   0.557   1.611 -0.2236 -0.1275  0.0476
  848MOL0     N11854  -0.468   1.068   1.307 -0.1254  0.3789  0.5670
  848MOL0     N11855  -0.369   1.092   1.232 -0.6162  0.1868 -0.2988
  848MOL0     C11856   0.842   1.709   1.249 -0.8031 -0.4881 -0.3020
  848MOL0     C11857   0.978   1.756   1.266  0.2437  1.2201  0.6227
  848MOL0     C11858   1.324   2.095   1.226 -0.6492 -0.1572 -0.0016
  848MOL0     C11859   1.416   2.005   1.265 -0.3984  0.3358 -0.4998
  848MOL0     C11860   1.551   2.038   1.276 -0.3992  0.4136  0.1143
  848MOL0     C11861   1.602   2.167   1.225  0.0818 -0.5906  0.1785
  848MOL0     O11862   1.726   2.213   1.223  0.2390 -0.1234  0.1363
  848MOL0     C11863   1.833   2.132   1.269 -0.0421 -0.0252 -0.3751
  848MOL0     C11864   1.956   2.219   1.270 -0.0473 -0.3804 -0.5175
  848MOL0     C11865   2.101   2.161   1.264  1.6016 -0.5377 -0.2339
  848MOL0     C11866   2.213   2.271   1.257  0.2584  0.9018 -0.5842
  848MOL0     C11867   2.342   2.196   1.248 -0.8954  0.1787 -0.0863
  848MOL0     C11868   2.453   2.141   1.237 -0.1665 -0.0516  0.2956
  848MOL0     C11869   1.498   2.259   1.194 -0.0672  0.8360  0.1609
  848MOL0     C11870   1.364   2.223   1.188  0.9286 -0.4125 -0.8370
  848MOL0     H11871   0.988   1.977   1.007 -2.8458  0.3130 -3.2311
  848MOL0     H11872   0.764   1.873   0.963 -1.0854  0.4784  0.2411
  848MOL0     H11873   0.588   1.627   1.308  1.5217 -3.4677  0.1892
  848MOL0     H11874   0.622   1.518   1.177  0.4827 -1.0334  0.6604
  848MOL0     H11875   0.447   1.540   1.060  4.1658  0.0477  0.1109
  848MOL0     H11876   0.399   1.702   1.127 -2.2404 -0.6631 -0.5118
  848MOL0     H11877   0.301   1.628   1.323  1.8339 -0.2365  0.7156
  848MOL0     H11878   0.381   1.469   1.296  2.7889  1.7020 -0.6309
  848MOL0     H11879   0.155   1.588   1.138 -1.6001 -0.8384 -0.1375
  848MOL0     H11880   0.237   1.452   1.069 -0.7358  3.4975 -2.3627
  848MOL0     H11881   0.100   1.481   1.351 -1.8327  1.2053 -0.8412
  848MOL0     H11882   0.158   1.326   1.292  0.8494  0.7885 -0.0764
  848MOL0     H11883  -0.001   1.372   1.089 -1.4061  2.2323 -0.3670
  848MOL0     H11884  -0.051   1.503   1.170 -1.1866 -0.8958 -1.8627
  848MOL0     H11885  -0.061   1.230   1.300 -1.6673 -0.0858  0.2423
  848MOL0     H11886  -0.144   1.378   1.364 -1.8843  0.1824  0.2522
  848MOL0     H11887  -0.183   1.234   1.100  1.2267  2.5263 -0.4885
  848MOL0     H11888  -0.259   1.386   1.139  0.4364  0.0943  1.6571
  848MOL0     H11889  -0.429   1.391   1.352 -0.9600  0.6700 -1.6774
  848MOL0     H11890  -0.725   1.163   1.355  0.5765 -1.9237  1.3448
  848MOL0     H11891  -0.673   1.321   1.421  0.0464  0.7723  0.5629
  848MOL0     H11892  -0.755   1.182   1.589 -1.1819  0.8764 -2.2625
  848MOL0     H11893  -0.596   1.255   1.629  0.6171 -1.9850  1.8946
  848MOL0     H11894  -0.493   1.036   1.594  0.3372  2.1947 -4.5765
  848MOL0     H11895  -0.623   1.026   1.721 -1.0005 -2.2675 -0.8729
  848MOL0     H11896  -0.638   0.934   1.441 -2.5123  1.5168 -0.5575
  848MOL0     H11897  -0.770   0.943   1.554 -0.4476 -3.8179  1.2944
  848MOL0     H11898  -0.854   0.771   1.464 -3.4553 -1.1130  1.6722
  848MOL0     H11899  -0.961   0.564   1.404  1.0171  1.0591 -1.9990
  848MOL0     H11900  -1.297   0.317   1.444 -0.6237 -0.7613 -0.7528
  848MOL0     H11901  -1.431   0.165   1.360 -0.6584 -1.6026 -0.2291
  848MOL0     H11902  -1.510   0.074   1.159 -1.3050  0.2694  0.8995
  848MOL0     H11903  -1.538  -0.026   1.296  0.3438 -0.5869  0.5312
  848MOL0     H11904  -1.548  -0.231   1.155 -1.8809 -1.3498 -2.1697
  848MOL0     H11905  -1.493  -0.127   1.020  0.2780  1.3870  0.4863
  848MOL0     H11906  -1.709  -0.009   1.018 -1.5840 -2.5295 -3.6978
  848MOL0     H11907  -1.753  -0.079   1.175 -1.0202  1.6885  0.3638
  848MOL0     H11908  -1.730  -0.256   0.920  0.0564  0.4602  0.5697
  848MOL0     H11909  -1.781  -0.312   1.074  3.9051  0.3444  1.0608
  848MOL0     H11910  -1.903  -0.104   0.894 -0.5242  0.3401 -0.7403
  848MOL0     H11911  -1.974  -0.142   1.054  0.1344  1.0329  0.4299
  848MOL0     H11912  -1.988  -0.381   0.987  1.0611  0.4612  0.4228
  848MOL0     H11913  -1.939  -0.347   0.838 -3.1777  0.4136 -1.9661
  848MOL0     H11914  -2.164  -0.168   0.915 -0.9262 -1.5129  1.3262
  848MOL0     H11915  -2.091  -0.224   0.757  2.4985 -1.0517  0.3569
  848MOL0     H11916  -2.231  -0.406   0.953  2.2808  1.1084  0.8569
  848MOL0     H11917  -2.160  -0.442   0.794  0.4654  0.0682  1.1222
  848MOL0     H11918  -1.103  -0.076   1.218  1.6256  0.2249  1.5222
  848MOL0     H11919  -0.951   0.102   1.324  1.1640  2.1088  0.5085
  848MOL0     H11920  -0.666   0.348   1.627  0.5168 -0.1198 -1.3560
  848MOL0     H11921  -0.550   0.552   1.673 -0.4969 -0.5877  0.4037
  848MOL0     H11922   0.809   1.619   1.300 -0.0924 -1.5551 -1.6176
  848MOL0     H11923   1.034   1.714   1.349  0.9346  0.3560 -0.2569
  848MOL0     H11924   1.373   1.914   1.306 -0.8319  0.6472 -0.2572
  848MOL0     H11925   1.620   1.965   1.318 -1.6846  0.2438  2.0294
  848MOL0     H11926   1.862   2.051   1.202  0.8529  0.2660 -0.3502
  848MOL0     H11927   1.819   2.099   1.373  0.9128 -2.7818 -1.0282
  848MOL0     H11928   1.943   2.285   1.183  0.0414  1.3888  0.7530
  848MOL0     H11929   1.940   2.287   1.355 -0.8610  0.8969 -1.6357
  848MOL0     H11930   2.098   2.085   1.185 -0.6389 -2.5284  1.5972
  848MOL0     H11931   2.115   2.103   1.355  0.0257  2.2148  1.9119
  848MOL0     H11932   2.216   2.335   1.169  1.9449  0.8905 -0.5639
  848MOL0     H11933   2.208   2.325   1.353 -2.1596 -1.6672  0.8739
  848MOL0     H11934   2.540   2.082   1.215  0.4854  0.6916  0.7760
  848MOL0     H11935   1.518   2.364   1.176 -1.2902  1.4904  2.2530
  848MOL0     H11936   1.293   2.298   1.156  1.8332  0.1682 -1.5478
  849MOL0     O11937   3.008  11.087   5.526 -0.5434  0.1528  0.5553
  849MOL0     C11938   2.986  11.057   5.644 -0.1569  0.6499  0.2798
  849MOL0     O11939   2.866  11.027   5.703  0.2497 -0.2410  0.8033
  849MOL0     C11940   2.745  11.042   5.634  0.4997 -0.3004 -0.2333
  849MOL0     C11941   2.726  11.136   5.530  0.9141  0.2881 -0.2851
  849MOL0     C11942   2.595  11.166   5.479  0.4418  0.5011 -0.9369
  849MOL0     C11943   2.478  11.100   5.535 -0.4062 -0.0609 -0.1540
  849MOL0     O11944   2.359  11.134   5.482  0.5739  0.6955 -0.0759
  849MOL0     C11945   2.246  11.043   5.503  0.2054 -0.5684  0.2087
  849MOL0     C11946   2.117  11.093   5.424  0.2498 -0.9887 -0.8263
  849MOL0     C11947   2.009  10.993   5.441  0.2014  0.1329 -0.2397
  849MOL0     C11948   1.895  11.029   5.351 -0.3247 -0.1008 -0.7999
  849MOL0     C11949   1.802  10.921   5.321  0.6641  0.4135  0.2219
  849MOL0     C11950   1.711  10.878   5.437  0.0415 -0.6631 -1.0185
  849MOL0     C11951   1.620  10.755   5.391  0.6304  0.5744  0.6139
  849MOL0     C11952   1.501  10.796   5.302 -0.0807 -0.3714 -0.3524
  849MOL0     N11953   1.511  10.861   5.165 -0.3544  0.3792  0.4286
  849MOL0     C11954   1.560  10.795   5.052 -0.0903  0.4822 -0.2687
  849MOL0     C11955   1.569  10.898   4.956 -0.3230  0.2319 -0.9499
  849MOL0     C11956   1.601  10.894   4.797  0.4508 -0.3088  0.1034
  849MOL0     C11957   1.468  10.924   4.718 -0.2338 -0.5965  0.3311
  849MOL0     C11958   1.505  10.945   4.569 -0.3975  0.1875  0.1587
  849MOL0     C11959   1.395  11.000   4.482  0.5118  0.1775 -0.2775
  849MOL0     O11960   1.319  10.903   4.416 -0.1324  0.0680  0.2698
  849MOL0     C11961   1.364  10.825   4.313 -0.2867  0.6454  0.7202
  849MOL0     C11962   1.286  10.717   4.259 -0.3692 -0.0285 -0.2888
  849MOL0     C11963   1.326  10.641   4.155 -0.2328 -0.4143  0.0528
  849MOL0     C11964   1.444  10.663   4.086 -0.3713 -0.4853  0.3712
  849MOL0     C11965   1.492  10.574   3.976 -0.4939  0.2807 -0.2141
  849MOL0     O11966   1.627  10.567   3.962  0.1169 -0.0821 -0.5215
  849MOL0     C11967   1.698  10.520   3.849 -1.0057 -0.3347  0.6159
  849MOL0     C11968   1.655  10.510   3.716  0.4006 -0.7225 -0.4457
  849MOL0     C11969   1.736  10.484   3.604 -1.1087 -0.0615 -0.6914
  849MOL0     C11970   1.877  10.458   3.625  0.2218  0.7483  0.2953
  849MOL0     O11971   1.965  10.406   3.536 -0.1537  1.0420  0.0033
  849MOL0     C11972   1.940  10.437   3.396  0.8380 -0.0996 -0.7136
  849MOL0     C11973   2.042  10.358   3.311  0.1576  0.7348 -0.0564
  849MOL0     C11974   2.179  10.430   3.306  0.6551 -0.0351 -0.4906
  849MOL0     C11975   2.276  10.358   3.215 -0.2998 -0.1967 -0.2069
  849MOL0     C11976   2.420  10.401   3.234 -0.3996  0.0535  0.0326
  849MOL0     C11977   2.520  10.335   3.140 -0.4974  0.0672  0.1477
  849MOL0     C11978   2.650  10.407   3.120  0.0415 -0.2540 -0.0509
  849MOL0     C11979   2.721  10.344   3.002  0.6849 -0.1382  0.1665
  849MOL0    Cl11980   2.798  10.197   3.063 -0.0848 -0.4792  0.1239
  849MOL0     C11981   1.920  10.458   3.757 -0.7084 -0.0934 -0.1893
  849MOL0     C11982   1.836  10.490   3.865  0.0586  0.2308 -0.1812
  849MOL0     O11983   1.403  10.522   3.905 -0.5055  0.2444 -0.5058
  849MOL0     C11984   1.531  10.755   4.149  0.4024 -0.0662  0.0549
  849MOL0     C11985   1.492  10.840   4.257 -0.5703 -0.2353  0.5104
  849MOL0     N11986   1.542  11.013   5.019  0.3738  0.0144 -0.6302
  849MOL0     N11987   1.507  10.990   5.135 -1.0471  0.1634 -0.1091
  849MOL0     C11988   2.499  11.011   5.647  0.8477 -0.0236 -0.1817
  849MOL0     C11989   2.631  10.979   5.689  0.1291 -0.2642 -0.7595
  849MOL0     C11990   3.111  11.044   5.718  0.3711 -0.2337  0.0115
  849MOL0     C11991   3.234  11.051   5.664 -0.5267 -0.5156 -0.2372
  849MOL0     C11992   3.353  11.021   5.733 -0.0408  0.4090 -0.2315
  849MOL0     C11993   3.347  11.003   5.873  0.1233  0.1853  0.4946
  849MOL0     O11994   3.466  10.973   5.925 -0.5381 -0.4395 -0.2304
  849MOL0     C11995   3.466  10.963   6.065 -0.1881 -0.0260  0.4928
  849MOL0     C11996   3.466  11.105   6.129 -0.6927 -0.1540 -0.4736
  849MOL0     C11997   3.573  11.196   6.045  0.1642 -0.8455 -0.1237
  849MOL0     C11998   3.722  11.156   6.070 -0.1628  0.2800  1.2139
  849MOL0     C11999   3.801  11.240   5.971  0.3074  0.3463 -0.5688
  849MOL0     C12000   3.877  11.312   5.911  0.1140 -0.1775 -0.7507
  849MOL0     C12001   3.223  11.023   5.936  0.0970  0.6927  0.0280
  849MOL0     C12002   3.108  11.041   5.861  0.0997 -0.1704 -0.0287
  849MOL0     H12003   2.804  11.192   5.478 -0.4563  1.3073 -1.3033
  849MOL0     H12004   2.593  11.252   5.413 -1.8613  0.3875 -1.0894
  849MOL0     H12005   2.237  11.035   5.612  2.2834  0.1217  0.4784
  849MOL0     H12006   2.266  10.944   5.460  1.2838 -0.4535  0.3972
  849MOL0     H12007   2.157  11.109   5.324  0.0990  1.2663 -0.5689
  849MOL0     H12008   2.082  11.189   5.462  0.1789 -1.3026 -0.0883
  849MOL0     H12009   1.973  10.999   5.545  4.0848 -0.6499  1.3143
  849MOL0     H12010   2.038  10.888   5.428  1.2607  0.3767  0.1017
  849MOL0     H12011   1.831  11.105   5.395 -1.8213 -1.0517 -1.2631
  849MOL0     H12012   1.924  11.065   5.252 -2.7053  0.1412 -1.4711
  849MOL0     H12013   1.852  10.835   5.275 -1.2040  0.8490 -2.9035
  849MOL0     H12014   1.733  10.956   5.243 -1.3004  0.3797  1.8437
  849MOL0     H12015   1.653  10.962   5.476  0.4069  0.2957 -2.4771
  849MOL0     H12016   1.777  10.844   5.517  0.2062 -0.3742 -1.0312
  849MOL0     H12017   1.676  10.678   5.337  1.1520  0.5713  1.1488
  849MOL0     H12018   1.585  10.709   5.484  1.1099  1.2441  1.1367
  849MOL0     H12019   1.444  10.869   5.361 -1.1138 -0.8530 -0.7290
  849MOL0     H12020   1.445  10.703   5.285  1.2553 -1.0728 -0.9880
  849MOL0     H12021   1.583  10.691   5.035  0.7534  0.7533 -0.8215
  849MOL0     H12022   1.632  10.793   4.766  3.6293  0.7564 -0.6232
  849MOL0     H12023   1.689  10.958   4.781  1.2560 -2.0621 -3.6310
  849MOL0     H12024   1.424  11.014   4.762  0.4759 -0.9742  1.8840
  849MOL0     H12025   1.397  10.842   4.731 -0.0475 -1.0694 -1.3826
  849MOL0     H12026   1.579  11.025   4.573 -1.3523  1.0725  0.5156
  849MOL0     H12027   1.555  10.865   4.514  1.2150  2.7904 -2.4327
  849MOL0     H12028   1.441  11.060   4.403 -3.6696 -0.2513 -3.3251
  849MOL0     H12029   1.338  11.078   4.534  2.1086  1.2914 -0.1216
  849MOL0     H12030   1.197  10.671   4.300 -0.8280  0.2388 -0.9772
  849MOL0     H12031   1.253  10.571   4.117 -0.7436  1.2091 -2.1105
  849MOL0     H12032   1.551  10.536   3.701  0.1690 -1.1590  0.3257
  849MOL0     H12033   1.691  10.490   3.505 -2.7996  1.0902  0.0949
  849MOL0     H12034   1.943  10.546   3.389  0.7987  0.0403  0.9604
  849MOL0     H12035   1.839  10.403   3.373  0.1405  1.0413  0.5527
  849MOL0     H12036   2.006  10.333   3.211  1.2577  0.7951 -0.4761
  849MOL0     H12037   2.054  10.262   3.361 -1.8169 -0.6126 -2.0113
  849MOL0     H12038   2.229  10.421   3.403  3.8094  0.6620 -1.9293
  849MOL0     H12039   2.168  10.535   3.279 -0.4388 -0.9588 -4.1899
  849MOL0     H12040   2.276  10.251   3.238  2.0533 -0.0373  0.8066
  849MOL0     H12041   2.243  10.371   3.111 -0.0787 -0.5093 -0.3186
  849MOL0     H12042   2.445  10.381   3.338  2.8709  0.3594 -0.5939
  849MOL0     H12043   2.419  10.510   3.218  1.3268 -0.0259 -0.8269
  849MOL0     H12044   2.469  10.326   3.044 -1.4485  0.1624  0.6267
  849MOL0     H12045   2.549  10.236   3.177  1.2378  1.3558  2.5763
  849MOL0     H12046   2.637  10.515   3.107  0.7239 -0.3448 -1.7654
  849MOL0     H12047   2.714  10.395   3.207  1.4519 -3.8543 -1.3938
  849MOL0     H12048   2.796  10.410   2.957  0.6717  0.9524  1.6712
  849MOL0     H12049   2.648  10.313   2.926 -0.5697 -1.8926  1.9960
  849MOL0     H12050   2.025  10.440   3.780 -0.5476 -0.3525 -1.0797
  849MOL0     H12051   1.885  10.484   3.961 -0.1127 -2.5865 -0.2010
  849MOL0     H12052   1.632  10.763   4.110 -0.2278 -1.4405 -2.1015
  849MOL0     H12053   1.569  10.914   4.279  0.9608 -1.5085 -0.3159
  849MOL0     H12054   2.416  10.950   5.682 -0.1498  1.0063 -0.7054
  849MOL0     H12055   2.637  10.911   5.773 -1.2906 -0.2646 -0.6357
  849MOL0     H12056   3.243  11.049   5.556  2.0966 -1.2320 -0.0886
  849MOL0     H12057   3.449  11.006   5.684 -0.0625 -1.7873  0.2766
  849MOL0     H12058   3.554  10.912   6.104  0.9663  2.1386  0.8596
  849MOL0     H12059   3.377  10.904   6.091 -1.3344 -0.1119 -3.0989
  849MOL0     H12060   3.373  11.163   6.122 -0.0553  1.4592  2.7095
  849MOL0     H12061   3.496  11.096   6.233 -0.9317  3.9449  0.1070
  849MOL0     H12062   3.565  11.299   6.081  1.7656 -0.1008 -1.7336
  849MOL0     H12063   3.560  11.198   5.936  0.3261 -0.0557 -0.1390
  849MOL0     H12064   3.757  11.194   6.166  0.1160 -3.7402  2.8572
  849MOL0     H12065   3.755  11.053   6.053  3.3646  1.0779  2.3034
  849MOL0     H12066   3.936  11.391   5.870  2.2404 -2.4187 -2.2913
  849MOL0     H12067   3.217  11.012   6.044 -2.6544 -2.3148 -0.2832
  849MOL0     H12068   3.012  11.033   5.911 -0.4794 -0.6456 -1.1904
  850MOL0     O12069   6.605   8.843   7.645  0.1477  1.0087 -0.2747
  850MOL0     C12070   6.640   8.937   7.712  0.5635  0.0854 -0.6307
  850MOL0     O12071   6.554   9.023   7.787 -0.0448  0.0677  0.3593
  850MOL0     C12072   6.423   9.003   7.822 -0.3085 -0.0057 -0.0247
  850MOL0     C12073   6.376   9.046   7.944 -0.3338 -0.1197 -0.4679
  850MOL0     C12074   6.242   9.038   7.975  0.2680 -0.5649  0.1917
  850MOL0     C12075   6.156   8.977   7.880 -0.2393 -0.2774  0.5707
  850MOL0     O12076   6.026   8.972   7.921  0.1028 -0.0450 -0.1321
  850MOL0     C12077   5.927   8.968   7.819 -1.1340  0.1470  0.3301
  850MOL0     C12078   5.796   9.017   7.883 -0.2400  0.1685 -0.3912
  850MOL0     C12079   5.678   8.997   7.788  0.3211  0.0351 -0.8188
  850MOL0     C12080   5.548   8.998   7.868 -0.4153 -1.0302 -0.4322
  850MOL0     C12081   5.432   9.016   7.775 -0.3302 -0.8213 -0.4691
  850MOL0     C12082   5.293   9.040   7.842 -0.0774  0.4938 -0.1048
  850MOL0     C12083   5.187   9.050   7.739 -0.5094  0.2231 -0.8549
  850MOL0     C12084   5.047   9.083   7.798  0.5805  0.6864 -0.4662
  850MOL0     N12085   4.986   8.954   7.857 -0.5132 -0.3328  0.4415
  850MOL0     C12086   4.949   8.945   7.989  0.0485  0.3921  0.1564
  850MOL0     C12087   4.873   8.835   7.996  0.0529 -0.0311  1.6007
  850MOL0     C12088   4.810   8.791   8.123 -0.3492 -0.8167  0.7193
  850MOL0     C12089   4.744   8.911   8.198 -1.0152  0.2913  0.1153
  850MOL0     C12090   4.633   8.982   8.121 -0.4210 -0.0180 -0.0210
  850MOL0     C12091   4.495   8.910   8.147  0.2494 -0.3200  0.3784
  850MOL0     O12092   4.382   8.973   8.078  0.8233 -0.0979  0.0545
  850MOL0     C12093   4.256   8.920   8.077  0.7919  0.0368  1.2505
  850MOL0     C12094   4.216   8.797   8.129 -0.5646 -0.0983  0.7707
  850MOL0     C12095   4.086   8.755   8.136  0.4764 -0.8118  0.2362
  850MOL0     C12096   3.973   8.836   8.080 -0.7704 -0.6140 -0.0872
  850MOL0     C12097   3.832   8.805   8.108  0.1157  0.3325 -0.0801
  850MOL0     O12098   3.754   8.907   8.062 -0.2941  0.2966  0.2022
  850MOL0     C12099   3.619   8.914   8.103 -0.1669  0.7892  0.2398
  850MOL0     C12100   3.557   8.861   8.217 -0.4965  0.3557 -0.5338
  850MOL0     C12101   3.418   8.882   8.247 -0.0085 -0.0966  0.2212
  850MOL0     C12102   3.343   8.959   8.168 -0.6432 -0.6473  0.1516
  850MOL0     O12103   3.213   8.995   8.184  0.4257 -0.4588  0.7860
  850MOL0     C12104   3.123   8.916   8.263  0.5819  0.7411  0.2590
  850MOL0     C12105   2.988   8.958   8.216  0.2931  0.1808 -0.1739
  850MOL0     C12106   2.866   8.926   8.302 -1.1792 -0.0792  0.3767
  850MOL0     C12107   2.750   9.006   8.242  1.6698  0.1212  1.0077
  850MOL0     C12108   2.621   8.968   8.329  0.1716  0.0188 -1.1051
  850MOL0     C12109   2.507   9.070   8.301 -0.1122 -0.0141  1.3640
  850MOL0     C12110   2.375   9.028   8.366 -0.3336  0.7023 -0.7340
  850MOL0     C12111   2.260   9.130   8.341 -0.3259  0.3764  0.8281
  850MOL0    Cl12112   2.299   9.291   8.413 -0.0863 -0.3606 -0.2301
  850MOL0     C12113   3.406   9.016   8.059  0.7879  0.2922  1.0983
  850MOL0     C12114   3.534   8.988   8.020 -0.6044  0.1962  0.3714
  850MOL0     O12115   3.793   8.698   8.165  0.2829 -0.1342 -0.0920
  850MOL0     C12116   4.022   8.950   8.007  0.2543  0.6177 -0.4618
  850MOL0     C12117   4.156   8.989   8.007  1.0886  0.6859  0.5590
  850MOL0     N12118   4.873   8.770   7.873  0.0091  0.8443 -0.5365
  850MOL0     N12119   4.939   8.842   7.795  0.2652 -0.2845  0.2101
  850MOL0     C12120   6.193   8.927   7.766 -0.8585 -0.5001  0.3680
  850MOL0     C12121   6.329   8.945   7.727  0.9249  0.4406  0.1929
  850MOL0     C12122   6.777   8.963   7.722 -0.5936 -0.2115 -0.0944
  850MOL0     C12123   6.833   9.040   7.825  0.7297 -0.1347  0.5437
  850MOL0     C12124   6.971   9.043   7.838 -0.2414  0.1058 -0.4531
  850MOL0     C12125   7.061   8.992   7.742 -1.1517  0.4519 -0.8270
  850MOL0     O12126   7.196   9.006   7.775 -0.6323  0.1345  0.2790
  850MOL0     C12127   7.285   8.898   7.757 -0.1973 -0.3944  0.7350
  850MOL0     C12128   7.421   8.925   7.827  0.1585  0.2219 -0.7197
  850MOL0     C12129   7.402   8.954   7.984 -0.1830 -0.2979  0.6108
  850MOL0     C12130   7.532   8.949   8.050  0.2478  0.2439  0.0752
  850MOL0     C12131   7.599   9.070   8.008  0.3720 -0.4752  0.0756
  850MOL0     C12132   7.640   9.172   7.959  0.4951 -0.4419  0.3964
  850MOL0     C12133   7.008   8.927   7.636  0.5945 -0.4038 -0.2947
  850MOL0     C12134   6.869   8.914   7.625 -0.5509  0.2589  0.2176
  850MOL0     H12135   6.446   9.081   8.019 -0.0049 -0.3034 -0.6888
  850MOL0     H12136   6.204   9.069   8.072  0.7322 -0.3655  0.3146
  850MOL0     H12137   5.916   8.867   7.778 -2.8763  1.5436 -3.0355
  850MOL0     H12138   5.952   9.028   7.731  1.7022 -0.8404  0.3565
  850MOL0     H12139   5.808   9.121   7.913  0.0443 -0.1165  0.4970
  850MOL0     H12140   5.779   8.967   7.979 -0.0268 -0.4663 -0.6767
  850MOL0     H12141   5.689   8.900   7.738  0.5308 -1.3710  1.7671
  850MOL0     H12142   5.677   9.081   7.718 -4.5426  0.2453 -0.8696
  850MOL0     H12143   5.539   8.902   7.919 -1.0537 -0.4299  0.6183
  850MOL0     H12144   5.557   9.076   7.945  4.2519 -1.7779  0.0413
  850MOL0     H12145   5.421   8.931   7.708 -2.7133 -1.4717  0.6457
  850MOL0     H12146   5.452   9.106   7.715  2.3755  0.8125  2.5173
  850MOL0     H12147   5.299   9.131   7.902  0.1058  0.7201 -0.4674
  850MOL0     H12148   5.260   8.956   7.904 -0.3503  0.5438 -0.1821
  850MOL0     H12149   5.218   9.139   7.683 -0.7802  1.1344  0.4123
  850MOL0     H12150   5.192   8.959   7.678  3.7719  0.7672 -1.6375
  850MOL0     H12151   4.983   9.127   7.722 -0.9796  4.1421  2.5551
  850MOL0     H12152   5.047   9.153   7.882 -2.2613  0.5190 -0.2564
  850MOL0     H12153   4.976   9.012   8.070 -2.1448  1.7009 -0.0919
  850MOL0     H12154   4.894   8.751   8.182  1.9608  0.7637 -1.3107
  850MOL0     H12155   4.727   8.724   8.100 -1.4035  1.2500 -1.9449
  850MOL0     H12156   4.817   8.987   8.228 -2.7133  0.6206  4.0288
  850MOL0     H12157   4.712   8.874   8.296 -0.8398 -0.1056  0.0241
  850MOL0     H12158   4.638   9.082   8.165 -0.8528 -0.6012  1.4059
  850MOL0     H12159   4.660   8.996   8.016 -0.5241 -1.9149 -0.3325
  850MOL0     H12160   4.474   8.909   8.254  0.1763 -3.5815  0.4352
  850MOL0     H12161   4.506   8.806   8.114  0.1173  0.0062 -0.7491
  850MOL0     H12162   4.298   8.733   8.158  0.3312 -0.0856 -1.5358
  850MOL0     H12163   4.058   8.664   8.188  0.8100 -0.5261  0.9200
  850MOL0     H12164   3.610   8.804   8.293  0.1250  0.2722 -1.0197
  850MOL0     H12165   3.359   8.843   8.329 -4.0169  0.9673 -1.8991
  850MOL0     H12166   3.132   8.942   8.369 -1.7843  2.6552  0.0753
  850MOL0     H12167   3.126   8.807   8.257 -1.8325  0.5060  2.2354
  850MOL0     H12168   2.982   8.914   8.116  0.7484 -1.3263  0.4400
  850MOL0     H12169   2.999   9.066   8.207  0.5337  0.2872  1.1592
  850MOL0     H12170   2.891   8.959   8.404  0.8478  1.2952 -0.5117
  850MOL0     H12171   2.844   8.818   8.303  0.3491 -0.4215 -0.2645
  850MOL0     H12172   2.763   9.115   8.243  1.9294  0.1224 -0.3233
  850MOL0     H12173   2.728   8.986   8.136 -1.2114 -0.8236  1.6818
  850MOL0     H12174   2.641   8.985   8.435 -2.5182  2.6452 -0.8747
  850MOL0     H12175   2.586   8.867   8.305 -0.7315  0.2593 -0.8612
  850MOL0     H12176   2.492   9.090   8.195  2.2046 -1.1839  0.7384
  850MOL0     H12177   2.541   9.166   8.341  2.8825 -1.1223  1.7342
  850MOL0     H12178   2.337   8.928   8.343  0.3505  0.2998 -0.1473
  850MOL0     H12179   2.388   9.021   8.474 -0.6587 -2.7916 -0.7852
  850MOL0     H12180   2.166   9.085   8.372 -0.9166  1.6163  0.9106
  850MOL0     H12181   2.246   9.156   8.236 -2.1925 -0.0146  0.9585
  850MOL0     H12182   3.347   9.079   7.993 -2.2387 -0.9914  2.3785
  850MOL0     H12183   3.577   9.023   7.927 -1.6101  0.4994  0.0151
  850MOL0     H12184   3.952   9.024   7.969 -0.6493 -0.8659 -1.8293
  850MOL0     H12185   4.185   9.073   7.945  1.1592  0.4896  0.3251
  850MOL0     H12186   6.132   8.878   7.691  0.1583  1.5730 -1.9588
  850MOL0     H12187   6.363   8.914   7.628 -0.6288  0.3068 -0.3266
  850MOL0     H12188   6.773   9.083   7.904 -2.4505 -0.2797 -1.6384
  850MOL0     H12189   7.014   9.096   7.923  1.6679 -0.1445 -1.2164
  850MOL0     H12190   7.303   8.894   7.649  0.9972  1.0924  0.8474
  850MOL0     H12191   7.239   8.806   7.794 -0.5409  0.0417  1.4106
  850MOL0     H12192   7.470   8.828   7.822 -1.1729 -0.6580  1.6099
  850MOL0     H12193   7.483   8.998   7.774  2.6981  0.1824  1.9680
  850MOL0     H12194   7.335   8.880   8.029  1.0384 -1.3903  0.6882
  850MOL0     H12195   7.351   9.050   7.998  1.8415  1.4055 -2.4944
  850MOL0     H12196   7.510   8.939   8.157 -0.7056  1.1543 -0.0177
  850MOL0     H12197   7.572   8.854   8.014 -0.3297 -0.9422  2.3656
  850MOL0     H12198   7.679   9.261   7.913 -0.4892  0.5725  1.4696
  850MOL0     H12199   7.065   8.871   7.562  0.0526 -0.3258 -0.7721
  850MOL0     H12200   6.830   8.845   7.550  1.3859 -2.4229  1.5143
  851MOL0     O12201   0.615   5.450   4.671 -0.6297  0.1061  0.2025
  851MOL0     C12202   0.653   5.523   4.581 -1.1369 -0.8703  0.6637
  851MOL0     O12203   0.579   5.585   4.487 -0.6741  0.4242 -0.3599
  851MOL0     C12204   0.437   5.577   4.493  0.4292 -0.6841 -0.3595
  851MOL0     C12205   0.374   5.550   4.370 -0.3592  0.0833 -0.8737
  851MOL0     C12206   0.242   5.528   4.364  0.5428 -0.5314 -0.4519
  851MOL0     C12207   0.156   5.559   4.471  0.1550 -0.4077 -0.9811
  851MOL0     O12208   0.019   5.535   4.446 -0.1869 -0.5021  0.1753
  851MOL0     C12209  -0.049   5.468   4.546  0.0908 -0.0537 -0.1705
  851MOL0     C12210  -0.161   5.380   4.474  0.1666 -0.4091  0.3501
  851MOL0     C12211  -0.281   5.345   4.562  0.5263  0.4985 -0.0164
  851MOL0     C12212  -0.394   5.277   4.480  0.0169 -0.3208  0.2478
  851MOL0     C12213  -0.513   5.267   4.584 -0.5214 -0.6318 -0.1298
  851MOL0     C12214  -0.630   5.200   4.505 -1.1023 -0.4535  0.0640
  851MOL0     C12215  -0.759   5.207   4.582 -0.4857 -0.1852 -0.0791
  851MOL0     C12216  -0.759   5.186   4.729  0.0180  1.2294  0.0248
  851MOL0     N12217  -0.752   5.038   4.747  0.5381  0.3038 -0.1791
  851MOL0     C12218  -0.857   4.956   4.724  0.1448  0.1366  0.2232
  851MOL0     C12219  -0.810   4.833   4.748  0.3828 -0.0466 -0.1269
  851MOL0     C12220  -0.904   4.715   4.744 -0.0203 -0.2406 -0.2623
  851MOL0     C12221  -0.891   4.626   4.620  0.3168 -0.4915 -0.5402
  851MOL0     C12222  -0.965   4.496   4.640  0.4467  0.9176  0.1500
  851MOL0     C12223  -0.968   4.400   4.515 -0.7686 -0.1746  0.1060
  851MOL0     O12224  -0.843   4.344   4.495  0.0545 -0.3344  0.0271
  851MOL0     C12225  -0.835   4.242   4.403  0.0791 -0.5795 -0.2696
  851MOL0     C12226  -0.935   4.208   4.315  0.9637 -0.2563 -0.7142
  851MOL0     C12227  -0.921   4.100   4.223 -0.7485  0.8546  0.2870
  851MOL0     C12228  -0.791   4.041   4.205  0.6939  0.7188 -0.1598
  851MOL0     C12229  -0.770   3.933   4.103 -0.3681  0.5463 -0.2458
  851MOL0     O12230  -0.644   3.881   4.108 -0.6617  0.5389 -0.4646
  851MOL0     C12231  -0.594   3.782   4.029 -0.3565  0.8194 -0.0365
  851MOL0     C12232  -0.653   3.658   4.048 -0.4084 -0.2367  0.8105
  851MOL0     C12233  -0.637   3.559   3.949  0.3296  0.3006 -0.9624
  851MOL0     C12234  -0.564   3.593   3.834  0.2297  0.6904 -0.1440
  851MOL0     O12235  -0.545   3.507   3.729 -0.7826  0.6366 -0.0949
  851MOL0     C12236  -0.615   3.541   3.603 -0.8347 -1.3314 -0.4661
  851MOL0     C12237  -0.558   3.467   3.484 -0.5592  0.9845  0.3380
  851MOL0     C12238  -0.602   3.321   3.489  0.3627  1.2464  0.3721
  851MOL0     C12239  -0.544   3.236   3.376  0.6311 -1.3227 -0.3586
  851MOL0     C12240  -0.395   3.210   3.404 -0.2900 -0.1821  0.2930
  851MOL0     C12241  -0.335   3.088   3.323 -1.4229 -0.8692  0.3587
  851MOL0     C12242  -0.184   3.082   3.363  0.2014  0.1821 -0.1877
  851MOL0     C12243  -0.096   3.124   3.248  0.6776  0.2349 -0.1635
  851MOL0    Cl12244  -0.103   3.012   3.105 -0.0617  0.1310 -0.0188
  851MOL0     C12245  -0.498   3.716   3.824  0.1382  0.0411 -0.0001
  851MOL0     C12246  -0.510   3.817   3.923 -0.3902  1.1280  0.3634
  851MOL0     O12247  -0.850   3.908   4.014  0.4886 -0.2445  1.1047
  851MOL0     C12248  -0.691   4.080   4.294  0.2063 -0.7726  0.3654
  851MOL0     C12249  -0.713   4.174   4.392  0.3218 -0.4643 -0.4708
  851MOL0     N12250  -0.670   4.840   4.783  1.1792 -0.2234  0.2748
  851MOL0     N12251  -0.647   4.967   4.794 -0.4202 -0.5349  0.4086
  851MOL0     C12252   0.209   5.603   4.591 -0.4180  0.3695 -0.8223
  851MOL0     C12253   0.354   5.617   4.599  0.2691 -0.0610 -0.6872
  851MOL0     C12254   0.798   5.570   4.595  0.0056  0.2326  0.2076
  851MOL0     C12255   0.872   5.542   4.704 -0.0282 -0.0298  0.0979
  851MOL0     C12256   1.008   5.573   4.703 -0.7776 -1.0685  0.0582
  851MOL0     C12257   1.070   5.638   4.606  0.1086  0.6869  0.6365
  851MOL0     O12258   1.204   5.678   4.628 -0.1767 -1.0892 -0.1862
  851MOL0     C12259   1.279   5.766   4.535 -0.0479  0.4456 -0.2656
  851MOL0     C12260   1.340   5.666   4.436 -0.4610 -0.0245  0.3007
  851MOL0     C12261   1.490   5.698   4.384 -0.5783 -0.5174  0.5581
  851MOL0     C12262   1.598   5.679   4.493  0.0302 -1.0826  0.0514
  851MOL0     C12263   1.729   5.737   4.453  1.0451  0.1720  0.1079
  851MOL0     C12264   1.836   5.779   4.430 -0.4597  0.0000 -1.1444
  851MOL0     C12265   0.989   5.684   4.502 -0.4087 -1.2379  0.2375
  851MOL0     C12266   0.856   5.647   4.490 -0.8834 -0.1551  0.2219
  851MOL0     H12267   0.436   5.540   4.281  1.0910  0.0941  0.1161
  851MOL0     H12268   0.193   5.503   4.271 -0.2631 -2.7008  0.4823
  851MOL0     H12269  -0.093   5.547   4.607  0.0781 -0.4553  0.3491
  851MOL0     H12270   0.023   5.401   4.594 -0.0461 -0.5535 -0.6576
  851MOL0     H12271  -0.121   5.290   4.427  0.2119 -0.0516 -0.3175
  851MOL0     H12272  -0.203   5.438   4.391 -0.5758 -4.1782 -2.1831
  851MOL0     H12273  -0.307   5.435   4.619  2.6471  0.5704  0.9505
  851MOL0     H12274  -0.242   5.265   4.626 -4.7765 -2.4263  0.0878
  851MOL0     H12275  -0.419   5.327   4.386 -0.1847  1.8003  1.3784
  851MOL0     H12276  -0.357   5.179   4.448 -1.9689 -1.6160  1.6234
  851MOL0     H12277  -0.563   5.360   4.611 -0.3375  0.0350 -1.9804
  851MOL0     H12278  -0.486   5.210   4.673  1.2066 -0.5603 -0.5800
  851MOL0     H12279  -0.605   5.096   4.480 -0.8007  0.0148 -1.7481
  851MOL0     H12280  -0.645   5.252   4.410  0.9716  0.4726  0.1785
  851MOL0     H12281  -0.795   5.310   4.589 -2.9791 -1.0592  2.1264
  851MOL0     H12282  -0.830   5.141   4.531  1.3837 -3.1359  0.8676
  851MOL0     H12283  -0.843   5.228   4.786 -1.0076  1.4202 -1.5652
  851MOL0     H12284  -0.669   5.227   4.776 -0.1174  0.6990  0.7570
  851MOL0     H12285  -0.954   4.990   4.690 -0.6385  0.2862  2.4383
  851MOL0     H12286  -0.998   4.769   4.753  0.6310  0.8165  0.4762
  851MOL0     H12287  -0.911   4.654   4.835 -1.0628  1.5634  0.9118
  851MOL0     H12288  -0.785   4.600   4.611  0.2337 -1.4665  0.9020
  851MOL0     H12289  -0.923   4.676   4.528 -1.2629 -0.4409  0.0127
  851MOL0     H12290  -0.919   4.442   4.723  0.1396  0.1494 -0.1709
  851MOL0     H12291  -1.068   4.522   4.663  0.5385  1.8263 -0.4285
  851MOL0     H12292  -0.990   4.464   4.429 -0.2270 -0.5399 -0.3079
  851MOL0     H12293  -1.043   4.326   4.543 -0.7417  0.4211  1.9155
  851MOL0     H12294  -1.031   4.258   4.326 -0.4483 -3.1582  1.4506
  851MOL0     H12295  -1.009   4.083   4.162  0.1023  0.6007 -0.8927
  851MOL0     H12296  -0.716   3.641   4.135  0.4962  1.0712  1.7663
  851MOL0     H12297  -0.705   3.475   3.960  0.0077  0.5341 -1.1431
  851MOL0     H12298  -0.599   3.648   3.587 -1.0754 -1.2751 -0.3369
  851MOL0     H12299  -0.723   3.524   3.604 -1.1916  0.6318  1.5191
  851MOL0     H12300  -0.449   3.471   3.481 -0.5167 -0.5256 -1.5051
  851MOL0     H12301  -0.595   3.509   3.390  1.3618 -1.6360 -1.7357
  851MOL0     H12302  -0.710   3.320   3.473  0.7594 -1.6054 -3.4153
  851MOL0     H12303  -0.577   3.280   3.587  0.9656 -0.2361 -0.3791
  851MOL0     H12304  -0.606   3.147   3.366 -1.8847  0.0808  1.6532
  851MOL0     H12305  -0.558   3.293   3.284  1.8448  1.1956  0.9030
  851MOL0     H12306  -0.373   3.203   3.511  0.4422 -0.1860  0.1483
  851MOL0     H12307  -0.342   3.301   3.374 -1.4544  0.3872 -0.1164
  851MOL0     H12308  -0.352   3.113   3.218 -1.4242 -3.0081 -0.1789
  851MOL0     H12309  -0.387   2.993   3.338 -4.9304  0.8176 -0.0219
  851MOL0     H12310  -0.157   3.146   3.447 -2.0314  1.3073 -0.2759
  851MOL0     H12311  -0.168   2.980   3.398 -0.6793 -1.1603 -3.3637
  851MOL0     H12312   0.005   3.115   3.289 -0.3481 -2.5940  2.1065
  851MOL0     H12313  -0.134   3.225   3.232  0.6969  0.0697 -1.2816
  851MOL0     H12314  -0.441   3.740   3.734  0.4271  3.4683  0.9505
  851MOL0     H12315  -0.457   3.911   3.926 -0.7072  1.3163  3.7206
  851MOL0     H12316  -0.593   4.034   4.293  1.0662  0.9335 -1.0059
  851MOL0     H12317  -0.633   4.217   4.451 -0.3952  0.8336 -0.3956
  851MOL0     H12318   0.142   5.631   4.671 -1.5537 -2.8211 -0.5299
  851MOL0     H12319   0.399   5.650   4.692 -0.3671  0.0248 -0.4071
  851MOL0     H12320   0.822   5.492   4.786 -0.9088 -1.7896 -1.4332
  851MOL0     H12321   1.076   5.542   4.782 -0.9945 -0.9760  0.2786
  851MOL0     H12322   1.362   5.817   4.584 -1.5817  2.2936  0.5670
  851MOL0     H12323   1.214   5.841   4.489 -1.1787 -0.7561 -0.7150
  851MOL0     H12324   1.346   5.566   4.478  1.1048  0.0010  0.1936
  851MOL0     H12325   1.277   5.656   4.347  0.7200 -0.4349 -0.5130
  851MOL0     H12326   1.498   5.801   4.347  2.1186 -0.8262  0.0992
  851MOL0     H12327   1.510   5.642   4.293 -2.3047 -0.7134  0.2663
  851MOL0     H12328   1.572   5.731   4.586  0.8628  0.3745 -0.4970
  851MOL0     H12329   1.605   5.573   4.520 -1.1825 -1.1105  0.3328
  851MOL0     H12330   1.932   5.827   4.424  1.0415 -2.3649  1.5246
  851MOL0     H12331   1.036   5.738   4.420 -0.3320  0.0608  1.1069
  851MOL0     H12332   0.793   5.681   4.408  1.3125 -1.4527 -2.1566
  852MOL0     O12333   6.763   2.659   1.186  0.2980  0.4837  0.7729
  852MOL0     C12334   6.683   2.569   1.205  0.7863  0.0868  0.1363
  852MOL0     O12335   6.721   2.433   1.206  0.7606  0.3757  0.2039
  852MOL0     C12336   6.839   2.413   1.145 -0.0572  0.3113  0.7728
  852MOL0     C12337   6.850   2.411   1.006 -0.4723 -0.2127  0.8047
  852MOL0     C12338   6.965   2.370   0.941 -0.0993 -0.5244 -0.0209
  852MOL0     C12339   7.081   2.345   1.013  0.3257  0.4635 -0.3592
  852MOL0     O12340   7.198   2.301   0.938  0.7784  0.0072 -1.0456
  852MOL0     C12341   7.302   2.242   1.023  0.4927  0.0662  0.3897
  852MOL0     C12342   7.397   2.165   0.938 -0.6739 -0.0417  0.6059
  852MOL0     C12343   7.519   2.248   0.898  0.4387  0.0987 -0.2731
  852MOL0     C12344   7.641   2.211   0.985 -0.2112  0.0161  0.0981
  852MOL0     C12345   7.766   2.307   0.959  0.9476  0.0898  0.5617
  852MOL0     C12346   7.786   2.406   1.076  0.0314  0.6649  0.5060
  852MOL0     C12347   7.915   2.483   1.074  0.7485  0.2929  0.4756
  852MOL0     C12348   7.963   2.521   0.938 -0.6053  0.3406  0.0012
  852MOL0     N12349   8.070   2.626   0.956 -0.7017 -0.1428 -0.3101
  852MOL0     C12350   8.197   2.602   0.985 -0.6065  0.2472 -0.0170
  852MOL0     C12351   8.255   2.725   0.995 -0.4341 -0.1190 -0.1326
  852MOL0     C12352   8.401   2.765   1.016 -0.2399 -0.9964 -0.3518
  852MOL0     C12353   8.476   2.782   0.886  0.7138 -0.0083 -0.3796
  852MOL0     C12354   8.420   2.902   0.803 -0.1289 -0.6037 -0.7988
  852MOL0     C12355   8.378   2.860   0.664 -0.1294  1.1827  0.7036
  852MOL0     O12356   8.346   2.974   0.582 -0.4739  0.2401  0.6936
  852MOL0     C12357   8.211   3.008   0.570  0.8233  0.4818 -0.3576
  852MOL0     C12358   8.104   2.952   0.648  0.8198  0.5042  1.2153
  852MOL0     C12359   7.958   2.976   0.624 -0.4373 -0.6488 -0.1389
  852MOL0     C12360   7.934   3.072   0.524  0.8199 -0.9585  0.0729
  852MOL0     C12361   7.792   3.119   0.496  0.0048  0.0608 -0.1126
  852MOL0     O12362   7.694   3.053   0.562 -0.2900  0.2693 -0.7059
  852MOL0     C12363   7.564   3.078   0.541 -0.1968  0.0794  0.4322
  852MOL0     C12364   7.525   3.212   0.555  1.1091  0.2055  0.0636
  852MOL0     C12365   7.384   3.240   0.545 -0.1803 -0.0639 -0.3990
  852MOL0     C12366   7.290   3.147   0.514 -0.3965 -0.3802 -0.4967
  852MOL0     O12367   7.148   3.181   0.511 -0.3767  0.0898  0.3745
  852MOL0     C12368   7.047   3.086   0.553  0.3132  0.4797  0.1227
  852MOL0     C12369   6.905   3.150   0.529  0.1671  0.2863  0.7024
  852MOL0     C12370   6.785   3.061   0.549  0.7837 -0.8620  0.7298
  852MOL0     C12371   6.651   3.127   0.496  0.1879  0.1721  0.7508
  852MOL0     C12372   6.540   3.035   0.548  0.0978  0.8914  0.8185
  852MOL0     C12373   6.408   3.050   0.472  0.4129 -0.7058  0.1999
  852MOL0     C12374   6.344   3.185   0.490  0.5747 -0.2237  0.1496
  852MOL0     C12375   6.192   3.178   0.488  0.4211  0.6677 -0.2377
  852MOL0    Cl12376   6.127   3.114   0.337  0.3936  0.2246 -0.1965
  852MOL0     C12377   7.336   3.016   0.497 -0.4404  0.4210 -0.0053
  852MOL0     C12378   7.465   2.980   0.513 -0.8771 -0.7196 -0.6433
  852MOL0     O12379   7.778   3.216   0.416 -0.1309 -0.4395  0.1682
  852MOL0     C12380   8.036   3.118   0.450 -0.4070 -0.7234 -0.3769
  852MOL0     C12381   8.173   3.095   0.471  0.2444  0.6551  0.5202
  852MOL0     N12382   8.155   2.821   0.985  0.4551  0.2329  0.7392
  852MOL0     N12383   8.049   2.758   0.944  0.1970 -0.0143 -0.2133
  852MOL0     C12384   7.066   2.349   1.158 -0.0650  0.6908  0.0176
  852MOL0     C12385   6.948   2.379   1.227  0.1880 -1.1614 -0.2882
  852MOL0     C12386   6.538   2.603   1.214 -0.0798 -0.2321 -0.6976
  852MOL0     C12387   6.504   2.734   1.248 -1.4675 -0.9618  0.4275
  852MOL0     C12388   6.370   2.762   1.261 -0.5200 -0.5855 -0.0646
  852MOL0     C12389   6.278   2.663   1.232  0.3764 -0.2946  0.3206
  852MOL0     O12390   6.145   2.707   1.231 -0.4716 -0.2220 -0.0851
  852MOL0     C12391   6.045   2.606   1.197 -1.0427 -0.4608  0.0538
  852MOL0     C12392   5.911   2.674   1.234 -0.4777  0.6006  0.4465
  852MOL0     C12393   5.794   2.575   1.233 -0.1945 -0.2232 -0.0377
  852MOL0     C12394   5.729   2.593   1.090 -0.5165  0.4929 -0.0389
  852MOL0     C12395   5.634   2.481   1.056 -1.1754  1.0965  0.0341
  852MOL0     C12396   5.547   2.398   1.030  0.5372 -0.7980  0.8133
  852MOL0     C12397   6.319   2.538   1.195  0.6931 -0.3617 -0.2116
  852MOL0     C12398   6.450   2.505   1.191 -0.2872  0.3129  0.3840
  852MOL0     H12399   6.776   2.440   0.933 -0.3602  0.7999  1.0880
  852MOL0     H12400   6.965   2.354   0.833 -1.1046  3.1233 -0.7212
  852MOL0     H12401   7.252   2.168   1.086 -1.7230 -1.4627 -2.8575
  852MOL0     H12402   7.361   2.314   1.080 -0.6880  0.2685  1.4069
  852MOL0     H12403   7.345   2.136   0.847 -1.7872 -0.7894  1.4485
  852MOL0     H12404   7.420   2.081   1.005 -0.5834 -0.6948 -0.2295
  852MOL0     H12405   7.491   2.353   0.909  0.4529  0.0247  0.5419
  852MOL0     H12406   7.540   2.238   0.791 -1.9620  1.6284 -0.9550
  852MOL0     H12407   7.607   2.215   1.089 -1.6193  1.4229 -0.3776
  852MOL0     H12408   7.668   2.115   0.939  1.1975  1.0308 -1.2645
  852MOL0     H12409   7.762   2.352   0.859  1.2506 -0.5562  0.2541
  852MOL0     H12410   7.845   2.231   0.967  1.2262  0.5420  2.6642
  852MOL0     H12411   7.776   2.364   1.176 -1.9829  2.5034  1.1653
  852MOL0     H12412   7.695   2.467   1.079 -1.7519 -1.8677  0.6974
  852MOL0     H12413   7.903   2.577   1.131  2.6278 -0.2645  1.8734
  852MOL0     H12414   7.991   2.416   1.115 -0.8105 -2.5997 -1.1182
  852MOL0     H12415   7.875   2.563   0.888 -1.3844 -4.0430 -2.8470
  852MOL0     H12416   7.997   2.432   0.884 -1.5003 -1.4631  2.2269
  852MOL0     H12417   8.249   2.508   1.002 -2.9751 -1.5311 -1.9852
  852MOL0     H12418   8.448   2.687   1.076 -0.4169 -2.3956 -1.9527
  852MOL0     H12419   8.392   2.855   1.078 -1.9833 -0.5779 -1.1453
  852MOL0     H12420   8.457   2.693   0.825  0.0517 -1.8989  2.3599
  852MOL0     H12421   8.581   2.803   0.908  0.9152 -3.2370  2.8220
  852MOL0     H12422   8.331   2.929   0.861  0.3726 -1.2437  0.3020
  852MOL0     H12423   8.492   2.983   0.795 -0.1250 -0.3761  1.0759
  852MOL0     H12424   8.297   2.786   0.665  2.3680 -1.8062  1.9449
  852MOL0     H12425   8.459   2.821   0.601 -1.9253  1.5573 -2.0077
  852MOL0     H12426   8.129   2.897   0.738  0.2262 -2.1518 -0.1254
  852MOL0     H12427   7.883   2.919   0.678 -1.1119  0.4854  0.1581
  852MOL0     H12428   7.596   3.292   0.572 -0.2189  2.0171 -2.3404
  852MOL0     H12429   7.356   3.342   0.567  1.6732  0.1444  1.2687
  852MOL0     H12430   7.053   3.057   0.658 -1.6792  1.0481  0.4255
  852MOL0     H12431   7.065   2.998   0.490  2.1095  1.7346 -1.2234
  852MOL0     H12432   6.898   3.184   0.425  0.7329 -2.0235 -0.1372
  852MOL0     H12433   6.889   3.228   0.605 -1.2748 -0.3496  1.0907
  852MOL0     H12434   6.780   3.054   0.658  0.2055 -0.9000  0.7031
  852MOL0     H12435   6.790   2.960   0.509  0.3503 -0.8377  0.6140
  852MOL0     H12436   6.628   3.227   0.533 -0.6037  0.4338 -0.4204
  852MOL0     H12437   6.649   3.129   0.387  0.7125  0.9197  0.7488
  852MOL0     H12438   6.514   3.059   0.651  0.3905  0.6351  0.9556
  852MOL0     H12439   6.578   2.934   0.533 -1.6699  0.0844  1.4837
  852MOL0     H12440   6.344   2.968   0.506  1.1419  0.0516  3.8464
  852MOL0     H12441   6.412   3.030   0.365  0.2340  1.3151 -0.2318
  852MOL0     H12442   6.378   3.222   0.588  0.2952 -0.6577  0.4159
  852MOL0     H12443   6.377   3.258   0.416 -0.5536 -1.9840 -2.2170
  852MOL0     H12444   6.148   3.277   0.505 -2.9645 -0.9217  0.9586
  852MOL0     H12445   6.152   3.113   0.566  0.6875 -0.7320 -1.2385
  852MOL0     H12446   7.257   2.953   0.455 -2.0924  0.3195  3.0052
  852MOL0     H12447   7.497   2.876   0.511 -0.0521 -0.4770 -0.3687
  852MOL0     H12448   8.012   3.192   0.374  0.3218  0.1574  0.2260
  852MOL0     H12449   8.248   3.144   0.411  2.1086 -1.4167  1.0262
  852MOL0     H12450   7.150   2.327   1.222 -0.8816 -0.4977  0.7144
  852MOL0     H12451   6.951   2.388   1.335 -0.4072  0.0896 -0.3552
  852MOL0     H12452   6.574   2.814   1.269 -1.0650 -1.4205  0.8732
  852MOL0     H12453   6.342   2.863   1.292 -1.9110 -0.6907 -0.8942
  852MOL0     H12454   6.056   2.508   1.245  1.8377 -0.4823 -0.4446
  852MOL0     H12455   6.057   2.602   1.089  3.3216  2.9007  0.1022
  852MOL0     H12456   5.922   2.711   1.336  2.6837 -0.3728  0.5711
  852MOL0     H12457   5.893   2.755   1.162 -1.1028 -0.8950 -1.1537
  852MOL0     H12458   5.719   2.611   1.304  0.8893  0.8499  0.5931
  852MOL0     H12459   5.828   2.472   1.252 -0.6044 -0.7498 -1.9268
  852MOL0     H12460   5.675   2.688   1.090 -0.3533  0.5896  0.8538
  852MOL0     H12461   5.806   2.600   1.012 -1.6847  2.6962 -1.0994
  852MOL0     H12462   5.482   2.313   1.028 -1.5587  0.6971  1.8120
  852MOL0     H12463   6.253   2.459   1.162 -1.4215  0.8864  0.7927
  852MOL0     H12464   6.483   2.404   1.170 -0.3666  0.2043  0.7743
  853MOL0     O12465   7.957   1.174   0.319 -0.0966  0.0928 -0.1320
  853MOL0     C12466   7.959   1.084   0.403 -1.0011  0.5131  0.3475
  853MOL0     O12467   7.874   0.968   0.405 -0.6190 -0.4894 -0.1331
  853MOL0     C12468   7.768   0.963   0.321  0.3003  0.7874  0.1142
  853MOL0     C12469   7.710   1.068   0.249 -0.0349 -0.0673 -0.1142
  853MOL0     C12470   7.611   1.051   0.150  0.2681  0.2493 -0.0084
  853MOL0     C12471   7.563   0.927   0.126 -0.0617  0.5928 -0.5910
  853MOL0     O12472   7.454   0.913   0.043  0.0639  0.2927 -0.3292
  853MOL0     C12473   7.337   0.826   0.075  0.2474 -0.3949  0.3153
  853MOL0     C12474   7.220   0.912   0.124  0.0568 -0.9041  0.1812
  853MOL0     C12475   7.239   0.991   0.251  0.2077 -0.1213 -0.3175
  853MOL0     C12476   7.124   1.080   0.265  0.1084 -0.9987  0.8200
  853MOL0     C12477   7.159   1.207   0.351  0.3725  0.0329 -0.6930
  853MOL0     C12478   7.041   1.303   0.397  0.2192  0.7598  0.0039
  853MOL0     C12479   6.943   1.347   0.291 -0.1766  0.2299  0.0599
  853MOL0     C12480   6.796   1.332   0.332  0.7337 -0.5890 -0.6637
  853MOL0     N12481   6.743   1.187   0.313 -0.4407 -0.0156 -0.3681
  853MOL0     C12482   6.767   1.099   0.209 -0.9665 -0.4620  0.1682
  853MOL0     C12483   6.671   1.003   0.226  0.1064  1.0645 -0.1486
  853MOL0     C12484   6.634   0.884   0.131  0.3804 -0.3799 -0.4766
  853MOL0     C12485   6.490   0.888   0.079  0.3284 -1.3392  0.0353
  853MOL0     C12486   6.457   1.012  -0.002  0.4371  0.5446  1.1994
  853MOL0     C12487   6.301   1.022  -0.025 -0.5507  0.7418  0.4205
  853MOL0     O12488   6.259   0.914  -0.112  0.4080  0.7782 -0.1477
  853MOL0     C12489   6.127   0.858  -0.112 -0.1148  0.1503 -0.0093
  853MOL0     C12490   6.107   0.765  -0.213  0.2048 -0.0869  0.3832
  853MOL0     C12491   5.981   0.702  -0.245 -0.1009  0.3892 -0.4259
  853MOL0     C12492   5.869   0.735  -0.151  0.4392  0.2861 -0.9070
  853MOL0     C12493   5.738   0.663  -0.171  0.1297  0.2127 -0.1636
  853MOL0     O12494   5.639   0.698  -0.089 -0.0980 -0.2072  0.4084
  853MOL0     C12495   5.518   0.649  -0.107  0.0191 -1.0795  0.1935
  853MOL0     C12496   5.443   0.622   0.003  0.0596  0.2757 -0.3255
  853MOL0     C12497   5.307   0.599  -0.004 -0.8963 -0.4002 -0.4693
  853MOL0     C12498   5.244   0.598  -0.123  0.8440 -0.1886  0.3090
  853MOL0     O12499   5.114   0.567  -0.139  0.8309  0.0508  0.3737
  853MOL0     C12500   5.040   0.509  -0.031 -0.1070 -0.3377  0.7532
  853MOL0     C12501   4.887   0.495  -0.059  0.5397  0.2656  0.3109
  853MOL0     C12502   4.804   0.605   0.007  0.3302  0.1177  0.3036
  853MOL0     C12503   4.655   0.557  -0.014  0.3829 -0.2088 -0.5343
  853MOL0     C12504   4.559   0.672   0.024 -0.0111  1.1021  0.3695
  853MOL0     C12505   4.411   0.648  -0.021 -0.5044  0.1993 -0.7298
  853MOL0     C12506   4.356   0.544   0.082  0.6033 -0.4203  0.1103
  853MOL0     C12507   4.205   0.504   0.040  0.4024 -0.3547 -0.1813
  853MOL0    Cl12508   4.175   0.362   0.144  0.3099 -0.1963 -0.2788
  853MOL0     C12509   5.314   0.630  -0.238 -0.2711  1.4995  0.5265
  853MOL0     C12510   5.452   0.648  -0.227 -0.7200 -0.7392  0.2028
  853MOL0     O12511   5.735   0.591  -0.264 -0.2933 -0.2101  0.0350
  853MOL0     C12512   5.886   0.834  -0.049 -0.3415 -0.9170  0.1471
  853MOL0     C12513   6.013   0.901  -0.039 -0.9634  0.0329  0.6803
  853MOL0     N12514   6.591   1.036   0.339 -0.1846 -0.2747  0.2464
  853MOL0     N12515   6.641   1.141   0.389  0.1677 -0.5222 -0.0387
  853MOL0     C12516   7.609   0.821   0.198  0.0472  0.6008 -0.6176
  853MOL0     C12517   7.710   0.834   0.290  0.0153  0.1478  0.4396
  853MOL0     C12518   8.068   1.083   0.504  0.3993  0.2867 -0.5177
  853MOL0     C12519   8.172   1.178   0.515  0.8782 -0.7989  0.4340
  853MOL0     C12520   8.275   1.165   0.613  0.3742  0.4766 -0.0877
  853MOL0     C12521   8.278   1.064   0.708  0.3776 -0.1066  0.2143
  853MOL0     O12522   8.386   1.061   0.793  0.5447 -0.7155  0.2143
  853MOL0     C12523   8.403   0.955   0.889  0.0233 -0.1392  0.5360
  853MOL0     C12524   8.528   0.969   0.980  0.3956  0.6440  1.2226
  853MOL0     C12525   8.562   0.840   1.056 -0.6895  1.0027 -0.5126
  853MOL0     C12526   8.707   0.834   1.109  0.2516 -0.5926  0.2900
  853MOL0     C12527   8.740   0.944   1.202  0.4946 -0.2895 -0.0133
  853MOL0     C12528   8.757   1.046   1.259 -0.0642  0.0540 -0.1033
  853MOL0     C12529   8.171   0.977   0.706 -0.5178  0.3799 -0.4623
  853MOL0     C12530   8.077   0.981   0.604 -0.0368  0.5514 -0.1433
  853MOL0     H12531   7.725   1.167   0.290 -1.8706 -0.2097  1.0316
  853MOL0     H12532   7.572   1.147   0.116 -1.3172 -0.1062  0.7060
  853MOL0     H12533   7.357   0.752   0.154 -1.1353 -1.5296 -0.3564
  853MOL0     H12534   7.305   0.777  -0.017 -0.1295  1.4881 -0.6006
  853MOL0     H12535   7.129   0.852   0.132 -0.5281 -0.6368 -3.1319
  853MOL0     H12536   7.204   0.981   0.041  0.0939  0.7685  1.5009
  853MOL0     H12537   7.329   1.053   0.250 -0.2850  0.9487  3.7357
  853MOL0     H12538   7.241   0.923   0.337  2.5119 -0.2203 -0.4013
  853MOL0     H12539   7.096   1.118   0.166  3.2054  0.7485  0.4819
  853MOL0     H12540   7.044   1.026   0.316 -0.5125 -2.5403 -1.6421
  853MOL0     H12541   7.224   1.270   0.290  2.6799 -0.6990  0.8726
  853MOL0     H12542   7.216   1.180   0.440 -1.4355  0.1550  0.5544
  853MOL0     H12543   7.089   1.392   0.439  2.5990 -0.1972 -0.5682
  853MOL0     H12544   6.986   1.252   0.477 -1.6162  1.4939 -0.7345
  853MOL0     H12545   6.959   1.454   0.272 -0.4675  0.6992  2.1991
  853MOL0     H12546   6.951   1.292   0.197 -0.5925 -2.5767  1.5694
  853MOL0     H12547   6.730   1.396   0.273  0.8087  0.4336  0.3245
  853MOL0     H12548   6.781   1.364   0.436  2.6921 -0.0174 -0.5250
  853MOL0     H12549   6.838   1.106   0.127 -0.3232  0.3770  0.7834
  853MOL0     H12550   6.652   0.789   0.182  1.1726 -0.6674 -1.2577
  853MOL0     H12551   6.699   0.881   0.042 -0.1831  0.7851 -0.9550
  853MOL0     H12552   6.425   0.887   0.167 -1.0697  0.9042 -0.8727
  853MOL0     H12553   6.478   0.794   0.023 -0.6387 -1.3137  0.1797
  853MOL0     H12554   6.508   1.101   0.035  1.3059 -0.8814  3.6672
  853MOL0     H12555   6.498   0.993  -0.102  0.3168  2.0457  0.8405
  853MOL0     H12556   6.279   1.111  -0.085 -0.5094 -0.5450 -1.6232
  853MOL0     H12557   6.252   1.012   0.072  0.1109  0.8603  0.7754
  853MOL0     H12558   6.188   0.732  -0.278  0.6267  1.5361  0.0470
  853MOL0     H12559   5.967   0.637  -0.330 -0.1544 -0.5948  0.3163
  853MOL0     H12560   5.504   0.630   0.092 -0.6077  0.2261  0.1447
  853MOL0     H12561   5.260   0.576   0.092  0.1756  0.0715  0.1865
  853MOL0     H12562   5.040   0.575   0.057 -0.1927  0.1545  0.3898
  853MOL0     H12563   5.077   0.407  -0.024  0.6216 -0.5865 -3.8994
  853MOL0     H12564   4.855   0.393  -0.033 -2.1552  1.3911  1.8000
  853MOL0     H12565   4.861   0.511  -0.164 -1.2027  0.7976  0.7893
  853MOL0     H12566   4.811   0.700  -0.047  1.3667  0.1323  0.4394
  853MOL0     H12567   4.835   0.619   0.111  1.1926 -0.9363  0.2086
  853MOL0     H12568   4.639   0.531  -0.119 -1.6746 -1.4073  0.0120
  853MOL0     H12569   4.641   0.478   0.061  2.5933 -0.2115 -0.0608
  853MOL0     H12570   4.600   0.762  -0.021  0.3075  1.0129  0.4738
  853MOL0     H12571   4.565   0.683   0.133  0.1368  0.1424  0.4732
  853MOL0     H12572   4.396   0.617  -0.125 -1.5023 -4.7102  0.5766
  853MOL0     H12573   4.356   0.740   0.000  1.0443  0.6134  2.0022
  853MOL0     H12574   4.419   0.454   0.084  3.6897  1.5947  0.6216
  853MOL0     H12575   4.364   0.580   0.185 -0.1911 -1.3792  0.5209
  853MOL0     H12576   4.206   0.482  -0.067 -2.3351 -1.9377  0.0253
  853MOL0     H12577   4.132   0.585   0.052  2.2925  1.5411 -0.8662
  853MOL0     H12578   5.273   0.634  -0.339  1.2740 -3.3984 -0.6070
  853MOL0     H12579   5.501   0.698  -0.309  0.9576  0.4836  1.8878
  853MOL0     H12580   5.800   0.873   0.004 -0.8323  1.3314 -2.0826
  853MOL0     H12581   6.033   0.978   0.035  0.2865 -0.8121  1.2448
  853MOL0     H12582   7.569   0.721   0.181  0.0759  0.3834  0.4785
  853MOL0     H12583   7.748   0.748   0.344 -0.4462  0.8776  2.0035
  853MOL0     H12584   8.175   1.253   0.437 -1.2927 -0.4245  0.6488
  853MOL0     H12585   8.335   1.255   0.612  0.3140  0.5232 -0.8792
  853MOL0     H12586   8.401   0.856   0.842 -1.6608  0.4477 -0.7104
  853MOL0     H12587   8.317   0.950   0.955  0.1134 -0.8814  0.6048
  853MOL0     H12588   8.612   0.977   0.911 -0.5438 -0.3860 -0.1047
  853MOL0     H12589   8.514   1.045   1.057  2.4415  0.5336  1.7668
  853MOL0     H12590   8.545   0.753   0.992  3.2566 -0.9324  0.7947
  853MOL0     H12591   8.489   0.826   1.136  2.4347 -0.5249  2.2972
  853MOL0     H12592   8.719   0.743   1.169 -1.1069 -0.4212  0.8527
  853MOL0     H12593   8.769   0.828   1.019 -1.2261 -1.7918 -0.6954
  853MOL0     H12594   8.760   1.140   1.310 -1.5946 -0.6715  1.4190
  853MOL0     H12595   8.163   0.901   0.783 -0.8045  0.0382 -0.8276
  853MOL0     H12596   8.004   0.900   0.601 -1.8348  2.0771 -3.7011
  854MOL0     O12597   4.450   2.937   0.535 -0.2414 -0.1693 -0.6052
  854MOL0     C12598   4.342   2.983   0.507 -0.0085  0.3704 -0.5267
  854MOL0     O12599   4.297   3.000   0.378 -0.6269 -0.1116 -0.1971
  854MOL0     C12600   4.371   2.976   0.264 -0.0786  0.4620 -0.4746
  854MOL0     C12601   4.294   2.936   0.149  0.1573  0.2034  0.0920
  854MOL0     C12602   4.352   2.905   0.026 -0.7090  0.6067  0.4971
  854MOL0     C12603   4.495   2.909   0.015  0.2160  0.6058 -0.1113
  854MOL0     O12604   4.536   2.882  -0.113  0.4940  0.3630 -0.8739
  854MOL0     C12605   4.676   2.863  -0.130 -0.1282 -0.2820  0.8591
  854MOL0     C12606   4.703   2.868  -0.280  0.3086 -0.2965  0.1897
  854MOL0     C12607   4.845   2.827  -0.327 -0.4431  0.4946 -0.4320
  854MOL0     C12608   4.873   2.845  -0.475  0.3824 -0.7184 -0.5980
  854MOL0     C12609   5.014   2.796  -0.496 -0.2659 -0.1244 -0.1553
  854MOL0     C12610   5.045   2.651  -0.451 -0.4345 -0.6203  0.0781
  854MOL0     C12611   4.963   2.549  -0.535 -0.3360  0.1594 -0.3074
  854MOL0     C12612   5.007   2.399  -0.530  0.4667 -0.0728  0.5117
  854MOL0     N12613   4.890   2.315  -0.560 -0.5508 -0.0821 -0.5420
  854MOL0     C12614   4.818   2.329  -0.673  0.1082 -0.0595  0.1619
  854MOL0     C12615   4.710   2.239  -0.663 -0.6187 -0.2153  0.4539
  854MOL0     C12616   4.606   2.220  -0.773 -0.5529  0.2071 -0.7086
  854MOL0     C12617   4.530   2.345  -0.808 -1.0319 -0.5268 -0.1236
  854MOL0     C12618   4.459   2.384  -0.680  0.8606 -0.2266 -0.1707
  854MOL0     C12619   4.345   2.474  -0.700  0.5115  0.2755  0.6541
  854MOL0     O12620   4.235   2.400  -0.748  0.1157  0.4142  0.1875
  854MOL0     C12621   4.113   2.457  -0.752 -0.2404  1.1390  0.2471
  854MOL0     C12622   4.079   2.588  -0.732 -0.0882 -0.4817 -0.0613
  854MOL0     C12623   3.947   2.634  -0.750 -0.1665  0.6253 -0.2997
  854MOL0     C12624   3.844   2.538  -0.779 -0.3101 -0.0074 -1.3334
  854MOL0     C12625   3.705   2.584  -0.783 -0.1988  0.3577 -0.1702
  854MOL0     O12626   3.620   2.511  -0.860  0.7583 -0.3004  0.6398
  854MOL0     C12627   3.491   2.502  -0.827 -0.3627 -0.4899  0.1640
  854MOL0     C12628   3.431   2.545  -0.707 -0.1040  0.6619 -0.1584
  854MOL0     C12629   3.293   2.523  -0.692 -0.8505  0.1796  1.0526
  854MOL0     C12630   3.212   2.469  -0.797 -0.1655 -0.4003 -0.7153
  854MOL0     O12631   3.068   2.466  -0.786 -0.0393  0.4581  0.2997
  854MOL0     C12632   3.010   2.564  -0.696 -0.9390  0.5734 -0.5407
  854MOL0     C12633   2.857   2.561  -0.718 -0.4127  0.2460 -0.6950
  854MOL0     C12634   2.786   2.441  -0.658  0.4502 -0.2573 -0.0793
  854MOL0     C12635   2.637   2.442  -0.705 -0.3069  0.3683 -0.1457
  854MOL0     C12636   2.544   2.361  -0.620  0.2009 -0.3805  0.0716
  854MOL0     C12637   2.395   2.374  -0.668 -0.5394  0.2172  0.5622
  854MOL0     C12638   2.285   2.321  -0.586  0.2382  0.6410  0.6062
  854MOL0     C12639   2.260   2.397  -0.453  0.6269  0.1710 -0.4403
  854MOL0    Cl12640   2.089   2.382  -0.394  0.1626 -0.3300  0.1430
  854MOL0     C12641   3.277   2.423  -0.916  1.2763 -0.1596 -0.4912
  854MOL0     C12642   3.413   2.437  -0.929  0.0056 -0.1561  0.2783
  854MOL0     O12643   3.681   2.692  -0.729  0.3122  0.1434 -0.3430
  854MOL0     C12644   3.881   2.407  -0.794 -0.3970  0.4056  0.1139
  854MOL0     C12645   4.020   2.367  -0.786 -0.2088  0.2028 -0.3336
  854MOL0     N12646   4.735   2.172  -0.544  0.1473  0.1289  0.1169
  854MOL0     N12647   4.844   2.209  -0.490 -0.5911  0.2051  0.7585
  854MOL0     C12648   4.573   2.952   0.121 -0.0632 -0.4575 -0.2152
  854MOL0     C12649   4.515   2.984   0.244 -0.8644  0.0593 -0.1709
  854MOL0     C12650   4.250   3.018   0.612  0.4320  0.1831 -0.2558
  854MOL0     C12651   4.290   3.015   0.747 -0.3574  0.8842 -0.1441
  854MOL0     C12652   4.194   3.030   0.850 -0.9674 -0.1325  0.5684
  854MOL0     C12653   4.061   3.057   0.822 -0.9440 -0.7940 -0.2391
  854MOL0     O12654   3.963   3.078   0.909 -0.1098  0.2506 -0.0628
  854MOL0     C12655   3.989   3.037   1.044 -0.0069 -1.0618 -0.4586
  854MOL0     C12656   3.875   3.063   1.137 -0.0347  0.1218 -0.7420
  854MOL0     C12657   3.774   2.954   1.116 -0.1524 -1.1955 -0.2426
  854MOL0     C12658   3.666   2.967   1.227 -0.0869 -0.6773  0.5204
  854MOL0     C12659   3.569   3.078   1.215  0.0842 -0.5216 -0.8349
  854MOL0     C12660   3.497   3.172   1.209 -1.0200  1.4426  0.2511
  854MOL0     C12661   4.025   3.053   0.685  0.0788 -0.2034 -0.6758
  854MOL0     C12662   4.114   3.037   0.579  0.4333  0.4545  0.3071
  854MOL0     H12663   4.187   2.923   0.160  0.0474  0.6839 -0.3680
  854MOL0     H12664   4.299   2.870  -0.062 -2.7715  1.4873  1.3099
  854MOL0     H12665   4.719   2.775  -0.082 -0.0634 -0.7100  0.0375
  854MOL0     H12666   4.735   2.944  -0.087  0.5643 -0.6494  0.6189
  854MOL0     H12667   4.689   2.969  -0.321  0.7728 -0.3837 -0.2008
  854MOL0     H12668   4.631   2.806  -0.334  2.3387 -1.6759 -1.0708
  854MOL0     H12669   4.846   2.721  -0.301  1.6539  0.3938 -0.7653
  854MOL0     H12670   4.922   2.876  -0.266 -0.5840 -0.7275  0.7888
  854MOL0     H12671   4.807   2.784  -0.537  2.0538  0.5958 -3.8503
  854MOL0     H12672   4.865   2.953  -0.494 -1.2120 -0.0781  2.7650
  854MOL0     H12673   5.088   2.857  -0.443 -0.8240  0.5012 -0.0865
  854MOL0     H12674   5.039   2.798  -0.603  0.4826 -1.5981 -0.0326
  854MOL0     H12675   5.040   2.630  -0.344  0.2370  1.3504  0.5284
  854MOL0     H12676   5.153   2.633  -0.462 -0.5196 -0.4491 -1.1121
  854MOL0     H12677   4.860   2.543  -0.497  0.1971 -0.7751  1.0851
  854MOL0     H12678   4.946   2.591  -0.635 -0.9250  0.6036 -0.0279
  854MOL0     H12679   5.055   2.369  -0.436 -1.2399 -4.7152  0.1898
  854MOL0     H12680   5.091   2.380  -0.598 -0.4287 -0.6453 -0.4567
  854MOL0     H12681   4.852   2.382  -0.761  0.9568 -1.4742 -0.3997
  854MOL0     H12682   4.526   2.155  -0.735  1.6086 -1.3944  1.4769
  854MOL0     H12683   4.648   2.163  -0.856 -0.3927  0.0775 -0.5416
  854MOL0     H12684   4.470   2.325  -0.898  0.6947  1.0975 -1.7258
  854MOL0     H12685   4.600   2.427  -0.829  0.6968 -1.4734  1.6676
  854MOL0     H12686   4.426   2.303  -0.615 -0.7252  1.3031  1.0358
  854MOL0     H12687   4.531   2.445  -0.625  1.9065  1.8367 -3.5094
  854MOL0     H12688   4.368   2.546  -0.780 -1.6307  1.1412  0.7470
  854MOL0     H12689   4.306   2.518  -0.608  0.4027  1.0082  0.2699
  854MOL0     H12690   4.148   2.664  -0.698  0.1167 -1.3335  1.5612
  854MOL0     H12691   3.911   2.735  -0.735 -1.6160  0.6611 -3.3449
  854MOL0     H12692   3.481   2.600  -0.628 -1.5557  1.3279  0.3340
  854MOL0     H12693   3.250   2.552  -0.596 -0.9023  2.4206  0.4041
  854MOL0     H12694   3.045   2.666  -0.708  3.0178 -0.4092  1.0926
  854MOL0     H12695   3.032   2.538  -0.592 -2.3894 -0.1338 -0.3846
  854MOL0     H12696   2.846   2.558  -0.827 -0.3431  1.8138 -0.7737
  854MOL0     H12697   2.815   2.657  -0.684  1.1262 -0.3018  3.2005
  854MOL0     H12698   2.792   2.444  -0.548 -2.5256  1.0972  0.1329
  854MOL0     H12699   2.819   2.342  -0.691 -1.0916 -1.2004  1.0576
  854MOL0     H12700   2.609   2.548  -0.701  1.2409  0.9173 -2.2938
  854MOL0     H12701   2.633   2.408  -0.809  1.8343 -1.1140  0.1920
  854MOL0     H12702   2.548   2.400  -0.518  0.8720  1.6172 -0.6691
  854MOL0     H12703   2.562   2.254  -0.613  0.8846 -0.2553  0.2718
  854MOL0     H12704   2.407   2.313  -0.758  1.8498  1.8493 -0.3370
  854MOL0     H12705   2.370   2.474  -0.705  0.5234 -0.3540 -1.9138
  854MOL0     H12706   2.202   2.324  -0.658  1.0828 -3.4858 -0.7507
  854MOL0     H12707   2.302   2.216  -0.565  1.9733 -0.1631 -3.7366
  854MOL0     H12708   2.291   2.502  -0.460  1.9612 -0.2375 -1.0170
  854MOL0     H12709   2.321   2.357  -0.371 -0.3309  0.8805  0.6586
  854MOL0     H12710   3.215   2.373  -0.990 -1.5546  0.3702  1.3783
  854MOL0     H12711   3.466   2.399  -1.016  1.6447  0.1861  1.0749
  854MOL0     H12712   3.802   2.336  -0.816 -0.5601  0.6696 -0.1701
  854MOL0     H12713   4.045   2.265  -0.814 -1.0287  0.3337 -1.6183
  854MOL0     H12714   4.681   2.952   0.119 -0.0061 -1.9023  1.0437
  854MOL0     H12715   4.584   2.994   0.327  1.4487  0.5438 -2.0418
  854MOL0     H12716   4.394   3.001   0.772  0.0262  1.8789 -1.1138
  854MOL0     H12717   4.229   3.020   0.952 -0.8324 -1.2045  0.4252
  854MOL0     H12718   4.066   3.107   1.080 -1.0869 -0.3285  0.5254
  854MOL0     H12719   4.036   2.939   1.056  1.5240 -0.5048 -1.6466
  854MOL0     H12720   3.899   3.048   1.243 -2.0504  0.7824 -0.1462
  854MOL0     H12721   3.834   3.163   1.125  2.1466  1.3137  1.0920
  854MOL0     H12722   3.826   2.859   1.131  0.4112 -0.4193  3.5901
  854MOL0     H12723   3.733   2.974   1.016  1.7028  2.3350 -0.4641
  854MOL0     H12724   3.605   2.876   1.219  0.4185 -0.9697 -0.0579
  854MOL0     H12725   3.711   2.965   1.327  0.5695 -0.4753  0.2292
  854MOL0     H12726   3.419   3.245   1.199 -0.6804  1.8960  0.8614
  854MOL0     H12727   3.920   3.069   0.664 -0.5192 -0.6597  1.6975
  854MOL0     H12728   4.071   3.041   0.479 -0.7596 -0.6905  0.7486
  855MOL0     O12729   7.081  10.100   5.976  0.5146 -0.2792  0.4636
  855MOL0     C12730   7.104  10.086   5.853  0.2662 -0.9288  1.1676
  855MOL0     O12731   7.026  10.021   5.757 -0.4861  0.3846  0.3943
  855MOL0     C12732   6.894   9.985   5.780 -0.7287 -0.0234  0.0690
  855MOL0     C12733   6.801   9.989   5.673  0.2689 -0.2464 -0.1768
  855MOL0     C12734   6.679   9.912   5.687 -0.3960  0.0199  0.0765
  855MOL0     C12735   6.641   9.853   5.812 -0.1476  0.3800  0.3797
  855MOL0     O12736   6.529   9.780   5.840  0.2837  0.5628 -0.1611
  855MOL0     C12737   6.435   9.767   5.735  0.1442  0.1504  0.3304
  855MOL0     C12738   6.327   9.667   5.773 -0.0901  0.2021  0.0080
  855MOL0     C12739   6.208   9.672   5.679 -0.3114 -0.4798  0.4301
  855MOL0     C12740   6.095   9.572   5.715 -0.2902 -0.5548 -0.3140
  855MOL0     C12741   5.998   9.565   5.593  0.2958  0.4926  0.1629
  855MOL0     C12742   5.871   9.493   5.628 -0.3396  0.2001 -0.5239
  855MOL0     C12743   5.767   9.489   5.512  0.0154  0.1313 -0.7604
  855MOL0     C12744   5.630   9.466   5.570 -0.6677 -0.5768 -0.6101
  855MOL0     N12745   5.620   9.349   5.656  0.0256  0.2272 -0.0949
  855MOL0     C12746   5.647   9.325   5.784  0.3785 -0.1420 -0.6062
  855MOL0     C12747   5.615   9.200   5.806  1.3651 -0.7644  0.2285
  855MOL0     C12748   5.627   9.126   5.935  0.4248  0.3389  0.1936
  855MOL0     C12749   5.498   9.125   6.024  0.0967 -0.4119  0.2956
  855MOL0     C12750   5.379   9.057   5.958  0.6562 -0.2611 -0.9259
  855MOL0     C12751   5.266   9.038   6.060  0.1196  0.4592  0.3291
  855MOL0     O12752   5.155   8.964   6.005  0.2160 -0.0846  0.0877
  855MOL0     C12753   5.026   8.989   6.052 -0.1806 -0.3573  0.0009
  855MOL0     C12754   4.942   8.877   6.060 -0.2691 -0.2145  1.4744
  855MOL0     C12755   4.812   8.887   6.108 -0.2977  0.0483 -0.4147
  855MOL0     C12756   4.768   9.017   6.162  0.6382 -0.1490  0.7992
  855MOL0     C12757   4.642   9.032   6.231  0.5521  1.0322 -0.1716
  855MOL0     O12758   4.596   9.166   6.254 -0.0040 -0.0868  0.5189
  855MOL0     C12759   4.472   9.192   6.291  0.2415 -0.5817 -0.4302
  855MOL0     C12760   4.390   9.275   6.210  0.0284  1.4706  0.4293
  855MOL0     C12761   4.256   9.303   6.259  0.5798  0.3985 -0.6326
  855MOL0     C12762   4.205   9.254   6.385 -0.5347  0.2608 -0.0071
  855MOL0     O12763   4.075   9.269   6.440 -0.2956 -0.2587 -0.1962
  855MOL0     C12764   3.977   9.322   6.353  0.6515 -0.1242 -0.0108
  855MOL0     C12765   3.835   9.325   6.414  0.6921  0.9398 -0.7594
  855MOL0     C12766   3.797   9.179   6.440 -0.3290 -0.2099  0.2456
  855MOL0     C12767   3.653   9.180   6.475  1.3164  0.0252 -0.3849
  855MOL0     C12768   3.596   9.030   6.492  0.2303 -0.6389  0.3681
  855MOL0     C12769   3.455   9.039   6.549  0.0877  0.1336 -0.4774
  855MOL0     C12770   3.451   9.054   6.698 -0.2532  0.4600 -1.1356
  855MOL0     C12771   3.312   9.040   6.750 -0.5194 -0.6613 -0.7918
  855MOL0    Cl12772   3.219   9.184   6.718 -0.0366  0.2089  0.0034
  855MOL0     C12773   4.298   9.195   6.468 -0.3562 -0.4363 -0.3119
  855MOL0     C12774   4.424   9.161   6.425 -0.6275  0.0225 -0.0759
  855MOL0     O12775   4.572   8.930   6.247  0.2727  0.4660 -0.0253
  855MOL0     C12776   4.856   9.126   6.155  0.3046 -0.2403 -0.0952
  855MOL0     C12777   4.977   9.113   6.099 -0.1534  0.9252  0.6291
  855MOL0     N12778   5.565   9.143   5.688 -0.2035  0.3477 -0.6300
  855MOL0     N12779   5.572   9.237   5.595  0.1031  0.4771 -0.5595
  855MOL0     C12780   6.741   9.857   5.914  0.1603 -0.1966  0.4662
  855MOL0     C12781   6.868   9.915   5.886  0.8514  0.5059 -1.5347
  855MOL0     C12782   7.238  10.139   5.815 -0.3481 -0.2173  0.0095
  855MOL0     C12783   7.332  10.211   5.899  0.3607 -0.5017 -0.1941
  855MOL0     C12784   7.460  10.241   5.853  0.6167 -0.0879 -0.0302
  855MOL0     C12785   7.492  10.209   5.719 -0.2366 -0.1265  0.1960
  855MOL0     O12786   7.619  10.229   5.662  0.3737 -0.1846 -0.1858
  855MOL0     C12787   7.669  10.134   5.565  0.4201 -0.0314  0.3391
  855MOL0     C12788   7.817  10.136   5.568 -0.0634 -0.0222  0.0546
  855MOL0     C12789   7.886  10.023   5.490 -0.4510 -0.4603  0.4075
  855MOL0     C12790   8.022  10.062   5.426  0.2608 -0.3941 -0.7255
  855MOL0     C12791   8.135  10.112   5.509  0.0154 -0.2660 -0.6314
  855MOL0     C12792   8.239  10.144   5.560 -0.5034 -0.2109  0.1325
  855MOL0     C12793   7.401  10.148   5.638 -0.5660 -0.1169 -0.3153
  855MOL0     C12794   7.274  10.111   5.683  0.7124 -0.0415  0.1903
  855MOL0     H12795   6.832  10.032   5.578 -0.5440  2.5043  0.7024
  855MOL0     H12796   6.615   9.903   5.600 -0.4525 -0.7178  0.1849
  855MOL0     H12797   6.475   9.728   5.641 -1.7340  0.3468 -0.5932
  855MOL0     H12798   6.393   9.868   5.724 -0.1437  0.4191  3.1362
  855MOL0     H12799   6.282   9.687   5.870 -0.5599 -1.2396  0.1119
  855MOL0     H12800   6.367   9.566   5.761  0.6599  0.2674  1.7656
  855MOL0     H12801   6.240   9.651   5.576  0.5252 -1.2863  0.8306
  855MOL0     H12802   6.162   9.771   5.674 -2.2426 -1.3499 -0.0057
  855MOL0     H12803   6.140   9.477   5.744  2.7484  0.0606 -2.4667
  855MOL0     H12804   6.044   9.615   5.802  2.0058  0.0310  0.8186
  855MOL0     H12805   6.047   9.535   5.500 -0.6907 -1.3800  0.2005
  855MOL0     H12806   5.967   9.668   5.573 -0.7825  0.1382 -0.0723
  855MOL0     H12807   5.830   9.551   5.711  0.3329  3.7012 -2.4410
  855MOL0     H12808   5.896   9.395   5.669  1.8929  1.3556  1.0596
  855MOL0     H12809   5.762   9.587   5.462 -2.0235 -0.2659 -1.4494
  855MOL0     H12810   5.782   9.404   5.445  0.9034 -0.0040 -0.3950
  855MOL0     H12811   5.550   9.477   5.496 -1.2085  1.1763  0.1797
  855MOL0     H12812   5.606   9.546   5.641  1.1893 -1.1270  0.7102
  855MOL0     H12813   5.696   9.394   5.853  0.4555 -0.9899  0.2039
  855MOL0     H12814   5.704   9.162   6.004  2.9434 -3.6351 -0.1762
  855MOL0     H12815   5.649   9.022   5.908 -2.6740 -0.1222 -0.9338
  855MOL0     H12816   5.479   9.232   6.033 -0.3568 -0.5513  1.0684
  855MOL0     H12817   5.518   9.076   6.120  0.7721  0.7492  0.7629
  855MOL0     H12818   5.336   9.107   5.870 -1.7288  0.2390  0.4382
  855MOL0     H12819   5.419   8.958   5.933 -2.6766 -1.1594 -3.4637
  855MOL0     H12820   5.231   9.132   6.104  1.5989  0.1275  2.3558
  855MOL0     H12821   5.304   8.978   6.143  3.3478  1.6816 -0.1136
  855MOL0     H12822   4.996   8.786   6.035  2.1695  1.7638 -1.1358
  855MOL0     H12823   4.751   8.797   6.119  0.8300 -0.6567  0.2862
  855MOL0     H12824   4.418   9.300   6.109  1.5466 -3.8175 -0.7818
  855MOL0     H12825   4.189   9.364   6.199  1.6611  0.9026 -1.3410
  855MOL0     H12826   3.966   9.262   6.262 -1.5854  0.9284 -0.5163
  855MOL0     H12827   4.020   9.419   6.329 -1.6598  0.1988 -3.7332
  855MOL0     H12828   3.761   9.376   6.351  1.1927  2.6027 -0.0576
  855MOL0     H12829   3.841   9.387   6.504  1.2508  1.7713 -1.3585
  855MOL0     H12830   3.858   9.137   6.520 -1.4616 -2.7020 -0.1099
  855MOL0     H12831   3.813   9.111   6.356  1.7408  0.2547  0.2200
  855MOL0     H12832   3.643   9.233   6.570  1.4777 -0.8375  0.1228
  855MOL0     H12833   3.592   9.235   6.402 -1.1554  0.1626  1.6764
  855MOL0     H12834   3.655   8.982   6.571  0.2510 -0.2582  0.5856
  855MOL0     H12835   3.602   8.977   6.397  2.1583  1.1347 -0.5738
  855MOL0     H12836   3.391   8.953   6.528  0.5838 -0.1826 -0.6982
  855MOL0     H12837   3.399   9.126   6.512 -1.3574 -0.6231 -0.1176
  855MOL0     H12838   3.524   8.993   6.752  0.5172  0.9415 -1.6128
  855MOL0     H12839   3.472   9.157   6.727 -0.3519  0.4461 -1.0156
  855MOL0     H12840   3.330   9.025   6.857 -0.3963  0.1270 -0.6918
  855MOL0     H12841   3.255   8.953   6.719 -0.3932 -2.2605  2.9252
  855MOL0     H12842   4.268   9.169   6.569  0.5654  1.6926  0.5759
  855MOL0     H12843   4.498   9.107   6.482  0.4663 -0.0878 -1.5236
  855MOL0     H12844   4.821   9.221   6.196 -1.4858 -0.4344 -1.0849
  855MOL0     H12845   5.027   9.208   6.083 -1.3795  1.3150 -1.2277
  855MOL0     H12846   6.717   9.812   6.010 -1.8701 -0.7929 -0.2713
  855MOL0     H12847   6.947   9.885   5.954 -0.9342 -0.9490  0.0266
  855MOL0     H12848   7.310  10.225   6.004  0.5128 -2.3271  0.1223
  855MOL0     H12849   7.527  10.281   5.929 -1.9779 -1.8281  3.4929
  855MOL0     H12850   7.631  10.170   5.469 -0.2308 -0.6829  0.3410
  855MOL0     H12851   7.633  10.031   5.574 -0.9433  0.4430  0.6356
  855MOL0     H12852   7.855  10.233   5.535  1.4317 -1.1445 -1.6743
  855MOL0     H12853   7.837  10.125   5.675 -0.1740  0.8138  0.1693
  855MOL0     H12854   7.819   9.991   5.408 -0.7843  0.7088  0.2109
  855MOL0     H12855   7.897   9.942   5.563  1.9672 -1.0919 -0.5596
  855MOL0     H12856   8.057   9.972   5.376 -0.1940 -1.4737  0.8140
  855MOL0     H12857   7.999  10.143   5.356 -1.8451  0.1115  0.4631
  855MOL0     H12858   8.330  10.168   5.611 -1.0679  2.1741  0.1220
  855MOL0     H12859   7.421  10.124   5.534  2.6843 -0.8795  0.3792
  855MOL0     H12860   7.209  10.051   5.619 -1.4641  0.8245  1.4935
  856MOL0     O12861   2.645   7.150   3.776 -0.2458 -0.3368  0.3871
  856MOL0     C12862   2.712   7.106   3.866  0.4246  0.1572  0.2765
  856MOL0     O12863   2.674   7.006   3.954  0.1550  0.5636  0.1932
  856MOL0     C12864   2.534   6.991   3.958 -0.0329 -0.4411  0.5959
  856MOL0     C12865   2.468   6.888   3.894 -0.1859  0.4637 -0.1140
  856MOL0     C12866   2.324   6.875   3.909 -0.4199 -0.3845 -0.3895
  856MOL0     C12867   2.252   6.961   3.988  0.8325 -0.2274  0.5401
  856MOL0     O12868   2.114   6.952   3.985  0.4140  0.0974 -0.2219
  856MOL0     C12869   2.041   7.071   4.023  0.2319  0.6650 -0.1409
  856MOL0     C12870   1.897   7.053   3.992 -0.7834  0.0956 -0.3232
  856MOL0     C12871   1.821   7.181   4.006 -0.2020 -0.3886  0.2515
  856MOL0     C12872   1.675   7.141   3.982 -0.8896 -0.2484  0.2045
  856MOL0     C12873   1.565   7.247   3.984  0.7362 -0.1794  0.2755
  856MOL0     C12874   1.434   7.188   4.028  0.2063  0.1657  0.7071
  856MOL0     C12875   1.328   7.292   4.035 -0.4379  0.1309  0.7506
  856MOL0     C12876   1.193   7.239   4.062  0.0662  0.3238  0.6666
  856MOL0     N12877   1.111   7.301   4.168 -0.0387  0.1960  0.2455
  856MOL0     C12878   1.011   7.393   4.147  0.0864  1.0138  0.5528
  856MOL0     C12879   0.989   7.442   4.264 -1.1226  0.0541  0.7845
  856MOL0     C12880   0.890   7.554   4.287 -0.0541  0.6598  0.8561
  856MOL0     C12881   0.750   7.524   4.227 -0.3692 -0.4757 -0.6906
  856MOL0     C12882   0.627   7.587   4.304  0.2025 -0.0148 -0.3523
  856MOL0     C12883   0.626   7.743   4.308 -0.2933 -0.0742 -0.1023
  856MOL0     O12884   0.496   7.794   4.337  0.4186  0.0565  0.0078
  856MOL0     C12885   0.399   7.820   4.247  1.0340  0.1335 -0.0185
  856MOL0     C12886   0.400   7.779   4.117  0.4859  0.4206 -0.0593
  856MOL0     C12887   0.301   7.826   4.030  0.3476 -0.3181  0.0554
  856MOL0     C12888   0.205   7.920   4.065  0.0732 -0.5279 -0.2427
  856MOL0     C12889   0.116   7.974   3.961  0.3718 -0.9890  0.4506
  856MOL0     O12890   0.108   7.919   3.837  0.1683 -0.3809  0.1537
  856MOL0     C12891  -0.014   7.932   3.776  0.1164  0.8223  0.0975
  856MOL0     C12892  -0.075   8.043   3.720 -0.1466  0.0739 -0.2137
  856MOL0     C12893  -0.210   8.037   3.679 -0.3054  0.0154 -0.4148
  856MOL0     C12894  -0.287   7.922   3.677 -0.3486  0.6018  0.7322
  856MOL0     O12895  -0.404   7.926   3.605  0.2654 -0.5196  0.0513
  856MOL0     C12896  -0.476   7.806   3.590 -0.0002  0.2856 -0.6324
  856MOL0     C12897  -0.591   7.826   3.489  0.5386  0.0474 -0.5893
  856MOL0     C12898  -0.670   7.957   3.529  0.5585  0.2222 -0.6291
  856MOL0     C12899  -0.804   7.958   3.455  0.0879 -0.2192  0.9917
  856MOL0     C12900  -0.874   8.093   3.484  0.0785 -0.2459  0.1088
  856MOL0     C12901  -1.020   8.092   3.437 -0.1021  0.0572 -0.0002
  856MOL0     C12902  -1.086   8.223   3.476 -0.1906 -0.4767  0.6365
  856MOL0     C12903  -1.238   8.216   3.490 -0.6721 -0.2414  0.0938
  856MOL0    Cl12904  -1.322   8.135   3.349  0.2913 -0.2418  0.1240
  856MOL0     C12905  -0.234   7.807   3.735 -1.0172 -0.0148  0.5937
  856MOL0     C12906  -0.098   7.814   3.774 -0.3793 -0.9050  0.1341
  856MOL0     O12907   0.039   8.065   3.995 -0.1341 -0.7267 -0.0443
  856MOL0     C12908   0.205   7.967   4.201  0.5805  0.7321  0.4210
  856MOL0     C12909   0.298   7.910   4.294  0.1058 -0.2108  0.5046
  856MOL0     N12910   1.066   7.384   4.364  0.5379 -0.6974 -0.3401
  856MOL0     N12911   1.139   7.298   4.298  0.4871 -0.0940  0.6786
  856MOL0     C12912   2.324   7.076   4.042  0.2974  0.7970  0.1301
  856MOL0     C12913   2.462   7.080   4.033 -0.4888 -0.2088 -0.3651
  856MOL0     C12914   2.849   7.159   3.871 -0.5151 -0.5592  0.5458
  856MOL0     C12915   2.945   7.118   3.960  0.3038  1.4040  0.8277
  856MOL0     C12916   3.078   7.142   3.945  0.8607  0.2497  0.1590
  856MOL0     C12917   3.124   7.220   3.847  0.1489 -0.4029 -0.0533
  856MOL0     O12918   3.261   7.250   3.832  0.0785 -0.0790 -0.0024
  856MOL0     C12919   3.324   7.301   3.713 -0.0983 -0.0484 -0.1595
  856MOL0     C12920   3.342   7.447   3.733 -0.5227  0.3289 -0.3911
  856MOL0     C12921   3.464   7.468   3.832 -0.0018  0.2731  0.1167
  856MOL0     C12922   3.439   7.592   3.922 -0.4278 -1.1906  0.5829
  856MOL0     C12923   3.386   7.712   3.859  0.5296  0.1330  0.2295
  856MOL0     C12924   3.338   7.805   3.796 -0.8953 -0.0136  0.0486
  856MOL0     C12925   3.033   7.283   3.764  0.3843  0.4080 -0.5014
  856MOL0     C12926   2.893   7.246   3.772 -0.1720  0.2444  0.2925
  856MOL0     H12927   2.529   6.829   3.826 -0.2740 -3.1439  2.6423
  856MOL0     H12928   2.268   6.786   3.883 -0.0185 -0.6538 -0.3346
  856MOL0     H12929   2.082   7.148   3.957 -2.2373  0.3111 -2.2336
  856MOL0     H12930   2.055   7.085   4.130  0.1999  1.2007 -0.2073
  856MOL0     H12931   1.859   6.970   4.052 -1.1694 -1.4580 -2.5757
  856MOL0     H12932   1.888   7.010   3.891 -0.1531  1.2980 -0.9213
  856MOL0     H12933   1.859   7.262   3.942  0.3762 -0.0343  1.0403
  856MOL0     H12934   1.827   7.205   4.112 -0.1757 -0.6767  0.3140
  856MOL0     H12935   1.664   7.094   3.885 -3.8104 -0.5978  0.6095
  856MOL0     H12936   1.646   7.068   4.058 -2.6307 -1.9164 -1.9441
  856MOL0     H12937   1.562   7.291   3.884 -0.7632 -2.4497 -0.7654
  856MOL0     H12938   1.579   7.331   4.053 -1.9021 -0.1857  0.9302
  856MOL0     H12939   1.446   7.146   4.128  0.1438 -0.5741  0.4110
  856MOL0     H12940   1.413   7.105   3.959  0.0790  1.4742 -0.8757
  856MOL0     H12941   1.348   7.364   4.116 -0.0409 -1.4693  2.1194
  856MOL0     H12942   1.323   7.357   3.947 -1.0086 -1.2026 -0.2306
  856MOL0     H12943   1.201   7.136   4.099 -3.5966 -0.5272 -0.4302
  856MOL0     H12944   1.126   7.235   3.975 -1.2722  0.3195  1.6647
  856MOL0     H12945   0.962   7.433   4.059  0.5640  1.9633  0.7038
  856MOL0     H12946   0.924   7.647   4.240 -2.2874  2.0520  1.8161
  856MOL0     H12947   0.875   7.573   4.394  0.6957  1.5604  0.8188
  856MOL0     H12948   0.730   7.417   4.237 -0.5684 -0.2713  1.8560
  856MOL0     H12949   0.745   7.551   4.121  0.9448  0.9696 -0.4171
  856MOL0     H12950   0.539   7.558   4.246  1.6571 -0.1669 -2.6129
  856MOL0     H12951   0.622   7.538   4.401  0.3342  1.3246  0.3602
  856MOL0     H12952   0.660   7.778   4.210  5.9797 -0.0364  1.6870
  856MOL0     H12953   0.703   7.780   4.376  0.4106 -0.9600 -0.3986
  856MOL0     H12954   0.484   7.723   4.077 -0.0742 -0.9600  0.6402
  856MOL0     H12955   0.297   7.766   3.940 -1.1716  0.6361 -0.5676
  856MOL0     H12956  -0.033   8.143   3.709  0.6384 -0.2378 -0.1055
  856MOL0     H12957  -0.253   8.130   3.642 -0.2206  0.3876  0.4017
  856MOL0     H12958  -0.516   7.774   3.687  2.7909  0.4028  0.6370
  856MOL0     H12959  -0.412   7.725   3.555  0.0815  0.8800 -1.8992
  856MOL0     H12960  -0.646   7.731   3.483 -0.5559  0.5819  0.4710
  856MOL0     H12961  -0.549   7.837   3.389 -1.9311 -1.4888 -1.9045
  856MOL0     H12962  -0.628   8.049   3.488  0.8796  0.3825  0.0440
  856MOL0     H12963  -0.680   7.966   3.637  1.3525  1.6518 -0.6629
  856MOL0     H12964  -0.785   7.945   3.348 -3.4207  0.8121  0.1016
  856MOL0     H12965  -0.862   7.870   3.485 -0.1836 -0.0988  0.8267
  856MOL0     H12966  -0.811   8.168   3.436  1.3156  0.2659  2.4253
  856MOL0     H12967  -0.873   8.117   3.590  1.1143  3.9248 -0.6651
  856MOL0     H12968  -1.080   8.013   3.484  0.9353 -1.0748 -0.5241
  856MOL0     H12969  -1.030   8.073   3.330 -0.0213 -0.8300  0.1402
  856MOL0     H12970  -1.050   8.278   3.563 -0.9739  3.3669 -1.2397
  856MOL0     H12971  -1.068   8.284   3.386 -1.3562  0.3536  0.9435
  856MOL0     H12972  -1.273   8.317   3.512  0.4713 -0.0982  1.4062
  856MOL0     H12973  -1.256   8.161   3.583  1.1621 -1.9513 -0.4869
  856MOL0     H12974  -0.283   7.710   3.745 -0.1615 -0.3737  1.4668
  856MOL0     H12975  -0.053   7.739   3.839  1.4985  0.4499  0.4993
  856MOL0     H12976   0.144   8.050   4.235 -2.0175 -0.4064 -1.0942
  856MOL0     H12977   0.316   7.946   4.396  1.0384 -0.2249  0.3562
  856MOL0     H12978   2.271   7.154   4.096 -1.4167  0.1702 -0.5759
  856MOL0     H12979   2.503   7.162   4.091 -0.7147 -0.6391  0.4147
  856MOL0     H12980   2.916   7.053   4.042  0.3673  0.6296  0.2477
  856MOL0     H12981   3.141   7.105   4.025 -0.3418 -1.0098  0.5601
  856MOL0     H12982   3.250   7.276   3.637 -3.0245 -1.9538  3.0170
  856MOL0     H12983   3.419   7.251   3.690  0.7889  1.3392  0.3451
  856MOL0     H12984   3.364   7.495   3.637 -0.2980  1.1522  0.0586
  856MOL0     H12985   3.256   7.497   3.778  0.9212  2.6414 -0.0364
  856MOL0     H12986   3.552   7.482   3.768 -0.5110  1.4585 -0.3551
  856MOL0     H12987   3.477   7.381   3.898  1.3011  1.8532  2.0567
  856MOL0     H12988   3.363   7.560   3.994 -0.7126 -3.6729 -0.6987
  856MOL0     H12989   3.533   7.620   3.969  2.1549 -0.5281 -4.2995
  856MOL0     H12990   3.295   7.882   3.737  0.9280  0.1184 -1.1778
  856MOL0     H12991   3.061   7.353   3.686 -4.2195  2.2637 -0.7440
  856MOL0     H12992   2.826   7.276   3.691  0.3730  0.7553  0.0227
  857MOL0     O12993   0.974   2.132   2.727  0.4639 -0.0927  0.6907
  857MOL0     C12994   1.071   2.105   2.799  0.3962  0.7394 -0.0788
  857MOL0     O12995   1.114   2.170   2.918 -0.0332  0.3617  0.5112
  857MOL0     C12996   1.029   2.266   2.966 -0.2437  0.0718  0.3991
  857MOL0     C12997   1.021   2.386   2.888 -0.0534 -0.2979 -0.6024
  857MOL0     C12998   0.936   2.489   2.936  0.2974  0.8245 -0.3726
  857MOL0     C12999   0.855   2.473   3.048  0.1814  0.0049 -0.7788
  857MOL0     O13000   0.784   2.578   3.110 -0.7618 -0.0530 -0.7744
  857MOL0     C13001   0.701   2.648   3.025 -0.0172  0.2154 -0.0852
  857MOL0     C13002   0.592   2.727   3.103  0.1689 -0.4609 -0.3853
  857MOL0     C13003   0.525   2.836   3.021 -0.2848 -0.3586  0.0569
  857MOL0     C13004   0.401   2.895   3.098 -0.0594 -0.1285 -0.0194
  857MOL0     C13005   0.320   2.992   3.009  0.3731 -0.5347  0.5358
  857MOL0     C13006   0.202   2.927   2.938 -0.8822  0.6280 -0.3434
  857MOL0     C13007   0.100   3.013   2.856 -0.2179  0.1636  0.2355
  857MOL0     C13008   0.162   3.053   2.721  0.0890 -0.4469  1.5695
  857MOL0     N13009   0.101   3.169   2.660  1.0352  0.8224 -0.2839
  857MOL0     C13010   0.166   3.288   2.652 -0.5972 -0.7738  0.6132
  857MOL0     C13011   0.074   3.375   2.597 -1.1993  0.2513 -0.3549
  857MOL0     C13012   0.110   3.505   2.547  0.8349  0.1604 -0.1541
  857MOL0     C13013   0.059   3.627   2.623  0.7285  0.1723  0.0090
  857MOL0     C13014  -0.091   3.623   2.640  1.1412 -0.5936  1.1946
  857MOL0     C13015  -0.148   3.744   2.722 -0.3746  0.2413 -0.2270
  857MOL0     O13016  -0.284   3.719   2.768  0.5001 -0.6734  0.4552
  857MOL0     C13017  -0.382   3.692   2.672  0.0736  0.5091 -0.6597
  857MOL0     C13018  -0.431   3.791   2.590 -0.1484 -0.4369  0.6744
  857MOL0     C13019  -0.541   3.770   2.501 -0.9602 -0.6141 -0.6667
  857MOL0     C13020  -0.617   3.650   2.502 -0.6515  0.3021 -0.0492
  857MOL0     C13021  -0.727   3.636   2.412 -0.9616 -0.8641 -0.0355
  857MOL0     O13022  -0.744   3.745   2.332  0.4032 -0.4334  0.2963
  857MOL0     C13023  -0.874   3.758   2.281 -0.4723 -0.0343  0.9981
  857MOL0     C13024  -0.967   3.804   2.372  0.0565  1.1886 -0.6959
  857MOL0     C13025  -1.093   3.828   2.339 -0.4543 -0.0198  0.5084
  857MOL0     C13026  -1.136   3.792   2.211  0.4239 -0.1120  1.0963
  857MOL0     O13027  -1.267   3.808   2.189  0.7611 -0.5158 -0.8158
  857MOL0     C13028  -1.335   3.709   2.113 -0.5749 -0.4085  0.5974
  857MOL0     C13029  -1.484   3.706   2.148  0.2663 -0.3776  0.4344
  857MOL0     C13030  -1.559   3.620   2.052  0.1745  0.5048  0.1523
  857MOL0     C13031  -1.707   3.607   2.085 -0.1311  0.1921  0.3563
  857MOL0     C13032  -1.752   3.570   2.226 -0.4189 -0.8047 -1.0497
  857MOL0     C13033  -1.908   3.576   2.227 -0.0253  0.6611 -0.6470
  857MOL0     C13034  -1.964   3.538   2.358  0.4590 -0.2269 -0.3981
  857MOL0     C13035  -1.894   3.605   2.485 -0.0630  0.1734 -0.5163
  857MOL0    Cl13036  -1.898   3.781   2.488 -0.1075  0.0523  0.1097
  857MOL0     C13037  -1.042   3.744   2.114  0.6770  0.0067  0.6507
  857MOL0     C13038  -0.909   3.727   2.151  0.0373 -0.3928  0.4619
  857MOL0     O13039  -0.788   3.531   2.413 -0.4870  0.2926  0.1469
  857MOL0     C13040  -0.568   3.555   2.596 -0.0159  0.0273 -0.9200
  857MOL0     C13041  -0.454   3.574   2.681  0.5885  0.4257 -0.5992
  857MOL0     N13042  -0.047   3.304   2.590  0.4497 -0.0055  0.3547
  857MOL0     N13043  -0.030   3.181   2.628 -0.5968 -0.1058 -0.0898
  857MOL0     C13044   0.865   2.353   3.122 -0.1976  0.4852  0.4030
  857MOL0     C13045   0.955   2.246   3.075  0.5790 -0.1809 -0.1959
  857MOL0     C13046   1.148   1.989   2.758 -0.0543  0.2079  0.1688
  857MOL0     C13047   1.249   1.930   2.837 -0.0782  0.1514  0.3160
  857MOL0     C13048   1.309   1.815   2.790 -0.3998 -0.3260 -0.1736
  857MOL0     C13049   1.285   1.756   2.666 -0.1518  0.2845  0.4383
  857MOL0     O13050   1.365   1.651   2.632 -0.0685  0.7854  0.4417
  857MOL0     C13051   1.307   1.559   2.529 -0.3619  0.0460 -0.6377
  857MOL0     C13052   1.395   1.436   2.491 -0.1000 -0.8874 -0.0176
  857MOL0     C13053   1.328   1.348   2.387  0.4560 -0.0292  0.4949
  857MOL0     C13054   1.246   1.236   2.443  0.4891 -0.4609  1.0817
  857MOL0     C13055   1.188   1.150   2.335  0.6241 -0.9223  0.1740
  857MOL0     C13056   1.136   1.057   2.277 -0.6176  0.1688  1.3251
  857MOL0     C13057   1.201   1.834   2.575  0.2039 -0.7021 -0.3415
  857MOL0     C13058   1.127   1.938   2.626 -0.0065  0.7545 -0.0014
  857MOL0     H13059   1.098   2.406   2.814  0.0541  1.2021 -0.1167
  857MOL0     H13060   0.944   2.583   2.881  0.5834 -0.3964 -2.5595
  857MOL0     H13061   0.655   2.570   2.963 -1.0478 -1.2504  2.3711
  857MOL0     H13062   0.757   2.727   2.975 -0.5138  0.3891 -0.3714
  857MOL0     H13063   0.643   2.766   3.192 -1.0250 -0.9981  0.5493
  857MOL0     H13064   0.525   2.652   3.144 -0.7373  1.2788  1.4776
  857MOL0     H13065   0.488   2.788   2.930 -2.1446  0.6429  0.2266
  857MOL0     H13066   0.596   2.913   2.988 -1.4489 -0.2320 -2.4269
  857MOL0     H13067   0.346   2.808   3.136  1.1768 -0.8059  0.2834
  857MOL0     H13068   0.445   2.955   3.178  3.3376 -2.1905 -0.1306
  857MOL0     H13069   0.388   3.030   2.933  1.1097  1.4304  2.1050
  857MOL0     H13070   0.281   3.079   3.064 -0.8082  0.3960 -1.6347
  857MOL0     H13071   0.139   2.891   3.020  1.3942  0.7692  1.5724
  857MOL0     H13072   0.249   2.847   2.880  0.4031  1.5569 -0.6137
  857MOL0     H13073   0.013   2.954   2.826  1.8040 -1.2813 -3.5046
  857MOL0     H13074   0.079   3.099   2.920 -0.5304 -0.7969  1.4601
  857MOL0     H13075   0.154   2.970   2.650 -2.1693  1.1288 -0.1755
  857MOL0     H13076   0.266   3.084   2.729  0.1559 -0.3879  0.5345
  857MOL0     H13077   0.271   3.311   2.665  0.1551 -1.5340 -2.9131
  857MOL0     H13078   0.080   3.502   2.442 -2.1561 -2.8094  0.5867
  857MOL0     H13079   0.218   3.523   2.543  0.6426  1.5090  0.2898
  857MOL0     H13080   0.099   3.715   2.572  2.3834  0.2092  1.2784
  857MOL0     H13081   0.091   3.619   2.727 -1.1897  1.0856  0.7011
  857MOL0     H13082  -0.141   3.641   2.544 -0.6973 -0.8609  2.0568
  857MOL0     H13083  -0.138   3.531   2.676 -0.5527 -1.0430 -1.8563
  857MOL0     H13084  -0.134   3.841   2.673  1.3139  1.2710  2.0736
  857MOL0     H13085  -0.090   3.740   2.814 -1.5230 -1.9790  0.4671
  857MOL0     H13086  -0.404   3.896   2.599  0.0738 -0.5055  0.8160
  857MOL0     H13087  -0.578   3.859   2.451 -2.3178 -1.2915 -0.9310
  857MOL0     H13088  -0.944   3.831   2.474  2.2610  0.1440 -0.8394
  857MOL0     H13089  -1.155   3.885   2.407 -0.2746 -0.0947  0.7336
  857MOL0     H13090  -1.290   3.609   2.107  2.9569  1.1255 -1.9653
  857MOL0     H13091  -1.328   3.743   2.009 -0.1108  0.8777  1.0277
  857MOL0     H13092  -1.530   3.805   2.139  1.6643  0.2885  0.4600
  857MOL0     H13093  -1.510   3.670   2.248  0.1964 -0.5212  0.3650
  857MOL0     H13094  -1.518   3.521   2.074 -0.6000 -0.0435 -0.8098
  857MOL0     H13095  -1.542   3.654   1.949 -0.8081  0.0799 -0.1705
  857MOL0     H13096  -1.751   3.703   2.057  0.6194  0.2748 -0.5752
  857MOL0     H13097  -1.739   3.530   2.015  0.0456  2.2480 -2.1203
  857MOL0     H13098  -1.711   3.651   2.288  0.0564 -2.0291  0.2957
  857MOL0     H13099  -1.707   3.474   2.251 -1.0279 -0.8075  0.1457
  857MOL0     H13100  -1.947   3.517   2.143 -2.0098  1.2997 -0.2139
  857MOL0     H13101  -1.935   3.679   2.204 -1.5535  0.6396  0.8664
  857MOL0     H13102  -2.068   3.570   2.351  0.4236  0.0113  0.8428
  857MOL0     H13103  -1.948   3.430   2.360  1.2962 -0.1300  1.9538
  857MOL0     H13104  -1.787   3.580   2.489 -0.1644 -0.1151  0.9706
  857MOL0     H13105  -1.952   3.578   2.573 -0.4666  1.2665 -0.4298
  857MOL0     H13106  -1.069   3.722   2.012  0.7457  3.0114 -0.1062
  857MOL0     H13107  -0.835   3.683   2.084  2.7944  1.8582  1.7952
  857MOL0     H13108  -0.610   3.456   2.605  0.1122  0.0401 -0.0982
  857MOL0     H13109  -0.416   3.492   2.741  1.6971  1.5783  0.3365
  857MOL0     H13110   0.821   2.346   3.221 -1.1596  1.4095  0.0645
  857MOL0     H13111   0.956   2.147   3.121  0.9444 -0.0147  0.1725
  857MOL0     H13112   1.281   1.976   2.929  0.8927  1.2592 -0.5441
  857MOL0     H13113   1.387   1.773   2.852 -1.8621 -1.0669  1.2236
  857MOL0     H13114   1.297   1.616   2.435  2.6936  1.1115 -0.4380
  857MOL0     H13115   1.214   1.528   2.576  0.0418 -1.4526 -0.7782
  857MOL0     H13116   1.492   1.474   2.459  0.8068 -1.2681  2.1141
  857MOL0     H13117   1.423   1.387   2.585  1.0219  1.3800  0.9040
  857MOL0     H13118   1.409   1.298   2.333  0.9059 -2.3638  3.1168
  857MOL0     H13119   1.273   1.409   2.315  0.3367  1.9976  2.2093
  857MOL0     H13120   1.306   1.174   2.510  0.8569 -0.8527  0.3901
  857MOL0     H13121   1.158   1.274   2.497  0.0784 -0.9551  0.7738
  857MOL0     H13122   1.095   0.970   2.229  0.4444  0.2992  0.1544
  857MOL0     H13123   1.191   1.794   2.474 -1.2889  0.6261 -0.7428
  857MOL0     H13124   1.061   1.991   2.558 -1.6171  0.6431  1.3957
  858MOL0     O13125   3.458   6.030   6.049 -0.1266  0.1336 -0.4902
  858MOL0     C13126   3.489   6.136   5.992  0.5434  0.9808 -0.2562
  858MOL0     O13127   3.421   6.255   6.014 -0.5173 -0.4376 -0.2094
  858MOL0     C13128   3.340   6.274   6.126  0.1667 -0.4192 -0.1426
  858MOL0     C13129   3.210   6.306   6.090  0.3409  1.5595 -0.4707
  858MOL0     C13130   3.113   6.301   6.194 -0.2823 -0.2861  0.7740
  858MOL0     C13131   3.154   6.285   6.330  0.1175  0.8026 -0.3944
  858MOL0     O13132   3.064   6.285   6.427  0.8472 -0.1410 -0.1818
  858MOL0     C13133   2.955   6.375   6.421  0.5687  1.0277 -0.3818
  858MOL0     C13134   2.821   6.301   6.428  0.5390 -0.3578  0.8208
  858MOL0     C13135   2.794   6.208   6.547  0.1301 -0.2418  0.7428
  858MOL0     C13136   2.781   6.282   6.683 -0.3023 -0.2753  0.1469
  858MOL0     C13137   2.735   6.205   6.810  0.2273 -0.6867 -0.2654
  858MOL0     C13138   2.755   6.284   6.936 -0.2013 -0.5534 -0.2012
  858MOL0     C13139   2.694   6.222   7.053 -0.3614  0.3391 -0.1192
  858MOL0     C13140   2.752   6.274   7.192  0.1953 -0.1842 -0.1912
  858MOL0     N13141   2.658   6.241   7.306  0.0748 -0.5176 -0.2540
  858MOL0     C13142   2.712   6.208   7.429 -0.2854 -0.3412 -0.5565
  858MOL0     C13143   2.602   6.222   7.509 -0.0926 -0.8693 -0.7000
  858MOL0     C13144   2.587   6.235   7.664 -0.5925  0.1157 -0.5876
  858MOL0     C13145   2.492   6.118   7.702 -0.5442 -0.0937  0.4336
  858MOL0     C13146   2.508   6.074   7.857 -0.6680 -0.2044  0.6392
  858MOL0     C13147   2.381   6.004   7.906 -0.5603 -1.1358  0.6125
  858MOL0     O13148   2.271   6.104   7.909 -0.6764 -0.6432 -1.1850
  858MOL0     C13149   2.153   6.068   7.966 -0.9484 -0.1544  0.7495
  858MOL0     C13150   2.135   5.954   8.042  0.3113 -0.5359  0.4108
  858MOL0     C13151   2.010   5.924   8.082 -1.0899  1.2694 -1.1460
  858MOL0     C13152   1.900   6.006   8.066 -0.1293  0.3117 -0.3855
  858MOL0     C13153   1.764   5.965   8.120 -0.1760  0.5505  0.9636
  858MOL0     O13154   1.770   5.852   8.199  0.1489 -0.5020 -0.2660
  858MOL0     C13155   1.647   5.813   8.248 -0.3907  0.0558 -0.4312
  858MOL0     C13156   1.550   5.750   8.172  0.6330  0.2180  0.4997
  858MOL0     C13157   1.434   5.699   8.224  0.0959 -0.1654 -0.8738
  858MOL0     C13158   1.412   5.702   8.367  0.3194  0.1721  0.0461
  858MOL0     O13159   1.296   5.641   8.404 -0.4636  0.0145  0.0222
  858MOL0     C13160   1.312   5.531   8.505 -0.3414 -0.4365 -0.7120
  858MOL0     C13161   1.173   5.468   8.530 -0.3863 -0.3798  0.6227
  858MOL0     C13162   1.062   5.576   8.578  0.0994  0.3338  0.1405
  858MOL0     C13163   0.930   5.509   8.604 -0.0892  0.5689 -0.5820
  858MOL0     C13164   0.829   5.615   8.647 -0.1675  0.1675  0.1098
  858MOL0     C13165   0.692   5.554   8.690  0.1633 -0.3526 -0.4984
  858MOL0     C13166   0.604   5.672   8.726 -0.1329 -0.2850  0.5633
  858MOL0     C13167   0.475   5.627   8.799 -0.0601 -0.2550 -0.1256
  858MOL0    Cl13168   0.364   5.759   8.859 -0.2996 -0.1745  0.0053
  858MOL0     C13169   1.515   5.736   8.448 -0.3307 -0.3554 -0.4734
  858MOL0     C13170   1.632   5.802   8.389 -0.3360  0.2942  0.8231
  858MOL0     O13171   1.662   6.030   8.091  0.0311 -0.2600  0.5506
  858MOL0     C13172   1.917   6.123   7.989  1.3123 -0.0584 -0.2318
  858MOL0     C13173   2.045   6.156   7.943  0.3336 -0.6327 -0.5355
  858MOL0     N13174   2.494   6.260   7.432  0.2602 -0.8511 -0.4458
  858MOL0     N13175   2.530   6.272   7.309 -0.1106  0.1252  0.5504
  858MOL0     C13176   3.280   6.247   6.362  0.6116  0.2776 -0.0574
  858MOL0     C13177   3.378   6.246   6.254 -0.0842  0.1546 -0.8993
  858MOL0     C13178   3.587   6.136   5.882  0.2972  0.8152  0.4510
  858MOL0     C13179   3.639   6.253   5.833  0.1732 -0.3863  0.2836
  858MOL0     C13180   3.746   6.249   5.746 -0.3887  0.1501  0.8688
  858MOL0     C13181   3.806   6.127   5.707  0.2042 -0.4006 -0.0634
  858MOL0     O13182   3.914   6.141   5.618  0.2511 -0.2219 -0.4074
  858MOL0     C13183   4.013   6.042   5.607 -0.0524  0.1266  0.1171
  858MOL0     C13184   4.136   6.112   5.536 -0.1962  0.2819  0.4549
  858MOL0     C13185   4.241   6.018   5.498 -0.3274 -0.0234  0.4646
  858MOL0     C13186   4.325   5.955   5.618  0.0878  0.6575 -0.4768
  858MOL0     C13187   4.402   6.039   5.713  0.4964  0.2717 -0.3135
  858MOL0     C13188   4.459   6.114   5.791 -0.4208  0.6621 -0.3592
  858MOL0     C13189   3.757   6.010   5.755 -0.9351  0.2797 -0.0353
  858MOL0     C13190   3.650   6.018   5.850 -1.0536 -0.2766 -1.1445
  858MOL0     H13191   3.181   6.331   5.988  1.8500  2.1714 -0.7769
  858MOL0     H13192   3.011   6.322   6.161  0.0404  2.3771  1.2307
  858MOL0     H13193   2.941   6.443   6.337 -1.6554  0.5802 -0.4297
  858MOL0     H13194   2.949   6.441   6.508  0.2699  0.0290  0.3807
  858MOL0     H13195   2.810   6.241   6.337 -0.7340  1.6606 -0.4230
  858MOL0     H13196   2.745   6.379   6.429  1.6162  0.7977  4.0820
  858MOL0     H13197   2.869   6.128   6.548  0.4632  0.0503 -0.0194
  858MOL0     H13198   2.696   6.171   6.514  0.6775  1.4271 -3.4139
  858MOL0     H13199   2.878   6.327   6.706 -1.1082  0.3522  2.6527
  858MOL0     H13200   2.712   6.366   6.673  1.7966  1.4461 -0.6985
  858MOL0     H13201   2.787   6.109   6.818  1.1927 -0.3270 -1.7142
  858MOL0     H13202   2.628   6.182   6.801 -0.3078  2.2756 -3.5790
  858MOL0     H13203   2.706   6.381   6.920  1.1942  0.6684  2.3253
  858MOL0     H13204   2.860   6.306   6.957 -1.1739  1.7180  3.0570
  858MOL0     H13205   2.584   6.220   7.056 -0.4410 -1.9723  4.1758
  858MOL0     H13206   2.725   6.117   7.050 -0.3043  0.0921  3.5744
  858MOL0     H13207   2.769   6.382   7.187 -0.7977 -0.0230 -0.2554
  858MOL0     H13208   2.851   6.228   7.199  1.0018  1.5664  0.2759
  858MOL0     H13209   2.816   6.191   7.457  0.5056  1.0748 -2.3799
  858MOL0     H13210   2.542   6.331   7.688 -1.0898 -0.3953  0.6198
  858MOL0     H13211   2.684   6.224   7.713 -0.4829 -2.7998 -1.2824
  858MOL0     H13212   2.506   6.031   7.637 -2.4225 -1.0761  1.2656
  858MOL0     H13213   2.390   6.155   7.693 -0.9680  0.1880  4.5991
  858MOL0     H13214   2.589   6.000   7.849  2.9358  3.3394  1.0524
  858MOL0     H13215   2.543   6.152   7.925 -0.1367 -1.2042  1.5350
  858MOL0     H13216   2.401   5.955   8.002 -2.9543  0.2576  1.9066
  858MOL0     H13217   2.352   5.927   7.834 -0.0676  0.3143 -1.1953
  858MOL0     H13218   2.214   5.882   8.064 -0.7658 -0.7263  4.4729
  858MOL0     H13219   1.998   5.845   8.156  2.4854  2.0017  0.4187
  858MOL0     H13220   1.557   5.735   8.064  0.6648  2.9854  0.0622
  858MOL0     H13221   1.359   5.659   8.157 -2.1004  1.7434  0.3043
  858MOL0     H13222   1.364   5.564   8.595 -1.2849 -0.8713  0.0223
  858MOL0     H13223   1.367   5.454   8.451  0.9903 -0.1275  0.1536
  858MOL0     H13224   1.189   5.390   8.604 -0.0445 -0.3176  0.6158
  858MOL0     H13225   1.130   5.410   8.448  2.1034 -1.9483  0.3316
  858MOL0     H13226   1.054   5.647   8.496 -0.8547 -1.3095 -1.2530
  858MOL0     H13227   1.088   5.628   8.671  0.6061  1.0768 -0.4049
  858MOL0     H13228   0.903   5.458   8.511  0.5263 -0.2367 -0.3312
  858MOL0     H13229   0.938   5.431   8.681  0.1695  0.2114 -0.9632
  858MOL0     H13230   0.797   5.678   8.563 -4.0890  1.5191  2.3603
  858MOL0     H13231   0.868   5.681   8.725  0.7296 -1.3821  1.0157
  858MOL0     H13232   0.701   5.483   8.773 -0.7023  1.0025  0.7910
  858MOL0     H13233   0.650   5.490   8.612 -0.1940  1.4838 -1.8787
  858MOL0     H13234   0.662   5.729   8.799 -1.9448 -1.2187  2.8624
  858MOL0     H13235   0.577   5.723   8.634  1.5376 -2.9039 -1.5301
  858MOL0     H13236   0.499   5.550   8.872  1.5964 -1.3167 -1.7082
  858MOL0     H13237   0.409   5.594   8.718  0.3748  3.5474 -2.3146
  858MOL0     H13238   1.515   5.729   8.556  3.2071  2.1948 -0.1316
  858MOL0     H13239   1.715   5.843   8.446 -0.8441  2.5514  0.0667
  858MOL0     H13240   1.847   6.195   7.948 -0.5967 -1.9834 -0.5465
  858MOL0     H13241   2.053   6.254   7.897  1.9700 -1.6308 -2.5428
  858MOL0     H13242   3.295   6.236   6.469 -0.9145  2.3120  0.4173
  858MOL0     H13243   3.480   6.215   6.272 -0.2554  1.1344  2.5271
  858MOL0     H13244   3.608   6.353   5.861  0.4292 -0.7605  2.0284
  858MOL0     H13245   3.796   6.344   5.729  2.2496 -1.3872 -0.7584
  858MOL0     H13246   3.974   5.959   5.548  0.7038  0.1610 -0.4513
  858MOL0     H13247   4.049   6.010   5.705 -0.3106 -2.7900 -0.6500
  858MOL0     H13248   4.101   6.150   5.439 -0.7352  0.7447  0.8272
  858MOL0     H13249   4.178   6.203   5.581 -0.9260  0.3915  0.9286
  858MOL0     H13250   4.311   6.077   5.438 -2.5053  2.0593 -0.1736
  858MOL0     H13251   4.207   5.938   5.433  1.8039  0.2104 -1.0557
  858MOL0     H13252   4.251   5.898   5.674 -0.2743  2.3379  0.8112
  858MOL0     H13253   4.393   5.877   5.581  0.2277 -0.2880  1.6590
  858MOL0     H13254   4.527   6.179   5.843  0.2910 -0.0638 -0.3561
  858MOL0     H13255   3.796   5.915   5.718 -0.3688  0.5029 -0.0048
  858MOL0     H13256   3.619   5.925   5.897 -0.2144  1.0273  2.2527
  859MOL0     O13257   4.414   1.877   2.030 -0.2876  0.2659  0.5619
  859MOL0     C13258   4.450   1.774   1.982 -0.4004 -0.1505 -0.7992
  859MOL0     O13259   4.373   1.685   1.914  0.3818  0.1772 -0.1168
  859MOL0     C13260   4.241   1.712   1.906 -0.3027  0.1591 -0.5563
  859MOL0     C13261   4.154   1.606   1.959 -0.0296 -0.1906  0.4366
  859MOL0     C13262   4.019   1.635   1.962 -0.5807  0.2422 -0.4602
  859MOL0     C13263   3.969   1.757   1.902 -0.5958  0.2536 -0.7042
  859MOL0     O13264   3.831   1.782   1.883 -0.2148  0.3096 -0.0321
  859MOL0     C13265   3.735   1.675   1.888  1.3345  0.8982  0.8257
  859MOL0     C13266   3.770   1.571   1.775  0.7634 -0.4971 -0.2387
  859MOL0     C13267   3.659   1.463   1.779 -0.6702 -0.7285  0.9654
  859MOL0     C13268   3.593   1.475   1.635 -0.1580  0.0740 -0.4315
  859MOL0     C13269   3.508   1.361   1.607  0.5202  0.5763  0.6988
  859MOL0     C13270   3.373   1.365   1.678 -0.5358  0.7037 -0.8199
  859MOL0     C13271   3.278   1.263   1.618  0.2234 -0.2670  0.6216
  859MOL0     C13272   3.139   1.271   1.687 -1.0962 -0.6066  0.2800
  859MOL0     N13273   3.043   1.164   1.660 -0.4223  0.4197  0.5910
  859MOL0     C13274   3.041   1.092   1.542  0.6062  0.2861 -0.5622
  859MOL0     C13275   2.945   0.993   1.560 -0.3834 -0.1131 -0.3156
  859MOL0     C13276   2.913   0.877   1.469 -0.4362 -0.1290 -0.1325
  859MOL0     C13277   2.786   0.799   1.506 -1.2070  0.1643 -0.3059
  859MOL0     C13278   2.654   0.879   1.512  0.0561  0.2072  0.7243
  859MOL0     C13279   2.544   0.779   1.555  0.5805 -0.0089  0.6601
  859MOL0     O13280   2.546   0.757   1.697 -1.1211 -0.3429 -0.4344
  859MOL0     C13281   2.432   0.694   1.754  0.0704  0.2992 -0.0658
  859MOL0     C13282   2.307   0.669   1.693  0.4514  0.8295  0.2601
  859MOL0     C13283   2.213   0.599   1.759  0.1133  0.7394 -0.2124
  859MOL0     C13284   2.237   0.545   1.894  0.2718 -0.3580  0.3248
  859MOL0     C13285   2.125   0.488   1.971 -0.4117  0.1121  0.1736
  859MOL0     O13286   1.995   0.485   1.919 -0.2589  0.2866 -0.3684
  859MOL0     C13287   1.887   0.423   1.978 -0.1133 -0.5915 -0.0851
  859MOL0     C13288   1.886   0.321   2.078  0.3918  0.4883  1.4992
  859MOL0     C13289   1.765   0.271   2.126 -0.3607 -0.4421 -0.3653
  859MOL0     C13290   1.646   0.326   2.077 -0.3660 -0.4050  0.1888
  859MOL0     O13291   1.530   0.262   2.107  0.3418  0.2948 -0.5263
  859MOL0     C13292   1.409   0.330   2.113  1.0633 -0.7002 -0.4969
  859MOL0     C13293   1.318   0.269   2.224  0.0095  0.9196  0.4859
  859MOL0     C13294   1.183   0.337   2.214 -0.2380 -0.2552  0.0182
  859MOL0     C13295   1.087   0.291   2.319  0.0423  0.1098 -0.1288
  859MOL0     C13296   0.957   0.372   2.300 -0.0919  0.4708  0.0127
  859MOL0     C13297   0.866   0.388   2.421 -0.1662 -0.4072 -0.2971
  859MOL0     C13298   0.810   0.258   2.458 -0.1786  0.2956 -0.0029
  859MOL0     C13299   0.718   0.263   2.572 -0.9482  0.1358 -0.1442
  859MOL0    Cl13300   0.818   0.274   2.718  0.0138 -0.1247  0.1703
  859MOL0     C13301   1.647   0.420   1.976 -0.7032  0.8854  0.0708
  859MOL0     C13302   1.766   0.473   1.926 -0.3674 -0.3681  0.1394
  859MOL0     O13303   2.162   0.422   2.076 -0.3986  0.0977  0.2204
  859MOL0     C13304   2.364   0.568   1.956  0.3293 -0.2632  0.1075
  859MOL0     C13305   2.458   0.643   1.885  0.0558  0.7700 -0.0104
  859MOL0     N13306   2.880   1.023   1.680  0.8550  0.2823 -0.3407
  859MOL0     N13307   2.928   1.131   1.734 -0.9203 -0.1898  0.2631
  859MOL0     C13308   4.052   1.857   1.850  0.2497  0.2880  0.2046
  859MOL0     C13309   4.188   1.835   1.849  0.2256  0.0376 -0.3996
  859MOL0     C13310   4.587   1.760   1.987  0.2771  0.3756 -0.4018
  859MOL0     C13311   4.651   1.657   1.918 -0.7566  0.2008 -0.6691
  859MOL0     C13312   4.791   1.643   1.903 -0.0636 -0.8379 -0.3593
  859MOL0     C13313   4.866   1.734   1.977 -1.1211 -1.7140  0.0464
  859MOL0     O13314   4.997   1.712   1.965 -0.5400 -0.0172  0.8290
  859MOL0     C13315   5.099   1.783   2.048 -0.5208 -1.3196  0.0741
  859MOL0     C13316   5.159   1.913   1.975  0.7977  1.0359 -0.2998
  859MOL0     C13317   5.283   1.965   2.041  0.2979  0.0163 -0.1976
  859MOL0     C13318   5.342   2.086   1.962  0.0103  0.1419 -0.4113
  859MOL0     C13319   5.476   2.109   2.013 -0.4164 -0.4484  0.6554
  859MOL0     C13320   5.587   2.136   2.060  0.4497  0.5982  0.4731
  859MOL0     C13321   4.814   1.833   2.059  0.6757 -0.0781 -0.4726
  859MOL0     C13322   4.669   1.840   2.061 -0.5495 -0.7982  0.2231
  859MOL0     H13323   4.198   1.521   2.010 -1.7666 -0.6718  1.1983
  859MOL0     H13324   3.954   1.562   2.009  0.8897  1.0513  3.1518
  859MOL0     H13325   3.634   1.708   1.862  0.7690  1.9781  3.9673
  859MOL0     H13326   3.726   1.635   1.989 -1.1090  0.5601  0.5231
  859MOL0     H13327   3.857   1.514   1.808 -1.3089 -3.6092  0.2205
  859MOL0     H13328   3.782   1.628   1.681  0.7337  0.3115  0.2360
  859MOL0     H13329   3.578   1.484   1.849 -4.0109 -0.6489 -2.5910
  859MOL0     H13330   3.706   1.365   1.791  2.9806  0.4672 -1.7233
  859MOL0     H13331   3.531   1.564   1.618  1.3201  1.3499  0.6051
  859MOL0     H13332   3.674   1.474   1.562 -0.7389 -2.1324 -1.1078
  859MOL0     H13333   3.558   1.269   1.637  2.2268  1.3159  0.2543
  859MOL0     H13334   3.496   1.349   1.499 -2.6828 -0.6648  1.0719
  859MOL0     H13335   3.321   1.460   1.665 -1.9494 -0.0198 -0.6111
  859MOL0     H13336   3.378   1.347   1.786  1.1953  0.3007 -0.9399
  859MOL0     H13337   3.273   1.274   1.510  0.7987 -0.7642  0.5416
  859MOL0     H13338   3.322   1.164   1.631 -0.5145 -1.1374 -2.6206
  859MOL0     H13339   3.093   1.368   1.664  1.6369  1.0988  1.5660
  859MOL0     H13340   3.159   1.255   1.793 -0.4733 -0.9725  0.1077
  859MOL0     H13341   3.112   1.093   1.460  1.3117  0.7818  0.0375
  859MOL0     H13342   3.003   0.816   1.463 -1.7259 -2.1048 -0.3512
  859MOL0     H13343   2.894   0.914   1.368  0.7786 -0.0280 -0.3368
  859MOL0     H13344   2.811   0.753   1.602  1.3554  0.6986 -0.6349
  859MOL0     H13345   2.787   0.723   1.427  3.0842 -0.7451  0.3997
  859MOL0     H13346   2.652   0.963   1.582 -0.5283 -1.6032  3.0280
  859MOL0     H13347   2.653   0.918   1.410 -1.9176 -0.5929  0.3867
  859MOL0     H13348   2.556   0.688   1.495  1.8278  0.1895  0.5903
  859MOL0     H13349   2.450   0.825   1.525  0.8672  0.1127 -0.0527
  859MOL0     H13350   2.278   0.710   1.597 -2.6675 -0.4985  0.5082
  859MOL0     H13351   2.116   0.590   1.712  0.7953  2.8914 -2.2056
  859MOL0     H13352   1.982   0.283   2.113  1.7421  2.0600 -0.2817
  859MOL0     H13353   1.765   0.192   2.201 -1.3825  0.5979  0.7770
  859MOL0     H13354   1.357   0.326   2.016 -1.0114 -0.7761  0.5603
  859MOL0     H13355   1.428   0.437   2.127  2.6520 -0.8756 -1.0660
  859MOL0     H13356   1.365   0.286   2.322  0.0467  4.0730  0.0330
  859MOL0     H13357   1.302   0.162   2.206  0.4314  1.3376 -3.1943
  859MOL0     H13358   1.141   0.315   2.115 -2.8698 -1.8830  1.3809
  859MOL0     H13359   1.203   0.444   2.222  0.0852 -0.4027  1.3298
  859MOL0     H13360   1.055   0.187   2.305  0.7671 -0.0464 -0.6912
  859MOL0     H13361   1.130   0.307   2.418 -0.2925  2.0127 -0.2677
  859MOL0     H13362   0.895   0.321   2.226 -1.1949 -0.2090  1.3479
  859MOL0     H13363   0.983   0.471   2.262 -2.3946  1.4897  0.9266
  859MOL0     H13364   0.781   0.453   2.395  0.1087 -0.0003 -0.1748
  859MOL0     H13365   0.919   0.422   2.510  1.0183 -0.4401 -0.9732
  859MOL0     H13366   0.763   0.209   2.373 -0.8287  0.3139  0.3416
  859MOL0     H13367   0.887   0.186   2.488 -0.1842  1.0717  2.0280
  859MOL0     H13368   0.665   0.167   2.574 -1.2601  0.3133  0.1905
  859MOL0     H13369   0.651   0.348   2.568 -2.0857 -0.4536  3.0756
  859MOL0     H13370   1.553   0.462   1.942 -2.4195 -1.5146  1.5719
  859MOL0     H13371   1.775   0.551   1.852 -2.1227  0.6367  0.9206
  859MOL0     H13372   2.370   0.544   2.061  0.2447 -1.4075 -0.1348
  859MOL0     H13373   2.551   0.656   1.940  0.5734  1.6787 -1.0502
  859MOL0     H13374   4.004   1.950   1.818  0.3808  0.0605 -0.6676
  859MOL0     H13375   4.246   1.920   1.814  0.7489  0.7340  1.9861
  859MOL0     H13376   4.586   1.588   1.864 -0.6702 -1.9856  1.7884
  859MOL0     H13377   4.827   1.563   1.839 -1.2918 -1.6705 -0.0437
  859MOL0     H13378   5.186   1.722   2.075  0.7290  1.4171  2.8464
  859MOL0     H13379   5.060   1.808   2.147  1.2422 -1.8847  0.9579
  859MOL0     H13380   5.176   1.884   1.871  0.9413 -1.6368  0.4103
  859MOL0     H13381   5.074   1.980   1.987 -1.6320 -1.2367 -3.1914
  859MOL0     H13382   5.360   1.888   2.051  0.8264  0.7886  2.9399
  859MOL0     H13383   5.255   1.988   2.145 -3.2966  1.2980 -1.3113
  859MOL0     H13384   5.359   2.058   1.858  2.1747 -0.0769 -0.0345
  859MOL0     H13385   5.284   2.178   1.971 -0.7805 -0.5190  2.1009
  859MOL0     H13386   5.671   2.161   2.122  1.3156  2.2432 -1.2672
  859MOL0     H13387   4.865   1.911   2.114 -4.5604  1.7063  2.5460
  859MOL0     H13388   4.622   1.916   2.124 -0.7244 -0.7734  0.0623
  860MOL0     O13389   8.459   4.167   6.806 -0.1103 -0.0882 -0.4488
  860MOL0     C13390   8.490   4.203   6.690 -0.4821 -0.8700  0.1531
  860MOL0     O13391   8.622   4.202   6.644  0.0999 -0.0046 -0.3241
  860MOL0     C13392   8.738   4.184   6.722  0.3912  1.0129 -0.2161
  860MOL0     C13393   8.851   4.142   6.641  0.8287  0.8294  0.1797
  860MOL0     C13394   8.977   4.133   6.704  0.5356  1.0838  0.0611
  860MOL0     C13395   8.991   4.148   6.844 -0.4579  0.1600 -0.0367
  860MOL0     O13396   9.113   4.116   6.903 -0.5856 -0.0500  0.6905
  860MOL0     C13397   9.147   4.175   7.025  0.6315 -0.5133 -0.0205
  860MOL0     C13398   9.297   4.178   7.049 -0.4326 -1.1208  0.0226
  860MOL0     C13399   9.370   4.056   7.102  0.4049  0.2893  0.4937
  860MOL0     C13400   9.519   4.092   7.137  0.6522 -0.3188 -0.3971
  860MOL0     C13401   9.584   3.968   7.207  0.3394 -0.0372  0.6717
  860MOL0     C13402   9.731   3.998   7.235 -0.3379  0.3336  0.3475
  860MOL0     C13403   9.815   3.878   7.267  0.3000  0.9261  0.0122
  860MOL0     C13404   9.848   3.788   7.145 -0.6903  0.4293  0.4504
  860MOL0     N13405   9.928   3.666   7.192 -0.6585 -0.6545  0.6731
  860MOL0     C13406  10.031   3.676   7.279 -0.2987  0.5907  0.0857
  860MOL0     C13407  10.070   3.547   7.301  0.3295 -0.3016  0.9210
  860MOL0     C13408  10.186   3.498   7.380  0.1817  0.3353 -0.5543
  860MOL0     C13409  10.320   3.539   7.317 -0.3415 -0.5011  0.0977
  860MOL0     C13410  10.411   3.603   7.411 -0.1675  0.0875 -0.3894
  860MOL0     C13411  10.546   3.639   7.344  0.1247  0.8719 -0.2016
  860MOL0     O13412  10.610   3.718   7.434 -0.2152 -0.7842 -0.0006
  860MOL0     C13413  10.671   3.823   7.380  0.0721  0.6058 -0.0539
  860MOL0     C13414  10.627   3.952   7.417  0.4108 -0.1948 -0.0021
  860MOL0     C13415  10.690   4.060   7.356  0.6510 -0.3215 -0.0280
  860MOL0     C13416  10.790   4.038   7.263 -0.2290  0.7094  0.3723
  860MOL0     C13417  10.872   4.142   7.202 -0.8424  1.1031 -0.4315
  860MOL0     O13418  10.848   4.264   7.241 -0.2688 -0.0564 -0.6575
  860MOL0     C13419  10.934   4.366   7.214 -0.0054  0.6662  0.0656
  860MOL0     C13420  11.061   4.377   7.275 -0.1153 -0.8302  0.5133
  860MOL0     C13421  11.153   4.474   7.227  0.6984 -0.0794  1.4087
  860MOL0     C13422  11.124   4.554   7.122  0.4687  0.1153 -0.2837
  860MOL0     O13423  11.225   4.634   7.071 -0.6301 -0.6738  0.2821
  860MOL0     C13424  11.192   4.750   6.990  0.2076 -0.5773 -0.8894
  860MOL0     C13425  11.327   4.830   6.965 -0.1029  0.5734  0.0312
  860MOL0     C13426  11.412   4.749   6.867 -0.2431 -0.8274  0.8773
  860MOL0     C13427  11.372   4.779   6.733  0.6382  0.1163  0.4776
  860MOL0     C13428  11.449   4.689   6.638  0.1076  0.3084  0.0954
  860MOL0     C13429  11.385   4.673   6.506  0.3729 -0.6155  0.2922
  860MOL0     C13430  11.468   4.579   6.414 -0.4016 -0.5877 -0.5480
  860MOL0     C13431  11.537   4.649   6.296  0.4675  0.3199  0.0383
  860MOL0    Cl13432  11.410   4.720   6.189 -0.1482 -0.1082 -0.0724
  860MOL0     C13433  10.994   4.556   7.074  0.8908  0.4419  0.3458
  860MOL0     C13434  10.900   4.454   7.117 -0.0600 -0.1740 -0.2390
  860MOL0     O13435  10.962   4.109   7.122  0.2335  0.3463 -0.7154
  860MOL0     C13436  10.833   3.900   7.234 -0.4466  0.2155 -0.2861
  860MOL0     C13437  10.773   3.799   7.289 -0.0315 -0.0005  1.2407
  860MOL0     N13438   9.979   3.464   7.241  0.2460  0.2024  0.5412
  860MOL0     N13439   9.893   3.536   7.179  0.2328 -0.9663  0.3674
  860MOL0     C13440   8.877   4.185   6.921 -0.5801 -0.2964 -0.1101
  860MOL0     C13441   8.755   4.217   6.856 -0.3216 -0.6551 -0.2218
  860MOL0     C13442   8.376   4.228   6.594 -0.2212 -0.1828  0.2467
  860MOL0     C13443   8.400   4.277   6.470 -0.7287 -0.5348  0.7635
  860MOL0     C13444   8.289   4.322   6.390  0.4170 -0.0231 -0.1647
  860MOL0     C13445   8.159   4.313   6.435 -0.6382  0.0432  0.1334
  860MOL0     O13446   8.055   4.370   6.366 -0.3382 -0.2608  1.5473
  860MOL0     C13447   8.051   4.367   6.213 -0.3701 -0.0652 -0.4204
  860MOL0     C13448   8.034   4.226   6.163  0.0057  0.8532 -1.1054
  860MOL0     C13449   7.895   4.167   6.208 -0.7413 -0.5769 -0.4032
  860MOL0     C13450   7.846   4.046   6.131  0.3163  0.4267 -0.0452
  860MOL0     C13451   7.793   4.089   6.010 -0.1381  0.0380 -0.5617
  860MOL0     C13452   7.747   4.119   5.901 -0.2917 -0.4454  0.0319
  860MOL0     C13453   8.136   4.260   6.556  0.1820 -0.0175 -0.4023
  860MOL0     C13454   8.241   4.219   6.641  0.2762 -0.0408  0.1411
  860MOL0     H13455   8.834   4.107   6.539  0.1145  0.7204  0.3318
  860MOL0     H13456   9.064   4.113   6.643  0.0735  1.1440 -0.6264
  860MOL0     H13457   9.097   4.123   7.108 -0.4049  1.8066  0.9227
  860MOL0     H13458   9.114   4.279   7.027  1.8175 -0.1195  0.1042
  860MOL0     H13459   9.312   4.249   7.131  0.6325 -2.1506  0.7464
  860MOL0     H13460   9.341   4.208   6.953 -1.5283  0.5804  0.0096
  860MOL0     H13461   9.362   3.978   7.026  0.7918  1.1758 -0.4926
  860MOL0     H13462   9.315   4.031   7.193 -0.4720  0.2883 -0.0182
  860MOL0     H13463   9.575   4.118   7.047 -0.5605 -1.1881 -1.4436
  860MOL0     H13464   9.521   4.180   7.202 -0.0574 -0.7492  0.2260
  860MOL0     H13465   9.570   3.886   7.136  0.9427  2.1488 -2.1847
  860MOL0     H13466   9.522   3.945   7.293  0.4586  0.3802  0.8700
  860MOL0     H13467   9.740   4.074   7.314  0.9899  1.4785 -0.8304
  860MOL0     H13468   9.775   4.043   7.146  4.6492 -2.0975  1.2148
  860MOL0     H13469   9.907   3.910   7.318 -0.2359 -2.0236  3.2332
  860MOL0     H13470   9.767   3.820   7.347 -0.8793  1.3660 -0.3715
  860MOL0     H13471   9.908   3.848   7.076 -2.1399  2.2190  0.6648
  860MOL0     H13472   9.764   3.753   7.085  1.4415 -2.8932 -0.9394
  860MOL0     H13473  10.083   3.763   7.317 -1.4855  0.8066  1.2861
  860MOL0     H13474  10.190   3.389   7.382 -4.2396 -0.0783 -2.6332
  860MOL0     H13475  10.180   3.540   7.481 -1.7768  0.6262 -0.7566
  860MOL0     H13476  10.308   3.598   7.226  1.3032 -0.5031 -0.1506
  860MOL0     H13477  10.371   3.452   7.275  0.0272 -0.8328  1.1924
  860MOL0     H13478  10.351   3.689   7.442 -0.9906 -0.7844  0.5199
  860MOL0     H13479  10.439   3.538   7.494  1.6897  0.1015 -0.9637
  860MOL0     H13480  10.520   3.696   7.254  1.3158  0.3519 -0.9017
  860MOL0     H13481  10.599   3.546   7.320 -1.0874  0.0475  0.1896
  860MOL0     H13482  10.551   3.977   7.491 -0.2558  0.1684 -0.7941
  860MOL0     H13483  10.652   4.155   7.392  0.9924 -0.8385  1.8173
  860MOL0     H13484  11.078   4.309   7.359 -2.5589 -0.1498  1.6531
  860MOL0     H13485  11.253   4.478   7.269 -0.1489  1.7409  3.4053
  860MOL0     H13486  11.115   4.813   7.034  1.2186 -1.4097  2.3753
  860MOL0     H13487  11.148   4.722   6.894  0.3207 -0.7192 -0.9012
  860MOL0     H13488  11.383   4.835   7.059 -0.1881  1.0007  0.0600
  860MOL0     H13489  11.307   4.929   6.924 -4.8700 -0.7124 -1.3649
  860MOL0     H13490  11.408   4.642   6.892 -0.2686 -1.6235 -2.1895
  860MOL0     H13491  11.517   4.778   6.877 -0.7976  1.3508  0.8429
  860MOL0     H13492  11.268   4.745   6.723  2.0300 -4.4402 -1.0367
  860MOL0     H13493  11.377   4.885   6.706  1.8324 -0.1601 -0.4546
  860MOL0     H13494  11.470   4.593   6.686 -2.2201  0.0279  0.6869
  860MOL0     H13495  11.538   4.746   6.609 -1.0578  1.6855 -0.9473
  860MOL0     H13496  11.372   4.771   6.459  0.6338 -0.7396 -0.0431
  860MOL0     H13497  11.284   4.638   6.528  0.5712  0.2450  2.8849
  860MOL0     H13498  11.549   4.530   6.469 -0.8037 -0.5937  0.0364
  860MOL0     H13499  11.417   4.491   6.375  0.9587 -0.9855 -1.5202
  860MOL0     H13500  11.597   4.578   6.238 -0.6403 -0.4593 -0.1857
  860MOL0     H13501  11.599   4.727   6.341  0.7071 -0.8592  1.8756
  860MOL0     H13502  10.956   4.614   6.991 -1.9686 -1.2238  0.3800
  860MOL0     H13503  10.800   4.441   7.076  0.2472 -2.2469 -0.4051
  860MOL0     H13504  10.909   3.876   7.160  0.3885  2.7832 -0.3698
  860MOL0     H13505  10.812   3.701   7.263  1.0766  0.6575  0.3432
  860MOL0     H13506   8.876   4.201   7.029  0.9335 -0.9031  0.0160
  860MOL0     H13507   8.680   4.252   6.926  1.2921 -1.4926  2.0924
  860MOL0     H13508   8.502   4.290   6.434 -1.6548 -0.1070 -1.9416
  860MOL0     H13509   8.301   4.361   6.289 -0.9820 -1.2373 -0.8421
  860MOL0     H13510   8.135   4.418   6.165  0.2217 -1.5507 -1.0518
  860MOL0     H13511   7.962   4.420   6.179 -0.0435 -1.3335 -3.6934
  860MOL0     H13512   8.047   4.220   6.055  1.1639  0.3676 -0.9594
  860MOL0     H13513   8.112   4.161   6.203 -1.5172  0.6881  1.9276
  860MOL0     H13514   7.818   4.245   6.202 -0.5965 -0.3063  0.9119
  860MOL0     H13515   7.897   4.132   6.312 -0.7651  0.1051 -0.1673
  860MOL0     H13516   7.927   3.973   6.123  0.1088 -0.0410  1.5998
  860MOL0     H13517   7.774   3.986   6.189  0.7670 -1.4053 -1.2769
  860MOL0     H13518   7.709   4.140   5.803 -0.1302 -1.1241 -0.1816
  860MOL0     H13519   8.032   4.250   6.587  0.2873  0.9075  0.2775
  860MOL0     H13520   8.211   4.173   6.734 -0.7281 -0.0427 -0.1696
  861MOL0     O13521   3.469   2.228   1.928 -0.6592 -0.1902 -0.4409
  861MOL0     C13522   3.526   2.137   1.984 -0.5366  0.4187 -0.2993
  861MOL0     O13523   3.470   2.021   2.044  0.4852 -0.5679  0.0449
  861MOL0     C13524   3.331   2.026   2.041 -0.2771  0.7911 -0.4256
  861MOL0     C13525   3.262   2.094   2.148 -0.1529  0.5463  0.8744
  861MOL0     C13526   3.121   2.090   2.145  0.4838  0.4453  0.1301
  861MOL0     C13527   3.052   2.021   2.035 -0.2677 -0.4405 -0.4412
  861MOL0     O13528   2.914   2.027   2.040 -0.3425  0.2393 -0.0264
  861MOL0     C13529   2.844   1.925   1.975  0.2497  0.5857  0.4264
  861MOL0     C13530   2.704   1.924   2.023 -1.0437 -0.3437  0.7453
  861MOL0     C13531   2.615   2.028   1.948 -0.4127  0.6001  0.7117
  861MOL0     C13532   2.474   2.018   2.013  0.2500 -0.4231  1.4456
  861MOL0     C13533   2.405   2.150   2.003  0.4465 -0.2691  0.7899
  861MOL0     C13534   2.265   2.147   2.068  0.3918 -0.2392  0.0016
  861MOL0     C13535   2.159   2.069   2.000  0.0719  0.6216 -1.3099
  861MOL0     C13536   2.039   2.039   2.091  0.5234 -0.7095  0.0036
  861MOL0     N13537   1.936   1.978   2.009  0.1140  0.2694  1.7498
  861MOL0     C13538   1.868   2.040   1.911  0.5545  0.1888  0.1646
  861MOL0     C13539   1.772   1.951   1.882 -0.5770  0.8040  0.1521
  861MOL0     C13540   1.662   1.979   1.784 -0.0200  0.3028 -0.1842
  861MOL0     C13541   1.547   1.881   1.805  0.1676  0.2480 -0.2118
  861MOL0     C13542   1.431   1.907   1.707  0.5657 -0.7470 -0.0838
  861MOL0     C13543   1.303   1.823   1.727  0.3833  0.5115 -0.5110
  861MOL0     O13544   1.206   1.876   1.632  0.3092 -0.0204  0.0132
  861MOL0     C13545   1.088   1.819   1.643  0.6691 -0.0496 -0.5777
  861MOL0     C13546   1.054   1.713   1.734 -0.4752  0.8545 -0.4252
  861MOL0     C13547   0.917   1.686   1.758 -0.8887 -0.5367 -0.3315
  861MOL0     C13548   0.815   1.741   1.671  0.0183 -0.3889  1.3013
  861MOL0     C13549   0.676   1.706   1.681 -0.4345 -0.4629 -0.7858
  861MOL0     O13550   0.589   1.737   1.573  0.5025  0.0593  0.3042
  861MOL0     C13551   0.453   1.731   1.610 -0.7783 -0.0655 -0.3459
  861MOL0     C13552   0.384   1.846   1.627  0.4648 -0.6415 -0.2102
  861MOL0     C13553   0.239   1.843   1.646 -0.1327 -0.2588 -0.2963
  861MOL0     C13554   0.171   1.727   1.639  0.8679  1.4929  0.8572
  861MOL0     O13555   0.034   1.716   1.660 -0.3479 -0.1956  0.0438
  861MOL0     C13556  -0.043   1.597   1.660 -0.4725 -0.0375 -0.2403
  861MOL0     C13557  -0.183   1.633   1.689  0.5843 -0.7552  0.5703
  861MOL0     C13558  -0.271   1.515   1.751  0.7992  0.5576  0.1169
  861MOL0     C13559  -0.411   1.578   1.743 -0.2810 -0.3679  0.1312
  861MOL0     C13560  -0.518   1.495   1.814  0.8077  0.1773 -0.8419
  861MOL0     C13561  -0.644   1.583   1.814 -0.2686  0.4925 -0.6998
  861MOL0     C13562  -0.768   1.510   1.878 -0.2096  0.4580 -0.4229
  861MOL0     C13563  -0.801   1.368   1.829 -0.3595 -0.0911 -0.2618
  861MOL0    Cl13564  -0.942   1.300   1.918  0.1563 -0.7001  0.1594
  861MOL0     C13565   0.244   1.609   1.618 -0.5179 -0.0817  0.0090
  861MOL0     C13566   0.383   1.614   1.596  0.2944  0.1554 -0.1525
  861MOL0     O13567   0.642   1.650   1.786 -0.1141 -0.6194 -0.2481
  861MOL0     C13568   0.856   1.837   1.578 -0.0584 -0.3244 -0.1741
  861MOL0     C13569   0.989   1.869   1.565 -1.1092  0.5593  0.0866
  861MOL0     N13570   1.796   1.829   1.950 -1.0342  0.0166 -0.4452
  861MOL0     N13571   1.901   1.854   2.023 -0.5371  0.5385 -0.4870
  861MOL0     C13572   3.121   1.956   1.932 -0.2328 -0.0925  0.0141
  861MOL0     C13573   3.262   1.966   1.937 -0.0696  0.0939 -0.4035
  861MOL0     C13574   3.674   2.152   2.023 -0.7842  0.1312  0.5491
  861MOL0     C13575   3.764   2.045   2.041 -0.2057  0.1276  0.4759
  861MOL0     C13576   3.900   2.071   2.063 -0.1954 -0.4145 -0.2781
  861MOL0     C13577   3.949   2.198   2.079 -0.5960 -0.6436  0.1587
  861MOL0     O13578   4.076   2.230   2.122  0.8889  0.3178 -0.0205
  861MOL0     C13579   4.159   2.130   2.167 -0.3003 -0.0498 -0.0664
  861MOL0     C13580   4.299   2.191   2.198  0.1695  0.9342  0.2469
  861MOL0     C13581   4.373   2.097   2.288  0.3590  0.7563 -0.1080
  861MOL0     C13582   4.516   2.144   2.313 -0.8695  0.3683  0.3851
  861MOL0     C13583   4.584   2.037   2.387 -0.1028 -0.6360  0.1302
  861MOL0     C13584   4.659   1.952   2.444 -0.3794  0.3469 -0.9984
  861MOL0     C13585   3.863   2.300   2.054  0.3533  0.1382  0.1832
  861MOL0     C13586   3.728   2.275   2.026  1.3073  0.2651 -0.4856
  861MOL0     H13587   3.310   2.148   2.229  0.2235  1.4187  0.0771
  861MOL0     H13588   3.051   2.137   2.213 -2.6357  0.3934 -2.8229
  861MOL0     H13589   2.891   1.831   2.005  0.9206  0.4041 -1.1197
  861MOL0     H13590   2.857   1.942   1.868 -0.0394  2.0753  0.6118
  861MOL0     H13591   2.703   1.942   2.131 -1.7543  0.8839  0.5534
  861MOL0     H13592   2.659   1.824   2.028 -2.6601  0.3737  1.1006
  861MOL0     H13593   2.596   1.996   1.845  0.0138  0.6413  0.6191
  861MOL0     H13594   2.665   2.125   1.935  0.5287  0.4765  2.9876
  861MOL0     H13595   2.413   1.940   1.965  2.1226  0.3750 -2.7015
  861MOL0     H13596   2.493   2.003   2.120 -3.7287 -3.1763  1.9931
  861MOL0     H13597   2.392   2.175   1.897  0.7441  0.7745  0.9967
  861MOL0     H13598   2.470   2.222   2.054  2.7501 -0.6668 -1.3959
  861MOL0     H13599   2.236   2.252   2.079  0.8101 -0.1332  0.1287
  861MOL0     H13600   2.281   2.104   2.167  0.4022 -2.4336 -0.9104
  861MOL0     H13601   2.122   2.117   1.909  2.0758  0.7038 -2.1464
  861MOL0     H13602   2.202   1.972   1.974 -2.1064 -0.6600 -0.4458
  861MOL0     H13603   2.004   2.136   2.128 -0.8460 -0.5375 -1.6273
  861MOL0     H13604   2.052   1.963   2.168 -1.3070  1.3514  2.5038
  861MOL0     H13605   1.902   2.133   1.866 -0.2251  0.5921  0.3874
  861MOL0     H13606   1.697   1.957   1.683 -0.6293 -0.3793 -0.2584
  861MOL0     H13607   1.620   2.080   1.791 -0.0876  0.2868 -0.3449
  861MOL0     H13608   1.520   1.889   1.911 -0.2388 -2.1410 -0.0636
  861MOL0     H13609   1.575   1.775   1.801 -0.6380  0.0518 -1.3666
  861MOL0     H13610   1.388   2.007   1.715 -2.4671 -1.8089 -1.4417
  861MOL0     H13611   1.459   1.894   1.602 -2.3226  2.3207 -1.3898
  861MOL0     H13612   1.278   1.838   1.833 -2.5605 -0.0586 -1.0330
  861MOL0     H13613   1.335   1.721   1.703  3.5260  1.3612 -0.3751
  861MOL0     H13614   1.125   1.661   1.797 -0.6315 -1.4409 -2.0062
  861MOL0     H13615   0.875   1.627   1.838 -3.8066 -0.2925 -1.5355
  861MOL0     H13616   0.425   1.947   1.622 -0.0696 -0.4598 -1.4437
  861MOL0     H13617   0.186   1.937   1.659 -1.1579 -0.7436 -0.8472
  861MOL0     H13618  -0.009   1.540   1.748 -4.5882 -0.4711  1.2868
  861MOL0     H13619  -0.029   1.546   1.565 -0.3945  0.8043 -0.6845
  861MOL0     H13620  -0.216   1.673   1.593  1.5953 -2.2288 -0.4546
  861MOL0     H13621  -0.196   1.708   1.767 -2.1732 -0.9002  0.3434
  861MOL0     H13622  -0.233   1.501   1.853  2.1686 -0.4060 -0.4879
  861MOL0     H13623  -0.281   1.425   1.689 -5.2642  1.6209 -1.0690
  861MOL0     H13624  -0.412   1.681   1.781  0.5087 -0.3565  0.1485
  861MOL0     H13625  -0.445   1.587   1.640 -2.5532  1.6597  0.9622
  861MOL0     H13626  -0.487   1.464   1.914  0.4743  0.4092 -0.6628
  861MOL0     H13627  -0.524   1.399   1.761 -0.0976 -0.9564  1.2040
  861MOL0     H13628  -0.664   1.617   1.712  2.1576 -0.5603 -1.5750
  861MOL0     H13629  -0.636   1.682   1.860 -0.0218  1.7783 -3.3301
  861MOL0     H13630  -0.750   1.497   1.985 -1.6823 -0.4144 -0.2566
  861MOL0     H13631  -0.853   1.578   1.863  0.6483  1.2723 -1.8382
  861MOL0     H13632  -0.728   1.288   1.842 -1.8095 -1.0551  2.9941
  861MOL0     H13633  -0.827   1.385   1.724 -1.0291  1.5065  0.1346
  861MOL0     H13634   0.204   1.509   1.606 -1.1057  0.0950  0.4737
  861MOL0     H13635   0.434   1.520   1.579 -3.1358 -1.7844 -0.7184
  861MOL0     H13636   0.790   1.880   1.503 -1.4049 -1.4657  0.2936
  861MOL0     H13637   1.011   1.946   1.492 -0.0046 -0.6964 -0.9828
  861MOL0     H13638   3.068   1.902   1.855 -1.3237 -1.9955  1.9785
  861MOL0     H13639   3.325   1.934   1.855  1.0627  0.0690  0.4534
  861MOL0     H13640   3.730   1.941   2.045 -1.3153  0.3182 -2.0319
  861MOL0     H13641   3.961   1.983   2.080 -0.3098 -0.3905  0.2724
  861MOL0     H13642   4.169   2.055   2.088  0.6069 -3.7079  3.2148
  861MOL0     H13643   4.120   2.075   2.254  2.3277 -2.9276 -0.5204
  861MOL0     H13644   4.351   2.200   2.102 -2.2906 -1.6251 -1.5049
  861MOL0     H13645   4.285   2.289   2.246 -0.4114  0.4041  1.1867
  861MOL0     H13646   4.367   1.991   2.262  0.4385  0.2416  1.8009
  861MOL0     H13647   4.327   2.097   2.388 -1.6818 -4.2997 -0.7267
  861MOL0     H13648   4.560   2.159   2.215 -1.5782  1.8070  0.2647
  861MOL0     H13649   4.515   2.237   2.371 -1.5766 -0.5943  2.0108
  861MOL0     H13650   4.724   1.882   2.493 -0.5706 -0.1373 -1.4370
  861MOL0     H13651   3.910   2.398   2.054  0.7891 -0.0638 -0.6605
  861MOL0     H13652   3.664   2.362   2.009  0.2502 -0.5169 -0.6039
  862MOL0     O13653   4.069   3.900   8.474 -0.2675 -0.2250 -0.3005
  862MOL0     C13654   4.098   3.920   8.593  0.4919 -0.7949 -0.0137
  862MOL0     O13655   4.024   3.895   8.701  0.4338 -0.3384  0.8416
  862MOL0     C13656   3.892   3.914   8.676  1.1117  0.2555 -0.3467
  862MOL0     C13657   3.804   3.802   8.672  0.0222  0.7833  0.0360
  862MOL0     C13658   3.666   3.820   8.661 -0.1967  0.7914  0.0816
  862MOL0     C13659   3.604   3.949   8.642  0.4203  0.1292 -0.0281
  862MOL0     O13660   3.473   3.977   8.641  0.5712 -0.1966  0.1721
  862MOL0     C13661   3.391   3.866   8.670  0.0453 -0.5852  0.1580
  862MOL0     C13662   3.242   3.896   8.671  0.0203 -0.8422 -0.4294
  862MOL0     C13663   3.164   3.763   8.669 -0.5104 -0.0466  0.0609
  862MOL0     C13664   3.015   3.789   8.675 -0.0907 -0.8407  0.1064
  862MOL0     C13665   2.945   3.658   8.657 -0.6488  0.0529  0.1266
  862MOL0     C13666   2.884   3.611   8.782  0.3718 -0.3956 -0.3710
  862MOL0     C13667   2.799   3.476   8.745  0.5043  0.0140 -0.2768
  862MOL0     C13668   2.703   3.428   8.858  0.2686 -0.0597 -0.2033
  862MOL0     N13669   2.632   3.308   8.800  0.0699 -0.0285  0.2045
  862MOL0     C13670   2.686   3.178   8.779  0.3618  1.0140  0.2619
  862MOL0     C13671   2.587   3.110   8.711  0.3454 -0.9572  0.2314
  862MOL0     C13672   2.612   2.976   8.645  0.0103 -0.0298  0.6106
  862MOL0     C13673   2.652   2.976   8.495 -0.1080  0.0782 -0.9002
  862MOL0     C13674   2.554   3.044   8.405 -0.3185 -0.0888 -0.5491
  862MOL0     C13675   2.415   2.985   8.415  0.4012 -0.3503  0.4810
  862MOL0     O13676   2.420   2.836   8.406 -0.2493 -0.1712 -0.5896
  862MOL0     C13677   2.312   2.753   8.424  0.3262  0.2622 -0.1254
  862MOL0     C13678   2.317   2.622   8.362 -0.2411 -0.8274 -0.2436
  862MOL0     C13679   2.210   2.540   8.349  0.2973 -1.3152 -0.8112
  862MOL0     C13680   2.089   2.583   8.399  0.2282 -0.8172 -0.1446
  862MOL0     C13681   1.969   2.497   8.374  0.5162  0.0474 -0.1990
  862MOL0     O13682   1.983   2.375   8.322  0.2641 -0.4238  0.0001
  862MOL0     C13683   1.878   2.300   8.291 -0.3644  0.6655  1.0248
  862MOL0     C13684   1.824   2.204   8.375  0.8571  0.3634 -0.9252
  862MOL0     C13685   1.710   2.134   8.335  0.3659  0.0364  0.3039
  862MOL0     C13686   1.648   2.164   8.215 -0.2733 -0.4420 -0.1564
  862MOL0     O13687   1.535   2.099   8.177 -0.2011 -0.1352  0.1113
  862MOL0     C13688   1.416   2.179   8.188  0.1331  0.2711 -0.1237
  862MOL0     C13689   1.310   2.079   8.139 -0.0246 -0.3260 -0.0905
  862MOL0     C13690   1.169   2.158   8.160  0.4993  0.3854  0.6977
  862MOL0     C13691   1.042   2.064   8.158  0.1871 -0.4705  0.5513
  862MOL0     C13692   0.929   2.126   8.238 -0.6969  0.1194  0.4499
  862MOL0     C13693   0.794   2.065   8.189 -0.2040 -0.7670 -0.6595
  862MOL0     C13694   0.675   2.145   8.242  0.5889  1.1281  0.5554
  862MOL0     C13695   0.539   2.072   8.227  0.1086 -0.6508  1.0819
  862MOL0    Cl13696   0.544   1.917   8.321  0.5235 -0.3408  0.5158
  862MOL0     C13697   1.705   2.252   8.130  0.7698  0.1416  0.3444
  862MOL0     C13698   1.819   2.323   8.172  0.8207  0.1262  0.8337
  862MOL0     O13699   1.859   2.547   8.395  0.2910 -0.2412  0.0516
  862MOL0     C13700   2.082   2.711   8.465  0.0915  0.6610 -0.0666
  862MOL0     C13701   2.197   2.792   8.480 -0.2588  0.0597 -0.9782
  862MOL0     N13702   2.484   3.199   8.695 -0.0220 -0.4771 -0.8358
  862MOL0     N13703   2.512   3.312   8.737 -0.1545 -0.5550  0.6652
  862MOL0     C13704   3.690   4.056   8.657 -0.5662  0.4367  1.2716
  862MOL0     C13705   3.827   4.038   8.668 -0.1080  0.2376  0.3505
  862MOL0     C13706   4.227   3.988   8.639  0.7855 -0.4625 -0.5366
  862MOL0     C13707   4.325   4.026   8.548  0.4307  0.8548  0.3623
  862MOL0     C13708   4.450   4.077   8.592  0.5021  0.3893  1.0661
  862MOL0     C13709   4.485   4.096   8.726  0.0716 -0.1036 -0.7644
  862MOL0     O13710   4.609   4.138   8.778 -0.3043  0.5134  0.9795
  862MOL0     C13711   4.725   4.138   8.686 -1.1555 -0.2288 -0.2741
  862MOL0     C13712   4.734   4.259   8.588  0.4205  0.6485 -0.1039
  862MOL0     C13713   4.883   4.276   8.535 -0.0948 -0.6351  0.1698
  862MOL0     C13714   4.916   4.189   8.412  0.0651 -0.5214 -0.0092
  862MOL0     C13715   4.849   4.253   8.306  0.7117  1.6221  0.0369
  862MOL0     C13716   4.788   4.303   8.217 -0.5201  0.7174 -0.2591
  862MOL0     C13717   4.383   4.050   8.816  0.2078  0.3272 -0.0267
  862MOL0     C13718   4.256   4.009   8.780  0.4981  0.7802  0.9147
  862MOL0     H13719   3.834   3.697   8.674  0.6020  0.9165 -1.2301
  862MOL0     H13720   3.614   3.726   8.643  1.2414 -0.0409  0.1609
  862MOL0     H13721   3.418   3.811   8.760 -0.8076  0.5580  1.1391
  862MOL0     H13722   3.412   3.792   8.592  1.5838  0.4469 -0.4497
  862MOL0     H13723   3.213   3.957   8.585  1.9158  2.0242  0.8087
  862MOL0     H13724   3.239   3.941   8.771  2.7984 -1.1783 -0.1152
  862MOL0     H13725   3.182   3.714   8.765  1.0745  2.4968  1.1832
  862MOL0     H13726   3.182   3.693   8.587 -2.7855 -0.9896  0.3018
  862MOL0     H13727   2.986   3.843   8.765 -1.5640  3.5177 -2.6668
  862MOL0     H13728   2.983   3.853   8.592 -3.0562 -2.9319 -0.5136
  862MOL0     H13729   3.008   3.578   8.617 -1.8897 -0.6962 -0.4055
  862MOL0     H13730   2.859   3.683   8.595 -0.4421  1.1954  0.2807
  862MOL0     H13731   2.814   3.686   8.820 -1.8716 -2.3339 -0.4285
  862MOL0     H13732   2.969   3.602   8.850 -0.3786  1.9511  1.0108
  862MOL0     H13733   2.734   3.495   8.659 -0.1667 -0.1330  0.1834
  862MOL0     H13734   2.872   3.400   8.717 -0.5911 -2.1172  2.2313
  862MOL0     H13735   2.632   3.510   8.879  2.9418  2.9785 -2.0521
  862MOL0     H13736   2.759   3.397   8.946 -2.3038 -2.5236  0.6987
  862MOL0     H13737   2.781   3.137   8.812 -1.1246 -1.8324  1.3570
  862MOL0     H13738   2.518   2.921   8.659 -2.0781  3.3550  1.0709
  862MOL0     H13739   2.692   2.939   8.709  0.8543  2.1125  0.8602
  862MOL0     H13740   2.661   2.876   8.451  0.2946 -0.4849  0.4069
  862MOL0     H13741   2.752   3.019   8.504 -0.4029  0.3714  2.0322
  862MOL0     H13742   2.553   3.152   8.423  0.8338 -0.1903  0.2208
  862MOL0     H13743   2.593   3.033   8.303 -1.2172 -0.4107 -0.8706
  862MOL0     H13744   2.364   3.018   8.324  3.0589 -1.1829 -1.4105
  862MOL0     H13745   2.370   3.020   8.508  1.3023  1.2951  0.3375
  862MOL0     H13746   2.412   2.589   8.321 -0.2067 -1.4012  0.2826
  862MOL0     H13747   2.215   2.447   8.293  0.4646 -1.0319 -1.2717
  862MOL0     H13748   1.870   2.199   8.473 -0.7029 -3.0407 -0.2318
  862MOL0     H13749   1.666   2.063   8.404 -0.7264 -0.7181 -1.1279
  862MOL0     H13750   1.430   2.263   8.119  0.3534 -0.3342 -0.8235
  862MOL0     H13751   1.393   2.225   8.284  1.8462 -0.0546  0.4753
  862MOL0     H13752   1.306   1.986   8.196  0.7863 -0.3652 -0.0766
  862MOL0     H13753   1.321   2.063   8.031 -0.2059  1.6711 -0.4569
  862MOL0     H13754   1.146   2.237   8.088 -0.9116 -1.3401 -0.8452
  862MOL0     H13755   1.166   2.203   8.260 -0.0675 -0.7860  1.2302
  862MOL0     H13756   1.001   2.068   8.057 -2.9369  0.8949  1.7251
  862MOL0     H13757   1.060   1.962   8.192  0.1920 -0.3186  1.0212
  862MOL0     H13758   0.918   2.230   8.205 -3.8992 -0.1448  0.3224
  862MOL0     H13759   0.944   2.130   8.346 -0.7660  1.0242  0.4348
  862MOL0     H13760   0.786   1.957   8.208 -0.9477 -0.2487  2.4427
  862MOL0     H13761   0.804   2.082   8.081  0.4741  2.6186 -0.1549
  862MOL0     H13762   0.688   2.171   8.348  0.4891 -1.7625  1.3657
  862MOL0     H13763   0.670   2.238   8.184 -3.3576 -0.2928 -1.7779
  862MOL0     H13764   0.518   2.051   8.122 -0.3583  1.1498  0.7715
  862MOL0     H13765   0.470   2.142   8.275  1.5478  1.4636  0.2213
  862MOL0     H13766   1.645   2.272   8.042 -2.1343 -1.9330  1.6989
  862MOL0     H13767   1.856   2.400   8.104 -0.4416 -1.1795 -1.4730
  862MOL0     H13768   1.983   2.737   8.501 -0.1697 -0.7373  0.2869
  862MOL0     H13769   2.185   2.888   8.529 -0.2818 -1.5693  2.4790
  862MOL0     H13770   3.652   4.156   8.640  2.4499  1.1978 -2.2584
  862MOL0     H13771   3.887   4.129   8.671  0.3054 -0.0301  0.1702
  862MOL0     H13772   4.301   4.010   8.443 -1.7386 -1.7587  1.1461
  862MOL0     H13773   4.525   4.098   8.516  0.1656 -1.9307  0.0127
  862MOL0     H13774   4.727   4.053   8.617 -0.8945  1.1770 -2.0613
  862MOL0     H13775   4.818   4.136   8.745  0.3916 -1.4684 -2.6045
  862MOL0     H13776   4.661   4.261   8.507 -0.1344 -1.6809  0.2671
  862MOL0     H13777   4.710   4.348   8.647  0.8082  0.4564  0.3474
  862MOL0     H13778   4.956   4.257   8.614  0.0381  1.5601  0.6303
  862MOL0     H13779   4.904   4.383   8.520 -0.4012 -0.2057  2.5036
  862MOL0     H13780   5.021   4.166   8.396  0.2263 -1.4065  1.9614
  862MOL0     H13781   4.880   4.086   8.425 -0.1722 -0.2812  1.4356
  862MOL0     H13782   4.745   4.352   8.132 -1.6534 -0.4459 -0.3912
  862MOL0     H13783   4.396   4.059   8.924 -0.0774 -1.0890  0.1510
  862MOL0     H13784   4.190   3.988   8.864 -0.6811  2.3275  0.4247
  863MOL0     O13785   8.313   6.285   8.766  0.3082  0.8277  0.5934
  863MOL0     C13786   8.415   6.275   8.698 -0.4561 -0.6403 -0.2811
  863MOL0     O13787   8.417   6.307   8.566 -0.0955 -0.0306 -0.7272
  863MOL0     C13788   8.301   6.332   8.502  0.4965 -0.7477 -0.2938
  863MOL0     C13789   8.268   6.463   8.471 -0.6060  0.4937 -0.0881
  863MOL0     C13790   8.143   6.488   8.404 -0.4732  0.4214 -0.2602
  863MOL0     C13791   8.053   6.387   8.369  0.1706 -0.5656 -0.8109
  863MOL0     O13792   7.925   6.419   8.325  0.0707  0.1211  0.4280
  863MOL0     C13793   7.848   6.531   8.381  0.0268  0.0610 -0.5510
  863MOL0     C13794   7.699   6.511   8.353 -0.2981 -0.0035  0.9886
  863MOL0     C13795   7.629   6.648   8.397  0.2726 -0.5851  0.2454
  863MOL0     C13796   7.478   6.652   8.416  0.1079 -0.3058  0.1662
  863MOL0     C13797   7.419   6.787   8.469  0.9262  0.4836 -0.9456
  863MOL0     C13798   7.263   6.774   8.469 -0.9430  0.5563 -0.0030
  863MOL0     C13799   7.185   6.880   8.545  0.2169 -0.7665 -0.2297
  863MOL0     C13800   7.036   6.840   8.578  0.0849  0.0820  0.0970
  863MOL0     N13801   6.956   6.818   8.454 -0.0873 -0.4210  0.6263
  863MOL0     C13802   6.946   6.705   8.374  0.0453 -0.2162 -0.1787
  863MOL0     C13803   6.881   6.738   8.258  0.0146 -0.3064  0.4099
  863MOL0     C13804   6.852   6.663   8.139  0.4301  0.7308 -0.0309
  863MOL0     C13805   6.716   6.582   8.147 -0.0878 -0.5663 -0.4384
  863MOL0     C13806   6.706   6.448   8.071  0.0010 -0.7805  0.1346
  863MOL0     C13807   6.578   6.370   8.087 -0.0124 -0.8039 -0.1481
  863MOL0     O13808   6.478   6.433   7.999 -0.5449  0.0912 -0.0917
  863MOL0     C13809   6.348   6.438   8.046  0.3912  0.5336  0.0930
  863MOL0     C13810   6.267   6.547   8.016 -0.0569  0.9398  0.3509
  863MOL0     C13811   6.129   6.546   8.056  0.6437  0.7129  0.7997
  863MOL0     C13812   6.065   6.435   8.106  0.5391 -0.7501  0.2968
  863MOL0     C13813   5.912   6.432   8.118 -0.3420 -0.2403 -0.3336
  863MOL0     O13814   5.864   6.340   8.205 -0.1142  0.0783  0.9118
  863MOL0     C13815   5.736   6.303   8.184  0.2205 -0.3859 -0.0736
  863MOL0     C13816   5.695   6.254   8.062  0.4842 -0.2634 -0.3338
  863MOL0     C13817   5.556   6.238   8.046  0.7291 -0.8153 -0.2425
  863MOL0     C13818   5.462   6.248   8.152 -0.5150 -0.6570  0.5377
  863MOL0     O13819   5.327   6.232   8.139 -0.2298  0.7727  0.2408
  863MOL0     C13820   5.262   6.256   8.009 -0.5159  0.0690 -1.4504
  863MOL0     C13821   5.125   6.179   8.006  0.6485 -0.3975  0.6181
  863MOL0     C13822   5.133   6.031   8.045  0.4174 -0.0820 -0.0030
  863MOL0     C13823   4.998   5.968   8.015  0.6551  1.7722 -0.4239
  863MOL0     C13824   4.890   6.007   8.116 -0.9861 -0.6317 -0.2575
  863MOL0     C13825   4.768   5.927   8.095  0.1024  0.3792  0.2171
  863MOL0     C13826   4.673   5.922   8.227 -0.6793  0.5869  0.4572
  863MOL0     C13827   4.527   5.940   8.193  0.0526 -1.0167 -0.0938
  863MOL0    Cl13828   4.484   5.828   8.058 -0.3816 -0.1062 -0.0370
  863MOL0     C13829   5.517   6.284   8.280  0.0492 -0.0833 -0.0454
  863MOL0     C13830   5.654   6.304   8.295 -0.2214 -0.8742 -0.5039
  863MOL0     O13831   5.838   6.502   8.046  0.3765  0.4805  0.3146
  863MOL0     C13832   6.144   6.317   8.125 -0.7351 -0.1310  0.3107
  863MOL0     C13833   6.286   6.316   8.102 -0.5402 -0.6555  0.5280
  863MOL0     N13834   6.874   6.876   8.266  0.4757 -0.0454 -0.3756
  863MOL0     N13835   6.899   6.911   8.383 -0.5527 -0.8381  0.8082
  863MOL0     C13836   8.098   6.256   8.383  0.4409 -0.0987 -0.5933
  863MOL0     C13837   8.224   6.236   8.440  0.0168  0.5819 -0.3902
  863MOL0     C13838   8.538   6.217   8.759 -0.1235 -0.3925 -0.0054
  863MOL0     C13839   8.539   6.167   8.890 -0.7807 -0.1037  0.2007
  863MOL0     C13840   8.661   6.110   8.938  0.7660 -0.2542 -0.3502
  863MOL0     C13841   8.778   6.109   8.866 -0.1958  1.2000  0.2873
  863MOL0     O13842   8.904   6.075   8.907  0.0453  0.2481 -0.3644
  863MOL0     C13843   8.937   6.091   9.045 -0.1216 -0.1465  0.0127
  863MOL0     C13844   9.087   6.122   9.043  0.1696 -0.3097  0.7110
  863MOL0     C13845   9.174   6.009   8.989  1.9007 -0.8218  0.0308
  863MOL0     C13846   9.324   6.044   8.956  0.1628 -0.1017 -0.8020
  863MOL0     C13847   9.349   6.154   8.863 -0.0158  0.3419  0.0615
  863MOL0     C13848   9.380   6.254   8.804  0.3023  0.5936 -0.8896
  863MOL0     C13849   8.777   6.148   8.737  0.2828  1.0922 -0.2962
  863MOL0     C13850   8.658   6.200   8.683  0.5478 -0.1062  0.2544
  863MOL0     H13851   8.330   6.546   8.505 -4.2067  2.4194  2.4537
  863MOL0     H13852   8.112   6.588   8.375 -0.4502  0.2618 -0.8439
  863MOL0     H13853   7.893   6.623   8.342  0.1500  0.2914  0.1251
  863MOL0     H13854   7.866   6.534   8.489 -0.6852 -2.2008 -0.3220
  863MOL0     H13855   7.669   6.427   8.416  1.1664 -0.9484  0.4690
  863MOL0     H13856   7.683   6.491   8.247  2.8848 -2.2718  0.8223
  863MOL0     H13857   7.661   6.723   8.324 -0.4041 -0.8025 -0.2929
  863MOL0     H13858   7.668   6.676   8.495  0.5654 -1.6079  0.4271
  863MOL0     H13859   7.436   6.636   8.316  0.5974 -1.3276  0.1152
  863MOL0     H13860   7.440   6.569   8.476 -0.3458 -1.6427 -1.8757
  863MOL0     H13861   7.456   6.872   8.411 -0.6095  1.7955 -0.0908
  863MOL0     H13862   7.456   6.811   8.569  0.6410  4.0303 -1.5669
  863MOL0     H13863   7.234   6.677   8.510  0.1671  0.1819 -0.0789
  863MOL0     H13864   7.228   6.776   8.365  0.6892  0.2494 -0.5821
  863MOL0     H13865   7.236   6.879   8.642  1.0212 -0.4088 -0.6426
  863MOL0     H13866   7.192   6.981   8.505 -2.7515 -0.6500 -0.7017
  863MOL0     H13867   6.991   6.910   8.649 -2.2542 -0.6434 -0.5696
  863MOL0     H13868   7.031   6.747   8.636 -1.5082  1.0159  1.5757
  863MOL0     H13869   6.974   6.604   8.405  1.6909  0.7380  1.7007
  863MOL0     H13870   6.933   6.592   8.127  0.9129  1.3646 -0.6317
  863MOL0     H13871   6.859   6.732   8.054 -1.5363  2.5828  1.1995
  863MOL0     H13872   6.635   6.656   8.134 -0.0291 -0.0259  1.8926
  863MOL0     H13873   6.701   6.547   8.249 -0.1743 -1.4595 -0.7506
  863MOL0     H13874   6.719   6.467   7.964  0.8770  4.4089  0.9306
  863MOL0     H13875   6.790   6.387   8.107  0.9099  0.1507 -0.3639
  863MOL0     H13876   6.546   6.363   8.191 -1.5249 -1.7011 -0.6425
  863MOL0     H13877   6.600   6.266   8.058  0.0913 -1.2534  1.4598
  863MOL0     H13878   6.311   6.632   7.965  2.1893 -0.7303 -0.6565
  863MOL0     H13879   6.069   6.635   8.043 -0.4184  0.3143  2.6099
  863MOL0     H13880   5.765   6.264   7.980  1.8530 -0.2452  0.7814
  863MOL0     H13881   5.518   6.224   7.945 -0.2776  0.5642 -0.0711
  863MOL0     H13882   5.321   6.206   7.931 -2.5173 -3.6898 -0.8273
  863MOL0     H13883   5.248   6.363   7.996 -0.5363  0.2531 -0.0296
  863MOL0     H13884   5.072   6.188   7.911 -0.2154 -2.8143  0.7854
  863MOL0     H13885   5.056   6.225   8.078 -1.5886  1.9867 -2.7883
  863MOL0     H13886   5.158   6.026   8.151  0.5514  0.4412 -0.0082
  863MOL0     H13887   5.212   5.981   7.988 -1.7507 -0.0341 -3.3223
  863MOL0     H13888   4.961   5.976   7.912 -1.9786  0.4778  0.3239
  863MOL0     H13889   5.009   5.862   8.036 -2.5717  1.6430  1.1975
  863MOL0     H13890   4.876   6.115   8.120 -1.1061 -0.6673  0.7264
  863MOL0     H13891   4.929   5.978   8.215  3.7710 -0.9236 -1.9719
  863MOL0     H13892   4.786   5.827   8.056  1.1492 -0.3941  2.5163
  863MOL0     H13893   4.716   5.981   8.015  0.7945  0.5054 -0.1493
  863MOL0     H13894   4.690   5.818   8.257 -1.2018  0.0355 -1.0415
  863MOL0     H13895   4.701   5.992   8.306 -1.0120  0.3829  0.7601
  863MOL0     H13896   4.517   6.045   8.163 -2.1341 -0.7560  1.3466
  863MOL0     H13897   4.465   5.923   8.282 -0.2753 -0.1331 -0.1337
  863MOL0     H13898   5.445   6.291   8.361  1.2118 -0.2885  1.0330
  863MOL0     H13899   5.711   6.321   8.386 -1.8338 -1.4087  0.6665
  863MOL0     H13900   6.097   6.223   8.155  1.6667 -1.3177  0.5801
  863MOL0     H13901   6.334   6.220   8.121 -0.4918 -0.4877  1.2731
  863MOL0     H13902   8.047   6.165   8.353  1.9906 -0.7259 -1.4203
  863MOL0     H13903   8.259   6.135   8.452  2.0444  1.0442 -1.8694
  863MOL0     H13904   8.445   6.165   8.944 -1.3947  2.1984 -0.6502
  863MOL0     H13905   8.671   6.059   9.034  0.1436 -2.7286 -1.5226
  863MOL0     H13906   8.925   5.997   9.098  1.3986  0.2604  1.1374
  863MOL0     H13907   8.892   6.181   9.090 -0.4194 -0.3913  0.2090
  863MOL0     H13908   9.103   6.206   8.976 -4.2967 -0.6912 -1.1368
  863MOL0     H13909   9.128   6.165   9.135  1.0858  2.5935 -0.9309
  863MOL0     H13910   9.139   5.963   8.896  0.0722 -1.9534  1.2260
  863MOL0     H13911   9.184   5.933   9.067  1.4211 -2.3827 -1.3716
  863MOL0     H13912   9.376   6.056   9.051 -1.7690  0.1253  0.2631
  863MOL0     H13913   9.364   5.951   8.912  1.2563 -0.7748  1.4677
  863MOL0     H13914   9.386   6.343   8.745 -1.5952  0.5236 -1.2551
  863MOL0     H13915   8.870   6.141   8.681  0.0335 -2.8381 -0.4790
  863MOL0     H13916   8.662   6.240   8.582  1.1135  1.4629  0.8637
  864MOL0     O13917   1.846   6.052   8.610 -0.1836  0.6381  0.0208
  864MOL0     C13918   1.832   6.137   8.522 -0.5629  0.2035 -0.3363
  864MOL0     O13919   1.709   6.173   8.454  0.0495  0.6551 -0.2486
  864MOL0     C13920   1.596   6.144   8.533 -0.2436 -0.7205  0.3709
  864MOL0     C13921   1.481   6.112   8.460  0.1135  0.7097 -0.5423
  864MOL0     C13922   1.362   6.079   8.519  0.5176 -0.7818  0.0794
  864MOL0     C13923   1.342   6.083   8.658  0.4781  0.1293 -0.1973
  864MOL0     O13924   1.231   6.035   8.725 -0.0371 -0.6250  0.0902
  864MOL0     C13925   1.097   6.067   8.680 -0.2494 -0.2472  0.1467
  864MOL0     C13926   1.009   6.016   8.794 -0.9453  0.8947  0.3251
  864MOL0     C13927   0.868   6.073   8.787  0.0687 -0.2003 -0.0399
  864MOL0     C13928   0.788   6.043   8.659  0.9350  0.0024 -0.1761
  864MOL0     C13929   0.639   6.035   8.691 -0.2638  0.2619 -0.2021
  864MOL0     C13930   0.587   6.168   8.737 -0.8719 -1.1019 -0.9051
  864MOL0     C13931   0.438   6.152   8.759  0.0225 -0.7872 -0.6259
  864MOL0     C13932   0.370   6.283   8.806 -1.1753  0.1346 -0.4686
  864MOL0     N13933   0.265   6.260   8.900 -0.3044  0.1242 -0.2861
  864MOL0     C13934   0.285   6.248   9.036  0.6452  0.5076 -0.1422
  864MOL0     C13935   0.157   6.226   9.087  0.7335 -0.1428 -0.3390
  864MOL0     C13936   0.104   6.224   9.229 -0.5832  0.3323  0.2287
  864MOL0     C13937   0.108   6.077   9.285  0.2003 -0.5180 -0.6465
  864MOL0     C13938   0.069   6.075   9.434 -0.0133 -0.6565  0.1899
  864MOL0     C13939   0.087   5.929   9.496  0.1974 -0.0489  0.9925
  864MOL0     O13940   0.039   5.930   9.631 -0.5276  0.8954  0.2575
  864MOL0     C13941   0.102   6.015   9.725 -0.1769  0.9044  0.1639
  864MOL0     C13942   0.225   6.072   9.720  0.1071 -0.2339 -0.0991
  864MOL0     C13943   0.285   6.147   9.824  1.1229  0.1221  0.0857
  864MOL0     C13944   0.193   6.174   9.933 -0.8463 -0.0534 -0.7982
  864MOL0     C13945   0.232   6.277  10.031 -0.5090 -0.2244  0.5130
  864MOL0     O13946   0.135   6.351  10.090  0.5035  0.1417  0.3219
  864MOL0     C13947   0.171   6.438  10.190 -0.3430 -0.3243 -0.5428
  864MOL0     C13948   0.157   6.400  10.319  0.2663  0.0569  0.3791
  864MOL0     C13949   0.181   6.486  10.429  0.0903 -0.8397  0.6007
  864MOL0     C13950   0.222   6.621  10.408  0.3354 -0.5231  0.3636
  864MOL0     O13951   0.240   6.702  10.518 -0.6010  0.4153  0.1741
  864MOL0     C13952   0.329   6.820  10.502  0.1052 -0.0767 -0.7613
  864MOL0     C13953   0.345   6.891  10.639  0.6894 -0.2620  0.4275
  864MOL0     C13954   0.250   7.012  10.635  0.6431 -0.1684 -0.5108
  864MOL0     C13955   0.260   7.087  10.770  0.0689  0.3100  0.5075
  864MOL0     C13956   0.149   7.191  10.798 -0.7072 -0.3583 -0.7243
  864MOL0     C13957   0.154   7.307  10.695  0.1068 -0.9406  0.2940
  864MOL0     C13958   0.067   7.415  10.752 -0.4063 -0.7032  0.6349
  864MOL0     C13959   0.021   7.517  10.647  0.4311 -0.8301 -0.2439
  864MOL0    Cl13960  -0.079   7.462  10.517  0.0487  0.0443 -0.1000
  864MOL0     C13961   0.244   6.662  10.272 -0.3741  0.5571  0.5943
  864MOL0     C13962   0.207   6.570  10.165 -0.6353 -0.0460 -0.7975
  864MOL0     O13963   0.350   6.291  10.053 -0.4726  0.6321  0.1403
  864MOL0     C13964   0.075   6.105   9.946  1.2908 -0.2593  0.4026
  864MOL0     C13965   0.025   6.025   9.842 -0.5687 -0.8030  0.7905
  864MOL0     N13966   0.064   6.223   8.986  0.4548  0.4528  0.3524
  864MOL0     N13967   0.131   6.238   8.875  0.2598 -0.6271  0.3661
  864MOL0     C13968   1.457   6.107   8.726 -0.8331 -0.0068  0.0266
  864MOL0     C13969   1.580   6.137   8.672 -0.0121  0.4567 -0.4881
  864MOL0     C13970   1.957   6.183   8.470  0.1397 -0.6057  0.0317
  864MOL0     C13971   1.969   6.236   8.341 -0.0312 -0.7872  0.0892
  864MOL0     C13972   2.084   6.294   8.294  0.1956 -0.1834  0.5081
  864MOL0     C13973   2.195   6.303   8.378  0.1340 -0.0824 -0.4076
  864MOL0     O13974   2.307   6.355   8.332  0.2096  0.3900 -0.2026
  864MOL0     C13975   2.323   6.413   8.202 -0.0063  0.2914 -0.8124
  864MOL0     C13976   2.470   6.430   8.179 -0.7211  0.0941 -0.1272
  864MOL0     C13977   2.532   6.552   8.249  0.6009  0.3137  0.1234
  864MOL0     C13978   2.673   6.560   8.194  0.3085  0.0706  0.3255
  864MOL0     C13979   2.750   6.664   8.261  0.0644  0.0453 -0.1218
  864MOL0     C13980   2.826   6.747   8.298  0.4358  0.2304 -0.1642
  864MOL0     C13981   2.189   6.255   8.510 -0.4811  0.4266 -1.5544
  864MOL0     C13982   2.076   6.187   8.552 -0.1711 -0.2173  0.3369
  864MOL0     H13983   1.495   6.106   8.353 -0.2548 -1.2769 -0.5199
  864MOL0     H13984   1.275   6.046   8.464  0.1110 -2.3968  1.5733
  864MOL0     H13985   1.072   6.011   8.589  1.9372 -0.9807 -0.0475
  864MOL0     H13986   1.097   6.175   8.663  0.5157 -0.1467  0.7381
  864MOL0     H13987   1.057   6.053   8.885 -0.4175  1.6860 -0.2576
  864MOL0     H13988   1.017   5.907   8.801  4.3163  1.0630  0.9570
  864MOL0     H13989   0.868   6.182   8.789 -2.1224 -0.0791 -1.9936
  864MOL0     H13990   0.816   6.025   8.871  0.8258 -2.3658 -0.7315
  864MOL0     H13991   0.797   6.121   8.583  1.4764  0.2900  0.1789
  864MOL0     H13992   0.825   5.946   8.624  1.4190  0.7426 -1.7787
  864MOL0     H13993   0.612   5.961   8.768 -1.4228  1.0485  0.1805
  864MOL0     H13994   0.586   5.999   8.602 -1.1328  0.7205  0.1181
  864MOL0     H13995   0.597   6.249   8.664 -0.6777 -0.8406 -0.5935
  864MOL0     H13996   0.630   6.212   8.828 -0.9221  1.4201 -2.0052
  864MOL0     H13997   0.392   6.127   8.663  1.3439  3.4588 -2.6467
  864MOL0     H13998   0.417   6.076   8.835  0.5801  2.0569  2.6440
  864MOL0     H13999   0.327   6.327   8.716  1.0696  0.3509 -1.4958
  864MOL0     H14000   0.448   6.348   8.846 -0.5165 -2.0019  1.9515
  864MOL0     H14001   0.380   6.251   9.089  0.3799 -0.4423  0.4155
  864MOL0     H14002  -0.002   6.253   9.220 -1.2735 -2.2518 -0.8224
  864MOL0     H14003   0.159   6.288   9.298  0.6455 -0.1577 -0.2677
  864MOL0     H14004   0.213   6.055   9.267  1.5561  2.0742  2.9499
  864MOL0     H14005   0.038   6.017   9.226 -0.9297 -0.4870  0.6173
  864MOL0     H14006   0.138   6.144   9.484 -0.5738  0.1698 -0.1686
  864MOL0     H14007  -0.031   6.115   9.451  1.1818  2.7803  0.0200
  864MOL0     H14008   0.193   5.905   9.481  0.2486  1.5582 -2.0533
  864MOL0     H14009   0.025   5.858   9.442  1.6788  0.6345 -1.8586
  864MOL0     H14010   0.273   6.050   9.625  0.9392 -1.2300  0.5202
  864MOL0     H14011   0.381   6.197   9.816  0.5784  0.8598 -3.1588
  864MOL0     H14012   0.117   6.301  10.342  3.0659 -0.6356  2.8534
  864MOL0     H14013   0.164   6.447  10.528 -0.1754 -0.7135  0.6061
  864MOL0     H14014   0.282   6.882  10.426 -1.3214 -1.2724 -0.8951
  864MOL0     H14015   0.428   6.784  10.473 -0.2326 -0.7415 -1.1112
  864MOL0     H14016   0.449   6.924  10.646  1.0709 -0.0464 -3.6641
  864MOL0     H14017   0.315   6.823  10.719 -0.4106 -1.8191 -1.2357
  864MOL0     H14018   0.149   6.973  10.622  0.2717  1.1887 -2.0351
  864MOL0     H14019   0.283   7.074  10.551  1.4578 -0.2955 -0.2937
  864MOL0     H14020   0.257   7.011  10.849  2.4056 -2.2747 -1.7321
  864MOL0     H14021   0.352   7.145  10.770  0.2529  0.0133 -0.0857
  864MOL0     H14022   0.163   7.232  10.898 -0.7681  0.1659 -0.9256
  864MOL0     H14023   0.051   7.145  10.790  0.6273 -3.2703 -1.5804
  864MOL0     H14024   0.122   7.268  10.598 -1.0853 -0.1299  0.3354
  864MOL0     H14025   0.256   7.344  10.684  0.7631 -3.2939 -4.9438
  864MOL0     H14026  -0.023   7.376  10.801 -2.4371  0.2755 -2.0594
  864MOL0     H14027   0.115   7.475  10.829 -2.3361  1.4148  0.3218
  864MOL0     H14028   0.104   7.574  10.605  0.2663  0.7247  1.4305
  864MOL0     H14029  -0.040   7.592  10.698  3.0640  0.1524  1.6496
  864MOL0     H14030   0.274   6.764  10.253 -0.6008  0.4139 -0.5789
  864MOL0     H14031   0.206   6.614  10.066 -2.3970  0.8947 -0.3924
  864MOL0     H14032   0.009   6.127  10.029 -0.8044 -1.0529 -0.9750
  864MOL0     H14033  -0.071   5.975   9.839 -2.5511  2.6227  1.1193
  864MOL0     H14034   1.459   6.110   8.835 -2.2872  0.4495  0.0617
  864MOL0     H14035   1.665   6.152   8.738  0.0880 -3.2053  0.4502
  864MOL0     H14036   1.883   6.251   8.276 -0.0942 -1.7493 -0.0547
  864MOL0     H14037   2.086   6.331   8.192 -0.4614  3.1337  1.5472
  864MOL0     H14038   2.272   6.510   8.193 -1.9006 -0.7742 -2.2449
  864MOL0     H14039   2.281   6.347   8.126  0.1376 -1.3576  0.4902
  864MOL0     H14040   2.524   6.338   8.205 -1.1488 -0.1720 -0.1847
  864MOL0     H14041   2.484   6.449   8.072 -1.1144  3.8520  0.3625
  864MOL0     H14042   2.533   6.532   8.356  0.8302 -0.0299  0.0630
  864MOL0     H14043   2.472   6.640   8.228  1.1316  0.9187  1.0572
  864MOL0     H14044   2.711   6.462   8.224 -1.8994 -0.8476  0.3555
  864MOL0     H14045   2.676   6.571   8.086  1.0188 -0.3828  0.2975
  864MOL0     H14046   2.882   6.835   8.322  0.8237 -0.3629  1.2350
  864MOL0     H14047   2.272   6.260   8.580 -0.8279  1.4252 -1.1926
  864MOL0     H14048   2.087   6.147   8.653  1.8356 -1.5787 -0.3601
  865MOL0     O14049  10.105   3.405   1.017  0.8164  0.1789 -0.2305
  865MOL0     C14050  10.168   3.417   0.910 -0.0919  0.3735 -0.6197
  865MOL0     O14051  10.119   3.380   0.784  0.3628 -0.7184 -0.1857
  865MOL0     C14052   9.987   3.362   0.747  1.3729 -0.3938 -0.1750
  865MOL0     C14053   9.949   3.266   0.656  0.0993  0.6904 -0.5436
  865MOL0     C14054   9.816   3.248   0.616 -1.7162  0.4655 -0.6048
  865MOL0     C14055   9.711   3.316   0.666 -0.1078  0.0037 -0.3681
  865MOL0     O14056   9.583   3.277   0.628 -0.2414  0.4983 -0.1950
  865MOL0     C14057   9.471   3.377   0.659 -0.3034  0.7118  0.5121
  865MOL0     C14058   9.337   3.322   0.599  0.1100  0.2758 -0.0632
  865MOL0     C14059   9.276   3.219   0.694  0.5124  0.6443 -0.5522
  865MOL0     C14060   9.145   3.157   0.642  0.1051 -0.0923  1.3403
  865MOL0     C14061   9.061   3.111   0.758 -0.0347  0.2099  0.7139
  865MOL0     C14062   8.925   3.058   0.716 -0.5662 -0.6673  0.3207
  865MOL0     C14063   8.835   3.160   0.647  0.6505  0.0718 -0.3953
  865MOL0     C14064   8.687   3.111   0.646 -0.8248  0.1105  1.1050
  865MOL0     N14065   8.605   3.209   0.564 -0.1912  1.1139 -0.5428
  865MOL0     C14066   8.553   3.327   0.610  0.2996  0.2368 -0.1548
  865MOL0     C14067   8.469   3.362   0.513  0.3147  0.9695 -0.3373
  865MOL0     C14068   8.371   3.476   0.518 -0.3189 -0.2324 -0.8282
  865MOL0     C14069   8.224   3.427   0.530  0.6955  0.1556 -0.3279
  865MOL0     C14070   8.127   3.552   0.555  0.1849  0.1018  0.9293
  865MOL0     C14071   7.984   3.508   0.524  0.1888  0.2859 -1.4428
  865MOL0     O14072   7.890   3.545   0.629  0.3376  0.1061 -1.1990
  865MOL0     C14073   7.762   3.569   0.598 -0.3790 -0.8807 -0.5759
  865MOL0     C14074   7.691   3.526   0.485 -0.3649 -0.2878 -0.3319
  865MOL0     C14075   7.556   3.550   0.477  1.2541 -0.1510  0.1627
  865MOL0     C14076   7.482   3.598   0.593 -0.9119 -0.2746 -0.1579
  865MOL0     C14077   7.334   3.624   0.580  0.6454  0.1831  0.8433
  865MOL0     O14078   7.277   3.584   0.457 -0.6414 -0.5674 -0.0188
  865MOL0     C14079   7.138   3.592   0.440 -0.1452  0.2608  0.6349
  865MOL0     C14080   7.076   3.482   0.381  0.2690 -0.4553 -0.3373
  865MOL0     C14081   6.934   3.477   0.376 -0.6607  0.5059 -0.3926
  865MOL0     C14082   6.855   3.588   0.425  0.8000  0.3183 -0.4350
  865MOL0     O14083   6.712   3.573   0.413  0.2731 -0.0818 -0.3074
  865MOL0     C14084   6.632   3.587   0.539  0.8625 -0.4839 -0.0505
  865MOL0     C14085   6.512   3.673   0.503  0.4607 -1.6041 -0.0410
  865MOL0     C14086   6.397   3.631   0.594 -0.1796 -0.6166 -0.7715
  865MOL0     C14087   6.279   3.733   0.576  0.0684 -1.3323 -0.6942
  865MOL0     C14088   6.141   3.686   0.618  0.4366 -0.1471  0.0308
  865MOL0     C14089   6.036   3.800   0.591 -0.6733 -0.3979 -0.2481
  865MOL0     C14090   5.893   3.765   0.617  0.3874  0.0066 -0.4680
  865MOL0     C14091   5.802   3.870   0.680  0.3116  0.0945  0.3662
  865MOL0    Cl14092   5.641   3.803   0.722  0.1733  0.7054 -0.1437
  865MOL0     C14093   6.916   3.696   0.485  0.0950 -0.7598  0.6174
  865MOL0     C14094   7.053   3.698   0.485 -0.6336 -0.7528 -0.3379
  865MOL0     O14095   7.277   3.668   0.677 -0.5951  0.7831 -0.2707
  865MOL0     C14096   7.551   3.632   0.704  0.3344 -0.9923  1.0160
  865MOL0     C14097   7.693   3.614   0.708 -0.6376 -0.0619  0.0263
  865MOL0     N14098   8.478   3.267   0.404  0.1611 -0.1494 -0.5781
  865MOL0     N14099   8.561   3.180   0.439 -0.9735 -0.6459  0.6963
  865MOL0     C14100   9.747   3.410   0.773  0.6439  0.7332  0.2478
  865MOL0     C14101   9.884   3.426   0.818  0.7086 -0.4280  0.6598
  865MOL0     C14102  10.307   3.453   0.936 -0.1912 -0.0868 -0.5036
  865MOL0     C14103  10.340   3.526   1.049 -0.0140 -1.0614 -0.2878
  865MOL0     C14104  10.474   3.577   1.062 -0.4410  0.2602  0.0673
  865MOL0     C14105  10.571   3.570   0.951 -0.0024  0.2424  1.2458
  865MOL0     O14106  10.701   3.615   0.963 -0.6034  0.0617 -0.4573
  865MOL0     C14107  10.754   3.684   0.851  0.3462  0.0415  0.2513
  865MOL0     C14108  10.906   3.716   0.870 -0.5987 -0.2834 -0.1363
  865MOL0     C14109  10.988   3.598   0.840 -0.4018 -0.2328  0.8075
  865MOL0     C14110  11.133   3.621   0.886  0.0669  0.4396  1.1738
  865MOL0     C14111  11.116   3.592   1.033  0.3863 -0.4068  0.3918
  865MOL0     C14112  11.119   3.570   1.153  0.0024 -0.2060  0.7527
  865MOL0     C14113  10.536   3.480   0.849  0.4055 -0.1712 -1.0655
  865MOL0     C14114  10.405   3.434   0.841 -0.1084 -0.0210 -0.4235
  865MOL0     H14115  10.040   3.222   0.616  1.1355 -0.7254  3.0540
  865MOL0     H14116   9.801   3.172   0.540 -0.3316  0.2847 -0.7339
  865MOL0     H14117   9.503   3.469   0.608  2.5117  0.4935  1.6769
  865MOL0     H14118   9.445   3.386   0.765 -2.1837  0.8635  0.0718
  865MOL0     H14119   9.360   3.276   0.503  0.7239 -2.6873  1.3908
  865MOL0     H14120   9.259   3.398   0.585 -0.1298  0.4417  1.9241
  865MOL0     H14121   9.245   3.266   0.788 -0.7374  1.1248 -1.1789
  865MOL0     H14122   9.344   3.138   0.720 -1.1727 -0.5873  0.1911
  865MOL0     H14123   9.093   3.232   0.582 -1.4581  0.1530  2.9052
  865MOL0     H14124   9.165   3.072   0.577  2.8874 -0.6299  2.7428
  865MOL0     H14125   9.052   3.192   0.832 -0.0083  1.5572 -0.7043
  865MOL0     H14126   9.126   3.034   0.799  2.2047  0.1263 -2.6137
  865MOL0     H14127   8.869   3.009   0.796  0.4140 -1.6366  0.4410
  865MOL0     H14128   8.954   2.974   0.652  2.1030  0.2887  0.1199
  865MOL0     H14129   8.848   3.253   0.702  3.5891 -2.3451  3.4773
  865MOL0     H14130   8.859   3.170   0.541  0.2532  2.2896 -0.3197
  865MOL0     H14131   8.661   3.110   0.753  2.2120 -2.4246  1.9760
  865MOL0     H14132   8.681   3.010   0.605 -0.1469 -0.4035  2.2218
  865MOL0     H14133   8.556   3.363   0.712  2.5048 -0.2427  0.0098
  865MOL0     H14134   8.381   3.528   0.422  0.5204  2.4301  0.5937
  865MOL0     H14135   8.392   3.547   0.599 -1.9969 -0.1672 -0.4263
  865MOL0     H14136   8.219   3.362   0.617 -1.2013  1.8798  0.9533
  865MOL0     H14137   8.214   3.369   0.438  1.1509 -1.2656  0.4835
  865MOL0     H14138   8.149   3.586   0.656  2.8771  0.5570  0.2538
  865MOL0     H14139   8.159   3.636   0.492  1.6068  0.1704  1.6990
  865MOL0     H14140   7.969   3.400   0.517  0.3494 -0.1591  2.4885
  865MOL0     H14141   7.947   3.566   0.440 -2.0179  2.6480  0.9616
  865MOL0     H14142   7.746   3.487   0.400  1.1413 -0.2585  0.5994
  865MOL0     H14143   7.512   3.525   0.381  0.6993 -2.8689  1.0263
  865MOL0     H14144   7.136   3.394   0.359  1.7952  0.0964  1.3497
  865MOL0     H14145   6.889   3.392   0.325 -1.1664 -0.2514  1.2575
  865MOL0     H14146   6.702   3.605   0.622  0.4300 -4.5033  1.4064
  865MOL0     H14147   6.597   3.485   0.556  1.9155 -0.8063  0.2592
  865MOL0     H14148   6.491   3.656   0.397  0.7826  0.8178 -0.5576
  865MOL0     H14149   6.529   3.780   0.514  3.5581 -1.8558 -1.2170
  865MOL0     H14150   6.424   3.621   0.699  1.1489 -1.6522 -1.1855
  865MOL0     H14151   6.375   3.527   0.566 -1.4149 -0.3158 -0.9992
  865MOL0     H14152   6.299   3.823   0.633 -0.0694 -1.2739 -0.7374
  865MOL0     H14153   6.275   3.757   0.469  0.0775  0.1960 -0.3664
  865MOL0     H14154   6.144   3.669   0.726 -2.4869 -0.3311  0.1776
  865MOL0     H14155   6.117   3.592   0.567 -0.6274  0.2976 -0.3244
  865MOL0     H14156   6.053   3.845   0.492 -0.4461  0.5802  0.2281
  865MOL0     H14157   6.049   3.879   0.665  1.5235 -0.0883 -0.8997
  865MOL0     H14158   5.855   3.751   0.515  1.8323 -1.8208 -0.8014
  865MOL0     H14159   5.881   3.666   0.664 -2.8531 -0.7561 -2.5332
  865MOL0     H14160   5.785   3.960   0.621  0.3755  0.9329  1.5869
  865MOL0     H14161   5.855   3.911   0.767  2.8269 -0.9694 -0.5969
  865MOL0     H14162   6.868   3.786   0.520  0.0055 -0.2723 -0.7256
  865MOL0     H14163   7.099   3.782   0.535  0.8791 -0.3603 -2.2466
  865MOL0     H14164   7.492   3.672   0.786  0.3700  0.8908  0.1887
  865MOL0     H14165   7.750   3.635   0.797 -1.8049 -0.5105  0.9130
  865MOL0     H14166   9.660   3.453   0.820 -0.6692 -0.1313 -1.2791
  865MOL0     H14167   9.901   3.498   0.897 -0.1705  0.5595 -0.0313
  865MOL0     H14168  10.260   3.547   1.120  2.1449  2.6717  1.3295
  865MOL0     H14169  10.498   3.641   1.147 -0.4809  1.3903 -0.7555
  865MOL0     H14170  10.706   3.780   0.832 -2.2303 -0.6598  2.6419
  865MOL0     H14171  10.746   3.623   0.761  0.3538 -0.4413  0.5751
  865MOL0     H14172  10.934   3.801   0.808 -0.7707 -1.6063 -2.1075
  865MOL0     H14173  10.921   3.748   0.974 -2.8308  1.2357 -0.2038
  865MOL0     H14174  10.983   3.566   0.735  2.7178  0.7716  0.2554
  865MOL0     H14175  10.934   3.517   0.890 -0.1198  0.1854  1.8026
  865MOL0     H14176  11.200   3.552   0.834  3.3090  3.4753  0.9553
  865MOL0     H14177  11.168   3.722   0.863 -1.2033  0.5560 -0.4165
  865MOL0     H14178  11.125   3.542   1.256  1.0743 -0.8522  0.5234
  865MOL0     H14179  10.610   3.442   0.780 -0.5060 -3.0446 -0.6061
  865MOL0     H14180  10.373   3.365   0.763 -1.8201 -0.4410  0.6006
  866MOL0     O14181   8.182   1.974   2.965  0.6353  0.1034  0.0189
  866MOL0     C14182   8.285   1.918   2.996 -0.4171  0.2343  0.1265
  866MOL0     O14183   8.303   1.786   3.019 -0.5598  0.2442 -0.2118
  866MOL0     C14184   8.202   1.690   2.999 -0.4216  0.0506 -0.9330
  866MOL0     C14185   8.226   1.560   3.047  0.6708 -0.7734  0.2967
  866MOL0     C14186   8.137   1.455   3.005  0.4374  0.2421 -0.4282
  866MOL0     C14187   8.020   1.478   2.929  0.7193  0.3122 -0.2370
  866MOL0     O14188   7.927   1.376   2.906  0.3213  0.3371  0.1423
  866MOL0     C14189   7.811   1.392   2.813 -0.3894  0.1666 -0.0427
  866MOL0     C14190   7.731   1.258   2.803  0.0571 -0.0621 -0.4125
  866MOL0     C14191   7.599   1.280   2.717 -0.5204  0.9215  0.1731
  866MOL0     C14192   7.497   1.170   2.755 -0.0669  0.2453  0.3863
  866MOL0     C14193   7.365   1.193   2.671 -0.1327  0.3008 -0.5068
  866MOL0     C14194   7.295   1.054   2.653 -0.7456 -0.6050  0.4673
  866MOL0     C14195   7.162   1.082   2.597 -0.3018 -0.2826  0.8856
  866MOL0     C14196   7.094   0.952   2.568  0.1473  0.6749 -0.0610
  866MOL0     N14197   6.967   0.972   2.505 -0.4276 -0.1733  0.2548
  866MOL0     C14198   6.952   1.000   2.374  0.0842 -0.3740  0.1596
  866MOL0     C14199   6.824   1.043   2.360 -0.1627  0.7797 -0.0943
  866MOL0     C14200   6.749   1.082   2.228  0.6175 -0.0066 -0.4780
  866MOL0     C14201   6.592   1.076   2.230  0.3827  0.2404  0.1987
  866MOL0     C14202   6.518   1.098   2.093  0.9547 -0.3823  0.3312
  866MOL0     C14203   6.362   1.100   2.101 -0.1818 -0.3077  0.8277
  866MOL0     O14204   6.317   0.960   2.080  0.3764  0.2654  0.1606
  866MOL0     C14205   6.186   0.947   2.030 -0.1587  0.6109  0.4606
  866MOL0     C14206   6.148   0.827   1.981 -0.1174  0.7197 -0.6763
  866MOL0     C14207   6.023   0.806   1.916  0.2260  0.0401  0.3589
  866MOL0     C14208   5.929   0.906   1.909 -0.2049 -0.2324 -0.0368
  866MOL0     C14209   5.794   0.884   1.860 -0.5362 -0.0685 -0.4947
  866MOL0     O14210   5.691   0.967   1.914  0.0077 -0.1896  0.4082
  866MOL0     C14211   5.566   0.953   1.855 -0.3659  0.0954  0.1464
  866MOL0     C14212   5.501   0.830   1.837  0.0815  0.1484 -0.4828
  866MOL0     C14213   5.373   0.825   1.775 -0.9770 -1.1396 -0.2959
  866MOL0     C14214   5.300   0.941   1.750  0.8725 -0.0857 -0.7129
  866MOL0     O14215   5.165   0.927   1.704 -0.6124 -0.5546  0.1299
  866MOL0     C14216   5.120   1.029   1.615  0.4428 -0.1004  0.1679
  866MOL0     C14217   4.978   0.991   1.562  0.2206  0.4954 -0.1100
  866MOL0     C14218   4.972   0.851   1.495  0.0352  0.5675 -0.0108
  866MOL0     C14219   4.830   0.789   1.492  0.2205 -0.3165 -0.0816
  866MOL0     C14220   4.734   0.863   1.403  0.1503 -0.0006  0.1637
  866MOL0     C14221   4.601   0.784   1.398  0.4596  0.3448  0.3321
  866MOL0     C14222   4.494   0.846   1.313 -0.7456  0.1156  0.3204
  866MOL0     C14223   4.442   0.986   1.371  0.3574  0.0709  0.2723
  866MOL0    Cl14224   4.262   0.992   1.329 -0.5002  0.1397 -0.1192
  866MOL0     C14225   5.366   1.069   1.776  0.5854 -0.2443  0.8893
  866MOL0     C14226   5.505   1.077   1.830  0.5754  0.3615 -0.1164
  866MOL0     O14227   5.782   0.800   1.775 -0.3307 -0.0097 -0.5050
  866MOL0     C14228   5.960   1.027   1.972  0.0684 -0.1744 -0.0252
  866MOL0     C14229   6.082   1.038   2.036 -0.0997  0.3025  0.6825
  866MOL0     N14230   6.765   1.026   2.486  0.0856 -0.5100 -0.3130
  866MOL0     N14231   6.854   0.994   2.570 -0.5151  0.5634 -0.6233
  866MOL0     C14232   7.999   1.614   2.892 -0.2151  0.3687  0.3666
  866MOL0     C14233   8.089   1.710   2.921  0.4337  0.1467  0.1570
  866MOL0     C14234   8.392   2.004   3.019 -0.1416  0.0975 -0.3653
  866MOL0     C14235   8.385   2.125   3.082  0.1869 -0.0275 -0.0169
  866MOL0     C14236   8.495   2.197   3.114  0.7785 -0.2447 -0.0114
  866MOL0     C14237   8.619   2.154   3.077  0.1596  0.1099  0.1026
  866MOL0     O14238   8.716   2.242   3.108  0.8101 -0.2417 -0.1192
  866MOL0     C14239   8.832   2.259   3.011 -0.2612 -0.2687 -0.4213
  866MOL0     C14240   8.955   2.184   3.061  0.6195  0.2766 -0.2827
  866MOL0     C14241   9.056   2.173   2.942  0.5442  0.6181 -0.7807
  866MOL0     C14242   9.197   2.147   2.981 -0.3954  1.0561 -0.4168
  866MOL0     C14243   9.292   2.133   2.865  0.2998  0.3215  0.7762
  866MOL0     C14244   9.353   2.118   2.765  0.3377 -0.5480  1.1122
  866MOL0     C14245   8.638   2.035   3.010 -0.1227  1.0920  0.6359
  866MOL0     C14246   8.521   1.954   2.991  0.4980 -0.2472 -0.4768
  866MOL0     H14247   8.314   1.536   3.107  0.8003 -2.0374 -0.3749
  866MOL0     H14248   8.151   1.360   3.056 -0.3072  0.8631  1.0087
  866MOL0     H14249   7.845   1.418   2.712  0.9605 -0.1296  0.3067
  866MOL0     H14250   7.742   1.471   2.842  0.3767 -0.1329  3.0196
  866MOL0     H14251   7.711   1.220   2.904  1.8926  1.4925  0.5759
  866MOL0     H14252   7.788   1.187   2.742 -0.8080 -0.4594 -0.7758
  866MOL0     H14253   7.630   1.278   2.612 -0.7396 -2.6240  0.0600
  866MOL0     H14254   7.557   1.381   2.727 -2.0940  0.3576 -0.3079
  866MOL0     H14255   7.549   1.074   2.746 -1.1399 -0.1603 -2.5923
  866MOL0     H14256   7.474   1.174   2.862  2.8290 -1.1643  1.1648
  866MOL0     H14257   7.383   1.236   2.572  1.0940 -0.4869 -0.6494
  866MOL0     H14258   7.308   1.269   2.725 -0.5427 -1.0282  0.9872
  866MOL0     H14259   7.274   1.006   2.748 -0.8907 -2.5077 -0.4798
  866MOL0     H14260   7.349   0.984   2.589 -1.5091  1.1499 -2.2712
  866MOL0     H14261   7.108   1.128   2.680  0.3545  1.4126  0.4033
  866MOL0     H14262   7.160   1.139   2.504 -2.2214 -0.5909  0.6998
  866MOL0     H14263   7.070   0.892   2.657  3.0290 -0.1171  0.3032
  866MOL0     H14264   7.165   0.892   2.509  0.4159 -0.0784  0.9918
  866MOL0     H14265   7.029   0.991   2.298  1.0174 -0.9930  1.1466
  866MOL0     H14266   6.777   1.007   2.154  0.2638 -0.2936 -0.3274
  866MOL0     H14267   6.776   1.180   2.186 -0.9742  0.5177 -0.3509
  866MOL0     H14268   6.553   1.146   2.303 -0.0403 -1.2192  1.4233
  866MOL0     H14269   6.576   0.976   2.271  1.5547 -0.1313 -0.1825
  866MOL0     H14270   6.545   1.198   2.058 -2.5966  0.3749 -0.6729
  866MOL0     H14271   6.543   1.017   2.024  0.9062 -0.7811  0.7734
  866MOL0     H14272   6.323   1.150   2.012 -1.4337 -0.3826  1.3038
  866MOL0     H14273   6.330   1.142   2.197  0.2350 -2.4765  1.9902
  866MOL0     H14274   6.233   0.760   1.971  0.2934  1.3762 -1.8281
  866MOL0     H14275   6.010   0.706   1.877  0.6885 -1.1993  3.1422
  866MOL0     H14276   5.549   0.739   1.869 -2.3483  0.4096  5.2307
  866MOL0     H14277   5.331   0.729   1.748 -0.4676 -1.6447  0.6637
  866MOL0     H14278   5.186   1.021   1.528  0.6090 -2.6021  0.4651
  866MOL0     H14279   5.108   1.127   1.662 -0.1591  0.5065 -1.2104
  866MOL0     H14280   4.951   1.068   1.489  3.7029  1.3971 -0.6279
  866MOL0     H14281   4.915   0.990   1.651 -0.0397  1.4587 -0.2715
  866MOL0     H14282   5.017   0.786   1.570  0.4717  0.2843 -0.5149
  866MOL0     H14283   5.018   0.842   1.396 -0.8130  1.3926 -0.5039
  866MOL0     H14284   4.845   0.685   1.461 -0.0290 -0.5813  0.6613
  866MOL0     H14285   4.779   0.771   1.587 -0.1404 -1.2087 -0.4383
  866MOL0     H14286   4.783   0.875   1.306  1.8601  0.8205  1.0841
  866MOL0     H14287   4.710   0.963   1.441 -0.1935 -0.2629  0.6604
  866MOL0     H14288   4.565   0.775   1.501 -0.2216  3.5424  0.4633
  866MOL0     H14289   4.621   0.681   1.366  0.7696 -0.1071  1.9026
  866MOL0     H14290   4.531   0.856   1.210  0.2853 -0.0979  0.6577
  866MOL0     H14291   4.419   0.767   1.315 -3.6315  2.5924 -1.2293
  866MOL0     H14292   4.497   1.066   1.322  3.2114 -0.1699  2.7453
  866MOL0     H14293   4.457   0.988   1.480  0.2418  0.3589  0.2827
  866MOL0     H14294   5.306   1.157   1.757 -2.9100 -2.8336 -1.3938
  866MOL0     H14295   5.561   1.168   1.843  0.6585  0.2651  0.2152
  866MOL0     H14296   5.891   1.110   1.986  1.6390  0.8574  2.0727
  866MOL0     H14297   6.104   1.128   2.094 -1.2909  0.9467  0.1932
  866MOL0     H14298   7.913   1.632   2.829  0.3455  0.6583 -0.3369
  866MOL0     H14299   8.061   1.799   2.865 -0.7409 -0.6526 -0.5654
  866MOL0     H14300   8.290   2.169   3.110  1.1479  1.5611  0.8724
  866MOL0     H14301   8.481   2.292   3.166  1.2870 -0.3921  0.4020
  866MOL0     H14302   8.854   2.365   2.993 -1.1311 -0.2272 -1.3498
  866MOL0     H14303   8.801   2.228   2.910  0.7212  1.3031 -1.2508
  866MOL0     H14304   8.987   2.233   3.153 -1.8202 -0.0175  0.8024
  866MOL0     H14305   8.930   2.081   3.089 -1.5910  0.9251  0.2993
  866MOL0     H14306   9.045   2.261   2.877 -1.1117  0.8894 -0.1861
  866MOL0     H14307   9.017   2.100   2.871  1.3586  0.5727 -1.1933
  866MOL0     H14308   9.236   2.229   3.042 -0.4106  0.3752  0.5424
  866MOL0     H14309   9.203   2.052   3.036 -1.1069  0.3351 -1.5458
  866MOL0     H14310   9.412   2.087   2.681 -0.2240 -0.3415  0.6344
  866MOL0     H14311   8.738   2.009   2.975 -1.1778 -1.1903 -0.9353
  866MOL0     H14312   8.543   1.853   2.958  2.4597  0.1587 -0.5560
  867MOL0     O14313   4.109   7.680   9.701  0.4921  0.4342  0.5439
  867MOL0     C14314   4.181   7.722   9.606  1.6698 -0.2595  0.6109
  867MOL0     O14315   4.139   7.765   9.487 -0.3072  0.0738  0.4096
  867MOL0     C14316   4.013   7.734   9.453 -0.8308 -0.0354  0.3654
  867MOL0     C14317   3.998   7.681   9.328  0.3023 -0.3071 -0.4330
  867MOL0     C14318   3.871   7.657   9.276  0.1335  0.6163  0.2253
  867MOL0     C14319   3.755   7.669   9.359  0.0766 -0.1217  0.0164
  867MOL0     O14320   3.631   7.634   9.314  0.7638 -0.1872  0.0990
  867MOL0     C14321   3.627   7.498   9.271 -0.7519 -0.3446  0.5557
  867MOL0     C14322   3.485   7.443   9.303 -0.1840 -0.1238  0.2227
  867MOL0     C14323   3.459   7.405   9.446 -0.9547  0.5040 -0.0465
  867MOL0     C14324   3.319   7.344   9.461 -0.3034 -0.4443  1.0123
  867MOL0     C14325   3.285   7.345   9.606  0.7368 -0.2424  0.2362
  867MOL0     C14326   3.152   7.273   9.628  0.6560  0.2611  0.0278
  867MOL0     C14327   3.156   7.169   9.741  0.9490 -0.5115 -0.0372
  867MOL0     C14328   3.026   7.095   9.766 -0.4861  0.4761  0.1847
  867MOL0     N14329   3.049   6.998   9.873  0.9807  0.4176  0.3190
  867MOL0     C14330   3.146   6.901   9.880 -0.2638 -0.4224  0.2207
  867MOL0     C14331   3.150   6.857  10.006 -1.1001 -0.0952 -0.9679
  867MOL0     C14332   3.243   6.766  10.081  0.1640  0.7448  0.6148
  867MOL0     C14333   3.385   6.818  10.087 -0.4569 -0.0133 -0.3275
  867MOL0     C14334   3.407   6.931  10.198 -0.1080 -0.2820  0.4148
  867MOL0     C14335   3.539   7.012  10.194  0.1581  0.1075  0.0009
  867MOL0     O14336   3.544   7.099  10.306 -0.0505  0.0211  0.4386
  867MOL0     C14337   3.672   7.136  10.356  0.0416  1.0526  0.4866
  867MOL0     C14338   3.778   7.140  10.268 -0.3366 -0.0220  0.3837
  867MOL0     C14339   3.906   7.173  10.322 -0.3118  0.1338  0.2500
  867MOL0     C14340   3.933   7.201  10.454 -0.0201  0.4825  0.2752
  867MOL0     C14341   4.069   7.235  10.517  0.6337 -1.2383  0.1071
  867MOL0     O14342   4.086   7.204  10.650 -0.1339 -0.6997  0.0920
  867MOL0     C14343   4.208   7.236  10.705 -0.6403  0.1376 -0.2368
  867MOL0     C14344   4.270   7.135  10.784  0.6401 -0.3587 -0.0690
  867MOL0     C14345   4.394   7.154  10.846 -0.8427  0.3694  0.1628
  867MOL0     C14346   4.473   7.271  10.824  0.2451 -0.4748  0.4774
  867MOL0     O14347   4.596   7.297  10.871  0.2087  0.2527 -0.2692
  867MOL0     C14348   4.690   7.192  10.846 -0.1045  0.1798  0.0014
  867MOL0     C14349   4.830   7.215  10.900  0.2938 -0.0338 -0.4642
  867MOL0     C14350   4.930   7.110  10.842 -0.8992 -0.5379 -0.3243
  867MOL0     C14351   5.080   7.129  10.887 -0.1713  0.4206  0.0539
  867MOL0     C14352   5.162   6.999  10.865 -0.2321  1.2738 -0.0315
  867MOL0     C14353   5.314   7.020  10.881 -0.0752 -0.7647  0.7536
  867MOL0     C14354   5.345   7.057  11.035 -0.4354 -0.9657  0.1544
  867MOL0     C14355   5.495   7.057  11.073  0.4271 -0.0134  0.1233
  867MOL0    Cl14356   5.569   7.170  10.944  0.0002  0.2018 -0.3270
  867MOL0     C14357   4.406   7.370  10.757  0.1207 -0.3212 -0.5239
  867MOL0     C14358   4.274   7.363  10.705 -0.1715  0.4165 -0.5530
  867MOL0     O14359   4.151   7.295  10.447 -0.0575  0.3658 -0.2306
  867MOL0     C14360   3.821   7.199  10.541 -0.4578 -0.2142 -0.0523
  867MOL0     C14361   3.689   7.167  10.492 -0.6875 -0.3326 -0.5427
  867MOL0     N14362   3.051   6.929  10.076  0.4590  0.5956 -0.2684
  867MOL0     N14363   2.987   7.004   9.993  0.4640 -0.0720  0.1827
  867MOL0     C14364   3.770   7.728   9.480  0.5369  0.3915  0.4439
  867MOL0     C14365   3.899   7.760   9.531  0.0440 -0.7781 -0.8908
  867MOL0     C14366   4.325   7.710   9.609  0.0525  0.5417  0.0238
  867MOL0     C14367   4.416   7.746   9.514 -0.3117  0.2931  1.1972
  867MOL0     C14368   4.557   7.745   9.530  0.3352  0.2284 -0.3124
  867MOL0     C14369   4.613   7.704   9.650 -0.1828 -0.0089 -0.0879
  867MOL0     O14370   4.747   7.706   9.670 -0.4025  0.4576  0.0802
  867MOL0     C14371   4.798   7.689   9.807 -0.4228 -0.2321  0.6157
  867MOL0     C14372   4.927   7.775   9.818 -0.1329 -0.4916 -0.6518
  867MOL0     C14373   4.994   7.752   9.962 -0.2307 -0.7175  0.1338
  867MOL0     C14374   5.008   7.881  10.044 -0.2674  0.3290 -0.6888
  867MOL0     C14375   5.115   7.971  10.013  0.6454  0.1069  0.4721
  867MOL0     C14376   5.204   8.053   9.977 -0.1307  0.4412 -0.4586
  867MOL0     C14377   4.521   7.652   9.747 -0.5069 -0.0605  0.1080
  867MOL0     C14378   4.378   7.657   9.731 -0.0776 -0.1943 -0.5243
  867MOL0     H14379   4.087   7.678   9.265  0.9406 -0.6555  0.4607
  867MOL0     H14380   3.850   7.623   9.175 -0.4692  0.3120  0.4460
  867MOL0     H14381   3.702   7.438   9.324 -0.4807  0.2404  0.8453
  867MOL0     H14382   3.636   7.490   9.162  0.9981  0.4225  0.6105
  867MOL0     H14383   3.470   7.356   9.238  0.3311 -1.5204  1.9031
  867MOL0     H14384   3.406   7.514   9.278  1.5434  2.4936  1.6568
  867MOL0     H14385   3.461   7.499   9.503 -3.0551 -0.1523  1.2509
  867MOL0     H14386   3.525   7.333   9.495 -2.5680 -1.5001 -0.6921
  867MOL0     H14387   3.247   7.411   9.412 -0.5064 -1.3898 -0.0261
  867MOL0     H14388   3.306   7.243   9.421 -1.5061  0.4894 -1.1743
  867MOL0     H14389   3.287   7.452   9.630  0.6317  0.8226 -3.7747
  867MOL0     H14390   3.362   7.282   9.651  2.1731  0.9814 -0.4311
  867MOL0     H14391   3.096   7.228   9.546 -0.5294 -1.7024  1.7907
  867MOL0     H14392   3.088   7.355   9.663  0.5058 -0.3512  1.2384
  867MOL0     H14393   3.234   7.098   9.712 -0.2142 -1.2513 -1.4209
  867MOL0     H14394   3.183   7.226   9.831 -3.1988  1.7722 -0.0174
  867MOL0     H14395   2.996   7.042   9.676 -0.6408 -0.9625  1.0627
  867MOL0     H14396   2.948   7.166   9.794 -1.3607 -0.6177  0.5539
  867MOL0     H14397   3.215   6.875   9.800 -0.2730  0.3594 -0.0575
  867MOL0     H14398   3.246   6.671  10.026 -1.1817  1.1714 -0.2614
  867MOL0     H14399   3.216   6.751  10.185 -0.7603  3.0884  0.7536
  867MOL0     H14400   3.407   6.864   9.990 -1.5670  0.2443 -0.4653
  867MOL0     H14401   3.460   6.739  10.100 -2.3070 -2.0101 -1.2014
  867MOL0     H14402   3.327   7.003  10.181  1.7391  1.1968 -3.3771
  867MOL0     H14403   3.406   6.881  10.295  0.2158 -0.0383  0.5458
  867MOL0     H14404   3.548   7.053  10.093  0.1191 -0.6944 -0.3408
  867MOL0     H14405   3.622   6.942  10.206  1.7222  1.6601 -1.4266
  867MOL0     H14406   3.781   7.124  10.161  1.7346 -1.3144  0.5841
  867MOL0     H14407   3.991   7.186  10.255 -0.3611 -0.7919  0.0010
  867MOL0     H14408   4.228   7.036  10.799  1.2617 -0.5177  0.7113
  867MOL0     H14409   4.420   7.074  10.914  0.8007  0.0597 -0.7631
  867MOL0     H14410   4.696   7.180  10.738 -2.1958  0.2002 -0.1640
  867MOL0     H14411   4.641   7.105  10.892 -2.8601  1.8822  0.4803
  867MOL0     H14412   4.831   7.233  11.008 -0.1549 -0.4384 -0.3858
  867MOL0     H14413   4.861   7.312  10.859  0.3274 -0.5145 -1.6183
  867MOL0     H14414   4.918   7.104  10.734 -4.6428 -0.6092 -0.0411
  867MOL0     H14415   4.914   7.006  10.874  0.2219 -1.3946 -2.3625
  867MOL0     H14416   5.126   7.215  10.838 -2.7443  1.8910  0.0420
  867MOL0     H14417   5.077   7.144  10.995 -3.9750  3.4256 -0.2588
  867MOL0     H14418   5.141   6.961  10.765 -0.8333 -1.7095  1.1173
  867MOL0     H14419   5.125   6.916  10.927 -2.0001  1.4701 -0.7468
  867MOL0     H14420   5.330   7.103  10.812 -0.7416 -1.5218 -0.3394
  867MOL0     H14421   5.365   6.931  10.844 -1.5812 -1.8392  1.1307
  867MOL0     H14422   5.299   7.156  11.048 -0.6968 -0.5299 -3.3003
  867MOL0     H14423   5.297   6.989  11.106  0.2917  0.5674  2.2027
  867MOL0     H14424   5.538   6.957  11.072 -2.1055 -1.2250 -2.5368
  867MOL0     H14425   5.510   7.099  11.173 -1.4295  0.5590  0.1926
  867MOL0     H14426   4.462   7.463  10.758 -0.9843  0.3701  0.6147
  867MOL0     H14427   4.229   7.446  10.650  0.8592  2.2626  1.2405
  867MOL0     H14428   3.832   7.209  10.648  1.1178 -1.3242 -0.0775
  867MOL0     H14429   3.611   7.167  10.568 -0.8412  1.2896 -0.6722
  867MOL0     H14430   3.676   7.754   9.526  0.2056 -0.3324  0.2080
  867MOL0     H14431   3.911   7.821   9.620 -1.0766  1.4543 -2.1779
  867MOL0     H14432   4.384   7.785   9.418  0.0842  0.3268  1.0744
  867MOL0     H14433   4.629   7.756   9.449 -0.3917 -1.0751 -1.1695
  867MOL0     H14434   4.821   7.583   9.819  0.0605  0.0403  2.4161
  867MOL0     H14435   4.728   7.725   9.883  0.6410  2.1347  0.5795
  867MOL0     H14436   4.996   7.738   9.742 -0.0051 -0.8692 -0.3555
  867MOL0     H14437   4.894   7.879   9.803 -1.8429 -1.1111 -1.4033
  867MOL0     H14438   5.091   7.705   9.945  0.5807  1.3333 -1.2814
  867MOL0     H14439   4.947   7.670  10.017 -0.5871 -0.7183 -0.1655
  867MOL0     H14440   4.910   7.928  10.043 -1.2375 -1.5894 -1.1068
  867MOL0     H14441   5.032   7.858  10.148  3.3511 -0.2659 -1.4982
  867MOL0     H14442   5.269   8.112   9.916 -1.1363 -1.4625 -3.6506
  867MOL0     H14443   4.553   7.605   9.840 -2.0425 -2.8244 -0.6356
  867MOL0     H14444   4.303   7.621   9.800 -0.5667 -0.9131 -1.3993
  868MOL0     O14445   8.175   3.842   1.655  0.2155  0.4754 -0.1236
  868MOL0     C14446   8.161   3.777   1.758 -0.8245 -0.0310 -0.6695
  868MOL0     O14447   8.051   3.706   1.797 -0.0854  0.0113 -0.3872
  868MOL0     C14448   7.934   3.731   1.725  1.3728  0.2077  0.4988
  868MOL0     C14449   7.869   3.853   1.760 -0.2477 -0.0254  0.0128
  868MOL0     C14450   7.765   3.892   1.684  0.2502  0.6142  0.5102
  868MOL0     C14451   7.723   3.809   1.575  0.2424 -0.2483 -0.5613
  868MOL0     O14452   7.599   3.830   1.506 -0.6782  0.5522  0.0961
  868MOL0     C14453   7.493   3.910   1.569 -0.3309 -0.1777  0.4018
  868MOL0     C14454   7.397   3.920   1.463  0.1663 -0.2727  0.4667
  868MOL0     C14455   7.262   3.973   1.519 -0.8614  0.0898 -0.0288
  868MOL0     C14456   7.158   3.971   1.401  0.1534  0.8390  0.1510
  868MOL0     C14457   7.017   4.036   1.438  0.5026 -0.4202  0.0139
  868MOL0     C14458   6.905   4.014   1.335 -0.1429 -0.2615  0.4736
  868MOL0     C14459   6.822   3.883   1.364  0.2971  0.7764  1.0055
  868MOL0     C14460   6.723   3.854   1.254  0.1782  0.4454 -0.6223
  868MOL0     N14461   6.642   3.975   1.234 -0.3764  0.0957  0.0076
  868MOL0     C14462   6.534   4.006   1.307 -0.0374  0.3483 -0.2293
  868MOL0     C14463   6.473   4.106   1.239  0.4219 -0.2617  1.2092
  868MOL0     C14464   6.358   4.185   1.283  0.4723 -0.2243  0.2118
  868MOL0     C14465   6.226   4.102   1.282  0.1084 -1.0052  0.0514
  868MOL0     C14466   6.101   4.185   1.254  0.0914 -0.0540 -0.0537
  868MOL0     C14467   6.057   4.264   1.378 -0.2041 -0.3448 -0.9382
  868MOL0     O14468   5.919   4.300   1.370 -0.4322  0.8318 -0.0903
  868MOL0     C14469   5.812   4.222   1.414 -0.7091  0.2174  0.2135
  868MOL0     C14470   5.806   4.081   1.443 -0.9674 -0.3135  0.0656
  868MOL0     C14471   5.688   4.017   1.488 -0.0985 -0.3394 -0.2458
  868MOL0     C14472   5.568   4.083   1.497  0.1288  0.4138  0.6438
  868MOL0     C14473   5.441   4.005   1.509  0.2346 -0.4243  0.4764
  868MOL0     O14474   5.451   3.871   1.522 -0.8175 -0.5624  0.0488
  868MOL0     C14475   5.337   3.802   1.542  0.1361  0.7048 -0.9967
  868MOL0     C14476   5.329   3.722   1.657  0.4673  0.5462  0.4870
  868MOL0     C14477   5.218   3.650   1.681  0.7335  0.3988 -0.8497
  868MOL0     C14478   5.105   3.646   1.593  0.0430  0.0114 -0.3444
  868MOL0     O14479   4.994   3.568   1.606  0.6412 -0.3282  0.3197
  868MOL0     C14480   4.987   3.473   1.717 -0.2078  0.2726 -0.0500
  868MOL0     C14481   4.860   3.382   1.708  1.0058  1.1980 -0.2564
  868MOL0     C14482   4.715   3.452   1.717 -0.2496  0.1493  0.6120
  868MOL0     C14483   4.679   3.514   1.847 -0.0132 -0.7227  0.0010
  868MOL0     C14484   4.554   3.596   1.829  0.0577  0.1210 -0.3465
  868MOL0     C14485   4.527   3.671   1.958 -1.1146 -0.3988  0.2679
  868MOL0     C14486   4.398   3.758   1.938 -0.5629  0.3656 -0.9102
  868MOL0     C14487   4.349   3.802   2.071  0.4339  0.4035  0.0769
  868MOL0    Cl14488   4.467   3.913   2.140 -0.0785  0.2833  0.7598
  868MOL0     C14489   5.110   3.722   1.475  0.0191 -0.5151 -0.3373
  868MOL0     C14490   5.227   3.798   1.449 -0.4469  0.9141  0.4218
  868MOL0     O14491   5.337   4.069   1.494  0.2120 -0.5871 -0.9245
  868MOL0     C14492   5.570   4.225   1.482 -0.0987  0.6012 -0.1411
  868MOL0     C14493   5.693   4.285   1.443 -0.3004  0.2573 -0.3189
  868MOL0     N14494   6.554   4.131   1.128  0.0705  0.5826 -0.4071
  868MOL0     N14495   6.647   4.044   1.122 -0.2059 -0.3717  0.0571
  868MOL0     C14496   7.789   3.696   1.535 -0.5961  1.3529 -0.5687
  868MOL0     C14497   7.892   3.652   1.615  0.2773 -0.5699 -0.2775
  868MOL0     C14498   8.272   3.784   1.862  0.3335  0.4052  0.5398
  868MOL0     C14499   8.406   3.818   1.827  0.1971  0.9566  0.0288
  868MOL0     C14500   8.511   3.803   1.914  0.7187 -0.4517 -0.2073
  868MOL0     C14501   8.489   3.780   2.048 -0.0964  0.6044  0.7101
  868MOL0     O14502   8.594   3.756   2.132  0.2234 -0.2679  0.3622
  868MOL0     C14503   8.712   3.838   2.128  0.4148  0.4903 -0.9071
  868MOL0     C14504   8.791   3.806   2.255  0.3073 -0.1908  0.1379
  868MOL0     C14505   8.913   3.892   2.265  0.7598  0.8053  0.0076
  868MOL0     C14506   8.884   4.044   2.290 -0.6163  0.3245  0.5165
  868MOL0     C14507   8.779   4.075   2.382 -0.8087  0.3503 -0.9733
  868MOL0     C14508   8.681   4.091   2.449 -0.2756  0.3600  0.0802
  868MOL0     C14509   8.353   3.764   2.088  0.2138 -0.2862 -0.5935
  868MOL0     C14510   8.243   3.764   2.000 -0.5673 -0.4582  0.1719
  868MOL0     H14511   7.920   3.904   1.842  1.8345 -2.3242  0.2584
  868MOL0     H14512   7.699   3.975   1.707 -0.5539 -0.2311  1.3605
  868MOL0     H14513   7.518   4.012   1.600 -2.0442  0.4138 -0.0485
  868MOL0     H14514   7.442   3.858   1.651  1.9046 -2.4738  0.4464
  868MOL0     H14515   7.383   3.821   1.419 -2.1474 -0.7954  2.1678
  868MOL0     H14516   7.432   4.001   1.399  1.6201 -0.8428  0.5213
  868MOL0     H14517   7.282   4.075   1.552  1.2633 -0.4711  0.5673
  868MOL0     H14518   7.220   3.914   1.602 -0.2038 -1.0474 -0.4828
  868MOL0     H14519   7.201   4.011   1.308 -1.5688 -1.4965 -1.8154
  868MOL0     H14520   7.142   3.865   1.376  1.9551  0.7163 -0.6713
  868MOL0     H14521   7.030   4.142   1.462 -0.5797 -0.4528  0.8115
  868MOL0     H14522   6.981   3.986   1.529 -1.2431  0.2984 -0.2546
  868MOL0     H14523   6.942   4.021   1.232 -1.4886 -1.6783 -0.1547
  868MOL0     H14524   6.849   4.107   1.350  1.3731  1.3213 -2.7103
  868MOL0     H14525   6.888   3.796   1.367 -0.0932  0.3475 -1.3094
  868MOL0     H14526   6.761   3.897   1.454 -1.2310 -1.3439  0.4001
  868MOL0     H14527   6.648   3.782   1.287  0.2381  1.4657  1.9162
  868MOL0     H14528   6.786   3.825   1.169  1.5613 -1.3449  0.9221
  868MOL0     H14529   6.510   3.956   1.400  1.4134  0.8828  0.4510
  868MOL0     H14530   6.350   4.279   1.229  1.0778 -1.3669 -1.9707
  868MOL0     H14531   6.376   4.209   1.388 -0.6560 -1.8188  0.8112
  868MOL0     H14532   6.212   4.044   1.374 -0.6067 -0.1682  0.4889
  868MOL0     H14533   6.244   4.037   1.196  0.8042  2.4158 -2.6120
  868MOL0     H14534   6.113   4.250   1.168  2.3385  0.7716  0.8210
  868MOL0     H14535   6.025   4.110   1.229  1.7416 -3.3267  3.6476
  868MOL0     H14536   6.111   4.357   1.396  0.1174 -0.3688 -1.7463
  868MOL0     H14537   6.067   4.198   1.465  2.5410  1.5960  0.3983
  868MOL0     H14538   5.900   4.028   1.438 -0.5658 -0.0484  3.1462
  868MOL0     H14539   5.692   3.908   1.491  0.1347 -0.3208  0.0436
  868MOL0     H14540   5.406   3.721   1.734  0.1903 -0.8765  0.7778
  868MOL0     H14541   5.204   3.598   1.775  0.4648 -2.0349 -2.1750
  868MOL0     H14542   4.996   3.522   1.814 -0.3312  0.5158 -0.1603
  868MOL0     H14543   5.075   3.409   1.717  0.3132  0.9591 -1.1528
  868MOL0     H14544   4.864   3.297   1.777  0.8164  0.1952 -1.4601
  868MOL0     H14545   4.865   3.341   1.607  2.9901  0.7559 -0.0331
  868MOL0     H14546   4.640   3.377   1.691  0.4114  0.4856 -2.7507
  868MOL0     H14547   4.716   3.525   1.636  0.8350 -0.3509  0.1400
  868MOL0     H14548   4.670   3.435   1.923 -0.0132 -1.1916 -0.4836
  868MOL0     H14549   4.756   3.587   1.875 -0.7864 -0.3134  1.1355
  868MOL0     H14550   4.470   3.528   1.811  0.1127  0.2410 -1.0869
  868MOL0     H14551   4.574   3.667   1.748 -0.2365 -0.2617 -0.7591
  868MOL0     H14552   4.607   3.742   1.979 -0.3750 -0.7847 -1.1392
  868MOL0     H14553   4.519   3.597   2.038 -0.2757  1.0106  1.6995
  868MOL0     H14554   4.422   3.838   1.868  0.9642  0.2138 -0.6067
  868MOL0     H14555   4.320   3.706   1.884  0.2372 -1.5010 -0.3474
  868MOL0     H14556   4.329   3.730   2.151  0.0435  1.3854  0.8869
  868MOL0     H14557   4.253   3.850   2.054 -1.2600 -2.8076 -0.3438
  868MOL0     H14558   5.027   3.715   1.404 -0.0602 -1.3532 -0.1730
  868MOL0     H14559   5.230   3.867   1.365 -3.3899  3.2254  2.0404
  868MOL0     H14560   5.482   4.285   1.505  0.0046  0.8141 -0.2986
  868MOL0     H14561   5.690   4.392   1.423  0.1543  0.5515  1.1025
  868MOL0     H14562   7.769   3.629   1.451 -1.0952  0.6508  0.0980
  868MOL0     H14563   7.953   3.563   1.606  0.9673 -0.1343  0.0823
  868MOL0     H14564   8.428   3.848   1.725  1.5042  0.3144  0.0914
  868MOL0     H14565   8.614   3.813   1.883  0.3012  2.3390 -1.0188
  868MOL0     H14566   8.690   3.945   2.119  0.6201  0.6650  0.4408
  868MOL0     H14567   8.777   3.809   2.045 -0.5376 -4.0444 -0.2820
  868MOL0     H14568   8.721   3.829   2.336  0.1937 -0.8067  0.2223
  868MOL0     H14569   8.818   3.700   2.252  0.9345 -0.0104 -1.6708
  868MOL0     H14570   8.971   3.871   2.175  1.3040  2.4908 -0.0725
  868MOL0     H14571   8.971   3.857   2.351 -0.1098 -3.3598 -0.8779
  868MOL0     H14572   8.980   4.071   2.336 -0.8130 -1.0903  1.8596
  868MOL0     H14573   8.860   4.092   2.195 -1.5583 -1.0684  0.0280
  868MOL0     H14574   8.590   4.091   2.506  0.2320 -1.3300  0.9691
  868MOL0     H14575   8.337   3.739   2.192 -1.6125  1.1810 -0.4662
  868MOL0     H14576   8.144   3.744   2.039 -0.3104 -3.1822 -0.3661
  869MOL0     O14577   7.213  10.536   7.794  0.2824  0.1351 -1.3006
  869MOL0     C14578   7.256  10.427   7.770  0.2385  0.0230  0.0045
  869MOL0     O14579   7.168  10.322   7.749  0.4925 -0.1067 -0.0273
  869MOL0     C14580   7.035  10.345   7.757 -0.6918 -0.6913  0.8809
  869MOL0     C14581   6.968  10.323   7.877  1.0436 -0.9066 -0.4407
  869MOL0     C14582   6.831  10.344   7.881  0.0796  0.3785 -0.2801
  869MOL0     C14583   6.762  10.373   7.769 -0.3690  0.0408  0.2819
  869MOL0     O14584   6.634  10.407   7.782 -0.0336  0.8372  0.2131
  869MOL0     C14585   6.544  10.305   7.835 -0.8384  0.2343 -0.6499
  869MOL0     C14586   6.440  10.373   7.917 -0.3559 -0.1729  0.0508
  869MOL0     C14587   6.295  10.320   7.925 -0.0700  0.1056 -0.7551
  869MOL0     C14588   6.209  10.426   7.996  0.0719  0.1609  0.0270
  869MOL0     C14589   6.055  10.375   8.010  0.2892 -0.2337  0.6565
  869MOL0     C14590   5.976  10.390   7.884  0.4067 -0.6658 -0.0952
  869MOL0     C14591   5.822  10.401   7.924  0.7160 -0.6517 -0.0651
  869MOL0     C14592   5.742  10.422   7.793  0.4036  0.1821  0.0707
  869MOL0     N14593   5.611  10.463   7.836 -0.2533 -0.6828  0.0615
  869MOL0     C14594   5.581  10.599   7.847 -0.6148 -0.5544 -0.6584
  869MOL0     C14595   5.447  10.589   7.871  0.6541 -1.0649  0.2433
  869MOL0     C14596   5.351  10.703   7.865  0.1845  0.2465  0.5525
  869MOL0     C14597   5.350  10.772   7.730 -1.1055  0.1421 -0.3803
  869MOL0     C14598   5.288  10.914   7.727 -0.4430 -0.1415  0.3061
  869MOL0     C14599   5.143  10.918   7.780 -0.4391  0.4714 -0.1613
  869MOL0     O14600   5.124  10.874   7.910  0.0578 -0.0842  0.0749
  869MOL0     C14601   5.003  10.830   7.956 -0.9066 -0.2099  1.2863
  869MOL0     C14602   4.883  10.844   7.881 -0.9595  0.2961 -0.1330
  869MOL0     C14603   4.768  10.774   7.920  0.3567  0.2786  0.7450
  869MOL0     C14604   4.764  10.724   8.049  0.2622  0.6092 -0.5270
  869MOL0     C14605   4.627  10.688   8.108  0.0993  0.4377  0.3511
  869MOL0     O14606   4.516  10.675   8.031  0.3600  0.4824 -0.0545
  869MOL0     C14607   4.400  10.626   8.086  0.0571 -0.6331  0.0959
  869MOL0     C14608   4.284  10.692   8.023  0.3288  0.1634 -0.1180
  869MOL0     C14609   4.159  10.651   8.070  0.2872 -0.0333  0.0600
  869MOL0     C14610   4.138  10.543   8.158  0.7131 -0.0996  0.3679
  869MOL0     O14611   4.015  10.486   8.188  0.1642 -0.1834 -0.5095
  869MOL0     C14612   3.902  10.575   8.165 -0.2616  0.7844 -0.0798
  869MOL0     C14613   3.784  10.480   8.185 -0.6561  1.1099  0.6418
  869MOL0     C14614   3.638  10.542   8.169 -0.5011 -0.1581  0.3881
  869MOL0     C14615   3.533  10.428   8.172  0.1530  0.5661  0.7625
  869MOL0     C14616   3.405  10.482   8.221  0.5743 -0.2358 -0.0749
  869MOL0     C14617   3.294  10.370   8.231 -0.2711  0.1741  0.0009
  869MOL0     C14618   3.161  10.423   8.275 -0.3776  0.0075  0.0035
  869MOL0     C14619   3.071  10.300   8.311 -0.3145  0.8885 -0.1962
  869MOL0    Cl14620   2.924  10.373   8.363  0.2164 -0.2723 -0.0484
  869MOL0     C14621   4.248  10.477   8.210  0.2600 -0.2738 -0.0089
  869MOL0     C14622   4.379  10.527   8.189  0.3557 -0.3449 -0.1537
  869MOL0     O14623   4.620  10.663   8.230  0.0219 -0.3404 -0.1839
  869MOL0     C14624   4.875  10.722   8.140 -0.3414  0.1264 -0.1344
  869MOL0     C14625   4.990  10.780   8.085 -0.1188 -0.5533  0.1211
  869MOL0     N14626   5.404  10.456   7.880 -0.4331  0.2383  0.9577
  869MOL0     N14627   5.507  10.385   7.864 -0.4381 -0.5206  0.4233
  869MOL0     C14628   6.828  10.386   7.646  0.3163  0.3396 -0.1485
  869MOL0     C14629   6.961  10.375   7.637 -0.8806  0.6185  0.1401
  869MOL0     C14630   7.400  10.397   7.780  0.2115 -0.8244  0.2583
  869MOL0     C14631   7.479  10.486   7.846 -0.1651 -0.3529  0.2141
  869MOL0     C14632   7.612  10.458   7.881  0.0270  0.3406  0.3921
  869MOL0     C14633   7.661  10.331   7.850  0.2682 -0.2148 -0.8683
  869MOL0     O14634   7.792  10.304   7.887 -0.2783  0.0898  0.7964
  869MOL0     C14635   7.844  10.171   7.875 -0.6112  0.3655 -0.4992
  869MOL0     C14636   7.992  10.159   7.915 -0.4168 -0.0292 -0.0104
  869MOL0     C14637   8.039  10.255   8.022  0.1353  0.5952  0.4059
  869MOL0     C14638   7.951  10.249   8.153  0.0239  0.3859 -0.4255
  869MOL0     C14639   7.977  10.117   8.217  0.3474  0.4933 -0.7008
  869MOL0     C14640   7.996  10.005   8.271 -0.2807 -0.0602  0.6444
  869MOL0     C14641   7.587  10.237   7.773  0.9644 -0.1949  0.9150
  869MOL0     C14642   7.450  10.278   7.732 -0.5561 -0.2448  0.3241
  869MOL0     H14643   7.020  10.327   7.972 -0.5310  1.0982  0.3859
  869MOL0     H14644   6.768  10.348   7.969 -1.9371 -2.6090 -1.4454
  869MOL0     H14645   6.597  10.225   7.888 -1.9204 -1.6786 -2.3251
  869MOL0     H14646   6.492  10.264   7.748 -0.5513 -0.5902 -0.4392
  869MOL0     H14647   6.428  10.472   7.872 -0.0693 -0.2587 -0.2229
  869MOL0     H14648   6.481  10.367   8.018  2.0738  0.5778 -0.8181
  869MOL0     H14649   6.293  10.224   7.978  0.8722  0.6943  0.3744
  869MOL0     H14650   6.249  10.301   7.827 -3.7777 -0.3786  0.9166
  869MOL0     H14651   6.251  10.433   8.097  2.5640  1.3862 -0.9960
  869MOL0     H14652   6.209  10.523   7.945 -2.0011  1.3850  2.1303
  869MOL0     H14653   6.002  10.425   8.091  1.0406 -1.5103  1.9928
  869MOL0     H14654   6.058  10.268   8.035 -0.4434 -1.2215 -2.9327
  869MOL0     H14655   5.978  10.298   7.826  0.4500 -1.5883  1.3223
  869MOL0     H14656   6.012  10.475   7.825 -0.1320 -0.9698 -0.8779
  869MOL0     H14657   5.781  10.312   7.971 -0.8191  0.6114  1.0812
  869MOL0     H14658   5.818  10.490   7.988 -0.2502  0.9356 -2.2000
  869MOL0     H14659   5.724  10.329   7.738 -1.0589  0.7088 -0.3943
  869MOL0     H14660   5.792  10.493   7.726 -2.7017  1.4987 -1.0086
  869MOL0     H14661   5.639  10.689   7.831 -1.1688 -0.3745 -1.7438
  869MOL0     H14662   5.369  10.785   7.935 -0.7840  0.7238  0.2658
  869MOL0     H14663   5.249  10.666   7.879 -0.8231  1.6360 -2.3924
  869MOL0     H14664   5.323  10.704   7.649  1.1455  0.4128 -1.4281
  869MOL0     H14665   5.454  10.795   7.702 -0.5734 -1.5191  0.1530
  869MOL0     H14666   5.358  10.982   7.777  1.7268 -1.4784 -0.7337
  869MOL0     H14667   5.283  10.950   7.623 -0.2597  3.3716  1.3692
  869MOL0     H14668   5.079  10.864   7.710 -0.8174 -1.9924  1.9219
  869MOL0     H14669   5.113  11.023   7.785  0.0930  0.5507  2.9360
  869MOL0     H14670   4.883  10.892   7.784  0.5021 -1.4294 -1.0588
  869MOL0     H14671   4.670  10.772   7.872  0.0267 -1.0379  1.4252
  869MOL0     H14672   4.291  10.762   7.940  2.6089 -2.5634 -2.4392
  869MOL0     H14673   4.074  10.694   8.018  0.6270  0.7499  0.1341
  869MOL0     H14674   3.904  10.625   8.068  2.7204  3.0802  0.9821
  869MOL0     H14675   3.889  10.662   8.230  0.5377  1.0366 -0.2371
  869MOL0     H14676   3.795  10.446   8.289  0.4502 -1.3641 -0.2051
  869MOL0     H14677   3.806  10.397   8.117  0.5271  1.7667  0.1946
  869MOL0     H14678   3.650  10.605   8.081  0.8342 -0.4832  0.3026
  869MOL0     H14679   3.620  10.612   8.251  0.3816  0.4840  0.0619
  869MOL0     H14680   3.520  10.377   8.076  0.2377  0.0157  1.0412
  869MOL0     H14681   3.568  10.351   8.241 -3.1316 -1.5630  0.3022
  869MOL0     H14682   3.366  10.561   8.155  1.3525 -1.1636 -1.7188
  869MOL0     H14683   3.421  10.519   8.322 -1.4530  1.5924 -0.3665
  869MOL0     H14684   3.327  10.293   8.301  1.3233  2.8361  2.3490
  869MOL0     H14685   3.279  10.322   8.133  1.6275 -1.4793  0.4451
  869MOL0     H14686   3.179  10.485   8.363  0.6756  1.1182 -0.9680
  869MOL0     H14687   3.105  10.486   8.206 -0.7352 -0.7147 -0.3793
  869MOL0     H14688   3.097  10.240   8.399  1.0564 -1.1472 -1.8756
  869MOL0     H14689   3.062  10.230   8.227  0.2154  0.8800 -0.2474
  869MOL0     H14690   4.233  10.399   8.284 -0.2095  0.3147  0.5245
  869MOL0     H14691   4.465  10.472   8.226  0.3171  0.4901  1.2429
  869MOL0     H14692   4.875  10.687   8.242 -1.6076  0.9099  0.1512
  869MOL0     H14693   5.081  10.798   8.141 -1.0874  3.4431  0.7267
  869MOL0     H14694   6.767  10.400   7.558  0.9806  2.5171 -0.3171
  869MOL0     H14695   7.020  10.371   7.546  2.0612 -1.5946  1.9876
  869MOL0     H14696   7.444  10.582   7.881  1.3332 -0.0902  1.0857
  869MOL0     H14697   7.672  10.533   7.932 -0.1728  0.4671  0.4424
  869MOL0     H14698   7.845  10.129   7.774 -2.6739 -1.3446  0.1284
  869MOL0     H14699   7.783  10.111   7.943 -0.2172  2.5877  1.9687
  869MOL0     H14700   7.997  10.054   7.943  1.7673  0.3560  1.2281
  869MOL0     H14701   8.056  10.168   7.826 -0.0197  1.3569  0.3870
  869MOL0     H14702   8.051  10.358   7.987  1.8026  0.0686 -0.7029
  869MOL0     H14703   8.142  10.221   8.036  0.4301  0.4257 -1.7696
  869MOL0     H14704   7.985  10.321   8.228  1.7895  0.4465 -1.2282
  869MOL0     H14705   7.846  10.258   8.127  0.5420  0.4067 -2.6721
  869MOL0     H14706   8.017   9.907   8.310 -0.3713 -0.3049  0.0875
  869MOL0     H14707   7.630  10.142   7.742 -0.8868 -0.0538 -2.6807
  869MOL0     H14708   7.376  10.226   7.673 -0.2229 -0.6237  0.2441
  870MOL0     O14709   0.103   3.226   9.845 -0.0596  0.6048  0.6214
  870MOL0     C14710   0.154   3.115   9.866 -0.5983  0.0228  0.2726
  870MOL0     O14711   0.161   3.009   9.773 -0.4389  0.0789 -0.1452
  870MOL0     C14712   0.125   3.019   9.641 -0.7942 -0.3179 -0.0709
  870MOL0     C14713   0.014   3.095   9.596  0.1736 -0.4332 -0.5577
  870MOL0     C14714  -0.015   3.092   9.459  0.0915 -0.3186  0.9210
  870MOL0     C14715   0.064   3.025   9.367  0.2200 -0.1589 -0.1349
  870MOL0     O14716   0.045   3.041   9.227  0.2112  0.4588 -0.7305
  870MOL0     C14717  -0.083   3.068   9.177  0.0374  0.1437  0.5836
  870MOL0     C14718  -0.088   3.033   9.026 -0.7751  1.2339 -0.2535
  870MOL0     C14719  -0.219   3.048   8.957  0.2797  0.1779 -0.3182
  870MOL0     C14720  -0.317   3.162   9.006  0.5838  0.9208  0.1692
  870MOL0     C14721  -0.438   3.177   8.916  0.9214 -0.2105  0.2810
  870MOL0     C14722  -0.522   3.043   8.906  0.1511  0.1311  0.0705
  870MOL0     C14723  -0.668   3.077   8.884 -0.8201 -0.0320 -0.1015
  870MOL0     C14724  -0.755   2.955   8.870 -0.5316  0.4878  1.0640
  870MOL0     N14725  -0.890   2.993   8.810 -1.0720 -0.3169  0.7491
  870MOL0     C14726  -0.905   3.006   8.675 -0.1155 -0.2379 -0.0855
  870MOL0     C14727  -1.037   3.002   8.656  0.2128 -0.2186 -0.1731
  870MOL0     C14728  -1.095   2.993   8.515 -0.1664 -0.1137 -0.8248
  870MOL0     C14729  -1.074   2.854   8.459 -0.2785 -0.0283 -0.2082
  870MOL0     C14730  -1.162   2.827   8.341  0.5595 -0.0595  1.1470
  870MOL0     C14731  -1.169   2.676   8.293  0.1942 -0.3900  0.1671
  870MOL0     O14732  -1.181   2.690   8.158 -0.2789  0.1637 -0.4225
  870MOL0     C14733  -1.295   2.725   8.092 -0.2817  0.3668 -0.7551
  870MOL0     C14734  -1.412   2.771   8.151 -0.1070 -0.6209 -0.3088
  870MOL0     C14735  -1.527   2.797   8.076 -0.5152 -1.1026  0.2426
  870MOL0     C14736  -1.532   2.765   7.940  0.2584  0.0609  0.1220
  870MOL0     C14737  -1.657   2.786   7.863 -0.1078 -0.1921 -0.0433
  870MOL0     O14738  -1.777   2.818   7.931 -0.0804 -0.7334 -0.2182
  870MOL0     C14739  -1.887   2.857   7.864  0.4544  0.0365 -0.2712
  870MOL0     C14740  -1.891   2.914   7.737 -0.7506  0.9584  0.1696
  870MOL0     C14741  -2.014   2.954   7.682 -0.6478 -0.0760 -0.3641
  870MOL0     C14742  -2.138   2.937   7.743 -0.6347  0.1878 -0.6501
  870MOL0     O14743  -2.263   2.963   7.682  0.1564 -0.2827 -0.3788
  870MOL0     C14744  -2.270   3.012   7.550 -0.9733  0.0591  0.3406
  870MOL0     C14745  -2.282   2.895   7.452 -0.9749 -0.3995  0.1412
  870MOL0     C14746  -2.341   2.938   7.316 -0.3867  0.2933 -0.6291
  870MOL0     C14747  -2.356   2.827   7.207 -0.4077 -0.7559 -0.8930
  870MOL0     C14748  -2.442   2.896   7.104 -0.3256  0.5786  0.0156
  870MOL0     C14749  -2.449   2.804   6.980  0.2640 -0.7664  0.3061
  870MOL0     C14750  -2.544   2.873   6.877  0.0965 -0.1302  0.5746
  870MOL0     C14751  -2.609   2.769   6.783  0.7504  1.0880 -0.7427
  870MOL0    Cl14752  -2.736   2.848   6.682  0.2962  0.0177  0.2629
  870MOL0     C14753  -2.136   2.876   7.876  0.1914  0.4168 -0.1168
  870MOL0     C14754  -2.006   2.837   7.929  0.4829 -0.6756  0.2181
  870MOL0     O14755  -1.647   2.759   7.744 -0.3046  0.0977 -0.8883
  870MOL0     C14756  -1.411   2.728   7.880  0.7266 -1.0041 -0.0966
  870MOL0     C14757  -1.295   2.707   7.955  0.3388 -0.6499  0.0595
  870MOL0     N14758  -1.098   2.986   8.778 -0.7299 -0.1172 -0.3167
  870MOL0     N14759  -1.006   2.975   8.871 -0.1078  0.1555 -0.1166
  870MOL0     C14760   0.166   2.951   9.413  0.2342 -0.1920 -0.0546
  870MOL0     C14761   0.197   2.945   9.545 -0.2990 -0.1578 -0.4279
  870MOL0     C14762   0.219   3.084   9.997  0.1929 -1.0778 -0.2929
  870MOL0     C14763   0.231   3.185  10.093  0.1879  0.6098 -0.1967
  870MOL0     C14764   0.301   3.159  10.214  0.5164  0.0927  0.2611
  870MOL0     C14765   0.357   3.035  10.238 -0.3264  0.3214 -0.0100
  870MOL0     O14766   0.428   3.003  10.357  0.1374  0.0526 -0.2088
  870MOL0     C14767   0.503   3.103  10.422 -0.4591 -0.3090  0.0548
  870MOL0     C14768   0.605   3.048  10.515 -0.1621  1.2709 -0.5653
  870MOL0     C14769   0.655   2.904  10.469  0.6400 -0.3777 -0.0225
  870MOL0     C14770   0.576   2.779  10.518 -0.0202  0.4901 -0.6181
  870MOL0     C14771   0.609   2.757  10.666  0.7017  0.4978  0.1451
  870MOL0     C14772   0.631   2.748  10.782  0.0111  0.6153  0.7211
  870MOL0     C14773   0.346   2.939  10.133 -0.3622 -0.3582  0.0940
  870MOL0     C14774   0.284   2.965  10.007  0.1514 -0.0145  0.8695
  870MOL0     H14775  -0.054   3.148   9.662 -0.1571 -1.5570  0.0476
  870MOL0     H14776  -0.097   3.146   9.413  0.9818  0.3680  0.0859
  870MOL0     H14777  -0.112   3.172   9.194  2.4762  1.2239 -1.2645
  870MOL0     H14778  -0.152   3.007   9.236 -2.4035  2.1245 -0.0669
  870MOL0     H14779  -0.056   2.931   9.004  0.5754  1.3338  1.0419
  870MOL0     H14780  -0.019   3.094   8.968 -1.2598  1.8262 -0.2163
  870MOL0     H14781  -0.273   2.954   8.974  0.7508  0.3359  2.4444
  870MOL0     H14782  -0.203   3.062   8.850 -1.7398 -0.9290 -0.8184
  870MOL0     H14783  -0.352   3.118   9.099 -1.7076  1.9119 -0.1625
  870MOL0     H14784  -0.267   3.257   9.022  0.6729  0.8154  0.5206
  870MOL0     H14785  -0.400   3.210   8.819 -1.4431 -1.0161 -1.0013
  870MOL0     H14786  -0.498   3.255   8.962  2.1239  0.8509  0.0972
  870MOL0     H14787  -0.514   2.975   8.992  0.3489  1.1679  0.8942
  870MOL0     H14788  -0.486   2.989   8.818  0.1070  0.5960 -0.2348
  870MOL0     H14789  -0.709   3.144   8.961  1.8576  2.2033 -0.4916
  870MOL0     H14790  -0.665   3.134   8.791 -0.3750 -0.5877 -0.4340
  870MOL0     H14791  -0.786   2.913   8.967 -1.6517 -0.8108  0.1953
  870MOL0     H14792  -0.711   2.876   8.808  0.8923  3.3972 -1.9667
  870MOL0     H14793  -0.834   3.015   8.593 -0.5639  2.0767 -0.3084
  870MOL0     H14794  -1.054   3.079   8.461 -1.6955  0.7255 -0.7036
  870MOL0     H14795  -1.202   3.013   8.504  0.0779  0.6967 -1.9610
  870MOL0     H14796  -1.078   2.776   8.536 -0.4464 -0.7835 -0.9747
  870MOL0     H14797  -0.970   2.866   8.430 -0.1462 -0.3286  0.1281
  870MOL0     H14798  -1.265   2.856   8.362 -0.5248 -2.4560 -0.4456
  870MOL0     H14799  -1.129   2.897   8.264  1.6114 -0.5865  1.0960
  870MOL0     H14800  -1.252   2.622   8.340  0.3026 -0.5855  0.1324
  870MOL0     H14801  -1.082   2.613   8.312 -0.6784 -2.1327 -1.2708
  870MOL0     H14802  -1.417   2.779   8.259  1.6746 -0.8635 -0.1741
  870MOL0     H14803  -1.616   2.838   8.123 -1.7786 -3.1086 -0.2628
  870MOL0     H14804  -1.799   2.939   7.686 -1.1714  1.7770 -0.2167
  870MOL0     H14805  -1.999   2.979   7.577 -0.6882 -2.4175 -1.0057
  870MOL0     H14806  -2.183   3.075   7.529 -1.7230  0.6922 -1.0596
  870MOL0     H14807  -2.366   3.064   7.540 -1.6067 -1.0500  0.4826
  870MOL0     H14808  -2.338   2.812   7.496  0.9921 -2.1122 -0.4010
  870MOL0     H14809  -2.185   2.850   7.430 -0.1272  0.9761  0.9169
  870MOL0     H14810  -2.267   3.011   7.281  1.7146 -0.8059  1.2411
  870MOL0     H14811  -2.434   2.989   7.343 -0.5730 -1.2049  1.8530
  870MOL0     H14812  -2.265   2.785   7.163 -0.6123 -1.1068 -0.9850
  870MOL0     H14813  -2.402   2.739   7.253  2.0706 -0.9906  1.4058
  870MOL0     H14814  -2.396   2.989   7.070  3.5711 -1.0042  0.3771
  870MOL0     H14815  -2.544   2.905   7.141 -0.6631 -0.5093 -0.5821
  870MOL0     H14816  -2.481   2.704   7.009 -2.7259 -0.5309 -1.8550
  870MOL0     H14817  -2.353   2.799   6.927 -0.7705  1.8002 -2.0526
  870MOL0     H14818  -2.630   2.928   6.915 -2.4120 -3.4374  0.1608
  870MOL0     H14819  -2.484   2.941   6.816 -0.8448 -0.2137 -0.4869
  870MOL0     H14820  -2.664   2.702   6.849 -2.7144  3.4917 -0.9243
  870MOL0     H14821  -2.542   2.714   6.716 -1.7958 -2.6849 -0.4951
  870MOL0     H14822  -2.224   2.843   7.930 -0.1282 -0.8406 -1.3387
  870MOL0     H14823  -2.003   2.763   8.008  3.8720 -0.0734  0.7962
  870MOL0     H14824  -1.407   2.707   7.773 -1.3091 -1.5904 -0.1134
  870MOL0     H14825  -1.202   2.656   7.933 -0.2468 -2.2803  1.1348
  870MOL0     H14826   0.222   2.901   9.335 -1.7530 -2.2893 -0.2302
  870MOL0     H14827   0.278   2.883   9.581  1.1451  1.8208 -0.0970
  870MOL0     H14828   0.199   3.285  10.065 -0.2049  0.2177 -1.1828
  870MOL0     H14829   0.308   3.234  10.292  0.6572 -0.7103  1.0383
  870MOL0     H14830   0.448   3.187  10.467  0.2285 -0.1141  0.5351
  870MOL0     H14831   0.563   3.143  10.340  2.7647 -2.7635  1.0078
  870MOL0     H14832   0.691   3.116  10.506 -1.2870  3.0393  1.2945
  870MOL0     H14833   0.582   3.042  10.622 -1.7650  1.5474 -0.8728
  870MOL0     H14834   0.761   2.896  10.494  0.5363  0.9501  0.9543
  870MOL0     H14835   0.656   2.894  10.360  0.0810  0.7983 -0.1540
  870MOL0     H14836   0.468   2.787  10.498 -0.4560  0.1033  1.2989
  870MOL0     H14837   0.602   2.686  10.467 -2.3475 -1.5162  1.5389
  870MOL0     H14838   0.649   2.741  10.887 -0.0311  3.4959  1.0041
  870MOL0     H14839   0.381   2.839  10.155  0.4492 -0.4611 -1.5567
  870MOL0     H14840   0.288   2.888   9.931 -1.3640 -1.1010  1.8463
  871MOL0     O14841   4.487   2.092   2.876  0.0507  0.0413 -0.2742
  871MOL0     C14842   4.531   2.149   2.782  0.5382  0.2411  0.0609
  871MOL0     O14843   4.467   2.245   2.710 -0.5063 -0.5895  0.6999
  871MOL0     C14844   4.334   2.275   2.736 -0.1851  0.3745  0.6331
  871MOL0     C14845   4.284   2.311   2.859 -0.7057  0.2040  0.2496
  871MOL0     C14846   4.148   2.343   2.877  0.3081 -0.1985  0.3204
  871MOL0     C14847   4.055   2.355   2.769  0.2726 -0.1579 -0.3621
  871MOL0     O14848   3.917   2.378   2.778 -0.0016 -0.7082 -0.8461
  871MOL0     C14849   3.854   2.363   2.907  0.1701 -0.6930 -0.6415
  871MOL0     C14850   3.706   2.337   2.906  0.1088  0.0528  0.3215
  871MOL0     C14851   3.639   2.390   3.035 -0.7645  0.5489 -0.6390
  871MOL0     C14852   3.492   2.360   3.038 -0.2161  0.1954  0.4684
  871MOL0     C14853   3.419   2.406   3.173  0.7126  0.1359 -0.6518
  871MOL0     C14854   3.407   2.552   3.211 -0.5835 -0.2205 -0.2937
  871MOL0     C14855   3.294   2.615   3.141  0.6260  0.1288  0.7191
  871MOL0     C14856   3.259   2.744   3.215  0.8433 -0.6563 -0.6585
  871MOL0     N14857   3.135   2.809   3.152 -0.2671 -0.0329  0.2429
  871MOL0     C14858   3.009   2.795   3.199 -0.8105 -0.5252 -0.9164
  871MOL0     C14859   2.927   2.845   3.109  0.3360  1.2182 -0.2056
  871MOL0     C14860   2.778   2.840   3.126 -0.3584  0.5379  0.1883
  871MOL0     C14861   2.715   2.979   3.120  0.2089 -0.8166 -0.2375
  871MOL0     C14862   2.729   3.060   3.256  0.3133  0.5594  0.5574
  871MOL0     C14863   2.667   2.997   3.380 -0.2352  0.6052 -0.4984
  871MOL0     O14864   2.526   2.982   3.370  0.0928  0.0289 -0.4248
  871MOL0     C14865   2.475   2.915   3.481  1.5285 -0.2811 -0.4073
  871MOL0     C14866   2.513   2.917   3.614 -0.9752  1.1652 -0.0114
  871MOL0     C14867   2.453   2.843   3.707  0.2156  0.7412  0.8156
  871MOL0     C14868   2.340   2.767   3.671  1.3129  0.5119  0.6668
  871MOL0     C14869   2.263   2.699   3.774 -0.5116 -0.2331  0.3415
  871MOL0     O14870   2.302   2.737   3.901 -0.0519 -0.7014  0.2411
  871MOL0     C14871   2.237   2.675   4.004  0.0141  0.4190  0.3012
  871MOL0     C14872   2.094   2.690   4.024 -0.0721  0.4851 -1.4606
  871MOL0     C14873   2.025   2.613   4.122  0.1164  0.0570  0.5118
  871MOL0     C14874   2.104   2.521   4.201 -0.2651  0.2213 -0.1879
  871MOL0     O14875   2.049   2.455   4.305  0.0229  0.3004  0.3870
  871MOL0     C14876   1.936   2.508   4.375  0.6692 -0.2306  0.3625
  871MOL0     C14877   1.913   2.419   4.499 -0.2960  0.1068 -0.4587
  871MOL0     C14878   1.777   2.440   4.575  0.5225  0.5354  0.0921
  871MOL0     C14879   1.792   2.414   4.728 -0.5964  0.2035  0.0008
  871MOL0     C14880   1.663   2.447   4.817  0.1499  0.0863  1.4659
  871MOL0     C14881   1.711   2.456   4.961  0.5041 -0.0254 -0.0945
  871MOL0     C14882   1.594   2.503   5.043 -0.4259  0.3151 -0.8278
  871MOL0     C14883   1.630   2.537   5.188  0.4842 -0.1692  0.0301
  871MOL0    Cl14884   1.492   2.563   5.305  0.4808  0.1090  0.7268
  871MOL0     C14885   2.234   2.508   4.172 -0.6572 -0.3980  0.2094
  871MOL0     C14886   2.299   2.578   4.077  0.4729  0.1143  0.6519
  871MOL0     O14887   2.184   2.619   3.739  0.5608  0.0722  0.1317
  871MOL0     C14888   2.295   2.762   3.536  0.2748 -0.0441  0.2575
  871MOL0     C14889   2.367   2.846   3.443  0.4163 -0.0595 -0.2750
  871MOL0     N14890   3.007   2.913   3.012  0.2648  0.0822 -0.4683
  871MOL0     N14891   3.134   2.888   3.043  0.4873  0.1879 -0.1582
  871MOL0     C14892   4.112   2.330   2.645 -0.1193  0.0331 -0.2055
  871MOL0     C14893   4.240   2.288   2.628  0.4353 -0.3967 -0.1713
  871MOL0     C14894   4.672   2.115   2.752 -0.1254 -0.3897 -0.6297
  871MOL0     C14895   4.741   2.005   2.807 -0.7591 -0.2986 -0.1922
  871MOL0     C14896   4.876   1.977   2.784  0.4464 -0.3331 -0.4602
  871MOL0     C14897   4.943   2.051   2.690 -0.4388 -0.1454  0.0276
  871MOL0     O14898   5.083   2.028   2.662 -0.1384 -0.2420 -0.0228
  871MOL0     C14899   5.180   1.982   2.765  0.2092 -0.5590 -0.6997
  871MOL0     C14900   5.181   1.831   2.782 -0.2676 -0.0463  0.0375
  871MOL0     C14901   5.325   1.780   2.804 -0.6627  0.1796  0.0397
  871MOL0     C14902   5.316   1.623   2.822  0.2939 -0.0295 -1.1540
  871MOL0     C14903   5.310   1.575   2.961  0.1644 -0.2066 -1.0590
  871MOL0     C14904   5.318   1.521   3.068 -0.3729 -0.5645  0.2657
  871MOL0     C14905   4.880   2.166   2.636 -0.2873 -0.2195  0.4207
  871MOL0     C14906   4.747   2.194   2.665 -1.1775 -0.5431 -0.2906
  871MOL0     H14907   4.362   2.310   2.934  0.0330 -0.8894 -0.5088
  871MOL0     H14908   4.105   2.345   2.976  2.5358 -0.6246  1.3608
  871MOL0     H14909   3.877   2.450   2.970 -3.3254  1.4272 -1.9805
  871MOL0     H14910   3.898   2.283   2.966 -0.5634  0.2979  1.3587
  871MOL0     H14911   3.681   2.232   2.889 -0.4668  0.4423 -1.4345
  871MOL0     H14912   3.660   2.398   2.828  1.9504  2.6034  1.0839
  871MOL0     H14913   3.647   2.497   3.053  0.9330 -0.0027  2.3989
  871MOL0     H14914   3.682   2.327   3.113 -1.6184  0.4451 -0.2328
  871MOL0     H14915   3.457   2.399   2.942  3.0798 -4.4015 -3.0544
  871MOL0     H14916   3.470   2.253   3.031 -0.1776  0.3071 -1.9558
  871MOL0     H14917   3.463   2.358   3.261 -1.0832  1.1213  0.8404
  871MOL0     H14918   3.320   2.360   3.172  1.3408 -1.4452 -3.6630
  871MOL0     H14919   3.505   2.600   3.201  0.0079 -1.5306 -0.9814
  871MOL0     H14920   3.390   2.557   3.319  2.1522  1.5173  0.1683
  871MOL0     H14921   3.319   2.635   3.036  1.1204 -0.1043  0.7940
  871MOL0     H14922   3.204   2.553   3.134  1.6625 -1.8094  3.1354
  871MOL0     H14923   3.343   2.813   3.208 -0.3589  0.8084 -1.4071
  871MOL0     H14924   3.240   2.732   3.322 -0.7517  0.0900 -0.8125
  871MOL0     H14925   2.975   2.731   3.280 -1.1851  1.0958  0.2635
  871MOL0     H14926   2.747   2.790   3.218 -0.7490 -0.6096 -0.5503
  871MOL0     H14927   2.741   2.772   3.048  3.1418 -2.2413  0.7097
  871MOL0     H14928   2.611   2.970   3.089 -0.4133  0.3769  1.3771
  871MOL0     H14929   2.762   3.042   3.043 -2.6781 -0.3016 -1.7119
  871MOL0     H14930   2.838   3.068   3.270  1.0476 -1.6957 -2.6674
  871MOL0     H14931   2.685   3.156   3.228 -0.3936 -0.0145 -0.3531
  871MOL0     H14932   2.699   3.049   3.471  0.6288 -2.8181  1.3318
  871MOL0     H14933   2.699   2.894   3.397 -1.1435  0.6714  2.1423
  871MOL0     H14934   2.593   2.981   3.646 -0.5950 -0.6745  3.1447
  871MOL0     H14935   2.495   2.849   3.807  2.4457 -0.5720  0.0292
  871MOL0     H14936   2.032   2.765   3.976 -0.9722  0.5069 -0.2842
  871MOL0     H14937   1.918   2.627   4.130  0.5535  3.1015  2.4406
  871MOL0     H14938   1.850   2.498   4.308  0.3381  0.0295  0.7425
  871MOL0     H14939   1.937   2.608   4.419 -0.7696 -0.7422  1.6348
  871MOL0     H14940   1.995   2.445   4.567 -1.2432  4.0831 -0.5747
  871MOL0     H14941   1.915   2.313   4.474  0.7273 -0.5515  2.0956
  871MOL0     H14942   1.703   2.370   4.535  2.1697 -1.1588 -0.1244
  871MOL0     H14943   1.748   2.544   4.561  1.6531  0.8311 -0.1609
  871MOL0     H14944   1.810   2.306   4.734  2.8256  0.6849  0.3015
  871MOL0     H14945   1.876   2.474   4.764 -1.2771  0.5795  1.0108
  871MOL0     H14946   1.590   2.366   4.806 -0.3785  0.8122 -1.2948
  871MOL0     H14947   1.613   2.538   4.780  1.0862  0.5653  1.3538
  871MOL0     H14948   1.789   2.532   4.971  1.7032 -1.3001  0.5360
  871MOL0     H14949   1.754   2.364   5.001  0.4066 -0.9397 -1.9600
  871MOL0     H14950   1.544   2.594   5.009 -3.2385 -0.4839  0.8464
  871MOL0     H14951   1.530   2.415   5.058  0.4561  0.0046  1.4684
  871MOL0     H14952   1.700   2.621   5.197  2.9332 -1.9210 -1.5076
  871MOL0     H14953   1.686   2.451   5.226 -1.1223 -0.2463  2.4442
  871MOL0     H14954   2.287   2.444   4.241  2.4995  2.5161  0.7997
  871MOL0     H14955   2.404   2.559   4.058  0.2167  1.5716 -3.3397
  871MOL0     H14956   2.209   2.708   3.499  2.1813 -0.9451 -3.3159
  871MOL0     H14957   2.334   2.852   3.340 -2.6906 -0.4012  0.5923
  871MOL0     H14958   4.059   2.348   2.552 -0.6282  3.2264  0.5885
  871MOL0     H14959   4.271   2.277   2.524  0.8381  0.8959 -0.2123
  871MOL0     H14960   4.679   1.938   2.865  0.2754 -0.7748  0.4000
  871MOL0     H14961   4.931   1.892   2.825 -0.6607  0.3990  2.8177
  871MOL0     H14962   5.148   2.023   2.862 -0.9040 -1.8164 -0.4937
  871MOL0     H14963   5.280   2.014   2.736  0.7154  2.0052  3.1759
  871MOL0     H14964   5.102   1.807   2.853 -3.6345  3.5160 -2.0487
  871MOL0     H14965   5.149   1.789   2.686 -1.3929 -0.0361  0.3974
  871MOL0     H14966   5.360   1.833   2.893 -0.4431  3.7696 -2.0100
  871MOL0     H14967   5.387   1.791   2.715 -0.9396 -1.9520 -0.4674
  871MOL0     H14968   5.232   1.578   2.769  0.7889  0.9203 -2.8113
  871MOL0     H14969   5.407   1.574   2.787  0.4860  0.2849 -1.0940
  871MOL0     H14970   5.323   1.470   3.162  2.9193 -2.3675 -0.7149
  871MOL0     H14971   4.928   2.222   2.556 -1.9846  1.3688  0.4648
  871MOL0     H14972   4.696   2.282   2.627  0.1620  1.9516  3.1539
  872MOL0     O14973   5.966   1.427   3.735  0.1441  0.5309  0.5975
  872MOL0     C14974   6.062   1.382   3.678  0.0582  0.0673  0.0976
  872MOL0     O14975   6.073   1.261   3.614  0.6007 -0.6180 -0.2314
  872MOL0     C14976   5.963   1.181   3.602  0.4745 -0.0798 -0.2404
  872MOL0     C14977   5.887   1.171   3.485  0.8708  0.4602 -0.7664
  872MOL0     C14978   5.771   1.088   3.487  0.5135  0.1683 -0.8297
  872MOL0     C14979   5.733   1.015   3.599  0.2155  0.3165  0.3404
  872MOL0     O14980   5.619   0.936   3.601  0.0002  0.2460 -0.6765
  872MOL0     C14981   5.563   0.891   3.471  0.3857 -0.2192 -0.0091
  872MOL0     C14982   5.419   0.848   3.516 -0.2417 -0.6569 -0.3897
  872MOL0     C14983   5.346   0.822   3.385 -0.1884 -0.1304  0.4610
  872MOL0     C14984   5.371   0.687   3.330 -0.3942  0.3876  0.7557
  872MOL0     C14985   5.276   0.666   3.213 -0.3893 -0.2534  0.0736
  872MOL0     C14986   5.264   0.518   3.177 -0.1558 -0.0094  0.1132
  872MOL0     C14987   5.198   0.489   3.035 -0.2772  0.1940 -0.3111
  872MOL0     C14988   5.049   0.536   3.013  0.2638  0.3348 -0.4581
  872MOL0     N14989   4.942   0.504   3.105 -0.4324 -0.5826 -0.4183
  872MOL0     C14990   4.907   0.594   3.214  0.6134  0.2353 -0.1745
  872MOL0     C14991   4.802   0.527   3.265 -0.1313 -0.3900 -0.0380
  872MOL0     C14992   4.723   0.565   3.384  0.3048 -0.2203  0.9298
  872MOL0     C14993   4.794   0.545   3.524 -0.8722 -0.5630 -0.2475
  872MOL0     C14994   4.830   0.398   3.541  0.2206 -1.0595  0.4634
  872MOL0     C14995   4.702   0.317   3.563 -0.3384  0.3372 -0.3024
  872MOL0     O14996   4.632   0.378   3.668  0.1011  0.2839 -0.4127
  872MOL0     C14997   4.501   0.344   3.688 -0.0453  0.5519 -0.0748
  872MOL0     C14998   4.423   0.445   3.746 -0.5574  0.5574  0.7778
  872MOL0     C14999   4.290   0.424   3.793  0.2960 -0.1484 -1.1671
  872MOL0     C15000   4.232   0.297   3.765  0.6255  0.4671 -0.3932
  872MOL0     C15001   4.090   0.271   3.791  0.6841 -0.2125 -0.4977
  872MOL0     O15002   4.030   0.192   3.697 -0.2376 -0.5612  0.0653
  872MOL0     C15003   3.892   0.187   3.696 -0.5747 -0.2813  0.1404
  872MOL0     C15004   3.812   0.131   3.797  0.3713  0.3973  0.4125
  872MOL0     C15005   3.669   0.123   3.783  0.8803 -0.2920  0.0706
  872MOL0     C15006   3.609   0.182   3.674  0.1845 -0.9868  0.7247
  872MOL0     O15007   3.469   0.158   3.657  0.1034 -0.1673 -0.1768
  872MOL0     C15008   3.407   0.235   3.554 -0.5155 -0.2006 -0.0574
  872MOL0     C15009   3.256   0.204   3.558 -0.4975 -0.7297  0.0689
  872MOL0     C15010   3.226   0.059   3.599  0.4269  0.4164  0.5031
  872MOL0     C15011   3.086   0.012   3.550 -0.0937 -0.0306  0.1124
  872MOL0     C15012   3.046  -0.131   3.609 -0.2480 -0.3263 -0.0611
  872MOL0     C15013   2.897  -0.156   3.617 -0.1427  0.2404 -0.4335
  872MOL0     C15014   2.876  -0.285   3.698 -0.0912  0.5836 -0.0684
  872MOL0     C15015   2.735  -0.353   3.679 -0.5836 -0.8534 -0.6999
  872MOL0    Cl15016   2.615  -0.230   3.730 -0.3721  0.5341 -0.4145
  872MOL0     C15017   3.690   0.251   3.575 -0.0633 -0.6545 -0.3540
  872MOL0     C15018   3.831   0.254   3.590  0.4566  0.0727 -0.3444
  872MOL0     O15019   4.041   0.325   3.891  0.5846 -0.5749 -0.2139
  872MOL0     C15020   4.305   0.203   3.700 -0.1672  0.1990 -0.4139
  872MOL0     C15021   4.436   0.224   3.659 -0.6649 -0.6513 -0.2900
  872MOL0     N15022   4.773   0.413   3.198  0.7434 -0.3025 -0.3673
  872MOL0     N15023   4.855   0.398   3.104  0.3693  0.3099 -0.1724
  872MOL0     C15024   5.803   1.039   3.715 -0.0050  0.8048 -0.6943
  872MOL0     C15025   5.916   1.119   3.719 -0.2748 -1.0552  0.2257
  872MOL0     C15026   6.183   1.469   3.688 -0.2535  0.9195 -0.5042
  872MOL0     C15027   6.298   1.455   3.607 -0.0536 -0.3758  0.2173
  872MOL0     C15028   6.399   1.553   3.602 -0.4649 -0.6334 -0.1983
  872MOL0     C15029   6.393   1.671   3.679 -0.3911 -0.0466  0.0459
  872MOL0     O15030   6.494   1.767   3.658 -0.4024 -0.3127  0.6954
  872MOL0     C15031   6.496   1.893   3.732 -0.2950  0.4565  0.3610
  872MOL0     C15032   6.558   1.857   3.869  0.2353  0.1127  0.0424
  872MOL0     C15033   6.710   1.836   3.876 -0.3866  0.5637  0.7612
  872MOL0     C15034   6.780   1.840   4.015  0.6873  0.2534 -0.1487
  872MOL0     C15035   6.916   1.892   4.018  0.0838 -0.9500  0.2258
  872MOL0     C15036   7.037   1.927   4.015  1.0272  0.2178  0.6556
  872MOL0     C15037   6.285   1.679   3.770  0.9440 -0.3777  0.4915
  872MOL0     C15038   6.183   1.575   3.789 -0.0455  0.3440 -0.1508
  872MOL0     H15039   5.929   1.218   3.397  3.4301 -0.0870  0.0885
  872MOL0     H15040   5.727   1.075   3.388 -0.2346  2.6064 -0.8867
  872MOL0     H15041   5.619   0.805   3.433  1.3687  0.2085  0.4325
  872MOL0     H15042   5.547   0.970   3.396  1.0292  0.8250  0.9184
  872MOL0     H15043   5.362   0.927   3.565  0.6460 -1.1171  1.4447
  872MOL0     H15044   5.416   0.759   3.579 -1.5871 -1.5023 -1.5713
  872MOL0     H15045   5.369   0.900   3.312 -2.6716  0.6115  0.4123
  872MOL0     H15046   5.240   0.833   3.408  0.4326  0.2418  3.5251
  872MOL0     H15047   5.474   0.665   3.302 -0.7564  0.2191 -0.4999
  872MOL0     H15048   5.353   0.614   3.409  0.0996 -0.6182 -0.0368
  872MOL0     H15049   5.317   0.720   3.127  1.6985 -0.6913  0.7200
  872MOL0     H15050   5.180   0.716   3.229  0.7229  2.2428 -0.4934
  872MOL0     H15051   5.199   0.468   3.249 -0.6849 -0.7016 -0.8217
  872MOL0     H15052   5.367   0.483   3.176 -0.9378 -2.5018 -1.6683
  872MOL0     H15053   5.261   0.527   2.954  2.3701 -2.1582  0.4781
  872MOL0     H15054   5.194   0.380   3.024 -1.9232  0.4270 -2.6533
  872MOL0     H15055   5.014   0.503   2.914  1.3810 -0.8369 -0.4985
  872MOL0     H15056   5.036   0.645   3.015  0.4494  0.4792 -3.0320
  872MOL0     H15057   4.954   0.688   3.240  0.2083  0.1905  0.7657
  872MOL0     H15058   4.630   0.507   3.376  0.1658  0.2575 -1.8268
  872MOL0     H15059   4.700   0.671   3.367  1.2913  0.0293  1.1034
  872MOL0     H15060   4.739   0.578   3.613 -1.3249  1.0124 -1.0636
  872MOL0     H15061   4.890   0.597   3.518 -0.8538 -0.7888 -2.7135
  872MOL0     H15062   4.894   0.354   3.464  1.5502  1.8764 -0.2815
  872MOL0     H15063   4.894   0.391   3.629  0.4684 -0.1978  0.3657
  872MOL0     H15064   4.743   0.223   3.600 -0.7350  1.2127  2.6155
  872MOL0     H15065   4.650   0.292   3.470  1.7310 -0.7218 -1.2458
  872MOL0     H15066   4.477   0.539   3.754  0.8302 -0.1199 -0.2960
  872MOL0     H15067   4.228   0.501   3.838  1.4459  0.4510 -0.5840
  872MOL0     H15068   3.863   0.088   3.883  0.3478 -0.8247 -0.1654
  872MOL0     H15069   3.610   0.083   3.865 -0.2515 -0.7255 -0.9149
  872MOL0     H15070   3.444   0.195   3.459  0.2677 -2.5373  1.1572
  872MOL0     H15071   3.425   0.342   3.566  1.1622 -0.1522 -2.4174
  872MOL0     H15072   3.205   0.229   3.465 -0.5756  1.1691  0.5875
  872MOL0     H15073   3.222   0.281   3.627 -1.5157  0.4948 -1.7232
  872MOL0     H15074   3.221   0.062   3.709 -1.1867  1.7650  0.4416
  872MOL0     H15075   3.294  -0.016   3.558 -0.9664 -1.3974  1.3876
  872MOL0     H15076   3.026   0.091   3.596  2.8432  2.0783  0.6326
  872MOL0     H15077   3.082   0.005   3.441 -1.2765  0.5406  0.1063
  872MOL0     H15078   3.088  -0.151   3.708 -1.2591 -2.5540 -0.0215
  872MOL0     H15079   3.102  -0.195   3.541  2.2206  2.9753 -1.4117
  872MOL0     H15080   2.849  -0.148   3.519 -1.5653 -0.9448  0.1437
  872MOL0     H15081   2.854  -0.080   3.683  0.3140  0.5049 -0.4360
  872MOL0     H15082   2.952  -0.360   3.674  0.6079  0.7252  1.6049
  872MOL0     H15083   2.904  -0.261   3.801 -1.4831  2.6573 -0.1104
  872MOL0     H15084   2.741  -0.446   3.737  3.3221  0.0124  0.5973
  872MOL0     H15085   2.714  -0.365   3.572 -4.1698  1.5194 -0.4341
  872MOL0     H15086   3.645   0.293   3.485 -0.6869 -3.4139 -1.4140
  872MOL0     H15087   3.898   0.301   3.518  2.0035  1.8594  2.0766
  872MOL0     H15088   4.256   0.113   3.664  0.5625 -0.2063 -0.4096
  872MOL0     H15089   4.488   0.139   3.617  0.8399  0.6600 -1.1963
  872MOL0     H15090   5.763   0.992   3.805  0.5906  2.6510  0.5858
  872MOL0     H15091   5.977   1.139   3.806  0.3133  0.1428 -0.4365
  872MOL0     H15092   6.299   1.372   3.536  1.2067  0.9875 -1.4501
  872MOL0     H15093   6.479   1.532   3.531  0.9677  0.5092  1.0154
  872MOL0     H15094   6.397   1.930   3.760 -0.9031 -1.8498  1.5472
  872MOL0     H15095   6.550   1.975   3.684  0.6955 -1.1133 -1.3458
  872MOL0     H15096   6.534   1.941   3.936 -1.0644  0.7369 -1.1528
  872MOL0     H15097   6.513   1.766   3.908 -3.6627  1.8315  0.0639
  872MOL0     H15098   6.757   1.919   3.822  0.4476 -0.8709 -0.8239
  872MOL0     H15099   6.748   1.741   3.837 -0.4321  1.1985 -0.9410
  872MOL0     H15100   6.715   1.901   4.079  1.1524  2.2693 -1.4778
  872MOL0     H15101   6.777   1.737   4.049 -0.5618 -0.2633 -1.6880
  872MOL0     H15102   7.141   1.951   4.012  1.7903 -2.5334 -3.4646
  872MOL0     H15103   6.268   1.764   3.836  2.5524  0.0166  0.4480
  872MOL0     H15104   6.108   1.577   3.867 -2.1280 -0.0294 -2.0176
  873MOL0     O15105  10.209   0.306   5.581  0.0048 -0.3613  0.5296
  873MOL0     C15106  10.288   0.224   5.517 -0.7972 -0.1163 -0.6054
  873MOL0     O15107  10.244   0.125   5.430  0.2227  0.6225 -0.2057
  873MOL0     C15108  10.105   0.119   5.415  0.5843  0.7041  0.2493
  873MOL0     C15109  10.033   0.027   5.475  0.0524 -0.6848 -0.5146
  873MOL0     C15110   9.901   0.008   5.442  0.4643  0.0568 -0.2848
  873MOL0     C15111   9.832   0.100   5.354 -0.5602  0.7417 -0.4055
  873MOL0     O15112   9.695   0.085   5.331 -0.1978 -0.2095  0.8190
  873MOL0     C15113   9.639  -0.042   5.373  0.2147 -0.3252  0.0660
  873MOL0     C15114   9.497  -0.051   5.318  0.1727 -0.2383  0.4412
  873MOL0     C15115   9.441  -0.196   5.317 -0.3294  0.5813 -0.2325
  873MOL0     C15116   9.299  -0.217   5.269 -0.0734 -0.2367 -0.0168
  873MOL0     C15117   9.243  -0.353   5.303  1.5107 -0.6945 -0.4227
  873MOL0     C15118   9.088  -0.352   5.295 -0.0745 -0.0732 -0.0420
  873MOL0     C15119   9.026  -0.487   5.337  0.2499 -0.5779 -0.1715
  873MOL0     C15120   8.878  -0.477   5.361  0.3763  0.6059 -0.3448
  873MOL0     N15121   8.804  -0.608   5.374 -0.6928 -0.3358 -0.6233
  873MOL0     C15122   8.723  -0.656   5.282  0.4519  0.2302 -0.5642
  873MOL0     C15123   8.688  -0.784   5.320 -1.2134 -0.1951  0.1946
  873MOL0     C15124   8.583  -0.875   5.256 -0.2599 -0.4346  0.0722
  873MOL0     C15125   8.440  -0.855   5.307  0.1737  0.4063 -0.0786
  873MOL0     C15126   8.333  -0.959   5.244 -0.3703 -0.3115 -0.2755
  873MOL0     C15127   8.292  -0.912   5.113 -0.5272  0.2800 -0.3986
  873MOL0     O15128   8.186  -0.993   5.065 -0.3521 -0.5288 -0.3526
  873MOL0     C15129   8.054  -0.976   5.099 -0.7027 -0.9539 -0.9818
  873MOL0     C15130   8.001  -0.873   5.190  0.4745  0.3999 -0.6880
  873MOL0     C15131   7.868  -0.882   5.226 -0.3380  0.4513  0.4540
  873MOL0     C15132   7.790  -0.984   5.163  0.5827 -0.2300 -0.3031
  873MOL0     C15133   7.642  -0.997   5.194 -0.7155 -0.0744 -0.7816
  873MOL0     O15134   7.584  -0.886   5.244  0.0428 -0.8593 -0.3837
  873MOL0     C15135   7.448  -0.899   5.258 -0.3773  0.4583  0.0056
  873MOL0     C15136   7.367  -0.943   5.158  0.3865  0.3336  0.6495
  873MOL0     C15137   7.229  -0.955   5.172 -0.2763 -0.4313 -1.2813
  873MOL0     C15138   7.157  -0.915   5.287 -0.5309  0.8073 -0.6524
  873MOL0     O15139   7.018  -0.928   5.290  0.7051 -0.3446 -0.6672
  873MOL0     C15140   6.936  -0.847   5.382  0.0196 -0.9462 -0.1101
  873MOL0     C15141   6.822  -0.931   5.442 -0.5200 -0.0437 -0.4071
  873MOL0     C15142   6.708  -0.948   5.338  0.4158 -0.1259  0.4343
  873MOL0     C15143   6.582  -1.027   5.391  0.1836  1.3653  0.1980
  873MOL0     C15144   6.489  -1.054   5.277  0.4685 -0.6367 -0.2553
  873MOL0     C15145   6.352  -1.104   5.337  0.1798 -0.0673  0.0955
  873MOL0     C15146   6.253  -1.107   5.221  0.2530  0.3143  0.0558
  873MOL0     C15147   6.118  -1.150   5.270 -0.3988  0.0649 -1.2363
  873MOL0    Cl15148   6.055  -1.043   5.401  0.4253 -0.3523  0.0472
  873MOL0     C15149   7.240  -0.869   5.394  0.4268 -0.0592 -0.0190
  873MOL0     C15150   7.380  -0.849   5.370  0.2105  0.7489 -0.3323
  873MOL0     O15151   7.593  -1.103   5.163 -0.0219 -0.3732 -0.1225
  873MOL0     C15152   7.839  -1.069   5.064 -0.6728 -0.1413 -0.3621
  873MOL0     C15153   7.970  -1.061   5.030 -0.3335 -0.0243 -0.0176
  873MOL0     N15154   8.755  -0.804   5.441  0.2303  0.6270 -0.1344
  873MOL0     N15155   8.824  -0.697   5.470 -0.2894  0.3916  0.5587
  873MOL0     C15156   9.910   0.204   5.300 -0.4161 -0.1707 -0.4221
  873MOL0     C15157  10.048   0.210   5.329  0.0427  0.0371  0.5465
  873MOL0     C15158  10.439   0.240   5.532  0.8993  0.4159  0.0680
  873MOL0     C15159  10.498   0.281   5.656  0.2315 -0.6181  0.3273
  873MOL0     C15160  10.637   0.294   5.673 -0.4168 -0.3166  0.5314
  873MOL0     C15161  10.719   0.256   5.565 -0.7564 -0.3232  0.4619
  873MOL0     O15162  10.856   0.266   5.563 -0.2560  0.0363  0.5158
  873MOL0     C15163  10.931   0.269   5.693 -1.4888 -0.6241 -0.2786
  873MOL0     C15164  11.067   0.330   5.671  0.2658 -0.2819 -0.1740
  873MOL0     C15165  11.173   0.339   5.782  0.0640  0.1276  0.2478
  873MOL0     C15166  11.226   0.195   5.809 -0.2376  0.7930 -0.0090
  873MOL0     C15167  11.327   0.212   5.913 -0.2851 -0.3167 -0.8064
  873MOL0     C15168  11.422   0.223   5.984 -0.3145  0.4305  0.1077
  873MOL0     C15169  10.658   0.217   5.443 -1.0047  0.5946 -0.5379
  873MOL0     C15170  10.522   0.204   5.430 -0.7251 -0.3351  0.2439
  873MOL0     H15171  10.077  -0.043   5.545  1.1992 -2.4551 -2.8932
  873MOL0     H15172   9.851  -0.079   5.482  1.8345 -2.0152 -2.7597
  873MOL0     H15173   9.632  -0.051   5.482  0.9352 -1.4208  0.0491
  873MOL0     H15174   9.707  -0.119   5.333  2.2973  2.6989 -2.7273
  873MOL0     H15175   9.504  -0.020   5.213 -0.5203 -1.1173  0.1245
  873MOL0     H15176   9.420   0.007   5.369 -0.4369 -0.6639  0.0206
  873MOL0     H15177   9.450  -0.235   5.419 -2.3282 -0.0400 -0.2490
  873MOL0     H15178   9.511  -0.259   5.261  0.9126 -1.2233  3.0139
  873MOL0     H15179   9.240  -0.136   5.315 -0.8625 -0.7482 -0.1056
  873MOL0     H15180   9.307  -0.199   5.162  0.5717 -2.3710 -0.3559
  873MOL0     H15181   9.270  -0.371   5.407  0.9293  4.1974  0.8144
  873MOL0     H15182   9.284  -0.434   5.242  0.3168 -0.5772 -1.4218
  873MOL0     H15183   9.054  -0.334   5.193  2.3507 -0.6451 -1.0353
  873MOL0     H15184   9.046  -0.281   5.367 -0.7756 -3.1271  2.7655
  873MOL0     H15185   9.045  -0.558   5.257 -0.8687 -1.0430 -0.0380
  873MOL0     H15186   9.075  -0.529   5.426  1.6259 -2.0824 -1.5779
  873MOL0     H15187   8.837  -0.432   5.270  2.4192 -0.4217 -1.8691
  873MOL0     H15188   8.868  -0.414   5.450  1.4725 -1.3391  1.2338
  873MOL0     H15189   8.685  -0.601   5.196 -2.5405 -1.9180 -0.7756
  873MOL0     H15190   8.614  -0.976   5.284 -1.4952  0.1001  3.8957
  873MOL0     H15191   8.584  -0.849   5.150 -0.2545  2.0116  0.6226
  873MOL0     H15192   8.406  -0.755   5.278 -1.1623  0.2120  0.7002
  873MOL0     H15193   8.447  -0.861   5.416 -0.0086  1.5243  0.0002
  873MOL0     H15194   8.376  -1.059   5.241 -1.6133 -0.8358 -1.5425
  873MOL0     H15195   8.247  -0.968   5.310 -0.7526 -2.3759 -0.9776
  873MOL0     H15196   8.381  -0.934   5.052 -1.4562 -1.4362 -1.2190
  873MOL0     H15197   8.277  -0.804   5.112  2.4869  0.7983 -0.8742
  873MOL0     H15198   8.056  -0.795   5.241  0.0393  0.7624 -0.7650
  873MOL0     H15199   7.826  -0.813   5.299 -1.3028  0.8663 -0.4626
  873MOL0     H15200   7.404  -0.965   5.059  0.2760 -2.5201  1.1530
  873MOL0     H15201   7.178  -0.984   5.081  0.8758  0.5223 -2.2587
  873MOL0     H15202   6.906  -0.752   5.338 -0.3141 -1.2586 -0.5739
  873MOL0     H15203   6.995  -0.817   5.469  0.3057  2.5036 -1.3626
  873MOL0     H15204   6.785  -0.891   5.537  0.8405  1.9152 -0.6412
  873MOL0     H15205   6.876  -1.024   5.460  0.9343  1.1497  1.8788
  873MOL0     H15206   6.749  -0.996   5.249 -0.8914  1.1196 -0.8905
  873MOL0     H15207   6.671  -0.853   5.298 -1.2389 -0.1384  1.8236
  873MOL0     H15208   6.617  -1.118   5.439 -0.7280  0.4523 -0.8136
  873MOL0     H15209   6.526  -0.971   5.466 -3.5448 -2.4602  0.6085
  873MOL0     H15210   6.535  -1.120   5.202  0.8483 -0.1520 -0.4535
  873MOL0     H15211   6.458  -0.959   5.232  3.8247 -0.4338 -2.4947
  873MOL0     H15212   6.319  -1.039   5.419 -1.5235  0.0484 -0.6354
  873MOL0     H15213   6.384  -1.200   5.380  3.4131  0.6412 -0.4534
  873MOL0     H15214   6.249  -1.009   5.174 -1.5333  1.6684  2.7405
  873MOL0     H15215   6.270  -1.181   5.142 -0.7964  0.6744 -0.5298
  873MOL0     H15216   6.126  -1.251   5.309 -1.3554  0.4457  0.0084
  873MOL0     H15217   6.052  -1.151   5.183  0.5008 -0.3462 -1.9375
  873MOL0     H15218   7.202  -0.833   5.489  0.8813 -2.1132  0.9813
  873MOL0     H15219   7.443  -0.799   5.443  0.1037  2.3229 -1.2634
  873MOL0     H15220   7.770  -1.127   5.003  1.3197 -1.7595 -1.1929
  873MOL0     H15221   8.001  -1.133   4.956 -1.1802 -0.3620 -0.0562
  873MOL0     H15222   9.852   0.266   5.233 -1.5461 -1.5971 -0.8301
  873MOL0     H15223  10.117   0.282   5.285  0.1647 -1.1837 -1.3891
  873MOL0     H15224  10.425   0.317   5.727  0.3365 -1.4640  0.8776
  873MOL0     H15225  10.677   0.333   5.766 -0.3062  1.2193 -0.1353
  873MOL0     H15226  10.927   0.169   5.737  1.2348 -0.8331 -0.3548
  873MOL0     H15227  10.892   0.328   5.776 -0.4466 -1.1829  0.6360
  873MOL0     H15228  11.105   0.268   5.589 -0.7793 -0.0844 -0.8190
  873MOL0     H15229  11.043   0.428   5.629 -1.5019 -1.9926 -3.5620
  873MOL0     H15230  11.135   0.374   5.879 -0.8117 -0.4094  0.1135
  873MOL0     H15231  11.242   0.414   5.741 -0.7104 -0.6766 -2.7373
  873MOL0     H15232  11.137   0.135   5.832 -0.6222  0.7363 -1.4974
  873MOL0     H15233  11.284   0.144   5.731  1.0379 -0.2302  1.5380
  873MOL0     H15234  11.508   0.210   6.047 -0.0505  0.6988 -0.1967
  873MOL0     H15235  10.722   0.198   5.357 -0.4605  1.3285 -0.3012
  873MOL0     H15236  10.486   0.186   5.330  0.0238  0.2788 -0.1440
  874MOL0     O15237  10.364   2.429   2.048 -0.5812  0.4619 -0.3797
  874MOL0     C15238  10.360   2.432   1.926  0.0715 -0.0360 -0.1041
  874MOL0     O15239  10.246   2.414   1.850  0.2436 -0.6346  0.2022
  874MOL0     C15240  10.132   2.384   1.916  0.7608  1.0880 -0.1951
  874MOL0     C15241  10.022   2.480   1.950 -1.0081  0.2633  0.1360
  874MOL0     C15242   9.904   2.428   2.008  0.1833 -0.0134  0.9525
  874MOL0     C15243   9.872   2.289   2.026 -0.2932  0.2700 -1.0237
  874MOL0     O15244   9.757   2.237   2.087 -0.2229  0.6721  0.1349
  874MOL0     C15245   9.632   2.306   2.079  0.0292 -0.2493 -0.1483
  874MOL0     C15246   9.525   2.212   2.037  0.0404 -0.8782 -0.0892
  874MOL0     C15247   9.388   2.272   2.072 -0.7121  0.3188 -0.6540
  874MOL0     C15248   9.360   2.408   2.010  0.7135 -0.4120 -0.2136
  874MOL0     C15249   9.223   2.457   2.073  0.0580 -0.8239  0.7802
  874MOL0     C15250   9.105   2.388   2.008 -0.8176  0.0002  0.2634
  874MOL0     C15251   8.967   2.415   2.071  0.4341  0.3920  0.0468
  874MOL0     C15252   8.863   2.354   1.977 -0.3106 -0.0839  0.2391
  874MOL0     N15253   8.734   2.336   2.043  0.3113  0.4561 -0.0526
  874MOL0     C15254   8.715   2.279   2.163  0.1779 -0.0544 -0.0000
  874MOL0     C15255   8.589   2.298   2.192  0.0869 -0.4285  0.3073
  874MOL0     C15256   8.525   2.282   2.314  0.2423 -0.7798 -0.6425
  874MOL0     C15257   8.377   2.328   2.311  0.3425 -1.2094 -0.7841
  874MOL0     C15258   8.282   2.282   2.424  0.0253 -0.3906  0.2158
  874MOL0     C15259   8.139   2.340   2.409  0.3555 -0.4647 -0.0836
  874MOL0     O15260   8.047   2.236   2.448  0.7384 -0.5733  0.5966
  874MOL0     C15261   7.913   2.274   2.455 -0.1173  0.3571 -0.6597
  874MOL0     C15262   7.816   2.173   2.457  0.0563 -0.4841 -0.0453
  874MOL0     C15263   7.683   2.194   2.465  0.1354  0.1751 -0.1414
  874MOL0     C15264   7.640   2.332   2.464 -0.6499  0.5878 -0.7576
  874MOL0     C15265   7.496   2.364   2.468 -0.2333  0.1784  0.0984
  874MOL0     O15266   7.401   2.276   2.521 -0.3585  0.6164  0.4153
  874MOL0     C15267   7.265   2.292   2.507 -0.3337 -0.1802  0.5729
  874MOL0     C15268   7.203   2.334   2.385 -0.1551  0.1070  1.3498
  874MOL0     C15269   7.057   2.332   2.375  0.2686  0.6502 -0.2377
  874MOL0     C15270   6.987   2.278   2.480 -0.0285 -0.1294  0.1266
  874MOL0     O15271   6.853   2.276   2.458 -0.0769 -0.0783 -0.2364
  874MOL0     C15272   6.778   2.354   2.554 -0.6258  0.3961  0.6948
  874MOL0     C15273   6.637   2.306   2.535  0.7553  0.0749  0.2436
  874MOL0     C15274   6.551   2.364   2.651 -0.3801  0.6842 -0.9134
  874MOL0     C15275   6.533   2.520   2.648 -0.2972  0.9088  0.2151
  874MOL0     C15276   6.448   2.560   2.774 -0.0699  0.3641  0.4581
  874MOL0     C15277   6.298   2.569   2.738 -0.7415 -0.0734  0.0966
  874MOL0     C15278   6.212   2.599   2.858 -0.9541  0.4683  0.6834
  874MOL0     C15279   6.231   2.732   2.927  0.5187  0.0470 -0.9113
  874MOL0    Cl15280   6.383   2.731   3.029 -0.1146  0.1196  0.7979
  874MOL0     C15281   7.042   2.238   2.601  0.9017  0.7316  0.2800
  874MOL0     C15282   7.181   2.243   2.613 -0.1576  0.7206  0.0082
  874MOL0     O15283   7.472   2.478   2.427 -0.1635  1.0661 -0.3499
  874MOL0     C15284   7.736   2.441   2.476  0.2809  0.9398  0.7620
  874MOL0     C15285   7.869   2.408   2.466 -0.3044  0.1521 -1.1323
  874MOL0     N15286   8.530   2.351   2.080  0.2823 -0.7497 -0.4425
  874MOL0     N15287   8.611   2.370   1.989 -0.6864 -1.0644  0.1450
  874MOL0     C15288   9.978   2.205   1.993 -0.7049  0.5401 -0.3103
  874MOL0     C15289  10.094   2.252   1.931 -0.1371  1.0062 -0.3948
  874MOL0     C15290  10.475   2.431   1.842 -0.4307  0.1655 -0.7189
  874MOL0     C15291  10.593   2.457   1.914 -0.1079 -0.5249 -0.0785
  874MOL0     C15292  10.712   2.460   1.843  0.2857  0.3058  0.9207
  874MOL0     C15293  10.720   2.443   1.703 -0.8263  0.4821  0.1382
  874MOL0     O15294  10.840   2.460   1.624 -0.0756 -0.2013 -0.1186
  874MOL0     C15295  10.947   2.541   1.691 -0.0752  0.5336  0.7253
  874MOL0     C15296  11.059   2.572   1.593  1.2864  0.8843 -0.6606
  874MOL0     C15297  11.055   2.711   1.543  0.4744 -0.2431 -0.0941
  874MOL0     C15298  11.180   2.732   1.450  0.1351  0.3850  0.1096
  874MOL0     C15299  11.186   2.875   1.407  0.4180  0.3707  0.0399
  874MOL0     C15300  11.200   2.988   1.376 -0.0445 -0.5101  0.7390
  874MOL0     C15301  10.608   2.395   1.642 -0.1348 -0.1789 -0.0782
  874MOL0     C15302  10.479   2.398   1.707 -0.5655  0.1747 -0.7909
  874MOL0     H15303  10.039   2.585   1.932  3.9409  0.4511  3.8544
  874MOL0     H15304   9.826   2.500   2.031  0.4327  1.4214 -2.2035
  874MOL0     H15305   9.645   2.395   2.017  1.7000 -1.3888 -1.5180
  874MOL0     H15306   9.610   2.337   2.182  2.6240  0.2198  0.3339
  874MOL0     H15307   9.539   2.115   2.086 -0.0530 -1.0971 -0.4934
  874MOL0     H15308   9.515   2.204   1.929 -1.1337 -0.0327 -0.0659
  874MOL0     H15309   9.379   2.282   2.181 -1.7502 -1.7504 -0.5043
  874MOL0     H15310   9.313   2.197   2.047 -1.2925  0.7895 -0.3593
  874MOL0     H15311   9.439   2.480   2.036 -0.2974  1.5524 -2.2108
  874MOL0     H15312   9.350   2.397   1.902 -0.6188 -0.8743 -0.0590
  874MOL0     H15313   9.215   2.566   2.061 -0.0670 -0.9737 -0.7154
  874MOL0     H15314   9.214   2.435   2.180  3.5709 -2.3257  0.8882
  874MOL0     H15315   9.120   2.280   2.002 -0.9545  0.0245 -0.6315
  874MOL0     H15316   9.121   2.424   1.907  2.2789  0.7172  0.8992
  874MOL0     H15317   8.966   2.363   2.167  1.2904  0.9512  0.3644
  874MOL0     H15318   8.947   2.520   2.092  2.2235  0.2181  3.2459
  874MOL0     H15319   8.903   2.258   1.943  0.4895  1.0173 -2.2026
  874MOL0     H15320   8.860   2.418   1.888  0.8411 -1.5185 -0.8928
  874MOL0     H15321   8.788   2.242   2.234  0.1315 -0.5421 -0.2062
  874MOL0     H15322   8.573   2.354   2.381  0.3024  1.0575 -2.5788
  874MOL0     H15323   8.526   2.178   2.349 -0.4362 -0.9884 -1.2258
  874MOL0     H15324   8.334   2.276   2.225 -0.7002 -1.7041  0.0204
  874MOL0     H15325   8.374   2.437   2.301  2.9548 -0.6656  2.5178
  874MOL0     H15326   8.282   2.173   2.432  2.2019 -0.4367  0.2764
  874MOL0     H15327   8.314   2.299   2.528  0.5573 -2.2309  0.3969
  874MOL0     H15328   8.109   2.377   2.311 -1.6102 -2.2309 -0.2032
  874MOL0     H15329   8.133   2.425   2.477  1.2722  0.2869 -0.9017
  874MOL0     H15330   7.838   2.067   2.449 -0.5393 -0.4855 -3.0108
  874MOL0     H15331   7.617   2.109   2.470 -0.5955  0.7381  4.4038
  874MOL0     H15332   7.260   2.383   2.307 -3.3924 -0.4363 -1.6006
  874MOL0     H15333   7.006   2.363   2.285  3.7426  1.1771 -2.2188
  874MOL0     H15334   6.780   2.458   2.521 -1.5891  0.0011 -0.7091
  874MOL0     H15335   6.803   2.337   2.659  3.7521 -1.0408 -0.3506
  874MOL0     H15336   6.631   2.197   2.533 -0.3609  0.0002  3.0687
  874MOL0     H15337   6.603   2.341   2.437 -2.1584  1.7280  1.7132
  874MOL0     H15338   6.594   2.345   2.750 -3.0619 -2.7004 -0.2335
  874MOL0     H15339   6.450   2.324   2.648 -1.9978  4.4064 -1.0640
  874MOL0     H15340   6.632   2.568   2.653  0.5593 -0.3997 -2.3097
  874MOL0     H15341   6.482   2.551   2.557 -1.1622 -2.0761 -0.4176
  874MOL0     H15342   6.484   2.654   2.817 -0.1247  1.0753 -0.9861
  874MOL0     H15343   6.470   2.492   2.856 -1.4045  2.2238  2.4753
  874MOL0     H15344   6.280   2.467   2.702  1.4093 -1.1912  1.9108
  874MOL0     H15345   6.275   2.639   2.658 -0.7871 -1.2505 -0.9610
  874MOL0     H15346   6.109   2.600   2.821 -0.7227 -1.4171 -0.1206
  874MOL0     H15347   6.227   2.517   2.928 -1.4644 -2.3743 -2.2981
  874MOL0     H15348   6.149   2.759   2.994  0.9987 -0.5110 -0.0770
  874MOL0     H15349   6.236   2.811   2.852 -2.9532  1.3584  0.0577
  874MOL0     H15350   6.988   2.196   2.685  1.3762 -2.5307 -0.9013
  874MOL0     H15351   7.219   2.197   2.704  0.7839  0.2959 -0.5861
  874MOL0     H15352   7.709   2.546   2.479  1.2577  1.1828  1.7156
  874MOL0     H15353   7.930   2.497   2.483 -1.7794  1.4861 -2.4979
  874MOL0     H15354   9.949   2.101   2.000  0.4275  0.2105 -0.2413
  874MOL0     H15355  10.168   2.176   1.906  0.1274  1.3240 -0.5869
  874MOL0     H15356  10.602   2.476   2.020  3.3499 -1.0950 -0.1465
  874MOL0     H15357  10.804   2.473   1.900  0.7257  0.9308  0.0862
  874MOL0     H15358  10.998   2.490   1.773  2.5553 -0.5756 -1.4420
  874MOL0     H15359  10.909   2.638   1.725 -0.8169  1.0046 -1.2817
  874MOL0     H15360  11.154   2.547   1.641  0.2760  0.8197  1.3745
  874MOL0     H15361  11.049   2.507   1.505  0.8987 -2.7926  1.9094
  874MOL0     H15362  11.066   2.780   1.627 -1.6640  2.3706 -1.8059
  874MOL0     H15363  10.956   2.730   1.500 -1.7093 -2.5600  3.3548
  874MOL0     H15364  11.272   2.702   1.500 -0.5663 -3.2341 -0.4519
  874MOL0     H15365  11.179   2.669   1.360 -0.3696  1.1170 -0.4100
  874MOL0     H15366  11.209   3.092   1.351 -3.2924 -0.3563 -0.1704
  874MOL0     H15367  10.617   2.353   1.542 -0.5897  1.0473 -0.6551
  874MOL0     H15368  10.398   2.363   1.644 -2.8614  2.4925  0.6852
  875MOL0     O15369   6.178   2.750   2.253 -0.1742  0.6774 -0.6458
  875MOL0     C15370   6.196   2.773   2.372  0.7136 -0.4134  0.6235
  875MOL0     O15371   6.092   2.791   2.470 -0.1181  0.5726  0.5548
  875MOL0     C15372   5.957   2.783   2.434 -0.2219 -0.1855  0.8063
  875MOL0     C15373   5.904   2.846   2.321 -0.2531 -0.5492 -0.0679
  875MOL0     C15374   5.765   2.840   2.301 -0.7317 -0.6381 -0.2875
  875MOL0     C15375   5.676   2.768   2.390 -0.9564  1.4104  0.4754
  875MOL0     O15376   5.542   2.750   2.381  0.6656 -0.4871 -0.1395
  875MOL0     C15377   5.465   2.815   2.281  0.1940 -0.1260 -0.5853
  875MOL0     C15378   5.339   2.737   2.252  0.5974 -0.0594 -0.4597
  875MOL0     C15379   5.246   2.824   2.168  0.2808  0.0622 -0.3568
  875MOL0     C15380   5.099   2.780   2.177 -0.2292  0.5430  0.4098
  875MOL0     C15381   4.992   2.882   2.115  0.2978  0.0514  0.2710
  875MOL0     C15382   4.852   2.820   2.104  0.3289 -0.5153  0.5743
  875MOL0     C15383   4.749   2.908   2.031  0.2007  0.3874 -0.7771
  875MOL0     C15384   4.728   3.053   2.083  0.2781 -0.2694 -0.6620
  875MOL0     N15385   4.614   3.111   2.013 -0.7247 -0.2703  0.8791
  875MOL0     C15386   4.489   3.144   2.068  0.0085 -0.3949  0.3407
  875MOL0     C15387   4.433   3.220   1.971  0.3871  0.0727  0.9753
  875MOL0     C15388   4.301   3.290   1.994 -0.2069  0.5905  0.1630
  875MOL0     C15389   4.197   3.231   1.904 -1.2063  0.2440  0.2844
  875MOL0     C15390   4.217   3.245   1.746 -0.9472  0.0650  0.4696
  875MOL0     C15391   4.082   3.223   1.678  0.5297 -0.4487  0.0737
  875MOL0     O15392   4.032   3.080   1.693 -0.4701 -0.3299 -0.5423
  875MOL0     C15393   3.898   3.051   1.664 -0.5693  0.7947 -0.1804
  875MOL0     C15394   3.871   2.925   1.708 -0.0374  0.2820  0.0066
  875MOL0     C15395   3.745   2.885   1.679  0.0508  0.8607  0.0142
  875MOL0     C15396   3.650   2.962   1.606 -0.2974  0.1878  0.4495
  875MOL0     C15397   3.507   2.923   1.577 -0.2674 -0.0491  0.2023
  875MOL0     O15398   3.425   2.994   1.495  0.5075 -0.0353 -1.0590
  875MOL0     C15399   3.291   2.949   1.491 -0.3380 -0.2709  0.1575
  875MOL0     C15400   3.251   2.863   1.389 -0.3985 -1.0059  0.0528
  875MOL0     C15401   3.115   2.822   1.383  0.3394  0.4455  0.3047
  875MOL0     C15402   3.019   2.870   1.473  0.0093 -0.2355 -0.9549
  875MOL0     O15403   2.882   2.843   1.455 -0.0720  0.1785  0.0408
  875MOL0     C15404   2.785   2.866   1.560 -0.3053  0.5881  0.3492
  875MOL0     C15405   2.727   3.009   1.556  0.5283 -0.6402  0.6680
  875MOL0     C15406   2.704   3.055   1.405 -0.3401  0.3298 -0.2716
  875MOL0     C15407   2.664   3.202   1.409  0.1503 -0.3010 -0.4035
  875MOL0     C15408   2.501   3.221   1.410 -0.5665  0.2650  0.0363
  875MOL0     C15409   2.436   3.177   1.278 -0.3115 -0.1839  0.2010
  875MOL0     C15410   2.284   3.208   1.262  0.4061  0.0392  0.4397
  875MOL0     C15411   2.200   3.132   1.372 -0.5640 -0.0014 -0.3069
  875MOL0    Cl15412   2.017   3.157   1.348 -0.2835 -0.5641  0.3534
  875MOL0     C15413   3.064   2.954   1.577  0.6352 -0.9421  0.4933
  875MOL0     C15414   3.196   2.998   1.579 -0.9535  0.2375 -0.5219
  875MOL0     O15415   3.471   2.823   1.637 -0.3268 -0.0125 -0.4068
  875MOL0     C15416   3.681   3.090   1.559 -0.1192 -0.5011 -0.6651
  875MOL0     C15417   3.812   3.133   1.590  1.1428  0.0501 -0.6675
  875MOL0     N15418   4.513   3.230   1.856  0.3238 -0.1384 -0.1588
  875MOL0     N15419   4.622   3.164   1.880 -0.2647  0.0924  0.3546
  875MOL0     C15420   5.740   2.696   2.491 -0.3928  0.3829 -0.2067
  875MOL0     C15421   5.871   2.710   2.514 -0.3179  0.9151  0.2046
  875MOL0     C15422   6.335   2.804   2.412 -0.0597 -0.0215  0.5825
  875MOL0     C15423   6.356   2.856   2.539 -0.5335 -0.5183  0.1953
  875MOL0     C15424   6.490   2.874   2.585 -0.6449  0.5366  0.4788
  875MOL0     C15425   6.597   2.843   2.508 -0.4741 -0.1336 -0.6532
  875MOL0     O15426   6.722   2.853   2.563  0.0841  0.2255 -0.3103
  875MOL0     C15427   6.836   2.784   2.516  0.2944  0.1275  1.3446
  875MOL0     C15428   6.900   2.735   2.644  0.1514 -0.6327 -0.1852
  875MOL0     C15429   6.939   2.848   2.740 -1.2072 -0.5459 -0.4678
  875MOL0     C15430   6.985   2.800   2.874  0.3258  1.2424 -0.3919
  875MOL0     C15431   7.008   2.906   2.975  0.3216 -0.2539 -0.0853
  875MOL0     C15432   7.025   3.000   3.052 -0.5939 -0.6884  0.0824
  875MOL0     C15433   6.581   2.797   2.374 -0.2977 -0.3867 -0.8121
  875MOL0     C15434   6.444   2.776   2.328  0.4931 -0.3606  0.0034
  875MOL0     H15435   5.966   2.898   2.249 -1.5638  0.4501 -0.5131
  875MOL0     H15436   5.720   2.872   2.207  0.6374 -0.6872 -0.9851
  875MOL0     H15437   5.522   2.816   2.188  1.4029 -0.6987  0.1244
  875MOL0     H15438   5.435   2.913   2.319  0.6184 -0.8491  1.7613
  875MOL0     H15439   5.280   2.716   2.342 -0.0828  0.4666 -0.7759
  875MOL0     H15440   5.364   2.647   2.194  1.3341  1.3309 -2.4198
  875MOL0     H15441   5.273   2.827   2.062 -1.7876 -1.2538 -0.9823
  875MOL0     H15442   5.257   2.925   2.209  1.4240 -1.5759  3.9555
  875MOL0     H15443   5.102   2.689   2.117  0.3356 -0.3953  1.8239
  875MOL0     H15444   5.067   2.747   2.276  0.4681 -2.8130 -0.3530
  875MOL0     H15445   5.036   2.906   2.018 -0.3749  1.5157  0.3153
  875MOL0     H15446   4.977   2.977   2.166  0.2265 -1.1883  2.7455
  875MOL0     H15447   4.815   2.822   2.206 -0.5524  0.8720  0.2518
  875MOL0     H15448   4.862   2.718   2.064 -1.0339 -0.7323  0.7446
  875MOL0     H15449   4.778   2.910   1.925  0.6855  2.1299 -0.6522
  875MOL0     H15450   4.654   2.858   2.048  1.0071 -1.1118 -0.5835
  875MOL0     H15451   4.816   3.112   2.054  2.8483 -0.3581  5.5231
  875MOL0     H15452   4.735   3.052   2.192  1.3036 -1.3221 -0.7148
  875MOL0     H15453   4.436   3.110   2.156 -2.8056  1.0039 -0.6869
  875MOL0     H15454   4.307   3.398   1.975  0.2567  0.5238 -0.0847
  875MOL0     H15455   4.262   3.271   2.094 -1.2822 -0.2060 -0.3906
  875MOL0     H15456   4.103   3.287   1.914 -1.5951 -0.1930 -0.7851
  875MOL0     H15457   4.193   3.126   1.932 -1.9537  0.0662 -0.4607
  875MOL0     H15458   4.263   3.342   1.726 -2.1292  1.2507  3.0456
  875MOL0     H15459   4.281   3.164   1.710 -1.6314 -0.5500  0.6076
  875MOL0     H15460   4.078   3.243   1.570 -1.4298 -2.7254 -0.3746
  875MOL0     H15461   4.004   3.283   1.726  1.3315  3.2642 -2.7797
  875MOL0     H15462   3.930   2.860   1.771  0.1319  0.9789  0.5804
  875MOL0     H15463   3.713   2.785   1.707  1.0823  0.4962 -0.0790
  875MOL0     H15464   3.326   2.828   1.319 -2.2327 -1.6562 -1.6715
  875MOL0     H15465   3.090   2.747   1.309  2.6897 -0.0090 -0.1130
  875MOL0     H15466   2.828   2.837   1.657  1.5522  1.1050 -0.2798
  875MOL0     H15467   2.698   2.803   1.544 -0.3684  1.3914 -3.2181
  875MOL0     H15468   2.792   3.075   1.614 -0.7415  1.3066 -0.0558
  875MOL0     H15469   2.625   3.012   1.595  0.1357  2.4399 -0.3782
  875MOL0     H15470   2.638   2.992   1.344  0.7052  0.1633 -1.2690
  875MOL0     H15471   2.800   3.046   1.353 -0.3032  0.6869 -0.2658
  875MOL0     H15472   2.709   3.246   1.499 -2.4142  0.7957  0.4328
  875MOL0     H15473   2.707   3.251   1.322 -0.7788 -1.1960 -1.3923
  875MOL0     H15474   2.477   3.326   1.432  1.6813  1.5015 -2.7967
  875MOL0     H15475   2.458   3.162   1.491 -0.1618 -0.6426 -0.4019
  875MOL0     H15476   2.451   3.069   1.273 -1.4788 -0.3237 -0.8112
  875MOL0     H15477   2.493   3.218   1.194  0.9433  2.2119  2.0858
  875MOL0     H15478   2.268   3.314   1.284 -2.2159 -0.4781  1.3088
  875MOL0     H15479   2.252   3.190   1.159  0.8972 -0.4723  0.3729
  875MOL0     H15480   2.236   3.154   1.473 -2.1821  1.9875 -0.0924
  875MOL0     H15481   2.212   3.026   1.352 -2.8390 -0.4325  0.3655
  875MOL0     H15482   2.998   2.998   1.651  3.9078 -3.2977  5.3654
  875MOL0     H15483   3.247   3.059   1.652 -1.5784  1.0871 -0.7836
  875MOL0     H15484   3.611   3.149   1.499  0.6030  0.6809 -0.3830
  875MOL0     H15485   3.851   3.230   1.562  1.6902  0.0412  0.0456
  875MOL0     H15486   5.693   2.634   2.567 -0.3832  0.0150 -0.4988
  875MOL0     H15487   5.908   2.657   2.600 -3.2466  0.6940  1.4315
  875MOL0     H15488   6.278   2.899   2.600  0.3413  0.5996  0.5497
  875MOL0     H15489   6.511   2.910   2.686  1.7119 -0.4132  0.3779
  875MOL0     H15490   6.905   2.847   2.458  2.0736 -2.9553 -0.2006
  875MOL0     H15491   6.809   2.696   2.457 -0.0004 -0.2250  1.9965
  875MOL0     H15492   6.825   2.670   2.691 -1.3492  1.0016 -0.2188
  875MOL0     H15493   6.987   2.673   2.621  1.0326  0.8854 -1.1306
  875MOL0     H15494   6.849   2.905   2.764 -0.2085  0.7119  0.4032
  875MOL0     H15495   7.020   2.911   2.703 -0.8429 -1.1240 -0.6768
  875MOL0     H15496   6.910   2.732   2.914  2.8590 -2.4015 -1.3180
  875MOL0     H15497   7.074   2.738   2.856 -1.7793 -2.0706 -0.1407
  875MOL0     H15498   7.050   3.091   3.101  0.8138 -0.8306 -0.3395
  875MOL0     H15499   6.668   2.786   2.311  1.8330 -1.1674  2.0686
  875MOL0     H15500   6.428   2.722   2.235  1.1872 -1.5086  0.5371
  876MOL0     O15501   7.252   7.176   2.261  0.6472  0.2822 -0.0787
  876MOL0     C15502   7.206   7.078   2.198 -0.3518 -0.1082 -0.1808
  876MOL0     O15503   7.068   7.058   2.180 -0.0787  0.3313  0.2061
  876MOL0     C15504   6.983   7.145   2.251  0.0997 -0.5074  0.9105
  876MOL0     C15505   6.860   7.168   2.187  0.1914  0.1008  0.6996
  876MOL0     C15506   6.751   7.225   2.250 -0.0239  0.1494  1.4186
  876MOL0     C15507   6.764   7.252   2.393  0.4389  0.5930  0.5956
  876MOL0     O15508   6.672   7.294   2.487 -0.5297  0.0888 -0.1534
  876MOL0     C15509   6.526   7.301   2.469 -0.7337  0.3481 -0.0510
  876MOL0     C15510   6.475   7.314   2.607  0.1314 -0.4287 -0.8058
  876MOL0     C15511   6.334   7.377   2.627 -0.1374  0.0722  0.1123
  876MOL0     C15512   6.214   7.293   2.572  0.6595 -0.0819 -1.0522
  876MOL0     C15513   6.078   7.359   2.571 -0.4333 -0.0021 -0.6532
  876MOL0     C15514   6.027   7.405   2.705 -0.1631  0.1793 -0.1566
  876MOL0     C15515   6.006   7.279   2.803 -0.1837 -0.3545 -0.6300
  876MOL0     C15516   5.896   7.303   2.910 -0.3505  0.3542  0.0353
  876MOL0     N15517   5.920   7.427   2.987 -0.3698  0.2661  0.4614
  876MOL0     C15518   6.035   7.468   3.050 -0.5773 -1.0335  0.1646
  876MOL0     C15519   6.013   7.604   3.087  0.2717 -0.0965 -0.7430
  876MOL0     C15520   6.123   7.691   3.139 -0.8862 -0.2309  0.1866
  876MOL0     C15521   6.110   7.738   3.281  0.0402 -0.3057  0.6483
  876MOL0     C15522   5.998   7.833   3.311  0.4619  1.1962 -0.3794
  876MOL0     C15523   5.995   7.958   3.221 -0.8454 -0.1134 -0.8539
  876MOL0     O15524   5.927   8.068   3.277  0.1609  0.2714  0.4123
  876MOL0     C15525   5.794   8.083   3.265 -0.5181  0.3525 -0.3157
  876MOL0     C15526   5.735   8.179   3.337 -0.3010  0.4810 -0.0379
  876MOL0     C15527   5.600   8.211   3.317  0.0643 -0.0200  0.0152
  876MOL0     C15528   5.521   8.136   3.236 -0.8233 -0.1095  0.9559
  876MOL0     C15529   5.378   8.181   3.210 -0.7667  0.4109 -0.1293
  876MOL0     O15530   5.336   8.296   3.265 -0.3703 -0.7407 -0.1930
  876MOL0     C15531   5.199   8.324   3.254 -0.4217  0.1308 -0.7978
  876MOL0     C15532   5.123   8.313   3.131 -0.5870  0.3361 -0.3792
  876MOL0     C15533   4.994   8.359   3.128  0.9352 -1.0756 -0.0631
  876MOL0     C15534   4.925   8.415   3.243 -0.5693  1.0014 -0.5109
  876MOL0     O15535   4.794   8.448   3.240  0.6990  0.0793 -0.2988
  876MOL0     C15536   4.731   8.476   3.109  0.1855 -0.5339 -0.0765
  876MOL0     C15537   4.631   8.593   3.135  0.1342  0.2789 -0.5531
  876MOL0     C15538   4.510   8.549   3.214  0.0972 -0.4017  0.3722
  876MOL0     C15539   4.418   8.675   3.241 -0.5715  0.1798 -0.7048
  876MOL0     C15540   4.274   8.625   3.255  0.2137 -0.2141  0.1585
  876MOL0     C15541   4.173   8.740   3.295 -0.4228  0.1456  0.5672
  876MOL0     C15542   4.043   8.680   3.342  0.4793 -0.5364 -0.4099
  876MOL0     C15543   3.979   8.766   3.450  0.6160  0.4368 -0.2463
  876MOL0    Cl15544   3.860   8.674   3.551  0.0820  0.0983 -0.1584
  876MOL0     C15545   5.001   8.417   3.358 -0.1444  0.5113 -0.1737
  876MOL0     C15546   5.136   8.381   3.362 -0.2956 -0.2370 -0.6703
  876MOL0     O15547   5.318   8.099   3.139  0.1915 -0.2163 -0.1121
  876MOL0     C15548   5.582   8.028   3.166 -0.0780 -0.1332  0.2851
  876MOL0     C15549   5.718   8.007   3.180  0.7589  0.3911  0.3593
  876MOL0     N15550   5.884   7.636   3.060  0.7813  0.7781 -0.6052
  876MOL0     N15551   5.823   7.526   3.008  0.0396 -0.1282 -0.6233
  876MOL0     C15552   6.882   7.221   2.452  0.0768  0.3582  0.9512
  876MOL0     C15553   7.001   7.174   2.386  0.8854  0.1082  0.6566
  876MOL0     C15554   7.301   6.990   2.128 -0.3136  0.1576 -1.1405
  876MOL0     C15555   7.263   6.859   2.088 -0.1104  0.4851 -0.0874
  876MOL0     C15556   7.363   6.766   2.041 -0.6963 -0.3130  0.0537
  876MOL0     C15557   7.502   6.792   2.054 -0.0336 -0.1655 -0.0317
  876MOL0     O15558   7.605   6.705   2.028  0.3860 -0.6954  0.5377
  876MOL0     C15559   7.579   6.574   1.990  0.0296 -0.5154 -0.0151
  876MOL0     C15560   7.709   6.511   1.944 -0.6739  0.8614 -0.0339
  876MOL0     C15561   7.769   6.421   2.058  0.9686  0.8778  0.4402
  876MOL0     C15562   7.855   6.507   2.151 -0.5450  0.5527 -0.0551
  876MOL0     C15563   7.951   6.428   2.231 -0.6880  0.1174  0.1911
  876MOL0     C15564   8.039   6.363   2.282  0.8597  0.4004  0.0742
  876MOL0     C15565   7.523   6.917   2.109 -0.9619  0.7398  0.5067
  876MOL0     C15566   7.437   7.014   2.141  0.7436 -0.5627 -0.1265
  876MOL0     H15567   6.847   7.120   2.090  0.6366 -2.6136  1.8890
  876MOL0     H15568   6.659   7.238   2.194  0.7405 -3.3081 -0.9655
  876MOL0     H15569   6.481   7.223   2.407  0.9095  1.6046 -3.0382
  876MOL0     H15570   6.510   7.398   2.421 -2.4290  0.0213 -0.2081
  876MOL0     H15571   6.544   7.376   2.665 -0.4031  0.2398 -0.8667
  876MOL0     H15572   6.486   7.216   2.655 -1.9101 -0.2112  0.2344
  876MOL0     H15573   6.324   7.473   2.575 -1.2422 -1.5964 -3.0356
  876MOL0     H15574   6.318   7.387   2.735  0.4887 -2.7031  0.5223
  876MOL0     H15575   6.250   7.264   2.473  0.1955 -0.6013 -1.0756
  876MOL0     H15576   6.202   7.198   2.625 -0.8723  0.9270  0.5152
  876MOL0     H15577   6.016   7.282   2.524  3.1597 -0.9221 -4.3287
  876MOL0     H15578   6.067   7.441   2.500 -2.3160 -0.7828 -1.3570
  876MOL0     H15579   5.933   7.454   2.679 -0.9920 -1.6473 -0.8054
  876MOL0     H15580   6.104   7.474   2.740 -0.9132 -0.8795  4.1184
  876MOL0     H15581   5.978   7.190   2.746  1.7906 -2.5591  1.6089
  876MOL0     H15582   6.097   7.243   2.852 -1.5150 -2.3806  0.4989
  876MOL0     H15583   5.894   7.215   2.974 -0.9567 -0.1171 -0.6100
  876MOL0     H15584   5.794   7.315   2.873 -0.4987  1.1732  0.6776
  876MOL0     H15585   6.128   7.412   3.050  0.5405  0.6615 -1.8976
  876MOL0     H15586   6.151   7.772   3.071  1.8190 -2.5706 -1.6794
  876MOL0     H15587   6.211   7.627   3.143 -0.4192  0.0464 -3.2171
  876MOL0     H15588   6.201   7.789   3.315 -0.5293  0.7475  0.5932
  876MOL0     H15589   6.099   7.644   3.336  1.7657  0.1368  1.8612
  876MOL0     H15590   5.905   7.776   3.304  2.4428 -3.1168  3.4608
  876MOL0     H15591   6.012   7.868   3.413  1.1040  1.5466 -0.5854
  876MOL0     H15592   5.967   7.920   3.123  2.2960 -1.3209 -1.4179
  876MOL0     H15593   6.100   7.988   3.211 -0.4329 -0.9817  0.5928
  876MOL0     H15594   5.794   8.238   3.407 -1.7190  2.4504 -0.4090
  876MOL0     H15595   5.566   8.299   3.369 -0.5787 -0.6873  0.7435
  876MOL0     H15596   5.170   8.265   3.046 -0.3841  2.3533 -1.4672
  876MOL0     H15597   4.927   8.326   3.049 -2.1825  2.3312  0.8659
  876MOL0     H15598   4.686   8.380   3.082  0.3993 -0.6610  0.0186
  876MOL0     H15599   4.796   8.510   3.027  1.2552 -1.2530  0.4429
  876MOL0     H15600   4.602   8.637   3.039  0.0294  1.5985  0.0633
  876MOL0     H15601   4.674   8.672   3.198  0.9845 -0.5912 -0.0028
  876MOL0     H15602   4.534   8.500   3.309  2.5010  2.2476  1.2895
  876MOL0     H15603   4.459   8.478   3.149 -2.6455  1.9313 -0.2556
  876MOL0     H15604   4.443   8.717   3.340 -1.9014  2.2134 -1.1634
  876MOL0     H15605   4.433   8.754   3.167 -1.0571  0.7111 -0.2542
  876MOL0     H15606   4.276   8.546   3.331 -2.0150  0.4094  0.9187
  876MOL0     H15607   4.229   8.575   3.169 -0.3325  1.6724 -0.7001
  876MOL0     H15608   4.150   8.803   3.208 -2.9448 -2.3476 -0.7362
  876MOL0     H15609   4.215   8.798   3.378 -0.3831 -0.8649  1.2675
  876MOL0     H15610   3.977   8.660   3.257  0.3135 -2.2328  0.0819
  876MOL0     H15611   4.056   8.578   3.381 -2.7686 -1.9640 -2.6231
  876MOL0     H15612   3.926   8.851   3.408 -2.0256  0.2446  2.3703
  876MOL0     H15613   4.053   8.799   3.524  3.4288  0.3926 -2.8410
  876MOL0     H15614   4.960   8.466   3.446  0.6119  2.5429 -0.8893
  876MOL0     H15615   5.193   8.392   3.454  1.8616 -2.5446 -1.5999
  876MOL0     H15616   5.518   7.960   3.111 -4.0230  0.7378  3.2718
  876MOL0     H15617   5.759   7.932   3.113  0.3578 -0.9862  1.5818
  876MOL0     H15618   6.878   7.255   2.555 -2.9698  1.9094  0.4560
  876MOL0     H15619   7.087   7.147   2.446 -2.6782 -3.4687  4.8883
  876MOL0     H15620   7.156   6.843   2.083 -0.3565  0.8090  2.6349
  876MOL0     H15621   7.337   6.665   2.009  3.4075 -1.2553 -0.8780
  876MOL0     H15622   7.509   6.583   1.907  1.5861  3.2678 -1.1511
  876MOL0     H15623   7.536   6.514   2.071 -0.3903 -1.0397 -0.6169
  876MOL0     H15624   7.696   6.442   1.859  0.6426 -2.2427  2.0766
  876MOL0     H15625   7.791   6.577   1.914  1.5788 -0.8024  2.0289
  876MOL0     H15626   7.825   6.340   2.012  0.1344  0.2052  0.5789
  876MOL0     H15627   7.691   6.366   2.112  1.2139 -1.5863 -1.5583
  876MOL0     H15628   7.903   6.582   2.087  0.3742  0.5787  0.6421
  876MOL0     H15629   7.790   6.561   2.221 -0.8168  1.1537 -0.7638
  876MOL0     H15630   8.114   6.310   2.337  0.8251  0.0052 -0.2577
  876MOL0     H15631   7.628   6.935   2.129 -1.0167  1.2462  0.3696
  876MOL0     H15632   7.486   7.104   2.178  0.1228  0.2611 -1.2488
  877MOL0     O15633   6.986   2.739   0.486  0.2101 -0.5560  0.8526
  877MOL0     C15634   7.037   2.695   0.587  0.4894  0.7335 -0.0020
  877MOL0     O15635   6.970   2.658   0.701  0.0339  0.2787  0.4318
  877MOL0     C15636   6.827   2.682   0.712 -0.6201 -0.8315 -0.5375
  877MOL0     C15637   6.734   2.663   0.610  0.4609  0.2549  0.3553
  877MOL0     C15638   6.598   2.675   0.636  0.4272 -0.7250 -0.0582
  877MOL0     C15639   6.546   2.716   0.762 -1.1084  0.0964 -0.2629
  877MOL0     O15640   6.417   2.736   0.774  0.8636 -0.7752 -0.5403
  877MOL0     C15641   6.365   2.849   0.857  0.7514  0.1308  0.7448
  877MOL0     C15642   6.234   2.904   0.801  0.2456 -0.0509  0.2488
  877MOL0     C15643   6.120   2.796   0.798 -0.2948 -0.5953 -0.7137
  877MOL0     C15644   5.989   2.870   0.760 -0.3571  0.7383  1.0120
  877MOL0     C15645   5.875   2.778   0.763  0.1532  0.8055 -0.6284
  877MOL0     C15646   5.747   2.852   0.738 -0.1785 -0.0660  0.2593
  877MOL0     C15647   5.648   2.764   0.656  0.3298  0.4045 -0.2729
  877MOL0     C15648   5.617   2.618   0.728  0.1090  1.2156  0.3974
  877MOL0     N15649   5.469   2.596   0.746  0.1290 -0.5361  0.2341
  877MOL0     C15650   5.377   2.662   0.819 -0.8324 -1.4314 -0.6397
  877MOL0     C15651   5.261   2.592   0.809  0.4745 -0.3678  0.2562
  877MOL0     C15652   5.128   2.617   0.879  0.2861  0.5970 -0.3881
  877MOL0     C15653   5.067   2.749   0.844  0.2577  0.6016  0.5831
  877MOL0     C15654   4.976   2.754   0.722 -0.1972  0.4930 -0.1328
  877MOL0     C15655   5.044   2.745   0.591 -0.1886  0.0818 -0.2274
  877MOL0     O15656   4.975   2.787   0.478  1.1689  0.5483  0.4653
  877MOL0     C15657   5.040   2.783   0.356  1.4098  0.7504  0.0425
  877MOL0     C15658   5.179   2.773   0.341 -0.0483  0.0736 -0.2744
  877MOL0     C15659   5.236   2.790   0.214  0.5797 -0.6143 -0.3929
  877MOL0     C15660   5.158   2.814   0.100 -0.0013  0.7791  0.5315
  877MOL0     C15661   5.222   2.814  -0.034  0.5736 -0.2669 -0.4725
  877MOL0     O15662   5.352   2.852  -0.031  0.3292  0.3960  0.2493
  877MOL0     C15663   5.415   2.852  -0.155  0.1614 -0.3113  0.0710
  877MOL0     C15664   5.382   2.938  -0.261  0.2190 -0.1307  0.5364
  877MOL0     C15665   5.456   2.928  -0.378 -0.4624  0.7447 -0.1079
  877MOL0     C15666   5.571   2.852  -0.391 -0.4565  0.1050  0.3781
  877MOL0     O15667   5.656   2.846  -0.492 -0.4264  0.1764 -0.1956
  877MOL0     C15668   5.681   2.965  -0.571 -0.5280  0.9977 -0.4075
  877MOL0     C15669   5.761   3.061  -0.491  0.8271 -0.6490 -0.5707
  877MOL0     C15670   5.904   3.009  -0.490  0.0063 -0.5006 -0.7294
  877MOL0     C15671   5.987   3.043  -0.617  0.1807 -0.1845 -0.0054
  877MOL0     C15672   6.119   2.974  -0.598 -0.2540 -0.0664  0.6511
  877MOL0     C15673   6.225   3.061  -0.513 -0.1966  0.2203  0.8737
  877MOL0     C15674   6.343   2.968  -0.458 -0.7338  0.1544 -0.9939
  877MOL0     C15675   6.450   3.051  -0.376  0.1402 -0.1210  0.4960
  877MOL0    Cl15676   6.562   3.151  -0.482 -0.1282  0.4174  0.0457
  877MOL0     C15677   5.613   2.782  -0.282 -0.4745  0.1823 -0.6736
  877MOL0     C15678   5.536   2.782  -0.166  0.0739  0.6433 -0.5720
  877MOL0     O15679   5.156   2.778  -0.139 -0.8561  0.8611 -0.5649
  877MOL0     C15680   5.019   2.826   0.120  0.3781  0.4179 -0.0750
  877MOL0     C15681   4.967   2.808   0.248 -0.0105 -0.5950 -0.4280
  877MOL0     N15682   5.281   2.490   0.719  0.8140  0.4125  0.7914
  877MOL0     N15683   5.407   2.504   0.675 -0.6195  0.3730 -0.6848
  877MOL0     C15684   6.646   2.740   0.864  0.4968 -0.4215 -0.0127
  877MOL0     C15685   6.783   2.722   0.839 -0.0330  0.0152 -0.1731
  877MOL0     C15686   7.180   2.661   0.579 -0.3822  0.2412 -0.5393
  877MOL0     C15687   7.247   2.639   0.695  0.5846 -0.2834 -0.2622
  877MOL0     C15688   7.389   2.604   0.679  0.7710 -0.3723 -0.2547
  877MOL0     C15689   7.454   2.600   0.558 -1.2600 -0.4982  0.6081
  877MOL0     O15690   7.597   2.583   0.533 -0.3102  0.1918 -0.1652
  877MOL0     C15691   7.698   2.599   0.635  0.2636  0.3590  0.2616
  877MOL0     C15692   7.830   2.627   0.581 -0.0844  0.0220  0.2552
  877MOL0     C15693   7.876   2.518   0.475  0.0244  0.2218  0.5590
  877MOL0     C15694   7.916   2.382   0.533  1.0502 -0.2801  0.2466
  877MOL0     C15695   7.989   2.303   0.438 -0.0942  0.9034  0.9656
  877MOL0     C15696   8.047   2.222   0.368  1.0919 -0.0422  0.1207
  877MOL0     C15697   7.373   2.611   0.441 -0.1675 -1.0825  0.1020
  877MOL0     C15698   7.239   2.646   0.454  0.6947 -0.3088 -0.2233
  877MOL0     H15699   6.764   2.620   0.515  0.0370  1.4493 -0.3317
  877MOL0     H15700   6.521   2.655   0.562  1.1086 -2.3476 -0.3540
  877MOL0     H15701   6.441   2.927   0.852  0.1183  0.7425  0.3923
  877MOL0     H15702   6.358   2.815   0.960  3.1740 -1.9438  0.3340
  877MOL0     H15703   6.260   2.938   0.701  4.3348 -1.3042  0.6829
  877MOL0     H15704   6.195   2.984   0.864  0.0581 -0.5698  0.8016
  877MOL0     H15705   6.118   2.755   0.899  1.6820 -1.1044 -0.8353
  877MOL0     H15706   6.137   2.718   0.723 -1.3505 -2.3470  0.7853
  877MOL0     H15707   5.974   2.956   0.826  0.2348  1.2269  0.5264
  877MOL0     H15708   5.996   2.907   0.658 -1.6387 -1.9466 -0.1478
  877MOL0     H15709   5.874   2.743   0.867 -1.2927  1.1401 -0.5027
  877MOL0     H15710   5.899   2.693   0.698  0.2007 -0.2936  0.7602
  877MOL0     H15711   5.771   2.944   0.683 -2.7591  0.1798 -0.6124
  877MOL0     H15712   5.705   2.881   0.835  0.6194  1.7610  0.1069
  877MOL0     H15713   5.553   2.815   0.642 -0.8162 -1.2346  1.1249
  877MOL0     H15714   5.685   2.734   0.558  2.2628 -0.8300  0.7624
  877MOL0     H15715   5.676   2.616   0.820  2.7850  0.6377 -1.2178
  877MOL0     H15716   5.662   2.541   0.664  2.2096  1.9745  0.8770
  877MOL0     H15717   5.386   2.744   0.890 -2.6060 -0.0314 -1.9148
  877MOL0     H15718   5.144   2.619   0.987  0.6744  0.2865 -0.4384
  877MOL0     H15719   5.054   2.538   0.864  0.1084 -0.0206  2.9449
  877MOL0     H15720   5.143   2.827   0.834  0.6695  0.1800  0.4087
  877MOL0     H15721   5.002   2.765   0.931  2.0645  0.6450  1.9926
  877MOL0     H15722   4.902   2.673   0.729 -1.8691  1.6560 -2.9448
  877MOL0     H15723   4.931   2.853   0.720  1.4304  1.2509 -0.5062
  877MOL0     H15724   5.071   2.641   0.571  1.6649  0.7697 -1.5921
  877MOL0     H15725   5.136   2.803   0.594  0.6636 -1.1699 -1.0946
  877MOL0     H15726   5.255   2.766   0.419 -1.2286 -1.2293  0.8081
  877MOL0     H15727   5.344   2.793   0.203  0.3692  2.0885 -2.9509
  877MOL0     H15728   5.289   2.993  -0.252  0.8395  0.8664  1.0256
  877MOL0     H15729   5.409   2.980  -0.461 -1.6361 -0.7008 -0.3925
  877MOL0     H15730   5.581   2.993  -0.607 -0.8608  0.4827  0.1007
  877MOL0     H15731   5.738   2.932  -0.658  1.2940  0.3004  0.9922
  877MOL0     H15732   5.713   3.070  -0.393 -0.2867 -2.2188 -0.9442
  877MOL0     H15733   5.766   3.158  -0.543 -0.2742 -0.1690  0.1715
  877MOL0     H15734   5.897   2.901  -0.480 -1.9803 -0.3049  0.5467
  877MOL0     H15735   5.952   3.054  -0.402 -2.6452  1.6952 -0.2667
  877MOL0     H15736   5.934   3.006  -0.706 -1.6145  3.3069 -0.5689
  877MOL0     H15737   6.000   3.149  -0.639  1.0697 -0.8666 -3.3257
  877MOL0     H15738   6.164   2.947  -0.694 -1.9173 -0.6248 -0.0046
  877MOL0     H15739   6.117   2.886  -0.532 -2.7547 -0.8291 -0.3288
  877MOL0     H15740   6.176   3.102  -0.425 -0.4309 -0.8932  1.2710
  877MOL0     H15741   6.259   3.143  -0.578  2.4842 -0.8798  0.7326
  877MOL0     H15742   6.308   2.887  -0.393 -0.5390  2.0859  1.6803
  877MOL0     H15743   6.399   2.918  -0.538  0.1172 -0.2022 -0.2027
  877MOL0     H15744   6.507   2.987  -0.307 -1.2666 -0.6344  1.2308
  877MOL0     H15745   6.389   3.113  -0.310 -2.3758  0.5060 -2.2288
  877MOL0     H15746   5.704   2.724  -0.290  0.6700  1.0745  3.6126
  877MOL0     H15747   5.572   2.715  -0.089  1.2062  2.0815  0.1893
  877MOL0     H15748   4.958   2.838   0.031  1.2065  0.9065 -0.5895
  877MOL0     H15749   4.861   2.820   0.268  0.2058 -1.3132  1.3330
  877MOL0     H15750   6.619   2.786   0.958  3.8093 -3.4984  2.7662
  877MOL0     H15751   6.863   2.747   0.908 -1.0327 -0.1997  1.0959
  877MOL0     H15752   7.197   2.635   0.791  1.2352  0.1371  0.1092
  877MOL0     H15753   7.445   2.561   0.761 -1.7325 -2.2268  0.6296
  877MOL0     H15754   7.713   2.504   0.689  1.1891  2.8547  4.9063
  877MOL0     H15755   7.673   2.671   0.713  0.8435 -0.2096  1.0013
  877MOL0     H15756   7.827   2.724   0.531 -0.3006 -0.2883 -0.3434
  877MOL0     H15757   7.909   2.632   0.657 -0.2029  2.7742  0.2929
  877MOL0     H15758   7.972   2.549   0.431  0.1619 -0.8992  0.0238
  877MOL0     H15759   7.800   2.499   0.400  0.2651  1.4576 -0.0188
  877MOL0     H15760   7.985   2.403   0.615 -1.4481  1.9470  1.9524
  877MOL0     H15761   7.836   2.332   0.588  0.1350  0.7467 -0.1092
  877MOL0     H15762   8.101   2.162   0.298  1.4955  0.2803  0.1487
  877MOL0     H15763   7.421   2.610   0.344  0.6316  1.6874  0.3787
  877MOL0     H15764   7.176   2.646   0.365 -0.4657 -2.7463  0.5134
  878MOL0     O15765   8.061  10.078   9.982  0.2362  0.2685 -0.0303
  878MOL0     C15766   7.972  10.165   9.998 -0.4442  0.3526 -0.1424
  878MOL0     O15767   7.996  10.296  10.022  0.1944 -0.0807 -0.0493
  878MOL0     C15768   8.133  10.329  10.009  0.2027 -0.8506 -0.6260
  878MOL0     C15769   8.208  10.365  10.125  0.4131 -0.4268  0.5760
  878MOL0     C15770   8.339  10.410  10.110  0.7717  0.4980 -0.7841
  878MOL0     C15771   8.407  10.421   9.986  0.2283 -0.0459  0.3508
  878MOL0     O15772   8.532  10.469   9.965  0.0928  0.0564  0.2028
  878MOL0     C15773   8.580  10.567  10.061  0.2429 -0.3903 -0.0431
  878MOL0     C15774   8.726  10.597  10.016  0.3255 -0.2956 -0.6078
  878MOL0     C15775   8.780  10.728  10.075 -0.0484  0.1766 -0.1721
  878MOL0     C15776   8.929  10.741  10.057  0.0292  0.4837 -0.1448
  878MOL0     C15777   9.005  10.643  10.147  0.0866  0.8675  0.3359
  878MOL0     C15778   9.118  10.566  10.066  0.0279  0.6040 -0.5231
  878MOL0     C15779   9.215  10.492  10.170  0.5945  0.6071  0.2966
  878MOL0     C15780   9.325  10.411  10.098  0.4951  0.0319 -0.6227
  878MOL0     N15781   9.406  10.342  10.203  0.5871  0.4888  0.4528
  878MOL0     C15782   9.347  10.237  10.270 -0.1836  0.0338  0.1071
  878MOL0     C15783   9.450  10.211  10.363  0.8845  0.4500  0.0794
  878MOL0     C15784   9.454  10.083  10.435  1.2834 -0.0027 -0.8162
  878MOL0     C15785   9.326  10.050  10.509 -0.1135  0.6601 -0.0573
  878MOL0     C15786   9.345   9.918  10.592 -0.0645 -0.4462  0.3674
  878MOL0     C15787   9.211   9.845  10.632  0.3749  0.9448 -0.4932
  878MOL0     O15788   9.101   9.853  10.529  0.1703 -0.0691 -0.7945
  878MOL0     C15789   9.018   9.745  10.516 -0.3043  0.5120 -0.0295
  878MOL0     C15790   8.985   9.659  10.616  0.8950 -0.8206  0.1942
  878MOL0     C15791   8.902   9.545  10.574 -0.2945 -1.0448 -0.4524
  878MOL0     C15792   8.834   9.534  10.452 -0.3060 -0.5417  0.6442
  878MOL0     C15793   8.748   9.431  10.421  0.2046 -0.0770 -0.7149
  878MOL0     O15794   8.690   9.432  10.296 -0.2007  0.7740 -0.0388
  878MOL0     C15795   8.596   9.340  10.280 -0.4786 -0.4253  0.1701
  878MOL0     C15796   8.613   9.215  10.225  0.3918  0.4184 -0.5768
  878MOL0     C15797   8.503   9.135  10.203  0.0989  0.4531 -0.2970
  878MOL0     C15798   8.375   9.173  10.236  0.2422 -0.1320 -0.3345
  878MOL0     O15799   8.281   9.090  10.198 -1.0094  0.3396  0.3140
  878MOL0     C15800   8.145   9.130  10.217 -0.7810 -0.7823 -0.6709
  878MOL0     C15801   8.048   9.013  10.192  0.0568  1.0834  0.5042
  878MOL0     C15802   7.909   9.033  10.242  0.2128  0.0535 -0.0727
  878MOL0     C15803   7.845   9.151  10.175 -0.3341  0.2339 -0.2232
  878MOL0     C15804   7.693   9.175  10.195  0.4940 -0.0278 -0.9092
  878MOL0     C15805   7.599   9.057  10.159  0.6405  0.6573  0.3423
  878MOL0     C15806   7.452   9.121  10.157 -0.6707  0.9336 -0.1763
  878MOL0     C15807   7.347   9.006  10.176 -0.3554 -0.5489 -0.1642
  878MOL0    Cl15808   7.213   9.076  10.271 -0.1092 -0.1552 -0.0006
  878MOL0     C15809   8.349   9.298  10.310 -0.2196 -0.0762  0.3053
  878MOL0     C15810   8.466   9.377  10.334 -0.3746  0.1969  0.3821
  878MOL0     O15811   8.711   9.367  10.516  0.5881 -0.9037 -0.3422
  878MOL0     C15812   8.873   9.630  10.354 -0.1497  0.0706  0.1953
  878MOL0     C15813   8.964   9.730  10.383  0.1695 -0.0291 -0.5665
  878MOL0     N15814   9.552  10.299  10.351  0.1242  0.2425  0.3023
  878MOL0     N15815   9.521  10.381  10.259  0.5640  0.3388 -0.3282
  878MOL0     C15816   8.327  10.398   9.876  1.2001  0.4561  1.1440
  878MOL0     C15817   8.192  10.348   9.885  0.2924 -0.1857  0.2838
  878MOL0     C15818   7.835  10.120   9.981 -0.0723  0.9256 -0.0205
  878MOL0     C15819   7.800   9.989   9.946  0.8769 -0.0071 -0.4103
  878MOL0     C15820   7.671   9.942   9.936 -0.4184 -0.1648 -0.6719
  878MOL0     C15821   7.567  10.039   9.949  0.1804  1.0561 -1.0383
  878MOL0     O15822   7.430  10.010   9.946  0.5698 -0.3322 -0.7939
  878MOL0     C15823   7.386   9.891  10.015  0.1229  0.6804  0.5846
  878MOL0     C15824   7.383   9.915  10.168  0.6125 -0.3342 -0.6180
  878MOL0     C15825   7.293   9.817  10.246  0.0631  0.2048 -0.2126
  878MOL0     C15826   7.147   9.804  10.200  0.8630  0.4631 -0.2653
  878MOL0     C15827   7.073   9.926  10.249  0.2167  0.2477 -0.4476
  878MOL0     C15828   7.031  10.031  10.283 -0.3039 -0.2814  0.3786
  878MOL0     C15829   7.596  10.172   9.972 -0.8082 -0.1567  0.4324
  878MOL0     C15830   7.732  10.214   9.979 -0.9001  0.2155 -0.4263
  878MOL0     H15831   8.163  10.367  10.224  1.0588  3.2026  0.9376
  878MOL0     H15832   8.400  10.435  10.197  1.2212 -1.8813 -0.3546
  878MOL0     H15833   8.586  10.525  10.161 -0.5037  0.6273  0.4494
  878MOL0     H15834   8.528  10.663  10.061  3.0098  1.1973  0.7729
  878MOL0     H15835   8.734  10.603   9.907 -1.8336 -2.5819 -0.9868
  878MOL0     H15836   8.784  10.510  10.048 -0.2520 -0.1890  0.8095
  878MOL0     H15837   8.754  10.724  10.181  0.7926 -0.0265  0.0361
  878MOL0     H15838   8.729  10.819  10.041  0.1150 -0.4621 -2.2922
  878MOL0     H15839   8.949  10.732   9.949 -3.6904  2.1680 -1.1299
  878MOL0     H15840   8.960  10.841  10.087  2.3238 -0.0661 -0.5152
  878MOL0     H15841   8.934  10.571  10.189 -0.9905  1.8227  0.1927
  878MOL0     H15842   9.059  10.693  10.228  0.0333 -0.1593  1.0263
  878MOL0     H15843   9.184  10.631  10.008  1.2408  0.8035  0.9955
  878MOL0     H15844   9.074  10.490  10.001 -0.3866 -0.7354  1.2604
  878MOL0     H15845   9.253  10.572  10.235 -0.8082  0.6568  1.0992
  878MOL0     H15846   9.154  10.437  10.243  0.9927  0.7267  0.7254
  878MOL0     H15847   9.395  10.474  10.042  0.0278  1.2712  0.1495
  878MOL0     H15848   9.286  10.337  10.028  1.4501 -1.9137  0.8011
  878MOL0     H15849   9.256  10.180  10.251 -0.0742  0.4216 -1.7656
  878MOL0     H15850   9.540  10.071  10.501  1.2625  0.1570 -0.7581
  878MOL0     H15851   9.464  10.005  10.359 -2.3778 -1.0722 -0.3677
  878MOL0     H15852   9.249  10.031  10.434  0.0140  1.0156 -0.2792
  878MOL0     H15853   9.298  10.128  10.581  0.9340 -1.0156  2.2753
  878MOL0     H15854   9.406   9.846  10.537  1.6519  0.7481  0.6348
  878MOL0     H15855   9.403   9.940  10.682 -0.4656  0.5658  0.3874
  878MOL0     H15856   9.174   9.878  10.729 -1.1166 -0.5363 -0.4950
  878MOL0     H15857   9.248   9.742  10.637  2.3341  1.6691  1.0424
  878MOL0     H15858   9.017   9.682  10.717 -1.6820  3.1856  0.3160
  878MOL0     H15859   8.881   9.478  10.657 -0.0674 -0.0454  0.4284
  878MOL0     H15860   8.711   9.173  10.205  0.0919 -0.3791 -0.4041
  878MOL0     H15861   8.517   9.035  10.161 -1.6870 -0.6254  1.4928
  878MOL0     H15862   8.111   9.222  10.168 -0.2347  0.0666  0.5059
  878MOL0     H15863   8.139   9.161  10.322  1.1322  0.6193 -0.9405
  878MOL0     H15864   8.092   8.931  10.249 -2.4117 -0.6134  0.1456
  878MOL0     H15865   8.050   8.980  10.087  3.7221  0.9063  0.5201
  878MOL0     H15866   7.916   9.052  10.349 -1.7854  2.8451 -0.3011
  878MOL0     H15867   7.856   8.940  10.218  1.2285 -0.3573 -0.8171
  878MOL0     H15868   7.902   9.236  10.215  0.1653  0.0190 -0.4836
  878MOL0     H15869   7.863   9.157  10.068 -0.1228  3.1076 -0.1184
  878MOL0     H15870   7.653   9.268  10.155  2.2523  1.5090  0.6884
  878MOL0     H15871   7.676   9.192  10.302  2.9805  0.2024 -0.4965
  878MOL0     H15872   7.599   8.975  10.232 -0.0423 -0.5303 -0.9382
  878MOL0     H15873   7.615   9.014  10.060 -0.3412  0.2124  0.3606
  878MOL0     H15874   7.445   9.200  10.232  2.3289  0.4277  0.7883
  878MOL0     H15875   7.436   9.173  10.063  1.8743  0.3398 -1.0149
  878MOL0     H15876   7.385   8.921  10.233  1.6566 -0.3224 -1.0789
  878MOL0     H15877   7.310   8.970  10.079 -1.1731 -3.5658  1.1287
  878MOL0     H15878   8.256   9.345  10.340 -0.5687 -1.0406  0.7712
  878MOL0     H15879   8.465   9.476  10.379 -0.0539  1.0540 -1.4116
  878MOL0     H15880   8.822   9.630  10.258 -0.6301 -0.5159  0.4457
  878MOL0     H15881   8.986   9.805  10.307 -0.6778  1.0581  0.2283
  878MOL0     H15882   8.377  10.409   9.781 -2.4717 -1.9731 -1.3127
  878MOL0     H15883   8.129  10.334   9.797  0.7075  0.9645 -0.2129
  878MOL0     H15884   7.883   9.923   9.925  1.6578  1.5264 -2.4371
  878MOL0     H15885   7.649   9.840   9.905 -0.6253  0.4209 -2.5954
  878MOL0     H15886   7.448   9.805   9.990 -0.1369  0.5502  0.3840
  878MOL0     H15887   7.284   9.877   9.978  0.0684 -2.0649  1.5438
  878MOL0     H15888   7.485   9.905  10.205 -0.2810 -1.8519  1.6495
  878MOL0     H15889   7.354  10.017  10.197 -1.3318 -1.3264  1.1311
  878MOL0     H15890   7.297   9.850  10.350 -2.8513  1.2258 -0.3596
  878MOL0     H15891   7.326   9.712  10.246 -2.7968 -0.7858 -0.4478
  878MOL0     H15892   7.132   9.785  10.093  0.0279  1.1301 -0.2798
  878MOL0     H15893   7.098   9.719  10.248  1.4546 -0.3881 -1.1416
  878MOL0     H15894   6.983  10.124  10.309 -1.5840 -0.3821 -1.4489
  878MOL0     H15895   7.515  10.245   9.978 -0.2893  0.5994 -1.1130
  878MOL0     H15896   7.764  10.316   9.996 -2.3179  0.3432  1.9302
  879MOL0     O15897   4.380   8.087   0.037 -0.2478 -0.0688  0.1370
  879MOL0     C15898   4.407   8.019   0.140  0.4723  0.5588 -0.2539
  879MOL0     O15899   4.316   7.988   0.234  0.1837  0.4042  0.1615
  879MOL0     C15900   4.186   7.987   0.204  0.6327  0.3800 -0.8180
  879MOL0     C15901   4.093   8.037   0.298 -0.4620 -0.0613 -0.7197
  879MOL0     C15902   3.958   8.027   0.274  0.4599 -0.0898 -0.2532
  879MOL0     C15903   3.914   7.972   0.158  0.2523  0.8389  0.0783
  879MOL0     O15904   3.780   7.973   0.127 -0.3051 -1.0893 -0.3927
  879MOL0     C15905   3.718   7.850   0.094  0.1958  0.4396  0.1809
  879MOL0     C15906   3.567   7.882   0.089 -0.0578 -0.4738 -0.1475
  879MOL0     C15907   3.484   7.769   0.026 -0.6877  0.2892 -0.4467
  879MOL0     C15908   3.329   7.790   0.047  0.1688 -0.2375  0.9804
  879MOL0     C15909   3.253   7.652   0.057 -0.4815  0.4874 -0.2108
  879MOL0     C15910   3.111   7.674   0.019  0.0695 -0.0667  0.1402
  879MOL0     C15911   3.030   7.548   0.025 -0.2398  0.1004 -0.3693
  879MOL0     C15912   2.884   7.554  -0.001  0.7596 -0.1521  0.1011
  879MOL0     N15913   2.851   7.606  -0.136  0.3072  0.3023  0.3246
  879MOL0     C15914   2.839   7.744  -0.163  0.0007  1.1481 -0.4549
  879MOL0     C15915   2.788   7.742  -0.283  0.3907 -0.9596 -0.2576
  879MOL0     C15916   2.754   7.865  -0.356  0.0604 -0.3364  0.6086
  879MOL0     C15917   2.607   7.921  -0.333  0.6034 -0.3868 -0.3807
  879MOL0     C15918   2.506   7.830  -0.402 -0.8367  0.4839 -0.0079
  879MOL0     C15919   2.362   7.859  -0.369  0.1103 -0.5666  0.4443
  879MOL0     O15920   2.275   7.753  -0.405  0.2791 -0.5566 -0.3608
  879MOL0     C15921   2.151   7.747  -0.347 -0.4286 -0.3577  0.3674
  879MOL0     C15922   2.066   7.647  -0.397  0.2646 -0.0736 -0.2553
  879MOL0     C15923   1.932   7.641  -0.357  0.8876 -0.9024 -0.6040
  879MOL0     C15924   1.875   7.733  -0.263  0.2251 -0.1822  1.2358
  879MOL0     C15925   1.726   7.727  -0.224 -0.1572  0.0568  0.0758
  879MOL0     O15926   1.640   7.627  -0.274 -0.7501 -0.5288 -0.6282
  879MOL0     C15927   1.510   7.620  -0.217 -0.4861 -0.1327 -0.4872
  879MOL0     C15928   1.415   7.593  -0.315 -0.2542  0.0691  0.2615
  879MOL0     C15929   1.280   7.594  -0.274 -0.2084  0.2839 -0.4971
  879MOL0     C15930   1.241   7.613  -0.138  0.1689  0.8156 -0.4085
  879MOL0     O15931   1.103   7.616  -0.115  0.2876  0.0009  0.1046
  879MOL0     C15932   1.052   7.615   0.018  0.2800  0.3655 -0.4996
  879MOL0     C15933   0.906   7.620   0.001 -0.3362  0.1839 -0.1342
  879MOL0     C15934   0.835   7.622   0.138 -0.3153  0.1829 -0.4989
  879MOL0     C15935   0.688   7.650   0.138  0.3941  0.0717 -0.0052
  879MOL0     C15936   0.608   7.549   0.054  0.0681  0.0741  0.0395
  879MOL0     C15937   0.599   7.404   0.101  0.4552 -0.0042 -0.6715
  879MOL0     C15938   0.544   7.322  -0.013  0.5556  0.4665  0.2244
  879MOL0     C15939   0.649   7.274  -0.118  0.1856 -0.3216 -0.2309
  879MOL0    Cl15940   0.610   7.140  -0.229 -0.9146  0.2294  0.2425
  879MOL0     C15941   1.336   7.647  -0.042 -0.3056 -0.0463  0.0447
  879MOL0     C15942   1.472   7.645  -0.083  0.0982 -0.1589  0.4845
  879MOL0     O15943   1.692   7.826  -0.164 -0.3512 -0.3091 -0.2619
  879MOL0     C15944   1.964   7.832  -0.214 -0.0532 -0.0571  0.7335
  879MOL0     C15945   2.096   7.843  -0.262  0.0076 -0.5139 -0.4463
  879MOL0     N15946   2.785   7.611  -0.331  0.6632  0.1721  0.1499
  879MOL0     N15947   2.813   7.527  -0.240  0.4756  0.1864  0.0295
  879MOL0     C15948   4.003   7.934   0.066 -0.7559 -0.2829  0.7656
  879MOL0     C15949   4.144   7.928   0.089  0.3482  0.8999 -0.3103
  879MOL0     C15950   4.555   7.993   0.156 -0.4884 -0.4915 -0.1287
  879MOL0     C15951   4.604   7.931   0.272  0.3638 -1.0562 -0.1915
  879MOL0     C15952   4.742   7.893   0.278  0.5900 -0.2049  0.3900
  879MOL0     C15953   4.827   7.903   0.173  0.1865 -0.5658 -0.0888
  879MOL0     O15954   4.966   7.868   0.187  1.0670 -0.0371 -0.2102
  879MOL0     C15955   5.000   7.803   0.312 -0.2768  0.3664  0.1397
  879MOL0     C15956   5.154   7.779   0.316  0.5124  0.9433 -0.4370
  879MOL0     C15957   5.220   7.911   0.352 -0.6525 -0.5099 -0.1194
  879MOL0     C15958   5.370   7.895   0.354  0.1749  0.0630 -0.0236
  879MOL0     C15959   5.441   8.008   0.411 -1.4932 -0.2589  0.3436
  879MOL0     C15960   5.499   8.111   0.450 -0.2589 -0.4236  0.1677
  879MOL0     C15961   4.775   7.966   0.064  1.1123 -0.1195  0.5257
  879MOL0     C15962   4.644   8.009   0.047 -0.2591 -0.0251  0.0507
  879MOL0     H15963   4.127   8.085   0.389  2.3221 -1.1372 -1.0801
  879MOL0     H15964   3.882   8.061   0.343  2.0475  1.2740  0.8877
  879MOL0     H15965   3.737   7.781   0.177 -1.3932  0.6891  0.7914
  879MOL0     H15966   3.751   7.797   0.005 -0.5526 -3.1743  1.8474
  879MOL0     H15967   3.549   7.971   0.028  0.4408  0.2445  0.7250
  879MOL0     H15968   3.533   7.900   0.192 -1.1064  1.4556 -0.7775
  879MOL0     H15969   3.515   7.671   0.064 -0.2257  0.5407 -0.1678
  879MOL0     H15970   3.511   7.766  -0.080 -0.9034  0.4678 -0.5076
  879MOL0     H15971   3.304   7.856   0.131  0.9728  1.3774  0.0249
  879MOL0     H15972   3.302   7.845  -0.044  3.4764  0.2565  0.1670
  879MOL0     H15973   3.260   7.625   0.163  3.5006 -0.6799 -0.6102
  879MOL0     H15974   3.301   7.579  -0.008 -1.4663 -1.2016  0.9008
  879MOL0     H15975   3.103   7.717  -0.082  2.8119  0.7477  0.1772
  879MOL0     H15976   3.068   7.743   0.091 -0.2272  0.4895 -0.5591
  879MOL0     H15977   3.075   7.486  -0.053  2.2947 -1.2571  1.9903
  879MOL0     H15978   3.060   7.503   0.120 -1.1350 -2.4203 -1.2021
  879MOL0     H15979   2.832   7.605   0.081  1.5598  1.2285 -0.2087
  879MOL0     H15980   2.844   7.453   0.014  0.5610  0.2173  2.3235
  879MOL0     H15981   2.862   7.832  -0.103  0.9249 -0.6448  1.9676
  879MOL0     H15982   2.775   7.838  -0.460 -1.5013 -0.5682  0.3270
  879MOL0     H15983   2.816   7.949  -0.322  0.4238  0.7838 -2.4960
  879MOL0     H15984   2.614   8.023  -0.372 -0.3072 -0.0358  0.3310
  879MOL0     H15985   2.584   7.923  -0.226 -3.4878  0.5121 -1.1005
  879MOL0     H15986   2.520   7.845  -0.509  0.4983  1.4986  0.2844
  879MOL0     H15987   2.534   7.727  -0.380  1.2352  1.3064  1.5334
  879MOL0     H15988   2.349   7.960  -0.410  1.4207  0.1896  1.7828
  879MOL0     H15989   2.355   7.868  -0.261 -2.5430 -3.2109  0.6313
  879MOL0     H15990   2.094   7.570  -0.469  1.7040 -2.2293  2.4129
  879MOL0     H15991   1.865   7.563  -0.391  1.0172 -1.4179  0.2947
  879MOL0     H15992   1.452   7.563  -0.412 -3.0211 -0.5153 -0.6989
  879MOL0     H15993   1.197   7.576  -0.342 -0.3591  0.9495 -0.4972
  879MOL0     H15994   1.067   7.711   0.069 -0.5260 -0.0257  0.4999
  879MOL0     H15995   1.084   7.535   0.085 -2.1447  1.8260  2.6346
  879MOL0     H15996   0.862   7.536  -0.054  1.4908 -0.0756 -1.2705
  879MOL0     H15997   0.880   7.711  -0.054 -0.3862  0.7805  0.8614
  879MOL0     H15998   0.895   7.690   0.200 -0.0944 -1.1554  0.8203
  879MOL0     H15999   0.850   7.523   0.181  1.0089  1.0003  1.0810
  879MOL0     H16000   0.672   7.635   0.246 -1.5113 -1.0307 -0.3805
  879MOL0     H16001   0.671   7.753   0.104  0.0663 -0.3085 -1.0393
  879MOL0     H16002   0.644   7.557  -0.049  1.0110 -0.3967  0.3216
  879MOL0     H16003   0.503   7.579   0.065 -0.3419 -1.3206  0.0547
  879MOL0     H16004   0.548   7.398   0.197  0.6624  4.1405 -0.1189
  879MOL0     H16005   0.700   7.372   0.127  1.2769  2.9808  0.1791
  879MOL0     H16006   0.505   7.237   0.043  0.8709  1.3611  1.8607
  879MOL0     H16007   0.465   7.379  -0.064  0.3446 -1.4183 -1.7042
  879MOL0     H16008   0.740   7.244  -0.065  0.4320 -0.9551 -0.9904
  879MOL0     H16009   0.677   7.357  -0.184 -0.7764 -0.6945 -1.1291
  879MOL0     H16010   1.302   7.657   0.060  0.8984  1.2089  0.3499
  879MOL0     H16011   1.550   7.680  -0.017  1.1085  1.0579 -1.2817
  879MOL0     H16012   1.931   7.908  -0.145 -0.3401 -1.7620  2.5768
  879MOL0     H16013   2.160   7.921  -0.221  2.0637 -2.1462 -0.4045
  879MOL0     H16014   3.961   7.887  -0.022  1.7046 -1.2028  0.0082
  879MOL0     H16015   4.213   7.896   0.011  0.0098 -0.3378 -0.1235
  879MOL0     H16016   4.545   7.899   0.357  1.1334 -0.7710  0.4685
  879MOL0     H16017   4.755   7.851   0.378  0.2196 -0.4987  0.3186
  879MOL0     H16018   4.945   7.709   0.324 -0.3968  0.3651 -0.4039
  879MOL0     H16019   4.985   7.866   0.400  0.8020  0.4739  0.2625
  879MOL0     H16020   5.183   7.700   0.387 -1.8990  0.1289 -0.2676
  879MOL0     H16021   5.183   7.747   0.216 -0.7313 -1.5953 -0.0735
  879MOL0     H16022   5.200   7.942   0.455  0.8869  2.4522 -0.6170
  879MOL0     H16023   5.189   7.988   0.282  1.1061 -0.8503 -1.3296
  879MOL0     H16024   5.403   7.813   0.418 -2.0021 -0.7241  0.1482
  879MOL0     H16025   5.413   7.871   0.256  2.1145 -1.9078  1.2046
  879MOL0     H16026   5.554   8.190   0.496 -0.6228  0.4128 -0.7941
  879MOL0     H16027   4.846   7.985  -0.017  0.3387 -2.0185 -0.6732
  879MOL0     H16028   4.620   8.061  -0.045 -0.9591  0.8418  0.7161
  880MOL0     O16029   5.133   0.925   6.655  0.4137  0.3431  0.2432
  880MOL0     C16030   5.178   1.013   6.586  0.2027 -1.3159  0.4517
  880MOL0     O16031   5.103   1.081   6.486 -0.3150  0.0567 -0.1044
  880MOL0     C16032   4.975   1.044   6.453 -0.1957  0.4656  0.5329
  880MOL0     C16033   4.926   1.073   6.321  0.0983 -0.2165  0.2220
  880MOL0     C16034   4.801   1.032   6.284  0.5233  0.2786 -0.4400
  880MOL0     C16035   4.716   0.959   6.370  0.4410 -0.0632  0.3929
  880MOL0     O16036   4.595   0.928   6.312 -0.1603  0.1971  0.1171
  880MOL0     C16037   4.497   0.884   6.403 -0.0610  0.2260 -0.3442
  880MOL0     C16038   4.354   0.922   6.367  0.5196  0.4407  0.8390
  880MOL0     C16039   4.325   1.073   6.360 -0.1653  0.3880 -0.2769
  880MOL0     C16040   4.179   1.115   6.326 -0.2262 -0.2689  0.3936
  880MOL0     C16041   4.090   1.108   6.446 -0.1210  0.5864  1.1479
  880MOL0     C16042   3.942   1.142   6.440  0.9674  1.2203  0.2071
  880MOL0     C16043   3.869   1.082   6.314  0.7594  0.3803 -0.5599
  880MOL0     C16044   3.715   1.051   6.333  0.2798  0.0209  0.8524
  880MOL0     N16045   3.691   0.935   6.413  0.8277 -0.3045 -0.6897
  880MOL0     C16046   3.746   0.810   6.394  0.5074  0.3277  0.2811
  880MOL0     C16047   3.701   0.732   6.495  0.2105 -0.1098  0.3844
  880MOL0     C16048   3.744   0.595   6.518  0.8645  0.2987 -0.2445
  880MOL0     C16049   3.658   0.491   6.449  0.2307 -0.2814 -0.0458
  880MOL0     C16050   3.737   0.357   6.460  0.0443  0.0336 -0.2783
  880MOL0     C16051   3.668   0.248   6.374  0.3180  0.6718 -0.4862
  880MOL0     O16052   3.546   0.208   6.440  0.1141 -0.2531 -0.8623
  880MOL0     C16053   3.421   0.208   6.373 -0.0758 -0.1368  0.4049
  880MOL0     C16054   3.380   0.309   6.288 -0.0054  1.0216  0.4341
  880MOL0     C16055   3.248   0.309   6.235  0.1246 -0.0794 -0.1931
  880MOL0     C16056   3.159   0.201   6.268  0.4928 -0.1640  0.8219
  880MOL0     C16057   3.010   0.200   6.237  0.0280 -0.6634  0.8764
  880MOL0     O16058   2.947   0.073   6.210  0.0936 -0.6428  0.1331
  880MOL0     C16059   2.821   0.083   6.163  0.4941 -0.8527  0.5290
  880MOL0     C16060   2.788   0.052   6.027  0.0003  0.4366  0.6514
  880MOL0     C16061   2.653   0.043   5.987  0.8532 -0.5761 -0.3894
  880MOL0     C16062   2.544   0.071   6.076  0.2780  0.5788  0.1750
  880MOL0     O16063   2.412   0.073   6.048 -0.5869 -0.1255 -0.2205
  880MOL0     C16064   2.359  -0.047   6.005 -0.5435 -0.1593  0.2254
  880MOL0     C16065   2.206  -0.048   6.030 -0.4536  0.1453 -0.1592
  880MOL0     C16066   2.120   0.068   5.962 -0.8499 -0.0214 -0.1050
  880MOL0     C16067   2.118   0.078   5.813 -0.2627  0.4217  0.2615
  880MOL0     C16068   2.008   0.168   5.749 -0.4433 -0.2971  0.1174
  880MOL0     C16069   1.982   0.300   5.813 -0.5215  0.2736  0.3162
  880MOL0     C16070   1.882   0.386   5.741 -0.6021  0.4844  0.6999
  880MOL0     C16071   1.857   0.528   5.793  0.2712 -0.7256 -0.0441
  880MOL0    Cl16072   1.779   0.525   5.956 -0.0206 -0.1553 -0.0649
  880MOL0     C16073   2.575   0.101   6.205 -0.1005  0.0140 -0.0336
  880MOL0     C16074   2.708   0.104   6.248 -0.7978  0.6135  0.5144
  880MOL0     O16075   2.962   0.312   6.220 -0.7104 -0.1648  0.2994
  880MOL0     C16076   3.208   0.096   6.346  0.4128 -0.7302  0.2911
  880MOL0     C16077   3.328   0.100   6.405  0.3986  0.1079 -0.5822
  880MOL0     N16078   3.629   0.814   6.579  0.0477 -0.2775 -0.9406
  880MOL0     N16079   3.619   0.936   6.530  0.2475 -0.5404 -0.4108
  880MOL0     C16080   4.757   0.934   6.502  0.2405  0.1265  0.4260
  880MOL0     C16081   4.884   0.972   6.540 -0.2180 -0.0340 -0.2979
  880MOL0     C16082   5.316   1.052   6.603 -0.7418 -0.6769 -0.3396
  880MOL0     C16083   5.377   1.144   6.521  0.7857  0.1332  0.0526
  880MOL0     C16084   5.514   1.181   6.530  0.4906 -0.0441 -0.2560
  880MOL0     C16085   5.603   1.120   6.618 -0.0192 -0.5129 -1.3424
  880MOL0     O16086   5.733   1.159   6.628  0.9473  0.4338 -0.2820
  880MOL0     C16087   5.804   1.124   6.748 -0.0122  0.0043  0.6503
  880MOL0     C16088   5.950   1.153   6.724  0.3507  0.6446  0.2851
  880MOL0     C16089   6.037   1.130   6.845 -0.6705 -0.1396  0.1677
  880MOL0     C16090   6.138   1.244   6.848 -0.4883 -0.1642 -0.1127
  880MOL0     C16091   6.233   1.215   6.954 -0.0539  0.4239 -0.4250
  880MOL0     C16092   6.314   1.202   7.048  0.5765  0.8086  0.2334
  880MOL0     C16093   5.545   1.027   6.711  0.5328 -0.5402  0.3843
  880MOL0     C16094   5.406   0.995   6.701 -0.3894 -0.1060  0.1390
  880MOL0     H16095   4.983   1.128   6.248  0.8170 -0.4422  0.6027
  880MOL0     H16096   4.769   1.057   6.184  1.4388 -1.6915 -1.2698
  880MOL0     H16097   4.506   0.931   6.502  2.4890  0.4409 -0.6235
  880MOL0     H16098   4.499   0.776   6.414 -0.7640  0.2722  0.3635
  880MOL0     H16099   4.281   0.885   6.440 -0.7753 -2.9283 -1.8936
  880MOL0     H16100   4.328   0.880   6.270  1.3263 -0.2539  0.9115
  880MOL0     H16101   4.382   1.112   6.275  2.5705  1.7894  2.0089
  880MOL0     H16102   4.360   1.116   6.455 -0.4617 -3.2145  1.6319
  880MOL0     H16103   4.178   1.220   6.294 -1.0233  0.5863  3.0073
  880MOL0     H16104   4.142   1.057   6.241 -2.2395 -0.7183  1.4924
  880MOL0     H16105   4.125   1.177   6.523  0.9795  1.3524 -0.0114
  880MOL0     H16106   4.089   1.004   6.482 -0.2238 -0.4907 -1.7272
  880MOL0     H16107   3.925   1.249   6.457  1.2818  1.0278  1.9278
  880MOL0     H16108   3.903   1.103   6.535 -1.4928  0.5276 -1.0010
  880MOL0     H16109   3.893   1.154   6.236  1.7361  0.4436 -0.2158
  880MOL0     H16110   3.924   0.989   6.294  0.9385  0.4011 -0.1874
  880MOL0     H16111   3.671   1.044   6.233 -2.2385  1.4128  1.7638
  880MOL0     H16112   3.656   1.135   6.370  1.6007  0.4355  2.1078
  880MOL0     H16113   3.818   0.780   6.318  1.1847 -3.7309  2.2295
  880MOL0     H16114   3.747   0.563   6.622  2.3569  0.6214 -0.1577
  880MOL0     H16115   3.850   0.598   6.489  0.9735  0.4858  0.1701
  880MOL0     H16116   3.644   0.523   6.346 -0.6416 -0.8228 -0.1028
  880MOL0     H16117   3.567   0.486   6.509  0.8356  2.0206  1.2071
  880MOL0     H16118   3.835   0.372   6.413 -0.7997 -1.0274 -2.5286
  880MOL0     H16119   3.752   0.325   6.563  1.5835  1.0535 -0.1531
  880MOL0     H16120   3.729   0.159   6.355  1.0896 -0.0441  4.1212
  880MOL0     H16121   3.644   0.291   6.276  1.7511  2.0506 -0.2681
  880MOL0     H16122   3.440   0.391   6.250 -0.9032  1.8284  0.7219
  880MOL0     H16123   3.216   0.399   6.184  1.4348  0.9689  0.7591
  880MOL0     H16124   2.870   0.030   5.959 -1.8285 -0.4987 -1.3649
  880MOL0     H16125   2.628   0.017   5.885  0.6659 -1.5677 -0.1003
  880MOL0     H16126   2.413  -0.123   6.062 -1.3466 -0.6744  0.3085
  880MOL0     H16127   2.366  -0.048   5.896 -2.9181  0.7788 -0.0005
  880MOL0     H16128   2.202  -0.048   6.140  0.2617  0.8935 -0.1179
  880MOL0     H16129   2.181  -0.145   5.988  1.9298  0.1062 -1.6931
  880MOL0     H16130   2.157   0.163   5.999  2.9881 -0.4588 -2.2710
  880MOL0     H16131   2.018   0.052   6.000 -0.8735 -0.5753 -0.3878
  880MOL0     H16132   2.216   0.109   5.777 -1.1298  1.4568 -1.3720
  880MOL0     H16133   2.115  -0.026   5.779  0.8433  0.0754  1.1598
  880MOL0     H16134   1.912   0.117   5.760 -0.0730 -0.7713  1.2740
  880MOL0     H16135   2.023   0.179   5.641 -0.5658 -1.5061 -0.0275
  880MOL0     H16136   2.076   0.355   5.807  0.8474 -1.8913  0.8396
  880MOL0     H16137   1.942   0.281   5.914  1.3376 -0.0930  1.0185
  880MOL0     H16138   1.916   0.400   5.638  1.1712 -0.4982  1.1057
  880MOL0     H16139   1.789   0.329   5.731 -0.2355  0.0769 -0.6791
  880MOL0     H16140   1.781   0.578   5.733  1.5223  1.8960  0.4153
  880MOL0     H16141   1.950   0.585   5.782 -0.6515  0.4201 -2.8454
  880MOL0     H16142   2.501   0.115   6.283 -0.4235 -1.7549  0.0150
  880MOL0     H16143   2.727   0.131   6.352  0.9164  1.1910  0.0862
  880MOL0     H16144   3.147   0.011   6.373 -2.2134  0.0075 -2.7870
  880MOL0     H16145   3.355   0.014   6.466  0.1179 -0.7723 -1.6527
  880MOL0     H16146   4.693   0.871   6.563 -0.9808 -1.6538 -2.4890
  880MOL0     H16147   4.910   0.950   6.643  0.0280  1.7812  0.0641
  880MOL0     H16148   5.323   1.193   6.441 -0.6421 -1.5343 -0.0406
  880MOL0     H16149   5.533   1.266   6.465 -1.9584  0.1496 -0.8008
  880MOL0     H16150   5.792   1.016   6.763 -2.7374  0.4116  2.0193
  880MOL0     H16151   5.766   1.180   6.834 -2.6080  0.1046 -0.4879
  880MOL0     H16152   5.983   1.082   6.648 -0.1256  2.9222 -2.1765
  880MOL0     H16153   5.942   1.252   6.679 -2.7866 -0.6373 -2.4278
  880MOL0     H16154   6.085   1.032   6.847 -0.3328  0.0332  0.7770
  880MOL0     H16155   5.970   1.130   6.932 -1.0408 -3.7392  0.0478
  880MOL0     H16156   6.194   1.250   6.754 -1.7304  1.5256 -0.7930
  880MOL0     H16157   6.089   1.341   6.862 -2.2856 -0.9995 -0.2912
  880MOL0     H16158   6.397   1.184   7.113  0.5272 -1.3425 -0.2008
  880MOL0     H16159   5.608   0.968   6.776 -0.1828 -3.1486 -1.1527
  880MOL0     H16160   5.376   0.922   6.776 -0.2519  1.0532  1.3652
  881MOL0     O16161   0.761   0.275   4.125  0.4100 -0.2647 -0.4096
  881MOL0     C16162   0.675   0.243   4.212 -0.0201  0.0219  0.2397
  881MOL0     O16163   0.554   0.295   4.230 -0.5830 -0.4240 -0.4254
  881MOL0     C16164   0.508   0.406   4.166  0.3001  0.6610  0.7133
  881MOL0     C16165   0.496   0.415   4.028  0.1617  0.5723  0.4201
  881MOL0     C16166   0.445   0.536   3.973 -0.6937 -0.4877 -0.6610
  881MOL0     C16167   0.417   0.641   4.049  0.2009 -0.1232 -0.0245
  881MOL0     O16168   0.384   0.757   3.991 -0.2211 -0.6602 -0.0100
  881MOL0     C16169   0.454   0.871   4.038 -0.7545 -0.0899 -0.5944
  881MOL0     C16170   0.471   0.953   3.916 -0.4542  0.2897  0.7999
  881MOL0     C16171   0.341   1.002   3.845 -0.3965 -1.1184 -0.3625
  881MOL0     C16172   0.368   1.117   3.751 -0.2118 -0.8417  0.6180
  881MOL0     C16173   0.273   1.131   3.631  1.0949  0.8194 -0.2543
  881MOL0     C16174   0.121   1.138   3.667 -0.3676  0.1133 -0.7398
  881MOL0     C16175   0.047   1.166   3.540  0.1541  0.4742 -0.2368
  881MOL0     C16176  -0.104   1.155   3.568 -0.1875  0.4931  0.1589
  881MOL0     N16177  -0.192   1.192   3.456 -0.0965 -0.0803  1.1039
  881MOL0     C16178  -0.222   1.313   3.403 -0.5374  0.0451 -0.3825
  881MOL0     C16179  -0.281   1.284   3.286 -0.8758  0.8046 -0.4062
  881MOL0     C16180  -0.294   1.386   3.181  0.2770 -0.3005  0.2902
  881MOL0     C16181  -0.419   1.470   3.216 -0.2617 -0.1666  0.2713
  881MOL0     C16182  -0.485   1.525   3.091 -0.4111 -0.2554 -0.6635
  881MOL0     C16183  -0.609   1.598   3.128 -0.2057 -0.4354 -0.1827
  881MOL0     O16184  -0.656   1.675   3.013 -0.0514  0.2174  0.3073
  881MOL0     C16185  -0.793   1.689   3.015  0.3735  1.0164 -0.1164
  881MOL0     C16186  -0.845   1.693   2.889 -0.4161 -0.1498 -0.2495
  881MOL0     C16187  -0.980   1.720   2.871 -0.0025  0.5472  0.3907
  881MOL0     C16188  -1.073   1.739   2.981  0.9560  0.6062  0.6825
  881MOL0     C16189  -1.216   1.777   2.945 -0.5907  0.2451  0.2725
  881MOL0     O16190  -1.249   1.800   2.810 -0.4872 -0.7753 -0.5064
  881MOL0     C16191  -1.379   1.815   2.773  0.0282 -2.0739 -0.7391
  881MOL0     C16192  -1.402   1.921   2.695 -0.0508 -0.2615  0.1319
  881MOL0     C16193  -1.528   1.935   2.630 -0.7854 -0.5982  0.1878
  881MOL0     C16194  -1.635   1.846   2.650  0.0746 -0.0658  0.1540
  881MOL0     O16195  -1.751   1.854   2.576  0.4479 -0.2876  0.0205
  881MOL0     C16196  -1.866   1.797   2.627  0.8086  0.6397 -0.5801
  881MOL0     C16197  -1.903   1.656   2.578 -1.0012  0.3169  0.0722
  881MOL0     C16198  -1.963   1.655   2.439  0.1783 -0.2885 -1.1120
  881MOL0     C16199  -2.015   1.515   2.399 -0.3976 -1.0630 -0.2936
  881MOL0     C16200  -2.035   1.495   2.251 -0.1403  0.1054  0.3350
  881MOL0     C16201  -2.101   1.616   2.184 -0.4657  0.5108 -0.4112
  881MOL0     C16202  -2.135   1.593   2.042 -0.3706 -0.4006 -0.5468
  881MOL0     C16203  -2.182   1.725   1.977 -0.3683 -0.3689  0.1149
  881MOL0    Cl16204  -2.064   1.855   1.973 -0.5212 -0.2424  0.2013
  881MOL0     C16205  -1.603   1.746   2.741  0.0578  0.4384  0.4315
  881MOL0     C16206  -1.477   1.727   2.806 -0.0870 -0.0148  0.5768
  881MOL0     O16207  -1.290   1.794   3.040 -0.0293 -0.1014  1.0801
  881MOL0     C16208  -1.021   1.716   3.109 -0.0520  0.2155  0.2886
  881MOL0     C16209  -0.882   1.691   3.126  0.2792  0.4903 -0.5785
  881MOL0     N16210  -0.301   1.149   3.277 -0.4766  0.5076 -0.8896
  881MOL0     N16211  -0.252   1.103   3.382 -0.3164 -0.5038 -0.6452
  881MOL0     C16212   0.425   0.627   4.188 -0.1363 -0.1743 -0.4125
  881MOL0     C16213   0.467   0.508   4.243  0.0756 -0.7839 -0.0375
  881MOL0     C16214   0.719   0.136   4.306  0.0207  0.4887 -0.3232
  881MOL0     C16215   0.624   0.078   4.390  0.2459 -0.0091 -0.6432
  881MOL0     C16216   0.655  -0.017   4.486  0.1320  0.3024 -0.5149
  881MOL0     C16217   0.795  -0.044   4.515  0.5391  0.1619 -0.6049
  881MOL0     O16218   0.830  -0.140   4.616  0.3940  0.1463  0.3861
  881MOL0     C16219   0.956  -0.105   4.684 -0.1002  0.2289  0.1803
  881MOL0     C16220   0.968  -0.162   4.830 -0.9178 -0.3286  0.4039
  881MOL0     C16221   1.092  -0.102   4.899 -0.0829 -0.5525  0.0897
  881MOL0     C16222   1.138  -0.194   5.014 -0.5365 -0.4109  0.0915
  881MOL0     C16223   1.042  -0.194   5.127  0.4009 -0.0128  0.1237
  881MOL0     C16224   0.964  -0.178   5.222  0.4210  0.1999 -0.0771
  881MOL0     C16225   0.889   0.012   4.427 -0.0323 -0.7844  0.2649
  881MOL0     C16226   0.853   0.100   4.320  0.1584  0.3706  0.6664
  881MOL0     H16227   0.526   0.346   3.949  2.3479  3.2869 -1.2831
  881MOL0     H16228   0.432   0.536   3.865  1.0760 -1.2106 -0.9081
  881MOL0     H16229   0.553   0.840   4.071 -0.3944  1.0651 -0.5500
  881MOL0     H16230   0.399   0.925   4.116 -1.0321  0.0766 -0.9018
  881MOL0     H16231   0.527   0.900   3.839  0.5934  1.8276  0.4500
  881MOL0     H16232   0.533   1.035   3.952 -0.6970  0.6118  0.4987
  881MOL0     H16233   0.260   1.029   3.913 -1.6913  1.5353 -2.7514
  881MOL0     H16234   0.318   0.919   3.777  0.0208 -1.9408  0.4870
  881MOL0     H16235   0.366   1.206   3.814  0.4258 -1.3757  1.4150
  881MOL0     H16236   0.472   1.108   3.716  0.0712  2.8204  0.1553
  881MOL0     H16237   0.301   1.054   3.559 -0.6923 -0.4985  0.3632
  881MOL0     H16238   0.288   1.225   3.577 -3.3402  1.2433 -1.1360
  881MOL0     H16239   0.111   1.222   3.736 -0.5390 -3.1672  3.6764
  881MOL0     H16240   0.094   1.043   3.714 -0.2382  0.3285 -0.2210
  881MOL0     H16241   0.070   1.269   3.511  0.3106  0.0169 -1.8505
  881MOL0     H16242   0.071   1.105   3.452  0.0097  0.0247  0.0285
  881MOL0     H16243  -0.136   1.222   3.648 -1.8437  1.5534 -1.3181
  881MOL0     H16244  -0.124   1.053   3.604  2.2790  0.7804  2.6764
  881MOL0     H16245  -0.172   1.405   3.432  2.9827 -1.4151 -1.2694
  881MOL0     H16246  -0.312   1.344   3.082  1.0276  1.9435 -0.8591
  881MOL0     H16247  -0.208   1.454   3.184 -0.2016  0.2735  1.9313
  881MOL0     H16248  -0.406   1.546   3.294 -1.6031 -0.2615  0.6040
  881MOL0     H16249  -0.486   1.394   3.259  4.5081 -4.1267  1.7391
  881MOL0     H16250  -0.419   1.588   3.031 -0.5894 -0.5142 -1.1343
  881MOL0     H16251  -0.510   1.436   3.033 -0.3094 -1.3683  0.9245
  881MOL0     H16252  -0.587   1.661   3.215  0.0188 -1.0186  0.1950
  881MOL0     H16253  -0.692   1.538   3.168 -1.9668  1.2882 -1.0990
  881MOL0     H16254  -0.776   1.663   2.810  1.2470 -2.2430  1.8536
  881MOL0     H16255  -1.005   1.712   2.766  1.4356 -1.7300  0.1477
  881MOL0     H16256  -1.329   1.994   2.661 -1.3800  0.9809 -0.1863
  881MOL0     H16257  -1.557   2.010   2.557  2.4659  1.9218  1.2292
  881MOL0     H16258  -1.952   1.859   2.600 -1.6025 -3.3371 -2.9569
  881MOL0     H16259  -1.867   1.794   2.737  0.2504  0.8426 -0.5720
  881MOL0     H16260  -1.977   1.608   2.643 -0.0246  0.3573  1.2538
  881MOL0     H16261  -1.812   1.595   2.582 -1.7253 -0.9700 -1.5106
  881MOL0     H16262  -1.884   1.684   2.370  0.8901 -1.7866 -0.9779
  881MOL0     H16263  -2.052   1.718   2.428 -0.6836 -1.4247 -0.9180
  881MOL0     H16264  -1.945   1.439   2.435  1.5735 -0.0304 -1.7053
  881MOL0     H16265  -2.113   1.492   2.442 -0.6547 -0.5211 -0.5858
  881MOL0     H16266  -2.088   1.401   2.233 -1.3780  0.2969  2.6971
  881MOL0     H16267  -1.936   1.494   2.204 -0.7050  2.4603 -1.0883
  881MOL0     H16268  -2.031   1.699   2.192  0.5073 -0.2636 -0.6431
  881MOL0     H16269  -2.191   1.634   2.243 -1.1054 -1.1985 -0.7943
  881MOL0     H16270  -2.045   1.560   1.989  0.4292 -1.3087  1.2728
  881MOL0     H16271  -2.213   1.516   2.031 -0.2120 -0.6548  0.0733
  881MOL0     H16272  -2.273   1.761   2.026 -1.2780 -0.9687 -1.0939
  881MOL0     H16273  -2.204   1.694   1.875 -1.2204  1.1399 -0.1818
  881MOL0     H16274  -1.663   1.660   2.771  2.1392 -0.8098  1.1832
  881MOL0     H16275  -1.458   1.635   2.861 -2.1309 -1.1950 -0.5326
  881MOL0     H16276  -1.085   1.722   3.197 -1.8874 -0.9518 -0.9159
  881MOL0     H16277  -0.846   1.684   3.228  0.2004  3.2953 -0.2961
  881MOL0     H16278   0.394   0.709   4.252  0.7232 -0.0520 -0.1302
  881MOL0     H16279   0.470   0.488   4.349 -2.9918 -0.7410  0.1436
  881MOL0     H16280   0.522   0.115   4.389  0.6118  1.0627 -0.0564
  881MOL0     H16281   0.579  -0.062   4.549  0.7139  0.3172  0.2125
  881MOL0     H16282   0.975   0.003   4.677  1.7203 -0.1408 -1.5341
  881MOL0     H16283   1.039  -0.149   4.628  0.2801  0.1887  0.7684
  881MOL0     H16284   0.872  -0.139   4.877 -0.9192  1.1282 -0.2409
  881MOL0     H16285   0.985  -0.268   4.809 -0.6622 -0.0770 -0.7765
  881MOL0     H16286   1.063  -0.002   4.933 -1.1640  0.1778 -2.7394
  881MOL0     H16287   1.172  -0.090   4.826  0.1463 -0.9695  0.2673
  881MOL0     H16288   1.150  -0.296   4.978  0.3467 -0.8206  1.4501
  881MOL0     H16289   1.234  -0.166   5.060 -1.3287 -1.2736  2.4496
  881MOL0     H16290   0.890  -0.151   5.294 -1.3882 -1.2137 -1.3219
  881MOL0     H16291   0.995  -0.003   4.444 -0.1328 -0.0340  1.6562
  881MOL0     H16292   0.924   0.130   4.242 -0.3685 -4.0952 -1.8862
  882MOL0     O16293   1.571   6.515   5.407 -0.1598 -0.6527  1.0871
  882MOL0     C16294   1.614   6.537   5.296  0.1706 -0.2734  0.8620
  882MOL0     O16295   1.539   6.547   5.183 -0.1258  0.5369 -0.1688
  882MOL0     C16296   1.409   6.521   5.182  0.0546  0.5229  0.1052
  882MOL0     C16297   1.378   6.382   5.182  0.5879 -0.0453  0.2792
  882MOL0     C16298   1.247   6.336   5.201 -0.0072 -0.4806  0.4926
  882MOL0     C16299   1.139   6.429   5.213  0.0370 -0.2281  0.1131
  882MOL0     O16300   1.012   6.383   5.229 -0.6267 -0.0430 -0.1182
  882MOL0     C16301   0.900   6.428   5.142 -0.0779 -1.0464  0.2298
  882MOL0     C16302   0.764   6.399   5.212 -1.4757 -0.5000  0.6629
  882MOL0     C16303   0.649   6.375   5.114 -0.3307  0.0412  0.0184
  882MOL0     C16304   0.615   6.500   5.041  0.5527  0.0696  0.2084
  882MOL0     C16305   0.466   6.541   5.053  0.0091  0.0289  1.2183
  882MOL0     C16306   0.435   6.588   5.194 -0.2583  0.1192  0.4577
  882MOL0     C16307   0.299   6.653   5.207  0.2753  0.7700  0.1934
  882MOL0     C16308   0.196   6.532   5.208  0.2193 -1.5754  0.2403
  882MOL0     N16309   0.070   6.581   5.271  0.2315  0.1261 -0.5115
  882MOL0     C16310  -0.025   6.502   5.329 -0.2664  0.0551  0.1634
  882MOL0     C16311  -0.119   6.591   5.372 -0.1387 -0.0869  0.9065
  882MOL0     C16312  -0.259   6.568   5.421 -0.1034  0.0254  0.5680
  882MOL0     C16313  -0.360   6.494   5.326  0.3567 -0.1338 -0.1557
  882MOL0     C16314  -0.484   6.448   5.397 -0.3718  0.5022 -0.3775
  882MOL0     C16315  -0.581   6.562   5.424  1.0947  0.7111 -0.5528
  882MOL0     O16316  -0.695   6.492   5.486  0.5035 -0.3306 -0.2638
  882MOL0     C16317  -0.823   6.538   5.456  0.1175  0.0831  0.2958
  882MOL0     C16318  -0.850   6.667   5.409  0.3875 -0.2100  0.8467
  882MOL0     C16319  -0.978   6.708   5.381  0.3877  0.3954 -0.6543
  882MOL0     C16320  -1.084   6.621   5.401 -0.4289  0.6068 -0.1009
  882MOL0     C16321  -1.219   6.680   5.376  0.3768 -1.2363  0.0577
  882MOL0     O16322  -1.240   6.814   5.367 -0.0700  0.0152 -0.1961
  882MOL0     C16323  -1.348   6.882   5.313 -0.6798  0.1056  0.5736
  882MOL0     C16324  -1.433   6.826   5.217 -1.1497 -0.2966  1.5131
  882MOL0     C16325  -1.551   6.891   5.180  0.4222  0.3609  0.2939
  882MOL0     C16326  -1.591   7.016   5.247 -0.0936 -0.2408  0.3968
  882MOL0     O16327  -1.701   7.086   5.225  0.0896 -0.1120 -0.3596
  882MOL0     C16328  -1.787   7.046   5.112  0.0416 -0.2848 -0.0141
  882MOL0     C16329  -1.905   7.132   5.096 -0.1945  0.2671 -0.4049
  882MOL0     C16330  -1.994   7.078   4.980  0.6716  0.6509 -0.1753
  882MOL0     C16331  -2.123   7.156   4.997  0.7095 -0.2474  0.1921
  882MOL0     C16332  -2.213   7.130   4.869  0.6403  0.3058  0.2272
  882MOL0     C16333  -2.349   7.205   4.893  0.1969 -0.3505 -0.1275
  882MOL0     C16334  -2.448   7.194   4.766 -0.5840  0.0399  0.8257
  882MOL0     C16335  -2.586   7.247   4.803 -0.2424  0.0477 -0.0817
  882MOL0    Cl16336  -2.576   7.421   4.822 -0.2451  0.5547 -0.0310
  882MOL0     C16337  -1.490   7.075   5.314  0.5832 -0.8728 -0.5842
  882MOL0     C16338  -1.372   7.011   5.345 -0.8455 -0.4091 -0.1921
  882MOL0     O16339  -1.304   6.593   5.359  0.0609 -0.6726 -0.0249
  882MOL0     C16340  -1.059   6.487   5.450  0.7474 -1.0554 -0.0476
  882MOL0     C16341  -0.930   6.449   5.467  0.1252 -0.7249 -0.4242
  882MOL0     N16342  -0.071   6.721   5.337  0.7116 -0.0042 -0.8650
  882MOL0     N16343   0.039   6.711   5.282  0.3816  0.0864 -0.3206
  882MOL0     C16344   1.179   6.567   5.215  0.5667  0.1151 -0.1705
  882MOL0     C16345   1.308   6.618   5.190  0.1660  0.5594 -0.1844
  882MOL0     C16346   1.759   6.588   5.290  0.3909  0.1904 -0.3585
  882MOL0     C16347   1.794   6.677   5.183  0.3073  0.5651  0.5690
  882MOL0     C16348   1.923   6.722   5.165 -0.0716 -0.1549 -0.1759
  882MOL0     C16349   2.026   6.687   5.255 -0.2130  0.1868 -0.9330
  882MOL0     O16350   2.153   6.733   5.241  0.0820  0.0250  0.5527
  882MOL0     C16351   2.205   6.797   5.121  0.7794 -0.1421  0.4012
  882MOL0     C16352   2.351   6.817   5.127 -0.2822  0.3335 -0.5158
  882MOL0     C16353   2.386   6.942   5.211  0.0260 -0.1308 -0.0059
  882MOL0     C16354   2.364   6.909   5.355  0.2015  0.7974  0.0900
  882MOL0     C16355   2.432   7.011   5.437  0.3612 -0.7763  0.6706
  882MOL0     C16356   2.468   7.112   5.497  0.7242 -0.1624 -0.2859
  882MOL0     C16357   1.990   6.599   5.368 -0.3410 -0.0958 -0.6673
  882MOL0     C16358   1.857   6.552   5.379  0.2341 -0.8801 -0.5288
  882MOL0     H16359   1.454   6.312   5.150 -0.2130 -0.4665 -0.7620
  882MOL0     H16360   1.229   6.229   5.199 -1.4913 -0.2405 -0.5429
  882MOL0     H16361   0.912   6.369   5.050  0.7885  0.8463 -0.9522
  882MOL0     H16362   0.904   6.536   5.124 -3.6687 -0.3961  2.5058
  882MOL0     H16363   0.740   6.485   5.274 -1.8996 -0.5305  0.5438
  882MOL0     H16364   0.781   6.316   5.280 -0.4541 -1.6007 -0.8612
  882MOL0     H16365   0.566   6.329   5.167 -0.4417  1.6240  1.2975
  882MOL0     H16366   0.683   6.308   5.034  2.3213  1.7424 -0.4113
  882MOL0     H16367   0.686   6.575   5.076  1.4551 -0.3564 -0.6625
  882MOL0     H16368   0.642   6.483   4.936  2.5632  2.6878  0.2150
  882MOL0     H16369   0.396   6.463   5.021  0.0797  0.1127  0.8495
  882MOL0     H16370   0.460   6.618   4.975  1.3391 -0.8575  0.2042
  882MOL0     H16371   0.505   6.668   5.222 -1.6391  1.0069  1.4956
  882MOL0     H16372   0.456   6.511   5.268  0.7854 -0.1220 -0.0662
  882MOL0     H16373   0.288   6.706   5.302 -2.9301 -0.3649  0.5995
  882MOL0     H16374   0.280   6.724   5.126  0.7866 -0.1020 -0.7086
  882MOL0     H16375   0.238   6.445   5.260  2.2864 -0.7282  0.0935
  882MOL0     H16376   0.179   6.511   5.102  2.5484  0.4848 -0.6602
  882MOL0     H16377  -0.021   6.394   5.320  0.5316  0.1855 -1.3289
  882MOL0     H16378  -0.306   6.659   5.460  0.7075  2.2006 -3.0554
  882MOL0     H16379  -0.240   6.505   5.508  1.1799 -0.8217 -0.2913
  882MOL0     H16380  -0.311   6.406   5.284 -0.2096  0.2093 -1.5682
  882MOL0     H16381  -0.399   6.561   5.249  1.0098  0.2107 -0.1927
  882MOL0     H16382  -0.542   6.375   5.339 -0.6664  1.4890 -1.3559
  882MOL0     H16383  -0.450   6.397   5.488  1.0647  1.6680 -0.2292
  882MOL0     H16384  -0.606   6.614   5.330 -0.0073 -1.7337 -1.7134
  882MOL0     H16385  -0.558   6.641   5.495 -0.2877 -1.7278  2.9100
  882MOL0     H16386  -0.774   6.744   5.398 -0.2444  0.2756 -0.1907
  882MOL0     H16387  -0.992   6.811   5.351  0.9036 -0.0868 -2.7090
  882MOL0     H16388  -1.411   6.726   5.181  0.7860  0.2200  1.1695
  882MOL0     H16389  -1.628   6.844   5.119 -0.0670 -0.9313  1.8460
  882MOL0     H16390  -1.821   6.942   5.116  0.3982 -0.3950  0.2104
  882MOL0     H16391  -1.727   7.058   5.021  0.5000 -1.2345  0.1431
  882MOL0     H16392  -1.869   7.230   5.063  1.5724 -0.5511 -1.0200
  882MOL0     H16393  -1.958   7.132   5.192 -1.0320 -1.6289 -0.8323
  882MOL0     H16394  -2.024   6.973   4.986  0.2931  0.7822  0.3569
  882MOL0     H16395  -1.954   7.077   4.878  1.6203  2.2567  0.1394
  882MOL0     H16396  -2.173   7.127   5.089  1.4698 -3.1944 -0.2279
  882MOL0     H16397  -2.113   7.265   5.006  0.1488 -0.1175 -0.6347
  882MOL0     H16398  -2.235   7.024   4.852  0.2372  0.4869 -0.4452
  882MOL0     H16399  -2.164   7.176   4.783 -0.3238  2.2755  0.6834
  882MOL0     H16400  -2.320   7.309   4.912 -0.4998 -0.3908  1.2366
  882MOL0     H16401  -2.397   7.154   4.976  1.5007  0.1559  0.9747
  882MOL0     H16402  -2.400   7.254   4.688  1.5343 -0.8187  1.4067
  882MOL0     H16403  -2.461   7.088   4.742  3.7471 -0.3974 -0.4078
  882MOL0     H16404  -2.618   7.192   4.892  0.7828  1.8678  1.4932
  882MOL0     H16405  -2.652   7.235   4.716  1.3136  4.1961 -2.0980
  882MOL0     H16406  -1.502   7.180   5.341 -0.7425 -0.6830 -1.7632
  882MOL0     H16407  -1.289   7.059   5.395 -0.9935  0.4554 -0.7558
  882MOL0     H16408  -1.133   6.425   5.498 -0.1011  0.2874  0.4208
  882MOL0     H16409  -0.911   6.344   5.484  2.0894 -0.0068  2.5897
  882MOL0     H16410   1.098   6.635   5.240 -0.5106 -1.6416  1.5229
  882MOL0     H16411   1.336   6.722   5.194  1.0954  0.2890  1.6782
  882MOL0     H16412   1.707   6.708   5.126  1.5971  1.6899 -0.8916
  882MOL0     H16413   1.947   6.780   5.077  1.1398 -1.1007 -0.4982
  882MOL0     H16414   2.168   6.898   5.100 -0.5900 -0.2113  2.1962
  882MOL0     H16415   2.172   6.738   5.036 -2.8846  2.6474 -0.3225
  882MOL0     H16416   2.395   6.725   5.168  0.1040  1.3780  1.5552
  882MOL0     H16417   2.386   6.826   5.024 -0.2813  2.7962 -0.3467
  882MOL0     H16418   2.332   7.031   5.177 -2.4406 -1.0900  1.1598
  882MOL0     H16419   2.493   6.960   5.195  0.0527  0.7740  1.1062
  882MOL0     H16420   2.258   6.900   5.382  0.4125 -4.1606  0.0432
  882MOL0     H16421   2.401   6.810   5.383 -0.8191  0.6423  0.9815
  882MOL0     H16422   2.499   7.198   5.553  1.3856 -0.2693 -0.4781
  882MOL0     H16423   2.069   6.574   5.439 -0.6855 -3.4091 -1.2570
  882MOL0     H16424   1.841   6.489   5.466  1.9606  0.8216  1.1294
  883MOL0     O16425   7.397  11.177   7.943 -0.2442 -0.2012  0.2283
  883MOL0     C16426   7.432  11.225   7.837  0.2061  0.1601  0.9538
  883MOL0     O16427   7.363  11.234   7.715  0.2170  0.1833 -0.3721
  883MOL0     C16428   7.239  11.181   7.690 -1.1390 -0.9734 -0.1090
  883MOL0     C16429   7.181  11.216   7.563 -0.1866  0.0502 -0.1846
  883MOL0     C16430   7.057  11.150   7.529  0.5916 -0.2881 -0.5528
  883MOL0     C16431   6.982  11.072   7.618  0.1321 -0.9385 -0.1926
  883MOL0     O16432   6.859  11.020   7.576 -0.2377 -0.4998 -0.6700
  883MOL0     C16433   6.789  10.926   7.662 -0.1438  0.4478  0.0314
  883MOL0     C16434   6.674  10.871   7.572  0.2167 -0.2343 -0.2169
  883MOL0     C16435   6.602  10.759   7.641  0.6317 -0.8030 -0.0553
  883MOL0     C16436   6.456  10.764   7.578 -0.3171 -0.1026  0.1504
  883MOL0     C16437   6.385  10.623   7.585 -0.2613  0.9141  0.6920
  883MOL0     C16438   6.239  10.618   7.551 -0.2210  0.3386  0.3273
  883MOL0     C16439   6.207  10.619   7.403  0.1955 -0.4990 -0.5100
  883MOL0     C16440   6.055  10.643   7.386  0.5679  0.4099 -0.4848
  883MOL0     N16441   6.011  10.610   7.260 -0.0237 -0.3361  0.8518
  883MOL0     C16442   6.039  10.500   7.183  0.8462  0.6794 -0.1291
  883MOL0     C16443   6.004  10.536   7.058 -0.4084 -0.3336 -0.2576
  883MOL0     C16444   6.031  10.452   6.929 -0.3511  0.2657 -0.0330
  883MOL0     C16445   6.063  10.307   6.957  0.3071  1.5859 -0.3855
  883MOL0     C16446   6.076  10.230   6.823 -0.8719  0.8140  0.3427
  883MOL0     C16447   6.214  10.253   6.749  0.0755 -0.0010  0.6167
  883MOL0     O16448   6.328  10.206   6.816 -0.6789 -0.1094  0.0631
  883MOL0     C16449   6.451  10.237   6.766 -0.8060 -0.3007  0.6569
  883MOL0     C16450   6.563  10.216   6.845  0.2396  0.4816 -0.2721
  883MOL0     C16451   6.693  10.248   6.804 -0.6393 -0.6708 -0.0634
  883MOL0     C16452   6.714  10.312   6.678  0.1643 -0.4321  0.3838
  883MOL0     C16453   6.845  10.343   6.623 -0.5971  0.1424  0.0444
  883MOL0     O16454   6.850  10.368   6.491  0.6096 -0.5510  0.4907
  883MOL0     C16455   6.977  10.381   6.436 -0.7361 -0.3496 -0.3855
  883MOL0     C16456   7.077  10.472   6.485  0.7229 -0.5841 -0.3405
  883MOL0     C16457   7.210  10.485   6.424 -0.1552  0.4227 -0.5243
  883MOL0     C16458   7.233  10.401   6.315 -1.1661  0.4833 -0.1517
  883MOL0     O16459   7.352  10.387   6.247  0.3731  0.4374  0.0677
  883MOL0     C16460   7.466  10.456   6.291 -0.7609 -0.8689  0.2668
  883MOL0     C16461   7.572  10.415   6.189 -0.3239  0.5062 -0.0871
  883MOL0     C16462   7.715  10.465   6.230 -0.1039 -0.0005 -0.6967
  883MOL0     C16463   7.811  10.456   6.115 -0.0288  1.0630 -0.5458
  883MOL0     C16464   7.958  10.423   6.165 -0.4438  0.4669 -0.3376
  883MOL0     C16465   8.054  10.427   6.046  0.9395  0.5601 -0.2641
  883MOL0     C16466   8.194  10.401   6.102 -0.0622 -0.2392 -0.2641
  883MOL0     C16467   8.299  10.432   5.999  0.5526  0.5159 -0.1231
  883MOL0    Cl16468   8.273  10.319   5.865  0.4242 -0.1999  0.2039
  883MOL0     C16469   7.140  10.309   6.269  0.5387  0.1101 -0.2433
  883MOL0     C16470   7.014  10.299   6.333  0.2893 -0.0036  0.5245
  883MOL0     O16471   6.942  10.315   6.694  0.6273 -0.1582 -0.4825
  883MOL0     C16472   6.604  10.327   6.602 -0.1839  0.1177  0.7451
  883MOL0     C16473   6.473  10.302   6.646 -0.0560  0.4228 -0.5886
  883MOL0     N16474   5.951  10.665   7.059  0.6132 -0.1317  0.3526
  883MOL0     N16475   5.953  10.704   7.183  1.1834 -0.1982  1.2876
  883MOL0     C16476   7.046  11.036   7.735  0.1206 -0.9434 -0.1409
  883MOL0     C16477   7.177  11.082   7.764  0.3527  1.1058 -0.1069
  883MOL0     C16478   7.571  11.284   7.827  1.4276  0.5611 -1.0448
  883MOL0     C16479   7.671  11.243   7.918 -0.4617  0.6781 -0.4955
  883MOL0     C16480   7.801  11.294   7.925  0.4322 -0.0880 -1.0484
  883MOL0     C16481   7.829  11.400   7.833  0.7729  0.6045  0.1316
  883MOL0     O16482   7.947  11.474   7.836 -0.3340 -0.5630  0.2019
  883MOL0     C16483   8.024  11.481   7.957 -0.4213  0.1134  0.7158
  883MOL0     C16484   8.164  11.541   7.924 -0.0588  0.1667 -0.0474
  883MOL0     C16485   8.259  11.574   8.043 -0.6146  0.7795 -1.4326
  883MOL0     C16486   8.378  11.662   7.984  0.2788 -0.7567 -0.1659
  883MOL0     C16487   8.478  11.659   8.093 -0.4917  0.7262 -0.0037
  883MOL0     C16488   8.572  11.640   8.164  0.4288 -0.5895 -0.2677
  883MOL0     C16489   7.734  11.429   7.735 -0.2659 -0.0971 -0.3267
  883MOL0     C16490   7.605  11.375   7.735  0.1140 -0.1263 -0.0904
  883MOL0     H16491   7.236  11.277   7.492  1.6736 -3.3471 -1.9115
  883MOL0     H16492   7.001  11.171   7.438 -1.0542  0.2175  0.5357
  883MOL0     H16493   6.743  10.977   7.747 -2.1016  1.6335 -1.6437
  883MOL0     H16494   6.856  10.843   7.687 -0.0612  0.0227 -1.4683
  883MOL0     H16495   6.719  10.826   7.483 -0.3870 -0.0221 -0.6316
  883MOL0     H16496   6.616  10.959   7.545  0.5169 -0.2972 -1.1047
  883MOL0     H16497   6.594  10.775   7.749  0.7869  2.1619 -0.3876
  883MOL0     H16498   6.648  10.662   7.620  0.7359 -0.7280 -0.1773
  883MOL0     H16499   6.410  10.840   7.641  1.2726  1.5098 -0.5609
  883MOL0     H16500   6.459  10.809   7.478  2.3941  1.1785  0.7133
  883MOL0     H16501   6.394  10.581   7.686 -1.3890 -0.8027  0.1200
  883MOL0     H16502   6.432  10.558   7.511  0.8168  0.5658  1.6461
  883MOL0     H16503   6.194  10.706   7.598  1.8972  1.3074  0.6454
  883MOL0     H16504   6.198  10.526   7.595  1.3684 -0.1777  0.8084
  883MOL0     H16505   6.258  10.704   7.356 -1.5922  0.5529 -0.6283
  883MOL0     H16506   6.223  10.523   7.353 -4.0115 -0.8310 -1.5502
  883MOL0     H16507   6.041  10.749   7.408  0.1205  0.2283  0.1291
  883MOL0     H16508   5.997  10.584   7.458  1.1560 -1.4442 -1.4716
  883MOL0     H16509   6.098  10.411   7.201  1.9492  0.7240 -2.9397
  883MOL0     H16510   6.098  10.508   6.863 -2.5166  0.2572 -2.4379
  883MOL0     H16511   5.932  10.446   6.882 -1.3667  1.0293  1.8744
  883MOL0     H16512   5.987  10.261   7.020  0.5385 -1.0680 -1.8958
  883MOL0     H16513   6.157  10.291   7.011 -0.0052 -0.0986 -0.2984
  883MOL0     H16514   6.068  10.125   6.851 -0.9195  0.1588 -1.9043
  883MOL0     H16515   5.995  10.253   6.754 -2.1502 -0.9400  1.1859
  883MOL0     H16516   6.221  10.362   6.740 -3.2587  0.6781  3.6985
  883MOL0     H16517   6.201  10.213   6.649  1.2457  1.3596 -0.1140
  883MOL0     H16518   6.531  10.160   6.933 -1.3906 -2.1645 -2.3772
  883MOL0     H16519   6.775  10.236   6.875  1.6665 -0.7006 -2.5524
  883MOL0     H16520   7.065  10.536   6.572 -0.2563 -0.5612 -0.4752
  883MOL0     H16521   7.286  10.549   6.467 -0.0255 -0.0286 -0.0748
  883MOL0     H16522   7.499  10.422   6.390  4.5507 -0.0317 -0.8903
  883MOL0     H16523   7.455  10.565   6.289 -0.9779 -0.9034 -1.3220
  883MOL0     H16524   7.548  10.445   6.086  1.7078 -3.0862 -1.8013
  883MOL0     H16525   7.574  10.306   6.186 -1.0794  0.4361  1.4087
  883MOL0     H16526   7.754  10.399   6.309 -0.1263  2.4149  1.4606
  883MOL0     H16527   7.721  10.560   6.283 -0.7374 -0.1386 -0.3551
  883MOL0     H16528   7.774  10.386   6.040  1.9640 -0.7548  0.0762
  883MOL0     H16529   7.813  10.560   6.078  1.6367  1.6146  0.9688
  883MOL0     H16530   7.955  10.326   6.216  2.5055  1.6835  2.4738
  883MOL0     H16531   7.988  10.497   6.240 -2.7477  0.4389  0.6795
  883MOL0     H16532   8.047  10.518   5.986  1.2762 -0.6019 -2.1540
  883MOL0     H16533   8.033  10.341   5.981 -0.1444 -1.0175  2.0580
  883MOL0     H16534   8.222  10.474   6.179 -0.2907 -2.2795  1.8367
  883MOL0     H16535   8.204  10.301   6.144 -1.5839  0.1092  1.0510
  883MOL0     H16536   8.399  10.425   6.043  1.1725 -4.0553 -1.6846
  883MOL0     H16537   8.288  10.536   5.969 -1.2745  0.3734 -0.0351
  883MOL0     H16538   7.149  10.242   6.184  0.7353  0.5211 -0.5507
  883MOL0     H16539   6.942  10.230   6.291  1.3719  0.9044 -3.2023
  883MOL0     H16540   6.612  10.371   6.503  1.4187 -0.8037  0.4296
  883MOL0     H16541   6.390  10.321   6.579 -1.2708  0.7455  0.9299
  883MOL0     H16542   6.990  10.970   7.800 -0.2559 -1.5295 -1.0464
  883MOL0     H16543   7.223  11.032   7.849 -3.2144 -0.5455  1.0568
  883MOL0     H16544   7.646  11.160   7.983 -1.1218 -0.0297 -1.6291
  883MOL0     H16545   7.866  11.272   8.009  0.6174  0.9127 -0.9143
  883MOL0     H16546   8.040  11.383   8.003  0.6028 -0.0499  0.0454
  883MOL0     H16547   7.978  11.545   8.033 -0.6183 -0.3674  1.0068
  883MOL0     H16548   8.217  11.477   7.853  0.3209  1.7631 -1.2780
  883MOL0     H16549   8.141  11.625   7.857 -0.9474  0.1631  0.2334
  883MOL0     H16550   8.294  11.480   8.085 -0.0555  0.5989 -2.2752
  883MOL0     H16551   8.199  11.619   8.122 -3.0170  0.0630 -2.7359
  883MOL0     H16552   8.423  11.613   7.897  0.0960 -2.5389  0.6858
  883MOL0     H16553   8.350  11.765   7.959  2.4813 -0.4693 -1.7197
  883MOL0     H16554   8.656  11.616   8.225 -0.3393 -3.4263 -0.1791
  883MOL0     H16555   7.756  11.500   7.656 -0.9067 -0.0959 -0.5156
  883MOL0     H16556   7.530  11.406   7.662 -0.5748 -0.0768  0.6194
  884MOL0     O16557   6.420   9.724   5.020 -0.8920 -0.5026 -0.2458
  884MOL0     C16558   6.462   9.692   5.126 -0.6412 -0.4658 -0.3135
  884MOL0     O16559   6.414   9.589   5.205 -0.2656 -0.2925 -0.3929
  884MOL0     C16560   6.300   9.527   5.152 -0.1228 -0.4028 -0.7035
  884MOL0     C16561   6.180   9.544   5.223 -0.0116  0.4823  0.2083
  884MOL0     C16562   6.056   9.497   5.178  0.5305 -0.3770  0.1728
  884MOL0     C16563   6.043   9.435   5.053  0.0931 -0.3138  0.0209
  884MOL0     O16564   5.928   9.376   5.003  0.1602 -0.1632  0.4494
  884MOL0     C16565   5.813   9.460   4.995  0.7372  0.2976  0.1962
  884MOL0     C16566   5.699   9.375   4.934  0.3541  0.5974  0.5379
  884MOL0     C16567   5.653   9.266   5.030  0.3821 -0.2419 -0.5378
  884MOL0     C16568   5.591   9.315   5.165  0.0671 -0.4204 -0.5194
  884MOL0     C16569   5.526   9.193   5.244 -0.5777  0.9834  0.3386
  884MOL0     C16570   5.395   9.156   5.181 -0.3028 -0.0638  0.6870
  884MOL0     C16571   5.298   9.087   5.275  0.8605 -0.2606  0.3238
  884MOL0     C16572   5.193   9.198   5.320 -0.0373 -0.4137 -0.0759
  884MOL0     N16573   5.240   9.304   5.408 -0.1593  0.1022 -0.5074
  884MOL0     C16574   5.274   9.271   5.541 -0.3945  0.0481  0.1743
  884MOL0     C16575   5.288   9.397   5.589  0.2180 -0.2364  0.7594
  884MOL0     C16576   5.312   9.432   5.731  0.0165  0.7235 -0.3654
  884MOL0     C16577   5.176   9.478   5.792  0.3142 -0.1407  0.3527
  884MOL0     C16578   5.075   9.365   5.828  0.7332 -0.1015  1.0804
  884MOL0     C16579   4.954   9.427   5.905 -0.8129 -0.0026 -0.0468
  884MOL0     O16580   4.990   9.458   6.037 -0.0441  0.5742  0.2438
  884MOL0     C16581   4.891   9.522   6.113 -0.3091  0.6932 -0.3268
  884MOL0     C16582   4.758   9.531   6.074  0.2331  0.1904  0.3285
  884MOL0     C16583   4.662   9.579   6.159  0.2060  0.5505  0.1746
  884MOL0     C16584   4.699   9.622   6.286 -0.0410 -0.2716 -1.0025
  884MOL0     C16585   4.586   9.672   6.378  0.2932 -0.1463  0.6548
  884MOL0     O16586   4.454   9.650   6.341  0.2677  0.0774 -0.0941
  884MOL0     C16587   4.357   9.698   6.424 -0.5186  0.3052  0.0848
  884MOL0     C16588   4.257   9.604   6.470  0.1826 -0.6321 -0.1048
  884MOL0     C16589   4.150   9.662   6.537  0.1852  0.5580  0.2375
  884MOL0     C16590   4.142   9.800   6.569 -0.3241  0.2448  0.0392
  884MOL0     O16591   4.029   9.856   6.619  0.1891  0.1451  0.1661
  884MOL0     C16592   3.910   9.773   6.615  0.1264 -0.0274  0.4270
  884MOL0     C16593   3.796   9.864   6.663 -0.3587 -0.2458 -0.0111
  884MOL0     C16594   3.665   9.791   6.662 -0.2505  0.3984 -0.1121
  884MOL0     C16595   3.549   9.869   6.714  0.5219  0.2904  0.9732
  884MOL0     C16596   3.443   9.760   6.753 -0.1272 -0.0854 -0.4962
  884MOL0     C16597   3.368   9.671   6.648 -0.5280 -0.3568  0.3290
  884MOL0     C16598   3.245   9.605   6.711 -0.0964 -0.5471  0.7651
  884MOL0     C16599   3.122   9.696   6.702  0.7639  0.7040 -0.0930
  884MOL0    Cl16600   2.979   9.601   6.756 -0.3498 -0.4690  0.4078
  884MOL0     C16601   4.245   9.879   6.533 -0.1626  0.0973  0.1142
  884MOL0     C16602   4.345   9.837   6.453 -0.0101  0.8232  0.1124
  884MOL0     O16603   4.620   9.725   6.485 -0.2975  0.9504 -0.3413
  884MOL0     C16604   4.828   9.617   6.327 -0.2174 -0.7460 -0.2737
  884MOL0     C16605   4.930   9.564   6.244 -0.6134  0.3995 -0.4907
  884MOL0     N16606   5.282   9.498   5.489  0.5793 -0.4998 -0.6213
  884MOL0     N16607   5.254   9.439   5.376  0.4662  0.1616  0.1855
  884MOL0     C16608   6.165   9.425   4.981 -0.8582  0.7219 -0.1249
  884MOL0     C16609   6.292   9.453   5.042 -0.0821  0.2486 -0.5087
  884MOL0     C16610   6.587   9.766   5.177  0.0975  0.4236  0.5906
  884MOL0     C16611   6.662   9.720   5.292  0.3904 -0.2303  0.3664
  884MOL0     C16612   6.774   9.793   5.331  0.4297 -0.0461  0.1232
  884MOL0     C16613   6.822   9.900   5.260 -0.1647  0.1722  0.4162
  884MOL0     O16614   6.935   9.967   5.304  0.5725  0.2057  0.6184
  884MOL0     C16615   7.030   9.886   5.368  0.4781 -0.1484  0.3222
  884MOL0     C16616   7.165   9.932   5.317  0.7742 -0.1022 -0.2652
  884MOL0     C16617   7.280   9.859   5.384  0.8856 -0.0392 -0.0080
  884MOL0     C16618   7.413   9.900   5.329 -0.3195  0.9612  0.0791
  884MOL0     C16619   7.520   9.834   5.403  0.9121 -0.0224  0.0674
  884MOL0     C16620   7.613   9.783   5.456  0.1938  0.7358  0.0506
  884MOL0     C16621   6.749   9.939   5.149  0.7661 -0.7094  0.4894
  884MOL0     C16622   6.635   9.874   5.108  0.3522 -0.1364 -0.0051
  884MOL0     H16623   6.182   9.611   5.308 -0.6341  1.2295 -0.3431
  884MOL0     H16624   5.963   9.512   5.232  0.2084  1.8934 -0.8918
  884MOL0     H16625   5.833   9.546   4.931  2.0730  2.9371  3.7866
  884MOL0     H16626   5.776   9.491   5.093 -3.7002 -2.2814 -0.4241
  884MOL0     H16627   5.716   9.331   4.836  2.9113 -0.2499  1.2922
  884MOL0     H16628   5.614   9.444   4.926 -1.0817 -0.8976  2.0554
  884MOL0     H16629   5.743   9.210   5.058  1.9761  2.3947 -0.0113
  884MOL0     H16630   5.578   9.209   4.974 -0.3750  0.5105 -0.3139
  884MOL0     H16631   5.675   9.343   5.228 -0.6857 -1.7497  1.1965
  884MOL0     H16632   5.519   9.396   5.151 -1.7821 -2.0487 -0.9491
  884MOL0     H16633   5.503   9.220   5.348  1.5534  0.0687  1.0917
  884MOL0     H16634   5.590   9.105   5.238 -1.8119 -0.0399  1.5770
  884MOL0     H16635   5.413   9.096   5.091 -0.7970 -2.2436  1.9577
  884MOL0     H16636   5.351   9.243   5.131  0.3952 -0.3411 -0.4346
  884MOL0     H16637   5.241   9.010   5.222 -2.2406  0.1544  2.7543
  884MOL0     H16638   5.343   9.042   5.364  1.5310 -0.3037 -0.0320
  884MOL0     H16639   5.115   9.139   5.370 -2.6809  1.7495 -1.3738
  884MOL0     H16640   5.140   9.255   5.243 -3.8174 -2.0686  1.0542
  884MOL0     H16641   5.292   9.176   5.590 -1.1628 -0.1380  0.1075
  884MOL0     H16642   5.386   9.512   5.717  0.3597  0.2335 -1.4217
  884MOL0     H16643   5.354   9.352   5.792 -1.5041 -1.4737 -2.0772
  884MOL0     H16644   5.122   9.537   5.718 -3.4755 -1.7656  1.5952
  884MOL0     H16645   5.194   9.550   5.873 -1.0828  4.8948 -3.3251
  884MOL0     H16646   5.042   9.320   5.733 -1.5184  4.6323 -0.6810
  884MOL0     H16647   5.124   9.283   5.882 -0.0291  0.2076  2.2887
  884MOL0     H16648   4.875   9.350   5.905  1.1727 -2.1522  0.9136
  884MOL0     H16649   4.922   9.508   5.838  0.1576 -0.2494 -0.8315
  884MOL0     H16650   4.727   9.496   5.976  0.5140  0.1308  0.2609
  884MOL0     H16651   4.559   9.578   6.127  0.5734 -2.1663 -1.2255
  884MOL0     H16652   4.274   9.497   6.466 -0.4350 -0.8099  1.2814
  884MOL0     H16653   4.075   9.594   6.574  0.1923  2.1905  3.5809
  884MOL0     H16654   3.917   9.691   6.687 -1.3812  2.1367  3.2772
  884MOL0     H16655   3.895   9.734   6.514 -1.4396 -1.0982  1.0247
  884MOL0     H16656   3.801   9.944   6.588  1.6824 -1.5699 -1.3917
  884MOL0     H16657   3.825   9.911   6.757  1.1932 -1.9709  0.4341
  884MOL0     H16658   3.681   9.714   6.738  0.4300  2.0655  1.4916
  884MOL0     H16659   3.645   9.750   6.562 -0.5845 -2.1997  0.9384
  884MOL0     H16660   3.585   9.928   6.799  0.9475  2.5078 -0.6805
  884MOL0     H16661   3.522   9.933   6.630  5.6627  1.6074 -0.0226
  884MOL0     H16662   3.370   9.815   6.814  2.3173  1.7428  0.9736
  884MOL0     H16663   3.493   9.694   6.825 -0.7309  2.7034  2.7711
  884MOL0     H16664   3.431   9.589   6.612 -1.9965 -0.9075 -1.1356
  884MOL0     H16665   3.338   9.730   6.561  2.0400  0.6879  0.0728
  884MOL0     H16666   3.215   9.522   6.646 -0.6007  0.9776 -1.0314
  884MOL0     H16667   3.271   9.561   6.808 -0.3695 -1.0169  0.6312
  884MOL0     H16668   3.099   9.716   6.596 -2.0954  0.9770  0.5038
  884MOL0     H16669   3.134   9.795   6.748  0.5678  0.7649 -0.1725
  884MOL0     H16670   4.236   9.986   6.552 -0.0571  0.1026  0.1341
  884MOL0     H16671   4.419   9.906   6.415 -0.4219  0.5085 -1.3276
  884MOL0     H16672   4.844   9.648   6.430 -0.6420  0.0011 -0.4216
  884MOL0     H16673   5.033   9.572   6.278 -1.2084  1.7899  1.1414
  884MOL0     H16674   6.159   9.368   4.888  0.8596 -1.1081  0.8116
  884MOL0     H16675   6.389   9.440   4.995  0.6952  0.8263  0.8677
  884MOL0     H16676   6.624   9.631   5.340  1.0216 -0.5668  0.2510
  884MOL0     H16677   6.827   9.756   5.418  2.2012 -3.4333 -2.1918
  884MOL0     H16678   7.016   9.778   5.353 -0.4500 -0.2591  1.7728
  884MOL0     H16679   7.037   9.904   5.476  1.9121 -1.2304  0.4458
  884MOL0     H16680   7.177   9.919   5.209  2.2287 -1.0381 -0.0100
  884MOL0     H16681   7.175  10.039   5.337 -1.3139  0.0279  0.4032
  884MOL0     H16682   7.268   9.751   5.375 -0.7525  0.2827 -2.8392
  884MOL0     H16683   7.277   9.887   5.490  0.6221  1.2740 -0.3431
  884MOL0     H16684   7.418   9.869   5.225  0.8619 -0.9489  0.6418
  884MOL0     H16685   7.429  10.007   5.343  2.6247  0.5509  0.5886
  884MOL0     H16686   7.696   9.747   5.513  0.2358  1.4569  0.4602
  884MOL0     H16687   6.802  10.012   5.089 -0.6193 -0.5381 -0.5664
  884MOL0     H16688   6.598   9.910   5.013  2.3183 -1.1485 -1.2210
  885MOL0     O16689   0.866  10.316   6.417 -0.6258 -0.2499 -0.0858
  885MOL0     C16690   0.911  10.281   6.528  0.7926 -0.4402  0.2293
  885MOL0     O16691   0.865  10.326   6.647 -0.2834  0.2352 -1.2904
  885MOL0     C16692   0.779  10.429   6.656  0.4224  0.1883 -1.4264
  885MOL0     C16693   0.694  10.414   6.762 -0.5482 -0.1995  0.3207
  885MOL0     C16694   0.597  10.505   6.798  0.6237  0.2626 -0.1332
  885MOL0     C16695   0.596  10.636   6.735 -0.4858 -0.3115 -0.2816
  885MOL0     O16696   0.504  10.737   6.750  0.0483  0.0919 -0.4304
  885MOL0     C16697   0.433  10.734   6.878  0.2636 -0.5651  0.8344
  885MOL0     C16698   0.359  10.863   6.896 -0.3956 -1.0697 -0.1634
  885MOL0     C16699   0.324  10.872   7.045  0.8628  0.0763  0.5067
  885MOL0     C16700   0.271  11.006   7.090  0.3542  0.7482 -0.4305
  885MOL0     C16701   0.289  11.038   7.239  0.5075 -0.0629  0.1339
  885MOL0     C16702   0.202  10.940   7.318  0.2110  0.4188 -0.7711
  885MOL0     C16703   0.243  10.950   7.466 -0.3549  0.5763  0.5351
  885MOL0     C16704   0.193  10.836   7.551 -0.2511  0.1930 -0.0362
  885MOL0     N16705   0.045  10.844   7.573 -1.0984 -0.0340  0.2917
  885MOL0     C16706  -0.027  10.956   7.587  0.0765 -0.0800  0.2146
  885MOL0     C16707  -0.158  10.922   7.593 -0.4484  0.1846 -1.0262
  885MOL0     C16708  -0.280  11.015   7.589  0.4223  0.1877  0.0055
  885MOL0     C16709  -0.327  11.055   7.729 -0.6359  0.1605  0.9270
  885MOL0     C16710  -0.221  11.131   7.796  0.4409 -0.1319 -0.4369
  885MOL0     C16711  -0.273  11.195   7.929  0.7866 -0.2022  0.5368
  885MOL0     O16712  -0.308  11.099   8.020 -0.7471 -0.0535 -0.4821
  885MOL0     C16713  -0.444  11.082   8.046  0.2550 -0.4330  0.2773
  885MOL0     C16714  -0.470  11.006   8.162  0.1520 -0.0544  0.6773
  885MOL0     C16715  -0.604  10.979   8.203 -0.3062 -0.2029  0.9340
  885MOL0     C16716  -0.712  11.034   8.127 -0.3698 -0.1539 -0.4589
  885MOL0     C16717  -0.854  11.011   8.167 -0.7678 -0.3616 -0.4815
  885MOL0     O16718  -0.876  10.970   8.293  1.0075 -0.7892  0.5918
  885MOL0     C16719  -1.002  10.935   8.344  0.1347 -0.1727  0.5895
  885MOL0     C16720  -1.097  10.862   8.276 -0.6954 -1.6432  0.6558
  885MOL0     C16721  -1.207  10.816   8.337 -0.9795  0.7131  0.1611
  885MOL0     C16722  -1.225  10.828   8.476  0.6303 -1.0157 -0.3845
  885MOL0     O16723  -1.340  10.771   8.526  0.1110 -0.0354 -0.0509
  885MOL0     C16724  -1.349  10.783   8.671 -0.0411 -0.0580 -0.3894
  885MOL0     C16725  -1.467  10.707   8.716 -0.7760  0.0828  0.1325
  885MOL0     C16726  -1.589  10.786   8.661  0.3873 -0.1957 -0.6855
  885MOL0     C16727  -1.723  10.725   8.704 -0.5497  0.3875 -0.6443
  885MOL0     C16728  -1.842  10.798   8.644  0.1728  0.9758  0.0436
  885MOL0     C16729  -1.973  10.758   8.712 -0.1623 -0.5878 -0.0938
  885MOL0     C16730  -2.080  10.872   8.711 -0.2033 -0.1117 -0.3290
  885MOL0     C16731  -2.223  10.817   8.718  1.5338 -0.3270 -0.1013
  885MOL0    Cl16732  -2.249  10.710   8.864  0.0918  0.1763  0.3184
  885MOL0     C16733  -1.126  10.895   8.545  0.7027 -0.0066  0.4958
  885MOL0     C16734  -1.016  10.951   8.482  0.3270  0.2440 -0.7227
  885MOL0     O16735  -0.936  11.019   8.076 -0.8324  0.1115  0.0927
  885MOL0     C16736  -0.680  11.105   8.011  0.4881  0.2353  0.7660
  885MOL0     C16737  -0.549  11.134   7.964  0.2372 -0.4543 -0.4816
  885MOL0     N16738  -0.168  10.792   7.565  0.1411 -0.2949 -0.0903
  885MOL0     N16739  -0.046  10.737   7.559  0.1691 -0.8289  0.2195
  885MOL0     C16740   0.681  10.648   6.629  0.0738 -0.6279  0.0250
  885MOL0     C16741   0.774  10.546   6.584 -0.0120 -0.2108  0.7158
  885MOL0     C16742   1.019  10.178   6.535 -0.5579  0.0169 -0.6412
  885MOL0     C16743   1.077  10.125   6.657  0.1724  0.6741 -0.4880
  885MOL0     C16744   1.179  10.028   6.638  0.8130 -0.1051  0.2472
  885MOL0     C16745   1.235   9.988   6.514  0.5609 -0.9047 -0.2770
  885MOL0     O16746   1.327   9.886   6.508 -0.7416 -0.2033  0.9016
  885MOL0     C16747   1.273   9.759   6.529 -0.5045  0.5557 -0.1376
  885MOL0     C16748   1.195   9.696   6.406  0.4234  0.2049  0.0596
  885MOL0     C16749   1.279   9.667   6.278  0.5021 -0.0505 -0.2526
  885MOL0     C16750   1.384   9.554   6.297 -0.6094  0.1986  0.5916
  885MOL0     C16751   1.325   9.424   6.340 -0.4814 -0.0673 -0.1561
  885MOL0     C16752   1.285   9.313   6.346 -0.0342 -0.2690  0.5319
  885MOL0     C16753   1.193  10.057   6.403  0.1444 -0.6576 -0.2097
  885MOL0     C16754   1.080  10.139   6.409 -0.6643  0.6426  0.5312
  885MOL0     H16755   0.695  10.324   6.823 -0.5324  1.1301  2.3774
  885MOL0     H16756   0.526  10.488   6.877  1.7760  0.9380  1.0916
  885MOL0     H16757   0.510  10.729   6.955  2.9250 -0.0301 -1.6285
  885MOL0     H16758   0.354  10.659   6.888 -1.2269  0.6812 -0.8689
  885MOL0     H16759   0.265  10.875   6.841 -1.8813  1.8639  2.6332
  885MOL0     H16760   0.420  10.948   6.865  0.3430 -1.1611  0.9829
  885MOL0     H16761   0.419  10.857   7.098  0.6655  0.7508  1.0712
  885MOL0     H16762   0.257  10.788   7.065  3.6598 -1.6539  3.7028
  885MOL0     H16763   0.334  11.078   7.036  2.2820 -0.7330 -0.2601
  885MOL0     H16764   0.167  11.031   7.065 -0.0934 -0.5318  0.0658
  885MOL0     H16765   0.264  11.142   7.261  3.0341  1.5608 -3.4977
  885MOL0     H16766   0.393  11.042   7.271  1.2070  3.1891 -2.0344
  885MOL0     H16767   0.231  10.842   7.279  2.9437  1.0695 -0.5966
  885MOL0     H16768   0.095  10.963   7.313  0.0581  0.1096  0.5403
  885MOL0     H16769   0.350  10.947   7.490 -0.2063  1.7818  0.0746
  885MOL0     H16770   0.225  11.052   7.501  1.8200  0.4464  2.2785
  885MOL0     H16771   0.242  10.838   7.649 -1.6974 -0.1159  0.7176
  885MOL0     H16772   0.211  10.738   7.505 -0.4519  0.2818 -0.3091
  885MOL0     H16773   0.006  11.058   7.571  0.2738 -0.3244 -1.0816
  885MOL0     H16774  -0.367  10.972   7.538  1.9599 -2.0061 -0.9310
  885MOL0     H16775  -0.254  11.110   7.542 -2.4974  0.0597 -2.1509
  885MOL0     H16776  -0.357  10.971   7.792  0.3193 -0.1034  1.0578
  885MOL0     H16777  -0.418  11.114   7.715 -0.9254 -0.1340  1.5181
  885MOL0     H16778  -0.139  11.067   7.832 -1.0235 -1.3806  0.8352
  885MOL0     H16779  -0.170  11.203   7.732  3.4082 -0.3297  1.5198
  885MOL0     H16780  -0.355  11.265   7.909 -0.0730 -1.3482 -0.0605
  885MOL0     H16781  -0.193  11.254   7.975 -0.5530  1.6874  0.5664
  885MOL0     H16782  -0.388  10.970   8.222  0.4243  1.4008  1.2138
  885MOL0     H16783  -0.638  10.912   8.282 -1.5263 -1.0423 -0.2477
  885MOL0     H16784  -1.087  10.838   8.171 -3.7575  1.1850 -0.4483
  885MOL0     H16785  -1.269  10.745   8.282 -2.1272 -0.0835  2.3436
  885MOL0     H16786  -1.347  10.886   8.709  0.7685 -0.7528  1.5492
  885MOL0     H16787  -1.266  10.729   8.716 -0.8914 -1.3289 -0.3153
  885MOL0     H16788  -1.471  10.710   8.825  1.0009  2.3779  0.1969
  885MOL0     H16789  -1.478  10.602   8.686 -0.9071  0.1210  0.0442
  885MOL0     H16790  -1.582  10.777   8.552 -2.5823  0.8737 -1.0508
  885MOL0     H16791  -1.583  10.887   8.701  1.8774 -0.0700 -1.1522
  885MOL0     H16792  -1.730  10.620   8.674 -2.9344  0.3932 -0.3516
  885MOL0     H16793  -1.741  10.715   8.811 -0.4570  0.1714 -0.6480
  885MOL0     H16794  -1.840  10.772   8.538  2.0705 -3.8505  0.9643
  885MOL0     H16795  -1.824  10.905   8.650  0.5282  0.8846  0.9572
  885MOL0     H16796  -1.959  10.718   8.813 -2.0550 -0.5616  0.2294
  885MOL0     H16797  -2.014  10.674   8.654 -0.6430 -1.4010  1.3785
  885MOL0     H16798  -2.059  10.932   8.800 -3.7993  0.6702  0.1715
  885MOL0     H16799  -2.080  10.930   8.619  3.0539 -2.3528 -1.9072
  885MOL0     H16800  -2.248  10.769   8.623  1.1816  2.6755 -1.6201
  885MOL0     H16801  -2.287  10.904   8.733  0.2350 -1.1648 -0.5358
  885MOL0     H16802  -1.134  10.927   8.648  1.8000 -2.3571  1.3651
  885MOL0     H16803  -0.931  11.005   8.522  1.4202 -1.4259 -0.6873
  885MOL0     H16804  -0.760  11.130   7.943  0.5172 -3.6914 -0.9585
  885MOL0     H16805  -0.541  11.179   7.865  0.3828 -1.6765 -1.0371
  885MOL0     H16806   0.690  10.746   6.584  0.9500 -0.9848 -0.6074
  885MOL0     H16807   0.840  10.571   6.501 -1.2478  2.8122  0.5096
  885MOL0     H16808   1.031  10.142   6.754  0.9134 -2.0226  0.4236
  885MOL0     H16809   1.204   9.958   6.717 -0.7935 -1.3043 -0.2399
  885MOL0     H16810   1.207   9.758   6.616 -0.2559  1.4194  0.0636
  885MOL0     H16811   1.355   9.687   6.542 -1.0524 -0.2253 -0.8486
  885MOL0     H16812   1.142   9.605   6.439 -0.0163  0.3181 -0.3277
  885MOL0     H16813   1.118   9.771   6.389 -0.3596 -0.2425  1.4337
  885MOL0     H16814   1.323   9.767   6.264 -0.7937  0.5908  0.1412
  885MOL0     H16815   1.220   9.650   6.188  3.1382  0.7671 -2.2611
  885MOL0     H16816   1.439   9.544   6.203  1.6095  4.2388  1.2315
  885MOL0     H16817   1.470   9.563   6.364  0.6931  2.2180 -1.2204
  885MOL0     H16818   1.224   9.225   6.345  0.1630 -0.3966 -0.2524
  885MOL0     H16819   1.259  10.038   6.319  1.6104 -1.3149  1.0430
  885MOL0     H16820   1.041  10.175   6.314 -1.6719 -1.3003  0.1482
  886MOL0     O16821   6.540   9.009   1.261 -0.4609 -0.4954  0.3437
  886MOL0     C16822   6.639   9.077   1.249 -0.1810 -0.1977 -0.0114
  886MOL0     O16823   6.638   9.207   1.218  0.3781  0.2223  0.0984
  886MOL0     C16824   6.510   9.262   1.184  0.1126  0.3143 -1.1676
  886MOL0     C16825   6.426   9.304   1.285  0.6065 -0.6490  0.3291
  886MOL0     C16826   6.295   9.353   1.263 -0.6293  0.0027  0.5991
  886MOL0     C16827   6.249   9.351   1.133  0.1719  0.0585  0.2797
  886MOL0     O16828   6.122   9.389   1.094  0.8826  0.5986 -0.0907
  886MOL0     C16829   6.017   9.409   1.191 -0.4283  0.3096 -0.1254
  886MOL0     C16830   5.878   9.383   1.111  0.5490  0.4760  0.0704
  886MOL0     C16831   5.754   9.388   1.200 -0.7371 -0.0482 -0.2701
  886MOL0     C16832   5.623   9.379   1.120  0.7308  0.6831 -0.0691
  886MOL0     C16833   5.498   9.380   1.207 -0.3247 -0.1959 -0.2687
  886MOL0     C16834   5.377   9.378   1.120  0.0275  0.0055  0.3934
  886MOL0     C16835   5.253   9.417   1.199  1.0105 -0.8299 -0.5992
  886MOL0     C16836   5.142   9.449   1.090 -0.2147  0.0780  0.1058
  886MOL0     N16837   5.014   9.468   1.152  0.1043  0.2871  0.3457
  886MOL0     C16838   4.962   9.587   1.204 -0.1002 -0.2814  0.3623
  886MOL0     C16839   4.839   9.549   1.255  0.0249 -0.1241 -0.2934
  886MOL0     C16840   4.737   9.645   1.306 -0.3968  0.0956 -0.3488
  886MOL0     C16841   4.652   9.588   1.421 -0.6696  0.4514 -0.3912
  886MOL0     C16842   4.517   9.658   1.454  0.7292  0.0157 -0.4147
  886MOL0     C16843   4.439   9.596   1.578 -0.7423  0.6917  0.1945
  886MOL0     O16844   4.323   9.683   1.605 -0.3618 -0.3900  0.1077
  886MOL0     C16845   4.224   9.633   1.690 -0.7205 -0.0297 -0.5374
  886MOL0     C16846   4.228   9.517   1.766 -0.4921  0.0606 -0.0375
  886MOL0     C16847   4.127   9.485   1.853 -0.0646  0.0711 -0.1688
  886MOL0     C16848   4.016   9.569   1.872  0.5985  0.1016  0.3330
  886MOL0     C16849   3.896   9.542   1.951 -0.1956  0.0032  0.2669
  886MOL0     O16850   3.810   9.635   1.968  0.5151  0.2101  0.2758
  886MOL0     C16851   3.706   9.614   2.057 -0.1024 -0.3374 -0.4580
  886MOL0     C16852   3.689   9.707   2.158  0.0969 -0.1677  0.2744
  886MOL0     C16853   3.585   9.694   2.253  0.2056 -0.7947 -0.5363
  886MOL0     C16854   3.500   9.582   2.250 -0.1008  0.0859  0.6973
  886MOL0     O16855   3.389   9.561   2.331 -0.1801 -0.6828  0.0896
  886MOL0     C16856   3.403   9.617   2.459 -0.5985  0.4535 -0.1277
  886MOL0     C16857   3.316   9.546   2.561 -0.4436  0.2631 -0.3051
  886MOL0     C16858   3.175   9.591   2.550  0.0827 -0.0632  0.0957
  886MOL0     C16859   3.079   9.505   2.641 -0.3245  0.5832  0.2524
  886MOL0     C16860   2.941   9.504   2.585  0.7137  0.0290 -0.3214
  886MOL0     C16861   2.826   9.454   2.675 -0.4891  0.2037  0.1260
  886MOL0     C16862   2.703   9.518   2.621 -0.1650 -0.3955  0.8402
  886MOL0     C16863   2.575   9.466   2.689 -0.6993  0.2648  0.3370
  886MOL0    Cl16864   2.445   9.476   2.568 -0.2639  0.0724  0.0168
  886MOL0     C16865   3.526   9.478   2.157  1.3592 -0.4978 -0.2045
  886MOL0     C16866   3.621   9.500   2.054  0.7912  0.1082 -0.6107
  886MOL0     O16867   3.893   9.434   2.009  0.2422  0.3465  0.5410
  886MOL0     C16868   4.008   9.683   1.793 -0.4731  0.4363  0.5424
  886MOL0     C16869   4.109   9.718   1.706  0.1731  0.2789 -0.2914
  886MOL0     N16870   4.830   9.413   1.243 -0.1671  0.1201 -0.4960
  886MOL0     N16871   4.937   9.368   1.186  0.1807 -0.4652 -0.2942
  886MOL0     C16872   6.338   9.313   1.034 -0.1540 -0.5782  0.6819
  886MOL0     C16873   6.468   9.262   1.056 -0.3677 -0.0243 -0.2713
  886MOL0     C16874   6.776   9.028   1.282  0.7756 -0.9613 -0.2888
  886MOL0     C16875   6.795   8.910   1.348 -0.5913  0.9194  0.8251
  886MOL0     C16876   6.925   8.862   1.379  0.9667  0.3323  0.8747
  886MOL0     C16877   7.033   8.925   1.319 -0.2015 -0.9051  0.4007
  886MOL0     O16878   7.151   8.875   1.361 -0.0157 -0.0513 -0.8555
  886MOL0     C16879   7.273   8.928   1.317 -0.6612  0.1923  0.0932
  886MOL0     C16880   7.350   9.017   1.410  0.3801  0.0151 -0.0868
  886MOL0     C16881   7.502   9.031   1.374 -0.3681 -0.9804 -0.7929
  886MOL0     C16882   7.571   9.130   1.469  0.4881  0.1147 -0.9949
  886MOL0     C16883   7.710   9.148   1.423  0.0920 -0.3799  0.7186
  886MOL0     C16884   7.823   9.168   1.382 -0.3679 -1.0588  0.6513
  886MOL0     C16885   7.014   9.053   1.251  0.1262  0.9441 -0.8658
  886MOL0     C16886   6.885   9.100   1.226 -0.5561  0.6559  0.3182
  886MOL0     H16887   6.460   9.299   1.388  0.5315  1.4556  0.4932
  886MOL0     H16888   6.227   9.379   1.342 -1.2159 -0.5346  0.2766
  886MOL0     H16889   6.014   9.510   1.231 -2.0021 -0.2298  1.2239
  886MOL0     H16890   6.024   9.349   1.282  1.3866  0.1966 -0.3067
  886MOL0     H16891   5.877   9.282   1.071 -0.8186  0.3520  0.3703
  886MOL0     H16892   5.873   9.455   1.029  0.2937  0.7147  0.2910
  886MOL0     H16893   5.753   9.490   1.241  0.4173 -0.2068  0.1704
  886MOL0     H16894   5.758   9.303   1.269 -2.5066 -0.5478 -0.7153
  886MOL0     H16895   5.635   9.462   1.051  1.9910  2.4019  2.0796
  886MOL0     H16896   5.615   9.288   1.060  0.5089  1.2576 -0.9133
  886MOL0     H16897   5.500   9.472   1.266 -3.1237 -0.3953  0.2643
  886MOL0     H16898   5.506   9.302   1.283  2.0846  0.2141 -0.0140
  886MOL0     H16899   5.376   9.281   1.069 -2.9778  0.9809 -1.6630
  886MOL0     H16900   5.387   9.452   1.040 -1.1516 -2.5947 -2.3447
  886MOL0     H16901   5.218   9.339   1.266 -1.6463 -0.7130 -1.7195
  886MOL0     H16902   5.259   9.508   1.258  0.0570 -0.7467 -0.6110
  886MOL0     H16903   5.123   9.368   1.018 -0.0909 -1.5654  1.8569
  886MOL0     H16904   5.160   9.547   1.043 -1.1208  0.1123 -0.2031
  886MOL0     H16905   5.001   9.688   1.202  0.0278 -0.3316 -1.0643
  886MOL0     H16906   4.672   9.674   1.223 -1.6517  0.5212  0.7381
  886MOL0     H16907   4.795   9.730   1.342  3.1412 -3.0321  2.1616
  886MOL0     H16908   4.713   9.565   1.509 -0.5836 -0.4512 -0.6735
  886MOL0     H16909   4.618   9.492   1.379  1.7235 -0.5887 -0.1372
  886MOL0     H16910   4.535   9.760   1.488  1.6456 -0.7119  1.3975
  886MOL0     H16911   4.454   9.665   1.365  0.8601  1.5165 -0.4052
  886MOL0     H16912   4.496   9.588   1.671  0.6241  1.6431 -0.5258
  886MOL0     H16913   4.412   9.493   1.556  2.0535 -0.0660 -0.1213
  886MOL0     H16914   4.323   9.465   1.759 -0.5320  0.1289 -1.5902
  886MOL0     H16915   4.127   9.379   1.877 -1.8535 -1.4824 -5.5677
  886MOL0     H16916   3.757   9.790   2.168  1.0568 -0.6849 -1.5120
  886MOL0     H16917   3.592   9.766   2.334  0.0482 -0.0306 -1.1985
  886MOL0     H16918   3.384   9.724   2.465  0.0925  0.5505  4.7444
  886MOL0     H16919   3.504   9.596   2.497 -1.0399 -0.3667  0.6166
  886MOL0     H16920   3.351   9.570   2.662 -1.3687 -2.6657  0.8054
  886MOL0     H16921   3.339   9.440   2.555 -2.1953 -0.1841  0.4697
  886MOL0     H16922   3.139   9.575   2.448  0.2296  2.2381 -0.3792
  886MOL0     H16923   3.161   9.695   2.582  0.6657 -0.9059  3.4842
  886MOL0     H16924   3.122   9.405   2.636 -2.5587 -0.3921 -0.4262
  886MOL0     H16925   3.080   9.526   2.749 -2.0367 -1.8413  0.8156
  886MOL0     H16926   2.949   9.442   2.496  2.7480 -2.6894  1.6003
  886MOL0     H16927   2.922   9.609   2.561  3.5069  1.0070  1.2745
  886MOL0     H16928   2.835   9.507   2.770  1.6845 -0.3120  0.2719
  886MOL0     H16929   2.831   9.346   2.692  0.1530  0.6454  3.6101
  886MOL0     H16930   2.723   9.625   2.636  3.3741 -0.7793 -0.2324
  886MOL0     H16931   2.694   9.500   2.514  0.3530  2.2553  0.2827
  886MOL0     H16932   2.558   9.520   2.783 -1.9407 -0.8752  0.8097
  886MOL0     H16933   2.594   9.361   2.715  0.8211  0.8857  2.0031
  886MOL0     H16934   3.464   9.389   2.153  1.9346 -0.8802 -0.6106
  886MOL0     H16935   3.645   9.428   1.977  2.4320  0.4372 -0.4478
  886MOL0     H16936   3.924   9.753   1.793 -0.7885  0.0615  0.8030
  886MOL0     H16937   4.098   9.811   1.651  0.2012  0.2405 -0.3623
  886MOL0     H16938   6.302   9.325   0.932  2.0092 -1.3176 -0.2454
  886MOL0     H16939   6.536   9.239   0.974  1.1927  2.9243  0.0576
  886MOL0     H16940   6.709   8.860   1.391  0.3090 -1.7441 -0.2670
  886MOL0     H16941   6.947   8.772   1.435 -0.2920 -0.3092  0.3682
  886MOL0     H16942   7.262   8.978   1.220  1.3976  1.4014  0.4179
  886MOL0     H16943   7.338   8.842   1.298  1.2832  1.6596 -0.2158
  886MOL0     H16944   7.306   9.113   1.384  2.2957  0.2743 -2.7356
  886MOL0     H16945   7.336   8.974   1.510 -0.3968  0.3945 -0.0263
  886MOL0     H16946   7.517   9.070   1.273  1.5641  2.0509  0.5148
  886MOL0     H16947   7.547   8.932   1.382 -0.8155 -1.0612  1.1106
  886MOL0     H16948   7.518   9.224   1.456 -0.8211 -0.5447 -0.6296
  886MOL0     H16949   7.573   9.091   1.571  0.7007  0.1783 -0.9747
  886MOL0     H16950   7.922   9.190   1.348  0.3403 -0.3926  2.9281
  886MOL0     H16951   7.098   9.115   1.224  0.8883  0.6815  0.7973
  886MOL0     H16952   6.866   9.194   1.174  0.2309  2.1349  2.5495
  887MOL0     O16953   1.079   2.589   1.810  0.4674  0.1871 -0.4953
  887MOL0     C16954   1.107   2.703   1.772 -0.2697  0.3173  0.3559
  887MOL0     O16955   1.028   2.803   1.750 -0.4174 -0.9956  0.4373
  887MOL0     C16956   0.889   2.792   1.760 -0.5693  0.7339  0.0490
  887MOL0     C16957   0.816   2.890   1.831 -0.4179  0.3221 -0.6746
  887MOL0     C16958   0.679   2.884   1.851  0.3330 -0.1872  0.2832
  887MOL0     C16959   0.610   2.768   1.801 -0.1053  0.3797 -0.2125
  887MOL0     O16960   0.471   2.763   1.807  0.5058 -0.7825 -0.0780
  887MOL0     C16961   0.407   2.635   1.833  0.0038 -0.9400 -0.6934
  887MOL0     C16962   0.276   2.670   1.908  0.0117  0.0176 -0.8977
  887MOL0     C16963   0.181   2.760   1.834  0.0395 -0.0953 -0.4334
  887MOL0     C16964   0.199   2.911   1.867 -0.7289 -0.6437  0.4172
  887MOL0     C16965   0.093   2.991   1.800 -0.0915 -0.2974 -0.5843
  887MOL0     C16966   0.121   3.139   1.824 -0.4914 -1.3376  0.8478
  887MOL0     C16967   0.045   3.218   1.716 -0.2046 -0.0182 -0.1041
  887MOL0     C16968  -0.107   3.218   1.742 -0.9865  0.8151 -0.5188
  887MOL0     N16969  -0.166   3.330   1.671  0.0417 -0.8417 -0.9059
  887MOL0     C16970  -0.210   3.325   1.539  0.0074 -0.5231 -0.1641
  887MOL0     C16971  -0.290   3.440   1.522 -1.2091 -0.4184 -1.0378
  887MOL0     C16972  -0.376   3.483   1.399 -0.4076 -0.7021 -0.5126
  887MOL0     C16973  -0.516   3.520   1.451  0.0552  0.5796  0.2818
  887MOL0     C16974  -0.579   3.381   1.484  0.3716  0.2138 -0.2672
  887MOL0     C16975  -0.721   3.400   1.544  0.1062  0.6550  0.3804
  887MOL0     O16976  -0.802   3.438   1.429 -0.6019 -0.6114  0.5116
  887MOL0     C16977  -0.934   3.452   1.452  0.7086 -0.2244  0.4295
  887MOL0     C16978  -1.029   3.421   1.357 -0.3830  0.0288 -0.2008
  887MOL0     C16979  -1.165   3.468   1.355 -0.1309  0.1581  0.2249
  887MOL0     C16980  -1.211   3.529   1.470 -0.0082 -0.4986  0.2034
  887MOL0     C16981  -1.352   3.578   1.484 -0.8599 -0.4644  0.1592
  887MOL0     O16982  -1.436   3.532   1.390  0.0091 -0.9651  0.3289
  887MOL0     C16983  -1.571   3.568   1.389 -0.5085  0.2260 -0.4067
  887MOL0     C16984  -1.662   3.465   1.390 -0.6670  0.0617  1.0597
  887MOL0     C16985  -1.798   3.490   1.368 -0.8751 -0.6202 -0.2994
  887MOL0     C16986  -1.844   3.620   1.348 -0.2354 -0.1016  0.3764
  887MOL0     O16987  -1.976   3.627   1.309 -0.6355 -0.8262  0.0234
  887MOL0     C16988  -2.018   3.758   1.266 -0.9877  0.6711 -0.3756
  887MOL0     C16989  -2.165   3.773   1.202  0.0536 -0.6149 -0.6500
  887MOL0     C16990  -2.278   3.737   1.295 -0.8067 -0.1578 -0.4898
  887MOL0     C16991  -2.422   3.754   1.237 -0.8631 -0.0576  0.1412
  887MOL0     C16992  -2.522   3.682   1.332 -0.1043 -0.5226  0.3883
  887MOL0     C16993  -2.664   3.676   1.272 -0.3292 -0.4100 -0.6543
  887MOL0     C16994  -2.750   3.586   1.354  0.5654  0.6777  0.0767
  887MOL0     C16995  -2.820   3.635   1.483  0.5355 -0.2555 -0.3857
  887MOL0    Cl16996  -2.738   3.576   1.629 -0.0892 -0.0867 -0.0698
  887MOL0     C16997  -1.754   3.728   1.359  0.2531 -1.2463  0.3036
  887MOL0     C16998  -1.617   3.704   1.379 -0.3953 -0.0075 -0.4001
  887MOL0     O16999  -1.375   3.645   1.578  0.5733  0.8403  0.4710
  887MOL0     C17000  -1.117   3.552   1.576  0.1053 -0.2032  0.3564
  887MOL0     C17001  -0.978   3.523   1.568  0.4325  0.0703  1.3692
  887MOL0     N17002  -0.275   3.516   1.638 -0.5755  0.7469  0.1074
  887MOL0     N17003  -0.205   3.460   1.721 -0.1722  0.3322  0.0921
  887MOL0     C17004   0.681   2.679   1.726 -1.0788  1.0162  0.0901
  887MOL0     C17005   0.821   2.682   1.710 -0.3947 -0.3083 -0.2335
  887MOL0     C17006   1.250   2.728   1.751  1.1141  0.3594 -0.0326
  887MOL0     C17007   1.336   2.684   1.850 -0.4630  0.4752  0.3140
  887MOL0     C17008   1.469   2.719   1.838 -1.0774 -0.9578  0.4437
  887MOL0     C17009   1.509   2.807   1.738  0.7221 -0.8415  0.3714
  887MOL0     O17010   1.634   2.873   1.732 -0.5076  0.5075 -0.2297
  887MOL0     C17011   1.746   2.781   1.714  0.1747  0.6234  0.2111
  887MOL0     C17012   1.878   2.859   1.696  0.4312  0.6782 -0.0025
  887MOL0     C17013   1.914   2.907   1.837 -0.2163 -0.6465 -1.2381
  887MOL0     C17014   2.021   3.020   1.841 -0.2812  0.3992  1.2408
  887MOL0     C17015   2.161   2.981   1.808  0.1147  0.8350 -0.0936
  887MOL0     C17016   2.268   2.935   1.767 -0.4026 -0.6005  0.0443
  887MOL0     C17017   1.416   2.857   1.646  0.0357 -0.3598  0.0662
  887MOL0     C17018   1.283   2.822   1.653  0.2290 -0.2081 -0.2862
  887MOL0     H17019   0.866   2.972   1.881 -0.5797  0.4225 -0.6772
  887MOL0     H17020   0.619   2.961   1.899  0.6953 -0.8259  1.8489
  887MOL0     H17021   0.472   2.577   1.900  0.6228  0.7657  0.2421
  887MOL0     H17022   0.394   2.588   1.735 -2.5083  2.8517 -2.3907
  887MOL0     H17023   0.298   2.705   2.009 -0.6920 -0.3233 -0.6232
  887MOL0     H17024   0.239   2.569   1.925  1.9620 -0.9094 -1.8729
  887MOL0     H17025   0.086   2.718   1.869 -2.0624  2.0143 -3.1795
  887MOL0     H17026   0.181   2.740   1.727  3.0432  2.5935 -1.0971
  887MOL0     H17027   0.200   2.918   1.976 -0.7084 -1.4024  0.4701
  887MOL0     H17028   0.297   2.941   1.828  0.5591 -4.3056  0.4070
  887MOL0     H17029  -0.001   2.953   1.843 -0.0694 -0.6013 -0.8026
  887MOL0     H17030   0.088   2.978   1.692 -1.8247  2.2209 -0.8921
  887MOL0     H17031   0.225   3.150   1.792 -0.3446  2.7505  2.1557
  887MOL0     H17032   0.116   3.179   1.926 -1.0146  0.8970  0.0111
  887MOL0     H17033   0.090   3.318   1.706 -1.3613  0.4534 -0.8540
  887MOL0     H17034   0.061   3.168   1.621  1.4712 -0.8156  0.5740
  887MOL0     H17035  -0.125   3.223   1.850  1.9130  0.6308  0.0413
  887MOL0     H17036  -0.154   3.131   1.695 -0.3164 -0.4355  1.0388
  887MOL0     H17037  -0.207   3.241   1.470  1.8772 -1.1326  0.5838
  887MOL0     H17038  -0.373   3.407   1.321  0.4239  0.4684 -1.6611
  887MOL0     H17039  -0.333   3.577   1.362  3.7329 -1.8926  0.7195
  887MOL0     H17040  -0.584   3.565   1.377 -1.0810 -0.2567  0.7953
  887MOL0     H17041  -0.521   3.591   1.534 -1.4839 -1.8057  2.3599
  887MOL0     H17042  -0.586   3.319   1.394  0.0543  0.7628 -0.6274
  887MOL0     H17043  -0.515   3.328   1.554 -0.2196 -1.4070 -0.9104
  887MOL0     H17044  -0.721   3.475   1.623 -1.7291 -0.1452  1.1839
  887MOL0     H17045  -0.754   3.305   1.588  1.4055 -0.2816 -0.5622
  887MOL0     H17046  -0.990   3.368   1.271 -1.9397 -2.0380  0.2652
  887MOL0     H17047  -1.217   3.435   1.266 -0.8407 -3.7700  1.9162
  887MOL0     H17048  -1.628   3.363   1.403 -1.3136 -0.1386  1.2166
  887MOL0     H17049  -1.868   3.408   1.361 -0.4459 -0.9980 -0.1750
  887MOL0     H17050  -1.949   3.796   1.189  2.5742  0.3858  2.3861
  887MOL0     H17051  -2.017   3.828   1.350  0.5082 -0.8094  0.9322
  887MOL0     H17052  -2.172   3.711   1.112  0.0618  1.2673 -2.0085
  887MOL0     H17053  -2.189   3.878   1.182  0.0309 -0.5314 -0.1804
  887MOL0     H17054  -2.277   3.792   1.390 -3.8096 -0.3815 -0.2074
  887MOL0     H17055  -2.262   3.631   1.318 -1.6456 -0.4132 -1.0449
  887MOL0     H17056  -2.451   3.856   1.212 -0.4074 -0.5164 -2.6348
  887MOL0     H17057  -2.428   3.704   1.140  0.7538  1.7489 -0.9475
  887MOL0     H17058  -2.526   3.728   1.431  0.1758 -2.6739  1.4525
  887MOL0     H17059  -2.487   3.580   1.347 -1.2718 -1.6411 -3.3201
  887MOL0     H17060  -2.657   3.639   1.169 -0.5686 -4.0620  0.5004
  887MOL0     H17061  -2.716   3.771   1.264 -1.9649 -1.2221  0.0471
  887MOL0     H17062  -2.827   3.545   1.287  2.4111 -2.1174 -0.5160
  887MOL0     H17063  -2.699   3.493   1.380 -0.4073  0.3018  0.7086
  887MOL0     H17064  -2.921   3.593   1.487  1.8654 -3.9220 -1.1350
  887MOL0     H17065  -2.845   3.741   1.478 -0.1667 -0.4594 -1.5727
  887MOL0     H17066  -1.788   3.830   1.344  2.9616 -0.2395  0.5140
  887MOL0     H17067  -1.543   3.783   1.386 -1.8070  1.2541  1.1487
  887MOL0     H17068  -1.139   3.608   1.667 -1.2661  1.6471 -1.0411
  887MOL0     H17069  -0.912   3.539   1.652  1.0208 -0.3292  0.9918
  887MOL0     H17070   0.630   2.589   1.694  0.1347  0.6621 -0.9342
  887MOL0     H17071   0.873   2.602   1.659 -0.2075 -0.0300 -0.4772
  887MOL0     H17072   1.306   2.607   1.921 -1.4084 -2.3353 -2.9019
  887MOL0     H17073   1.538   2.679   1.913 -0.7229 -3.5523 -1.1529
  887MOL0     H17074   1.727   2.727   1.620  0.7970 -1.1203  1.0526
  887MOL0     H17075   1.754   2.706   1.793 -1.8424 -0.7200 -0.7486
  887MOL0     H17076   1.959   2.793   1.662 -1.1008 -0.5145 -1.5055
  887MOL0     H17077   1.875   2.938   1.621 -2.5639  1.1599  0.5276
  887MOL0     H17078   1.952   2.822   1.895  1.2936 -0.6267 -2.1518
  887MOL0     H17079   1.829   2.953   1.888  0.0650 -2.1648  0.7210
  887MOL0     H17080   1.987   3.098   1.773 -1.3406 -1.9076 -1.0380
  887MOL0     H17081   2.021   3.060   1.943 -1.0043 -1.2827  1.9479
  887MOL0     H17082   2.364   2.902   1.734  0.6003  1.3906  0.8010
  887MOL0     H17083   1.453   2.924   1.570 -0.9073 -0.5385 -0.5668
  887MOL0     H17084   1.212   2.867   1.585 -0.7893  1.8552  1.9839
  888MOL0     O17085  11.019   5.390   7.009 -0.0947  0.1215  0.1672
  888MOL0     C17086  10.906   5.363   6.972  1.0207  0.9590  0.4168
  888MOL0     O17087  10.873   5.282   6.868  0.0881 -0.4537 -0.6676
  888MOL0     C17088  10.980   5.242   6.790  0.3958 -0.4883  0.1805
  888MOL0     C17089  10.999   5.111   6.760  0.7083 -1.0918  0.5932
  888MOL0     C17090  11.098   5.062   6.668 -0.2541  0.3492  0.0169
  888MOL0     C17091  11.192   5.152   6.610  0.5747  0.2589 -0.0914
  888MOL0     O17092  11.292   5.092   6.532 -0.3182  0.7000  0.4072
  888MOL0     C17093  11.386   5.185   6.462  0.0490 -0.3440 -0.0580
  888MOL0     C17094  11.445   5.100   6.353 -0.3188  0.6038  0.4646
  888MOL0     C17095  11.339   5.059   6.256  0.1118  0.1757  0.6395
  888MOL0     C17096  11.263   5.168   6.180  0.0333 -0.5162  0.3395
  888MOL0     C17097  11.196   5.110   6.050  0.1047 -0.0791 -0.3575
  888MOL0     C17098  11.096   5.202   5.983 -0.7299  0.0799 -0.0440
  888MOL0     C17099  11.163   5.318   5.901 -0.4858  0.5762 -0.6488
  888MOL0     C17100  11.066   5.407   5.820  0.1320 -0.5676  0.3838
  888MOL0     N17101  11.002   5.508   5.905 -0.5423  0.1049 -0.6348
  888MOL0     C17102  10.875   5.505   5.952 -0.5076 -0.1464 -0.2307
  888MOL0     C17103  10.858   5.625   6.008  0.3238  0.5458 -0.1589
  888MOL0     C17104  10.741   5.693   6.066 -0.1431  0.1082  0.2497
  888MOL0     C17105  10.623   5.715   5.967  0.3059 -0.0112 -0.2915
  888MOL0     C17106  10.546   5.582   5.924 -0.3844 -0.2044  0.6101
  888MOL0     C17107  10.420   5.600   5.836  0.2265  0.9193  0.6524
  888MOL0     O17108  10.332   5.703   5.882 -0.1885 -0.1056  0.0273
  888MOL0     C17109  10.204   5.710   5.836  0.1975 -0.9788  1.1604
  888MOL0     C17110  10.121   5.817   5.885  0.1596 -1.1294 -0.7238
  888MOL0     C17111   9.993   5.829   5.831 -0.0858  0.3343  0.8750
  888MOL0     C17112   9.939   5.749   5.735  0.0027  0.2881  0.2748
  888MOL0     C17113   9.792   5.768   5.706 -0.0428 -0.2154  0.4008
  888MOL0     O17114   9.728   5.881   5.762 -0.3073  0.0170  0.2584
  888MOL0     C17115   9.597   5.892   5.758  0.1218 -0.2543 -0.0097
  888MOL0     C17116   9.533   5.925   5.633 -0.2847 -0.2779  0.0604
  888MOL0     C17117   9.385   5.938   5.625 -0.2263  0.6213 -0.5028
  888MOL0     C17118   9.312   5.936   5.740 -0.0527 -0.5880 -0.5102
  888MOL0     O17119   9.181   5.962   5.718  0.2034 -0.2401  0.2485
  888MOL0     C17120   9.097   5.939   5.835  0.7777  0.1155 -0.6238
  888MOL0     C17121   8.960   5.992   5.804  0.9550  0.0596  0.5847
  888MOL0     C17122   8.850   5.924   5.887 -0.1386  0.2700  0.1206
  888MOL0     C17123   8.725   6.007   5.881  0.3123  0.8934  0.0220
  888MOL0     C17124   8.601   5.945   5.952 -1.2424  0.1097  0.2064
  888MOL0     C17125   8.471   6.006   5.922  0.1587 -0.9561  0.2623
  888MOL0     C17126   8.347   5.914   5.954  0.1099 -0.1792  0.0643
  888MOL0     C17127   8.219   5.993   5.962 -0.0112 -0.4143 -0.2577
  888MOL0    Cl17128   8.062   5.905   5.946 -0.6143  0.1020 -0.0089
  888MOL0     C17129   9.378   5.908   5.861  0.1140  0.0821 -0.4219
  888MOL0     C17130   9.513   5.886   5.866  0.4429 -0.2909  0.4622
  888MOL0     O17131   9.737   5.686   5.631  0.1963 -0.1601 -0.0090
  888MOL0     C17132  10.022   5.641   5.686  0.8312  0.4677  0.3727
  888MOL0     C17133  10.151   5.631   5.734 -0.0680 -0.2927 -0.7903
  888MOL0     N17134  10.970   5.707   5.994 -0.4668 -0.5961 -0.3507
  888MOL0     N17135  11.053   5.635   5.921 -0.5317  0.5348  0.0458
  888MOL0     C17136  11.179   5.291   6.645  0.3162 -0.7608 -0.1511
  888MOL0     C17137  11.072   5.329   6.729 -0.1925  0.0429  0.4010
  888MOL0     C17138  10.793   5.445   7.021 -0.0891  1.1774 -1.1627
  888MOL0     C17139  10.819   5.558   7.106 -0.0918 -0.1011 -0.5095
  888MOL0     C17140  10.716   5.627   7.155 -0.4148 -0.6233  0.1118
  888MOL0     C17141  10.584   5.607   7.121 -0.9063 -0.1238  0.5474
  888MOL0     O17142  10.481   5.690   7.158 -0.1370 -0.0502 -0.3109
  888MOL0     C17143  10.435   5.700   7.291 -0.4285  0.0233 -0.6360
  888MOL0     C17144  10.408   5.845   7.328  0.3357 -0.7417 -0.2616
  888MOL0     C17145  10.317   5.915   7.230 -0.5750 -0.2172  0.0373
  888MOL0     C17146  10.182   5.833   7.190 -0.4401  0.3770  0.0191
  888MOL0     C17147  10.089   5.808   7.308 -0.3881 -0.2361 -0.4046
  888MOL0     C17148  10.016   5.807   7.407 -0.8514  0.5071  0.1952
  888MOL0     C17149  10.559   5.485   7.048  0.3376 -0.3601 -1.2115
  888MOL0     C17150  10.660   5.404   7.001 -0.9606 -0.9184  1.1404
  888MOL0     H17151  10.939   5.048   6.824 -0.7017  0.9192  1.3313
  888MOL0     H17152  11.111   4.958   6.642 -2.1064  0.7618 -3.2443
  888MOL0     H17153  11.464   5.219   6.531 -0.2339 -2.1537  1.2243
  888MOL0     H17154  11.323   5.265   6.423  0.5928  1.0293  1.7570
  888MOL0     H17155  11.490   5.012   6.400  0.3372  0.2033 -0.8579
  888MOL0     H17156  11.521   5.159   6.302 -2.4328  1.0810 -2.3699
  888MOL0     H17157  11.264   5.000   6.309 -3.7260  3.2756 -0.8352
  888MOL0     H17158  11.392   5.001   6.179  0.6210  3.7557 -1.9873
  888MOL0     H17159  11.190   5.215   6.246  1.7567  1.4251  0.9875
  888MOL0     H17160  11.322   5.253   6.144 -2.4513  1.0739 -0.1676
  888MOL0     H17161  11.148   5.013   6.068 -2.4526  1.1301 -0.2098
  888MOL0     H17162  11.276   5.088   5.979  2.4885 -0.1190  2.1845
  888MOL0     H17163  11.027   5.235   6.060 -0.7087  0.0155  0.0030
  888MOL0     H17164  11.040   5.136   5.915 -0.3371 -2.0538  1.6028
  888MOL0     H17165  11.231   5.369   5.970 -0.8426 -0.2451  0.3438
  888MOL0     H17166  11.235   5.283   5.827 -0.4687 -0.5306 -0.1338
  888MOL0     H17167  10.994   5.345   5.767 -0.7837  0.3339  0.5282
  888MOL0     H17168  11.127   5.459   5.746 -0.3865  1.3153  1.2142
  888MOL0     H17169  10.803   5.424   5.953 -0.2120 -0.4189 -0.6914
  888MOL0     H17170  10.767   5.793   6.101  2.8233  0.1260 -1.6733
  888MOL0     H17171  10.715   5.639   6.158  2.3565 -1.0753  0.3285
  888MOL0     H17172  10.666   5.770   5.882  0.0571  1.6134  0.6077
  888MOL0     H17173  10.551   5.784   6.012  1.7819  1.2886  0.1485
  888MOL0     H17174  10.613   5.514   5.870 -2.4217 -3.9006  2.3578
  888MOL0     H17175  10.509   5.532   6.013 -0.6773  1.3858  1.4208
  888MOL0     H17176  10.370   5.502   5.834 -0.0572  1.0339 -2.2243
  888MOL0     H17177  10.463   5.615   5.736 -1.2830 -1.4473 -0.4551
  888MOL0     H17178  10.155   5.874   5.970 -0.9242  0.1821 -1.1354
  888MOL0     H17179   9.926   5.901   5.877 -1.3615  0.2743 -0.7684
  888MOL0     H17180   9.593   5.933   5.543 -0.1113 -1.3672  0.0656
  888MOL0     H17181   9.331   5.947   5.532 -0.1053 -2.6794 -0.9968
  888MOL0     H17182   9.133   5.986   5.927 -2.8682  0.9845  0.5292
  888MOL0     H17183   9.068   5.836   5.859  1.1661  0.8054  3.6901
  888MOL0     H17184   8.931   5.974   5.700  1.2789 -0.2981  0.5521
  888MOL0     H17185   8.959   6.098   5.829 -0.1020 -0.2616  2.0452
  888MOL0     H17186   8.887   5.917   5.989 -2.8173 -1.5719  1.0710
  888MOL0     H17187   8.835   5.829   5.835  1.5394  1.1341 -2.1413
  888MOL0     H17188   8.758   6.102   5.923  0.0788  1.3260 -0.7599
  888MOL0     H17189   8.698   6.032   5.778 -0.6511  0.1081  0.0645
  888MOL0     H17190   8.617   5.939   6.060  1.7714 -0.8225 -0.1953
  888MOL0     H17191   8.589   5.847   5.906 -0.7647  0.7623 -1.3976
  888MOL0     H17192   8.467   6.032   5.816 -3.5583  0.0766  0.5202
  888MOL0     H17193   8.463   6.101   5.974 -0.8912  0.8761 -2.9459
  888MOL0     H17194   8.341   5.846   5.869 -1.7362  2.7460 -2.3843
  888MOL0     H17195   8.363   5.855   6.044  0.2602  0.9871  0.8250
  888MOL0     H17196   8.217   6.055   5.872 -1.1495 -1.5256 -1.0271
  888MOL0     H17197   8.219   6.067   6.043  0.2137  0.2030 -0.8046
  888MOL0     H17198   9.319   5.887   5.949 -3.5508 -1.1187 -2.9526
  888MOL0     H17199   9.558   5.862   5.962 -0.6015 -1.4814  0.6897
  888MOL0     H17200   9.976   5.572   5.616 -1.4411  0.3506  1.8782
  888MOL0     H17201  10.211   5.550   5.692  0.8557  0.3431 -0.7181
  888MOL0     H17202  11.250   5.365   6.609 -1.0339  1.1574  0.9937
  888MOL0     H17203  11.059   5.433   6.759 -2.4814  0.8467 -2.9014
  888MOL0     H17204  10.918   5.597   7.126  0.0371 -1.4763  2.0145
  888MOL0     H17205  10.729   5.709   7.225 -0.5814 -0.3095 -0.2260
  888MOL0     H17206  10.519   5.660   7.348  0.4340 -1.2050 -2.6761
  888MOL0     H17207  10.351   5.631   7.310 -0.4176  0.7918  3.0055
  888MOL0     H17208  10.354   5.840   7.424  0.1758  0.6904 -0.2527
  888MOL0     H17209  10.496   5.907   7.343 -1.8466  2.8306 -0.9334
  888MOL0     H17210  10.375   5.939   7.141 -1.6628  2.2215 -0.0884
  888MOL0     H17211  10.291   6.013   7.271 -0.6663 -0.0626 -0.3936
  888MOL0     H17212  10.123   5.902   7.129  0.8557  2.7948  1.3298
  888MOL0     H17213  10.206   5.736   7.145  1.4764  0.2139  1.2400
  888MOL0     H17214   9.958   5.813   7.497 -1.9596  0.8101 -0.5132
  888MOL0     H17215  10.453   5.463   7.035  0.5832 -2.0620 -0.6470
  888MOL0     H17216  10.630   5.319   6.940  3.3639 -0.9692 -1.3528
  889MOL0     O17217   1.869   7.467   9.669 -0.3553 -1.1042  0.4484
  889MOL0     C17218   1.960   7.532   9.623  0.0597 -0.1616  0.2270
  889MOL0     O17219   1.946   7.648   9.551  0.7304  1.1439 -0.2758
  889MOL0     C17220   1.819   7.686   9.544 -0.6114  0.6012 -0.4348
  889MOL0     C17221   1.733   7.634   9.444 -0.6653 -0.4069 -0.6370
  889MOL0     C17222   1.609   7.682   9.440 -0.0733  0.2254 -0.0604
  889MOL0     C17223   1.563   7.788   9.519 -0.4775  0.7757 -0.0326
  889MOL0     O17224   1.437   7.832   9.529 -0.6282  0.3127  0.3902
  889MOL0     C17225   1.335   7.735   9.487  0.0532 -0.3898  0.0166
  889MOL0     C17226   1.210   7.779   9.557  0.2830  0.2033  0.4642
  889MOL0     C17227   1.083   7.695   9.514 -0.2023  0.3442 -0.3581
  889MOL0     C17228   0.958   7.752   9.572 -0.1785 -0.7448  0.5709
  889MOL0     C17229   0.826   7.696   9.518  0.3487 -0.1866  1.2586
  889MOL0     C17230   0.706   7.780   9.561 -0.1211 -0.0563  0.6706
  889MOL0     C17231   0.579   7.724   9.496 -0.5717  0.2681  0.3706
  889MOL0     C17232   0.458   7.825   9.509 -0.4365  0.3528 -0.1787
  889MOL0     N17233   0.493   7.938   9.427 -0.1457  0.6192  0.8152
  889MOL0     C17234   0.479   8.069   9.453  0.0326  0.0565 -0.0544
  889MOL0     C17235   0.492   8.133   9.336  0.1674  0.6617  0.0724
  889MOL0     C17236   0.469   8.270   9.304  0.2347 -1.0506  0.3155
  889MOL0     C17237   0.317   8.299   9.267  1.4149  0.6501 -0.0373
  889MOL0     C17238   0.233   8.327   9.398 -0.8177  0.1339 -0.5958
  889MOL0     C17239   0.092   8.367   9.359  0.4678  0.2262 -0.0138
  889MOL0     O17240   0.004   8.370   9.479 -0.2592 -0.4680 -0.0015
  889MOL0     C17241  -0.132   8.353   9.473 -0.3444  0.6509 -0.1908
  889MOL0     C17242  -0.202   8.340   9.591 -0.2943  0.1665  0.6356
  889MOL0     C17243  -0.345   8.327   9.595  0.3772  0.0065 -0.5790
  889MOL0     C17244  -0.417   8.327   9.481  0.2604 -0.4025  0.2253
  889MOL0     C17245  -0.563   8.314   9.488  0.1415  0.3595 -0.2454
  889MOL0     O17246  -0.635   8.309   9.598  0.6253 -0.8136 -0.0045
  889MOL0     C17247  -0.778   8.310   9.595  0.1655 -0.3580 -0.1156
  889MOL0     C17248  -0.865   8.358   9.496 -0.8422  0.4846 -0.4227
  889MOL0     C17249  -1.004   8.348   9.518  0.0006  0.7653  0.5022
  889MOL0     C17250  -1.059   8.296   9.634 -0.6260  0.5192 -0.5297
  889MOL0     O17251  -1.191   8.287   9.643 -0.1279  0.0393 -0.4022
  889MOL0     C17252  -1.255   8.243   9.764  0.4353 -0.0772  0.3690
  889MOL0     C17253  -1.401   8.276   9.753 -0.6328 -0.4474  0.6443
  889MOL0     C17254  -1.465   8.212   9.627 -0.1379 -0.1681 -0.6223
  889MOL0     C17255  -1.600   8.282   9.592  0.6340  0.1744  0.2708
  889MOL0     C17256  -1.710   8.183   9.564  0.8988 -0.3008  0.0661
  889MOL0     C17257  -1.838   8.239   9.551  0.1028 -0.4593  0.6462
  889MOL0     C17258  -1.944   8.131   9.509  0.3700 -0.4248  0.5362
  889MOL0     C17259  -2.080   8.204   9.517 -0.9279  0.4667  0.4952
  889MOL0    Cl17260  -2.214   8.088   9.515  0.0905 -0.0106 -0.1118
  889MOL0     C17261  -0.976   8.253   9.735 -0.2789 -0.4395 -0.3909
  889MOL0     C17262  -0.836   8.258   9.710 -0.3585  0.3046 -0.3784
  889MOL0     O17263  -0.612   8.300   9.372  0.7362 -0.0604  0.2465
  889MOL0     C17264  -0.348   8.344   9.358 -0.4096  0.0926 -0.4078
  889MOL0     C17265  -0.209   8.350   9.361  0.6610 -0.5176  0.2798
  889MOL0     N17266   0.511   8.032   9.236 -0.3784 -0.3927 -0.7524
  889MOL0     N17267   0.508   7.923   9.293 -0.3847  0.3289 -0.5101
  889MOL0     C17268   1.650   7.841   9.619 -0.4092 -0.3690  0.3599
  889MOL0     C17269   1.779   7.787   9.629 -0.5027  0.4661  0.7811
  889MOL0     C17270   2.107   7.490   9.643 -0.0354 -0.8720 -0.0069
  889MOL0     C17271   2.199   7.527   9.543  0.3648 -0.1955 -0.2119
  889MOL0     C17272   2.331   7.471   9.544  0.6928  0.1554 -0.1262
  889MOL0     C17273   2.376   7.399   9.653 -1.0207  0.3077  1.0391
  889MOL0     O17274   2.501   7.344   9.675  0.0056  0.3673  0.4943
  889MOL0     C17275   2.606   7.395   9.594 -0.4159 -0.5623 -0.0290
  889MOL0     C17276   2.712   7.281   9.573 -0.5351  0.3935  0.7650
  889MOL0     C17277   2.682   7.174   9.464 -0.2765  0.5743  0.2973
  889MOL0     C17278   2.786   7.067   9.457 -0.4780 -0.3326  0.7490
  889MOL0     C17279   2.905   7.099   9.394  0.1258 -0.0131  0.7069
  889MOL0     C17280   3.014   7.111   9.341  1.3361  1.2698  0.1849
  889MOL0     C17281   2.283   7.364   9.750 -0.4730 -0.0316 -1.3774
  889MOL0     C17282   2.150   7.415   9.742 -0.1227  0.0846 -0.0382
  889MOL0     H17283   1.784   7.555   9.391  1.5829 -1.1567  2.3315
  889MOL0     H17284   1.542   7.641   9.365  0.9195  1.1215 -1.4844
  889MOL0     H17285   1.359   7.634   9.521 -3.5078 -1.1518  0.6873
  889MOL0     H17286   1.338   7.738   9.378  2.9668  0.5189  0.0337
  889MOL0     H17287   1.186   7.882   9.530  0.8389  0.6572  1.6627
  889MOL0     H17288   1.224   7.760   9.664  0.7525 -1.1549  0.1928
  889MOL0     H17289   1.097   7.591   9.544  1.7527  0.9526  1.0482
  889MOL0     H17290   1.065   7.706   9.407 -1.2177  0.6169 -0.1735
  889MOL0     H17291   0.964   7.743   9.681 -1.4971  1.4249  0.8797
  889MOL0     H17292   0.968   7.859   9.551 -0.8772 -0.2974  2.3158
  889MOL0     H17293   0.820   7.596   9.561  0.4471  0.3377  2.5350
  889MOL0     H17294   0.828   7.688   9.409 -1.4927 -0.2198  1.1960
  889MOL0     H17295   0.719   7.880   9.517  1.7724 -1.1179 -1.4176
  889MOL0     H17296   0.699   7.782   9.670 -0.4704 -3.0561  0.7878
  889MOL0     H17297   0.591   7.693   9.391 -0.5372  0.9185  0.1801
  889MOL0     H17298   0.561   7.624   9.538 -0.5507 -0.7697 -1.9322
  889MOL0     H17299   0.444   7.851   9.614 -0.9119  0.0362 -0.1587
  889MOL0     H17300   0.366   7.780   9.472  0.2508 -3.2310  1.9467
  889MOL0     H17301   0.451   8.115   9.548 -0.6195  1.0603 -0.7076
  889MOL0     H17302   0.534   8.307   9.224 -0.8511 -1.5868 -0.8523
  889MOL0     H17303   0.489   8.341   9.384 -1.2234 -0.5982  0.3106
  889MOL0     H17304   0.277   8.206   9.225  1.3092 -1.7703  4.6940
  889MOL0     H17305   0.306   8.376   9.191 -1.3757  0.6940  0.3019
  889MOL0     H17306   0.224   8.233   9.453 -0.9261 -0.9406 -2.3503
  889MOL0     H17307   0.288   8.406   9.451 -2.6922  0.5986  0.7490
  889MOL0     H17308   0.056   8.290   9.289 -0.1861  1.0153 -0.5688
  889MOL0     H17309   0.086   8.463   9.307 -0.5575  0.2065  0.0521
  889MOL0     H17310  -0.142   8.337   9.681 -0.1560 -1.4181  0.5225
  889MOL0     H17311  -0.389   8.305   9.692  0.7561  1.6165 -0.0012
  889MOL0     H17312  -0.829   8.394   9.400 -2.9085 -0.0343 -1.4589
  889MOL0     H17313  -1.078   8.385   9.449 -0.5453  1.1570  1.2815
  889MOL0     H17314  -1.224   8.303   9.850 -0.9794  1.8403 -0.3920
  889MOL0     H17315  -1.249   8.135   9.776 -1.7700 -0.2735  0.0907
  889MOL0     H17316  -1.407   8.385   9.743 -0.4933 -0.4405  0.6290
  889MOL0     H17317  -1.458   8.255   9.845 -1.1256  0.8656  0.6587
  889MOL0     H17318  -1.477   8.104   9.636  2.2854 -0.4529 -0.1218
  889MOL0     H17319  -1.399   8.234   9.542  2.2048  2.0341  1.6038
  889MOL0     H17320  -1.630   8.340   9.679 -0.2929  2.3338 -1.3927
  889MOL0     H17321  -1.598   8.356   9.512 -0.7737 -0.0796 -0.0397
  889MOL0     H17322  -1.714   8.106   9.641  5.3789  0.3329  1.2227
  889MOL0     H17323  -1.693   8.139   9.465 -1.3090 -2.5680  0.5799
  889MOL0     H17324  -1.836   8.322   9.480 -0.4289 -1.4099 -0.5045
  889MOL0     H17325  -1.861   8.279   9.650 -1.0034 -1.1080  0.6718
  889MOL0     H17326  -1.917   8.089   9.412 -0.0549 -0.1751  0.3059
  889MOL0     H17327  -1.952   8.056   9.588 -2.8093  0.0409  0.7964
  889MOL0     H17328  -2.080   8.274   9.432  0.0528  0.1057  0.1769
  889MOL0     H17329  -2.088   8.267   9.606 -2.0978  2.0471 -0.6585
  889MOL0     H17330  -1.012   8.199   9.822  3.4430 -1.5771  0.6218
  889MOL0     H17331  -0.766   8.220   9.783 -0.3369  2.9519  1.0895
  889MOL0     H17332  -0.405   8.330   9.266 -0.6493  1.0563 -0.4163
  889MOL0     H17333  -0.156   8.369   9.267 -1.7804 -0.4807 -1.1783
  889MOL0     H17334   1.609   7.912   9.691 -1.8653 -0.6455 -0.1769
  889MOL0     H17335   1.851   7.830   9.698  1.5221 -0.9085 -0.3401
  889MOL0     H17336   2.172   7.590   9.459 -1.5220 -2.1729 -1.1836
  889MOL0     H17337   2.394   7.515   9.467  0.9300 -0.6185 -0.3874
  889MOL0     H17338   2.655   7.472   9.655  0.8936 -0.9374 -0.5645
  889MOL0     H17339   2.591   7.457   9.506  0.2673 -0.9921 -0.4550
  889MOL0     H17340   2.800   7.339   9.546 -0.7912  0.8704  0.9375
  889MOL0     H17341   2.712   7.219   9.662 -1.2363 -1.4814 -0.4757
  889MOL0     H17342   2.645   7.216   9.370 -2.8990  0.3041  1.1396
  889MOL0     H17343   2.597   7.123   9.509  0.0633  0.4400  0.7892
  889MOL0     H17344   2.811   7.026   9.556  0.3897 -1.9868 -0.1081
  889MOL0     H17345   2.754   6.980   9.399 -0.2278  0.6314 -0.8861
  889MOL0     H17346   3.110   7.127   9.295  1.5742 -1.4856 -0.4435
  889MOL0     H17347   2.303   7.291   9.828 -0.8477 -1.3046 -2.4410
  889MOL0     H17348   2.075   7.375   9.809  0.4846 -1.2042 -0.1022
  890MOL0     O17349   8.349   2.811   5.425 -0.1541  0.0430  0.0255
  890MOL0     C17350   8.384   2.925   5.431 -0.0396 -1.1291 -0.5154
  890MOL0     O17351   8.300   3.035   5.450  0.1716 -0.3559  1.0752
  890MOL0     C17352   8.171   3.006   5.473  0.3206 -0.0722  0.2972
  890MOL0     C17353   8.115   3.006   5.599  0.4738  0.1618  0.0345
  890MOL0     C17354   7.986   2.965   5.629 -0.8312  0.3688  0.1639
  890MOL0     C17355   7.901   2.924   5.523 -0.9876  0.2925 -0.4145
  890MOL0     O17356   7.771   2.895   5.536  1.3424 -0.1971  0.0652
  890MOL0     C17357   7.726   2.878   5.673 -0.3266 -0.3529  0.1755
  890MOL0     C17358   7.653   3.003   5.732  0.4660  0.2189 -0.2410
  890MOL0     C17359   7.494   2.987   5.717 -0.8558  0.5546 -0.2919
  890MOL0     C17360   7.460   3.035   5.578 -0.2833 -0.4334 -0.5569
  890MOL0     C17361   7.327   3.096   5.568  0.1436 -0.5749 -0.2435
  890MOL0     C17362   7.265   3.111   5.428  0.2699  0.0103  0.3448
  890MOL0     C17363   7.237   2.970   5.364  1.4792  0.3220 -0.8600
  890MOL0     C17364   7.115   2.959   5.274 -0.1005  0.1670  0.4346
  890MOL0     N17365   7.087   2.819   5.251  0.3907 -0.2137  0.3409
  890MOL0     C17366   7.020   2.741   5.345 -0.3739  0.1595  0.9039
  890MOL0     C17367   6.997   2.626   5.282  0.1349 -0.0297 -0.0484
  890MOL0     C17368   6.920   2.503   5.332 -0.3498 -0.7901 -0.0443
  890MOL0     C17369   6.780   2.489   5.271 -0.1264 -0.5528  0.5969
  890MOL0     C17370   6.683   2.576   5.342  0.5388 -0.1687 -1.4161
  890MOL0     C17371   6.536   2.543   5.311  0.0451 -0.9848  0.5411
  890MOL0     O17372   6.510   2.525   5.172 -0.2993 -0.5395  0.4644
  890MOL0     C17373   6.403   2.456   5.129  0.4726  0.3349  0.4910
  890MOL0     C17374   6.406   2.407   4.994 -0.2285  0.2268  0.4074
  890MOL0     C17375   6.303   2.319   4.953  0.2704  0.5659  0.5623
  890MOL0     C17376   6.205   2.265   5.039  0.5399  1.1438  0.2023
  890MOL0     C17377   6.097   2.167   4.994  0.0668 -0.8482 -0.2685
  890MOL0     O17378   6.008   2.139   5.085 -0.2769 -0.1318 -1.0719
  890MOL0     C17379   5.912   2.042   5.050  0.5913 -0.9314 -0.5097
  890MOL0     C17380   5.926   1.912   5.093 -0.6665 -0.2939 -0.1665
  890MOL0     C17381   5.823   1.822   5.063 -0.5067  0.8448  0.5466
  890MOL0     C17382   5.699   1.858   5.001  0.3227 -0.2185  0.3975
  890MOL0     O17383   5.607   1.757   4.970 -0.0772  0.1031 -0.1437
  890MOL0     C17384   5.476   1.800   4.934  1.0292 -0.0869 -0.2744
  890MOL0     C17385   5.402   1.671   4.903  0.2089  0.0285 -0.2100
  890MOL0     C17386   5.255   1.680   4.863 -0.3808  0.4158  0.2078
  890MOL0     C17387   5.204   1.544   4.808  0.1083  0.2102  0.6355
  890MOL0     C17388   5.072   1.548   4.742 -0.0455 -0.7155  0.7364
  890MOL0     C17389   4.967   1.605   4.833  0.6147 -0.5324 -0.1979
  890MOL0     C17390   4.945   1.534   4.961  0.7267  0.2185 -0.6090
  890MOL0     C17391   4.811   1.566   5.031 -0.1083 -0.9262  0.3491
  890MOL0    Cl17392   4.802   1.733   5.087 -0.1468  0.0320 -0.3792
  890MOL0     C17393   5.686   1.995   4.964  0.4786  0.5255  0.5155
  890MOL0     C17394   5.797   2.082   4.983  0.2901  0.1824  0.3815
  890MOL0     O17395   6.110   2.112   4.885  0.2782 -0.2462 -0.4394
  890MOL0     C17396   6.207   2.310   5.172  0.1693  0.5895  0.3289
  890MOL0     C17397   6.300   2.406   5.215 -1.4002 -0.0064 -0.0366
  890MOL0     N17398   7.056   2.626   5.161  0.9326 -0.4382 -0.5555
  890MOL0     N17399   7.119   2.745   5.148  0.1508  0.2076  0.2297
  890MOL0     C17400   7.957   2.914   5.398 -0.2749  0.5207 -0.2426
  890MOL0     C17401   8.091   2.952   5.366  1.1106 -0.6616  0.0516
  890MOL0     C17402   8.528   2.965   5.421  0.1157  0.4329 -0.3401
  890MOL0     C17403   8.625   2.870   5.368 -0.7017  0.0109  0.1935
  890MOL0     C17404   8.767   2.906   5.363 -0.0609  0.2987 -0.1564
  890MOL0     C17405   8.809   3.026   5.415 -0.2149  0.6484  0.3843
  890MOL0     O17406   8.943   3.044   5.435 -0.4130  0.0044 -0.3224
  890MOL0     C17407   8.990   3.151   5.515  1.0177  1.0158  0.0134
  890MOL0     C17408   9.143   3.130   5.526 -0.2800  0.3147  0.5780
  890MOL0     C17409   9.204   3.204   5.650 -0.1742 -0.3417  0.4609
  890MOL0     C17410   9.357   3.161   5.645 -0.1962 -0.0363 -0.0245
  890MOL0     C17411   9.422   3.194   5.773  0.5087 -0.5515  0.7106
  890MOL0     C17412   9.489   3.225   5.870 -0.5762  0.4889  0.3089
  890MOL0     C17413   8.711   3.107   5.474 -0.5586 -0.5813 -0.0532
  890MOL0     C17414   8.571   3.078   5.483  0.2356 -0.3123  0.0832
  890MOL0     H17415   8.175   3.029   5.686 -1.5318 -2.7756  2.4166
  890MOL0     H17416   7.941   2.985   5.725 -2.2248  2.0278 -0.7676
  890MOL0     H17417   7.811   2.849   5.735  0.6800  1.8588 -0.0668
  890MOL0     H17418   7.651   2.799   5.682 -0.5435 -0.1560  0.0875
  890MOL0     H17419   7.690   3.093   5.683  0.2034  0.2272 -0.4222
  890MOL0     H17420   7.697   3.019   5.831  2.8948 -1.2114 -1.0028
  890MOL0     H17421   7.449   3.045   5.798 -0.6675  0.6716 -0.2722
  890MOL0     H17422   7.453   2.886   5.730 -1.6274  0.3877 -3.2544
  890MOL0     H17423   7.515   3.125   5.550 -2.1455  0.7558 -0.5669
  890MOL0     H17424   7.482   2.950   5.512  3.3663 -0.0185 -0.0902
  890MOL0     H17425   7.339   3.194   5.615  0.8286 -0.5391 -0.4821
  890MOL0     H17426   7.257   3.038   5.630  0.2971  1.4537  1.9893
  890MOL0     H17427   7.320   3.167   5.353 -0.6716 -0.7354 -0.9405
  890MOL0     H17428   7.169   3.160   5.447  0.9973  1.7527 -0.3533
  890MOL0     H17429   7.320   2.938   5.301  0.7341 -1.7557 -0.8667
  890MOL0     H17430   7.222   2.893   5.439 -1.8693  0.9663 -0.6925
  890MOL0     H17431   7.138   3.003   5.177 -0.1627 -0.7502 -0.0050
  890MOL0     H17432   7.032   3.020   5.312  0.5350  1.2087  0.1879
  890MOL0     H17433   6.996   2.769   5.447 -0.6206  0.1810  0.8411
  890MOL0     H17434   6.913   2.506   5.441  1.4042  1.0176  0.0697
  890MOL0     H17435   6.984   2.419   5.304  0.1994  0.4608 -2.8915
  890MOL0     H17436   6.746   2.387   5.293 -3.6977  0.6326  1.1149
  890MOL0     H17437   6.766   2.499   5.163 -1.2078  2.1449  0.8986
  890MOL0     H17438   6.700   2.567   5.450 -1.1067 -1.2687 -1.2068
  890MOL0     H17439   6.706   2.680   5.317  2.8999  0.9386  4.0514
  890MOL0     H17440   6.474   2.615   5.364 -0.0435 -1.9579  1.8275
  890MOL0     H17441   6.507   2.452   5.364  0.7921 -0.9890  0.9628
  890MOL0     H17442   6.484   2.442   4.928  3.0954 -1.3562  3.1365
  890MOL0     H17443   6.302   2.281   4.852 -0.6543 -1.1196  1.1767
  890MOL0     H17444   6.025   1.891   5.132 -0.3441  2.4281  0.6947
  890MOL0     H17445   5.825   1.718   5.093 -0.1345  0.4813 -0.6621
  890MOL0     H17446   5.477   1.854   4.839  1.0593 -3.9474 -2.6650
  890MOL0     H17447   5.422   1.859   5.009 -0.0634 -0.4152 -0.7789
  890MOL0     H17448   5.402   1.608   4.993 -4.4460  0.7728  0.5580
  890MOL0     H17449   5.453   1.619   4.821 -3.1316  1.6633 -3.6287
  890MOL0     H17450   5.244   1.765   4.795  0.8517 -0.5245 -1.2189
  890MOL0     H17451   5.199   1.702   4.955 -0.2179  0.4268  0.3063
  890MOL0     H17452   5.269   1.510   4.727  1.2523  0.7498  1.2879
  890MOL0     H17453   5.201   1.460   4.878 -0.4636 -0.6765 -0.4314
  890MOL0     H17454   5.052   1.452   4.693 -1.6074 -0.7041  1.3004
  890MOL0     H17455   5.073   1.613   4.655 -0.1141  0.0723  1.3188
  890MOL0     H17456   4.871   1.619   4.782 -0.1997  1.5749  1.7394
  890MOL0     H17457   4.996   1.706   4.864 -0.0446 -0.4216  0.0672
  890MOL0     H17458   4.941   1.426   4.943 -1.1404 -0.1144  1.3264
  890MOL0     H17459   5.026   1.549   5.034  0.0891  1.6873 -0.1817
  890MOL0     H17460   4.807   1.504   5.120  1.7210  0.6591  1.6150
  890MOL0     H17461   4.720   1.553   4.971  0.4770 -1.8505 -0.3558
  890MOL0     H17462   5.604   2.034   4.905  0.9266  3.7253  1.8361
  890MOL0     H17463   5.805   2.184   4.946  0.4197  0.9383  2.3487
  890MOL0     H17464   6.139   2.276   5.249  0.9085 -0.5442  0.5008
  890MOL0     H17465   6.306   2.444   5.317 -1.4976 -0.3890  0.1149
  890MOL0     H17466   7.884   2.873   5.328  1.0849 -1.0207 -0.8236
  890MOL0     H17467   8.127   2.941   5.264 -1.5988 -0.9430 -0.9465
  890MOL0     H17468   8.591   2.773   5.332  0.1896  0.4402 -1.9265
  890MOL0     H17469   8.836   2.831   5.325 -0.0637  0.0644  0.3029
  890MOL0     H17470   8.949   3.146   5.616  1.3253 -0.2541  0.0888
  890MOL0     H17471   8.974   3.249   5.468 -0.3497 -1.2556 -4.8246
  890MOL0     H17472   9.172   3.024   5.533  2.5388  1.1136  3.3693
  890MOL0     H17473   9.186   3.166   5.433  1.6633 -3.9825 -0.4760
  890MOL0     H17474   9.159   3.172   5.744  2.2899  0.3771  1.9714
  890MOL0     H17475   9.192   3.312   5.640 -2.4026 -0.5559  0.2328
  890MOL0     H17476   9.361   3.051   5.643  0.2638 -0.0171 -0.2478
  890MOL0     H17477   9.410   3.212   5.565 -0.1776 -1.3947 -0.9129
  890MOL0     H17478   9.557   3.252   5.948  1.0600 -3.0528  0.2959
  890MOL0     H17479   8.746   3.195   5.528 -1.8281  0.8794 -1.4779
  890MOL0     H17480   8.507   3.148   5.536 -1.3419  0.4925 -2.7200
  891MOL0     O17481   4.551  10.940  10.704 -0.5890 -0.0377 -0.1321
  891MOL0     C17482   4.601  11.049  10.667  0.9350  1.0676 -0.6037
  891MOL0     O17483   4.529  11.164  10.629  0.1368 -0.1255  0.2087
  891MOL0     C17484   4.388  11.162  10.630  0.4029 -0.7961 -0.1416
  891MOL0     C17485   4.315  11.227  10.524 -0.4875  0.6013  0.1588
  891MOL0     C17486   4.175  11.229  10.523 -0.8272 -0.6957  0.7795
  891MOL0     C17487   4.112  11.184  10.640 -0.6341  0.5552  0.3001
  891MOL0     O17488   3.979  11.193  10.638 -0.5470 -0.0519 -0.0945
  891MOL0     C17489   3.912  11.236  10.758 -0.6905  0.4272 -0.1629
  891MOL0     C17490   3.759  11.216  10.771 -0.3697 -0.0633  0.2899
  891MOL0     C17491   3.724  11.069  10.797  0.0218  0.6154  0.3235
  891MOL0     C17492   3.571  11.054  10.779  0.9873 -0.1650  0.2031
  891MOL0     C17493   3.471  11.124  10.873  0.0411  0.0214 -0.2760
  891MOL0     C17494   3.338  11.055  10.897  0.2401  0.5956  0.1550
  891MOL0     C17495   3.246  11.048  10.776 -0.0720  0.0175  0.7084
  891MOL0     C17496   3.218  11.187  10.725 -0.1187  0.3076  0.0673
  891MOL0     N17497   3.164  11.269  10.826 -1.0523  0.2493  0.0183
  891MOL0     C17498   3.040  11.242  10.876  0.1839 -0.5918 -0.5845
  891MOL0     C17499   3.029  11.337  10.968 -0.8301 -0.2233  0.5095
  891MOL0     C17500   2.905  11.358  11.060 -0.1032 -0.6365 -0.2003
  891MOL0     C17501   2.777  11.395  10.987 -0.2407 -0.7563 -0.4859
  891MOL0     C17502   2.665  11.449  11.086 -0.5196  0.6867 -0.0589
  891MOL0     C17503   2.559  11.544  11.013  1.1503  0.4190 -0.9262
  891MOL0     O17504   2.491  11.478  10.905  0.4389 -0.0620  0.0496
  891MOL0     C17505   2.359  11.448  10.928  0.4807 -0.3520  0.2377
  891MOL0     C17506   2.259  11.468  10.826  0.4439  0.4215  0.3352
  891MOL0     C17507   2.134  11.423  10.839 -0.1012 -0.5096 -0.0269
  891MOL0     C17508   2.097  11.354  10.951  0.5197 -0.4611  0.5302
  891MOL0     C17509   1.965  11.283  10.952  0.4101  0.7474 -0.3639
  891MOL0     O17510   1.951  11.193  11.052 -0.1938  0.3619 -0.1401
  891MOL0     C17511   1.850  11.102  11.053  0.9961  0.1073  0.0541
  891MOL0     C17512   1.805  11.080  11.185  0.0278  0.0432 -0.5009
  891MOL0     C17513   1.707  10.984  11.206 -0.5933  0.0371 -1.2243
  891MOL0     C17514   1.646  10.922  11.092 -0.4353 -0.1330 -0.6895
  891MOL0     O17515   1.549  10.827  11.099  0.8129 -0.3547  0.1374
  891MOL0     C17516   1.484  10.811  11.230  0.0865  0.2741  0.1673
  891MOL0     C17517   1.399  10.684  11.254 -0.0670 -0.4253  0.3662
  891MOL0     C17518   1.249  10.705  11.243  0.4444 -0.3552 -0.3632
  891MOL0     C17519   1.183  10.578  11.291  0.3471 -0.0511 -0.3552
  891MOL0     C17520   1.036  10.599  11.335 -0.2229  0.0843  0.6208
  891MOL0     C17521   0.958  10.675  11.228 -0.2130  0.6441  0.6626
  891MOL0     C17522   0.805  10.688  11.269 -0.1701 -0.3222  0.6731
  891MOL0     C17523   0.707  10.729  11.156  0.1758 -0.8095  0.3006
  891MOL0    Cl17524   0.785  10.825  11.029 -0.0752  0.1710  0.4514
  891MOL0     C17525   1.698  10.939  10.963  0.1544  0.3706 -0.3828
  891MOL0     C17526   1.797  11.034  10.945 -0.0102 -0.0389  0.2912
  891MOL0     O17527   1.885  11.302  10.859  0.7523 -0.4528  0.1578
  891MOL0     C17528   2.185  11.333  11.055 -1.2979  0.4525 -0.5599
  891MOL0     C17529   2.317  11.375  11.038  0.3098 -0.7044  0.2825
  891MOL0     N17530   3.132  11.419  10.969 -0.7832 -0.3399 -0.0926
  891MOL0     N17531   3.214  11.378  10.883 -0.9729 -0.2919  0.0791
  891MOL0     C17532   4.187  11.135  10.753 -0.1064 -0.2704  0.4951
  891MOL0     C17533   4.317  11.115  10.743  0.2798  0.1917  0.6275
  891MOL0     C17534   4.752  11.049  10.676  0.0103 -0.0750 -0.3206
  891MOL0     C17535   4.827  10.931  10.694 -0.1370 -1.0752  0.3560
  891MOL0     C17536   4.963  10.943  10.719  0.3056  0.8265 -0.0250
  891MOL0     C17537   5.031  11.065  10.715 -0.4196 -0.0451  0.7659
  891MOL0     O17538   5.162  11.066  10.742  0.1766 -0.4431  0.1999
  891MOL0     C17539   5.247  11.161  10.670  0.2726  0.2743 -0.0440
  891MOL0     C17540   5.241  11.146  10.512  0.2615 -0.0347  0.5608
  891MOL0     C17541   5.283  10.999  10.462  0.4613 -0.5173  0.3490
  891MOL0     C17542   5.434  10.971  10.482 -0.4629  0.7310 -0.6238
  891MOL0     C17543   5.513  11.050  10.384 -0.9826  0.2025 -0.1052
  891MOL0     C17544   5.570  11.108  10.293  0.3388  0.1905 -0.2577
  891MOL0     C17545   4.958  11.180  10.689  0.5019 -0.3965 -0.4939
  891MOL0     C17546   4.821  11.172  10.668  0.5518  0.5467  0.3587
  891MOL0     H17547   4.370  11.256  10.435 -1.9930 -1.5521 -1.6187
  891MOL0     H17548   4.112  11.261  10.440 -0.8652 -1.0422  0.6739
  891MOL0     H17549   3.924  11.345  10.755  1.0458  0.2394 -2.3492
  891MOL0     H17550   3.961  11.200  10.849 -0.0866  3.2626  0.7190
  891MOL0     H17551   3.711  11.237  10.675  1.5658 -0.2703 -0.7666
  891MOL0     H17552   3.723  11.273  10.857  1.5047  0.2820  0.8900
  891MOL0     H17553   3.755  11.045  10.899 -1.6217  1.5407  1.0829
  891MOL0     H17554   3.777  11.010  10.722  0.6695  1.3324  0.2100
  891MOL0     H17555   3.541  11.071  10.675 -1.4752  2.0281  1.1320
  891MOL0     H17556   3.553  10.947  10.787 -1.0319  0.1960  1.3682
  891MOL0     H17557   3.452  11.229  10.847  0.6022 -0.1119 -1.2780
  891MOL0     H17558   3.522  11.134  10.970 -0.9058 -0.3563  0.2775
  891MOL0     H17559   3.285  11.102  10.981  1.4275  1.2032  0.5763
  891MOL0     H17560   3.370  10.961  10.943  0.3191  0.7491  0.4140
  891MOL0     H17561   3.304  10.996  10.699  1.6162  3.4839 -0.5652
  891MOL0     H17562   3.161  10.984  10.799 -0.2240 -0.7629 -1.7676
  891MOL0     H17563   3.146  11.183  10.642 -2.2124  2.2027  1.6522
  891MOL0     H17564   3.314  11.217  10.682  1.4652  0.0745  3.1608
  891MOL0     H17565   2.967  11.165  10.854 -2.7973  2.0759 -0.7651
  891MOL0     H17566   2.917  11.429  11.142  1.1435 -2.1164  0.9462
  891MOL0     H17567   2.899  11.260  11.107  2.2319 -0.8016 -0.1692
  891MOL0     H17568   2.740  11.318  10.918 -0.5266  1.9888 -3.6059
  891MOL0     H17569   2.822  11.481  10.936 -2.0617 -0.3303 -1.4603
  891MOL0     H17570   2.613  11.363  11.128  0.3515  0.5586  0.8164
  891MOL0     H17571   2.708  11.502  11.172 -0.4241 -0.0321  0.3426
  891MOL0     H17572   2.608  11.632  10.970  0.9924  0.5045 -0.9299
  891MOL0     H17573   2.488  11.580  11.088  0.9937  1.1127 -1.4016
  891MOL0     H17574   2.303  11.501  10.732  0.0894  0.7703  0.2911
  891MOL0     H17575   2.059  11.437  10.761  1.3756  1.7989 -1.1477
  891MOL0     H17576   1.840  11.145  11.265 -2.4487 -0.1051  0.7826
  891MOL0     H17577   1.682  10.954  11.308 -0.0885 -1.6672 -1.5625
  891MOL0     H17578   1.424  10.899  11.252  0.8831  1.3279 -1.6053
  891MOL0     H17579   1.559  10.801  11.310  0.5845 -0.6367 -0.3927
  891MOL0     H17580   1.412  10.657  11.359  1.0855  1.4391  0.7578
  891MOL0     H17581   1.443  10.604  11.193  2.9011  0.3652  1.2995
  891MOL0     H17582   1.219  10.733  11.142 -1.3094  0.0846  0.2534
  891MOL0     H17583   1.218  10.784  11.311  0.6128  1.9281 -2.7844
  891MOL0     H17584   1.192  10.507  11.208 -0.8412  0.5632 -1.0344
  891MOL0     H17585   1.231  10.530  11.377  1.0764  0.3911 -0.5058
  891MOL0     H17586   1.035  10.663  11.423  0.9897  0.3276  0.4697
  891MOL0     H17587   0.999  10.500  11.363  1.1126 -0.6619 -0.1423
  891MOL0     H17588   0.970  10.624  11.132 -4.3640  1.0862 -0.2819
  891MOL0     H17589   0.998  10.776  11.213  4.2817 -1.2535 -2.2372
  891MOL0     H17590   0.763  10.590  11.292 -4.5280  1.2604  0.5981
  891MOL0     H17591   0.797  10.757  11.354 -0.2678  0.8979 -0.2889
  891MOL0     H17592   0.621  10.787  11.190  1.6305  1.8295 -0.2387
  891MOL0     H17593   0.669  10.636  11.113  2.1953 -2.3022  1.5454
  891MOL0     H17594   1.652  10.887  10.879 -1.7636 -2.0146  1.9590
  891MOL0     H17595   1.824  11.044  10.840  0.2179 -0.3735  0.3165
  891MOL0     H17596   2.165  11.273  11.143  0.2971  1.5453  0.6110
  891MOL0     H17597   2.383  11.334  11.114  0.1173  0.0514  0.8748
  891MOL0     H17598   4.144  11.109  10.849 -1.0968  0.7577  0.3496
  891MOL0     H17599   4.374  11.066  10.822  2.9862  0.7433 -0.8481
  891MOL0     H17600   4.789  10.830  10.701 -0.7638 -0.8775 -0.1084
  891MOL0     H17601   5.019  10.851  10.731 -0.6098  0.3022  0.3495
  891MOL0     H17602   5.350  11.143  10.701  0.1746 -0.0678  0.0870
  891MOL0     H17603   5.220  11.262  10.701 -0.2852  0.4747 -1.1146
  891MOL0     H17604   5.138  11.167  10.483 -0.3398  1.5577  3.4150
  891MOL0     H17605   5.314  11.220  10.478  1.9141 -2.0649 -0.5954
  891MOL0     H17606   5.268  10.992  10.354  0.1143  0.8752  0.2758
  891MOL0     H17607   5.228  10.923  10.517 -0.0258  0.5409  1.3822
  891MOL0     H17608   5.465  11.006  10.581 -1.7013  0.3029 -0.0689
  891MOL0     H17609   5.452  10.864  10.473  0.3826  0.8303 -0.2319
  891MOL0     H17610   5.622  11.156  10.212 -0.7833  0.3071 -0.9361
  891MOL0     H17611   5.003  11.279  10.691 -0.2389 -0.0232 -1.5573
  891MOL0     H17612   4.761  11.261  10.653 -0.9554 -0.1147  2.0862
  892MOL0     O17613   4.931   9.517   0.337 -0.4952  0.0440  0.2817
  892MOL0     C17614   4.952   9.397   0.304 -0.5485  0.5212  0.1207
  892MOL0     O17615   4.860   9.300   0.296 -0.2589  0.5191 -0.0918
  892MOL0     C17616   4.727   9.318   0.321  0.7140  0.4042  0.0772
  892MOL0     C17617   4.657   9.223   0.396  0.2030  0.2532  0.1161
  892MOL0     C17618   4.515   9.244   0.414 -0.2301 -0.6456  0.0787
  892MOL0     C17619   4.452   9.351   0.355  0.0232 -0.5060  0.4970
  892MOL0     O17620   4.324   9.389   0.358  0.3387 -0.5890 -0.3625
  892MOL0     C17621   4.230   9.304   0.417  0.7616 -0.6100  0.8372
  892MOL0     C17622   4.237   9.321   0.572 -0.1994  0.0417  0.3280
  892MOL0     C17623   4.110   9.279   0.659 -0.3186 -0.6303 -0.2955
  892MOL0     C17624   4.140   9.307   0.808  0.5355  0.3639 -0.5223
  892MOL0     C17625   4.016   9.274   0.898 -0.1715  0.2556  0.9503
  892MOL0     C17626   3.897   9.379   0.866 -0.6176 -0.6367 -0.1923
  892MOL0     C17627   3.788   9.378   0.970  0.1379 -0.5972 -0.3983
  892MOL0     C17628   3.708   9.251   0.975  0.1449 -0.3861 -0.1123
  892MOL0     N17629   3.597   9.274   1.063  0.1824  0.1523 -1.3837
  892MOL0     C17630   3.481   9.321   1.028  0.0734 -0.0393 -0.6333
  892MOL0     C17631   3.406   9.329   1.136  0.2416  0.6733 -1.3055
  892MOL0     C17632   3.267   9.382   1.144  0.5535 -0.4821  0.3045
  892MOL0     C17633   3.172   9.284   1.216 -0.4219 -0.2232 -0.6055
  892MOL0     C17634   3.034   9.342   1.193  0.5505 -0.0429  0.3764
  892MOL0     C17635   2.930   9.239   1.235  0.0023  0.1076  0.0062
  892MOL0     O17636   2.802   9.302   1.235  0.8252  0.4788  0.5420
  892MOL0     C17637   2.696   9.217   1.259 -0.4892  0.4149  0.1845
  892MOL0     C17638   2.573   9.282   1.256  0.3713 -0.6528  0.0760
  892MOL0     C17639   2.448   9.217   1.269 -0.4331  0.4444  0.1356
  892MOL0     C17640   2.447   9.082   1.293 -0.0988 -0.7034  0.4595
  892MOL0     C17641   2.325   9.005   1.312  0.0230  0.1433  0.3859
  892MOL0     O17642   2.215   9.079   1.304  0.5003  0.1739  0.0624
  892MOL0     C17643   2.085   9.036   1.323  0.2243 -0.1522 -0.5948
  892MOL0     C17644   2.042   8.906   1.352  0.2081 -0.0334 -0.3221
  892MOL0     C17645   1.899   8.889   1.350  0.1887 -0.6085  0.1936
  892MOL0     C17646   1.815   8.992   1.318  0.7646  0.4499 -0.4337
  892MOL0     O17647   1.684   8.959   1.313 -0.7177 -0.6213 -0.2923
  892MOL0     C17648   1.571   9.041   1.343 -0.4162 -1.4154 -0.1401
  892MOL0     C17649   1.436   8.971   1.302 -0.6927  0.1379  0.1961
  892MOL0     C17650   1.308   9.058   1.316  0.3795 -0.1890 -0.6614
  892MOL0     C17651   1.189   8.993   1.245  0.3818  0.4911 -0.4501
  892MOL0     C17652   1.048   9.055   1.289 -0.6290  1.8674 -0.2902
  892MOL0     C17653   0.923   8.962   1.276 -0.0572 -0.1259  0.2560
  892MOL0     C17654   0.896   8.939   1.129 -0.3031  1.0616 -0.3867
  892MOL0     C17655   0.744   8.901   1.107  0.4020 -0.1762 -0.8390
  892MOL0    Cl17656   0.678   8.760   1.190  0.3279 -0.3041  0.3886
  892MOL0     C17657   1.860   9.120   1.309 -0.4063  0.8433  0.3677
  892MOL0     C17658   1.993   9.144   1.300 -0.1316  0.8082 -0.8108
  892MOL0     O17659   2.328   8.884   1.338  0.4558 -0.0654  0.2011
  892MOL0     C17660   2.571   9.014   1.298 -0.3094 -0.4790 -0.8004
  892MOL0     C17661   2.689   9.079   1.275 -0.0846 -0.7653  0.0189
  892MOL0     N17662   3.481   9.282   1.244  0.3275 -0.0240 -0.6248
  892MOL0     N17663   3.592   9.245   1.201 -0.1579  0.2445 -0.2604
  892MOL0     C17664   4.528   9.445   0.286  0.9404  0.0179  0.4421
  892MOL0     C17665   4.659   9.429   0.274 -0.2085  0.3150  0.3869
  892MOL0     C17666   5.090   9.354   0.298 -0.0077  0.0217  0.4805
  892MOL0     C17667   5.193   9.449   0.298  0.8694 -0.2087 -0.0846
  892MOL0     C17668   5.330   9.419   0.303  0.0091 -0.0221 -0.5548
  892MOL0     C17669   5.354   9.280   0.308 -0.6686  0.3765  0.0177
  892MOL0     O17670   5.495   9.250   0.302  0.4312  0.8068 -0.7016
  892MOL0     C17671   5.534   9.133   0.372  0.0275  0.6789  0.0770
  892MOL0     C17672   5.676   9.152   0.425 -0.2414  0.5220 -1.1059
  892MOL0     C17673   5.788   9.163   0.319  1.0849 -1.0043  0.2291
  892MOL0     C17674   5.917   9.149   0.392  0.6948  0.3344 -0.2926
  892MOL0     C17675   6.038   9.162   0.312  0.7046  0.1565  0.0532
  892MOL0     C17676   6.124   9.180   0.230 -0.4069 -0.0400  0.1398
  892MOL0     C17677   5.255   9.172   0.307 -0.6358  0.2755 -0.6076
  892MOL0     C17678   5.125   9.220   0.304 -0.3806 -0.8363 -0.2401
  892MOL0     H17679   4.715   9.141   0.437  1.3395  0.5242 -0.9097
  892MOL0     H17680   4.455   9.171   0.466  0.2936  0.6275  2.6213
  892MOL0     H17681   4.230   9.199   0.387 -0.5297  0.4341 -3.5650
  892MOL0     H17682   4.131   9.339   0.386  2.0821  1.3427 -1.4962
  892MOL0     H17683   4.275   9.422   0.587  0.6854 -0.3025  0.4708
  892MOL0     H17684   4.312   9.252   0.612 -0.9080 -0.4942  0.7813
  892MOL0     H17685   4.095   9.172   0.644 -0.3328 -1.1423  2.8022
  892MOL0     H17686   4.023   9.338   0.629  0.4137 -0.2160 -1.7242
  892MOL0     H17687   4.227   9.246   0.834 -0.2025 -1.0315 -1.1995
  892MOL0     H17688   4.151   9.414   0.828  0.6239  0.1862  0.4209
  892MOL0     H17689   4.053   9.276   1.001  0.6146  0.3909  0.6716
  892MOL0     H17690   3.978   9.171   0.889 -3.8575  1.5496  0.0127
  892MOL0     H17691   3.852   9.363   0.768 -1.9703  0.7114  0.1811
  892MOL0     H17692   3.939   9.480   0.859 -3.5188  0.6542 -0.2435
  892MOL0     H17693   3.832   9.404   1.067 -1.8896 -1.5096  0.8373
  892MOL0     H17694   3.729   9.468   0.952 -0.3767 -0.4058  2.0017
  892MOL0     H17695   3.771   9.175   1.022  1.0233  0.1477 -0.4067
  892MOL0     H17696   3.675   9.203   0.882 -0.2099 -1.2867  0.4617
  892MOL0     H17697   3.456   9.344   0.925  1.2478 -1.5595 -1.2967
  892MOL0     H17698   3.235   9.397   1.041  1.5721  1.4687  0.2118
  892MOL0     H17699   3.262   9.483   1.187 -0.5383  0.3885 -1.7064
  892MOL0     H17700   3.189   9.283   1.324 -0.3019  0.0217 -0.6212
  892MOL0     H17701   3.196   9.183   1.182 -2.6294 -1.5972  1.6251
  892MOL0     H17702   3.017   9.432   1.253 -0.7322 -0.4314  0.6340
  892MOL0     H17703   3.021   9.376   1.090 -2.4934 -0.5905  0.4709
  892MOL0     H17704   2.944   9.211   1.340 -1.4631  0.7956  0.4064
  892MOL0     H17705   2.933   9.149   1.173  1.5067 -0.0130  0.2181
  892MOL0     H17706   2.574   9.388   1.234  0.7335 -0.6559  0.0647
  892MOL0     H17707   2.362   9.282   1.284  0.9175  1.9991  1.5448
  892MOL0     H17708   2.102   8.816   1.361 -0.6692 -0.6735 -0.6561
  892MOL0     H17709   1.847   8.794   1.359 -1.1097  0.0608  0.0226
  892MOL0     H17710   1.591   9.137   1.296  1.1334 -1.3682  0.5319
  892MOL0     H17711   1.560   9.063   1.449 -2.1734  0.8159 -0.7139
  892MOL0     H17712   1.419   8.878   1.356  4.9845 -1.9617 -0.9658
  892MOL0     H17713   1.450   8.946   1.197 -1.8689  0.4307 -0.0516
  892MOL0     H17714   1.324   9.154   1.266  0.9108  1.2218  2.0137
  892MOL0     H17715   1.292   9.072   1.423 -1.5727  0.7769 -1.0421
  892MOL0     H17716   1.185   8.989   1.136 -1.7299  0.5302 -0.4265
  892MOL0     H17717   1.198   8.887   1.272  0.7847  0.1757 -1.7574
  892MOL0     H17718   1.031   9.137   1.219 -1.7658  1.1498 -0.8869
  892MOL0     H17719   1.055   9.086   1.393  0.5449 -2.7364  1.2668
  892MOL0     H17720   0.829   9.007   1.309 -2.6003 -2.7874 -2.7121
  892MOL0     H17721   0.939   8.867   1.328 -0.5166 -1.3796 -1.8077
  892MOL0     H17722   0.915   9.033   1.076 -1.2132  2.1338  1.1196
  892MOL0     H17723   0.975   8.867   1.106  0.1774  0.4333  2.8183
  892MOL0     H17724   0.730   8.901   0.998  3.0520 -2.9176 -1.3087
  892MOL0     H17725   0.672   8.976   1.142 -2.1957 -3.1352  0.5944
  892MOL0     H17726   1.783   9.197   1.307 -0.4473  1.0013  3.1830
  892MOL0     H17727   2.025   9.248   1.295 -1.4734  1.2153 -1.4419
  892MOL0     H17728   2.578   8.910   1.327 -0.7024 -0.1020  0.7481
  892MOL0     H17729   2.780   9.021   1.260  1.5635  1.5128  0.6587
  892MOL0     H17730   4.479   9.521   0.227 -3.2232 -1.6970  1.3239
  892MOL0     H17731   4.703   9.496   0.201  1.0946 -1.1865 -0.2466
  892MOL0     H17732   5.160   9.552   0.309 -3.4973 -0.6505 -5.1985
  892MOL0     H17733   5.414   9.487   0.311  1.3745 -1.8392  1.9461
  892MOL0     H17734   5.518   9.043   0.312  1.9520  0.7566 -0.6388
  892MOL0     H17735   5.473   9.121   0.462 -0.4918 -0.8528 -0.4442
  892MOL0     H17736   5.675   9.239   0.492 -0.5556 -1.2055  1.2592
  892MOL0     H17737   5.700   9.062   0.482 -1.0420  1.8638  1.5074
  892MOL0     H17738   5.781   9.257   0.263 -0.4359 -0.4246  1.3232
  892MOL0     H17739   5.787   9.079   0.249  0.6773 -1.9362  1.3383
  892MOL0     H17740   5.934   9.238   0.453  1.7517  1.6292 -2.3767
  892MOL0     H17741   5.936   9.059   0.451  0.6435  0.8170  0.4790
  892MOL0     H17742   6.215   9.181   0.173 -0.2231 -0.5808  0.4211
  892MOL0     H17743   5.272   9.065   0.307  0.6770  0.4712  0.1021
  892MOL0     H17744   5.051   9.145   0.280 -0.6636  0.0824 -2.4786
  893MOL0     O17745   1.242   7.232   9.266  0.4856 -0.3068  0.1920
  893MOL0     C17746   1.157   7.254   9.352  0.3731  0.9653 -0.2262
  893MOL0     O17747   1.166   7.229   9.484  0.4266 -0.3796  0.0228
  893MOL0     C17748   1.282   7.168   9.540  0.4660 -0.8556 -0.2755
  893MOL0     C17749   1.410   7.229   9.522  0.0236  0.5108  0.1546
  893MOL0     C17750   1.522   7.167   9.580  0.1530 -0.0921 -0.4489
  893MOL0     C17751   1.512   7.055   9.669  0.0292 -0.3060 -0.7984
  893MOL0     O17752   1.618   6.993   9.731 -0.5429 -0.5648 -0.4719
  893MOL0     C17753   1.717   7.092   9.772 -0.2442 -0.1978 -0.1740
  893MOL0     C17754   1.844   7.022   9.841  0.2045  0.7626  0.0623
  893MOL0     C17755   1.940   7.129   9.899 -0.6005  0.5902 -0.1359
  893MOL0     C17756   2.052   7.065   9.990  0.8861 -0.0693  0.2769
  893MOL0     C17757   2.138   6.944   9.932 -0.8913 -0.8521  0.7396
  893MOL0     C17758   2.240   6.995   9.822 -0.3949  0.0546  0.1807
  893MOL0     C17759   2.318   6.873   9.766 -0.4685  0.6889 -0.3286
  893MOL0     C17760   2.412   6.931   9.659  1.0780 -0.3978 -0.2875
  893MOL0     N17761   2.529   6.856   9.634 -0.4142  0.0629  0.7963
  893MOL0     C17762   2.637   6.827   9.717 -0.1869  0.1813 -0.1495
  893MOL0     C17763   2.730   6.774   9.633 -1.0423 -0.0932 -0.0016
  893MOL0     C17764   2.874   6.757   9.677  0.0557 -0.4498 -0.0560
  893MOL0     C17765   2.936   6.626   9.647 -0.0868 -0.4697  1.2571
  893MOL0     C17766   2.997   6.606   9.507  0.3128  0.4612  0.1705
  893MOL0     C17767   3.109   6.706   9.469 -0.9610 -0.7144  0.0367
  893MOL0     O17768   3.216   6.693   9.566 -0.0780  0.2928  0.0550
  893MOL0     C17769   3.327   6.768   9.561 -0.5879 -0.9160  0.0852
  893MOL0     C17770   3.356   6.862   9.453  0.3029 -0.1659 -0.4722
  893MOL0     C17771   3.463   6.946   9.459 -0.1324 -0.5116  0.6505
  893MOL0     C17772   3.550   6.943   9.570  0.9488  0.6093 -0.8739
  893MOL0     C17773   3.665   7.029   9.577 -0.5253 -0.7353  1.0230
  893MOL0     O17774   3.683   7.128   9.483  0.7917 -0.3625 -0.6919
  893MOL0     C17775   3.795   7.197   9.476  0.1989 -0.3305  0.3224
  893MOL0     C17776   3.893   7.152   9.378  0.4244 -0.0705 -0.2898
  893MOL0     C17777   4.014   7.209   9.370 -0.0391  0.1245  0.0295
  893MOL0     C17778   4.054   7.307   9.462  0.4823 -0.9855  0.5133
  893MOL0     O17779   4.176   7.369   9.443 -0.2675  0.9759  1.0913
  893MOL0     C17780   4.294   7.297   9.407 -0.0119  0.1638 -0.2439
  893MOL0     C17781   4.419   7.385   9.427  0.4924 -0.8699 -0.0686
  893MOL0     C17782   4.553   7.315   9.424  0.0242 -0.4919  0.3044
  893MOL0     C17783   4.661   7.412   9.485  0.3120 -0.9556  0.1878
  893MOL0     C17784   4.797   7.360   9.451 -0.1048  0.2737 -0.3571
  893MOL0     C17785   4.900   7.463   9.497  0.5216  0.0883  0.4340
  893MOL0     C17786   5.043   7.425   9.458 -0.2426 -0.0950  0.0863
  893MOL0     C17787   5.143   7.538   9.505 -0.8148 -1.3625  0.5007
  893MOL0    Cl17788   5.132   7.691   9.420  0.0596 -0.2075 -0.0829
  893MOL0     C17789   3.959   7.361   9.555 -0.1008 -0.0906 -0.3469
  893MOL0     C17790   3.833   7.298   9.568  0.2892  0.6406 -0.0851
  893MOL0     O17791   3.755   6.996   9.654  0.1491  0.9440  0.3191
  893MOL0     C17792   3.529   6.843   9.673 -0.0236 -0.2454  0.7022
  893MOL0     C17793   3.417   6.761   9.665  0.1506 -0.1959  0.8230
  893MOL0     N17794   2.681   6.770   9.507  0.5886  0.0796  0.3179
  893MOL0     N17795   2.554   6.819   9.509 -0.0280 -0.3874  0.1870
  893MOL0     C17796   1.383   6.996   9.682  0.2663 -0.4684 -0.1878
  893MOL0     C17797   1.265   7.054   9.631  0.3812 -0.2282 -0.3884
  893MOL0     C17798   1.024   7.297   9.300  0.0797 -0.1776 -0.7551
  893MOL0     C17799   0.928   7.331   9.397  0.1139  0.0727 -0.4116
  893MOL0     C17800   0.797   7.362   9.354 -1.1654 -0.4035 -0.1159
  893MOL0     C17801   0.764   7.359   9.222 -0.0052  0.0005  0.2114
  893MOL0     O17802   0.631   7.397   9.199 -1.0600  0.1106 -0.2272
  893MOL0     C17803   0.571   7.353   9.075 -0.2295 -0.6691 -0.0499
  893MOL0     C17804   0.565   7.201   9.058 -0.2338  0.7372  0.5222
  893MOL0     C17805   0.472   7.116   9.146 -0.0126 -0.1020 -0.0614
  893MOL0     C17806   0.330   7.144   9.117  0.0596 -0.2114 -0.9273
  893MOL0     C17807   0.235   7.065   9.198  0.7488 -0.7726  0.2917
  893MOL0     C17808   0.168   7.003   9.277  0.6591 -0.7619  0.1624
  893MOL0     C17809   0.860   7.332   9.129 -0.4578 -0.5877 -0.0042
  893MOL0     C17810   0.989   7.299   9.166  0.3528 -0.2610  0.1183
  893MOL0     H17811   1.417   7.325   9.472  0.2788  0.1794 -0.4525
  893MOL0     H17812   1.616   7.220   9.570  0.5792 -1.1706 -2.8402
  893MOL0     H17813   1.663   7.157   9.840 -0.6711  0.2651 -0.9372
  893MOL0     H17814   1.754   7.148   9.685  2.5681 -0.7858  0.5643
  893MOL0     H17815   1.888   6.951   9.770  1.9237  0.9420  0.8935
  893MOL0     H17816   1.807   6.968   9.929  1.0940  0.7813  0.4620
  893MOL0     H17817   1.896   7.204   9.965 -0.2587 -0.3676  1.2134
  893MOL0     H17818   1.987   7.166   9.807  0.8073 -1.5613 -0.3415
  893MOL0     H17819   2.120   7.147  10.014 -1.0156  1.4963  0.5890
  893MOL0     H17820   2.000   7.023  10.076 -2.1534 -1.2294 -1.9462
  893MOL0     H17821   2.077   6.867   9.884  1.0078 -0.7709 -2.0457
  893MOL0     H17822   2.185   6.903  10.022 -0.2317 -1.5872  0.0789
  893MOL0     H17823   2.306   7.066   9.872 -1.0078  0.5838  0.2627
  893MOL0     H17824   2.183   7.048   9.745  1.2704  1.5351 -0.0829
  893MOL0     H17825   2.375   6.829   9.848 -1.7733 -0.7017 -0.1247
  893MOL0     H17826   2.251   6.802   9.717 -0.1833  0.7237 -0.7765
  893MOL0     H17827   2.448   7.032   9.682  1.4739  0.3007 -3.5501
  893MOL0     H17828   2.346   6.935   9.572 -2.5519  0.8869  2.2303
  893MOL0     H17829   2.636   6.850   9.823 -2.1852 -0.4240  0.0001
  893MOL0     H17830   2.861   6.758   9.786 -2.5626  1.7948 -0.2684
  893MOL0     H17831   2.929   6.846   9.647 -0.2294 -0.5412 -0.8882
  893MOL0     H17832   2.861   6.547   9.661  1.7730 -1.9902  3.3735
  893MOL0     H17833   3.009   6.598   9.724 -0.4228  2.4957  2.7729
  893MOL0     H17834   3.040   6.505   9.507 -0.3454  0.1772  0.1034
  893MOL0     H17835   2.931   6.603   9.420  0.6593  2.7381 -0.2475
  893MOL0     H17836   3.075   6.810   9.462  1.4967  0.1522 -0.1934
  893MOL0     H17837   3.153   6.682   9.371  5.1759 -0.2489  2.1953
  893MOL0     H17838   3.296   6.864   9.363  0.6734 -0.4431 -0.7277
  893MOL0     H17839   3.473   7.021   9.382 -1.7802 -0.9408 -0.0193
  893MOL0     H17840   3.874   7.079   9.299  2.4818 -1.1559  0.1365
  893MOL0     H17841   4.081   7.164   9.296 -0.1633 -1.4059  0.8101
  893MOL0     H17842   4.288   7.265   9.302  0.7277 -0.8058 -0.0083
  893MOL0     H17843   4.294   7.207   9.469  0.8179 -1.2419 -2.1598
  893MOL0     H17844   4.402   7.435   9.523 -1.4772 -3.0497  0.8261
  893MOL0     H17845   4.423   7.459   9.347 -3.6420 -0.3366 -0.0227
  893MOL0     H17846   4.590   7.282   9.327 -0.4156 -2.4597  0.7589
  893MOL0     H17847   4.546   7.232   9.496 -1.8322 -0.6757 -0.0421
  893MOL0     H17848   4.643   7.504   9.428 -0.2460 -0.6506  0.8318
  893MOL0     H17849   4.650   7.431   9.593  0.7016 -4.0934  0.8723
  893MOL0     H17850   4.807   7.341   9.343 -1.2863 -1.8650 -0.1539
  893MOL0     H17851   4.816   7.262   9.496  0.2668  0.6661  0.3469
  893MOL0     H17852   4.886   7.465   9.605 -3.2281 -1.3470  0.1260
  893MOL0     H17853   4.869   7.562   9.463  0.3208  0.1323  0.7486
  893MOL0     H17854   5.058   7.334   9.517  1.6065 -0.1486 -0.3945
  893MOL0     H17855   5.043   7.394   9.354 -2.0279 -0.4554  0.1712
  893MOL0     H17856   5.248   7.508   9.498 -0.7301 -0.8323 -0.7366
  893MOL0     H17857   5.127   7.570   9.608 -0.7991  0.2310  0.0304
  893MOL0     H17858   3.988   7.456   9.597 -2.6737  1.5023 -1.9394
  893MOL0     H17859   3.767   7.346   9.638  2.6916  2.2041  1.2267
  893MOL0     H17860   3.601   6.831   9.753 -0.3254  0.1811  1.0472
  893MOL0     H17861   3.385   6.691   9.741 -0.3253 -0.6944  0.1773
  893MOL0     H17862   1.364   6.903   9.733  2.7495 -1.3352 -0.7364
  893MOL0     H17863   1.171   7.003   9.647  1.4672 -1.9801  0.6580
  893MOL0     H17864   0.942   7.325   9.504  0.0830 -0.0500 -0.4148
  893MOL0     H17865   0.722   7.381   9.430 -0.9713  2.9230 -0.6150
  893MOL0     H17866   0.629   7.399   8.995 -2.5026  0.4969 -1.1004
  893MOL0     H17867   0.465   7.373   9.060  0.0869 -1.3416 -4.4467
  893MOL0     H17868   0.544   7.176   8.954 -0.0642 -1.3755  0.9476
  893MOL0     H17869   0.667   7.163   9.064 -0.1335  0.4742 -1.8835
  893MOL0     H17870   0.491   7.136   9.252 -1.9390  2.7909 -0.1554
  893MOL0     H17871   0.488   7.013   9.113  3.3868  0.0807  0.6547
  893MOL0     H17872   0.306   7.248   9.138 -0.8397 -0.3518 -1.1926
  893MOL0     H17873   0.309   7.139   9.010 -1.0965  0.9858 -0.7773
  893MOL0     H17874   0.100   6.956   9.345 -0.5703  0.4158 -0.2148
  893MOL0     H17875   0.834   7.340   9.024 -1.8625 -1.9893  0.2053
  893MOL0     H17876   1.054   7.266   9.086 -1.4664 -2.5213 -0.5480
  894MOL0     O17877   8.349   9.493   4.137 -0.2926  0.2103  0.2536
  894MOL0     C17878   8.422   9.487   4.043 -0.4275  0.6806 -0.7634
  894MOL0     O17879   8.393   9.425   3.921  0.2365 -0.4957 -0.1613
  894MOL0     C17880   8.257   9.407   3.883  0.3880  0.3432 -0.3147
  894MOL0     C17881   8.148   9.483   3.910 -0.0882  0.1484 -0.9841
  894MOL0     C17882   8.025   9.448   3.860 -0.4384 -0.0701 -1.1418
  894MOL0     C17883   8.009   9.341   3.775  0.0509 -0.0218 -0.0775
  894MOL0     O17884   7.879   9.321   3.734  0.5776  0.7848 -0.2092
  894MOL0     C17885   7.852   9.192   3.671 -0.0021 -0.6421 -0.5436
  894MOL0     C17886   7.845   9.224   3.519 -0.3093 -0.0504 -0.5160
  894MOL0     C17887   7.725   9.309   3.473  0.4220 -0.1189  0.1698
  894MOL0     C17888   7.597   9.219   3.467  0.7612 -0.3342 -0.0477
  894MOL0     C17889   7.504   9.261   3.585  0.5481  0.5383  0.0159
  894MOL0     C17890   7.395   9.156   3.594  0.5660  0.1870  0.1199
  894MOL0     C17891   7.305   9.173   3.720 -0.5110 -0.1185  0.4445
  894MOL0     C17892   7.188   9.080   3.722  0.6678  0.5163  0.4912
  894MOL0     N17893   7.095   9.103   3.826 -0.2117 -0.9410 -0.4257
  894MOL0     C17894   7.019   9.004   3.893  0.2497  0.2068  0.7458
  894MOL0     C17895   6.946   9.069   3.977  1.2556 -0.5811  0.3553
  894MOL0     C17896   6.845   9.001   4.068 -0.5937  0.8419 -0.0771
  894MOL0     C17897   6.705   9.027   4.018  1.4753  0.1630  0.3709
  894MOL0     C17898   6.586   8.953   4.084 -0.1727  0.1180  0.4969
  894MOL0     C17899   6.455   8.956   4.024  0.6516  0.1211 -0.0476
  894MOL0     O17900   6.386   8.839   4.065  0.2235 -0.1353 -0.6035
  894MOL0     C17901   6.249   8.834   4.080  0.1182 -0.5016  0.5469
  894MOL0     C17902   6.202   8.716   4.144  0.4678 -0.3250  0.5579
  894MOL0     C17903   6.068   8.683   4.160 -0.9309  0.7686 -0.5918
  894MOL0     C17904   5.965   8.768   4.120 -0.6222  0.0559  0.1430
  894MOL0     C17905   5.819   8.730   4.135 -0.7400  0.3107 -0.4891
  894MOL0     O17906   5.786   8.594   4.150 -0.1279  0.1369 -1.2622
  894MOL0     C17907   5.655   8.553   4.159 -0.6850  0.5332  0.0631
  894MOL0     C17908   5.623   8.433   4.231 -0.0657  0.2097  0.4793
  894MOL0     C17909   5.506   8.360   4.215 -0.0684 -0.0541 -0.8185
  894MOL0     C17910   5.406   8.412   4.130 -0.8378  0.0428  0.4873
  894MOL0     O17911   5.289   8.346   4.134  0.5065 -0.1642 -0.0056
  894MOL0     C17912   5.182   8.390   4.044 -0.3723 -0.7374  0.6280
  894MOL0     C17913   5.104   8.512   4.108  0.6617  0.4906  0.4720
  894MOL0     C17914   5.001   8.589   4.017  0.2865  0.5051 -0.7996
  894MOL0     C17915   5.066   8.648   3.897  0.4286 -0.4716 -1.2775
  894MOL0     C17916   4.949   8.677   3.794  0.0600  0.0280  0.2583
  894MOL0     C17917   5.000   8.778   3.689 -0.1401  0.0967 -0.1871
  894MOL0     C17918   4.902   8.792   3.563 -0.1285 -0.3873 -0.4572
  894MOL0     C17919   4.771   8.866   3.595 -0.0784 -0.9914 -0.0491
  894MOL0    Cl17920   4.805   9.050   3.605 -0.2502 -0.1225  0.1017
  894MOL0     C17921   5.441   8.527   4.056 -0.3823 -0.6695 -0.7910
  894MOL0     C17922   5.560   8.595   4.075 -0.4173 -1.9212 -0.5356
  894MOL0     O17923   5.745   8.825   4.126 -0.1434 -0.3856  0.5171
  894MOL0     C17924   6.012   8.890   4.055  0.4801  0.5209 -0.1312
  894MOL0     C17925   6.150   8.920   4.032  0.4985  0.2776  0.1039
  894MOL0     N17926   6.983   9.202   3.981 -0.9413  0.6456 -0.1770
  894MOL0     N17927   7.078   9.221   3.893 -0.0354  0.0422 -0.3840
  894MOL0     C17928   8.125   9.276   3.732 -0.0021 -0.6898  0.1872
  894MOL0     C17929   8.250   9.306   3.790 -0.3293 -1.0652 -0.3524
  894MOL0     C17930   8.568   9.537   4.060 -0.3481 -0.2252  0.2391
  894MOL0     C17931   8.662   9.494   3.967 -0.3108 -0.2633  0.5038
  894MOL0     C17932   8.798   9.529   3.992 -0.2095 -0.4620  0.1154
  894MOL0     C17933   8.841   9.611   4.101  0.2673  0.1425  0.2702
  894MOL0     O17934   8.975   9.633   4.112  0.6645  0.4668 -0.2652
  894MOL0     C17935   9.020   9.715   4.221  0.0911 -0.7735  0.3604
  894MOL0     C17936   9.175   9.732   4.213  0.4901 -0.0290  0.6330
  894MOL0     C17937   9.242   9.594   4.178 -0.0654 -0.3196  0.3047
  894MOL0     C17938   9.390   9.605   4.170  0.5038  1.2650 -0.3753
  894MOL0     C17939   9.442   9.473   4.130 -0.0190 -0.1447  0.5212
  894MOL0     C17940   9.481   9.374   4.069 -0.5328  0.1284 -0.1435
  894MOL0     C17941   8.742   9.657   4.185  0.9305  0.0318 -0.3860
  894MOL0     C17942   8.607   9.624   4.157 -0.0319  0.6374 -0.7337
  894MOL0     H17943   8.169   9.552   3.991 -0.5320 -0.5885 -0.2251
  894MOL0     H17944   7.940   9.513   3.876 -0.5394  0.3340 -3.0773
  894MOL0     H17945   7.750   9.166   3.699 -0.6005 -0.9184 -2.8061
  894MOL0     H17946   7.918   9.109   3.698  1.9652  0.1168 -2.6664
  894MOL0     H17947   7.841   9.135   3.456  0.2263  1.7891 -3.3008
  894MOL0     H17948   7.933   9.277   3.482 -0.1822 -2.1739 -3.5845
  894MOL0     H17949   7.748   9.339   3.370  1.1156  1.0366  0.6538
  894MOL0     H17950   7.717   9.393   3.542  1.3649  0.5089 -0.4641
  894MOL0     H17951   7.547   9.246   3.374  0.7345  2.8408  0.7627
  894MOL0     H17952   7.619   9.112   3.470 -0.5236 -0.6092  0.5156
  894MOL0     H17953   7.464   9.362   3.580 -1.5015 -0.1243  1.5776
  894MOL0     H17954   7.560   9.265   3.679  0.3402 -0.5576  0.2077
  894MOL0     H17955   7.451   9.063   3.607 -0.4768 -0.7280 -1.6017
  894MOL0     H17956   7.334   9.147   3.504  0.1383 -2.1490  0.5779
  894MOL0     H17957   7.367   9.155   3.808  1.4297 -1.9404 -1.1856
  894MOL0     H17958   7.260   9.272   3.717 -1.3248 -0.4923 -0.2612
  894MOL0     H17959   7.214   8.974   3.733 -4.6856 -1.2713 -0.8429
  894MOL0     H17960   7.135   9.090   3.627  0.3261  1.7604  0.7988
  894MOL0     H17961   7.020   8.896   3.891  1.5986  0.2002 -1.5651
  894MOL0     H17962   6.866   9.017   4.175  5.3207 -3.1811 -0.1484
  894MOL0     H17963   6.861   8.894   4.057  0.2119  1.0129 -0.6593
  894MOL0     H17964   6.714   9.007   3.911 -0.1415 -2.8521  0.6908
  894MOL0     H17965   6.674   9.131   4.029 -3.3835 -1.1863  2.0393
  894MOL0     H17966   6.627   8.851   4.090  2.6778  1.2481  3.9116
  894MOL0     H17967   6.567   8.985   4.187  0.5624  0.1613  0.6245
  894MOL0     H17968   6.468   8.965   3.916  1.4849  0.8925  0.1119
  894MOL0     H17969   6.397   9.043   4.056  0.8607  0.0019  0.6748
  894MOL0     H17970   6.278   8.642   4.165  1.8058  0.1361 -2.1265
  894MOL0     H17971   6.049   8.588   4.209  2.5912 -0.4769 -1.3409
  894MOL0     H17972   5.707   8.392   4.286  1.1858  1.7602 -0.2256
  894MOL0     H17973   5.480   8.277   4.280  1.5625 -0.4976 -0.6912
  894MOL0     H17974   5.101   8.317   4.044 -0.6041 -0.4888  0.1190
  894MOL0     H17975   5.216   8.414   3.943  0.2047  1.1801  1.2454
  894MOL0     H17976   5.181   8.578   4.149  2.1508 -1.1407  0.4529
  894MOL0     H17977   5.043   8.472   4.190  0.1454 -0.5417 -0.3877
  894MOL0     H17978   4.966   8.659   4.094 -0.6150 -0.9300  0.1440
  894MOL0     H17979   4.918   8.521   3.999  1.1891 -0.4159 -1.5873
  894MOL0     H17980   5.109   8.744   3.928  1.3901 -0.8734 -1.3538
  894MOL0     H17981   5.145   8.587   3.852 -0.0826 -1.6042 -0.6857
  894MOL0     H17982   4.856   8.707   3.844 -0.6776 -2.5383  0.5727
  894MOL0     H17983   4.926   8.590   3.732  0.7037  1.3496 -1.9495
  894MOL0     H17984   5.101   8.749   3.659  0.8202 -0.3813  3.1520
  894MOL0     H17985   5.013   8.876   3.735 -2.0379  1.5633 -2.5250
  894MOL0     H17986   4.941   8.845   3.476 -1.8556 -3.1820 -3.1240
  894MOL0     H17987   4.878   8.694   3.521 -1.0846  0.3804 -1.8030
  894MOL0     H17988   4.735   8.834   3.693  0.0419  0.0865  0.3531
  894MOL0     H17989   4.694   8.853   3.518 -0.9332 -1.2550  0.8340
  894MOL0     H17990   5.365   8.568   3.989 -0.1276  0.0005 -0.6729
  894MOL0     H17991   5.590   8.681   4.016  0.2018 -0.6135  1.5613
  894MOL0     H17992   5.932   8.959   4.030  0.3588  0.5361  0.2948
  894MOL0     H17993   6.178   9.009   3.976  2.0007  0.5234  1.1766
  894MOL0     H17994   8.126   9.194   3.660  0.6239 -0.6229  0.1132
  894MOL0     H17995   8.343   9.259   3.759 -1.0841 -3.6761  1.0348
  894MOL0     H17996   8.653   9.427   3.882  1.6078  0.7278 -0.5394
  894MOL0     H17997   8.864   9.495   3.912 -1.4687  1.1399 -1.7087
  894MOL0     H17998   8.996   9.677   4.320  0.8723 -0.6063  0.6178
  894MOL0     H17999   8.978   9.816   4.211  0.0533 -0.6607  1.5457
  894MOL0     H18000   9.203   9.814   4.147 -0.9594  0.3577  0.4703
  894MOL0     H18001   9.212   9.766   4.310  0.6352  0.2334  0.4867
  894MOL0     H18002   9.205   9.564   4.080 -1.4219 -1.4802  1.1317
  894MOL0     H18003   9.217   9.526   4.260  0.6041 -1.3342 -0.3070
  894MOL0     H18004   9.409   9.677   4.090 -1.7762  1.0781 -1.1543
  894MOL0     H18005   9.432   9.644   4.263 -0.1219  0.7932  0.1141
  894MOL0     H18006   9.519   9.282   4.030 -1.2914 -0.8346  1.3163
  894MOL0     H18007   8.749   9.716   4.276 -1.4462  0.6766 -0.5354
  894MOL0     H18008   8.531   9.649   4.230  0.0683 -1.7296  0.2706
  895MOL0     O18009   0.455   7.834  10.007 -0.1988 -0.8678  0.1228
  895MOL0     C18010   0.498   7.936   9.949  0.4562  0.2112  0.1704
  895MOL0     O18011   0.429   8.042   9.908 -0.4979  0.0110  0.2850
  895MOL0     C18012   0.292   8.040   9.898  0.9783  0.9381  0.2921
  895MOL0     C18013   0.232   8.089   9.781 -0.2253 -1.0413 -0.9164
  895MOL0     C18014   0.094   8.095   9.776 -0.3623  0.2705  0.0230
  895MOL0     C18015   0.009   8.045   9.874 -0.0407 -0.5825 -0.9809
  895MOL0     O18016  -0.124   8.081   9.861  0.3956  0.6261  0.4201
  895MOL0     C18017  -0.232   8.007   9.926 -0.4543 -0.6848  0.1477
  895MOL0     C18018  -0.364   8.032   9.850 -0.8324 -0.7996 -0.8427
  895MOL0     C18019  -0.475   7.953   9.919  0.7484  0.6210  0.0096
  895MOL0     C18020  -0.622   8.007   9.872  0.3967 -0.0393 -0.9206
  895MOL0     C18021  -0.740   7.934   9.945  0.1896  0.6477 -0.7292
  895MOL0     C18022  -0.752   7.784   9.905 -0.6050 -0.4075 -0.0516
  895MOL0     C18023  -0.873   7.697   9.950 -0.1040 -0.0274 -0.1920
  895MOL0     C18024  -0.884   7.555   9.892  0.4434  0.3894  0.3146
  895MOL0     N18025  -1.019   7.504   9.914  0.4290  0.4537 -0.2630
  895MOL0     C18026  -1.114   7.527   9.820 -0.4520 -0.1732  0.6513
  895MOL0     C18027  -1.226   7.516   9.895  0.1359 -0.6783  0.5401
  895MOL0     C18028  -1.368   7.544   9.847  0.6574 -0.8460 -0.3064
  895MOL0     C18029  -1.447   7.412   9.821  0.3652 -0.5085  0.1855
  895MOL0     C18030  -1.588   7.456   9.761 -0.2075  0.4692 -0.3093
  895MOL0     C18031  -1.673   7.331   9.750 -0.7821  0.0762  0.5332
  895MOL0     O18032  -1.756   7.332   9.635 -0.3961 -0.0724  0.0629
  895MOL0     C18033  -1.877   7.274   9.642  0.4515  0.8022 -0.8446
  895MOL0     C18034  -1.977   7.324   9.560 -0.3350 -0.3403  0.3388
  895MOL0     C18035  -2.113   7.288   9.568 -0.2098  0.3060 -0.2905
  895MOL0     C18036  -2.150   7.190   9.660 -0.4037  0.2515 -0.7310
  895MOL0     C18037  -2.287   7.136   9.660  0.1304  0.3095  0.6442
  895MOL0     O18038  -2.384   7.229   9.627 -0.4870  0.4390  0.4607
  895MOL0     C18039  -2.516   7.202   9.604  0.0228 -0.4662 -0.9283
  895MOL0     C18040  -2.588   7.080   9.629  0.6286 -0.6710  0.7498
  895MOL0     C18041  -2.724   7.074   9.608 -0.1390 -0.6315  0.5574
  895MOL0     C18042  -2.802   7.190   9.579  0.5967  0.5350 -0.0925
  895MOL0     O18043  -2.940   7.203   9.563 -0.0120  0.0628 -0.2171
  895MOL0     C18044  -3.020   7.085   9.554  0.4821 -0.1526  0.7144
  895MOL0     C18045  -3.170   7.121   9.523 -0.5417  0.8065  0.6958
  895MOL0     C18046  -3.233   7.171   9.652  0.2761  0.8113  0.7399
  895MOL0     C18047  -3.367   7.247   9.640 -0.2076  0.2827 -0.4068
  895MOL0     C18048  -3.497   7.170   9.615  0.6555 -0.7257  0.4219
  895MOL0     C18049  -3.617   7.279   9.596 -0.2374  0.6398 -0.3519
  895MOL0     C18050  -3.742   7.224   9.513  0.4064  0.9649 -0.0206
  895MOL0     C18051  -3.848   7.324   9.524  0.3206 -0.2013 -0.6581
  895MOL0    Cl18052  -3.791   7.489   9.464  0.4108 -0.1791 -0.1908
  895MOL0     C18053  -2.727   7.310   9.557 -0.2823 -0.0363  0.7070
  895MOL0     C18054  -2.587   7.321   9.574  0.0255 -0.3723  0.0302
  895MOL0     O18055  -2.309   7.014   9.680 -0.0415  0.6834 -0.8201
  895MOL0     C18056  -2.047   7.129   9.730 -0.2557 -0.2904 -1.1271
  895MOL0     C18057  -1.909   7.164   9.728 -0.2240 -0.0932  0.2847
  895MOL0     N18058  -1.199   7.501  10.029 -1.1982 -0.0026 -0.2094
  895MOL0     N18059  -1.069   7.493  10.036  0.6174  0.4396  0.2156
  895MOL0     C18060   0.070   8.001   9.992 -0.7926 -0.4002 -0.3919
  895MOL0     C18061   0.206   7.997  10.005  0.0027  0.4974  0.1961
  895MOL0     C18062   0.644   7.935   9.949 -0.0109  0.7048  0.1899
  895MOL0     C18063   0.709   8.054   9.912  0.3984  0.2783 -0.0158
  895MOL0     C18064   0.848   8.061   9.907 -0.0364  0.0057 -0.5081
  895MOL0     C18065   0.934   7.957   9.939  0.0634  0.2819  0.0963
  895MOL0     O18066   1.070   7.981   9.942  0.2444  0.4814 -1.0188
  895MOL0     C18067   1.151   7.862   9.938  0.3101  0.4001 -0.0641
  895MOL0     C18068   1.286   7.925   9.909 -0.4176  1.0314 -0.2882
  895MOL0     C18069   1.335   8.009  10.033  0.3857 -1.0943  0.1627
  895MOL0     C18070   1.468   8.076   9.996  0.1497 -0.0828 -0.0569
  895MOL0     C18071   1.571   7.978   9.977  0.6386  0.2419 -0.1118
  895MOL0     C18072   1.653   7.887   9.975  0.1242  0.2491  1.5975
  895MOL0     C18073   0.870   7.837   9.975  0.6168 -0.0217 -0.3038
  895MOL0     C18074   0.731   7.831   9.983  0.3996  0.3029 -0.1273
  895MOL0     H18075   0.298   8.141   9.713 -3.6939 -0.1349 -3.9178
  895MOL0     H18076   0.046   8.137   9.688 -3.6338 -0.5113  1.3071
  895MOL0     H18077  -0.241   8.040  10.030 -1.5435  1.0582 -0.4650
  895MOL0     H18078  -0.204   7.901   9.932  1.6328 -0.1995 -0.2695
  895MOL0     H18079  -0.363   8.012   9.743 -2.7035 -1.2429 -0.8218
  895MOL0     H18080  -0.393   8.136   9.866 -1.1806 -0.8725 -0.9854
  895MOL0     H18081  -0.472   7.966  10.028  1.4966  2.8606 -0.2380
  895MOL0     H18082  -0.465   7.850   9.883 -2.6478  0.5422 -1.0740
  895MOL0     H18083  -0.621   8.114   9.893  1.9825 -0.3471  0.7846
  895MOL0     H18084  -0.638   7.987   9.766 -2.0771 -0.7270 -0.4937
  895MOL0     H18085  -0.825   7.997   9.918 -0.2447  0.5108  0.2810
  895MOL0     H18086  -0.726   7.939  10.053 -1.4378  0.2272 -0.4785
  895MOL0     H18087  -0.663   7.724   9.923 -3.4295 -5.3749 -0.8825
  895MOL0     H18088  -0.765   7.785   9.796 -0.7809 -0.0110 -0.0272
  895MOL0     H18089  -0.866   7.675  10.057  1.3887 -2.2981 -0.6732
  895MOL0     H18090  -0.963   7.755   9.934 -0.1678  1.1307  3.3597
  895MOL0     H18091  -0.813   7.492   9.946 -0.4252 -0.3008  0.6696
  895MOL0     H18092  -0.861   7.547   9.786  0.7668 -3.8491  0.5506
  895MOL0     H18093  -1.103   7.555   9.715 -2.0217  0.5699  0.6648
  895MOL0     H18094  -1.360   7.608   9.758 -1.0557  1.8430  1.3500
  895MOL0     H18095  -1.417   7.597   9.929  2.1507 -2.6358  1.8603
  895MOL0     H18096  -1.462   7.352   9.911 -0.8150 -2.3126 -1.1550
  895MOL0     H18097  -1.383   7.356   9.753 -0.1299 -0.6103 -0.1988
  895MOL0     H18098  -1.644   7.527   9.821  0.8613  1.7495 -0.7647
  895MOL0     H18099  -1.575   7.487   9.657 -3.8350  0.2374 -0.9543
  895MOL0     H18100  -1.735   7.336   9.840 -3.9822  2.7118 -1.5899
  895MOL0     H18101  -1.617   7.238   9.756 -1.6398 -0.5153 -0.3897
  895MOL0     H18102  -1.949   7.399   9.486 -1.1923  0.5904  0.9445
  895MOL0     H18103  -2.192   7.324   9.503  0.4159 -0.2962 -1.4213
  895MOL0     H18104  -2.536   6.991   9.662  3.6324  1.3447  1.9000
  895MOL0     H18105  -2.779   6.983   9.631 -2.7561  0.2275 -1.6914
  895MOL0     H18106  -3.022   7.023   9.644 -2.9532 -1.7250 -0.2719
  895MOL0     H18107  -2.985   7.019   9.474  0.2725 -0.8711  1.2052
  895MOL0     H18108  -3.207   7.028   9.480  0.7621  0.2704  0.6638
  895MOL0     H18109  -3.166   7.203   9.451  0.3632 -1.4608 -2.0135
  895MOL0     H18110  -3.170   7.244   9.704 -0.7467  0.8411  1.9778
  895MOL0     H18111  -3.252   7.086   9.718  0.6962 -0.5597 -0.8556
  895MOL0     H18112  -3.378   7.302   9.734  0.6732 -1.8094  1.0097
  895MOL0     H18113  -3.353   7.313   9.554 -1.6374  0.7486 -0.3189
  895MOL0     H18114  -3.516   7.097   9.694  0.5223  2.3082  3.3889
  895MOL0     H18115  -3.486   7.122   9.517  1.4753 -0.0054  0.1407
  895MOL0     H18116  -3.572   7.365   9.546 -0.9496  1.8414  1.0150
  895MOL0     H18117  -3.647   7.314   9.696  4.3017  0.6303  1.2165
  895MOL0     H18118  -3.722   7.206   9.407 -1.3015  1.3758 -0.4394
  895MOL0     H18119  -3.774   7.131   9.560  0.1972  1.5512  1.0345
  895MOL0     H18120  -3.882   7.344   9.626  0.2202 -1.2434 -0.4751
  895MOL0     H18121  -3.930   7.294   9.458 -0.2332 -0.5214  0.1531
  895MOL0     H18122  -2.785   7.396   9.525  0.9417  0.6512  0.2343
  895MOL0     H18123  -2.546   7.419   9.552 -0.1129 -0.1218  0.8373
  895MOL0     H18124  -2.064   7.047   9.800  1.7030 -0.0953 -0.3609
  895MOL0     H18125  -1.832   7.111   9.782 -1.4559  0.2161  2.4748
  895MOL0     H18126   0.013   7.995  10.084  0.0582  3.2434  0.5374
  895MOL0     H18127   0.257   7.967  10.096  4.3564 -2.1861 -2.7947
  895MOL0     H18128   0.656   8.144   9.879  0.3034 -0.0678 -0.8349
  895MOL0     H18129   0.901   8.154   9.889  1.1581 -0.5765 -0.0849
  895MOL0     H18130   1.112   7.801   9.856 -1.1355  0.0775  0.8313
  895MOL0     H18131   1.151   7.813  10.036 -1.1984  1.5551  0.5531
  895MOL0     H18132   1.359   7.846   9.893  1.5479  2.6815  0.1250
  895MOL0     H18133   1.283   7.989   9.820 -0.7482 -1.1561 -1.9204
  895MOL0     H18134   1.341   7.946  10.122 -0.1372 -1.2591  0.0815
  895MOL0     H18135   1.270   8.094  10.055 -1.2352 -1.3429 -3.0394
  895MOL0     H18136   1.448   8.134   9.905  0.1471 -2.2066 -1.4759
  895MOL0     H18137   1.483   8.138  10.084 -0.6639 -2.6387  1.9929
  895MOL0     H18138   1.722   7.805   9.966 -1.7135 -1.2741  0.9006
  895MOL0     H18139   0.920   7.744   9.998  0.0580 -0.3949 -0.5575
  895MOL0     H18140   0.697   7.737  10.025  2.4409 -0.3917  0.0477
  896MOL0     O18141   6.006   4.258   8.665  0.1905 -0.0977  0.1948
  896MOL0     C18142   6.060   4.351   8.728  0.6490  0.1770 -0.8374
  896MOL0     O18143   5.994   4.427   8.831 -0.0909 -0.0284  0.4119
  896MOL0     C18144   5.869   4.410   8.873  0.4095 -0.7329  0.0910
  896MOL0     C18145   5.797   4.287   8.870  0.2048 -0.1939 -0.8528
  896MOL0     C18146   5.679   4.279   8.943  0.8047 -0.3157  0.2792
  896MOL0     C18147   5.630   4.382   9.018  0.2595 -0.4080 -0.0960
  896MOL0     O18148   5.511   4.351   9.088  0.2004 -0.0295 -0.1626
  896MOL0     C18149   5.453   4.447   9.177  0.0065 -0.8296 -0.4008
  896MOL0     C18150   5.360   4.548   9.123  0.2589  0.2730  0.6792
  896MOL0     C18151   5.266   4.608   9.235 -0.1773 -0.5072  0.2770
  896MOL0     C18152   5.167   4.500   9.277  0.6718 -0.1992  0.7688
  896MOL0     C18153   5.048   4.551   9.365 -0.2219 -0.2755  0.1258
  896MOL0     C18154   4.927   4.457   9.353  0.7079  0.1403  0.1314
  896MOL0     C18155   4.800   4.516   9.416  0.0131 -0.2187 -0.2934
  896MOL0     C18156   4.806   4.507   9.563 -1.4676  0.7285 -1.1089
  896MOL0     N18157   4.687   4.556   9.640  0.0879 -0.1856 -0.1121
  896MOL0     C18158   4.560   4.503   9.636 -0.0318 -0.0199  0.3153
  896MOL0     C18159   4.489   4.572   9.726 -0.2051 -0.7538 -0.5824
  896MOL0     C18160   4.345   4.565   9.751  0.5845  0.4080  0.3188
  896MOL0     C18161   4.280   4.653   9.636 -1.2222 -0.2190  0.3575
  896MOL0     C18162   4.160   4.736   9.676  0.3287 -0.7957  0.1623
  896MOL0     C18163   4.037   4.655   9.719  0.2364  0.4213 -0.4521
  896MOL0     O18164   4.056   4.590   9.848 -0.0503 -0.4959  0.3858
  896MOL0     C18165   3.948   4.512   9.886  0.0493  0.1461 -0.4979
  896MOL0     C18166   3.943   4.493  10.022  0.6981 -0.3576  0.0934
  896MOL0     C18167   3.834   4.429  10.077 -0.0763 -0.0139 -0.2379
  896MOL0     C18168   3.727   4.375  10.006  0.3582 -0.3183 -0.1279
  896MOL0     C18169   3.605   4.322  10.067 -0.7420  0.5157 -0.5763
  896MOL0     O18170   3.603   4.339  10.199 -0.0684 -0.0675  0.4080
  896MOL0     C18171   3.492   4.309  10.269 -0.2247  0.0157  0.2915
  896MOL0     C18172   3.381   4.386  10.258  0.3133  0.0890  0.2119
  896MOL0     C18173   3.260   4.353  10.322  0.3079  0.3057  0.8656
  896MOL0     C18174   3.261   4.236  10.398 -0.3822  0.2293  1.0874
  896MOL0     O18175   3.149   4.177  10.457  0.3817 -0.4220  0.0058
  896MOL0     C18176   3.022   4.251  10.446  0.3841  0.8689  0.1102
  896MOL0     C18177   2.918   4.181  10.514  0.0891  0.3987  0.2172
  896MOL0     C18178   2.925   4.164  10.668  0.0172 -0.2342  0.7547
  896MOL0     C18179   3.032   4.080  10.717 -0.6717 -0.5013  0.7703
  896MOL0     C18180   3.005   4.036  10.860  0.2184 -0.0983 -0.0987
  896MOL0     C18181   3.016   4.144  10.964  0.0223 -0.4784 -0.5560
  896MOL0     C18182   3.139   4.232  10.959 -0.3806  0.1605 -0.4966
  896MOL0     C18183   3.259   4.146  10.996 -0.0133  0.1768 -0.6363
  896MOL0    Cl18184   3.383   4.245  11.067 -0.0022 -0.1336  0.1314
  896MOL0     C18185   3.380   4.160  10.417 -0.3534 -0.0059 -0.3801
  896MOL0     C18186   3.496   4.192  10.348 -0.2116 -0.1906  0.2932
  896MOL0     O18187   3.523   4.270   9.998  1.0809  1.0075 -0.0344
  896MOL0     C18188   3.733   4.387   9.867 -0.0521  0.6248 -0.0183
  896MOL0     C18189   3.841   4.454   9.808  0.4411  0.2481  0.8215
  896MOL0     N18190   4.574   4.660   9.784  0.3806 -0.1957  0.2785
  896MOL0     N18191   4.694   4.655   9.732  0.1029  0.5708 -1.2167
  896MOL0     C18192   5.696   4.505   9.016  0.0514  0.5551  0.1192
  896MOL0     C18193   5.808   4.515   8.935 -0.6516  0.1055  0.2257
  896MOL0     C18194   6.196   4.380   8.692  0.1313  0.7313  0.0979
  896MOL0     C18195   6.276   4.297   8.607  0.1493 -1.0693  0.0829
  896MOL0     C18196   6.406   4.332   8.580  0.5892  0.8776 -0.2426
  896MOL0     C18197   6.473   4.442   8.642 -0.2269  0.1870  0.3495
  896MOL0     O18198   6.608   4.434   8.617 -0.3861 -0.0604  0.4306
  896MOL0     C18199   6.694   4.541   8.675  0.2088  0.7754  0.3741
  896MOL0     C18200   6.826   4.532   8.602 -0.2025  0.2768  0.0671
  896MOL0     C18201   6.912   4.418   8.658  0.4173 -0.8121 -0.4773
  896MOL0     C18202   7.030   4.390   8.567  0.0037 -0.7692  0.7017
  896MOL0     C18203   7.118   4.280   8.615  0.7194  0.0909  0.0188
  896MOL0     C18204   7.191   4.192   8.651 -0.3838  0.2855 -0.1812
  896MOL0     C18205   6.401   4.523   8.723  0.4298 -0.5548 -2.0047
  896MOL0     C18206   6.258   4.492   8.752 -0.1302 -0.4803 -0.1052
  896MOL0     H18207   5.826   4.192   8.825  0.5854 -1.7198  2.2801
  896MOL0     H18208   5.603   4.200   8.945 -2.2505  2.3665  2.6348
  896MOL0     H18209   5.536   4.502   9.223 -0.9759  1.4106 -1.1569
  896MOL0     H18210   5.409   4.383   9.254  0.4420 -1.2697 -0.5075
  896MOL0     H18211   5.302   4.501   9.043  1.7154  0.5533 -0.5874
  896MOL0     H18212   5.407   4.639   9.087  0.3487  0.0074  0.1191
  896MOL0     H18213   5.223   4.704   9.204  2.6936  0.3792 -1.3081
  896MOL0     H18214   5.331   4.634   9.319  1.5621 -0.0167 -1.1750
  896MOL0     H18215   5.121   4.457   9.188  0.2319  0.5393  0.6246
  896MOL0     H18216   5.222   4.416   9.318 -0.1489 -1.5740 -0.8227
  896MOL0     H18217   5.011   4.646   9.326  1.6143 -0.1828 -1.5472
  896MOL0     H18218   5.077   4.560   9.470 -1.3940  3.6269  0.2784
  896MOL0     H18219   4.951   4.357   9.391 -0.2808 -0.6977 -1.3254
  896MOL0     H18220   4.892   4.446   9.249 -1.3615 -1.7939  0.9397
  896MOL0     H18221   4.795   4.621   9.385  2.1151 -0.8137 -3.0114
  896MOL0     H18222   4.717   4.457   9.376  1.1142 -1.2350 -1.1562
  896MOL0     H18223   4.886   4.570   9.602 -0.6674 -1.4588  1.0824
  896MOL0     H18224   4.823   4.401   9.584 -0.7749  1.0680  0.1328
  896MOL0     H18225   4.518   4.417   9.586  3.1978 -2.1156  0.8571
  896MOL0     H18226   4.314   4.590   9.853 -2.3904  1.3349 -0.7055
  896MOL0     H18227   4.301   4.467   9.733 -2.2642  1.3166  1.7134
  896MOL0     H18228   4.254   4.594   9.547  2.1885  1.0257 -1.6443
  896MOL0     H18229   4.353   4.728   9.606 -3.4911  3.2332  2.7678
  896MOL0     H18230   4.189   4.805   9.755 -1.1898  0.8432 -0.6317
  896MOL0     H18231   4.136   4.806   9.595  0.1814 -1.1584 -0.1128
  896MOL0     H18232   4.016   4.579   9.643 -1.9827  2.9399 -2.5681
  896MOL0     H18233   3.945   4.712   9.732 -0.4465 -1.1670  2.4167
  896MOL0     H18234   4.022   4.514  10.093 -0.5331 -2.9931  2.4335
  896MOL0     H18235   3.821   4.432  10.184 -1.7050 -1.6849 -0.3412
  896MOL0     H18236   3.391   4.476  10.198 -0.3864 -0.2404 -0.4101
  896MOL0     H18237   3.166   4.405  10.304  0.3357  1.1993  3.0595
  896MOL0     H18238   2.988   4.265  10.343 -2.5493  1.8919  1.1107
  896MOL0     H18239   3.021   4.355  10.481 -3.7534  1.0908 -0.1874
  896MOL0     H18240   2.917   4.077  10.479 -0.0641 -0.4281  2.4662
  896MOL0     H18241   2.828   4.233  10.480  1.5313  3.9313  1.3350
  896MOL0     H18242   2.829   4.121  10.701  0.5958 -1.0363  1.4437
  896MOL0     H18243   2.934   4.261  10.718  0.6436 -1.0291  2.2637
  896MOL0     H18244   3.039   3.994  10.650  2.5033 -0.4125  0.8603
  896MOL0     H18245   3.123   4.139  10.705 -2.7628  3.0740  1.0358
  896MOL0     H18246   3.076   3.957  10.886 -0.2020 -0.3167  0.3937
  896MOL0     H18247   2.907   3.988  10.862  0.6208 -0.9548 -0.4002
  896MOL0     H18248   3.014   4.099  11.064  1.4553 -0.4255 -0.4864
  896MOL0     H18249   2.932   4.213  10.950  1.2179  0.7839 -1.8707
  896MOL0     H18250   3.138   4.291  10.867 -1.5061 -2.0404 -2.0031
  896MOL0     H18251   3.127   4.296  11.047 -0.4868 -1.9414  1.0966
  896MOL0     H18252   3.306   4.096  10.911  1.7982 -0.2087  0.5487
  896MOL0     H18253   3.230   4.075  11.073  1.8015 -1.2465 -1.2096
  896MOL0     H18254   3.380   4.070  10.477  0.3924 -0.8185 -1.5765
  896MOL0     H18255   3.585   4.130  10.350 -0.4801 -0.8375 -2.7522
  896MOL0     H18256   3.664   4.334   9.802 -1.5591  2.0832  0.3410
  896MOL0     H18257   3.848   4.455   9.700  1.0670 -0.1384  0.8548
  896MOL0     H18258   5.648   4.594   9.054 -0.7815  0.8844 -1.6235
  896MOL0     H18259   5.844   4.617   8.921 -1.1965  0.1882 -0.6633
  896MOL0     H18260   6.234   4.206   8.565  0.2963 -1.8516  1.5717
  896MOL0     H18261   6.457   4.269   8.507 -2.4110 -2.4102  0.2409
  896MOL0     H18262   6.721   4.508   8.775 -2.1787 -2.8662  0.0144
  896MOL0     H18263   6.658   4.644   8.685 -0.4681  0.3469  2.9802
  896MOL0     H18264   6.806   4.517   8.495 -1.0516 -1.3715  0.4125
  896MOL0     H18265   6.882   4.623   8.624 -0.0385  0.2128 -0.0784
  896MOL0     H18266   6.846   4.331   8.669 -1.7142  0.7421 -0.3296
  896MOL0     H18267   6.952   4.434   8.759 -0.6495  2.0758 -0.4142
  896MOL0     H18268   6.987   4.350   8.474 -2.0134 -0.3035  1.3944
  896MOL0     H18269   7.085   4.480   8.539  1.4464 -0.9991  2.6408
  896MOL0     H18270   7.258   4.118   8.690 -2.2249  0.5954  4.0992
  896MOL0     H18271   6.447   4.601   8.782  2.1096 -1.6837 -1.7546
  896MOL0     H18272   6.206   4.558   8.820 -1.7249 -2.3203  0.5759
  897MOL0     O18273   4.005   6.120   8.771 -0.5576  0.4559  0.0660
  897MOL0     C18274   4.078   6.058   8.691 -0.0212  0.5468  0.4577
  897MOL0     O18275   4.035   5.982   8.583 -0.3993 -0.3574 -0.8764
  897MOL0     C18276   3.900   5.975   8.577 -0.2370  1.7799 -0.0077
  897MOL0     C18277   3.831   5.892   8.665 -0.2146  0.7026 -0.5038
  897MOL0     C18278   3.691   5.894   8.669 -0.0500  0.0669 -0.0553
  897MOL0     C18279   3.614   5.976   8.575  0.8790  0.0597  0.3216
  897MOL0     O18280   3.473   5.985   8.571 -0.1006 -0.1826  0.1002
  897MOL0     C18281   3.384   5.917   8.663 -0.1791  0.2104 -0.2696
  897MOL0     C18282   3.246   5.981   8.681  0.1862  0.2792  0.6505
  897MOL0     C18283   3.154   5.962   8.563 -0.4960 -0.0754  0.1476
  897MOL0     C18284   3.106   5.817   8.551 -0.3844 -0.0563  0.3288
  897MOL0     C18285   2.985   5.803   8.463 -0.2832  0.9834  0.0403
  897MOL0     C18286   2.929   5.664   8.473  0.3391  0.3878 -0.0575
  897MOL0     C18287   2.791   5.648   8.400  0.0082 -1.0047  0.2030
  897MOL0     C18288   2.796   5.658   8.244  0.3570  0.3696  0.1528
  897MOL0     N18289   2.680   5.599   8.171 -1.0173  0.2806  0.4790
  897MOL0     C18290   2.671   5.464   8.145  0.6504  0.4372  1.3039
  897MOL0     C18291   2.567   5.452   8.063 -0.6700 -0.5430  1.0989
  897MOL0     C18292   2.507   5.327   8.012  0.0327 -0.2904  0.4510
  897MOL0     C18293   2.500   5.222   8.117  0.1935 -0.4001 -0.8271
  897MOL0     C18294   2.416   5.251   8.243  0.3876  0.1607 -0.7255
  897MOL0     C18295   2.268   5.279   8.208  0.0335 -0.7693  1.1761
  897MOL0     O18296   2.205   5.187   8.125 -0.5783 -0.1218 -0.0655
  897MOL0     C18297   2.091   5.120   8.165 -0.0676  0.0366 -0.6054
  897MOL0     C18298   2.062   5.070   8.297 -0.1294  0.4680  0.3397
  897MOL0     C18299   1.942   4.998   8.323  0.2888 -0.4067  0.3487
  897MOL0     C18300   1.862   4.966   8.215 -0.3926 -0.5379 -0.3149
  897MOL0     C18301   1.735   4.902   8.250  0.2946  0.5149  0.1421
  897MOL0     O18302   1.729   4.835   8.367  0.1098  0.1308  0.5271
  897MOL0     C18303   1.629   4.741   8.378 -0.4472 -0.3868 -0.2143
  897MOL0     C18304   1.591   4.655   8.276  0.0089 -0.0449  0.4779
  897MOL0     C18305   1.488   4.557   8.292  0.0543 -0.4944  0.3157
  897MOL0     C18306   1.427   4.548   8.413  0.4115  0.4163  0.6793
  897MOL0     O18307   1.333   4.451   8.417 -0.3628 -0.4812  0.0878
  897MOL0     C18308   1.209   4.492   8.359  0.1068  0.5068 -0.3173
  897MOL0     C18309   1.096   4.402   8.411 -0.2546  0.5237 -1.0456
  897MOL0     C18310   1.069   4.416   8.568 -0.2772  0.0740  0.5635
  897MOL0     C18311   1.034   4.560   8.606 -0.3161  0.0476  0.6328
  897MOL0     C18312   0.922   4.575   8.697  0.5680  0.4845 -0.4017
  897MOL0     C18313   0.895   4.720   8.737  0.2472  0.0712  0.6489
  897MOL0     C18314   0.790   4.742   8.847 -0.3138 -0.0866  0.3296
  897MOL0     C18315   0.645   4.699   8.804 -0.2882  0.9082 -0.2390
  897MOL0    Cl18316   0.572   4.791   8.665 -0.3136  0.3162  0.5880
  897MOL0     C18317   1.471   4.626   8.516 -0.3279 -0.7822  0.9261
  897MOL0     C18318   1.571   4.732   8.503  0.0668  0.8274  0.5725
  897MOL0     O18319   1.650   4.905   8.160 -0.0775 -0.0375 -0.8679
  897MOL0     C18320   1.886   5.023   8.086 -0.0349  0.4575  0.6165
  897MOL0     C18321   2.002   5.091   8.063  0.2929 -0.3170 -0.0899
  897MOL0     N18322   2.508   5.581   8.041  0.0505 -0.6446  0.0054
  897MOL0     N18323   2.582   5.661   8.103 -0.2341  0.3307  0.1410
  897MOL0     C18324   3.684   6.052   8.485  0.6019  0.3215 -0.7571
  897MOL0     C18325   3.821   6.053   8.490  0.0971 -0.2854 -0.0059
  897MOL0     C18326   4.230   6.082   8.702  0.8250  0.2421 -0.8646
  897MOL0     C18327   4.308   6.029   8.607 -0.6341 -0.4919  0.2255
  897MOL0     C18328   4.449   6.051   8.600  0.2312 -0.3901  0.6264
  897MOL0     C18329   4.511   6.133   8.688  0.3578  0.3823  0.3049
  897MOL0     O18330   4.645   6.168   8.677  0.3741  0.0131  0.6584
  897MOL0     C18331   4.677   6.307   8.677  0.6988 -0.9855  0.2037
  897MOL0     C18332   4.830   6.337   8.658 -0.1628  0.6002 -0.4812
  897MOL0     C18333   4.863   6.483   8.673  0.0641  0.0258  0.1286
  897MOL0     C18334   5.008   6.520   8.651 -0.2788  0.4238 -0.5153
  897MOL0     C18335   5.094   6.468   8.755  0.2514  0.8215 -0.6547
  897MOL0     C18336   5.169   6.433   8.845  0.1675  0.3811  0.1943
  897MOL0     C18337   4.433   6.187   8.790 -0.4656  0.2862 -0.4544
  897MOL0     C18338   4.294   6.163   8.802  0.4424  0.3716  0.0344
  897MOL0     H18339   3.885   5.834   8.740  3.2853  2.6984 -1.2783
  897MOL0     H18340   3.654   5.835   8.752  2.0438  0.9811  1.6136
  897MOL0     H18341   3.430   5.910   8.762  1.2301 -1.9850 -0.9974
  897MOL0     H18342   3.375   5.815   8.625 -0.5710 -0.4518  1.5049
  897MOL0     H18343   3.256   6.089   8.697  0.6037  0.2931  0.3373
  897MOL0     H18344   3.192   5.935   8.763  0.5948  2.1960  2.0640
  897MOL0     H18345   3.209   5.988   8.472  1.6951 -2.3992  0.6882
  897MOL0     H18346   3.074   6.036   8.574  0.1834  0.2524  4.4316
  897MOL0     H18347   3.178   5.743   8.513 -1.5079 -0.5486 -0.9399
  897MOL0     H18348   3.085   5.787   8.654 -0.8745 -1.3496 -0.1185
  897MOL0     H18349   3.015   5.815   8.358 -3.9139  1.7748 -1.0613
  897MOL0     H18350   2.907   5.875   8.488 -0.8057  1.0341 -1.6012
  897MOL0     H18351   2.907   5.649   8.579 -0.2771  2.4491  0.1481
  897MOL0     H18352   2.999   5.587   8.439  0.4648  0.9358 -1.0940
  897MOL0     H18353   2.734   5.559   8.428 -1.4001 -0.0567  0.4216
  897MOL0     H18354   2.728   5.730   8.434  0.8037 -1.5853  3.4425
  897MOL0     H18355   2.891   5.613   8.212  1.4328  3.2030 -0.9338
  897MOL0     H18356   2.796   5.764   8.218 -3.3017  0.3912 -0.2847
  897MOL0     H18357   2.735   5.382   8.175 -4.3956 -3.7472  2.2232
  897MOL0     H18358   2.560   5.283   7.927  0.4350  2.3615 -0.7915
  897MOL0     H18359   2.409   5.353   7.971  0.7344  3.6182  0.7713
  897MOL0     H18360   2.599   5.199   8.156 -0.0238 -0.9259 -0.5787
  897MOL0     H18361   2.478   5.124   8.074  3.6512 -1.4192 -0.5719
  897MOL0     H18362   2.425   5.171   8.317  1.6338 -0.3978 -1.4294
  897MOL0     H18363   2.453   5.337   8.299 -1.1802  0.1247  0.4140
  897MOL0     H18364   2.262   5.373   8.154 -3.4837  0.4539  3.3793
  897MOL0     H18365   2.215   5.287   8.303  0.8859 -2.4370  1.8417
  897MOL0     H18366   2.120   5.086   8.387 -0.7864  5.3219  0.1387
  897MOL0     H18367   1.931   4.973   8.428 -3.4151  1.4638  0.5981
  897MOL0     H18368   1.640   4.662   8.179 -0.3652  0.2693  0.3136
  897MOL0     H18369   1.444   4.489   8.220  3.7471 -2.9722  0.1111
  897MOL0     H18370   1.209   4.492   8.249 -0.3958 -0.0306 -0.3211
  897MOL0     H18371   1.200   4.598   8.385 -0.3273  0.4443 -0.2091
  897MOL0     H18372   1.118   4.296   8.390 -0.8824 -0.4432  2.6006
  897MOL0     H18373   1.004   4.416   8.353 -0.3452 -0.8613 -1.2874
  897MOL0     H18374   1.160   4.396   8.625 -0.0869  2.1037  1.0545
  897MOL0     H18375   0.980   4.359   8.595  1.5529 -2.9418  0.6188
  897MOL0     H18376   1.125   4.606   8.645 -0.4967  1.3984 -0.4597
  897MOL0     H18377   1.014   4.610   8.511  0.9603  2.8766  1.7342
  897MOL0     H18378   0.943   4.523   8.791  1.1370  1.6254  0.1185
  897MOL0     H18379   0.829   4.534   8.656  0.2081  2.6961 -1.9842
  897MOL0     H18380   0.852   4.767   8.649 -0.5764 -2.8718 -0.6615
  897MOL0     H18381   0.988   4.773   8.761  1.7287 -0.6915 -2.7273
  897MOL0     H18382   0.822   4.671   8.923  2.6034 -0.0158 -0.7192
  897MOL0     H18383   0.791   4.845   8.884 -0.2099  0.6805 -1.6562
  897MOL0     H18384   0.578   4.714   8.888  1.0797  1.1047  0.8568
  897MOL0     H18385   0.646   4.591   8.786 -1.0947  0.3613  2.6045
  897MOL0     H18386   1.424   4.602   8.611  0.8194 -2.4728  1.1151
  897MOL0     H18387   1.617   4.791   8.581  2.4580 -1.5888  1.1028
  897MOL0     H18388   1.815   5.000   8.007 -0.1672 -2.3415  1.4319
  897MOL0     H18389   2.040   5.135   7.971 -0.6021  1.6080  0.4251
  897MOL0     H18390   3.626   6.114   8.417 -1.3466 -1.8283 -1.2056
  897MOL0     H18391   3.869   6.114   8.415 -1.3963 -0.2360 -0.9791
  897MOL0     H18392   4.283   5.961   8.525 -2.3809 -0.3001  0.5602
  897MOL0     H18393   4.507   6.011   8.517 -2.5433  2.9178 -3.3175
  897MOL0     H18394   4.650   6.349   8.775  3.8607  0.5826  0.5393
  897MOL0     H18395   4.625   6.358   8.596  1.7648  1.5857  1.0116
  897MOL0     H18396   4.888   6.283   8.735 -0.5607  0.0908 -0.5325
  897MOL0     H18397   4.862   6.303   8.559 -0.1524  0.3863 -0.4069
  897MOL0     H18398   4.817   6.508   8.769  2.2005 -1.2452  1.5712
  897MOL0     H18399   4.806   6.534   8.595 -2.8350 -1.7724  0.9096
  897MOL0     H18400   5.043   6.473   8.558  2.1874  1.2784 -0.0982
  897MOL0     H18401   5.013   6.629   8.643  4.0909  0.3843 -0.5296
  897MOL0     H18402   5.230   6.409   8.930  3.2342  1.5582 -1.5376
  897MOL0     H18403   4.476   6.243   8.873  0.8463 -2.7006  1.0092
  897MOL0     H18404   4.234   6.200   8.885 -1.7411  1.6588 -1.9978
  898MOL0     O18405   3.686  10.078   9.693  0.4693 -0.8848 -0.0036
  898MOL0     C18406   3.675  10.194   9.658 -0.4650 -0.0688 -0.2071
  898MOL0     O18407   3.569  10.274   9.675 -0.0126  0.2726  0.4021
  898MOL0     C18408   3.456  10.208   9.696  0.4504  0.4898 -0.8014
  898MOL0     C18409   3.391  10.204   9.820 -0.2191  0.1036 -0.3990
  898MOL0     C18410   3.274  10.128   9.842 -0.1767  0.5148  0.5300
  898MOL0     C18411   3.209  10.059   9.734  0.2535  0.9273 -0.3584
  898MOL0     O18412   3.088   9.996   9.762  0.0987  0.3579  0.6170
  898MOL0     C18413   2.994  10.055   9.855  0.5896 -0.3414  0.2910
  898MOL0     C18414   2.864   9.970   9.856 -0.5623  0.6064  0.0763
  898MOL0     C18415   2.739  10.041   9.905 -0.3680  0.0818 -0.6519
  898MOL0     C18416   2.611   9.962   9.930  0.0581 -0.4142 -0.6737
  898MOL0     C18417   2.506  10.060   9.996  0.2028 -0.4109 -0.4798
  898MOL0     C18418   2.419  10.140   9.885  0.0671 -0.6073  0.4991
  898MOL0     C18419   2.362  10.272   9.941 -0.4355  0.1315  0.0757
  898MOL0     C18420   2.246  10.259  10.045 -0.2718  0.2992  0.3863
  898MOL0     N18421   2.113  10.245   9.984  0.0449  0.6734  0.2310
  898MOL0     C18422   2.035  10.128   9.984  0.3535 -0.2273  0.6893
  898MOL0     C18423   1.913  10.164   9.924 -0.4449 -0.4748 -1.6094
  898MOL0     C18424   1.795  10.081   9.891  0.1816 -0.4865  0.7206
  898MOL0     C18425   1.667  10.122   9.959 -0.1662  0.2487 -0.2411
  898MOL0     C18426   1.599  10.247   9.903  1.4240 -0.3637  0.4098
  898MOL0     C18427   1.462  10.267   9.968 -0.4415  0.3527 -0.4078
  898MOL0     O18428   1.376  10.182   9.900  0.3505 -0.1871 -0.8906
  898MOL0     C18429   1.251  10.173   9.949 -0.1215  0.8285  0.3501
  898MOL0     C18430   1.177  10.083   9.872  0.5557 -0.0407 -0.0975
  898MOL0     C18431   1.045  10.064   9.892  0.5134 -0.1136 -0.0653
  898MOL0     C18432   0.980  10.127  10.001  0.7431  0.3926  0.0294
  898MOL0     C18433   0.837  10.099  10.038  0.2724 -0.4813  0.0547
  898MOL0     O18434   0.788  10.156  10.156 -0.4047  0.5591  0.3557
  898MOL0     C18435   0.658  10.149  10.191 -0.2942  0.3573 -0.3931
  898MOL0     C18436   0.632  10.163  10.329  0.5893  0.6669 -0.8914
  898MOL0     C18437   0.503  10.154  10.380  0.2754 -0.2965  1.2644
  898MOL0     C18438   0.394  10.134  10.285 -0.5345 -0.1356  0.1007
  898MOL0     O18439   0.267  10.140  10.339 -0.5653 -0.8646  0.2038
  898MOL0     C18440   0.209  10.018  10.355  0.3167 -0.6177 -0.9912
  898MOL0     C18441   0.055  10.046  10.353  0.6569 -0.2446  0.6851
  898MOL0     C18442   0.012  10.090  10.489  0.0136  0.6801  0.0278
  898MOL0     C18443  -0.132  10.046  10.501  0.3559 -0.2489 -0.3325
  898MOL0     C18444  -0.219  10.107  10.623 -0.5487  0.2888 -0.0921
  898MOL0     C18445  -0.251  10.253  10.616  0.7659 -0.4399  0.4315
  898MOL0     C18446  -0.374  10.287  10.695  0.6825 -0.0182 -0.0200
  898MOL0     C18447  -0.407  10.433  10.679 -0.3877  0.8714  1.2013
  898MOL0    Cl18448  -0.441  10.457  10.495 -0.2295  0.1766 -0.1190
  898MOL0     C18449   0.425  10.119  10.141  0.1205 -0.1268  0.0405
  898MOL0     C18450   0.550  10.139  10.099  0.5747 -0.3159  0.1763
  898MOL0     O18451   0.772  10.041   9.953 -0.0416  0.0680  1.1482
  898MOL0     C18452   1.053  10.232  10.068 -1.1679  0.6412  0.4846
  898MOL0     C18453   1.195  10.248  10.053  0.3916 -0.4019  0.8826
  898MOL0     N18454   1.936  10.298   9.885 -0.4124  0.1757 -0.2264
  898MOL0     N18455   2.044  10.343   9.933  0.6307 -0.5204  0.1785
  898MOL0     C18456   3.270  10.073   9.604  0.1186 -0.3297 -0.5779
  898MOL0     C18457   3.391  10.148   9.589 -0.0293  0.7307 -0.2177
  898MOL0     C18458   3.791  10.258   9.591 -0.4580  0.3174 -0.1664
  898MOL0     C18459   3.782  10.391   9.558  0.1668  0.2092  0.0521
  898MOL0     C18460   3.897  10.451   9.506 -0.3468 -0.2277  0.2396
  898MOL0     C18461   4.011  10.380   9.473 -0.2603  0.6933 -0.5402
  898MOL0     O18462   4.113  10.455   9.413 -0.3330 -0.2383  0.3359
  898MOL0     C18463   4.245  10.383   9.399 -0.9908  0.1255 -0.0609
  898MOL0     C18464   4.351  10.474   9.337  0.0515  0.3952  0.4155
  898MOL0     C18465   4.396  10.576   9.441 -0.0203 -0.8230  0.6827
  898MOL0     C18466   4.465  10.696   9.380  0.1253 -0.0572 -0.3478
  898MOL0     C18467   4.511  10.798   9.481 -0.1044  0.1261 -0.8459
  898MOL0     C18468   4.559  10.856   9.579 -0.0724 -0.1725  0.1900
  898MOL0     C18469   4.019  10.241   9.494 -0.3372  0.3478  0.3791
  898MOL0     C18470   3.908  10.186   9.561  0.0241 -0.4772 -0.2243
  898MOL0     H18471   3.436  10.259   9.902 -0.2976  1.3190 -1.1548
  898MOL0     H18472   3.234  10.126   9.943  3.9217  0.4164  2.3511
  898MOL0     H18473   2.955  10.150   9.816 -1.3122 -2.1714 -2.6691
  898MOL0     H18474   3.031  10.068   9.957 -0.3546  2.1858  0.3823
  898MOL0     H18475   2.880   9.883   9.920 -3.5862 -0.4075 -0.3980
  898MOL0     H18476   2.847   9.932   9.755 -0.7134  1.5545 -0.2627
  898MOL0     H18477   2.720  10.127   9.839  1.2391  0.3081 -0.8436
  898MOL0     H18478   2.766  10.087  10.001 -1.7921 -1.5971  0.6218
  898MOL0     H18479   2.571   9.921   9.836 -1.7520 -0.2485 -0.0097
  898MOL0     H18480   2.645   9.890  10.004  2.5675  1.7734  0.4470
  898MOL0     H18481   2.563  10.134  10.052  0.0746  1.0726 -2.2210
  898MOL0     H18482   2.441   9.996  10.056  0.1555 -0.8833 -1.0259
  898MOL0     H18483   2.331  10.082   9.855 -1.5696  0.2735  3.1726
  898MOL0     H18484   2.476  10.175   9.799  0.5831  0.1623  1.1414
  898MOL0     H18485   2.443  10.321   9.996 -0.3579 -2.7349  2.8209
  898MOL0     H18486   2.337  10.325   9.849  0.5324 -3.2904 -2.3330
  898MOL0     H18487   2.249  10.360  10.089 -0.6977  1.1477 -1.4263
  898MOL0     H18488   2.251  10.182  10.122 -2.4069 -1.3665 -1.0481
  898MOL0     H18489   2.063  10.026  10.009  2.8615 -0.0299 -0.9397
  898MOL0     H18490   1.817   9.980   9.925 -3.5467 -1.7690 -0.2606
  898MOL0     H18491   1.779  10.093   9.784  3.0009  1.4741  0.4025
  898MOL0     H18492   1.685  10.146  10.064  0.8104  4.2221 -1.1777
  898MOL0     H18493   1.591  10.044   9.946 -0.4192 -0.0303  2.3838
  898MOL0     H18494   1.666  10.333   9.911  1.0306  0.1901 -1.7222
  898MOL0     H18495   1.580  10.236   9.796 -1.8038  0.1310  0.8122
  898MOL0     H18496   1.431  10.372   9.961 -2.4642 -0.1345  0.5101
  898MOL0     H18497   1.473  10.237  10.073 -0.6950 -3.0973 -1.2592
  898MOL0     H18498   1.221  10.030   9.788 -0.6491 -1.0220 -0.1324
  898MOL0     H18499   0.998   9.995   9.822  1.6035 -0.6295 -0.3150
  898MOL0     H18500   0.713  10.191  10.396  1.7887  0.2479 -2.1130
  898MOL0     H18501   0.480  10.169  10.484 -1.7627  0.9269  0.6940
  898MOL0     H18502   0.246   9.989  10.454  0.2458  1.4013 -0.3227
  898MOL0     H18503   0.241   9.944  10.281  1.3299 -2.6890  1.3525
  898MOL0     H18504   0.001   9.957  10.320  0.6540  1.1268 -3.5260
  898MOL0     H18505   0.032  10.121  10.277 -1.3590  0.1236  1.6092
  898MOL0     H18506   0.030  10.194  10.519 -1.8310  1.1815 -0.4715
  898MOL0     H18507   0.067  10.032  10.563 -1.1966 -0.6878 -0.0839
  898MOL0     H18508  -0.174  10.061  10.401 -0.1820  0.6471  0.0210
  898MOL0     H18509  -0.135   9.937  10.514  0.1607 -0.0767  1.2684
  898MOL0     H18510  -0.182  10.083  10.723 -3.3772  0.7818  1.1821
  898MOL0     H18511  -0.310  10.046  10.621  0.0227 -0.7131  1.9420
  898MOL0     H18512  -0.261  10.281  10.511  1.7000 -0.1482  0.4068
  898MOL0     H18513  -0.161  10.306  10.648 -0.1627  2.4747 -1.3753
  898MOL0     H18514  -0.456  10.226  10.656 -0.1586 -0.1627  1.8714
  898MOL0     H18515  -0.366  10.274  10.803  3.4004 -1.2354 -0.2949
  898MOL0     H18516  -0.322  10.493  10.713  0.0341  0.4564  0.8739
  898MOL0     H18517  -0.489  10.454  10.749  0.1656  0.7466  1.8907
  898MOL0     H18518   0.350  10.108  10.064 -1.0915  0.0206  1.1651
  898MOL0     H18519   0.566  10.144   9.991  3.0293  0.7363  0.5371
  898MOL0     H18520   1.019  10.297  10.148  1.3593  2.2040  0.4090
  898MOL0     H18521   1.245  10.330  10.104 -0.9571  1.4088 -0.5950
  898MOL0     H18522   3.210  10.033   9.524  2.1540  0.3624 -2.5643
  898MOL0     H18523   3.443  10.153   9.494  0.7896  1.5105  0.2566
  898MOL0     H18524   3.695  10.451   9.579  0.7651  0.7009  1.2363
  898MOL0     H18525   3.908  10.558   9.488  2.6744 -0.4281  0.3861
  898MOL0     H18526   4.239  10.292   9.339 -1.0681  0.9417 -1.3369
  898MOL0     H18527   4.280  10.357   9.499  0.9158  2.0519 -0.1765
  898MOL0     H18528   4.431  10.410   9.300 -1.4310 -0.6534 -1.1313
  898MOL0     H18529   4.315  10.526   9.247  0.4716 -2.2758 -1.4025
  898MOL0     H18530   4.454  10.523   9.517  1.5669 -1.3298 -0.8209
  898MOL0     H18531   4.310  10.627   9.485  0.7866  1.0274  0.2463
  898MOL0     H18532   4.545  10.653   9.320  0.3859 -1.7906  1.1617
  898MOL0     H18533   4.389  10.748   9.322 -0.6374  2.0060  2.2834
  898MOL0     H18534   4.614  10.917   9.649  0.9511  1.4731 -1.9300
  898MOL0     H18535   4.103  10.179   9.463  0.8895  2.6170 -1.1771
  898MOL0     H18536   3.899  10.080   9.584  0.2505 -0.5002 -0.2399
  899MOL0     O18537   9.109   0.855  10.590 -0.4870  0.0426 -0.3939
  899MOL0     C18538   9.188   0.930  10.537  0.0920  0.5739 -0.1589
  899MOL0     O18539   9.154   1.014  10.435  0.0073 -0.2974  0.4384
  899MOL0     C18540   9.045   0.978  10.359 -0.4034 -0.2322  0.4131
  899MOL0     C18541   9.007   0.850  10.313 -0.6447 -0.4232  0.0340
  899MOL0     C18542   8.898   0.829  10.226 -0.9493  0.3157 -0.4136
  899MOL0     C18543   8.826   0.940  10.175 -0.7723 -0.1299 -0.4299
  899MOL0     O18544   8.711   0.921  10.100 -0.0434 -1.0776  0.2074
  899MOL0     C18545   8.693   0.825   9.995 -1.1601  0.9738  0.1590
  899MOL0     C18546   8.641   0.888   9.862  0.0229 -0.7281  0.0483
  899MOL0     C18547   8.523   0.978   9.880 -0.1010  0.2455  0.6082
  899MOL0     C18548   8.478   1.036   9.740 -0.5778 -0.1765 -0.0949
  899MOL0     C18549   8.353   1.124   9.738 -0.4640  0.2267 -0.5451
  899MOL0     C18550   8.382   1.256   9.818  1.0793  1.0874  0.3831
  899MOL0     C18551   8.511   1.334   9.782 -0.4530  0.8934 -0.6096
  899MOL0     C18552   8.526   1.459   9.868 -0.3169  0.0829  0.2810
  899MOL0     N18553   8.634   1.550   9.826  0.4348  0.5497 -0.9177
  899MOL0     C18554   8.765   1.532   9.860 -0.5871  0.3723  0.2919
  899MOL0     C18555   8.823   1.640   9.803 -1.5237  0.7688  0.3845
  899MOL0     C18556   8.973   1.669   9.805 -0.3710 -0.0081 -0.0174
  899MOL0     C18557   9.003   1.814   9.816 -0.1517  0.1473 -0.3887
  899MOL0     C18558   8.947   1.873   9.954 -0.2743 -0.4001 -0.2816
  899MOL0     C18559   9.009   2.020   9.969  0.0628  0.0461 -0.4883
  899MOL0     O18560   8.971   2.084  10.089 -0.6484 -0.2061 -0.2546
  899MOL0     C18561   8.838   2.126  10.113 -0.2718 -0.1866  0.0792
  899MOL0     C18562   8.731   2.106  10.029  0.2870  0.4196 -0.0299
  899MOL0     C18563   8.601   2.164  10.067 -1.0337 -0.4856 -0.5202
  899MOL0     C18564   8.587   2.250  10.177  0.0972  0.1838 -0.2532
  899MOL0     C18565   8.455   2.306  10.201 -1.0011 -0.4266  0.9951
  899MOL0     O18566   8.372   2.322  10.093 -0.0580  0.0434 -0.9283
  899MOL0     C18567   8.259   2.401  10.099 -0.1760 -0.2236  0.1621
  899MOL0     C18568   8.238   2.514  10.179  0.2473 -0.3362  1.1774
  899MOL0     C18569   8.116   2.584  10.175 -0.6501  0.1458  0.1767
  899MOL0     C18570   8.017   2.557  10.078  0.1406  0.0524  0.1855
  899MOL0     O18571   7.901   2.624  10.066 -0.2691 -0.3623  0.2569
  899MOL0     C18572   7.821   2.633  10.185 -0.0242  0.1392  0.6386
  899MOL0     C18573   7.702   2.718  10.152  0.3795  0.6567  0.5624
  899MOL0     C18574   7.605   2.744  10.273 -0.1345 -0.6490 -0.4827
  899MOL0     C18575   7.473   2.810  10.225 -0.0463  0.4203 -0.5175
  899MOL0     C18576   7.376   2.822  10.354 -0.2321 -0.8691  0.6605
  899MOL0     C18577   7.233   2.853  10.324  0.0342 -0.2085  0.9117
  899MOL0     C18578   7.150   2.891  10.447  0.0085  0.6519  0.2701
  899MOL0     C18579   7.001   2.900  10.414  0.5229  0.1721  0.8206
  899MOL0    Cl18580   6.908   2.921  10.561 -0.3045 -0.1261  0.3480
  899MOL0     C18581   8.042   2.442  10.000 -0.0542 -0.8629  0.5289
  899MOL0     C18582   8.158   2.371  10.010  0.1508  0.2739  0.1228
  899MOL0     O18583   8.437   2.355  10.311 -0.2869  0.4481  0.4884
  899MOL0     C18584   8.700   2.280  10.255 -0.4653  0.1280  0.3327
  899MOL0     C18585   8.816   2.210  10.229 -0.3178  0.7591 -0.0276
  899MOL0     N18586   8.728   1.709   9.724  0.0381 -0.2582  0.5687
  899MOL0     N18587   8.607   1.657   9.749 -0.2923  0.3478 -0.7169
  899MOL0     C18588   8.870   1.064  10.214  0.1778  0.2661 -0.7241
  899MOL0     C18589   8.973   1.086  10.298 -0.2221 -0.2661 -0.5379
  899MOL0     C18590   9.322   0.937  10.593  0.1078 -0.0660 -0.1825
  899MOL0     C18591   9.410   1.042  10.567  0.0929  0.6723  0.4732
  899MOL0     C18592   9.542   1.039  10.611  0.5909 -0.4112 -0.1839
  899MOL0     C18593   9.589   0.921  10.674  0.7334 -0.6143 -0.4663
  899MOL0     O18594   9.719   0.927  10.727 -0.2490  0.0847  0.4022
  899MOL0     C18595   9.794   0.804  10.703  0.2072  0.5271  0.4774
  899MOL0     C18596   9.944   0.830  10.736 -0.8518 -0.7114 -0.1378
  899MOL0     C18597   9.957   0.880  10.880  0.5124  0.2601  0.9386
  899MOL0     C18598  10.107   0.896  10.923  1.2412 -0.7553  0.2153
  899MOL0     C18599  10.171   0.762  10.921  0.5313 -0.0335 -1.0141
  899MOL0     C18600  10.240   0.660  10.924 -0.4662 -0.5060 -0.0108
  899MOL0     C18601   9.505   0.810  10.689  0.5849 -0.4417 -0.6124
  899MOL0     C18602   9.371   0.813  10.653  0.0981 -0.2278  0.5930
  899MOL0     H18603   9.065   0.765  10.349  3.6081  2.1195 -0.1038
  899MOL0     H18604   8.872   0.728  10.196 -0.8703 -0.7478  2.6867
  899MOL0     H18605   8.613   0.761  10.033 -0.9198 -0.5783 -1.8279
  899MOL0     H18606   8.785   0.772   9.969 -3.2360 -1.8461 -2.0584
  899MOL0     H18607   8.615   0.806   9.795  1.4336 -0.1916 -1.2252
  899MOL0     H18608   8.726   0.942   9.818  0.7887 -1.9769 -0.0578
  899MOL0     H18609   8.551   1.069   9.934 -0.1484  1.3515 -1.1386
  899MOL0     H18610   8.442   0.923   9.928 -0.4556 -2.0389 -2.2758
  899MOL0     H18611   8.564   1.086   9.695  0.9211 -0.8075  1.9207
  899MOL0     H18612   8.453   0.943   9.688 -1.5998 -2.0901  3.4744
  899MOL0     H18613   8.280   1.067   9.797  0.5976 -0.6173 -0.0011
  899MOL0     H18614   8.339   1.138   9.631  0.8653 -0.7547 -0.8852
  899MOL0     H18615   8.403   1.229   9.921  0.1561  1.6232  0.7195
  899MOL0     H18616   8.293   1.319   9.807  2.0426  2.0597 -3.0489
  899MOL0     H18617   8.603   1.276   9.778 -0.7746  0.3317 -0.0182
  899MOL0     H18618   8.494   1.368   9.680  1.4374  4.6904  0.1501
  899MOL0     H18619   8.536   1.426   9.972 -1.4467  0.6950  0.6062
  899MOL0     H18620   8.430   1.511   9.856  0.1013  0.6817 -0.5581
  899MOL0     H18621   8.814   1.455   9.919 -0.7142 -0.3994 -0.5764
  899MOL0     H18622   9.016   1.612   9.722  1.3414  1.3488 -0.1245
  899MOL0     H18623   9.011   1.617   9.894  0.8013  0.0247 -0.4789
  899MOL0     H18624   8.952   1.872   9.739 -2.1040  1.9193  2.0399
  899MOL0     H18625   9.111   1.820   9.800 -0.7111  0.9211 -5.8961
  899MOL0     H18626   8.838   1.874   9.965 -0.3614 -1.9582 -0.8195
  899MOL0     H18627   8.987   1.809  10.033  0.9612  0.2004 -0.3859
  899MOL0     H18628   8.973   2.083   9.887  0.2424  2.1877  1.0089
  899MOL0     H18629   9.116   2.001   9.981  0.4189  1.7036 -0.8265
  899MOL0     H18630   8.728   2.059   9.931 -3.1498 -0.6281  0.4235
  899MOL0     H18631   8.519   2.137  10.001 -1.8542 -2.5223  1.1984
  899MOL0     H18632   8.320   2.549  10.242  0.8654  1.6666 -0.6154
  899MOL0     H18633   8.104   2.670  10.240  0.9272 -0.4839  1.3618
  899MOL0     H18634   7.877   2.694  10.256  1.2632 -0.8276  0.4899
  899MOL0     H18635   7.805   2.536  10.233  0.2373  0.3909  1.2430
  899MOL0     H18636   7.652   2.664  10.070 -0.0843  1.0340  0.5931
  899MOL0     H18637   7.732   2.812  10.104 -2.3581  2.0197  1.2954
  899MOL0     H18638   7.649   2.808  10.350  0.0964 -0.0303 -1.1204
  899MOL0     H18639   7.579   2.647  10.318  1.2840 -2.0901 -2.5906
  899MOL0     H18640   7.490   2.905  10.172  1.8730  0.9283  0.8915
  899MOL0     H18641   7.421   2.745  10.154 -1.5070  0.5190  0.4149
  899MOL0     H18642   7.406   2.902  10.423 -2.7178 -0.8782  1.8640
  899MOL0     H18643   7.388   2.732  10.415  3.0262  0.9825  3.0588
  899MOL0     H18644   7.185   2.767  10.276 -1.2904 -0.2410  2.2334
  899MOL0     H18645   7.242   2.936  10.254  2.0979 -1.4112 -0.3658
  899MOL0     H18646   7.167   2.819  10.528  1.0335  1.3923  0.7351
  899MOL0     H18647   7.183   2.991  10.476 -1.3095  0.9835  0.6879
  899MOL0     H18648   6.964   2.812  10.360 -3.6603  1.8973  0.4920
  899MOL0     H18649   6.983   2.985  10.347  0.1268  1.5541  2.6054
  899MOL0     H18650   7.961   2.421   9.930 -0.9152 -0.2679  1.3317
  899MOL0     H18651   8.169   2.281   9.949  0.2595 -1.7142  2.8693
  899MOL0     H18652   8.688   2.349  10.338  1.3389  1.1784 -0.2266
  899MOL0     H18653   8.908   2.224  10.286  0.5052  4.4572 -1.9564
  899MOL0     H18654   8.814   1.152  10.184  0.5649 -0.0562 -2.4994
  899MOL0     H18655   8.994   1.187  10.333 -0.9145  0.0165 -0.9142
  899MOL0     H18656   9.376   1.126  10.506 -4.2067 -2.1971 -1.6068
  899MOL0     H18657   9.602   1.126  10.590 -0.6320  1.0157  1.9260
  899MOL0     H18658   9.781   0.768  10.600 -0.5549 -2.1755  1.4257
  899MOL0     H18659   9.762   0.725  10.772  0.0252  0.0792 -0.1089
  899MOL0     H18660  10.011   0.746  10.715  1.5844  1.1900 -0.5778
  899MOL0     H18661   9.987   0.909  10.674 -0.5067 -0.0627  0.8904
  899MOL0     H18662   9.911   0.796  10.934  1.2684 -1.1113 -0.4761
  899MOL0     H18663   9.909   0.978  10.876  1.7514  0.9166  1.5243
  899MOL0     H18664  10.153   0.967  10.854  0.1363 -1.3659 -1.1876
  899MOL0     H18665  10.107   0.931  11.027  1.7854 -0.5421  0.1452
  899MOL0     H18666  10.317   0.586  10.927  2.7995  2.5620 -1.1449
  899MOL0     H18667   9.544   0.725  10.744 -0.6968 -1.8583 -1.7685
  899MOL0     H18668   9.303   0.729  10.666 -1.7343  0.5927 -2.4779
  900MOL0     O18669   8.388   2.972   7.837 -0.2461 -0.3599  0.5333
  900MOL0     C18670   8.486   3.026   7.793  0.1686 -0.1587 -0.0872
  900MOL0     O18671   8.518   3.044   7.659 -0.0112 -0.1595  0.0629
  900MOL0     C18672   8.433   3.015   7.553 -0.2266  0.4634 -0.4524
  900MOL0     C18673   8.411   3.099   7.443  0.1016  0.7599 -0.6559
  900MOL0     C18674   8.331   3.060   7.335 -1.0456  0.0269 -0.4334
  900MOL0     C18675   8.270   2.931   7.338 -0.3665 -0.0462  0.8069
  900MOL0     O18676   8.188   2.888   7.236 -0.2262 -0.3256 -0.4047
  900MOL0     C18677   8.073   2.966   7.207 -0.6553  0.3105 -0.3174
  900MOL0     C18678   8.009   2.951   7.074  0.2776 -0.7665  0.4727
  900MOL0     C18679   7.874   2.870   7.072  0.0480 -0.4041 -0.2002
  900MOL0     C18680   7.892   2.725   7.123  0.4190 -0.3360 -0.4522
  900MOL0     C18681   7.789   2.620   7.087  0.1004 -0.1939 -0.2932
  900MOL0     C18682   7.648   2.647   7.140 -0.3743 -0.4041  0.5242
  900MOL0     C18683   7.557   2.531   7.102 -0.0367  0.5250  0.1392
  900MOL0     C18684   7.419   2.549   7.164  0.3165  0.3335 -0.0021
  900MOL0     N18685   7.324   2.432   7.178  0.2566 -0.2893 -0.9216
  900MOL0     C18686   7.223   2.401   7.089  0.1170 -0.4850 -0.3803
  900MOL0     C18687   7.160   2.297   7.143 -0.3270  0.1053 -0.5164
  900MOL0     C18688   7.068   2.212   7.079  0.5692  0.1232 -0.4298
  900MOL0     C18689   6.913   2.263   7.057  0.5229 -0.3606 -0.1976
  900MOL0     C18690   6.844   2.293   7.188 -0.2089 -0.2443  0.3827
  900MOL0     C18691   6.707   2.347   7.153 -0.4840 -0.1856  0.1947
  900MOL0     O18692   6.633   2.270   7.059 -0.1442  0.6471 -0.2296
  900MOL0     C18693   6.507   2.308   7.037  0.7298  0.0554  0.2676
  900MOL0     C18694   6.435   2.232   6.942  0.5521  0.8591  0.2002
  900MOL0     C18695   6.295   2.259   6.904 -0.6068  0.4578  0.1315
  900MOL0     C18696   6.218   2.351   6.972 -0.1941  0.4043 -0.6924
  900MOL0     C18697   6.067   2.364   6.940  0.4347 -0.1251  0.2498
  900MOL0     O18698   6.017   2.270   6.856  0.4427  0.3590 -0.0953
  900MOL0     C18699   5.882   2.270   6.825  0.0826 -0.8312 -0.1217
  900MOL0     C18700   5.838   2.292   6.690 -0.0443  0.8560  0.0741
  900MOL0     C18701   5.701   2.319   6.663  0.0145 -0.1471  0.4649
  900MOL0     C18702   5.608   2.316   6.765 -0.0461 -0.5258 -0.0320
  900MOL0     O18703   5.477   2.349   6.744  0.2287 -0.1883  0.6523
  900MOL0     C18704   5.422   2.331   6.615 -0.4995  0.4348 -0.4065
  900MOL0     C18705   5.275   2.311   6.639  0.1398 -0.5940  1.0210
  900MOL0     C18706   5.211   2.444   6.596 -0.1942 -0.3730 -0.6652
  900MOL0     C18707   5.065   2.444   6.619 -0.4230  0.1161  0.4818
  900MOL0     C18708   4.986   2.564   6.556 -0.0151 -0.5636 -0.2664
  900MOL0     C18709   4.833   2.548   6.560  0.6335 -0.1802 -0.4863
  900MOL0     C18710   4.783   2.669   6.482  0.0631 -0.0408 -0.6550
  900MOL0     C18711   4.625   2.673   6.455 -0.5010  0.1862 -0.5423
  900MOL0    Cl18712   4.577   2.795   6.333  0.0431  0.1351 -0.1491
  900MOL0     C18713   5.645   2.280   6.894 -0.0261 -0.2734  1.1388
  900MOL0     C18714   5.783   2.260   6.926  0.2568 -0.0404 -0.2274
  900MOL0     O18715   6.001   2.440   7.011  0.1267 -0.1921  0.6419
  900MOL0     C18716   6.290   2.424   7.073 -0.1821  0.3759  0.1880
  900MOL0     C18717   6.423   2.395   7.106  0.9040 -0.3801 -1.4792
  900MOL0     N18718   7.214   2.272   7.270 -0.0624 -0.0844  0.1450
  900MOL0     N18719   7.310   2.356   7.291  1.1757 -0.4450 -0.4913
  900MOL0     C18720   8.296   2.839   7.441 -0.5444  0.0289 -0.3082
  900MOL0     C18721   8.375   2.886   7.550 -0.4857  0.0606 -0.0393
  900MOL0     C18722   8.586   3.077   7.896  0.0303  0.0178  0.2349
  900MOL0     C18723   8.702   3.133   7.846  0.1335 -0.1113 -0.3870
  900MOL0     C18724   8.797   3.190   7.933 -0.2204 -0.3920  0.5149
  900MOL0     C18725   8.769   3.185   8.073 -0.1655  0.5358 -0.3645
  900MOL0     O18726   8.850   3.224   8.171 -0.0016  0.4136  0.0308
  900MOL0     C18727   8.998   3.208   8.150 -0.3331  0.2556  0.4180
  900MOL0     C18728   9.063   3.159   8.277 -0.1392 -0.2614  0.9198
  900MOL0     C18729   9.214   3.113   8.266  0.0096  0.2179 -1.2164
  900MOL0     C18730   9.259   3.044   8.400 -0.1089 -0.2242  0.3142
  900MOL0     C18731   9.390   2.984   8.390  0.7616  0.2067  0.3836
  900MOL0     C18732   9.502   2.930   8.378  0.6785  0.8245 -0.5857
  900MOL0     C18733   8.653   3.137   8.121  0.2207 -0.1037  0.7577
  900MOL0     C18734   8.551   3.100   8.026 -0.6976 -0.3786 -0.6597
  900MOL0     H18735   8.452   3.200   7.435 -1.6206  1.5823  0.4130
  900MOL0     H18736   8.310   3.126   7.251 -1.4902  1.3743  0.6999
  900MOL0     H18737   8.090   3.073   7.223  2.0748 -0.0145 -0.6537
  900MOL0     H18738   8.005   2.938   7.289  3.0197 -0.0606  2.9062
  900MOL0     H18739   8.088   2.913   7.008  2.0224  1.1317  1.3650
  900MOL0     H18740   7.980   3.047   7.030 -2.6533 -1.6390  0.2778
  900MOL0     H18741   7.855   2.859   6.965  1.2969 -2.8377 -0.2166
  900MOL0     H18742   7.793   2.925   7.123  0.3797 -2.0811  2.2992
  900MOL0     H18743   7.990   2.693   7.087  2.2454  0.0859  3.5627
  900MOL0     H18744   7.905   2.726   7.232 -1.4137 -2.0247 -0.1573
  900MOL0     H18745   7.836   2.527   7.120  2.5087  0.9426 -0.2662
  900MOL0     H18746   7.779   2.610   6.978 -1.4497  1.7865 -0.3923
  900MOL0     H18747   7.600   2.731   7.090  0.0513 -0.7576 -0.4899
  900MOL0     H18748   7.658   2.657   7.249  0.7018 -3.7689  0.8671
  900MOL0     H18749   7.547   2.525   6.993 -1.6278 -0.5331  0.3100
  900MOL0     H18750   7.599   2.438   7.142  0.1221  0.8804  0.8090
  900MOL0     H18751   7.370   2.628   7.107 -1.1981 -0.9844 -0.6088
  900MOL0     H18752   7.432   2.578   7.268 -1.6915 -2.5010  1.1560
  900MOL0     H18753   7.186   2.444   6.996  0.7372  1.1425  0.0841
  900MOL0     H18754   7.066   2.119   7.136  2.6989 -0.0011 -0.4630
  900MOL0     H18755   7.102   2.189   6.977 -0.0466 -0.3777 -0.5279
  900MOL0     H18756   6.868   2.187   6.992 -2.1897  2.4476 -1.8890
  900MOL0     H18757   6.913   2.355   6.999  2.1201 -0.0819  0.2001
  900MOL0     H18758   6.821   2.201   7.243 -1.2159  0.8476  1.8760
  900MOL0     H18759   6.907   2.371   7.232  1.8439  0.7422 -3.7483
  900MOL0     H18760   6.723   2.451   7.121 -1.4076  0.3745  1.4661
  900MOL0     H18761   6.647   2.356   7.244 -1.0830  1.8465 -0.3328
  900MOL0     H18762   6.495   2.167   6.879  1.0670  2.7431 -1.3725
  900MOL0     H18763   6.251   2.208   6.819  0.8863  0.1602 -0.4871
  900MOL0     H18764   5.919   2.305   6.620  1.3643  1.1649  1.6953
  900MOL0     H18765   5.673   2.327   6.558 -1.6263  0.9353  0.9556
  900MOL0     H18766   5.448   2.236   6.567 -0.5894 -0.2026  0.7724
  900MOL0     H18767   5.452   2.415   6.552  2.6508 -0.2318  0.0229
  900MOL0     H18768   5.256   2.278   6.741 -1.5727 -2.5001  0.1559
  900MOL0     H18769   5.236   2.232   6.573 -0.9967 -0.6588  1.7570
  900MOL0     H18770   5.226   2.446   6.488 -0.0220 -3.8488 -0.8299
  900MOL0     H18771   5.252   2.529   6.652 -1.7515 -0.7576  1.1520
  900MOL0     H18772   5.028   2.352   6.575  0.2162 -0.9599  2.0734
  900MOL0     H18773   5.042   2.425   6.725  1.8696 -0.3227  0.9603
  900MOL0     H18774   5.016   2.573   6.452  1.4859  0.8389  0.2524
  900MOL0     H18775   5.014   2.652   6.614 -1.4599 -1.0167  1.2053
  900MOL0     H18776   4.801   2.553   6.664 -0.7051  2.2873 -0.9336
  900MOL0     H18777   4.806   2.454   6.511 -0.2221 -1.0831  1.6060
  900MOL0     H18778   4.816   2.754   6.542 -0.4909  0.0897 -0.5330
  900MOL0     H18779   4.825   2.679   6.382  0.2295  1.5925 -0.4519
  900MOL0     H18780   4.584   2.714   6.548 -1.9485  0.4174 -1.2642
  900MOL0     H18781   4.584   2.572   6.440  0.8085 -0.4035 -0.3510
  900MOL0     H18782   5.571   2.298   6.971 -0.7587  2.2194 -0.0449
  900MOL0     H18783   5.819   2.260   7.029  2.3038 -1.0350 -0.8971
  900MOL0     H18784   6.234   2.501   7.126 -1.5871  0.4393 -1.3147
  900MOL0     H18785   6.468   2.450   7.188 -0.8062 -1.1920  0.0764
  900MOL0     H18786   8.265   2.738   7.415  0.0270 -0.5680  1.2140
  900MOL0     H18787   8.389   2.820   7.634 -0.1210  0.3254  0.1144
  900MOL0     H18788   8.732   3.117   7.743  2.3050  0.6496  0.0581
  900MOL0     H18789   8.889   3.240   7.903 -1.9816  1.7249 -1.8627
  900MOL0     H18790   9.037   3.304   8.113 -1.8180  1.2134  1.2226
  900MOL0     H18791   9.013   3.129   8.076  2.0886  0.7154  0.3370
  900MOL0     H18792   9.048   3.229   8.361  2.3619  3.0024 -1.0711
  900MOL0     H18793   9.000   3.073   8.299 -0.9798  0.2768  0.6496
  900MOL0     H18794   9.278   3.199   8.246  0.6559  0.8355  2.8041
  900MOL0     H18795   9.219   3.038   8.187 -0.9649 -3.5670  1.9968
  900MOL0     H18796   9.258   3.108   8.489  2.5137 -0.1849  0.4001
  900MOL0     H18797   9.186   2.969   8.432  0.5396  0.3462  3.4564
  900MOL0     H18798   9.590   2.871   8.364 -0.8380 -1.2084 -2.1387
  900MOL0     H18799   8.635   3.138   8.228 -2.8852  0.5847  0.3365
  900MOL0     H18800   8.452   3.070   8.059 -0.2256 -1.4945 -0.2145
  901MOL0     O18801   8.636   2.454   6.365  0.2958  0.4900  0.2180
  901MOL0     C18802   8.686   2.563   6.362 -0.4368  0.2786 -1.1692
  901MOL0     O18803   8.618   2.684   6.353  0.0069 -0.5177  0.4642
  901MOL0     C18804   8.485   2.677   6.339  0.1689  0.2806  0.3055
  901MOL0     C18805   8.407   2.624   6.437  0.2246  0.2536 -0.2218
  901MOL0     C18806   8.270   2.613   6.412 -0.7227  0.2073  0.0089
  901MOL0     C18807   8.214   2.663   6.293  0.0399 -0.7584 -0.4622
  901MOL0     O18808   8.081   2.659   6.276 -0.5305  0.0778 -0.0983
  901MOL0     C18809   8.028   2.630   6.142 -0.6051  0.0131  0.6525
  901MOL0     C18810   7.888   2.695   6.107  0.0015  0.6201  0.0722
  901MOL0     C18811   7.786   2.680   6.212 -0.3198  1.3422  0.1724
  901MOL0     C18812   7.656   2.738   6.161 -0.6046 -0.1198  0.8306
  901MOL0     C18813   7.570   2.623   6.103 -0.2980 -0.3938  0.5466
  901MOL0     C18814   7.425   2.673   6.064 -0.1083 -0.2583  0.4396
  901MOL0     C18815   7.331   2.662   6.184  0.1346  0.5927 -0.1970
  901MOL0     C18816   7.189   2.691   6.125 -0.1079 -0.6881 -0.1313
  901MOL0     N18817   7.090   2.710   6.221  0.3119  0.6131 -0.0757
  901MOL0     C18818   6.991   2.628   6.270 -1.1652 -0.1299 -0.1904
  901MOL0     C18819   6.929   2.693   6.372 -0.0624  0.7175  0.3545
  901MOL0     C18820   6.796   2.655   6.430 -0.7324  0.5894  0.3041
  901MOL0     C18821   6.696   2.771   6.424 -0.1200 -0.5803  0.7494
  901MOL0     C18822   6.554   2.737   6.481 -1.1345 -0.2679  0.3196
  901MOL0     C18823   6.461   2.854   6.459 -0.2480 -0.0912  0.1081
  901MOL0     O18824   6.358   2.852   6.563 -0.2117  0.7504  0.1423
  901MOL0     C18825   6.226   2.869   6.524 -0.1527  0.4005 -0.7874
  901MOL0     C18826   6.148   2.951   6.609  0.2840  1.0664  0.9201
  901MOL0     C18827   6.013   2.981   6.581 -0.3990  0.8817  0.8790
  901MOL0     C18828   5.955   2.940   6.458 -0.0016 -0.3456  0.5393
  901MOL0     C18829   5.817   2.976   6.418 -0.4569 -0.4011  0.5506
  901MOL0     O18830   5.767   2.943   6.294  0.9603 -0.0037  0.3165
  901MOL0     C18831   5.659   2.994   6.233  0.1766 -0.2921  0.6160
  901MOL0     C18832   5.576   3.096   6.282  0.7412  0.2303 -0.1843
  901MOL0     C18833   5.467   3.148   6.212  0.2749 -0.1895 -0.1263
  901MOL0     C18834   5.443   3.099   6.084 -0.1467 -0.4083 -0.1833
  901MOL0     O18835   5.340   3.141   6.006  0.4020 -1.1935 -0.4436
  901MOL0     C18836   5.369   3.254   5.925  0.4340  0.2822 -0.1076
  901MOL0     C18837   5.243   3.335   5.875 -0.1982 -0.2357 -0.4031
  901MOL0     C18838   5.154   3.237   5.788 -0.2949 -0.6404 -0.6390
  901MOL0     C18839   5.017   3.305   5.776 -0.1486  0.2913 -0.2946
  901MOL0     C18840   4.912   3.211   5.720  0.4015  0.4446 -0.0965
  901MOL0     C18841   4.791   3.285   5.673  0.6068 -0.8545  0.2222
  901MOL0     C18842   4.723   3.368   5.785 -0.1740  0.3104 -1.0875
  901MOL0     C18843   4.578   3.389   5.755 -0.9178 -0.2925 -0.6632
  901MOL0    Cl18844   4.484   3.237   5.759 -0.4833  0.1958 -0.0056
  901MOL0     C18845   5.525   3.001   6.028 -0.2116  0.5338 -0.6104
  901MOL0     C18846   5.628   2.947   6.107 -0.1070 -0.0071  0.1368
  901MOL0     O18847   5.774   3.056   6.495 -0.4349 -0.1543 -0.5062
  901MOL0     C18848   6.038   2.856   6.376  0.1714 -0.3812  1.3872
  901MOL0     C18849   6.168   2.826   6.407 -0.2953 -0.1589  0.2664
  901MOL0     N18850   6.993   2.817   6.386  0.2721 -0.0959 -0.3761
  901MOL0     N18851   7.096   2.823   6.306 -0.8877  0.3937 -0.4322
  901MOL0     C18852   8.292   2.750   6.209 -0.6939  0.1983 -0.5617
  901MOL0     C18853   8.430   2.742   6.226 -0.1956  0.3577 -0.3060
  901MOL0     C18854   8.837   2.568   6.367  0.3159  0.5024 -0.1717
  901MOL0     C18855   8.915   2.456   6.418  0.5976 -0.2531  0.5404
  901MOL0     C18856   9.054   2.461   6.398 -0.8460  0.4411  0.3950
  901MOL0     C18857   9.123   2.570   6.341 -0.1085 -0.6289 -0.1667
  901MOL0     O18858   9.260   2.559   6.343  0.2385 -0.2680  0.4146
  901MOL0     C18859   9.329   2.647   6.257 -0.9893 -0.2818 -0.1074
  901MOL0     C18860   9.474   2.632   6.277 -0.3681  0.0577  0.5021
  901MOL0     C18861   9.560   2.726   6.193 -0.3795  0.0191 -0.2246
  901MOL0     C18862   9.708   2.697   6.207 -0.4528  0.9735  0.7541
  901MOL0     C18863   9.770   2.682   6.337  0.2085 -0.5471  0.2350
  901MOL0     C18864   9.822   2.690   6.451  0.4096  0.1901 -0.5109
  901MOL0     C18865   9.049   2.677   6.298  0.4514 -0.2105  0.0922
  901MOL0     C18866   8.908   2.676   6.305  0.0707 -0.1910  0.1547
  901MOL0     H18867   8.454   2.575   6.522 -1.0098 -0.3856  0.1211
  901MOL0     H18868   8.206   2.554   6.477  1.0361  0.1055  1.7382
  901MOL0     H18869   8.018   2.521   6.146 -0.7383 -0.1796 -2.5213
  901MOL0     H18870   8.093   2.655   6.058  1.1348 -0.3943  1.8268
  901MOL0     H18871   7.853   2.639   6.021  6.4534 -0.3121 -2.5390
  901MOL0     H18872   7.899   2.802   6.085 -2.0699  0.8036 -0.2368
  901MOL0     H18873   7.825   2.738   6.296  0.4987  0.8620  0.1335
  901MOL0     H18874   7.778   2.576   6.243  0.4576  0.5326 -2.0912
  901MOL0     H18875   7.605   2.790   6.242  0.3924  2.5101 -0.1064
  901MOL0     H18876   7.667   2.808   6.077 -3.7392 -2.2412 -1.5648
  901MOL0     H18877   7.558   2.548   6.182 -1.0499  1.0416  1.8492
  901MOL0     H18878   7.608   2.577   6.012  0.0825 -0.9599  0.9872
  901MOL0     H18879   7.394   2.607   5.982  1.8074  0.0052 -0.5623
  901MOL0     H18880   7.435   2.773   6.022 -0.5173 -1.1553 -1.9963
  901MOL0     H18881   7.337   2.567   6.238 -3.5657  2.5029  4.3701
  901MOL0     H18882   7.352   2.745   6.252  3.4348  0.9991 -1.5212
  901MOL0     H18883   7.173   2.615   6.048  4.7658  0.4155 -2.6173
  901MOL0     H18884   7.189   2.785   6.068  0.7248  0.0203  1.0086
  901MOL0     H18885   6.974   2.532   6.222  0.9411 -1.0993  0.8693
  901MOL0     H18886   6.817   2.617   6.530  1.0724 -1.2928 -0.7266
  901MOL0     H18887   6.763   2.573   6.366 -1.7834  0.7253  0.6424
  901MOL0     H18888   6.678   2.792   6.318 -0.8669 -0.2975  0.9227
  901MOL0     H18889   6.743   2.857   6.472  1.2222 -1.2539  0.6745
  901MOL0     H18890   6.516   2.649   6.429  1.1622 -0.8209 -0.5350
  901MOL0     H18891   6.553   2.719   6.589  0.2881 -0.2123  0.3639
  901MOL0     H18892   6.422   2.846   6.358 -1.6856  0.6107  0.5785
  901MOL0     H18893   6.504   2.954   6.469 -0.5006  0.5025 -3.3978
  901MOL0     H18894   6.195   2.976   6.704  2.3780  2.4716 -0.4010
  901MOL0     H18895   5.954   3.041   6.651 -0.2881  0.5814  1.2271
  901MOL0     H18896   5.596   3.152   6.373  2.3179  2.4533 -1.7784
  901MOL0     H18897   5.413   3.231   6.254  0.2264 -0.1026 -0.3572
  901MOL0     H18898   5.423   3.210   5.841 -1.0701 -0.6781 -0.6052
  901MOL0     H18899   5.430   3.333   5.970  0.3102  1.2655 -1.6077
  901MOL0     H18900   5.268   3.428   5.824  2.0607 -0.8002 -0.4219
  901MOL0     H18901   5.188   3.361   5.966  0.4454  2.5858 -0.7113
  901MOL0     H18902   5.137   3.140   5.835 -2.2409  0.6791  1.5938
  901MOL0     H18903   5.195   3.220   5.688  1.9131  2.8143 -0.4736
  901MOL0     H18904   4.983   3.330   5.878  3.1129 -1.1388  1.2930
  901MOL0     H18905   5.032   3.396   5.717 -1.0211  0.9672  0.4833
  901MOL0     H18906   4.882   3.139   5.797  0.3516 -0.0173 -0.5382
  901MOL0     H18907   4.957   3.155   5.637  0.1548 -1.0413  0.7493
  901MOL0     H18908   4.726   3.209   5.630 -0.9416  0.1032  0.7680
  901MOL0     H18909   4.811   3.365   5.601  0.2330  0.4180  1.4704
  901MOL0     H18910   4.727   3.317   5.881 -1.8085  3.1162  0.6139
  901MOL0     H18911   4.782   3.460   5.792  2.4972 -1.4362  4.0502
  901MOL0     H18912   4.573   3.435   5.656 -0.1235  0.2291 -0.4764
  901MOL0     H18913   4.539   3.457   5.832 -1.7739 -1.2770 -0.2103
  901MOL0     H18914   5.500   2.952   5.935 -1.6390 -1.4612  0.7477
  901MOL0     H18915   5.699   2.876   6.065 -1.7081 -1.5762 -0.0526
  901MOL0     H18916   6.011   2.820   6.277  0.9876  1.2675  0.5334
  901MOL0     H18917   6.235   2.772   6.340  0.5171  0.3633  0.6370
  901MOL0     H18918   8.260   2.797   6.117 -1.5581 -0.0642 -0.4031
  901MOL0     H18919   8.496   2.785   6.152 -3.0339  3.2963 -1.3990
  901MOL0     H18920   8.869   2.367   6.460 -1.6688  0.5271 -0.1499
  901MOL0     H18921   9.114   2.381   6.440  0.0055  0.1834 -1.2178
  901MOL0     H18922   9.315   2.752   6.284  1.8067 -0.0358  0.7498
  901MOL0     H18923   9.304   2.637   6.151  0.7386 -0.1310 -0.5674
  901MOL0     H18924   9.489   2.655   6.383 -0.6917 -1.9433  1.0176
  901MOL0     H18925   9.495   2.528   6.251 -1.6874 -0.1752  0.2904
  901MOL0     H18926   9.546   2.827   6.232 -0.4180 -0.9445  2.4643
  901MOL0     H18927   9.524   2.736   6.090  1.7418  2.3408 -0.8320
  901MOL0     H18928   9.728   2.608   6.147 -0.2343  0.7870  1.0996
  901MOL0     H18929   9.768   2.771   6.154  1.8158 -1.3439 -0.1103
  901MOL0     H18930   9.854   2.683   6.553  0.6129  0.8395 -0.5291
  901MOL0     H18931   9.096   2.770   6.266 -0.7810  0.7752  1.0339
  901MOL0     H18932   8.852   2.759   6.263 -0.2242  0.6351  2.0455
  902MOL0     O18933   7.464   7.960   8.503  0.1003 -0.8785  0.0730
  902MOL0     C18934   7.510   8.067   8.542  0.3130 -0.7384  0.3601
  902MOL0     O18935   7.452   8.193   8.530 -0.4970 -0.8744 -0.1956
  902MOL0     C18936   7.324   8.212   8.486  0.9587  0.1966  0.0798
  902MOL0     C18937   7.265   8.330   8.534  0.4501 -0.3854  0.8470
  902MOL0     C18938   7.139   8.376   8.499 -0.5568 -0.3720  0.0772
  902MOL0     C18939   7.065   8.296   8.407 -0.0235 -0.2691  0.6306
  902MOL0     O18940   6.935   8.319   8.370  0.2236 -0.1909  0.0557
  902MOL0     C18941   6.864   8.438   8.404  0.8143 -0.2825 -0.4643
  902MOL0     C18942   6.748   8.442   8.303 -0.7125  0.5448 -0.5733
  902MOL0     C18943   6.642   8.327   8.311 -0.3933  0.5105  0.0595
  902MOL0     C18944   6.513   8.365   8.233 -0.3559 -0.1752  0.7547
  902MOL0     C18945   6.384   8.300   8.279  0.3915  0.1136  0.7041
  902MOL0     C18946   6.267   8.351   8.195 -0.0497 -1.0520  0.8359
  902MOL0     C18947   6.139   8.280   8.244  0.6870  0.3035  0.1003
  902MOL0     C18948   6.021   8.327   8.175  0.0319 -0.4727  0.6606
  902MOL0     N18949   5.893   8.270   8.217 -0.5225  0.3831  0.4904
  902MOL0     C18950   5.775   8.347   8.226 -0.2041  0.1065  0.5510
  902MOL0     C18951   5.687   8.263   8.270 -0.0897  0.9090 -1.0821
  902MOL0     C18952   5.547   8.298   8.301  0.6197 -0.1050  0.0099
  902MOL0     C18953   5.495   8.210   8.417  0.0259 -0.6152 -0.0679
  902MOL0     C18954   5.370   8.260   8.481 -0.0878 -0.3654 -0.4232
  902MOL0     C18955   5.331   8.184   8.617 -0.3574 -0.5081 -0.0042
  902MOL0     O18956   5.305   8.052   8.591 -1.2919  0.4380 -0.3592
  902MOL0     C18957   5.184   8.020   8.525  0.2621  1.1274 -0.3592
  902MOL0     C18958   5.183   7.891   8.478 -0.1117 -0.3325  0.8911
  902MOL0     C18959   5.070   7.837   8.408 -0.3888 -0.5443 -0.0016
  902MOL0     C18960   4.953   7.915   8.404  0.6609  0.6295  0.1337
  902MOL0     C18961   4.822   7.858   8.345 -0.0844 -0.4058 -0.6629
  902MOL0     O18962   4.822   7.755   8.254 -0.4726  0.7866  0.0744
  902MOL0     C18963   4.705   7.676   8.237  0.1624 -0.3283  0.7652
  902MOL0     C18964   4.695   7.588   8.133 -0.7280  0.5108 -0.8612
  902MOL0     C18965   4.593   7.494   8.119  0.3349 -0.1762 -1.3698
  902MOL0     C18966   4.495   7.483   8.212  0.0966  0.1453 -0.3834
  902MOL0     O18967   4.396   7.387   8.174  0.2498 -1.0568  0.6235
  902MOL0     C18968   4.273   7.377   8.249 -0.4180 -0.6088  0.0381
  902MOL0     C18969   4.172   7.331   8.144 -0.4787 -0.4160 -0.3599
  902MOL0     C18970   4.036   7.271   8.203  0.7364  0.1735 -0.0752
  902MOL0     C18971   3.970   7.192   8.089  0.5224  0.7254  0.0187
  902MOL0     C18972   3.821   7.186   8.116 -0.1977  0.1928  0.1743
  902MOL0     C18973   3.743   7.188   7.993  0.4237 -0.5818 -0.3102
  902MOL0     C18974   3.603   7.138   8.012  0.4100 -0.5452 -0.2225
  902MOL0     C18975   3.510   7.241   8.071  0.1753 -0.6388 -0.2106
  902MOL0    Cl18976   3.345   7.186   8.121  0.2556 -0.0938 -0.3499
  902MOL0     C18977   4.500   7.561   8.324  0.0083  0.8564  0.2140
  902MOL0     C18978   4.606   7.658   8.340 -1.1647 -0.6108 -0.7236
  902MOL0     O18979   4.724   7.925   8.370 -0.4242 -0.5211  0.3591
  902MOL0     C18980   4.957   8.047   8.453  0.4498  0.2312  0.2783
  902MOL0     C18981   5.071   8.101   8.509  0.0642  0.6200 -0.6382
  902MOL0     N18982   5.744   8.134   8.281  0.1455 -0.9473  0.7460
  902MOL0     N18983   5.868   8.144   8.263  0.1521 -0.0956  0.5933
  902MOL0     C18984   7.123   8.177   8.348 -0.3299 -0.7648  0.0089
  902MOL0     C18985   7.252   8.134   8.382 -0.4833  0.3767 -0.6239
  902MOL0     C18986   7.636   8.068   8.626  0.0225 -0.5417 -0.1976
  902MOL0     C18987   7.672   7.953   8.696  0.4823 -0.5926  0.2492
  902MOL0     C18988   7.797   7.941   8.767  0.4937 -1.2250 -0.1420
  902MOL0     C18989   7.868   8.061   8.776  0.8296 -0.5781  0.4898
  902MOL0     O18990   7.979   8.065   8.847 -0.3074  0.3128 -0.6208
  902MOL0     C18991   8.018   7.950   8.937  0.1223 -0.6367 -0.1059
  902MOL0     C18992   8.078   7.825   8.865  0.1954 -0.4280 -0.4134
  902MOL0     C18993   8.108   7.852   8.722  0.3911  0.0041 -0.2662
  902MOL0     C18994   8.193   7.734   8.665  0.0653  0.5500 -0.2281
  902MOL0     C18995   8.204   7.745   8.518 -0.2969 -0.1444 -0.0271
  902MOL0     C18996   8.218   7.751   8.394  0.1813  0.1560 -1.1301
  902MOL0     C18997   7.834   8.180   8.708  0.3633  0.7361 -0.5912
  902MOL0     C18998   7.719   8.183   8.632 -0.7824  0.9535  0.0683
  902MOL0     H18999   7.334   8.388   8.594  0.8366 -0.4590  0.4775
  902MOL0     H19000   7.106   8.472   8.538  0.7981  0.6038 -1.0718
  902MOL0     H19001   6.928   8.526   8.397  1.0131 -0.1625  1.9603
  902MOL0     H19002   6.832   8.440   8.509  0.1661 -1.5155 -0.6191
  902MOL0     H19003   6.773   8.454   8.197 -2.0426 -0.9442 -1.0929
  902MOL0     H19004   6.686   8.524   8.339 -3.0429 -0.5466 -1.8310
  902MOL0     H19005   6.614   8.311   8.416 -0.4121 -0.3781 -0.0724
  902MOL0     H19006   6.681   8.232   8.272 -3.6345 -0.9179 -0.0015
  902MOL0     H19007   6.485   8.469   8.248 -3.1597 -0.6638 -0.3247
  902MOL0     H19008   6.527   8.346   8.126  0.1310 -0.9226  0.9466
  902MOL0     H19009   6.366   8.339   8.380  0.8943 -1.0842  1.2847
  902MOL0     H19010   6.401   8.192   8.286  1.4549  0.2923  1.0176
  902MOL0     H19011   6.267   8.336   8.087 -2.0020  0.8265  0.5024
  902MOL0     H19012   6.247   8.458   8.211 -1.7739 -1.1629 -0.2852
  902MOL0     H19013   6.140   8.172   8.231  1.7241  0.5536 -2.3482
  902MOL0     H19014   6.123   8.303   8.350  1.3229  0.5564  0.1526
  902MOL0     H19015   6.032   8.301   8.069  1.8914  1.0335  0.4288
  902MOL0     H19016   6.015   8.436   8.166  0.2494  0.0488  4.7425
  902MOL0     H19017   5.755   8.451   8.200 -1.2298 -0.3000 -0.4139
  902MOL0     H19018   5.486   8.287   8.211  1.8685  2.0238 -1.1703
  902MOL0     H19019   5.540   8.403   8.331  0.7856  0.2709 -1.2003
  902MOL0     H19020   5.574   8.229   8.490 -0.2579  1.1002 -0.1639
  902MOL0     H19021   5.470   8.110   8.381 -0.5707  0.2204 -2.1219
  902MOL0     H19022   5.387   8.361   8.518 -1.8235  0.0269 -0.6052
  902MOL0     H19023   5.285   8.269   8.412 -0.7868 -0.6392  0.3937
  902MOL0     H19024   5.242   8.227   8.663 -0.3682 -0.4127 -0.1141
  902MOL0     H19025   5.409   8.191   8.693  1.2831  1.3530 -1.7309
  902MOL0     H19026   5.274   7.832   8.486 -0.6951 -1.4013 -0.0401
  902MOL0     H19027   5.078   7.734   8.373 -1.4796 -0.5389 -0.3207
  902MOL0     H19028   4.765   7.587   8.050 -1.3132  1.5537 -1.3861
  902MOL0     H19029   4.601   7.434   8.029 -2.0265 -2.3950 -0.2345
  902MOL0     H19030   4.255   7.478   8.287  1.8805 -0.1175 -0.0837
  902MOL0     H19031   4.290   7.307   8.331 -0.9260 -0.8815 -0.0819
  902MOL0     H19032   4.227   7.255   8.087  0.1245 -0.9511  0.8942
  902MOL0     H19033   4.153   7.412   8.073 -0.8878  2.1963  2.5205
  902MOL0     H19034   3.978   7.355   8.241 -0.0541 -1.1664  1.8169
  902MOL0     H19035   4.050   7.195   8.280 -2.6141 -0.7457 -0.2036
  902MOL0     H19036   3.995   7.238   7.993  0.5448  2.2946  0.7581
  902MOL0     H19037   4.011   7.090   8.087 -0.4255  0.3405 -0.5691
  902MOL0     H19038   3.788   7.272   8.174  2.9857 -0.2576  2.9266
  902MOL0     H19039   3.798   7.099   8.178  1.1542  0.7840  1.5734
  902MOL0     H19040   3.795   7.118   7.927 -0.2456 -2.2454  0.8785
  902MOL0     H19041   3.740   7.288   7.947  1.0680  0.0849  1.0461
  902MOL0     H19042   3.572   7.102   7.913 -0.3116 -2.0352  0.5159
  902MOL0     H19043   3.606   7.057   8.085  0.6430  0.1849  0.5861
  902MOL0     H19044   3.507   7.323   7.999  0.1948 -0.9483 -0.5717
  902MOL0     H19045   3.551   7.275   8.166  0.2799 -4.1009  1.1486
  902MOL0     H19046   4.432   7.554   8.408  2.2663 -1.9073  1.9462
  902MOL0     H19047   4.615   7.715   8.432 -2.5952 -0.5745 -0.5867
  902MOL0     H19048   4.880   8.117   8.422  0.3558  0.2249  0.4926
  902MOL0     H19049   5.063   8.204   8.544 -0.5235  0.1029  0.7947
  902MOL0     H19050   7.066   8.132   8.267  1.4753 -0.2805 -1.5686
  902MOL0     H19051   7.302   8.045   8.344 -0.6408 -0.9678  2.0767
  902MOL0     H19052   7.608   7.866   8.683 -1.2316  0.6908 -0.2189
  902MOL0     H19053   7.832   7.845   8.801 -0.0960 -1.8147 -1.1572
  902MOL0     H19054   7.933   7.929   9.003 -0.8875  4.6143  0.7340
  902MOL0     H19055   8.096   7.983   9.006  0.1580  0.6403 -0.7219
  902MOL0     H19056   8.161   7.786   8.924 -1.2162 -2.6563  0.2075
  902MOL0     H19057   8.004   7.745   8.867 -0.7284  0.4219  0.6090
  902MOL0     H19058   8.153   7.950   8.706  1.2727 -0.3300  0.1282
  902MOL0     H19059   8.009   7.840   8.677  1.1985 -1.1149 -1.8554
  902MOL0     H19060   8.289   7.727   8.717  0.0028 -1.9201 -0.3501
  902MOL0     H19061   8.144   7.640   8.691  2.7022 -0.7585  0.3171
  902MOL0     H19062   8.213   7.739   8.288  3.0040  0.6736 -1.3869
  902MOL0     H19063   7.897   8.269   8.713 -1.9827  2.4439  0.3741
  902MOL0     H19064   7.693   8.274   8.579  0.5706 -0.1537 -2.6251
  903MOL0     O19065   8.255   0.106  10.791  0.5009  0.3457  0.4598
  903MOL0     C19066   8.334   0.087  10.699  0.4366  0.1746 -0.5081
  903MOL0     O19067   8.300   0.042  10.577  0.1034  0.0280  0.0233
  903MOL0     C19068   8.168   0.010  10.550  0.2219  0.4971  0.5969
  903MOL0     C19069   8.074   0.112  10.574  0.5051 -0.2416  0.6336
  903MOL0     C19070   7.936   0.088  10.539  0.7158  0.6234 -0.8183
  903MOL0     C19071   7.901  -0.025  10.479 -1.0380 -0.0112 -0.3336
  903MOL0     O19072   7.763  -0.037  10.452  0.0316 -0.2609 -0.1827
  903MOL0     C19073   7.724  -0.149  10.372  0.0079  0.6020  0.7513
  903MOL0     C19074   7.572  -0.144  10.365 -0.3579 -0.2737 -0.9205
  903MOL0     C19075   7.514  -0.252  10.278  1.1140  0.4066  0.3817
  903MOL0     C19076   7.362  -0.251  10.241 -0.0031 -0.2194 -0.6303
  903MOL0     C19077   7.325  -0.375  10.169  0.7599  0.5304  0.0993
  903MOL0     C19078   7.169  -0.360  10.136 -0.4766 -0.1966 -0.4359
  903MOL0     C19079   7.127  -0.495  10.099 -0.5687  0.3341 -0.1900
  903MOL0     C19080   7.182  -0.548   9.963 -0.5634 -0.5461 -1.0208
  903MOL0     N19081   7.091  -0.535   9.846  0.3741  0.0283 -0.7632
  903MOL0     C19082   6.991  -0.624   9.822  0.2710  0.4801  0.0694
  903MOL0     C19083   6.933  -0.589   9.706  0.2224 -0.2400  0.6729
  903MOL0     C19084   6.824  -0.660   9.648  0.0156  0.5580  0.3773
  903MOL0     C19085   6.681  -0.610   9.698 -0.3167  0.2285  0.2933
  903MOL0     C19086   6.648  -0.669   9.838 -0.2284 -0.3406 -0.8314
  903MOL0     C19087   6.491  -0.675   9.864  0.5278 -0.6239  0.5127
  903MOL0     O19088   6.417  -0.776   9.796  0.1763 -0.9505 -1.0763
  903MOL0     C19089   6.274  -0.790   9.802  0.2639 -0.2417  0.2813
  903MOL0     C19090   6.219  -0.908   9.759  0.1265 -0.5746 -0.3389
  903MOL0     C19091   6.083  -0.919   9.765 -0.4573 -0.3178  0.6647
  903MOL0     C19092   5.997  -0.814   9.799 -0.0626  0.6689 -0.1504
  903MOL0     C19093   5.852  -0.822   9.796  0.9983  0.1304 -0.0845
  903MOL0     O19094   5.764  -0.719   9.827 -0.7165  0.6295  0.6472
  903MOL0     C19095   5.634  -0.739   9.806  0.9926  0.3717 -0.7124
  903MOL0     C19096   5.552  -0.807   9.898 -0.0660  0.9283 -0.4665
  903MOL0     C19097   5.422  -0.835   9.876  0.1290 -0.2853 -0.0160
  903MOL0     C19098   5.356  -0.783   9.754 -0.3634 -0.2799 -0.6494
  903MOL0     O19099   5.228  -0.799   9.714  0.0876  0.2828 -0.5282
  903MOL0     C19100   5.145  -0.878   9.809 -0.5104  0.3112 -0.3816
  903MOL0     C19101   5.000  -0.891   9.772 -0.0093 -0.0700 -0.4455
  903MOL0     C19102   4.935  -0.756   9.805 -0.4987 -0.7725  0.4014
  903MOL0     C19103   4.897  -0.729   9.949  0.9977  0.5671 -0.5195
  903MOL0     C19104   4.750  -0.689   9.972 -0.0250 -0.6034  0.3747
  903MOL0     C19105   4.659  -0.806   9.939  0.8618  0.9516  0.2864
  903MOL0     C19106   4.521  -0.758   9.881  0.0675 -0.2236  0.2644
  903MOL0     C19107   4.405  -0.856   9.919 -0.6285  0.5289 -0.0263
  903MOL0    Cl19108   4.367  -0.854  10.091  0.0246  0.0729 -0.3669
  903MOL0     C19109   5.436  -0.721   9.660 -0.9466  0.8357  0.4911
  903MOL0     C19110   5.573  -0.701   9.684  0.7614 -0.0512 -1.1659
  903MOL0     O19111   5.805  -0.937   9.767 -0.3006 -0.1500  0.3191
  903MOL0     C19112   6.057  -0.699   9.842  0.0601  0.3869 -0.6777
  903MOL0     C19113   6.192  -0.691   9.854 -0.7335  0.7406 -0.9459
  903MOL0     N19114   7.001  -0.480   9.661 -0.3677  0.1753  0.0291
  903MOL0     N19115   7.099  -0.452   9.742 -0.9617 -0.1840 -0.0105
  903MOL0     C19116   7.993  -0.136  10.471  0.3239 -0.3043  0.1784
  903MOL0     C19117   8.128  -0.107  10.507 -0.4265  0.2828  0.5562
  903MOL0     C19118   8.482   0.099  10.731  0.3353 -0.4350 -0.3919
  903MOL0     C19119   8.573   0.126  10.629  0.6000  0.2207  0.3138
  903MOL0     C19120   8.708   0.161  10.654  0.0875  0.2824 -0.5189
  903MOL0     C19121   8.750   0.171  10.788 -0.3877 -0.0330 -0.2567
  903MOL0     O19122   8.877   0.212  10.798 -0.6903 -0.1474  0.0587
  903MOL0     C19123   8.929   0.219  10.933  0.4377 -0.5864  0.4684
  903MOL0     C19124   9.062   0.291  10.931  0.5328  0.3387 -0.1631
  903MOL0     C19125   9.043   0.440  10.915  0.9338  0.8536 -0.3851
  903MOL0     C19126   9.164   0.523  10.928 -0.1995 -0.3574 -0.2791
  903MOL0     C19127   9.124   0.665  10.934  0.0754  0.5002 -0.6759
  903MOL0     C19128   9.109   0.779  10.952 -0.2242  0.3549  0.0410
  903MOL0     C19129   8.651   0.145  10.891  0.1287 -0.1329  0.0449
  903MOL0     C19130   8.519   0.113  10.866 -0.1680  0.0378 -0.3329
  903MOL0     H19131   8.113   0.206  10.609 -1.6761  0.8443  0.3702
  903MOL0     H19132   7.852   0.157  10.546  0.6742  0.8093 -2.6828
  903MOL0     H19133   7.757  -0.246  10.411  0.5043  1.6340  3.0916
  903MOL0     H19134   7.752  -0.135  10.267 -0.2688  3.5192  0.9837
  903MOL0     H19135   7.531  -0.043  10.352  0.5001  0.6649  2.5843
  903MOL0     H19136   7.542  -0.175  10.466 -0.6376 -1.0798 -1.2415
  903MOL0     H19137   7.539  -0.349  10.323  0.0720 -1.9867 -3.6366
  903MOL0     H19138   7.564  -0.264  10.182  0.3217  2.5632 -0.3582
  903MOL0     H19139   7.303  -0.249  10.333  1.5745  3.5930  0.4823
  903MOL0     H19140   7.337  -0.161  10.184  2.0741  1.4420  0.8965
  903MOL0     H19141   7.328  -0.454  10.245  0.3976  2.1508  1.8809
  903MOL0     H19142   7.392  -0.402  10.087  0.3423 -1.3448  0.3299
  903MOL0     H19143   7.152  -0.292  10.052 -0.1141  0.2314 -0.1726
  903MOL0     H19144   7.119  -0.321  10.225  0.7348  0.8455 -0.1708
  903MOL0     H19145   7.153  -0.568  10.177  0.3405 -0.1567 -0.9384
  903MOL0     H19146   7.018  -0.506  10.096 -0.4174 -1.4833 -0.3813
  903MOL0     H19147   7.196  -0.654   9.984 -2.0328 -0.4385  0.7309
  903MOL0     H19148   7.287  -0.518   9.952 -0.0942 -1.7903 -0.1019
  903MOL0     H19149   6.960  -0.704   9.889  3.3042 -1.6153 -0.7902
  903MOL0     H19150   6.835  -0.764   9.681  0.8400  0.3502 -0.5090
  903MOL0     H19151   6.829  -0.672   9.540  1.7284  0.8952  0.3902
  903MOL0     H19152   6.597  -0.646   9.639 -1.8673 -1.3476  3.2270
  903MOL0     H19153   6.671  -0.501   9.703 -2.5573  0.0281  2.0491
  903MOL0     H19154   6.696  -0.766   9.855 -0.2661 -0.0992  0.8243
  903MOL0     H19155   6.682  -0.601   9.916  0.6377 -0.5473 -1.0193
  903MOL0     H19156   6.444  -0.577   9.850  2.5590  0.8153  2.9463
  903MOL0     H19157   6.479  -0.695   9.970  0.3244  1.8679  1.0203
  903MOL0     H19158   6.277  -0.992   9.720  0.6512  1.0535 -3.3295
  903MOL0     H19159   6.046  -1.021   9.755 -1.0089 -0.2670  1.9742
  903MOL0     H19160   5.596  -0.845   9.990  0.7905  0.2842 -1.1262
  903MOL0     H19161   5.370  -0.891   9.954 -1.0342 -0.1094 -0.6397
  903MOL0     H19162   5.154  -0.846   9.913  0.8751 -2.8303  0.5830
  903MOL0     H19163   5.169  -0.985   9.803  0.0753  0.3685  0.6676
  903MOL0     H19164   4.943  -0.967   9.826 -1.2751  0.4480 -1.0224
  903MOL0     H19165   4.985  -0.928   9.670  2.9890 -0.2498 -0.9230
  903MOL0     H19166   4.839  -0.757   9.753 -0.0671 -3.0382 -0.4313
  903MOL0     H19167   4.999  -0.679   9.759 -1.9479 -1.5963 -3.3159
  903MOL0     H19168   4.926  -0.811  10.016  3.2184  0.9713 -0.9275
  903MOL0     H19169   4.960  -0.650   9.989  2.2046 -1.8274  2.7727
  903MOL0     H19170   4.729  -0.603   9.907  0.6780 -1.2026 -0.6746
  903MOL0     H19171   4.729  -0.665  10.076 -1.6962 -1.3646  0.2359
  903MOL0     H19172   4.632  -0.867  10.025 -0.1893 -0.4629 -0.9924
  903MOL0     H19173   4.700  -0.884   9.875 -0.7932 -1.1043  1.6081
  903MOL0     H19174   4.493  -0.658   9.914 -0.6140 -0.1760 -0.4286
  903MOL0     H19175   4.540  -0.760   9.773  0.0143  0.3109  0.2449
  903MOL0     H19176   4.420  -0.962   9.895 -0.6486  0.6756 -0.7129
  903MOL0     H19177   4.313  -0.829   9.865  0.2330 -0.1111 -1.9195
  903MOL0     H19178   5.393  -0.688   9.566 -1.2261 -2.1964 -0.5579
  903MOL0     H19179   5.623  -0.646   9.604  0.8846 -1.3498 -2.0072
  903MOL0     H19180   6.005  -0.606   9.861  0.2818 -0.0058  2.1961
  903MOL0     H19181   6.231  -0.601   9.900 -1.2046  0.7061 -0.4637
  903MOL0     H19182   7.961  -0.231  10.432  2.4068 -0.3147 -1.6699
  903MOL0     H19183   8.195  -0.191  10.494  2.8231  2.3278  2.7224
  903MOL0     H19184   8.529   0.128  10.530  0.4042  1.8666  0.4191
  903MOL0     H19185   8.780   0.164  10.572 -2.0797  1.9932 -2.5068
  903MOL0     H19186   8.931   0.117  10.971 -1.0858 -0.6966  0.3186
  903MOL0     H19187   8.865   0.275  11.002  1.2379  1.3937 -0.3128
  903MOL0     H19188   9.112   0.267  11.025 -1.3957  0.5806  0.9834
  903MOL0     H19189   9.134   0.253  10.858  2.3569  1.5232  0.9488
  903MOL0     H19190   8.977   0.471  10.996  1.1455 -3.1087  1.5080
  903MOL0     H19191   8.998   0.469  10.819 -0.5346  0.7816  0.2667
  903MOL0     H19192   9.217   0.506  11.022 -0.8180 -1.8119 -0.1744
  903MOL0     H19193   9.234   0.499  10.848  0.7919 -1.0511  0.7740
  903MOL0     H19194   9.099   0.884  10.973 -0.2011  0.5940 -1.0795
  903MOL0     H19195   8.679   0.159  10.995  2.5908  0.5097 -0.6378
  903MOL0     H19196   8.448   0.124  10.947 -0.0345  1.0480 -0.3483
  904MOL0     O19197   2.582   6.608   4.973  0.7266 -0.0610  0.1763
  904MOL0     C19198   2.619   6.672   4.872 -0.2394  0.9673 -1.2757
  904MOL0     O19199   2.535   6.704   4.763  0.7385  0.8631  0.1677
  904MOL0     C19200   2.405   6.669   4.773  0.2664  0.3906  0.1797
  904MOL0     C19201   2.348   6.541   4.778 -0.0632 -0.0066  0.0984
  904MOL0     C19202   2.211   6.529   4.777  0.6136 -0.2580 -0.1459
  904MOL0     C19203   2.129   6.644   4.771 -0.3238  0.5596 -0.7234
  904MOL0     O19204   1.989   6.635   4.780  0.7097 -0.7197 -0.1904
  904MOL0     C19205   1.914   6.507   4.783 -1.1237 -0.1930  0.3886
  904MOL0     C19206   1.772   6.536   4.753 -0.5536  0.3423 -0.4734
  904MOL0     C19207   1.692   6.621   4.857 -0.0838 -0.5556  0.1093
  904MOL0     C19208   1.564   6.679   4.791  0.3707  0.4055  0.5678
  904MOL0     C19209   1.467   6.587   4.718 -0.2244 -0.9075 -0.5971
  904MOL0     C19210   1.418   6.491   4.827  0.3486 -0.4326 -0.5750
  904MOL0     C19211   1.306   6.403   4.778 -0.0712  0.2370  0.9407
  904MOL0     C19212   1.160   6.459   4.799 -0.2416  0.7271  0.0191
  904MOL0     N19213   1.115   6.575   4.714  0.2563  0.1598  0.3080
  904MOL0     C19214   1.026   6.669   4.765 -0.0056 -0.6154 -0.0558
  904MOL0     C19215   0.946   6.700   4.664  0.1449  0.0333  0.0826
  904MOL0     C19216   0.822   6.778   4.703  0.0911 -0.3989  0.2800
  904MOL0     C19217   0.701   6.715   4.634  0.2731  0.2506  0.4111
  904MOL0     C19218   0.582   6.807   4.657  0.0258 -0.5549 -0.0178
  904MOL0     C19219   0.457   6.725   4.644 -0.4442  0.2319  0.0764
  904MOL0     O19220   0.350   6.793   4.701  0.4059 -0.1840  0.6164
  904MOL0     C19221   0.223   6.747   4.679  1.2872  0.5613 -0.5261
  904MOL0     C19222   0.180   6.686   4.561 -0.4507  0.0379  0.7374
  904MOL0     C19223   0.045   6.656   4.537  0.3044 -0.0129 -0.3203
  904MOL0     C19224  -0.045   6.679   4.638  0.4490 -0.0185  0.6360
  904MOL0     C19225  -0.186   6.646   4.618 -0.6212 -0.3068 -1.0369
  904MOL0     O19226  -0.235   6.613   4.495  0.7103 -0.2266  0.1101
  904MOL0     C19227  -0.372   6.618   4.482  0.7409 -0.8033  0.3747
  904MOL0     C19228  -0.466   6.520   4.515  0.3501 -0.6484  0.2004
  904MOL0     C19229  -0.606   6.539   4.509 -0.5444  0.0383 -0.0779
  904MOL0     C19230  -0.658   6.660   4.457 -0.6423 -0.2261 -0.2604
  904MOL0     O19231  -0.790   6.683   4.417  0.5756  0.7138 -0.3368
  904MOL0     C19232  -0.885   6.623   4.508  0.0923  0.3077 -0.5602
  904MOL0     C19233  -0.985   6.727   4.541 -0.3160  0.3702  1.1370
  904MOL0     C19234  -1.071   6.774   4.427  0.3440  0.3863  0.0958
  904MOL0     C19235  -1.202   6.825   4.482  0.0770  0.2093 -0.0183
  904MOL0     C19236  -1.306   6.870   4.373  0.4376 -0.4194  0.0293
  904MOL0     C19237  -1.344   6.783   4.257  0.2247  0.1169  0.0079
  904MOL0     C19238  -1.464   6.853   4.181 -1.0390  0.3592 -0.5376
  904MOL0     C19239  -1.509   6.760   4.061 -0.1764  0.4695  0.3927
  904MOL0    Cl19240  -1.434   6.780   3.902  0.1558 -0.3745 -0.7910
  904MOL0     C19241  -0.565   6.763   4.418  0.3858  0.3793 -0.0307
  904MOL0     C19242  -0.432   6.737   4.432  0.7244  0.1470  0.7217
  904MOL0     O19243  -0.260   6.663   4.713 -0.4603 -0.2792 -0.2234
  904MOL0     C19244  -0.001   6.721   4.767  0.0861 -0.5039  0.3706
  904MOL0     C19245   0.131   6.761   4.784  0.0341 -0.4123 -0.4417
  904MOL0     N19246   0.996   6.632   4.555  0.1536  0.4484  0.0126
  904MOL0     N19247   1.091   6.549   4.585  0.2834  0.7033 -0.5947
  904MOL0     C19248   2.184   6.769   4.763 -0.2745 -0.2027 -0.2637
  904MOL0     C19249   2.319   6.778   4.754  0.6639 -0.1166  0.1077
  904MOL0     C19250   2.762   6.709   4.856 -0.0034  0.0649  0.1911
  904MOL0     C19251   2.819   6.783   4.966 -0.9595 -1.5916  0.3796
  904MOL0     C19252   2.956   6.825   4.944  0.3579  0.7539  0.0128
  904MOL0     C19253   3.026   6.811   4.820  0.1750 -0.3110 -0.2887
  904MOL0     O19254   3.153   6.857   4.792  0.6343 -0.5554 -0.6929
  904MOL0     C19255   3.175   6.999   4.829 -0.5846 -0.4246  0.1037
  904MOL0     C19256   3.302   7.049   4.760 -0.0550 -0.0992  0.0597
  904MOL0     C19257   3.437   6.998   4.802 -0.1898 -0.2518 -0.0175
  904MOL0     C19258   3.547   7.081   4.742 -0.4206  0.3633  0.3436
  904MOL0     C19259   3.674   7.074   4.814  0.0347  0.8059  0.4367
  904MOL0     C19260   3.781   7.074   4.868  0.4159 -0.7135  0.0943
  904MOL0     C19261   2.962   6.741   4.717 -0.0331 -1.3912  0.0450
  904MOL0     C19262   2.830   6.696   4.730  0.1434  0.3179 -0.3838
  904MOL0     H19263   2.417   6.458   4.788  0.1356  0.0536 -0.7230
  904MOL0     H19264   2.170   6.428   4.779 -1.5568  0.5221 -1.2565
  904MOL0     H19265   1.914   6.456   4.880  0.3347 -0.6057  0.2020
  904MOL0     H19266   1.955   6.434   4.713  1.5066  1.5401 -0.0145
  904MOL0     H19267   1.708   6.448   4.744  0.1775 -0.3306  0.6877
  904MOL0     H19268   1.769   6.585   4.655  3.8977 -1.8142 -1.9410
  904MOL0     H19269   1.757   6.706   4.881  1.6432 -2.2736  1.8872
  904MOL0     H19270   1.672   6.565   4.949 -1.1174 -2.2591 -1.0904
  904MOL0     H19271   1.504   6.718   4.875 -0.4484 -2.3625  1.3790
  904MOL0     H19272   1.605   6.755   4.724  2.2532  2.0281  3.3606
  904MOL0     H19273   1.519   6.537   4.636  0.7890 -1.1666  0.1884
  904MOL0     H19274   1.385   6.638   4.667  1.7718  0.9501 -2.1416
  904MOL0     H19275   1.374   6.542   4.913 -0.5834  1.2866 -1.9921
  904MOL0     H19276   1.502   6.427   4.855  0.9564  1.2852  1.8465
  904MOL0     H19277   1.324   6.369   4.676 -2.5891 -0.4106  0.6489
  904MOL0     H19278   1.306   6.316   4.844 -0.3900  0.7250  1.5974
  904MOL0     H19279   1.160   6.481   4.906 -1.2029  0.2069  0.1417
  904MOL0     H19280   1.085   6.381   4.780 -2.9509  2.7200  1.7080
  904MOL0     H19281   1.016   6.702   4.868  1.2791 -1.5118  0.3722
  904MOL0     H19282   0.827   6.876   4.653 -1.2592 -1.1431 -1.4054
  904MOL0     H19283   0.801   6.785   4.810 -0.2884  0.3528  0.1651
  904MOL0     H19284   0.670   6.616   4.668 -0.2828 -0.4476 -1.9489
  904MOL0     H19285   0.710   6.706   4.526 -0.1178  1.7754  0.2342
  904MOL0     H19286   0.576   6.848   4.758 -2.3355 -0.9717  0.0757
  904MOL0     H19287   0.575   6.891   4.587  2.2529 -2.8267 -3.3053
  904MOL0     H19288   0.458   6.636   4.708 -0.6986  1.4838  1.8929
  904MOL0     H19289   0.449   6.695   4.539 -1.1555  0.1102  0.1624
  904MOL0     H19290   0.252   6.671   4.481 -1.3503  1.4143 -0.3577
  904MOL0     H19291   0.018   6.612   4.441 -0.7770 -3.4607  1.4019
  904MOL0     H19292  -0.430   6.433   4.570  1.2616  0.3256  1.2073
  904MOL0     H19293  -0.667   6.455   4.541  0.9204 -0.8110  0.5631
  904MOL0     H19294  -0.851   6.590   4.607  0.9367  1.7529 -0.3441
  904MOL0     H19295  -0.938   6.543   4.456  0.2449 -0.4454  0.4153
  904MOL0     H19296  -0.942   6.814   4.591 -0.4866  0.0547  1.8487
  904MOL0     H19297  -1.043   6.678   4.620 -2.3050 -1.1588 -1.1272
  904MOL0     H19298  -1.094   6.690   4.361 -4.2348 -0.8344  2.7999
  904MOL0     H19299  -1.028   6.855   4.365 -3.6325  0.9336 -2.2775
  904MOL0     H19300  -1.254   6.754   4.547 -5.7616  1.0952 -3.0362
  904MOL0     H19301  -1.192   6.914   4.545  2.7705 -0.0961  0.0887
  904MOL0     H19302  -1.275   6.969   4.339 -1.0948 -0.3415 -1.2175
  904MOL0     H19303  -1.396   6.884   4.434  1.4694 -0.1366  1.5607
  904MOL0     H19304  -1.379   6.683   4.285 -2.3982  0.5135 -1.6090
  904MOL0     H19305  -1.255   6.771   4.194  1.7213  2.5777  1.4927
  904MOL0     H19306  -1.545   6.873   4.251 -0.2060  0.9941  0.2729
  904MOL0     H19307  -1.434   6.944   4.129 -2.6300  0.1623 -1.8954
  904MOL0     H19308  -1.614   6.784   4.041 -0.8407 -2.6892 -0.4205
  904MOL0     H19309  -1.513   6.654   4.088 -3.7119  0.6720  1.2412
  904MOL0     H19310  -0.599   6.861   4.385  1.2010  0.5622 -0.3509
  904MOL0     H19311  -0.357   6.807   4.397  0.2972 -0.3738 -1.3264
  904MOL0     H19312  -0.063   6.727   4.856 -0.0470 -0.9968  0.3143
  904MOL0     H19313   0.169   6.786   4.882 -3.8382 -0.2156  1.1930
  904MOL0     H19314   2.130   6.856   4.728  5.6140  2.4637 -4.1680
  904MOL0     H19315   2.349   6.880   4.732 -2.7326  2.2030  4.4665
  904MOL0     H19316   2.757   6.807   5.051  0.4050  2.3923  0.4768
  904MOL0     H19317   3.007   6.881   5.022 -0.9317  2.2955 -0.2086
  904MOL0     H19318   3.197   7.029   4.932  0.6304 -1.3198  0.1339
  904MOL0     H19319   3.088   7.054   4.795  0.4610  0.1643 -1.7456
  904MOL0     H19320   3.296   7.023   4.654  0.4510  1.8600 -0.4912
  904MOL0     H19321   3.290   7.157   4.772  0.4002 -0.0003 -0.3400
  904MOL0     H19322   3.457   6.892   4.784  3.4318 -0.3746  3.3154
  904MOL0     H19323   3.441   7.008   4.911  0.5034 -2.0421  0.1510
  904MOL0     H19324   3.566   7.052   4.638 -0.5835  0.1737  0.3671
  904MOL0     H19325   3.511   7.185   4.737 -0.1895  0.3862 -1.5516
  904MOL0     H19326   3.868   7.076   4.930  0.5746 -0.5736 -0.1318
  904MOL0     H19327   3.019   6.742   4.625 -0.6530  0.4937 -0.3676
  904MOL0     H19328   2.785   6.654   4.641  2.9416 -0.4742 -1.5479
  905MOL0     O19329  10.934  10.961   8.554  0.4818  0.0426 -0.1125
  905MOL0     C19330  10.995  11.070   8.545 -0.8643 -0.2580 -0.2611
  905MOL0     O19331  10.941  11.195   8.553  0.3879 -0.0375  0.8931
  905MOL0     C19332  10.807  11.210   8.579 -0.6457 -1.0695  0.6959
  905MOL0     C19333  10.783  11.339   8.614  0.1781 -0.1684 -0.9635
  905MOL0     C19334  10.655  11.376   8.659  0.6625 -0.5518  0.9822
  905MOL0     C19335  10.552  11.281   8.671 -0.3966 -1.0455  0.2731
  905MOL0     O19336  10.427  11.321   8.724 -0.0684 -0.1502 -0.2842
  905MOL0     C19337  10.325  11.314   8.616  0.2670 -0.9167  0.5591
  905MOL0     C19338  10.193  11.372   8.659 -0.2930  0.5062 -0.7062
  905MOL0     C19339  10.103  11.361   8.541 -0.5109 -0.1212 -0.5316
  905MOL0     C19340   9.972  11.443   8.579 -0.1854  0.2144 -0.1651
  905MOL0     C19341   9.866  11.425   8.474  0.4426  0.1274  0.4807
  905MOL0     C19342   9.818  11.276   8.454  0.0149  0.7514 -0.6364
  905MOL0     C19343   9.767  11.199   8.575 -0.5834  0.1033  0.7588
  905MOL0     C19344   9.630  11.238   8.625  0.2396  0.0511 -0.2571
  905MOL0     N19345   9.516  11.233   8.535  0.0708 -0.2197 -0.5123
  905MOL0     C19346   9.443  11.121   8.490 -0.1452 -0.6455  0.9616
  905MOL0     C19347   9.341  11.184   8.423 -0.3601  0.6619  0.7194
  905MOL0     C19348   9.239  11.107   8.349  0.9930 -0.3826  1.2172
  905MOL0     C19349   9.224  11.159   8.200 -0.3875  0.2228 -0.3702
  905MOL0     C19350   9.128  11.070   8.133  0.7023  0.0102 -0.3903
  905MOL0     C19351   9.101  11.108   7.986  0.6495 -0.1561 -0.4223
  905MOL0     O19352   9.021  11.236   7.978  0.5288  0.0574  0.2534
  905MOL0     C19353   8.884  11.214   7.987  0.5200 -0.5682 -0.1276
  905MOL0     C19354   8.800  11.328   7.947  1.2978  0.7119  0.0628
  905MOL0     C19355   8.655  11.318   7.955  0.2777  0.0904 -0.5936
  905MOL0     C19356   8.597  11.202   8.008  0.3103 -0.1592 -0.1304
  905MOL0     C19357   8.452  11.191   8.012  0.3164 -0.2221  0.9933
  905MOL0     O19358   8.403  11.069   8.057  0.1272 -0.7516  0.8464
  905MOL0     C19359   8.269  11.050   8.041 -0.1154  0.2168 -1.1798
  905MOL0     C19360   8.225  11.029   7.918 -0.1166  0.5983 -0.9104
  905MOL0     C19361   8.093  10.988   7.886 -0.4496  0.3645 -0.4864
  905MOL0     C19362   7.990  10.987   7.982 -0.0644 -0.0382  0.2061
  905MOL0     O19363   7.861  10.940   7.951  0.5211  0.2689  0.1747
  905MOL0     C19364   7.833  10.879   7.831 -0.1378  0.1969  0.6401
  905MOL0     C19365   7.681  10.888   7.821 -0.6996  0.0342  0.3459
  905MOL0     C19366   7.621  10.803   7.712 -0.0209  0.0438 -0.0557
  905MOL0     C19367   7.475  10.845   7.689  0.1765  0.1168 -0.3733
  905MOL0     C19368   7.408  10.749   7.596 -0.1895 -0.1675  0.6187
  905MOL0     C19369   7.262  10.786   7.588  1.1336 -0.0189 -0.1075
  905MOL0     C19370   7.177  10.694   7.493  0.0406  1.1269 -0.7294
  905MOL0     C19371   7.089  10.767   7.395  0.0383 -0.0156  0.0469
  905MOL0    Cl19372   7.024  10.650   7.263  0.1387 -0.0685  0.2938
  905MOL0     C19373   8.035  11.025   8.113  0.9116 -0.6802  0.5671
  905MOL0     C19374   8.168  11.040   8.141  0.0459  0.1948 -0.2197
  905MOL0     O19375   8.380  11.283   7.961 -0.0775  0.4113  0.6175
  905MOL0     C19376   8.686  11.094   8.041  0.0951 -0.1108 -0.3487
  905MOL0     C19377   8.827  11.101   8.035  0.2679  0.5961  1.7000
  905MOL0     N19378   9.348  11.327   8.420  0.3185  0.4907 -0.8380
  905MOL0     N19379   9.453  11.351   8.491 -0.3413 -0.4267 -0.1786
  905MOL0     C19380  10.578  11.149   8.636 -0.0569  0.1437 -0.6011
  905MOL0     C19381  10.702  11.122   8.586 -0.1679  0.1359  0.0842
  905MOL0     C19382  11.143  11.070   8.578 -0.2288 -0.0501  0.4338
  905MOL0     C19383  11.217  11.183   8.638 -0.1151  0.3674 -0.7033
  905MOL0     C19384  11.358  11.187   8.667 -0.5823  0.1473 -0.0033
  905MOL0     C19385  11.432  11.071   8.635  0.1933  0.1736 -0.4747
  905MOL0     O19386  11.566  11.054   8.647 -0.6717 -0.2972  0.2845
  905MOL0     C19387  11.657  11.161   8.665 -0.3583 -0.3886 -0.0130
  905MOL0     C19388  11.803  11.111   8.667 -0.1533 -0.7977 -0.6423
  905MOL0     C19389  11.889  11.228   8.700 -1.2035 -0.3104  0.8310
  905MOL0     C19390  12.043  11.189   8.700  0.6761 -0.0317 -0.4296
  905MOL0     C19391  12.094  11.154   8.570 -0.5536  0.0518  0.1293
  905MOL0     C19392  12.151  11.119   8.465 -0.7653 -0.3838  0.4892
  905MOL0     C19393  11.364  10.960   8.584  0.1010 -0.0427 -0.0037
  905MOL0     C19394  11.223  10.962   8.554 -0.0379 -0.5784  0.6631
  905MOL0     H19395  10.852  11.421   8.599 -0.9766  1.1063  0.3619
  905MOL0     H19396  10.624  11.478   8.676 -1.8532 -0.9464 -0.7834
  905MOL0     H19397  10.309  11.209   8.588 -0.6265 -0.9060  1.0017
  905MOL0     H19398  10.356  11.357   8.521 -0.6518 -0.9141  0.2544
  905MOL0     H19399  10.201  11.474   8.699 -0.8723 -1.0007  3.7098
  905MOL0     H19400  10.158  11.315   8.745  0.2020  1.8120  0.4101
  905MOL0     H19401  10.084  11.257   8.513  1.4505  0.1866 -3.3476
  905MOL0     H19402  10.152  11.404   8.454  1.3907 -2.3660 -0.6644
  905MOL0     H19403   9.932  11.404   8.673  0.2162 -0.2344 -0.1779
  905MOL0     H19404   9.995  11.548   8.595  0.4405 -0.3181  3.0286
  905MOL0     H19405   9.903  11.454   8.375 -1.7411  0.4478 -0.3174
  905MOL0     H19406   9.778  11.484   8.501  0.1893 -0.0354  0.0303
  905MOL0     H19407   9.900  11.223   8.405 -0.8129 -2.4878  1.1675
  905MOL0     H19408   9.739  11.272   8.379 -2.1399  1.2980  1.4633
  905MOL0     H19409   9.762  11.091   8.554 -2.3090  0.1734  0.6522
  905MOL0     H19410   9.842  11.196   8.655 -0.4737 -0.2413  0.6473
  905MOL0     H19411   9.643  11.339   8.666 -1.5020  0.4253 -0.5745
  905MOL0     H19412   9.607  11.167   8.705 -2.7990  0.0864 -0.9836
  905MOL0     H19413   9.475  11.021   8.520 -1.4825 -1.0764  1.0026
  905MOL0     H19414   9.143  11.120   8.400 -0.9492  1.2245 -2.4326
  905MOL0     H19415   9.268  11.002   8.337  1.0372 -0.3305  0.8456
  905MOL0     H19416   9.322  11.171   8.152  0.5786  2.5964  1.9225
  905MOL0     H19417   9.194  11.264   8.209 -2.7317 -0.5549  2.3919
  905MOL0     H19418   9.174  10.971   8.136  0.5368 -0.0866  2.5156
  905MOL0     H19419   9.037  11.080   8.194  2.2579 -1.2024  2.2970
  905MOL0     H19420   9.053  11.022   7.938  0.2873 -0.3950  0.3477
  905MOL0     H19421   9.191  11.122   7.925  1.0764 -1.2875 -0.0734
  905MOL0     H19422   8.850  11.413   7.902  1.0639  0.0723 -1.4527
  905MOL0     H19423   8.601  11.407   7.927  0.2667  1.2071  2.6278
  905MOL0     H19424   8.302  11.029   7.840  2.2215 -0.6942  1.2411
  905MOL0     H19425   8.067  10.965   7.783 -1.5842 -1.5977  0.1942
  905MOL0     H19426   7.861  10.774   7.846 -1.2987 -0.3588 -0.7871
  905MOL0     H19427   7.876  10.924   7.741  3.3665 -1.7118  1.1811
  905MOL0     H19428   7.668  10.997   7.812  1.6078  0.2830 -0.7412
  905MOL0     H19429   7.646  10.847   7.916  1.9243 -0.2968  1.2486
  905MOL0     H19430   7.623  10.696   7.738  0.7873  0.4243  1.5104
  905MOL0     H19431   7.689  10.813   7.627  3.6915 -0.4461  2.6203
  905MOL0     H19432   7.428  10.852   7.787  2.6069  2.5060  0.7376
  905MOL0     H19433   7.478  10.949   7.657  0.2172  0.4960  0.8165
  905MOL0     H19434   7.431  10.647   7.625  2.1691 -0.8151 -2.9270
  905MOL0     H19435   7.446  10.748   7.493  2.0698 -1.0286  1.4033
  905MOL0     H19436   7.253  10.890   7.553 -0.1597 -0.3365 -0.7883
  905MOL0     H19437   7.217  10.788   7.687  0.6936  0.5308 -0.3058
  905MOL0     H19438   7.239  10.617   7.447  0.6485  1.4793 -0.5016
  905MOL0     H19439   7.116  10.639   7.566  1.8773  1.3919  1.1172
  905MOL0     H19440   7.146  10.844   7.342  0.6551  0.3311  1.1854
  905MOL0     H19441   7.001  10.809   7.445 -2.0392 -3.2538 -0.5651
  905MOL0     H19442   7.957  11.029   8.188  0.4610  0.8600  0.0570
  905MOL0     H19443   8.195  11.039   8.246 -0.6502  2.3254  0.0422
  905MOL0     H19444   8.651  10.998   8.079  2.3269 -0.1371  1.8383
  905MOL0     H19445   8.881  11.010   8.060 -0.8758  0.0250  2.1889
  905MOL0     H19446  10.506  11.069   8.650  0.4892 -0.4255 -1.0157
  905MOL0     H19447  10.706  11.018   8.556  0.8560  0.4288 -0.8268
  905MOL0     H19448  11.163  11.276   8.655  0.8994  0.6437  1.2815
  905MOL0     H19449  11.413  11.273   8.705  0.2593 -0.6851  0.6885
  905MOL0     H19450  11.636  11.217   8.756  1.0795 -0.7332  0.5722
  905MOL0     H19451  11.645  11.232   8.583 -1.0605 -1.4739 -0.8796
  905MOL0     H19452  11.816  11.030   8.740 -1.6881  2.0213  3.1442
  905MOL0     H19453  11.820  11.092   8.561 -2.4491  0.9890 -1.4226
  905MOL0     H19454  11.865  11.270   8.798  0.4643 -0.7474  1.4688
  905MOL0     H19455  11.873  11.306   8.625 -0.2580 -0.8703  0.0246
  905MOL0     H19456  12.102  11.276   8.730  3.1096 -1.4508 -0.7438
  905MOL0     H19457  12.058  11.105   8.768  1.4654  0.7156  0.3332
  905MOL0     H19458  12.204  11.077   8.383  1.1078 -0.7328  1.8159
  905MOL0     H19459  11.433  10.882   8.553 -0.9184 -0.8641 -0.2552
  905MOL0     H19460  11.187  10.878   8.495 -0.2324 -0.7122  0.9718
  906MOL0     O19461  10.478   6.927   0.211  0.5628 -0.2099 -0.4353
  906MOL0     C19462  10.500   6.856   0.113  0.5148 -0.2911  0.2531
  906MOL0     O19463  10.403   6.812   0.027 -0.6941 -0.5215 -0.9229
  906MOL0     C19464  10.273   6.847   0.060  0.2364 -0.1734 -0.4507
  906MOL0     C19465  10.211   6.958  -0.000  0.0031 -0.6774  0.7021
  906MOL0     C19466  10.078   6.990   0.024 -1.0206  0.4463  0.0315
  906MOL0     C19467  10.005   6.922   0.116 -0.6166  0.9884  1.1682
  906MOL0     O19468   9.882   6.972   0.146  0.3780  0.3628 -0.1483
  906MOL0     C19469   9.784   6.870   0.184  0.3814  0.7377 -0.5828
  906MOL0     C19470   9.649   6.896   0.116  0.2202 -0.0080 -0.0136
  906MOL0     C19471   9.538   6.885   0.223  0.2602 -0.3350 -0.2567
  906MOL0     C19472   9.419   6.966   0.185  0.8739  0.1868  0.0337
  906MOL0     C19473   9.306   6.959   0.292 -0.6334 -0.1779 -0.0205
  906MOL0     C19474   9.172   7.017   0.245  0.0313  0.5346 -0.1276
  906MOL0     C19475   9.071   7.020   0.361 -0.3864  0.0532  0.1707
  906MOL0     C19476   8.936   7.063   0.307 -0.0196 -0.3743 -0.6323
  906MOL0     N19477   8.840   7.065   0.415  0.1942  0.5480 -0.2183
  906MOL0     C19478   8.748   6.973   0.455 -0.6187 -0.2710  0.7973
  906MOL0     C19479   8.669   7.044   0.532 -0.5222  0.0917 -1.0885
  906MOL0     C19480   8.547   6.965   0.585 -0.5946 -0.1849 -0.0138
  906MOL0     C19481   8.481   7.029   0.702  0.3176 -0.0791  0.4008
  906MOL0     C19482   8.375   7.131   0.664 -0.4047  0.0900  0.2603
  906MOL0     C19483   8.311   7.196   0.777 -0.3707 -0.4010 -1.1918
  906MOL0     O19484   8.238   7.109   0.859  0.8356  0.4880 -0.2193
  906MOL0     C19485   8.164   7.166   0.963 -0.0811  0.5850 -0.2279
  906MOL0     C19486   8.096   7.075   1.042  0.5075  0.4474 -0.7306
  906MOL0     C19487   8.016   7.118   1.147 -0.4472 -0.2344 -0.0319
  906MOL0     C19488   8.005   7.253   1.178 -0.5406 -0.1710 -0.9514
  906MOL0     C19489   7.922   7.300   1.294 -0.0881  0.1889  0.4208
  906MOL0     O19490   7.877   7.432   1.283 -0.9051 -0.4343 -0.3507
  906MOL0     C19491   7.804   7.491   1.386 -0.3694 -0.1240 -0.6040
  906MOL0     C19492   7.854   7.516   1.516 -0.3173 -1.2783 -0.2552
  906MOL0     C19493   7.776   7.587   1.604  0.0100 -0.4714  0.0561
  906MOL0     C19494   7.647   7.633   1.566  1.1127 -1.0747  0.1961
  906MOL0     O19495   7.560   7.672   1.667  0.0051 -0.2184 -0.6057
  906MOL0     C19496   7.418   7.707   1.639 -0.0391 -0.6572 -0.6641
  906MOL0     C19497   7.353   7.765   1.768 -0.0339  0.9171  0.3193
  906MOL0     C19498   7.206   7.751   1.772 -0.0930  0.3702  0.6176
  906MOL0     C19499   7.144   7.812   1.889 -0.4851 -0.8977 -0.6068
  906MOL0     C19500   6.993   7.807   1.891  0.5110  0.2608  0.2102
  906MOL0     C19501   6.933   7.903   1.798  0.1889  0.1030  0.5105
  906MOL0     C19502   6.786   7.900   1.826 -0.4126 -0.2451 -0.3898
  906MOL0     C19503   6.706   7.999   1.737 -0.4078  0.2062  0.0876
  906MOL0    Cl19504   6.737   7.947   1.562 -0.0043 -0.4149  0.3148
  906MOL0     C19505   7.596   7.610   1.432 -0.8565  0.4920  0.0554
  906MOL0     C19506   7.677   7.534   1.346  0.2063 -0.4647 -1.2370
  906MOL0     O19507   7.915   7.226   1.397 -0.2346 -0.6182 -0.4529
  906MOL0     C19508   8.088   7.344   1.106 -0.7793 -0.7490  1.0528
  906MOL0     C19509   8.160   7.302   0.992 -0.4130 -0.8594  0.2053
  906MOL0     N19510   8.717   7.173   0.552 -0.3531  0.1438  0.1781
  906MOL0     N19511   8.824   7.180   0.481  0.3734 -0.1476 -0.1238
  906MOL0     C19512  10.070   6.814   0.191  0.4400 -0.1418 -0.1714
  906MOL0     C19513  10.203   6.777   0.161 -0.5084 -0.4560 -0.7668
  906MOL0     C19514  10.633   6.830   0.076  0.0682  0.7042  0.5863
  906MOL0     C19515  10.734   6.841   0.169  1.3303 -0.0931 -0.0604
  906MOL0     C19516  10.866   6.809   0.152  0.4135 -0.6754 -0.0964
  906MOL0     C19517  10.908   6.758   0.029  1.0619 -0.5114  1.0971
  906MOL0     O19518  11.038   6.723  -0.002  0.5548  0.7500 -0.5071
  906MOL0     C19519  11.133   6.738   0.113 -0.9294 -0.1137  0.2195
  906MOL0     C19520  11.283   6.728   0.067 -0.0342  0.0844  0.4888
  906MOL0     C19521  11.299   6.602  -0.017  0.1081 -0.1349  0.7254
  906MOL0     C19522  11.444   6.576  -0.054  0.0551  0.2239 -0.6682
  906MOL0     C19523  11.505   6.682  -0.132 -0.2370  0.4438 -0.2378
  906MOL0     C19524  11.554   6.772  -0.197  0.1558  1.9064 -0.4045
  906MOL0     C19525  10.807   6.755  -0.074 -1.3966  0.0349  0.3836
  906MOL0     C19526  10.675   6.784  -0.054 -0.5292 -0.7819  0.4457
  906MOL0     H19527  10.274   7.020  -0.063  2.8196 -1.6102  2.3840
  906MOL0     H19528  10.029   7.075  -0.023  1.0786  1.5879 -0.2527
  906MOL0     H19529   9.775   6.849   0.291 -1.0014 -2.1002 -1.1821
  906MOL0     H19530   9.803   6.771   0.141 -1.7282  1.2942 -3.0204
  906MOL0     H19531   9.624   6.821   0.041  2.1172 -0.5588 -0.1412
  906MOL0     H19532   9.653   7.000   0.081  1.9853  0.3139  1.0230
  906MOL0     H19533   9.579   6.932   0.314  1.2796  2.7947 -2.1628
  906MOL0     H19534   9.508   6.782   0.240  0.5340 -0.2472  0.8522
  906MOL0     H19535   9.463   7.065   0.179 -0.5276  0.8749  0.6800
  906MOL0     H19536   9.377   6.936   0.088 -1.7678  1.1693  0.7934
  906MOL0     H19537   9.336   7.007   0.386  0.6984  2.5988 -1.7536
  906MOL0     H19538   9.304   6.854   0.322  1.8535 -0.6849 -1.3693
  906MOL0     H19539   9.128   6.950   0.171  0.0757 -0.7322  0.9609
  906MOL0     H19540   9.196   7.114   0.201  2.0008  0.2103  0.1311
  906MOL0     H19541   9.068   6.919   0.402  2.8744 -0.4436 -0.4641
  906MOL0     H19542   9.100   7.092   0.438 -0.8408 -0.1775  0.5592
  906MOL0     H19543   8.902   7.010   0.218  2.8249  2.3356 -3.5991
  906MOL0     H19544   8.948   7.165   0.269 -1.5272  0.2559  0.5116
  906MOL0     H19545   8.738   6.871   0.418  0.1991 -0.0638 -0.0200
  906MOL0     H19546   8.570   6.863   0.618  0.2446 -0.1140 -0.3454
  906MOL0     H19547   8.476   6.941   0.505  0.4192 -1.0450 -0.6954
  906MOL0     H19548   8.547   7.062   0.783 -0.0512 -0.1898  0.7524
  906MOL0     H19549   8.424   6.942   0.738 -1.0470 -0.0342 -1.4849
  906MOL0     H19550   8.420   7.200   0.592  1.6926  0.6559  1.9959
  906MOL0     H19551   8.296   7.090   0.601  2.2457  1.3773 -4.3216
  906MOL0     H19552   8.246   7.276   0.740  1.1760  1.3640 -0.2626
  906MOL0     H19553   8.394   7.228   0.841 -0.1702  0.6564 -1.9509
  906MOL0     H19554   8.109   6.967   1.033  0.2515  0.1025  2.1052
  906MOL0     H19555   7.965   7.040   1.202 -2.7415 -1.5621 -3.6672
  906MOL0     H19556   7.959   7.498   1.537 -0.1262  0.8841  0.8993
  906MOL0     H19557   7.803   7.608   1.708  0.2032 -1.3839  0.1990
  906MOL0     H19558   7.367   7.614   1.611  1.7504 -1.7623 -0.3531
  906MOL0     H19559   7.416   7.784   1.561  1.7385  1.8789  1.5996
  906MOL0     H19560   7.376   7.872   1.780  0.2740  0.5168  4.9196
  906MOL0     H19561   7.385   7.705   1.853  1.7209 -0.0247 -0.9364
  906MOL0     H19562   7.183   7.644   1.767 -0.0221  0.2493  2.2836
  906MOL0     H19563   7.170   7.806   1.685 -1.4303  0.9898  1.5204
  906MOL0     H19564   7.187   7.768   1.980 -0.1294  2.4705  0.9959
  906MOL0     H19565   7.173   7.917   1.897  0.7693 -1.2734  0.0845
  906MOL0     H19566   6.956   7.824   1.993 -0.0506  0.6202 -0.0511
  906MOL0     H19567   6.962   7.710   1.853 -1.7765  2.0866 -3.0093
  906MOL0     H19568   6.946   7.878   1.693 -1.8075  0.4087  0.1523
  906MOL0     H19569   6.978   8.001   1.813 -0.9856  0.7608 -0.1127
  906MOL0     H19570   6.752   7.797   1.807 -1.0039 -1.0819  4.0344
  906MOL0     H19571   6.767   7.914   1.933 -2.0315  0.6351 -0.7570
  906MOL0     H19572   6.742   8.101   1.753  0.4483 -0.2174  0.9297
  906MOL0     H19573   6.599   7.987   1.758 -0.6921  0.9891 -0.8359
  906MOL0     H19574   7.503   7.650   1.393 -1.5109 -0.6637  0.3806
  906MOL0     H19575   7.645   7.521   1.244  1.8771 -0.9028 -1.7418
  906MOL0     H19576   8.092   7.451   1.125  1.6457  0.4911 -4.4763
  906MOL0     H19577   8.217   7.379   0.940  0.3831  2.0807  4.8679
  906MOL0     H19578  10.004   6.782   0.271  1.2301  1.9609  1.4281
  906MOL0     H19579  10.250   6.695   0.213  1.8254  1.6354  0.6045
  906MOL0     H19580  10.705   6.887   0.263  0.0524 -0.1401 -0.4205
  906MOL0     H19581  10.931   6.841   0.233  1.0756 -0.6519 -0.6279
  906MOL0     H19582  11.123   6.668   0.196  0.6591  1.4018  1.7794
  906MOL0     H19583  11.133   6.839   0.155  3.8754  1.1464 -2.0081
  906MOL0     H19584  11.306   6.812   0.001 -0.3639 -1.6904 -2.0387
  906MOL0     H19585  11.353   6.729   0.150  0.9318  0.6876 -0.3143
  906MOL0     H19586  11.242   6.612  -0.110  1.3257  0.4865  0.0288
  906MOL0     H19587  11.271   6.515   0.043  1.5730 -1.7102 -0.7770
  906MOL0     H19588  11.508   6.549   0.031  2.5997  0.3671 -2.4024
  906MOL0     H19589  11.442   6.491  -0.123 -0.9785  1.5211 -2.2901
  906MOL0     H19590  11.616   6.842  -0.249  2.6872 -0.9827 -1.6209
  906MOL0     H19591  10.848   6.723  -0.170 -0.4052  0.0881  0.7772
  906MOL0     H19592  10.602   6.764  -0.132  0.9741  0.0488 -1.2389
  907MOL0     O19593   7.998   3.468   0.204 -0.5472  0.3071  0.5754
  907MOL0     C19594   7.974   3.373   0.130 -0.1314  0.4332  0.4027
  907MOL0     O19595   7.855   3.340   0.071 -0.0349  0.2786 -0.0577
  907MOL0     C19596   7.755   3.433   0.061 -0.1563  0.5414  0.7221
  907MOL0     C19597   7.766   3.554  -0.006  0.0639 -0.4986  0.1557
  907MOL0     C19598   7.658   3.636  -0.023 -0.3355 -0.2809  0.1032
  907MOL0     C19599   7.536   3.608   0.037 -0.0272 -0.5304  0.6742
  907MOL0     O19600   7.435   3.700   0.006  0.2279 -0.5604  0.2587
  907MOL0     C19601   7.312   3.684   0.083  0.2705  0.7938  0.4930
  907MOL0     C19602   7.194   3.764   0.043 -0.4751 -0.0691  1.0447
  907MOL0     C19603   7.085   3.775   0.145  0.5778 -0.1130  0.7440
  907MOL0     C19604   6.993   3.883   0.088  0.4964 -0.5133 -0.0886
  907MOL0     C19605   6.894   3.913   0.199  0.6080  0.0859  0.0021
  907MOL0     C19606   6.781   4.000   0.139  1.0888 -0.0194 -0.5576
  907MOL0     C19607   6.677   4.029   0.250  0.1390 -0.3739 -0.8598
  907MOL0     C19608   6.727   4.106   0.379  0.6590  0.2353  0.1234
  907MOL0     N19609   6.606   4.162   0.444  0.7291  0.2842  0.3042
  907MOL0     C19610   6.546   4.093   0.548  0.6805  0.1263 -0.4350
  907MOL0     C19611   6.431   4.163   0.580 -0.4695  0.4867  0.6724
  907MOL0     C19612   6.329   4.148   0.684  0.0419 -0.2430 -0.5788
  907MOL0     C19613   6.396   4.079   0.814  0.1489  0.1126 -0.4873
  907MOL0     C19614   6.291   4.072   0.932  0.2516  0.4474 -0.2871
  907MOL0     C19615   6.162   4.003   0.902  0.1353 -0.9014  0.7228
  907MOL0     O19616   6.059   4.073   0.832 -0.5562  0.6659  0.2095
  907MOL0     C19617   5.977   4.171   0.886 -0.7842 -0.2147 -0.4757
  907MOL0     C19618   5.980   4.300   0.828 -0.0217  0.3475 -0.2257
  907MOL0     C19619   5.911   4.407   0.884  0.1127 -0.3184 -0.2812
  907MOL0     C19620   5.821   4.377   0.992 -0.3137 -0.7347  0.0164
  907MOL0     C19621   5.725   4.483   1.048  0.3478 -0.5416  0.6014
  907MOL0     O19622   5.703   4.588   0.963 -0.2139  0.8439 -1.0334
  907MOL0     C19623   5.594   4.678   0.973  0.3033  0.0136 -1.0381
  907MOL0     C19624   5.490   4.669   0.884  0.5463  0.0856 -0.1011
  907MOL0     C19625   5.383   4.756   0.892 -0.1652 -0.2736 -0.4976
  907MOL0     C19626   5.366   4.852   0.993 -0.0938  0.3701 -0.0232
  907MOL0     O19627   5.260   4.951   1.007 -0.0795  0.0660 -0.8303
  907MOL0     C19628   5.133   4.897   0.982  0.6705 -0.0358  0.5369
  907MOL0     C19629   5.016   4.991   1.017  0.7751  0.0081 -0.9182
  907MOL0     C19630   4.892   4.904   1.041  0.4521 -0.4259  0.3665
  907MOL0     C19631   4.764   4.988   1.093 -0.3895  0.8474  0.0439
  907MOL0     C19632   4.778   5.055   1.236  0.6027 -0.1318  0.0324
  907MOL0     C19633   4.639   5.111   1.283  0.5216  0.0159  0.5812
  907MOL0     C19634   4.668   5.198   1.413  0.4045  0.1425  0.2629
  907MOL0     C19635   4.544   5.256   1.481 -0.1949 -0.7802  0.1494
  907MOL0    Cl19636   4.452   5.369   1.364  0.2861 -0.1979 -0.0943
  907MOL0     C19637   5.481   4.860   1.084  0.4769 -0.2522 -0.0431
  907MOL0     C19638   5.595   4.776   1.078 -0.2646  0.2267  0.4517
  907MOL0     O19639   5.668   4.463   1.161 -0.5511  0.2536  0.2678
  907MOL0     C19640   5.831   4.251   1.057 -0.6005  0.1886  0.3311
  907MOL0     C19641   5.902   4.151   0.999 -0.3745  0.6399  0.6699
  907MOL0     N19642   6.421   4.272   0.489 -0.2523  0.0491 -0.2044
  907MOL0     N19643   6.524   4.267   0.412  0.1154  0.1805  0.0591
  907MOL0     C19644   7.523   3.489   0.112  0.6118  0.6746 -0.0937
  907MOL0     C19645   7.629   3.397   0.113  0.3596  0.1219  0.6980
  907MOL0     C19646   8.092   3.274   0.114 -0.0244 -0.2287 -1.2523
  907MOL0     C19647   8.071   3.154   0.045 -0.7204  0.9609 -0.2047
  907MOL0     C19648   8.174   3.063   0.036  0.3497  0.4290 -0.8917
  907MOL0     C19649   8.301   3.090   0.084  0.0114 -0.5486 -0.8705
  907MOL0     O19650   8.402   2.992   0.083 -0.4826 -0.2521  0.2400
  907MOL0     C19651   8.493   3.001   0.195  0.8205  0.3104 -0.1305
  907MOL0     C19652   8.576   2.873   0.190 -0.7527  0.4089  0.2238
  907MOL0     C19653   8.642   2.855   0.328 -0.1592 -1.3446 -1.2037
  907MOL0     C19654   8.755   2.742   0.333 -0.0323 -0.4126  0.5401
  907MOL0     C19655   8.778   2.721   0.473 -0.1248 -0.8291 -0.6829
  907MOL0     C19656   8.782   2.723   0.599  0.4048 -0.3022  0.1914
  907MOL0     C19657   8.323   3.216   0.134  0.3561  0.0027 -0.1277
  907MOL0     C19658   8.222   3.306   0.152  0.8375 -0.2658  0.0057
  907MOL0     H19659   7.864   3.579  -0.044  1.5170 -1.8452  2.7264
  907MOL0     H19660   7.673   3.731  -0.073 -0.3800 -0.5205 -0.3640
  907MOL0     H19661   7.345   3.710   0.184  1.3432 -0.5361  0.5183
  907MOL0     H19662   7.277   3.580   0.079 -0.0407  0.9300 -0.4832
  907MOL0     H19663   7.155   3.720  -0.050 -0.8493 -1.2002  1.7118
  907MOL0     H19664   7.245   3.856   0.014  0.0083 -0.8005 -0.5713
  907MOL0     H19665   7.110   3.802   0.248 -0.1967 -2.8301  1.7261
  907MOL0     H19666   7.027   3.682   0.145  0.7398 -0.2193 -0.3738
  907MOL0     H19667   7.038   3.979   0.061 -0.1359 -0.1301  0.1722
  907MOL0     H19668   6.931   3.843   0.008 -1.2172  0.1620  0.8360
  907MOL0     H19669   6.941   3.975   0.276  0.8619  2.2709 -1.7906
  907MOL0     H19670   6.852   3.818   0.232 -1.1483  0.6543 -0.4623
  907MOL0     H19671   6.722   3.944   0.066 -1.9392 -0.6215  2.1234
  907MOL0     H19672   6.808   4.098   0.098 -0.5569  1.2553  1.2037
  907MOL0     H19673   6.592   4.079   0.202 -0.1803 -2.0938 -2.1736
  907MOL0     H19674   6.633   3.935   0.283 -2.8385  2.1285  3.4619
  907MOL0     H19675   6.798   4.183   0.348 -1.5568  2.3803  0.0974
  907MOL0     H19676   6.789   4.035   0.435  3.4887  2.9537  0.7086
  907MOL0     H19677   6.580   4.008   0.606  0.0808  1.9189  2.7215
  907MOL0     H19678   6.256   4.078   0.643 -1.5297  0.1650  1.3776
  907MOL0     H19679   6.285   4.246   0.704 -0.6972 -0.6108 -0.3733
  907MOL0     H19680   6.475   4.146   0.850  1.1073 -0.7713 -0.8745
  907MOL0     H19681   6.449   3.987   0.790 -0.1311 -0.3691  0.6888
  907MOL0     H19682   6.341   4.022   1.017  0.6793  1.1914 -0.0928
  907MOL0     H19683   6.274   4.172   0.973  1.6327  0.9191 -0.8169
  907MOL0     H19684   6.142   3.950   0.996  2.5862 -0.2540  1.6899
  907MOL0     H19685   6.181   3.920   0.833 -1.7631  0.9101 -2.1626
  907MOL0     H19686   6.036   4.332   0.740 -1.7877 -0.1242 -1.5843
  907MOL0     H19687   5.921   4.509   0.848 -0.0873  0.3599  1.5120
  907MOL0     H19688   5.479   4.588   0.813 -2.9353 -2.3919  2.8753
  907MOL0     H19689   5.312   4.747   0.810  1.4508  2.4379 -2.3334
  907MOL0     H19690   5.111   4.809   1.043 -1.8258  0.2159  0.1085
  907MOL0     H19691   5.122   4.861   0.879  0.4670 -1.4260  1.0155
  907MOL0     H19692   5.015   5.073   0.944  3.0247  0.4279 -0.5736
  907MOL0     H19693   5.044   5.039   1.112 -2.7278  1.4944 -0.4767
  907MOL0     H19694   4.906   4.817   1.107 -1.4757 -0.8172  0.3113
  907MOL0     H19695   4.857   4.867   0.944 -0.2748 -2.1790  1.2508
  907MOL0     H19696   4.748   5.057   1.010  1.2570 -1.0061 -1.9174
  907MOL0     H19697   4.682   4.916   1.097  1.1830 -1.0081  3.1650
  907MOL0     H19698   4.853   5.133   1.219  1.0894 -0.9377 -1.8576
  907MOL0     H19699   4.821   4.982   1.305  0.3520  1.6043  2.1271
  907MOL0     H19700   4.556   5.043   1.307 -0.5640  1.0776 -0.0746
  907MOL0     H19701   4.610   5.168   1.195 -0.7100 -1.9272 -0.3481
  907MOL0     H19702   4.722   5.137   1.486  0.9865 -0.9202 -1.0136
  907MOL0     H19703   4.731   5.282   1.384 -0.5937  0.9830  0.4875
  907MOL0     H19704   4.569   5.307   1.574 -3.3941 -0.2120  0.8049
  907MOL0     H19705   4.476   5.173   1.500 -0.3019 -0.5408  0.8276
  907MOL0     H19706   5.471   4.940   1.156  0.4645  3.8978 -4.1780
  907MOL0     H19707   5.676   4.771   1.150 -1.8649 -0.0739  2.3294
  907MOL0     H19708   5.770   4.220   1.141 -2.1978 -0.5854 -1.0479
  907MOL0     H19709   5.904   4.050   1.040 -1.6433  0.6980  0.9286
  907MOL0     H19710   7.435   3.470   0.172 -0.7269  3.7720 -0.9361
  907MOL0     H19711   7.623   3.300   0.161 -0.5297 -1.0509 -1.6046
  907MOL0     H19712   7.979   3.122  -0.003  0.3263  0.5171 -1.9820
  907MOL0     H19713   8.161   2.965  -0.010 -1.7797  0.0533  0.4017
  907MOL0     H19714   8.435   2.996   0.288  2.8672  1.5494  1.2808
  907MOL0     H19715   8.563   3.085   0.189  2.3857 -0.8851  0.7065
  907MOL0     H19716   8.515   2.783   0.176  1.4618 -1.1186 -0.0909
  907MOL0     H19717   8.644   2.869   0.104  1.2044 -6.0577  1.5233
  907MOL0     H19718   8.561   2.826   0.396 -2.6141  1.1760 -2.8559
  907MOL0     H19719   8.699   2.943   0.360  0.6652 -2.2036 -0.2091
  907MOL0     H19720   8.706   2.658   0.283 -1.7526 -1.3222  3.5050
  907MOL0     H19721   8.848   2.766   0.280  0.6744 -3.0176  0.4475
  907MOL0     H19722   8.768   2.733   0.705  0.4437 -0.7377  0.2400
  907MOL0     H19723   8.421   3.247   0.169  0.4028 -0.8933  0.5700
  907MOL0     H19724   8.249   3.407   0.182 -1.5336  0.5459 -0.3899
  908MOL0     O19725   6.360   5.204  10.739 -0.0917 -0.5157 -0.0978
  908MOL0     C19726   6.387   5.091  10.714  0.9030 -0.2515 -0.4181
  908MOL0     O19727   6.282   4.991  10.722 -0.0293 -0.4637  0.6972
  908MOL0     C19728   6.152   5.041  10.700  0.4561 -0.3820 -0.9425
  908MOL0     C19729   6.095   5.054  10.569  0.3512 -0.0213 -0.1112
  908MOL0     C19730   5.963   5.092  10.551 -0.7640  1.1613 -0.6850
  908MOL0     C19731   5.884   5.112  10.659 -0.3353 -0.4787  0.0755
  908MOL0     O19732   5.756   5.142  10.623  0.1979  0.0002  0.0741
  908MOL0     C19733   5.671   5.151  10.732  0.1674  0.0744  0.0150
  908MOL0     C19734   5.531   5.178  10.680 -0.0530  0.4576 -0.4755
  908MOL0     C19735   5.431   5.226  10.788 -0.0895  0.3646 -0.1032
  908MOL0     C19736   5.309   5.266  10.705 -0.5069 -0.6489  0.1513
  908MOL0     C19737   5.219   5.342  10.797 -0.3732  0.4526  0.6996
  908MOL0     C19738   5.186   5.286  10.933 -0.6808  0.2946  0.5453
  908MOL0     C19739   5.105   5.160  10.926  0.1693  0.0449  0.0474
  908MOL0     C19740   5.086   5.094  11.060  0.1108  0.4434 -0.0250
  908MOL0     N19741   5.002   5.177  11.152 -0.6318 -0.4163  0.0069
  908MOL0     C19742   4.866   5.187  11.156 -0.7323 -0.5527  0.2696
  908MOL0     C19743   4.831   5.250  11.268  0.0099  0.3621 -0.1626
  908MOL0     C19744   4.699   5.264  11.318  0.2201 -0.2987 -0.0136
  908MOL0     C19745   4.576   5.238  11.224 -0.0830  0.1809 -0.4884
  908MOL0     C19746   4.450   5.313  11.289  0.0816  0.3105  0.3989
  908MOL0     C19747   4.321   5.263  11.212 -0.7113  0.0891 -0.1785
  908MOL0     O19748   4.289   5.123  11.239  0.7657  0.1105  0.8368
  908MOL0     C19749   4.169   5.079  11.188 -0.5764  0.2575 -0.1898
  908MOL0     C19750   4.088   5.011  11.282 -0.7396  0.0179  0.1301
  908MOL0     C19751   3.964   4.954  11.245  0.4033  0.5104 -0.3119
  908MOL0     C19752   3.907   4.974  11.118  0.6625  0.4884  0.6237
  908MOL0     C19753   3.768   4.931  11.081 -0.1764  0.1486  0.8045
  908MOL0     O19754   3.735   4.970  10.956  0.1812  0.7527 -0.7291
  908MOL0     C19755   3.597   4.982  10.934 -0.6027  0.4475  0.2507
  908MOL0     C19756   3.552   4.930  10.807 -0.1215  0.5404 -0.3701
  908MOL0     C19757   3.415   4.935  10.784  0.1697 -0.5579  0.1816
  908MOL0     C19758   3.324   5.000  10.868  0.3624 -0.7626 -0.3414
  908MOL0     O19759   3.187   4.994  10.836  0.8205 -0.7745 -0.0169
  908MOL0     C19760   3.140   5.126  10.796 -0.0446  0.5348 -1.0430
  908MOL0     C19761   2.985   5.127  10.811 -0.3906 -0.0939  0.0236
  908MOL0     C19762   2.907   4.995  10.803  0.4306  0.4064 -0.1325
  908MOL0     C19763   2.775   5.012  10.875  0.0668 -0.1342 -0.3132
  908MOL0     C19764   2.690   4.883  10.869  0.4420 -0.3002  0.3867
  908MOL0     C19765   2.734   4.770  10.965 -0.5119 -1.2956  0.5764
  908MOL0     C19766   2.607   4.693  11.010  0.8707  0.1214 -0.2702
  908MOL0     C19767   2.649   4.570  11.093 -1.1028  0.7621  0.6673
  908MOL0    Cl19768   2.771   4.459  11.011 -0.5161 -0.0973 -0.0749
  908MOL0     C19769   3.382   5.066  10.981  0.0893 -0.1459  0.0550
  908MOL0     C19770   3.510   5.042  11.023 -0.3452  0.5849 -0.3310
  908MOL0     O19771   3.697   4.887  11.172 -0.9770  0.4751 -0.5071
  908MOL0     C19772   3.989   5.044  11.030 -0.5311 -0.7936  0.3636
  908MOL0     C19773   4.121   5.095  11.057  0.2508 -0.0778  0.4956
  908MOL0     N19774   4.948   5.280  11.337 -0.4112  0.0873  0.5807
  908MOL0     N19775   5.053   5.234  11.267 -0.4284 -0.2948 -0.7851
  908MOL0     C19776   5.947   5.133  10.782 -0.2717  0.4483  0.3605
  908MOL0     C19777   6.082   5.087  10.806 -0.5536  0.0156  0.3017
  908MOL0     C19778   6.526   5.053  10.725  0.2278 -0.3606  0.9061
  908MOL0     C19779   6.626   5.152  10.745 -0.8209 -0.5087  0.0569
  908MOL0     C19780   6.763   5.112  10.736  0.2436  0.3319 -1.0244
  908MOL0     C19781   6.803   4.978  10.715  0.0173  0.7591  0.1380
  908MOL0     O19782   6.937   4.945  10.716  0.4132  0.7103  0.4018
  908MOL0     C19783   6.980   4.810  10.690  0.2158 -0.0550 -0.0478
  908MOL0     C19784   7.137   4.800  10.685  0.1213 -0.1446 -0.5017
  908MOL0     C19785   7.191   4.666  10.630 -0.2795  0.4628 -0.1838
  908MOL0     C19786   7.346   4.669  10.602 -0.1508 -0.4089 -0.8444
  908MOL0     C19787   7.382   4.767  10.498  0.0016 -0.1345  0.2909
  908MOL0     C19788   7.393   4.850  10.412 -0.8234  1.1622  0.7326
  908MOL0     C19789   6.700   4.886  10.694  1.3055 -0.7445 -0.6970
  908MOL0     C19790   6.568   4.921  10.709  0.5414 -0.2270  0.5986
  908MOL0     H19791   6.161   5.023  10.488 -1.4273 -3.4358 -0.4496
  908MOL0     H19792   5.916   5.098  10.453  0.7344  0.5756 -1.4732
  908MOL0     H19793   5.702   5.229  10.802 -0.0854 -0.1702  0.4020
  908MOL0     H19794   5.661   5.060  10.791  0.6752 -0.5594 -0.8600
  908MOL0     H19795   5.496   5.080  10.646  0.3216 -1.1350  3.2166
  908MOL0     H19796   5.524   5.253  10.601 -3.4506  1.8287  0.9517
  908MOL0     H19797   5.461   5.311  10.850 -1.0565 -0.4500  1.5342
  908MOL0     H19798   5.411   5.139  10.851 -3.3996 -0.8068 -2.4710
  908MOL0     H19799   5.331   5.332  10.620  0.2363 -1.7825 -0.5697
  908MOL0     H19800   5.271   5.175  10.658  1.0143 -1.4741  0.4579
  908MOL0     H19801   5.126   5.355  10.740  0.8127 -0.0106 -1.4187
  908MOL0     H19802   5.271   5.437  10.813 -1.4808  0.8236  2.3526
  908MOL0     H19803   5.134   5.363  10.990 -0.8644  0.0556  0.6999
  908MOL0     H19804   5.278   5.266  10.990  1.2154 -0.6254 -2.5690
  908MOL0     H19805   5.009   5.183  10.879 -0.4717  2.2296  2.1907
  908MOL0     H19806   5.165   5.098  10.859  1.7735  0.3788  1.1028
  908MOL0     H19807   5.186   5.085  11.103  0.8365  1.9658 -1.3079
  908MOL0     H19808   5.039   4.995  11.057  0.8555  0.1128 -1.0169
  908MOL0     H19809   4.795   5.164  11.077  0.1524  4.0058 -2.2228
  908MOL0     H19810   4.695   5.369  11.348 -0.2541  0.0186 -1.1303
  908MOL0     H19811   4.688   5.207  11.411 -0.3853  1.1636  0.8378
  908MOL0     H19812   4.562   5.130  11.217 -0.3598  0.1759  0.1374
  908MOL0     H19813   4.594   5.287  11.127 -2.7031 -1.5002 -1.9570
  908MOL0     H19814   4.450   5.298  11.397 -1.5469  1.9925  0.6782
  908MOL0     H19815   4.471   5.419  11.270  1.4343 -0.4312 -3.1915
  908MOL0     H19816   4.328   5.287  11.105 -1.6259 -2.4000 -0.8747
  908MOL0     H19817   4.247   5.325  11.263 -1.2113 -0.9171  0.3495
  908MOL0     H19818   4.120   4.983  11.382  3.6106 -0.5067 -1.2155
  908MOL0     H19819   3.918   4.890  11.320  2.5692 -0.2572  0.4244
  908MOL0     H19820   3.617   4.879  10.736  1.4653 -2.6857  3.0050
  908MOL0     H19821   3.383   4.881  10.695  1.8629 -2.1763  0.4809
  908MOL0     H19822   3.167   5.142  10.691 -1.4209  1.3084 -1.2970
  908MOL0     H19823   3.178   5.209  10.856 -0.1708 -0.4788  0.4917
  908MOL0     H19824   2.936   5.198  10.743 -0.8634 -0.5236 -0.0980
  908MOL0     H19825   2.973   5.165  10.913  1.2720 -0.3379  0.3369
  908MOL0     H19826   2.959   4.926  10.869 -0.2607  2.9846  3.4071
  908MOL0     H19827   2.905   4.947  10.704 -0.3449 -0.8308  0.4669
  908MOL0     H19828   2.787   5.031  10.982  1.0357 -0.8856 -0.2696
  908MOL0     H19829   2.727   5.100  10.834 -0.1084  0.0144  0.2000
  908MOL0     H19830   2.690   4.853  10.764 -0.3721  1.8642 -0.2748
  908MOL0     H19831   2.589   4.904  10.905  1.0968  2.9246  0.6697
  908MOL0     H19832   2.788   4.801  11.054  1.6717 -2.3425 -0.3157
  908MOL0     H19833   2.796   4.697  10.913 -0.7477 -1.1813  0.1291
  908MOL0     H19834   2.550   4.760  11.074  2.2440  1.6179 -0.5340
  908MOL0     H19835   2.549   4.670  10.921 -0.5660  3.3986 -0.3163
  908MOL0     H19836   2.559   4.510  11.113 -1.9956  1.5172 -0.8913
  908MOL0     H19837   2.673   4.607  11.193 -1.9360 -1.9911  2.0101
  908MOL0     H19838   3.307   5.123  11.036 -1.4042 -0.7418 -1.2977
  908MOL0     H19839   3.540   5.077  11.121 -1.3041  3.1574 -0.8687
  908MOL0     H19840   3.949   5.091  10.940  2.1493  2.1970  0.5698
  908MOL0     H19841   4.181   5.158  10.993 -2.5259  3.0376  0.6792
  908MOL0     H19842   5.886   5.176  10.861 -1.6964  1.3178 -1.1334
  908MOL0     H19843   6.128   5.098  10.904  1.7182  3.5596 -0.9836
  908MOL0     H19844   6.597   5.254  10.770 -1.9963 -0.5852 -0.9365
  908MOL0     H19845   6.847   5.177  10.761  1.2302 -1.5062  0.7974
  908MOL0     H19846   6.938   4.788  10.591 -0.9683  2.1239 -0.1078
  908MOL0     H19847   6.937   4.746  10.767  0.7299  0.5748  0.7776
  908MOL0     H19848   7.161   4.887  10.623  0.0693 -0.5038 -1.0306
  908MOL0     H19849   7.180   4.810  10.786  1.6657  1.6880 -1.2671
  908MOL0     H19850   7.145   4.658  10.531  3.8280  0.0534 -2.3018
  908MOL0     H19851   7.167   4.578  10.691  1.7225 -0.7862 -1.0594
  908MOL0     H19852   7.415   4.691  10.684  0.5578 -1.6314 -1.1019
  908MOL0     H19853   7.372   4.568  10.570  0.6965 -0.3827 -0.2718
  908MOL0     H19854   7.404   4.925  10.336  0.6741  1.4859  1.2436
  908MOL0     H19855   6.726   4.780  10.689  4.0529 -0.1054 -1.2748
  908MOL0     H19856   6.501   4.836  10.711 -0.0534  0.2380  2.5185
  909MOL0     O19857   9.660  10.632   9.056  0.1188 -0.2612  0.1031
  909MOL0     C19858   9.647  10.570   9.164 -0.3291  0.2871  0.4896
  909MOL0     O19859   9.536  10.578   9.240  0.5450 -0.8447  0.5233
  909MOL0     C19860   9.439  10.669   9.206  0.1794 -0.0385  0.0914
  909MOL0     C19861   9.309  10.650   9.162  0.3423 -0.3951  0.4426
  909MOL0     C19862   9.224  10.762   9.135 -0.2248 -0.0741  0.5096
  909MOL0     C19863   9.267  10.892   9.160 -0.5398 -0.1299  0.8561
  909MOL0     O19864   9.196  11.007   9.139  0.0827 -0.3663  0.5782
  909MOL0     C19865   9.055  10.982   9.105 -0.8455 -0.3888 -0.0550
  909MOL0     C19866   8.989  11.120   9.092  0.4958 -0.3140  0.1781
  909MOL0     C19867   8.856  11.098   9.026 -0.4520  0.2724  0.5445
  909MOL0     C19868   8.771  10.988   9.103  0.0077 -0.4269  0.2306
  909MOL0     C19869   8.622  11.015   9.097 -0.0913  0.1008 -0.1431
  909MOL0     C19870   8.536  10.889   9.156  0.6812 -0.1082 -0.7033
  909MOL0     C19871   8.389  10.924   9.153  0.0819 -0.2152  0.5384
  909MOL0     C19872   8.300  10.825   9.232  0.4451  0.0288  0.4552
  909MOL0     N19873   8.162  10.877   9.253 -0.9992 -0.5565  0.3494
  909MOL0     C19874   8.077  10.864   9.362 -0.0340 -0.1860  0.7097
  909MOL0     C19875   7.967  10.934   9.328  0.5279 -0.8162 -0.2862
  909MOL0     C19876   7.835  10.966   9.401  1.4399 -0.0258  0.3342
  909MOL0     C19877   7.726  10.845   9.400 -0.9311  0.5213 -0.4925
  909MOL0     C19878   7.607  10.910   9.465  0.0511  0.1143  0.4213
  909MOL0     C19879   7.495  10.805   9.456 -0.0534 -0.5288 -0.7895
  909MOL0     O19880   7.445  10.784   9.323 -0.4376 -0.0054 -0.8800
  909MOL0     C19881   7.333  10.723   9.290  0.0639 -0.2706  0.3822
  909MOL0     C19882   7.332  10.691   9.153 -0.5801  0.0991 -0.0333
  909MOL0     C19883   7.216  10.640   9.090  0.2880 -0.1181 -0.0770
  909MOL0     C19884   7.102  10.628   9.171  0.0001 -0.4416 -0.2457
  909MOL0     C19885   6.971  10.588   9.115 -0.1599  0.2246  0.1312
  909MOL0     O19886   6.867  10.597   9.202 -0.4354 -0.7496 -0.4905
  909MOL0     C19887   6.739  10.577   9.161  1.0837  0.8250  0.0235
  909MOL0     C19888   6.679  10.449   9.147  0.7904 -0.1789 -1.0581
  909MOL0     C19889   6.544  10.425   9.120 -0.0338 -0.5739 -0.3430
  909MOL0     C19890   6.453  10.540   9.123  0.0463 -0.1915 -0.1264
  909MOL0     O19891   6.315  10.543   9.106 -0.5649  0.0663  0.0309
  909MOL0     C19892   6.260  10.414   9.061 -0.3393 -0.4168  0.2836
  909MOL0     C19893   6.114  10.448   9.018 -0.0918  0.8115 -0.8045
  909MOL0     C19894   6.050  10.327   8.962 -0.0399  0.2221 -1.2048
  909MOL0     C19895   5.914  10.353   8.923 -1.0471  0.3282 -0.1122
  909MOL0     C19896   5.900  10.429   8.790 -1.1794 -0.5365 -0.1769
  909MOL0     C19897   5.772  10.432   8.711 -0.1380  0.0455 -0.7751
  909MOL0     C19898   5.654  10.481   8.791  0.0397 -0.4068  0.4310
  909MOL0     C19899   5.520  10.484   8.723 -0.1780  1.1539 -0.3319
  909MOL0    Cl19900   5.445  10.324   8.682  0.1756 -0.2870  0.3602
  909MOL0     C19901   6.510  10.666   9.141 -0.1854  0.5068  0.4339
  909MOL0     C19902   6.649  10.682   9.161 -0.0539  0.4385 -0.5381
  909MOL0     O19903   6.967  10.556   8.995  0.2973  0.3866 -0.9531
  909MOL0     C19904   7.108  10.648   9.310  0.0196 -0.4888 -0.0918
  909MOL0     C19905   7.221  10.705   9.372  0.4655  0.2921 -0.1732
  909MOL0     N19906   7.991  10.984   9.197  0.1676 -0.2586 -0.6782
  909MOL0     N19907   8.106  10.957   9.160  0.1476 -0.0727  0.4285
  909MOL0     C19908   9.396  10.902   9.204 -0.1372  0.0117  0.1832
  909MOL0     C19909   9.477  10.798   9.229  0.4988  0.3347 -0.3465
  909MOL0     C19910   9.762  10.475   9.196 -0.2793 -0.5048 -0.2856
  909MOL0     C19911   9.843  10.421   9.089 -0.4959  1.0966  0.0941
  909MOL0     C19912   9.962  10.351   9.124  0.5279  0.0064 -0.1276
  909MOL0     C19913  10.007  10.341   9.255 -0.3736  0.0791 -0.3978
  909MOL0     O19914  10.122  10.279   9.304  0.0201  0.8817 -0.4186
  909MOL0     C19915  10.225  10.243   9.204  0.8504 -0.5098 -0.4065
  909MOL0     C19916  10.360  10.215   9.261 -0.7736  0.7257 -0.6057
  909MOL0     C19917  10.460  10.145   9.170 -0.2829 -0.6765  0.1891
  909MOL0     C19918  10.607  10.183   9.206 -0.0224 -1.0663  0.2218
  909MOL0     C19919  10.680  10.114   9.099 -0.1958  1.1401  0.7539
  909MOL0     C19920  10.746  10.065   9.007 -0.1350 -0.0800 -0.2124
  909MOL0     C19921   9.919  10.378   9.356  0.2635 -0.6199  0.1756
  909MOL0     C19922   9.794  10.450   9.328  0.5860  0.6646 -0.7538
  909MOL0     H19923   9.267  10.550   9.150 -1.4954  0.5111 -1.3076
  909MOL0     H19924   9.126  10.736   9.096  0.7760 -3.3868 -0.1258
  909MOL0     H19925   9.032  10.914   9.189 -1.7531  2.3207  2.0412
  909MOL0     H19926   9.052  10.933   9.007  2.2683 -0.9392  0.0229
  909MOL0     H19927   9.044  11.182   9.021 -0.8587 -2.1974 -2.6982
  909MOL0     H19928   8.979  11.163   9.192  4.1328 -2.2830  1.6085
  909MOL0     H19929   8.885  11.067   8.925 -0.3078  2.8264 -0.2521
  909MOL0     H19930   8.803  11.191   9.005 -0.9868 -0.0644  0.3739
  909MOL0     H19931   8.802  10.892   9.063 -0.6833  0.5705 -3.0227
  909MOL0     H19932   8.792  10.988   9.211 -2.7111  3.8356  1.0277
  909MOL0     H19933   8.592  11.021   8.992 -1.2647  2.1436  0.2660
  909MOL0     H19934   8.604  11.112   9.144 -4.8149 -1.4556  1.8754
  909MOL0     H19935   8.575  10.882   9.258 -1.6086 -0.2941  0.2062
  909MOL0     H19936   8.563  10.802   9.095 -0.1514  0.2359 -1.5795
  909MOL0     H19937   8.379  11.026   9.192  0.5806 -0.4720  1.3562
  909MOL0     H19938   8.357  10.920   9.048 -1.0595  0.0472  0.8557
  909MOL0     H19939   8.332  10.815   9.336 -2.0020 -1.2667  1.1683
  909MOL0     H19940   8.296  10.723   9.191  0.9246 -1.2057  3.2586
  909MOL0     H19941   8.092  10.818   9.459 -3.5544  0.4176  1.6876
  909MOL0     H19942   7.791  11.051   9.349  2.4382  0.0343 -0.4420
  909MOL0     H19943   7.852  10.990   9.506 -3.6913  0.7935  1.2551
  909MOL0     H19944   7.765  10.762   9.460  1.1463  2.1023  0.4859
  909MOL0     H19945   7.702  10.803   9.302 -0.8167 -2.5786  0.7118
  909MOL0     H19946   7.616  10.926   9.573 -2.0841 -0.1378  0.6771
  909MOL0     H19947   7.578  11.007   9.424  1.9308  0.2014 -0.8150
  909MOL0     H19948   7.418  10.843   9.524 -1.5087 -0.4415 -2.4271
  909MOL0     H19949   7.538  10.717   9.505 -0.5782  1.0645  2.8828
  909MOL0     H19950   7.408  10.715   9.079 -1.2592 -2.0211 -1.5118
  909MOL0     H19951   7.203  10.629   8.983  2.2099  0.0894 -0.3690
  909MOL0     H19952   6.745  10.364   9.161  1.4982  0.8089  2.6391
  909MOL0     H19953   6.501  10.325   9.112 -1.4477  0.0051 -0.3644
  909MOL0     H19954   6.258  10.336   9.138 -0.6328  0.0789  0.7926
  909MOL0     H19955   6.312  10.371   8.976 -0.6293 -0.9291  0.3647
  909MOL0     H19956   6.111  10.520   8.936 -0.3267  1.4964 -0.2080
  909MOL0     H19957   6.056  10.493   9.100 -0.2918 -0.2816 -0.3310
  909MOL0     H19958   6.044  10.248   9.037 -2.2420  2.7092  1.4921
  909MOL0     H19959   6.112  10.298   8.877  2.1793  2.3191 -0.4076
  909MOL0     H19960   5.867  10.256   8.908  2.1481 -1.7386  2.0228
  909MOL0     H19961   5.860  10.396   9.007  0.0909  1.1348  0.2424
  909MOL0     H19962   5.974  10.388   8.721 -0.3019  0.3604  0.2145
  909MOL0     H19963   5.938  10.528   8.818  4.3973 -2.1449 -0.9222
  909MOL0     H19964   5.760  10.328   8.679  3.5042 -0.9165  0.5345
  909MOL0     H19965   5.780  10.499   8.625 -1.6738  0.8982 -0.2953
  909MOL0     H19966   5.638  10.434   8.889 -2.1658 -1.3397 -0.3075
  909MOL0     H19967   5.676  10.582   8.825 -0.3308 -0.0508 -0.3699
  909MOL0     H19968   5.521  10.527   8.623  1.8385 -0.9105 -1.2742
  909MOL0     H19969   5.445  10.537   8.783 -2.2732 -0.3093 -1.5121
  909MOL0     H19970   6.454  10.758   9.129 -2.4385 -0.7270  0.9315
  909MOL0     H19971   6.694  10.779   9.176 -1.2302  0.7115  1.5254
  909MOL0     H19972   7.021  10.635   9.373  1.1222  0.6325  1.7880
  909MOL0     H19973   7.215  10.729   9.477  1.2977  4.8369 -0.9627
  909MOL0     H19974   9.441  10.997   9.233  0.5503 -0.8580  2.1456
  909MOL0     H19975   9.571  10.822   9.276  2.3681 -2.0271 -2.6007
  909MOL0     H19976   9.829  10.461   8.989 -0.1855  2.7465  0.6688
  909MOL0     H19977  10.033  10.321   9.046  1.1102  1.0982 -0.0273
  909MOL0     H19978  10.238  10.328   9.137  2.8298 -0.0796  0.4412
  909MOL0     H19979  10.181  10.160   9.148 -4.1907  2.2730 -1.1349
  909MOL0     H19980  10.398  10.306   9.310  0.8840  0.5441 -1.4567
  909MOL0     H19981  10.350  10.135   9.334 -1.5187  2.2357  1.0366
  909MOL0     H19982  10.437  10.182   9.070  3.0465  0.2830 -0.3425
  909MOL0     H19983  10.443  10.038   9.176 -3.1136 -0.3391 -0.5793
  909MOL0     H19984  10.624  10.291   9.216 -0.3364 -0.9207 -0.7230
  909MOL0     H19985  10.634  10.142   9.304  2.9969 -1.8239 -0.8373
  909MOL0     H19986  10.804  10.035   8.922  1.0272 -1.6651  1.0765
  909MOL0     H19987   9.946  10.357   9.459 -1.3209  0.7080  0.9100
  909MOL0     H19988   9.729  10.478   9.411  0.8286  1.2120 -0.7443
  910MOL0     O19989   0.664   3.361   5.850 -0.0840  0.2309 -0.6284
  910MOL0     C19990   0.668   3.396   5.734  0.0651 -0.1233 -0.0904
  910MOL0     O19991   0.571   3.457   5.671  0.2262  0.4684 -0.5047
  910MOL0     C19992   0.439   3.437   5.713 -0.1513 -0.1328  0.3611
  910MOL0     C19993   0.392   3.318   5.764 -1.0905  0.0114 -0.0699
  910MOL0     C19994   0.260   3.295   5.783 -0.0857  1.0400  0.1483
  910MOL0     C19995   0.163   3.392   5.758 -0.1363 -1.0216 -0.0619
  910MOL0     O19996   0.025   3.385   5.787  0.3250 -0.0819 -0.7558
  910MOL0     C19997  -0.062   3.497   5.780 -0.1936  0.8964 -0.4658
  910MOL0     C19998  -0.187   3.445   5.867 -0.4785  0.3639 -0.0566
  910MOL0     C19999  -0.297   3.546   5.845  0.2331  0.4401  0.1731
  910MOL0     C20000  -0.398   3.544   5.960  0.4321 -0.3879  0.2020
  910MOL0     C20001  -0.505   3.637   5.913  0.1590  0.0070 -0.3405
  910MOL0     C20002  -0.632   3.615   5.996  0.2471 -0.6302 -0.8227
  910MOL0     C20003  -0.723   3.737   5.973 -0.9397  0.1833  0.4424
  910MOL0     C20004  -0.822   3.749   6.092 -0.4718  0.5437  0.3761
  910MOL0     N20005  -0.939   3.838   6.089 -0.1752 -0.6479  0.0568
  910MOL0     C20006  -0.943   3.977   6.071  0.5632  0.0932  0.4738
  910MOL0     C20007  -1.068   4.012   6.076  1.0560 -0.1935 -0.1864
  910MOL0     C20008  -1.125   4.151   6.062  0.0373 -0.1876  0.3831
  910MOL0     C20009  -1.279   4.159   6.059 -0.2391 -0.2328 -0.4162
  910MOL0     C20010  -1.339   4.117   5.920 -0.2915 -0.1427 -0.1658
  910MOL0     C20011  -1.488   4.123   5.906  0.2702  0.2097 -0.3602
  910MOL0     O20012  -1.544   4.032   5.999  0.5102  0.7695  0.2249
  910MOL0     C20013  -1.675   4.022   6.012  0.2536  0.2023 -0.5669
  910MOL0     C20014  -1.768   4.077   5.926 -0.1334  0.4437  0.3618
  910MOL0     C20015  -1.903   4.045   5.942 -0.3790  0.5478 -1.0777
  910MOL0     C20016  -1.945   3.968   6.049  0.2059  0.1779  0.5371
  910MOL0     C20017  -2.087   3.932   6.067  0.1534  0.5401  0.7745
  910MOL0     O20018  -2.116   3.877   6.187 -0.2497 -0.2067  0.3228
  910MOL0     C20019  -2.246   3.861   6.237  1.1285  0.3580 -0.2445
  910MOL0     C20020  -2.369   3.881   6.168 -0.5713  0.3821 -0.1285
  910MOL0     C20021  -2.485   3.856   6.234 -0.0338  0.1765  0.0824
  910MOL0     C20022  -2.492   3.824   6.373  0.2296 -0.2801 -0.8350
  910MOL0     O20023  -2.612   3.804   6.449  0.6356  0.7179 -0.5840
  910MOL0     C20024  -2.723   3.892   6.410  0.3972 -0.3346  0.1283
  910MOL0     C20025  -2.830   3.881   6.515 -0.6134 -0.1607 -0.1411
  910MOL0     C20026  -2.964   3.909   6.449  0.5110  0.1396 -0.3477
  910MOL0     C20027  -3.074   3.878   6.550 -0.0369  0.3736  0.6843
  910MOL0     C20028  -3.216   3.919   6.488 -0.5700 -1.4002 -0.0370
  910MOL0     C20029  -3.319   3.865   6.589  0.4746  0.3464 -0.5757
  910MOL0     C20030  -3.466   3.869   6.558  0.2638  0.3205  0.5941
  910MOL0     C20031  -3.547   3.853   6.681  0.2405  0.3350 -0.8000
  910MOL0    Cl20032  -3.714   3.896   6.648  0.3472  0.0773 -0.0045
  910MOL0     C20033  -2.368   3.809   6.438 -0.1241  0.4228 -0.6638
  910MOL0     C20034  -2.248   3.825   6.372 -1.1920  0.3432  0.0581
  910MOL0     O20035  -2.161   3.953   5.971 -0.3724 -0.5099 -0.1123
  910MOL0     C20036  -1.859   3.940   6.156 -0.3002  0.8823  0.6460
  910MOL0     C20037  -1.721   3.952   6.129  0.4222  0.0210  0.4609
  910MOL0     N20038  -1.144   3.898   6.105 -0.8412 -0.8499  0.1280
  910MOL0     N20039  -1.061   3.794   6.117 -0.6839  0.4571  0.0403
  910MOL0     C20040   0.205   3.515   5.697 -0.3852  0.0083  0.0114
  910MOL0     C20041   0.346   3.532   5.666 -0.0350 -0.2573 -0.1216
  910MOL0     C20042   0.796   3.369   5.669  0.4204  0.5337 -0.4571
  910MOL0     C20043   0.891   3.288   5.731  0.0921  0.4626 -0.0285
  910MOL0     C20044   1.013   3.258   5.674  0.7807 -0.5814 -0.2253
  910MOL0     C20045   1.041   3.312   5.550 -0.2564 -0.4533  0.8298
  910MOL0     O20046   1.168   3.288   5.502  0.4701  0.1500 -0.5292
  910MOL0     C20047   1.204   3.338   5.372  0.6441  0.3085  0.5400
  910MOL0     C20048   1.329   3.278   5.332  0.4307  0.0379  0.2767
  910MOL0     C20049   1.360   3.305   5.188 -0.6814 -0.2240 -0.1650
  910MOL0     C20050   1.301   3.208   5.092  0.5846  0.4683 -0.1105
  910MOL0     C20051   1.375   3.082   5.088  0.1974  1.0282 -0.0924
  910MOL0     C20052   1.443   2.982   5.058  0.3883  0.1397  0.2021
  910MOL0     C20053   0.948   3.392   5.480  0.7258  0.4575 -0.5867
  910MOL0     C20054   0.825   3.423   5.540 -0.5487  0.0576 -0.1551
  910MOL0     H20055   0.448   3.234   5.805 -1.3759  0.9909  2.5398
  910MOL0     H20056   0.240   3.196   5.822  2.1336  1.3497  2.3045
  910MOL0     H20057  -0.097   3.497   5.677 -1.1339  1.4558 -0.1568
  910MOL0     H20058  -0.018   3.591   5.815 -2.7324  1.8571  0.3008
  910MOL0     H20059  -0.154   3.438   5.971  2.0827 -0.4441 -0.8596
  910MOL0     H20060  -0.208   3.343   5.833  0.5027 -0.0495  0.5479
  910MOL0     H20061  -0.340   3.535   5.745  1.5472  1.8203 -0.5870
  910MOL0     H20062  -0.247   3.643   5.854  1.2885 -0.1088  0.4201
  910MOL0     H20063  -0.443   3.445   5.970  1.5408 -0.8473  0.6816
  910MOL0     H20064  -0.352   3.590   6.048  1.4418  1.8240 -1.3617
  910MOL0     H20065  -0.522   3.614   5.807 -0.2239 -1.7730  0.0715
  910MOL0     H20066  -0.471   3.740   5.915 -0.4319  0.2506  3.1987
  910MOL0     H20067  -0.607   3.612   6.103  1.9057  2.9299 -0.9666
  910MOL0     H20068  -0.678   3.522   5.961 -0.7565  0.3900 -2.2520
  910MOL0     H20069  -0.665   3.830   5.970 -1.2937  0.4113  0.5543
  910MOL0     H20070  -0.774   3.730   5.877  0.1751 -1.7698 -0.0622
  910MOL0     H20071  -0.761   3.770   6.181  2.0601 -3.6487 -0.0744
  910MOL0     H20072  -0.859   3.647   6.108 -0.1215  0.7908  3.1945
  910MOL0     H20073  -0.859   4.041   6.046  0.9911 -0.2882  0.9369
  910MOL0     H20074  -1.085   4.201   5.973  2.5245  0.4918  1.7731
  910MOL0     H20075  -1.090   4.210   6.147 -0.9099  0.3303  0.4195
  910MOL0     H20076  -1.309   4.260   6.086 -2.7549 -2.0954  5.0350
  910MOL0     H20077  -1.309   4.097   6.144  0.3018 -0.4683 -0.3931
  910MOL0     H20078  -1.292   4.191   5.853  1.4990  0.0207  1.1910
  910MOL0     H20079  -1.307   4.013   5.906 -1.5214 -0.5408 -0.0845
  910MOL0     H20080  -1.517   4.101   5.803  1.2232 -0.2087 -0.5437
  910MOL0     H20081  -1.517   4.227   5.926  0.2012 -0.1828  1.8553
  910MOL0     H20082  -1.737   4.137   5.841  0.3228  2.1172  1.6623
  910MOL0     H20083  -1.969   4.094   5.871  0.2925  2.7097 -0.3234
  910MOL0     H20084  -2.375   3.905   6.062 -2.2094 -6.4318 -2.1131
  910MOL0     H20085  -2.574   3.869   6.173 -2.0742 -0.0991  2.8578
  910MOL0     H20086  -2.752   3.863   6.308  1.1608 -0.0626 -0.1703
  910MOL0     H20087  -2.694   3.998   6.410  3.1378 -0.9867  2.3430
  910MOL0     H20088  -2.816   3.941   6.605 -2.7568 -0.8922  0.7551
  910MOL0     H20089  -2.830   3.779   6.553 -1.6871  0.0028  0.3432
  910MOL0     H20090  -2.979   3.838   6.367  0.1503 -0.2900  0.0856
  910MOL0     H20091  -2.972   4.012   6.412  1.0752 -0.5226 -2.4590
  910MOL0     H20092  -3.074   3.771   6.572  1.6864 -0.1077 -1.4086
  910MOL0     H20093  -3.052   3.937   6.640  1.0231  0.2718  0.4996
  910MOL0     H20094  -3.232   3.871   6.391  0.7839  0.6586 -1.3403
  910MOL0     H20095  -3.236   4.026   6.478 -1.9309 -1.2319  3.1104
  910MOL0     H20096  -3.317   3.925   6.681 -1.6800  0.7304 -0.7328
  910MOL0     H20097  -3.291   3.760   6.602  1.0813  0.3421 -1.7877
  910MOL0     H20098  -3.485   3.967   6.514 -4.1681 -0.2301  0.7971
  910MOL0     H20099  -3.501   3.798   6.483 -2.0807  2.1938 -0.2143
  910MOL0     H20100  -3.511   3.923   6.757 -3.2532 -1.5049  2.9758
  910MOL0     H20101  -3.534   3.753   6.725 -3.4983 -0.8099 -1.9644
  910MOL0     H20102  -2.380   3.783   6.542 -2.2379  1.0426 -0.6932
  910MOL0     H20103  -2.149   3.817   6.416 -0.8171 -0.5236 -0.9151
  910MOL0     H20104  -1.878   3.885   6.248 -1.0130 -1.4387 -0.8094
  910MOL0     H20105  -1.646   3.925   6.203  1.2383  1.8535  0.3640
  910MOL0     H20106   0.141   3.597   5.667  2.7636  2.6818  0.1074
  910MOL0     H20107   0.386   3.618   5.614 -1.6248  1.2244  0.9966
  910MOL0     H20108   0.859   3.245   5.826 -1.4766 -0.5306 -0.9684
  910MOL0     H20109   1.089   3.198   5.724 -1.2330 -0.1969  3.7178
  910MOL0     H20110   1.213   3.446   5.357  3.3664 -0.0107 -0.8382
  910MOL0     H20111   1.116   3.310   5.313 -0.1454 -0.4991  2.0535
  910MOL0     H20112   1.393   3.343   5.392 -1.1633 -0.2345  2.4072
  910MOL0     H20113   1.338   3.175   5.368  0.2858 -0.2366 -0.4554
  910MOL0     H20114   1.469   3.297   5.177 -0.7770  0.4439 -1.9527
  910MOL0     H20115   1.345   3.405   5.147  0.2219 -1.8734 -5.3515
  910MOL0     H20116   1.193   3.194   5.103  0.4937 -0.1584 -1.5611
  910MOL0     H20117   1.312   3.254   4.994 -1.2984  1.6324  0.1804
  910MOL0     H20118   1.503   2.895   5.039 -0.7233 -0.4955 -0.5073
  910MOL0     H20119   0.955   3.425   5.377 -0.6246  0.4458 -0.6943
  910MOL0     H20120   0.760   3.494   5.490 -0.5324  0.0982 -0.1188
  911MOL0     O20121   5.726   5.825   5.242 -0.0459 -0.1527 -0.4447
  911MOL0     C20122   5.672   5.935   5.249  0.8501 -0.3633  0.0719
  911MOL0     O20123   5.543   5.958   5.269  0.0277  0.3058 -0.0622
  911MOL0     C20124   5.447   5.853   5.266  0.1588 -0.5482 -0.4023
  911MOL0     C20125   5.448   5.755   5.164 -0.2509  0.3500  0.1692
  911MOL0     C20126   5.365   5.643   5.172 -0.2806  0.4174 -0.1310
  911MOL0     C20127   5.267   5.639   5.274 -0.3445 -0.0987  0.6815
  911MOL0     O20128   5.176   5.537   5.287 -0.1832 -0.2167  0.0456
  911MOL0     C20129   5.216   5.414   5.225 -0.6891  0.9044  0.0032
  911MOL0     C20130   5.143   5.295   5.292 -0.3700 -0.5149 -0.1520
  911MOL0     C20131   5.001   5.277   5.244  0.3657  0.4999 -0.4324
  911MOL0     C20132   4.985   5.159   5.147  0.4969  0.0760  0.9286
  911MOL0     C20133   4.983   5.212   5.001 -0.2998 -0.2117  0.0619
  911MOL0     C20134   4.876   5.314   4.969 -0.1525  0.6139 -0.4700
  911MOL0     C20135   4.736   5.248   4.966  0.6931  0.2291  0.2701
  911MOL0     C20136   4.634   5.354   4.939 -0.4567 -0.1173 -0.4396
  911MOL0     N20137   4.497   5.313   4.981  0.2298 -0.2957  0.2737
  911MOL0     C20138   4.422   5.210   4.935 -0.1937  0.4361  0.1889
  911MOL0     C20139   4.298   5.235   4.984 -0.6285  0.2713 -0.1986
  911MOL0     C20140   4.181   5.150   4.973 -0.6638 -0.6265  0.8024
  911MOL0     C20141   4.043   5.211   4.943  0.1076  0.0936  0.3610
  911MOL0     C20142   3.917   5.127   4.987 -0.1289 -1.0191 -0.4553
  911MOL0     C20143   3.922   5.050   5.126 -0.1495  0.4527  0.8700
  911MOL0     O20144   3.971   5.134   5.224  0.1441  0.2489  0.4351
  911MOL0     C20145   3.879   5.223   5.270 -0.1731  0.3239 -0.0240
  911MOL0     C20146   3.944   5.320   5.352 -0.1311  0.2976 -0.6355
  911MOL0     C20147   3.871   5.421   5.408  0.6270 -0.4926  0.8683
  911MOL0     C20148   3.729   5.428   5.390 -1.1006 -0.0992 -0.1203
  911MOL0     C20149   3.658   5.544   5.451 -0.2677  1.2146 -0.0726
  911MOL0     O20150   3.548   5.599   5.390 -0.1339  0.4993 -0.1309
  911MOL0     C20151   3.457   5.659   5.464  0.7069 -0.2064 -0.0172
  911MOL0     C20152   3.471   5.794   5.499 -0.6229  0.5295  0.3971
  911MOL0     C20153   3.378   5.856   5.589 -0.4883 -0.5263 -0.7888
  911MOL0     C20154   3.276   5.786   5.646 -0.7137 -1.0342  0.4222
  911MOL0     O20155   3.205   5.840   5.751 -0.9521 -0.2860  0.2480
  911MOL0     C20156   3.092   5.761   5.789  0.5490 -0.3201  0.4941
  911MOL0     C20157   3.025   5.836   5.896  0.5632 -0.5508  0.6816
  911MOL0     C20158   2.917   5.936   5.846 -0.3471  0.2201 -0.2320
  911MOL0     C20159   2.861   6.025   5.958  0.4824 -0.2715  0.3140
  911MOL0     C20160   2.806   5.952   6.083  0.0283 -0.2882  0.5267
  911MOL0     C20161   2.696   5.859   6.062  0.4006 -0.5481  0.5003
  911MOL0     C20162   2.645   5.786   6.189 -0.5795  0.3528  0.4643
  911MOL0     C20163   2.647   5.870   6.319 -0.1182 -0.3346 -0.0081
  911MOL0    Cl20164   2.557   6.021   6.285  0.1369  0.0582 -0.2008
  911MOL0     C20165   3.264   5.658   5.600 -0.2189 -0.5389  0.0668
  911MOL0     C20166   3.348   5.591   5.506  0.0744 -0.1578  0.2566
  911MOL0     O20167   3.698   5.572   5.567 -0.2821 -0.0736 -0.5408
  911MOL0     C20168   3.664   5.337   5.300 -0.0978 -0.3184 -0.1800
  911MOL0     C20169   3.737   5.227   5.252  0.0704 -0.4858 -0.9240
  911MOL0     N20170   4.299   5.346   5.066 -0.2023 -0.0744  0.0226
  911MOL0     N20171   4.411   5.402   5.044 -1.0417 -0.2030 -0.2716
  911MOL0     C20172   5.257   5.747   5.357  0.6100 -0.4020 -0.1767
  911MOL0     C20173   5.345   5.858   5.357 -0.5540 -0.3987  0.5162
  911MOL0     C20174   5.756   6.051   5.233  0.8510  0.6248  0.1675
  911MOL0     C20175   5.894   6.032   5.217 -0.1695  0.3974 -0.2935
  911MOL0     C20176   5.977   6.149   5.196 -0.7920  0.1773 -0.4231
  911MOL0     C20177   5.928   6.286   5.195  0.0019  0.5349  0.3187
  911MOL0     O20178   6.024   6.389   5.189 -0.0768  0.4150  0.6989
  911MOL0     C20179   5.980   6.519   5.228 -0.3772  0.1098 -0.0739
  911MOL0     C20180   6.104   6.609   5.254 -0.2765  0.7012  0.1700
  911MOL0     C20181   6.170   6.657   5.121  0.5703  0.6191  0.9421
  911MOL0     C20182   6.270   6.755   5.170 -0.4753 -0.6170  0.5110
  911MOL0     C20183   6.355   6.792   5.057  0.0550  1.0140 -0.8518
  911MOL0     C20184   6.426   6.822   4.964 -0.1555  0.2389 -0.2005
  911MOL0     C20185   5.792   6.301   5.218  0.3885  0.3371  1.3532
  911MOL0     C20186   5.709   6.183   5.230 -0.0618 -0.1311  0.2192
  911MOL0     H20187   5.525   5.755   5.088 -0.6783 -1.2055 -0.3162
  911MOL0     H20188   5.378   5.562   5.101 -0.4625  0.1483  0.1370
  911MOL0     H20189   5.322   5.396   5.246 -0.7725 -0.3681 -0.5824
  911MOL0     H20190   5.201   5.429   5.118  1.4251  0.2750 -0.4267
  911MOL0     H20191   5.138   5.306   5.401  1.6352  0.0639 -0.0691
  911MOL0     H20192   5.205   5.211   5.262  0.0789  0.0155 -0.7385
  911MOL0     H20193   4.951   5.369   5.214  3.0076  1.1521 -3.3232
  911MOL0     H20194   4.947   5.242   5.333  1.3275  0.4598  0.1507
  911MOL0     H20195   5.060   5.080   5.161  1.3555  0.0419 -2.8062
  911MOL0     H20196   4.894   5.104   5.175  2.2978 -3.1566  0.9001
  911MOL0     H20197   4.978   5.124   4.935 -2.1238  0.6544 -1.0279
  911MOL0     H20198   5.083   5.254   4.981 -0.5839  0.2134 -0.5030
  911MOL0     H20199   4.901   5.349   4.868  0.4661  3.0846  0.4612
  911MOL0     H20200   4.878   5.398   5.039  2.1561 -1.9354  2.7920
  911MOL0     H20201   4.723   5.172   4.888  0.3102 -0.1067  0.6520
  911MOL0     H20202   4.720   5.196   5.061  1.5292 -0.3987  0.0805
  911MOL0     H20203   4.632   5.366   4.830 -1.3505  2.6416 -0.2050
  911MOL0     H20204   4.649   5.453   4.983 -1.1656  0.5058 -1.5371
  911MOL0     H20205   4.446   5.126   4.871  2.8985  1.4482 -0.1765
  911MOL0     H20206   4.181   5.099   5.070 -0.9928 -1.6238  0.2960
  911MOL0     H20207   4.199   5.069   4.902 -2.1579 -1.1244  0.9568
  911MOL0     H20208   4.032   5.235   4.837 -1.7301 -1.9163  0.0070
  911MOL0     H20209   4.041   5.301   5.004  1.3267  0.8311 -0.6382
  911MOL0     H20210   3.829   5.190   5.002 -0.1658 -1.1285 -0.2004
  911MOL0     H20211   3.890   5.058   4.907 -0.4640 -0.2496 -1.0214
  911MOL0     H20212   3.980   4.959   5.104  1.1978  2.0988 -3.6155
  911MOL0     H20213   3.819   5.018   5.144 -0.6793  1.4718 -0.2131
  911MOL0     H20214   4.051   5.309   5.371 -0.2158  0.4261 -0.0326
  911MOL0     H20215   3.913   5.492   5.478  0.8126  0.7094 -0.4210
  911MOL0     H20216   3.566   5.841   5.474  0.1319  0.4971  2.9227
  911MOL0     H20217   3.397   5.954   5.630 -0.8956 -1.0504  0.7516
  911MOL0     H20218   3.116   5.667   5.840 -0.1269 -1.4634 -1.1925
  911MOL0     H20219   3.036   5.746   5.696  2.3662  1.7330 -1.0622
  911MOL0     H20220   3.105   5.888   5.950 -1.7452  1.6003  2.2630
  911MOL0     H20221   2.974   5.770   5.967  0.1423 -0.4503  0.4728
  911MOL0     H20222   2.845   5.872   5.794  0.1670 -1.4021  0.9477
  911MOL0     H20223   2.972   6.002   5.778  0.2596 -1.0307 -0.9973
  911MOL0     H20224   2.945   6.086   5.991  1.8042 -1.7708 -0.1290
  911MOL0     H20225   2.773   6.077   5.918 -0.4731 -2.6489 -0.8770
  911MOL0     H20226   2.765   6.036   6.140  2.4574  0.3818  1.4440
  911MOL0     H20227   2.892   5.910   6.136  1.9989  0.3528 -1.9545
  911MOL0     H20228   2.709   5.790   5.979  4.2250 -3.0425  2.8869
  911MOL0     H20229   2.618   5.923   6.020  0.6976  0.1049  0.9298
  911MOL0     H20230   2.542   5.757   6.166 -0.5846  1.7241 -1.4749
  911MOL0     H20231   2.708   5.699   6.207  0.1780  0.7903 -0.0516
  911MOL0     H20232   2.751   5.902   6.333 -0.2778  0.1843  0.0268
  911MOL0     H20233   2.608   5.818   6.407  0.9838  0.0291  0.7064
  911MOL0     H20234   3.180   5.596   5.630 -0.3742 -1.5092 -2.1777
  911MOL0     H20235   3.334   5.487   5.479  1.1844 -0.3621  0.4278
  911MOL0     H20236   3.560   5.351   5.274 -0.3794 -0.0316  1.0084
  911MOL0     H20237   3.681   5.151   5.198 -0.3732  0.4768 -1.8466
  911MOL0     H20238   5.161   5.746   5.408 -0.3633 -0.6458 -1.9145
  911MOL0     H20239   5.326   5.953   5.406 -1.5406  0.3017 -1.1400
  911MOL0     H20240   5.941   5.934   5.224 -0.9496 -0.0161 -0.7202
  911MOL0     H20241   6.083   6.135   5.179 -0.7123 -1.7930  1.3805
  911MOL0     H20242   5.922   6.510   5.320  1.7130 -2.6558  1.1280
  911MOL0     H20243   5.918   6.574   5.156  0.5747  3.6348  1.5907
  911MOL0     H20244   6.079   6.700   5.309 -0.6556 -0.0355  1.2513
  911MOL0     H20245   6.175   6.554   5.316  2.1490  0.8796 -2.2374
  911MOL0     H20246   6.109   6.707   5.046  2.7844  1.3577 -0.4895
  911MOL0     H20247   6.232   6.576   5.081  1.0058  1.1154  0.5911
  911MOL0     H20248   6.230   6.854   5.189  1.3550  0.4232 -0.7078
  911MOL0     H20249   6.323   6.720   5.259 -0.5001  0.5446  1.0020
  911MOL0     H20250   6.503   6.855   4.897  0.2896  0.5238  0.4292
  911MOL0     H20251   5.747   6.399   5.225  1.0059  0.6425  1.1569
  911MOL0     H20252   5.603   6.206   5.226  0.2312  2.0814  2.2080
  912MOL0     O20253   6.177   1.793   6.178 -0.4640 -0.0160 -0.0743
  912MOL0     C20254   6.155   1.697   6.251 -0.2526  0.6294  0.1796
  912MOL0     O20255   6.239   1.631   6.340 -0.1651 -0.3110  0.8804
  912MOL0     C20256   6.379   1.660   6.343  0.5016 -0.0641  0.5672
  912MOL0     C20257   6.449   1.604   6.451  0.2474  0.6700 -0.1124
  912MOL0     C20258   6.588   1.608   6.469 -0.7134  0.4570  0.4273
  912MOL0     C20259   6.660   1.678   6.378  0.0349  0.1603  0.4166
  912MOL0     O20260   6.791   1.687   6.410 -0.6607 -0.0049  1.0539
  912MOL0     C20261   6.873   1.683   6.297  1.3866 -0.5259 -0.1779
  912MOL0     C20262   7.001   1.633   6.354 -1.1172 -0.5539  0.3050
  912MOL0     C20263   7.051   1.707   6.474  0.4545 -0.3534  0.4928
  912MOL0     C20264   7.195   1.674   6.493 -0.1353  0.4124 -0.1247
  912MOL0     C20265   7.265   1.774   6.584 -0.1265 -0.6336  0.3297
  912MOL0     C20266   7.400   1.715   6.637 -0.0374  0.0120 -0.4230
  912MOL0     C20267   7.473   1.819   6.707  0.0764  0.9957 -0.3234
  912MOL0     C20268   7.608   1.774   6.746  0.2636  0.0832  0.0620
  912MOL0     N20269   7.675   1.890   6.807  1.3425  0.3737  0.3358
  912MOL0     C20270   7.628   1.966   6.918 -0.5792 -0.5610 -0.7546
  912MOL0     C20271   7.704   2.078   6.921  0.8033 -0.6127 -0.6061
  912MOL0     C20272   7.705   2.189   7.028  0.9468  0.1379 -0.4541
  912MOL0     C20273   7.791   2.138   7.150  0.0206  0.5231 -0.2443
  912MOL0     C20274   7.754   2.216   7.270 -0.8120 -0.1692 -0.8923
  912MOL0     C20275   7.624   2.177   7.343  0.7935  0.2831  0.1842
  912MOL0     O20276   7.620   2.031   7.353 -0.1144  0.4824  0.3920
  912MOL0     C20277   7.500   1.977   7.381  0.3067 -0.4084  0.7801
  912MOL0     C20278   7.483   1.846   7.361 -0.2013  0.7070  0.5107
  912MOL0     C20279   7.368   1.778   7.394 -0.2683 -0.1641  0.3387
  912MOL0     C20280   7.261   1.848   7.457 -0.3554 -0.9666 -0.1946
  912MOL0     C20281   7.128   1.781   7.483 -0.5242 -0.5262  0.3056
  912MOL0     O20282   7.015   1.857   7.513 -0.1731  0.3846  0.1027
  912MOL0     C20283   6.898   1.792   7.554  0.6953  0.4413  0.6785
  912MOL0     C20284   6.778   1.841   7.503 -0.4806  0.1335 -1.0367
  912MOL0     C20285   6.654   1.792   7.550  0.4106 -0.7275  0.5508
  912MOL0     C20286   6.644   1.688   7.639 -0.7594  0.1984  0.4628
  912MOL0     O20287   6.519   1.647   7.678 -0.4305 -0.3793  0.5568
  912MOL0     C20288   6.491   1.545   7.777  0.5991 -0.9308  0.1067
  912MOL0     C20289   6.333   1.531   7.770 -1.3367 -0.5097  0.0406
  912MOL0     C20290   6.283   1.439   7.661 -0.3943 -0.2092  0.3630
  912MOL0     C20291   6.139   1.391   7.693 -0.4040  0.5484 -1.0862
  912MOL0     C20292   6.041   1.511   7.694 -0.0523  0.5777  0.5366
  912MOL0     C20293   5.900   1.461   7.708 -0.6644  0.6146 -0.1436
  912MOL0     C20294   5.796   1.560   7.656 -0.0047  0.0918 -0.1579
  912MOL0     C20295   5.688   1.491   7.588  0.7095 -0.4613  0.2986
  912MOL0    Cl20296   5.569   1.604   7.540 -0.2131  0.1778  0.7812
  912MOL0     C20297   6.765   1.634   7.680  0.0370 -0.2014  0.5815
  912MOL0     C20298   6.888   1.690   7.637 -0.2862 -0.4440 -0.1524
  912MOL0     O20299   7.122   1.657   7.469 -0.6722  0.1795 -0.2884
  912MOL0     C20300   7.276   1.987   7.486 -0.1688 -0.2147 -0.2030
  912MOL0     C20301   7.396   2.047   7.450  0.0344 -0.7374  0.4358
  912MOL0     N20302   7.776   2.080   6.799  0.2981  0.0980  0.2367
  912MOL0     N20303   7.759   1.973   6.735 -0.2967 -0.0374  0.0996
  912MOL0     C20304   6.600   1.735   6.268 -0.0080  0.5365 -0.4834
  912MOL0     C20305   6.457   1.732   6.250  0.0236  0.5832 -0.3180
  912MOL0     C20306   6.012   1.635   6.241  0.3759  0.1286  0.2930
  912MOL0     C20307   5.970   1.526   6.322 -0.3065  0.0015  0.5919
  912MOL0     C20308   5.845   1.474   6.295  0.0547 -0.9611 -0.0183
  912MOL0     C20309   5.755   1.531   6.203  1.3361 -0.3513  0.0061
  912MOL0     O20310   5.632   1.476   6.199 -0.8718 -0.3165 -0.3605
  912MOL0     C20311   5.529   1.529   6.115 -0.4489  0.8048 -0.6657
  912MOL0     C20312   5.393   1.479   6.172  0.7660  0.3941  0.5082
  912MOL0     C20313   5.338   1.344   6.113  0.0996 -0.5269 -0.0099
  912MOL0     C20314   5.191   1.340   6.085  0.3429 -0.6631  0.8947
  912MOL0     C20315   5.106   1.376   6.203 -0.1388  0.6202  0.3412
  912MOL0     C20316   5.032   1.394   6.297 -0.7213 -0.1281 -0.1019
  912MOL0     C20317   5.796   1.644   6.129  0.4563 -0.5291  0.6628
  912MOL0     C20318   5.920   1.695   6.152 -0.2666  0.1027  0.6902
  912MOL0     H20319   6.394   1.552   6.529  3.7307  1.7365  3.4206
  912MOL0     H20320   6.650   1.566   6.548  1.2453  0.8693 -0.8098
  912MOL0     H20321   6.891   1.784   6.258  1.4564 -0.3386  0.3325
  912MOL0     H20322   6.835   1.621   6.215 -0.5193  0.2070  0.0908
  912MOL0     H20323   7.083   1.632   6.281  2.6200 -2.5903  4.0924
  912MOL0     H20324   6.989   1.533   6.397 -0.8899 -0.9301 -0.4818
  912MOL0     H20325   6.989   1.680   6.560 -2.0448  0.4506 -0.9667
  912MOL0     H20326   7.040   1.813   6.451  1.2705 -0.0573  1.3774
  912MOL0     H20327   7.218   1.573   6.529  5.5370  1.9195  1.5345
  912MOL0     H20328   7.259   1.683   6.405  1.1348  3.0674  0.9362
  912MOL0     H20329   7.195   1.797   6.665 -0.9048 -2.5360  0.2556
  912MOL0     H20330   7.292   1.864   6.528 -1.8337 -0.9304 -1.0660
  912MOL0     H20331   7.461   1.677   6.555 -0.9777 -1.5731 -0.4233
  912MOL0     H20332   7.389   1.626   6.698 -1.8248  0.7288  0.3799
  912MOL0     H20333   7.477   1.906   6.640  0.0066  0.0207 -1.6355
  912MOL0     H20334   7.416   1.856   6.792 -1.8395 -0.4560 -0.9283
  912MOL0     H20335   7.653   1.738   6.653 -1.6871 -0.1307 -0.8525
  912MOL0     H20336   7.612   1.690   6.817  0.9675 -0.0890 -0.1738
  912MOL0     H20337   7.547   1.938   6.984  1.0736 -2.3095  0.6316
  912MOL0     H20338   7.603   2.223   7.048  0.7196 -0.0039 -1.3267
  912MOL0     H20339   7.754   2.274   6.980 -0.4568  0.3365 -1.6121
  912MOL0     H20340   7.896   2.152   7.122 -0.4451 -0.3039 -2.7095
  912MOL0     H20341   7.771   2.032   7.166  1.8605  0.0690 -0.6804
  912MOL0     H20342   7.828   2.200   7.349  1.3298  0.5777 -2.6209
  912MOL0     H20343   7.753   2.320   7.238  1.2606 -0.9370 -3.9685
  912MOL0     H20344   7.540   2.212   7.281  1.4049 -0.1646 -0.9205
  912MOL0     H20345   7.615   2.219   7.443 -1.8293  1.4860 -0.4626
  912MOL0     H20346   7.567   1.791   7.321  1.2997  2.2410  1.3949
  912MOL0     H20347   7.375   1.672   7.370  0.0846 -0.3607  1.2460
  912MOL0     H20348   6.775   1.921   7.430 -0.7662  0.9706 -0.1239
  912MOL0     H20349   6.561   1.841   7.521 -0.2592 -0.8316  2.3867
  912MOL0     H20350   6.515   1.590   7.873  0.5982  1.8178 -1.1053
  912MOL0     H20351   6.547   1.457   7.743 -0.5103 -1.2004 -1.1268
  912MOL0     H20352   6.299   1.634   7.761 -1.4270 -0.6783 -2.3013
  912MOL0     H20353   6.306   1.497   7.870  0.5625  0.6420  1.0089
  912MOL0     H20354   6.343   1.349   7.646 -3.4484 -2.2061 -1.0641
  912MOL0     H20355   6.291   1.490   7.565  2.4544  1.6642  1.4712
  912MOL0     H20356   6.118   1.321   7.612  1.0775  0.0187 -1.0474
  912MOL0     H20357   6.152   1.337   7.788 -0.1674 -0.0821 -1.4714
  912MOL0     H20358   6.052   1.568   7.601 -0.2165 -1.1689 -0.6025
  912MOL0     H20359   6.069   1.578   7.776  1.4577  0.2463  0.3275
  912MOL0     H20360   5.869   1.439   7.810 -0.9434  2.6305  0.2423
  912MOL0     H20361   5.899   1.374   7.641 -0.8216 -1.2054  2.0993
  912MOL0     H20362   5.746   1.620   7.732 -0.4109  1.4925 -1.4796
  912MOL0     H20363   5.842   1.634   7.589  2.7516  0.1850  1.6613
  912MOL0     H20364   5.629   1.425   7.652 -0.9512  0.9694  0.2973
  912MOL0     H20365   5.718   1.437   7.497 -3.0845 -0.1707 -1.3450
  912MOL0     H20366   6.783   1.549   7.745  2.6005 -2.0865 -2.3409
  912MOL0     H20367   6.988   1.656   7.662  0.2942  1.0423 -0.3518
  912MOL0     H20368   7.201   2.053   7.529 -0.3715  1.1465 -2.5251
  912MOL0     H20369   7.392   2.150   7.484  0.3343 -0.1486 -1.2150
  912MOL0     H20370   6.650   1.783   6.184  2.9172 -3.2283 -1.1521
  912MOL0     H20371   6.405   1.778   6.166 -1.3166  0.1678  0.2628
  912MOL0     H20372   6.028   1.460   6.386 -2.2701 -4.1388 -1.5334
  912MOL0     H20373   5.816   1.388   6.354  4.1353 -1.5387  1.5319
  912MOL0     H20374   5.543   1.495   6.012 -0.5376  0.6016 -0.6101
  912MOL0     H20375   5.530   1.637   6.135  3.1655  0.6888  0.4101
  912MOL0     H20376   5.408   1.467   6.280 -1.0964  0.0015  0.7616
  912MOL0     H20377   5.315   1.552   6.150 -0.5684 -1.2717 -0.6471
  912MOL0     H20378   5.373   1.259   6.172  1.2038 -0.1194 -0.0513
  912MOL0     H20379   5.395   1.328   6.022  1.9354  0.9001  0.8182
  912MOL0     H20380   5.160   1.401   5.999 -1.7770 -2.9297 -0.0684
  912MOL0     H20381   5.166   1.237   6.058  2.5475 -1.0874  0.2375
  912MOL0     H20382   4.954   1.407   6.369 -0.4370  1.2731 -0.0235
  912MOL0     H20383   5.725   1.692   6.063 -1.5543 -3.3045  0.6059
  912MOL0     H20384   5.941   1.769   6.075 -1.2707 -1.4689 -1.1788
  913MOL0     O20385   5.108   7.926   2.505  0.5433  0.0809 -0.4468
  913MOL0     C20386   5.147   7.923   2.626  0.0007  0.3290  0.3258
  913MOL0     O20387   5.078   7.965   2.739  0.1503  0.3617 -0.2737
  913MOL0     C20388   4.949   8.003   2.746  0.4697 -0.5002  0.0175
  913MOL0     C20389   4.881   7.976   2.857  0.3292  0.1802 -0.2589
  913MOL0     C20390   4.746   8.013   2.876  0.0908  0.2082  0.1919
  913MOL0     C20391   4.676   8.077   2.769  0.4288  0.1098 -0.3111
  913MOL0     O20392   4.552   8.137   2.781  0.4726  0.0971  0.0746
  913MOL0     C20393   4.478   8.122   2.907  0.1129 -0.0113  0.3169
  913MOL0     C20394   4.347   8.193   2.881  0.2282 -0.5583  0.0860
  913MOL0     C20395   4.257   8.197   3.003  0.0106  0.2462  0.3877
  913MOL0     C20396   4.142   8.298   2.976  0.4026 -0.6260 -0.4237
  913MOL0     C20397   4.037   8.281   3.086 -0.7998 -0.1578 -0.5096
  913MOL0     C20398   3.912   8.366   3.057  0.0336 -0.1383 -0.6300
  913MOL0     C20399   3.812   8.365   3.170 -0.1313  0.3248 -0.2348
  913MOL0     C20400   3.685   8.444   3.130 -0.9148 -0.1183  0.3480
  913MOL0     N20401   3.713   8.591   3.118 -0.0578  0.1324 -0.3080
  913MOL0     C20402   3.670   8.689   3.208  0.2561  0.2826 -0.0064
  913MOL0     C20403   3.710   8.805   3.146 -0.1091  0.6565  0.3057
  913MOL0     C20404   3.688   8.938   3.208  0.5532  0.4876  0.2876
  913MOL0     C20405   3.539   8.964   3.199 -0.0798 -0.1653 -0.4987
  913MOL0     C20406   3.499   9.081   3.278 -0.0602 -0.4199 -0.7958
  913MOL0     C20407   3.343   9.087   3.285 -0.5411  0.1162  0.8647
  913MOL0     O20408   3.290   9.200   3.350  0.2853  0.2176  0.1019
  913MOL0     C20409   3.157   9.214   3.364 -0.5748 -0.2189 -0.4759
  913MOL0     C20410   3.062   9.119   3.342  0.4848  0.7167  0.5979
  913MOL0     C20411   2.932   9.144   3.379 -0.2289  0.3390  0.1710
  913MOL0     C20412   2.887   9.266   3.428  0.2100 -0.3507  0.2713
  913MOL0     C20413   2.750   9.280   3.460 -0.2029  0.6763  0.1103
  913MOL0     O20414   2.664   9.168   3.448  0.1130  0.3673 -0.2106
  913MOL0     C20415   2.534   9.191   3.497  0.2292  0.2317 -0.1815
  913MOL0     C20416   2.509   9.165   3.630 -0.6784  0.3424  0.5325
  913MOL0     C20417   2.372   9.159   3.674  0.9060 -1.1301  0.3767
  913MOL0     C20418   2.261   9.180   3.582 -0.0240  0.3781  0.2844
  913MOL0     O20419   2.130   9.181   3.616 -0.1702  0.4823  0.3041
  913MOL0     C20420   2.026   9.150   3.520 -0.2944  1.0723  0.9827
  913MOL0     C20421   2.040   8.999   3.493 -0.7632 -0.5905 -0.0950
  913MOL0     C20422   2.053   8.902   3.617 -0.6868  0.3572 -0.3964
  913MOL0     C20423   2.080   8.757   3.581  0.6185 -0.5435  0.7512
  913MOL0     C20424   2.215   8.721   3.522 -0.1769  0.1698 -0.2975
  913MOL0     C20425   2.345   8.738   3.604  0.4251 -0.1528  0.6251
  913MOL0     C20426   2.463   8.724   3.508 -0.4526 -0.1126 -0.6768
  913MOL0     C20427   2.581   8.791   3.567  0.6410  0.4329  1.0009
  913MOL0    Cl20428   2.719   8.801   3.443 -0.1299 -0.1121 -0.1039
  913MOL0     C20429   2.295   9.223   3.452  0.4321 -0.1378 -1.0083
  913MOL0     C20430   2.427   9.229   3.409  0.8500  0.0394  0.1530
  913MOL0     O20431   2.712   9.390   3.507 -0.0338 -0.6638 -0.7977
  913MOL0     C20432   2.985   9.367   3.445 -0.8809  0.1424  0.0335
  913MOL0     C20433   3.115   9.341   3.417 -0.7412  1.1273  0.0419
  913MOL0     N20434   3.749   8.778   3.018 -0.1411  0.1335 -0.0693
  913MOL0     N20435   3.755   8.653   3.002  0.6358 -1.2480 -0.4486
  913MOL0     C20436   4.742   8.090   2.645 -1.4031  0.0118  0.7042
  913MOL0     C20437   4.884   8.061   2.639 -0.2739  0.6160  0.8748
  913MOL0     C20438   5.293   7.902   2.650  0.1711 -0.4941  0.3636
  913MOL0     C20439   5.351   7.858   2.776 -0.4183 -0.7945  0.1614
  913MOL0     C20440   5.488   7.859   2.796 -0.2804  0.3380  0.5923
  913MOL0     C20441   5.574   7.889   2.693  0.4316 -0.4853  1.0897
  913MOL0     O20442   5.711   7.902   2.697 -0.6662 -0.5442 -0.3302
  913MOL0     C20443   5.780   7.894   2.827 -0.1612  0.2160 -0.0642
  913MOL0     C20444   5.926   7.936   2.797 -0.3067 -0.8248  0.5899
  913MOL0     C20445   6.012   7.839   2.706  0.2124  0.5164 -0.1477
  913MOL0     C20446   6.153   7.832   2.753 -0.6006  0.3227  0.3883
  913MOL0     C20447   6.249   7.780   2.665 -0.3876  0.5643 -0.0800
  913MOL0     C20448   6.315   7.736   2.579 -0.1916  0.1847 -0.8488
  913MOL0     C20449   5.516   7.926   2.566  0.0077 -0.2091 -0.5900
  913MOL0     C20450   5.379   7.943   2.551 -0.0847 -0.1453  0.7865
  913MOL0     H20451   4.942   7.943   2.941  1.3682  0.6001 -0.8310
  913MOL0     H20452   4.689   7.987   2.964  0.8764 -1.4638  0.2575
  913MOL0     H20453   4.525   8.152   3.001 -0.3864 -1.0210  0.9121
  913MOL0     H20454   4.453   8.015   2.906  0.2576 -0.0466 -0.4303
  913MOL0     H20455   4.296   8.137   2.803  1.7726 -1.6568 -0.1760
  913MOL0     H20456   4.362   8.293   2.837 -0.3896 -0.7407 -0.5514
  913MOL0     H20457   4.317   8.220   3.091 -1.0199 -0.3938  1.2884
  913MOL0     H20458   4.220   8.095   3.015 -0.8393  0.5630  0.5388
  913MOL0     H20459   4.184   8.400   2.976 -1.2389  0.0843 -1.2347
  913MOL0     H20460   4.097   8.289   2.876 -2.1153  0.7392  0.5003
  913MOL0     H20461   4.087   8.322   3.174 -2.8651 -0.2164  0.7535
  913MOL0     H20462   4.017   8.175   3.105 -0.0703 -0.0924  0.6606
  913MOL0     H20463   3.868   8.335   2.962 -0.1289 -1.2273 -0.2147
  913MOL0     H20464   3.946   8.468   3.041 -0.3251 -0.1348 -1.3909
  913MOL0     H20465   3.791   8.263   3.202  1.5229 -0.1377 -0.5622
  913MOL0     H20466   3.857   8.420   3.253  0.3693 -0.3018 -0.0844
  913MOL0     H20467   3.611   8.429   3.209  0.5664 -1.3664  1.5580
  913MOL0     H20468   3.649   8.400   3.036  1.5719 -1.4520 -0.0806
  913MOL0     H20469   3.624   8.666   3.303 -0.6028  0.5612 -0.3496
  913MOL0     H20470   3.744   9.009   3.146  0.1736  0.9862  0.5184
  913MOL0     H20471   3.718   8.934   3.313  0.9938  0.0410  0.1550
  913MOL0     H20472   3.478   8.879   3.231  0.1148  0.3605  1.4240
  913MOL0     H20473   3.526   8.983   3.092  0.2851 -2.5053 -1.0188
  913MOL0     H20474   3.537   9.076   3.380 -2.5835 -2.5033  0.1610
  913MOL0     H20475   3.532   9.175   3.233 -1.0544  0.6441  0.6045
  913MOL0     H20476   3.297   8.993   3.316 -1.6101  1.1619  2.6403
  913MOL0     H20477   3.306   9.084   3.182 -0.2288 -1.4585  0.7799
  913MOL0     H20478   3.104   9.029   3.299  2.9109  2.6795 -1.4859
  913MOL0     H20479   2.858   9.067   3.357 -0.3281  0.7083 -0.8276
  913MOL0     H20480   2.593   9.147   3.696 -0.6423  0.5148  0.5346
  913MOL0     H20481   2.346   9.139   3.777 -0.4828 -0.1072  0.2449
  913MOL0     H20482   2.023   9.200   3.423 -0.0343  0.9910  0.9333
  913MOL0     H20483   1.928   9.173   3.563 -1.1113 -0.2827 -0.0925
  913MOL0     H20484   2.130   9.003   3.431 -0.6831 -0.1504  0.0404
  913MOL0     H20485   1.959   8.966   3.429 -1.4095  1.9774 -0.7220
  913MOL0     H20486   1.966   8.897   3.684 -0.7161 -0.1894 -0.4650
  913MOL0     H20487   2.130   8.936   3.687  0.7054 -0.0449 -1.6834
  913MOL0     H20488   2.055   8.691   3.665  0.6312 -1.3615  0.1194
  913MOL0     H20489   2.011   8.735   3.499  3.7780 -3.5723 -1.3884
  913MOL0     H20490   2.223   8.780   3.430  0.3645  1.0658  0.3173
  913MOL0     H20491   2.217   8.613   3.501  0.7915  0.3255 -1.0877
  913MOL0     H20492   2.360   8.680   3.695  3.5410 -0.1618  0.2015
  913MOL0     H20493   2.338   8.842   3.639 -2.8486 -0.0758  0.0193
  913MOL0     H20494   2.488   8.619   3.490  0.3532  0.1146 -0.9314
  913MOL0     H20495   2.452   8.785   3.417 -0.6817  0.9795  0.0595
  913MOL0     H20496   2.614   8.735   3.655 -0.8885 -0.8218  0.8287
  913MOL0     H20497   2.557   8.892   3.600 -3.1500  0.0745 -0.2199
  913MOL0     H20498   2.224   9.238   3.371  2.7005  1.9402 -2.7764
  913MOL0     H20499   2.449   9.261   3.307  1.8283 -0.0754  0.3184
  913MOL0     H20500   2.957   9.464   3.484  2.7579  1.3640  0.0079
  913MOL0     H20501   3.195   9.413   3.432  0.3160 -0.1174  0.5977
  913MOL0     H20502   4.703   8.146   2.561  1.6166 -1.6919 -2.0755
  913MOL0     H20503   4.933   8.075   2.543  1.1579 -0.0507  1.4775
  913MOL0     H20504   5.286   7.838   2.861  0.7525  0.0864  1.3154
  913MOL0     H20505   5.539   7.831   2.888 -0.3267  1.2036  0.8914
  913MOL0     H20506   5.777   7.793   2.869  0.6704  0.4743  0.6365
  913MOL0     H20507   5.725   7.948   2.904  2.0041  0.3902  1.4092
  913MOL0     H20508   5.918   8.037   2.758 -1.5554 -0.4192  1.8294
  913MOL0     H20509   5.972   7.947   2.896 -4.6975  1.2596  2.6546
  913MOL0     H20510   6.029   7.882   2.607 -0.8017  1.7510  0.1866
  913MOL0     H20511   5.969   7.739   2.708  0.6864  0.3128  0.0244
  913MOL0     H20512   6.190   7.933   2.776  2.7491 -0.3828 -1.2455
  913MOL0     H20513   6.160   7.776   2.847  0.9455 -1.7821 -0.8827
  913MOL0     H20514   6.389   7.716   2.504  0.9142  2.4931 -0.4443
  913MOL0     H20515   5.579   7.958   2.484 -1.1294 -0.7560 -1.7221
  913MOL0     H20516   5.350   7.982   2.453 -3.1195  0.2482  1.7454
  914MOL0     O20517   7.516   8.208   9.734  0.6380  0.6883  1.0880
  914MOL0     C20518   7.592   8.118   9.697 -0.0086 -0.1963  0.3765
  914MOL0     O20519   7.561   8.007   9.626  0.3462 -0.0080  0.1199
  914MOL0     C20520   7.431   7.989   9.570 -0.8463  0.5184 -0.3815
  914MOL0     C20521   7.308   8.051   9.602 -0.4549 -0.1500 -0.1317
  914MOL0     C20522   7.190   8.022   9.541 -1.1018  0.5962 -0.1751
  914MOL0     C20523   7.185   7.922   9.441 -0.3574 -0.4843  0.6001
  914MOL0     O20524   7.054   7.900   9.400  0.1116 -0.6726  0.3577
  914MOL0     C20525   7.033   7.768   9.340 -0.2303  0.3790 -0.3849
  914MOL0     C20526   7.035   7.669   9.458  0.0670  0.4314  0.7887
  914MOL0     C20527   7.004   7.524   9.406 -0.0412 -1.1286  0.3944
  914MOL0     C20528   7.005   7.424   9.526  0.7085 -0.2041  0.3021
  914MOL0     C20529   6.866   7.404   9.586 -0.2089 -0.7575 -0.9106
  914MOL0     C20530   6.768   7.325   9.499 -0.7866 -1.3046  0.2567
  914MOL0     C20531   6.677   7.251   9.581  0.6505 -0.0535  0.4015
  914MOL0     C20532   6.610   7.136   9.504  0.4143 -1.1221  0.2479
  914MOL0     N20533   6.513   7.194   9.413  0.1176 -0.5244 -1.4881
  914MOL0     C20534   6.389   7.252   9.455 -0.3335  0.5024 -0.3022
  914MOL0     C20535   6.324   7.272   9.340  0.4736 -0.5936  0.2543
  914MOL0     C20536   6.203   7.368   9.336 -0.2060  0.2967  0.4167
  914MOL0     C20537   6.067   7.294   9.303 -0.2487 -0.2751 -0.2987
  914MOL0     C20538   5.960   7.393   9.275  0.9753 -0.0765  0.5231
  914MOL0     C20539   5.825   7.331   9.241 -0.5515 -0.6554  0.1336
  914MOL0     O20540   5.741   7.445   9.243 -0.1532 -0.0592  0.4720
  914MOL0     C20541   5.614   7.424   9.208  0.5751  0.0881 -0.4015
  914MOL0     C20542   5.539   7.305   9.192  0.3449 -0.0146 -0.1889
  914MOL0     C20543   5.398   7.309   9.160  0.1303  0.3503  0.2851
  914MOL0     C20544   5.333   7.428   9.141  0.1564 -0.4720  0.0175
  914MOL0     C20545   5.188   7.424   9.117 -0.2640 -0.5382  0.2454
  914MOL0     O20546   5.127   7.302   9.085  0.2530  0.6885 -0.0161
  914MOL0     C20547   4.990   7.298   9.070 -0.1291 -1.0463 -0.2632
  914MOL0     C20548   4.927   7.185   9.132  0.1175 -0.2244 -0.0830
  914MOL0     C20549   4.792   7.165   9.115  0.5933 -0.9390  0.4957
  914MOL0     C20550   4.704   7.260   9.050 -0.3411 -0.1378 -0.2875
  914MOL0     O20551   4.574   7.245   9.016 -0.1730 -0.0191  0.8809
  914MOL0     C20552   4.518   7.119   9.025  0.2175  0.0975 -0.7945
  914MOL0     C20553   4.370   7.146   9.011 -0.2630  0.0099 -0.1467
  914MOL0     C20554   4.297   7.007   8.984 -0.1914 -0.1303  0.7755
  914MOL0     C20555   4.163   7.053   8.929 -0.0813 -0.2662 -0.3394
  914MOL0     C20556   4.048   6.952   8.925 -0.2460 -0.2642 -0.4036
  914MOL0     C20557   3.915   7.017   8.962 -0.4897  0.2469 -0.0092
  914MOL0     C20558   3.794   6.916   8.970 -0.2552 -1.1652 -0.4010
  914MOL0     C20559   3.653   6.984   8.998 -0.0176  0.0406 -0.3912
  914MOL0    Cl20560   3.631   6.988   9.176 -0.0057 -0.4673  0.3516
  914MOL0     C20561   4.765   7.371   8.998 -0.1221 -0.1623 -1.0763
  914MOL0     C20562   4.908   7.392   9.007  0.4667  0.5432  0.0888
  914MOL0     O20563   5.130   7.532   9.110  0.3657  0.0672  0.1340
  914MOL0     C20564   5.402   7.548   9.174 -0.9919 -0.3677 -0.6310
  914MOL0     C20565   5.543   7.546   9.203  0.2228 -0.3637  0.0817
  914MOL0     N20566   6.399   7.221   9.232 -0.1497 -0.2187 -0.2070
  914MOL0     N20567   6.519   7.191   9.278 -0.0492 -0.1203 -0.2597
  914MOL0     C20568   7.300   7.848   9.414 -0.3897 -0.1886 -0.4216
  914MOL0     C20569   7.422   7.884   9.477 -0.5349  0.2184 -0.5541
  914MOL0     C20570   7.733   8.118   9.751 -1.2727 -0.0615  1.1261
  914MOL0     C20571   7.797   8.226   9.820  0.5043  0.0415  0.7933
  914MOL0     C20572   7.924   8.215   9.869 -0.2714  0.9575 -0.5932
  914MOL0     C20573   8.003   8.100   9.851  1.2149 -0.2364  0.3976
  914MOL0     O20574   8.132   8.084   9.892  0.8057  0.2610 -0.0370
  914MOL0     C20575   8.208   8.186   9.969  0.2650 -0.6836  0.3304
  914MOL0     C20576   8.342   8.129  10.010 -0.0513 -0.4450  0.1801
  914MOL0     C20577   8.390   8.213  10.130  0.5801 -0.1810  0.6414
  914MOL0     C20578   8.519   8.164  10.189 -0.3400 -0.5518  0.5081
  914MOL0     C20579   8.501   8.054  10.277 -0.3011  1.1128 -0.2612
  914MOL0     C20580   8.501   7.969  10.362  0.0457 -0.2715 -0.2841
  914MOL0     C20581   7.944   7.996   9.782 -0.1569  0.2150  0.0729
  914MOL0     C20582   7.812   8.005   9.729 -0.0685 -0.3659 -0.1835
  914MOL0     H20583   7.301   8.130   9.676  1.0706 -0.2520  0.1655
  914MOL0     H20584   7.101   8.069   9.581 -1.0918  0.9526 -0.5673
  914MOL0     H20585   7.099   7.741   9.257  1.8598  2.2005  0.5952
  914MOL0     H20586   6.927   7.765   9.314 -0.1211 -0.5590 -0.7878
  914MOL0     H20587   6.962   7.710   9.529  0.4453 -0.0098  1.4406
  914MOL0     H20588   7.135   7.665   9.502  2.1583 -1.2742 -3.5913
  914MOL0     H20589   7.084   7.504   9.334 -0.8523  0.1347 -0.9070
  914MOL0     H20590   6.913   7.515   9.347  0.4195 -0.0137 -0.5168
  914MOL0     H20591   7.054   7.331   9.496  2.1539  1.0954 -1.5661
  914MOL0     H20592   7.068   7.468   9.603 -1.4426  1.7803  1.0605
  914MOL0     H20593   6.825   7.504   9.607  0.3773 -0.6359 -0.3191
  914MOL0     H20594   6.882   7.353   9.681 -0.3102 -0.1237 -0.5433
  914MOL0     H20595   6.823   7.253   9.438  3.6593  2.3007 -0.4755
  914MOL0     H20596   6.716   7.389   9.427  2.0425 -0.9147 -1.6065
  914MOL0     H20597   6.732   7.204   9.663  0.8741 -1.2016 -0.3772
  914MOL0     H20598   6.600   7.316   9.624  0.9647  1.5758 -1.3435
  914MOL0     H20599   6.559   7.070   9.575 -1.7265 -0.3140 -0.4608
  914MOL0     H20600   6.694   7.085   9.454  1.5128  2.3955 -1.8300
  914MOL0     H20601   6.350   7.280   9.553  0.2519 -0.1967  0.1448
  914MOL0     H20602   6.216   7.442   9.257 -2.8975 -1.4315 -1.8453
  914MOL0     H20603   6.179   7.424   9.427  0.6318 -0.0173  0.8384
  914MOL0     H20604   6.048   7.230   9.390  0.2899 -0.8334 -0.5809
  914MOL0     H20605   6.095   7.228   9.220  2.0219 -0.3951  0.4848
  914MOL0     H20606   5.944   7.463   9.358  1.7747 -0.1397  0.7393
  914MOL0     H20607   5.985   7.446   9.182 -1.7012  0.3127 -0.0527
  914MOL0     H20608   5.794   7.265   9.323  1.3133  0.3902  1.7770
  914MOL0     H20609   5.827   7.281   9.144 -0.5052 -1.7067  0.6622
  914MOL0     H20610   5.588   7.209   9.203  0.0667  0.0345  1.6890
  914MOL0     H20611   5.356   7.209   9.149  3.3528 -0.9780 -1.4172
  914MOL0     H20612   4.990   7.113   9.183  0.1201 -0.5054 -0.4756
  914MOL0     H20613   4.749   7.077   9.161 -1.0535 -0.4836 -0.1283
  914MOL0     H20614   4.543   7.065   9.117 -2.2596  0.0360 -0.0913
  914MOL0     H20615   4.552   7.054   8.944  2.0743 -1.6853  1.2972
  914MOL0     H20616   4.358   7.218   8.929  0.9164  2.0505  1.3490
  914MOL0     H20617   4.333   7.190   9.104  0.6402 -1.4739  0.9508
  914MOL0     H20618   4.289   6.936   9.067 -1.3488 -0.9343  0.0123
  914MOL0     H20619   4.349   6.965   8.897 -2.4224  1.6740 -1.5794
  914MOL0     H20620   4.130   7.145   8.979  1.6994 -0.0737  0.5450
  914MOL0     H20621   4.172   7.092   8.827 -0.4111  1.3286  0.2060
  914MOL0     H20622   4.078   6.870   8.990 -1.6280  1.1988  2.2426
  914MOL0     H20623   4.038   6.917   8.822  0.8484  0.2389 -0.6935
  914MOL0     H20624   3.888   7.092   8.887 -2.3548 -2.0453 -1.7939
  914MOL0     H20625   3.911   7.065   9.060  0.9620 -2.0519  1.2491
  914MOL0     H20626   3.795   6.854   8.880 -0.7456 -0.1918 -1.0965
  914MOL0     H20627   3.798   6.848   9.056 -3.0863  1.4284  2.0460
  914MOL0     H20628   3.568   6.932   8.953  0.5252 -0.6946 -0.5960
  914MOL0     H20629   3.652   7.087   8.962 -0.7175  1.5155  3.3551
  914MOL0     H20630   4.702   7.445   8.949 -0.5441  0.7179  0.6894
  914MOL0     H20631   4.934   7.490   8.970 -1.7793  0.8747 -0.8072
  914MOL0     H20632   5.349   7.642   9.183 -0.4336  0.1312 -2.2888
  914MOL0     H20633   5.599   7.635   9.230 -1.1247  0.4766  0.1848
  914MOL0     H20634   7.299   7.764   9.345 -1.3945  1.0155 -1.9437
  914MOL0     H20635   7.509   7.821   9.467  0.7008  1.9693 -1.5957
  914MOL0     H20636   7.741   8.314   9.849  1.4791  0.8769  0.1994
  914MOL0     H20637   7.960   8.291   9.937 -0.1098  0.9990 -0.7240
  914MOL0     H20638   8.150   8.204  10.060  2.1892  0.0414  1.4691
  914MOL0     H20639   8.223   8.274   9.905  0.1702 -0.2546  0.8875
  914MOL0     H20640   8.327   8.029  10.053  0.8474 -0.4006  0.6224
  914MOL0     H20641   8.411   8.131   9.925 -0.4670 -2.1221 -0.2266
  914MOL0     H20642   8.314   8.223  10.207  0.3973  0.3967  0.3901
  914MOL0     H20643   8.395   8.316  10.094  1.2504  0.2656  1.9489
  914MOL0     H20644   8.594   8.146  10.111  0.6822  2.7839  0.5683
  914MOL0     H20645   8.563   8.244  10.249 -2.6807  1.3123 -0.1243
  914MOL0     H20646   8.516   7.894  10.437  0.8786  0.2416  0.0785
  914MOL0     H20647   7.986   7.898   9.762 -2.9662 -1.2538  0.9023
  914MOL0     H20648   7.776   7.907   9.699  0.1395 -1.8085  3.7294
  915MOL0     O20649   2.716   7.149   5.032 -0.1725 -0.0779 -0.1317
  915MOL0     C20650   2.748   7.236   4.951  0.6387 -0.0062 -0.4804
  915MOL0     O20651   2.664   7.286   4.853 -0.2338 -0.1066 -0.2184
  915MOL0     C20652   2.529   7.272   4.875  0.2347  0.0089 -0.5553
  915MOL0     C20653   2.459   7.391   4.903 -0.1432  0.2259  0.7873
  915MOL0     C20654   2.324   7.393   4.926  0.0313 -0.5661  0.3602
  915MOL0     C20655   2.253   7.275   4.929  1.0428  0.4283 -0.1535
  915MOL0     O20656   2.117   7.272   4.955 -0.2010 -1.0125 -0.6676
  915MOL0     C20657   2.035   7.389   4.969  0.3676 -0.4323  0.2266
  915MOL0     C20658   2.016   7.466   4.842  0.0903  0.1993  0.1578
  915MOL0     C20659   1.875   7.509   4.817  0.1413  0.3277 -0.2467
  915MOL0     C20660   1.780   7.400   4.786  0.1259 -0.5395  0.1309
  915MOL0     C20661   1.648   7.466   4.761 -1.1120 -0.4583 -0.8547
  915MOL0     C20662   1.547   7.344   4.741  0.8134 -0.2349 -0.0693
  915MOL0     C20663   1.404   7.397   4.722 -0.6935  0.0171  0.1208
  915MOL0     C20664   1.320   7.406   4.852  0.3934  0.4605 -0.2206
  915MOL0     N20665   1.174   7.425   4.825  0.0975  0.4977  0.1573
  915MOL0     C20666   1.104   7.495   4.725  0.7488  0.3455 -0.8178
  915MOL0     C20667   0.973   7.495   4.776  0.1390 -0.5135  0.0106
  915MOL0     C20668   0.862   7.581   4.718  0.2384 -0.5715 -0.1319
  915MOL0     C20669   0.731   7.500   4.709 -0.2500 -0.1167  0.7453
  915MOL0     C20670   0.665   7.459   4.840  0.4151  0.4884 -0.0633
  915MOL0     C20671   0.507   7.429   4.836  0.7010 -0.1462 -0.3551
  915MOL0     O20672   0.449   7.555   4.801  0.0902  0.0642  0.5811
  915MOL0     C20673   0.350   7.559   4.704  1.5555 -0.3705 -0.3426
  915MOL0     C20674   0.280   7.442   4.657  0.2260 -0.8887  0.0003
  915MOL0     C20675   0.168   7.451   4.574  0.5749  1.3411  0.8133
  915MOL0     C20676   0.133   7.575   4.520  0.6794  0.1798 -0.2658
  915MOL0     C20677   0.026   7.600   4.417  0.1727  0.3975 -0.2366
  915MOL0     O20678  -0.012   7.726   4.402 -0.2963 -0.5715  0.6894
  915MOL0     C20679  -0.123   7.761   4.331 -0.0073  0.3220 -0.3874
  915MOL0     C20680  -0.122   7.799   4.194  0.6718 -0.0304 -0.1285
  915MOL0     C20681  -0.235   7.856   4.131  0.7038  0.5152 -0.0132
  915MOL0     C20682  -0.361   7.862   4.199  0.6375  0.5780 -0.3477
  915MOL0     O20683  -0.483   7.900   4.143 -0.6087 -0.4477 -0.7876
  915MOL0     C20684  -0.502   7.886   3.997 -0.4374  0.5788 -0.7002
  915MOL0     C20685  -0.647   7.918   3.966  0.3425 -0.3674 -0.5774
  915MOL0     C20686  -0.671   8.053   3.898  0.1337  0.1693 -0.0265
  915MOL0     C20687  -0.825   8.069   3.871 -0.4885  1.2575  0.3327
  915MOL0     C20688  -0.909   8.079   3.994 -0.4433  0.1549 -0.5027
  915MOL0     C20689  -1.066   8.114   3.966 -0.2582 -0.5736  0.0149
  915MOL0     C20690  -1.131   8.003   3.882  0.1928  0.8860 -0.0164
  915MOL0     C20691  -1.278   8.028   3.848  0.1738 -0.4898  1.1993
  915MOL0    Cl20692  -1.326   7.913   3.720 -0.0259  0.0147  0.1505
  915MOL0     C20693  -0.361   7.815   4.328 -0.5653  0.6275 -0.0623
  915MOL0     C20694  -0.247   7.763   4.394 -0.4740 -0.8563  0.6886
  915MOL0     O20695  -0.003   7.506   4.341 -0.1072  0.0390  0.1267
  915MOL0     C20696   0.199   7.695   4.572  1.5353  0.6600 -0.2266
  915MOL0     C20697   0.307   7.684   4.660 -0.3369  0.3547 -0.3708
  915MOL0     N20698   0.969   7.424   4.898 -0.1145  0.5717  0.5513
  915MOL0     N20699   1.083   7.377   4.921 -0.5455 -0.0328 -0.5921
  915MOL0     C20700   2.323   7.153   4.914 -0.2895  0.7722  0.1087
  915MOL0     C20701   2.458   7.158   4.877  0.1099  0.3588  0.1974
  915MOL0     C20702   2.883   7.299   4.960  0.4586 -0.8776  0.2876
  915MOL0     C20703   2.910   7.414   4.884 -0.1493 -1.1280 -0.2580
  915MOL0     C20704   3.043   7.469   4.893 -0.4605 -0.4473 -0.2722
  915MOL0     C20705   3.134   7.414   4.987  0.4372  0.2708  0.1377
  915MOL0     O20706   3.255   7.482   4.981 -0.3660 -0.3775 -0.0455
  915MOL0     C20707   3.368   7.447   5.067 -0.1642  0.2565  0.9371
  915MOL0     C20708   3.438   7.322   5.005 -0.5888  0.4514 -0.0061
  915MOL0     C20709   3.559   7.284   5.085  0.5930  0.3327 -0.7098
  915MOL0     C20710   3.689   7.349   5.042 -0.5329 -0.0466  0.2825
  915MOL0     C20711   3.787   7.315   5.147  0.5484 -0.5110 -0.3659
  915MOL0     C20712   3.858   7.290   5.240  0.0812  0.4373  1.0782
  915MOL0     C20713   3.095   7.305   5.066 -0.6427 -1.1138 -0.3916
  915MOL0     C20714   2.974   7.252   5.053  0.4841  0.5109  1.0805
  915MOL0     H20715   2.525   7.476   4.907  2.3812 -1.5448 -0.3923
  915MOL0     H20716   2.285   7.490   4.953  0.1803 -0.7047  1.0941
  915MOL0     H20717   2.075   7.456   5.047 -0.9461 -1.3867  1.7761
  915MOL0     H20718   1.939   7.352   5.004  1.0879  0.2280  3.1969
  915MOL0     H20719   2.035   7.391   4.764 -0.0674 -0.1156  0.4189
  915MOL0     H20720   2.080   7.554   4.839  2.2022 -1.2495  0.7057
  915MOL0     H20721   1.887   7.573   4.728  2.5634  1.0934  0.5324
  915MOL0     H20722   1.850   7.570   4.904  1.3527 -0.6597  0.8454
  915MOL0     H20723   1.818   7.350   4.696  0.8891  2.9379 -1.6424
  915MOL0     H20724   1.769   7.341   4.877 -0.5177 -0.2298  0.2604
  915MOL0     H20725   1.645   7.533   4.674 -1.0580 -0.1556 -0.6249
  915MOL0     H20726   1.620   7.525   4.848  2.6819 -1.1445  1.0197
  915MOL0     H20727   1.547   7.270   4.821 -0.4901  0.3234  0.4929
  915MOL0     H20728   1.573   7.280   4.657 -1.7685 -1.6431  0.1054
  915MOL0     H20729   1.409   7.497   4.676  2.3060  0.7229  1.7473
  915MOL0     H20730   1.342   7.337   4.655  0.1151 -0.6389 -0.0564
  915MOL0     H20731   1.370   7.474   4.921  0.9124 -1.8074  1.7767
  915MOL0     H20732   1.329   7.314   4.911 -2.3596  1.0793  1.3729
  915MOL0     H20733   1.144   7.539   4.634  1.5575  1.6010  0.0997
  915MOL0     H20734   0.901   7.621   4.624  1.0624  1.6766  1.0757
  915MOL0     H20735   0.837   7.667   4.781 -3.7205 -1.3024 -0.4461
  915MOL0     H20736   0.747   7.419   4.637  0.3455  1.6955 -1.2614
  915MOL0     H20737   0.667   7.568   4.651  1.2373 -2.1431 -3.7627
  915MOL0     H20738   0.709   7.365   4.877 -3.1122 -1.3618 -0.1133
  915MOL0     H20739   0.680   7.546   4.904  0.3874  0.3254  0.1641
  915MOL0     H20740   0.460   7.367   4.913  0.7932 -0.2575 -0.3897
  915MOL0     H20741   0.498   7.367   4.746 -0.4631 -1.1269  0.4113
  915MOL0     H20742   0.308   7.346   4.698  3.5604 -0.2460 -0.5064
  915MOL0     H20743   0.133   7.358   4.529 -0.6270  1.7712  0.8426
  915MOL0     H20744  -0.030   7.807   4.137 -0.3106 -0.9288 -1.9174
  915MOL0     H20745  -0.222   7.888   4.028  3.2958 -1.2999 -0.3600
  915MOL0     H20746  -0.475   7.783   3.973  0.7534  0.0715  2.4140
  915MOL0     H20747  -0.442   7.945   3.927 -1.1726  2.7038  0.3560
  915MOL0     H20748  -0.699   7.925   4.062  0.9236 -1.2225 -0.1845
  915MOL0     H20749  -0.694   7.850   3.895 -0.3279 -0.1515 -0.3421
  915MOL0     H20750  -0.608   8.077   3.812 -0.8304  0.9891 -0.5152
  915MOL0     H20751  -0.653   8.131   3.974  4.1164 -0.4862 -0.0634
  915MOL0     H20752  -0.851   8.165   3.826 -2.4847  1.5058  1.8683
  915MOL0     H20753  -0.862   7.991   3.805 -0.5174 -1.0605  2.8998
  915MOL0     H20754  -0.870   8.158   4.059 -1.5049  0.4591 -0.2153
  915MOL0     H20755  -0.912   7.986   4.052 -0.2507  1.7643  2.2647
  915MOL0     H20756  -1.082   8.213   3.922 -1.4252 -0.8360 -0.1884
  915MOL0     H20757  -1.119   8.111   4.062 -2.3364 -0.1730 -1.0472
  915MOL0     H20758  -1.073   8.003   3.790  0.3597  1.9694  0.0726
  915MOL0     H20759  -1.130   7.900   3.920  2.7806  0.2174 -1.6783
  915MOL0     H20760  -1.292   8.130   3.811 -0.7406 -0.6806  0.9914
  915MOL0     H20761  -1.344   8.015   3.934 -1.3824  1.3070  0.3469
  915MOL0     H20762  -0.459   7.807   4.373 -0.6603 -1.2176 -0.5028
  915MOL0     H20763  -0.246   7.730   4.497  2.4104  1.4085  1.5074
  915MOL0     H20764   0.159   7.794   4.555 -1.5138 -0.4393 -0.0283
  915MOL0     H20765   0.353   7.775   4.696  1.2186 -0.6473  0.2579
  915MOL0     H20766   2.281   7.054   4.923  2.0736 -0.2860  0.3763
  915MOL0     H20767   2.512   7.065   4.862 -2.6578 -1.2453 -0.4272
  915MOL0     H20768   2.824   7.452   4.830 -1.2588  0.8397  2.7018
  915MOL0     H20769   3.092   7.539   4.826  1.6401 -1.2959  0.3176
  915MOL0     H20770   3.332   7.429   5.169 -1.4854  0.1650  0.4752
  915MOL0     H20771   3.429   7.537   5.063 -0.6120  0.5748  1.1604
  915MOL0     H20772   3.366   7.241   5.012 -1.3380  0.8078 -2.5926
  915MOL0     H20773   3.454   7.344   4.899  0.8952  2.0112  0.4833
  915MOL0     H20774   3.567   7.175   5.082 -0.0676  0.1701  1.5481
  915MOL0     H20775   3.531   7.314   5.186 -0.3603 -2.0693 -0.2145
  915MOL0     H20776   3.720   7.308   4.946  1.6658  2.8115 -0.3829
  915MOL0     H20777   3.685   7.458   5.032  1.1406  0.1310  1.0239
  915MOL0     H20778   3.914   7.244   5.320  2.0558 -0.8571 -0.9138
  915MOL0     H20779   3.163   7.273   5.144 -0.4790  1.1558  0.4524
  915MOL0     H20780   2.938   7.176   5.122 -0.2862  0.2628  0.4171
  916MOL0     O20781   3.150   5.306   2.181  0.0204  0.5317  0.3101
  916MOL0     C20782   3.269   5.311   2.204 -0.2318  0.0870 -0.9048
  916MOL0     O20783   3.327   5.298   2.331  0.0010 -0.4790 -0.0225
  916MOL0     C20784   3.257   5.296   2.446 -0.3285 -0.4473  0.1699
  916MOL0     C20785   3.131   5.340   2.468 -0.2719 -0.0045 -0.8644
  916MOL0     C20786   3.077   5.338   2.597  0.2187 -0.1161 -0.8769
  916MOL0     C20787   3.136   5.273   2.708  1.3803  0.0411  0.3246
  916MOL0     O20788   3.084   5.267   2.836  1.2297  0.8048  0.2012
  916MOL0     C20789   3.066   5.131   2.906 -0.2345 -0.0514  0.2477
  916MOL0     C20790   2.994   5.132   3.038 -0.1353 -0.1777 -0.5096
  916MOL0     C20791   2.856   5.184   3.031 -0.3842  0.5872  0.7060
  916MOL0     C20792   2.781   5.160   3.161  0.6101  0.4460 -0.5724
  916MOL0     C20793   2.641   5.229   3.159  0.2502  0.2137  0.2182
  916MOL0     C20794   2.543   5.185   3.270  0.6072 -0.4068  1.1695
  916MOL0     C20795   2.392   5.221   3.238 -0.5458 -0.0472 -0.2165
  916MOL0     C20796   2.338   5.261   3.376 -0.1183 -0.0336 -0.0564
  916MOL0     N20797   2.192   5.253   3.370  0.6866  0.7686 -0.0300
  916MOL0     C20798   2.127   5.132   3.382  0.3800  0.2626 -0.5518
  916MOL0     C20799   1.998   5.170   3.388  0.3320 -0.1973  0.2463
  916MOL0     C20800   1.879   5.085   3.422  0.1246  0.5636 -0.6970
  916MOL0     C20801   1.890   4.945   3.372  0.5438 -0.6975 -0.0357
  916MOL0     C20802   1.756   4.874   3.389 -0.2084 -0.2121 -0.1805
  916MOL0     C20803   1.774   4.733   3.450 -0.1694  0.5443 -0.1952
  916MOL0     O20804   1.827   4.649   3.345  0.2090  0.1375  0.0263
  916MOL0     C20805   1.757   4.558   3.274 -0.6060 -0.5363 -0.1333
  916MOL0     C20806   1.618   4.541   3.299  0.0496  0.0787 -0.0424
  916MOL0     C20807   1.540   4.453   3.223  0.6393  0.1551 -0.0809
  916MOL0     C20808   1.597   4.367   3.130 -0.2565  0.8890 -0.1997
  916MOL0     C20809   1.511   4.263   3.041  0.4155  0.2865 -0.6359
  916MOL0     O20810   1.576   4.183   2.955 -0.1591  0.1386 -0.2998
  916MOL0     C20811   1.508   4.112   2.872  0.5992  0.1685 -0.8199
  916MOL0     C20812   1.467   4.156   2.747  1.0210 -0.0991  0.1311
  916MOL0     C20813   1.401   4.081   2.647  0.2110  0.0678 -0.2690
  916MOL0     C20814   1.361   3.950   2.682 -0.7275 -0.4928 -0.6002
  916MOL0     O20815   1.300   3.880   2.580  0.0537 -0.5349  1.1201
  916MOL0     C20816   1.225   3.763   2.603  0.2577  0.2168 -0.1794
  916MOL0     C20817   1.096   3.822   2.679 -0.6870 -0.1960  0.0418
  916MOL0     C20818   0.971   3.741   2.691  0.7928  0.5931 -0.3293
  916MOL0     C20819   0.982   3.618   2.780 -0.1741 -0.8105  0.2427
  916MOL0     C20820   0.848   3.527   2.773  0.0954  0.0231  0.6608
  916MOL0     C20821   0.872   3.383   2.817 -0.2007  0.5658 -0.1929
  916MOL0     C20822   0.729   3.311   2.836  0.5142 -0.3650  0.2816
  916MOL0     C20823   0.742   3.184   2.933  0.3911  0.2638  0.2639
  916MOL0    Cl20824   0.863   3.079   2.867 -0.4549  0.1210  0.2555
  916MOL0     C20825   1.417   3.892   2.795  0.3064 -1.1812  0.3731
  916MOL0     C20826   1.481   3.976   2.892  0.4625  0.2299  0.1155
  916MOL0     O20827   1.390   4.257   3.066  0.0727 -0.4386 -0.6109
  916MOL0     C20828   1.733   4.384   3.105  0.0097 -0.0882  0.6821
  916MOL0     C20829   1.806   4.480   3.168  0.2752  1.0099 -0.3232
  916MOL0     N20830   1.993   5.309   3.374 -0.3310  1.2163  0.4009
  916MOL0     N20831   2.103   5.356   3.367 -0.3481 -0.3848 -0.2119
  916MOL0     C20832   3.260   5.223   2.681  0.0369  0.2507 -0.7348
  916MOL0     C20833   3.324   5.245   2.559 -1.8465 -0.7101 -0.0132
  916MOL0     C20834   3.364   5.315   2.096 -0.6029  0.0955  0.3479
  916MOL0     C20835   3.504   5.327   2.121 -0.9848 -0.0365  0.1861
  916MOL0     C20836   3.598   5.323   2.023 -0.7598 -0.0551  0.1726
  916MOL0     C20837   3.552   5.299   1.889  0.2666 -0.1758  0.3471
  916MOL0     O20838   3.630   5.283   1.780  0.4455  0.4517 -0.4938
  916MOL0     C20839   3.769   5.312   1.783 -0.0798 -0.8757  0.1563
  916MOL0     C20840   3.816   5.278   1.641 -0.1246  0.3166  0.5465
  916MOL0     C20841   3.956   5.330   1.617  0.0192 -0.5092  0.0636
  916MOL0     C20842   4.046   5.240   1.699 -1.4728 -1.1486 -0.2702
  916MOL0     C20843   4.182   5.305   1.703  0.8401  0.9227  0.2102
  916MOL0     C20844   4.297   5.344   1.701  0.6441 -0.6676  0.0060
  916MOL0     C20845   3.412   5.300   1.862 -0.1771 -0.6094 -0.3621
  916MOL0     C20846   3.318   5.312   1.963 -0.7281 -0.0777 -0.5874
  916MOL0     H20847   3.073   5.388   2.390  0.0555  0.8522 -0.5912
  916MOL0     H20848   2.980   5.382   2.618  0.7097 -0.2913  2.2319
  916MOL0     H20849   3.167   5.091   2.918 -0.9970 -2.6760 -1.2898
  916MOL0     H20850   3.011   5.069   2.835 -0.1625  0.7267 -0.5055
  916MOL0     H20851   3.050   5.186   3.114  0.5928 -1.5901  0.0043
  916MOL0     H20852   2.991   5.030   3.079 -0.7128  0.2952  0.6661
  916MOL0     H20853   2.807   5.146   2.940 -1.2473  2.4654  0.3300
  916MOL0     H20854   2.864   5.292   3.015 -0.3749  0.4926  0.0525
  916MOL0     H20855   2.770   5.052   3.176  1.9028  0.4511  0.6136
  916MOL0     H20856   2.842   5.203   3.241  2.8476  1.9390 -2.9400
  916MOL0     H20857   2.595   5.198   3.064  2.1048 -0.6347 -0.4473
  916MOL0     H20858   2.649   5.337   3.149  1.8278  0.0476 -0.5140
  916MOL0     H20859   2.569   5.238   3.362 -0.9554  0.5097  1.1164
  916MOL0     H20860   2.558   5.077   3.283  2.1315 -0.2918  0.5890
  916MOL0     H20861   2.392   5.296   3.159  2.0264  0.8701  0.5752
  916MOL0     H20862   2.341   5.128   3.210 -1.6422  0.6161 -0.4885
  916MOL0     H20863   2.381   5.359   3.400 -1.1239  0.4780 -0.2944
  916MOL0     H20864   2.380   5.196   3.452  1.5407  2.7310  1.5515
  916MOL0     H20865   2.175   5.035   3.394  0.5428  0.2520 -1.2545
  916MOL0     H20866   1.785   5.125   3.383 -0.3310 -0.0384 -0.2431
  916MOL0     H20867   1.877   5.080   3.531  1.4431 -2.2652 -0.7097
  916MOL0     H20868   1.964   4.899   3.437 -1.4489 -2.1222  1.3090
  916MOL0     H20869   1.929   4.940   3.269 -0.6835 -0.6081 -0.5269
  916MOL0     H20870   1.700   4.929   3.464 -0.9775  0.9521 -1.5637
  916MOL0     H20871   1.697   4.873   3.297  2.3583  0.7758 -1.9550
  916MOL0     H20872   1.675   4.700   3.485 -0.2489 -0.2889 -1.1460
  916MOL0     H20873   1.852   4.730   3.526  2.4144  0.9315 -2.6782
  916MOL0     H20874   1.553   4.589   3.372 -2.0767 -1.9705 -0.4476
  916MOL0     H20875   1.433   4.453   3.240  0.3950  0.6216 -1.4765
  916MOL0     H20876   1.487   4.258   2.715 -2.1365  1.5933  2.9487
  916MOL0     H20877   1.380   4.111   2.546 -0.6953  0.0178 -0.1044
  916MOL0     H20878   1.290   3.697   2.661 -1.2091  0.8671  2.3631
  916MOL0     H20879   1.199   3.721   2.505  2.5274 -0.3267 -0.6001
  916MOL0     H20880   1.074   3.917   2.629 -2.4267  0.1970  1.4587
  916MOL0     H20881   1.120   3.853   2.781  0.8514 -1.3826  0.0850
  916MOL0     H20882   0.945   3.707   2.590 -0.5286  1.9188 -0.4742
  916MOL0     H20883   0.885   3.795   2.730  0.1199 -0.3962 -0.4284
  916MOL0     H20884   1.061   3.548   2.750 -0.5874 -0.5494 -1.5678
  916MOL0     H20885   0.998   3.645   2.885  0.5519 -2.3680  0.5699
  916MOL0     H20886   0.804   3.522   2.673  1.4679 -1.1783  0.0784
  916MOL0     H20887   0.772   3.574   2.835 -1.4397 -0.8623 -0.4906
  916MOL0     H20888   0.921   3.380   2.914 -1.9796 -0.8691  0.7190
  916MOL0     H20889   0.935   3.325   2.749 -0.6460 -3.5384  2.5300
  916MOL0     H20890   0.658   3.384   2.875  2.9265  2.6892 -0.6408
  916MOL0     H20891   0.697   3.283   2.736 -0.9711 -3.6419  1.5285
  916MOL0     H20892   0.653   3.120   2.930  1.6309 -1.6851  2.2381
  916MOL0     H20893   0.766   3.213   3.036 -0.5094  0.9922  0.2838
  916MOL0     H20894   1.401   3.788   2.821  0.3516 -2.1905 -3.1832
  916MOL0     H20895   1.527   3.926   2.977 -1.2887 -0.3423  0.7773
  916MOL0     H20896   1.783   4.340   3.019  3.0923 -0.3077  2.4433
  916MOL0     H20897   1.905   4.496   3.127  0.6956  0.5227  0.4676
  916MOL0     H20898   3.318   5.176   2.760  2.5735  2.0952 -1.3604
  916MOL0     H20899   3.424   5.203   2.557 -0.5431  1.5670  4.2734
  916MOL0     H20900   3.524   5.329   2.228 -1.3359 -0.5553  0.2710
  916MOL0     H20901   3.703   5.316   2.049 -1.1705  0.2448  2.0682
  916MOL0     H20902   3.820   5.249   1.857 -1.0570 -1.8340  0.0340
  916MOL0     H20903   3.776   5.420   1.801 -4.3392 -0.5051  0.5948
  916MOL0     H20904   3.813   5.170   1.627  0.6954  0.4612 -0.8785
  916MOL0     H20905   3.746   5.312   1.564 -0.0759 -0.4405  0.1636
  916MOL0     H20906   3.964   5.437   1.639 -2.1068 -0.8212  2.9234
  916MOL0     H20907   3.984   5.316   1.512  0.6776  0.5785  0.0696
  916MOL0     H20908   4.023   5.213   1.803  1.5669  2.1111  1.4789
  916MOL0     H20909   4.063   5.145   1.647 -1.7850 -0.1453 -2.2788
  916MOL0     H20910   4.395   5.386   1.696  1.4868 -2.5731 -0.2305
  916MOL0     H20911   3.396   5.295   1.755  1.1562 -0.5757 -0.5825
  916MOL0     H20912   3.213   5.318   1.938 -0.4622  0.6020 -1.5987
  917MOL0     O20913   7.566  10.566   8.965 -0.9968 -0.2108 -0.2152
  917MOL0     C20914   7.656  10.484   8.939 -0.0585 -0.6218 -0.2384
  917MOL0     O20915   7.634  10.352   8.916 -0.4802  0.2929 -0.8386
  917MOL0     C20916   7.501  10.309   8.905  0.3134 -0.1903  0.3766
  917MOL0     C20917   7.444  10.228   8.998 -0.3023  0.7284  0.2032
  917MOL0     C20918   7.317  10.176   8.989 -0.5471  0.6724  0.0615
  917MOL0     C20919   7.235  10.210   8.890  0.4631 -0.3366  0.2560
  917MOL0     O20920   7.103  10.162   8.889  0.0576 -0.0412  0.1800
  917MOL0     C20921   7.006  10.266   8.893  0.4472  0.1474  1.3596
  917MOL0     C20922   6.860  10.211   8.886 -0.0418  0.0736 -0.5790
  917MOL0     C20923   6.819  10.112   8.999  0.0770  0.5537  0.5028
  917MOL0     C20924   6.669  10.079   8.981  1.3029 -0.9520 -0.1404
  917MOL0     C20925   6.618   9.973   9.079  0.1703 -0.0377 -0.1949
  917MOL0     C20926   6.472   9.932   9.055 -0.1446  0.4494  0.2195
  917MOL0     C20927   6.429   9.810   9.138 -0.5684  1.0224  0.3198
  917MOL0     C20928   6.310   9.731   9.080  1.2130 -0.6732 -0.1486
  917MOL0     N20929   6.195   9.826   9.065 -0.0770 -0.0395  0.3250
  917MOL0     C20930   6.104   9.853   9.159 -0.0176  0.5614  0.5452
  917MOL0     C20931   6.021   9.945   9.100 -0.4114  0.2841 -0.3260
  917MOL0     C20932   5.908  10.014   9.176  0.1961  0.0866 -0.3131
  917MOL0     C20933   5.776   9.970   9.129  0.1010 -0.1177 -0.0348
  917MOL0     C20934   5.664  10.051   9.185  0.4115 -0.1135  0.0637
  917MOL0     C20935   5.525   9.985   9.159  0.3464  0.8579  0.2447
  917MOL0     O20936   5.482   9.941   9.033 -0.4172 -0.2771  0.3545
  917MOL0     C20937   5.348   9.919   8.998 -0.8011  0.1676  0.2947
  917MOL0     C20938   5.256   9.915   9.100  0.1621 -0.2743  0.1554
  917MOL0     C20939   5.123   9.902   9.086  0.1209  0.3358 -0.6308
  917MOL0     C20940   5.075   9.884   8.959  0.5634 -0.3317  0.4743
  917MOL0     C20941   4.927   9.845   8.931 -1.3491  0.5573  0.0675
  917MOL0     O20942   4.848   9.844   9.047 -0.4473 -0.1732  0.1746
  917MOL0     C20943   4.717   9.801   9.052 -0.5812  0.5439  0.9841
  917MOL0     C20944   4.619   9.837   9.151 -0.5745 -0.7504 -0.9363
  917MOL0     C20945   4.487   9.810   9.152  0.0972 -0.6487  0.5243
  917MOL0     C20946   4.430   9.739   9.052 -0.6385 -0.0790 -0.6332
  917MOL0     O20947   4.296   9.703   9.073 -0.1868 -0.3141  0.4881
  917MOL0     C20948   4.244   9.604   8.977  0.6854 -0.8261  0.6132
  917MOL0     C20949   4.091   9.604   8.976  0.0453 -0.4524  0.2593
  917MOL0     C20950   4.034   9.526   9.087 -0.0558  0.3240  0.0172
  917MOL0     C20951   3.920   9.437   9.043 -0.3212 -0.2883 -0.1958
  917MOL0     C20952   3.860   9.371   9.167  0.1021 -0.1217 -0.2825
  917MOL0     C20953   3.741   9.279   9.137  0.3132  0.7858  1.4478
  917MOL0     C20954   3.609   9.340   9.077 -0.1000  0.5566 -0.1921
  917MOL0     C20955   3.490   9.260   9.133 -0.2078  0.7712  0.0159
  917MOL0    Cl20956   3.346   9.332   9.073  0.2551  0.2611 -0.2013
  917MOL0     C20957   4.524   9.690   8.951  0.4884 -0.0046  0.4880
  917MOL0     C20958   4.656   9.717   8.954 -0.0897  0.0422  0.4945
  917MOL0     O20959   4.893   9.827   8.818  0.1751 -0.4857  0.0271
  917MOL0     C20960   5.169   9.876   8.850 -0.2814 -0.6408  0.6793
  917MOL0     C20961   5.308   9.898   8.863  0.4481  0.4752 -0.6726
  917MOL0     N20962   6.072   9.972   8.972 -0.0754 -0.1477  0.4983
  917MOL0     N20963   6.175   9.900   8.952 -0.1973  0.3491  0.0127
  917MOL0     C20964   7.283  10.315   8.794 -0.6430  0.4532 -0.1254
  917MOL0     C20965   7.417  10.358   8.805 -0.6952  0.0527  0.1090
  917MOL0     C20966   7.800  10.532   8.930  0.5721 -0.8265 -0.2715
  917MOL0     C20967   7.890  10.459   8.863  0.4013 -0.3257  0.3362
  917MOL0     C20968   8.023  10.505   8.847 -0.6376 -0.3668  0.5362
  917MOL0     C20969   8.062  10.631   8.904  0.1749 -0.3954  0.5119
  917MOL0     O20970   8.185  10.696   8.894  0.2516  0.1059 -0.4092
  917MOL0     C20971   8.284  10.640   8.804 -0.2339  0.6275 -0.6057
  917MOL0     C20972   8.423  10.699   8.842 -0.1284 -0.2131  0.5155
  917MOL0     C20973   8.528  10.640   8.753 -0.4308  0.4408  0.6519
  917MOL0     C20974   8.666  10.711   8.754  0.7935 -0.1045 -0.4384
  917MOL0     C20975   8.661  10.844   8.701 -0.8721 -0.6565  1.0083
  917MOL0     C20976   8.679  10.961   8.686 -1.2096 -0.3388  0.0572
  917MOL0     C20977   7.965  10.705   8.971  0.0412  0.1713 -0.6459
  917MOL0     C20978   7.835  10.658   8.994 -0.9275 -0.0116 -0.1298
  917MOL0     H20979   7.515  10.179   9.064 -0.1799 -1.4142 -1.4409
  917MOL0     H20980   7.275  10.110   9.065  0.0029 -1.1604 -1.1610
  917MOL0     H20981   7.025  10.336   8.810  3.9787 -1.2859  0.7957
  917MOL0     H20982   7.020  10.326   8.983 -0.9959  2.7416 -0.0263
  917MOL0     H20983   6.834  10.168   8.788 -1.2163  0.2302 -0.3507
  917MOL0     H20984   6.802  10.303   8.900 -0.7695 -0.3021 -1.0363
  917MOL0     H20985   6.833  10.148   9.102 -0.7986  1.5940  0.2827
  917MOL0     H20986   6.870  10.016   8.987  2.9543  2.0492 -0.1136
  917MOL0     H20987   6.608  10.169   8.995  1.9301  0.0065 -2.9562
  917MOL0     H20988   6.649  10.044   8.879  0.8934  3.7406 -1.8904
  917MOL0     H20989   6.638  10.001   9.183  1.2311 -2.5413  0.3513
  917MOL0     H20990   6.679   9.884   9.065 -0.2266 -0.1717 -1.1448
  917MOL0     H20991   6.474   9.906   8.949 -2.3371  0.5765  0.1194
  917MOL0     H20992   6.399  10.010   9.074 -0.4384  0.2381 -0.0404
  917MOL0     H20993   6.511   9.738   9.130 -0.9302  0.8222 -2.3658
  917MOL0     H20994   6.415   9.844   9.241  1.9836  0.8512  0.7682
  917MOL0     H20995   6.283   9.643   9.140 -1.5808  0.0862 -0.1719
  917MOL0     H20996   6.324   9.706   8.975  2.3502 -0.3902 -0.0746
  917MOL0     H20997   6.080   9.809   9.256 -1.6388  2.3184  1.0045
  917MOL0     H20998   5.911  10.123   9.168  1.1766  0.4694  3.4831
  917MOL0     H20999   5.911   9.989   9.282 -0.4575 -1.4403 -0.6415
  917MOL0     H21000   5.769   9.861   9.133  1.7544 -0.3236 -1.3071
  917MOL0     H21001   5.774   9.985   9.020  0.8232 -1.6906 -0.2973
  917MOL0     H21002   5.677  10.053   9.293 -1.7178 -0.9346  0.3842
  917MOL0     H21003   5.664  10.154   9.146 -1.2964 -0.4726 -0.9946
  917MOL0     H21004   5.457  10.064   9.193 -0.0037  0.2013  1.0871
  917MOL0     H21005   5.522   9.895   9.221 -3.0204  1.1465  0.7115
  917MOL0     H21006   5.286   9.928   9.204 -0.7144 -1.2481  0.5390
  917MOL0     H21007   5.063   9.894   9.177  3.8150 -0.6062  1.9532
  917MOL0     H21008   4.662   9.897   9.230 -0.3173 -1.3973 -0.5726
  917MOL0     H21009   4.434   9.859   9.233 -1.6061  1.4847 -1.7644
  917MOL0     H21010   4.283   9.511   9.020 -1.3743 -0.9121  2.4154
  917MOL0     H21011   4.265   9.623   8.871  2.0181 -0.1642  0.9693
  917MOL0     H21012   4.066   9.559   8.880  0.4883 -1.6207  0.6730
  917MOL0     H21013   4.051   9.706   8.970 -1.1555 -0.8993  0.4684
  917MOL0     H21014   4.004   9.595   9.166 -1.4697 -0.6179  0.3485
  917MOL0     H21015   4.111   9.459   9.127 -0.3716 -0.1738 -0.1932
  917MOL0     H21016   3.837   9.491   8.997  1.3840  0.5351 -2.4892
  917MOL0     H21017   3.970   9.369   8.972  2.1226  1.1966 -0.0178
  917MOL0     H21018   3.833   9.447   9.240  0.3476 -1.9189  1.8060
  917MOL0     H21019   3.926   9.298   9.214 -0.6093 -1.8132 -1.7568
  917MOL0     H21020   3.715   9.222   9.227  2.2303 -0.9899  0.9668
  917MOL0     H21021   3.783   9.203   9.070 -2.9032  0.1053 -0.0134
  917MOL0     H21022   3.599   9.440   9.119  0.1140  0.1095  0.9734
  917MOL0     H21023   3.607   9.342   8.968 -2.0887 -1.2326 -0.2590
  917MOL0     H21024   3.502   9.252   9.241  0.4414  4.1268  0.3100
  917MOL0     H21025   3.495   9.155   9.101  2.7971  0.0118  2.4544
  917MOL0     H21026   4.490   9.631   8.866  0.2012  3.2112 -1.8107
  917MOL0     H21027   4.713   9.681   8.869  0.1540 -1.0669  1.1071
  917MOL0     H21028   5.139   9.870   8.746  0.8280  0.1876  0.2910
  917MOL0     H21029   5.371   9.884   8.776 -0.1782 -0.5831 -0.9679
  917MOL0     H21030   7.220  10.343   8.710 -0.9066 -1.1457 -0.4948
  917MOL0     H21031   7.455  10.428   8.731 -4.6232 -0.6484 -2.9380
  917MOL0     H21032   7.868  10.370   8.804  0.6552  0.9660 -1.8198
  917MOL0     H21033   8.102  10.448   8.798  1.7966 -0.2065  3.8822
  917MOL0     H21034   8.251  10.664   8.703 -1.6990  5.6393  0.7499
  917MOL0     H21035   8.304  10.534   8.819 -1.6736  0.5253  0.8737
  917MOL0     H21036   8.423  10.804   8.814  1.3379  0.4912  2.8845
  917MOL0     H21037   8.462  10.687   8.943  2.9866  1.9093 -0.3054
  917MOL0     H21038   8.493  10.643   8.649  1.5902  1.3987 -0.0488
  917MOL0     H21039   8.548  10.535   8.775  0.6469  0.4411 -0.2208
  917MOL0     H21040   8.703  10.707   8.857  0.6216 -2.0936 -0.4296
  917MOL0     H21041   8.747  10.661   8.699  0.5976 -0.8017 -0.0982
  917MOL0     H21042   8.703  11.064   8.671  2.0825 -0.5339  2.8167
  917MOL0     H21043   7.988  10.804   9.009 -1.1672 -0.2459  1.2916
  917MOL0     H21044   7.761  10.720   9.043 -0.5486  0.4944 -0.1866
  918MOL0     O21045   3.325   0.684   9.584  0.3931  0.9084 -0.2585
  918MOL0     C21046   3.414   0.600   9.558 -0.1521 -1.4354 -0.1942
  918MOL0     O21047   3.417   0.475   9.609  0.0471 -0.0916  0.5013
  918MOL0     C21048   3.310   0.434   9.683  0.4928  0.1383  0.2795
  918MOL0     C21049   3.175   0.444   9.635 -1.0806 -0.8260 -0.5335
  918MOL0     C21050   3.071   0.395   9.721  0.7644  0.4958 -0.2667
  918MOL0     C21051   3.095   0.337   9.848 -0.1312 -0.7326  0.4272
  918MOL0     O21052   2.991   0.294   9.930  0.7186 -0.1626 -0.3466
  918MOL0     C21053   3.015   0.273  10.069  0.3935  0.1557 -0.1409
  918MOL0     C21054   2.892   0.254  10.152 -0.7589  0.0200  0.3701
  918MOL0     C21055   2.841   0.118  10.126  0.1959  0.1126  0.1686
  918MOL0     C21056   2.705   0.079  10.195 -0.0835  0.2097 -0.5025
  918MOL0     C21057   2.664  -0.062  10.133  0.1591  0.1815  0.1374
  918MOL0     C21058   2.541  -0.135  10.179 -0.8577  0.5933  0.4435
  918MOL0     C21059   2.421  -0.049  10.170  0.3321  0.4922 -0.0458
  918MOL0     C21060   2.378  -0.018  10.027 -0.8661 -0.4566 -0.1869
  918MOL0     N21061   2.240   0.011  10.017  0.0869  1.0126 -0.8526
  918MOL0     C21062   2.168   0.128  10.036 -0.0384 -0.0887 -0.0056
  918MOL0     C21063   2.039   0.090  10.028  0.7189  0.0720  0.1910
  918MOL0     C21064   1.921   0.195  10.049  0.5266 -0.5636  0.5812
  918MOL0     C21065   1.781   0.134  10.056 -0.6494  1.0732 -0.0547
  918MOL0     C21066   1.739   0.076   9.916  0.7443  0.4270  0.2500
  918MOL0     C21067   1.589   0.033   9.920 -0.3217  0.4222 -0.6861
  918MOL0     O21068   1.546  -0.069  10.010 -0.0355  0.0942 -0.5086
  918MOL0     C21069   1.409  -0.071  10.029  0.0556  0.3608 -0.8506
  918MOL0     C21070   1.364  -0.146  10.137 -0.5728  0.0373  0.5230
  918MOL0     C21071   1.227  -0.187  10.153 -0.1892 -1.0539  0.3820
  918MOL0     C21072   1.129  -0.129  10.067 -0.1597  0.0657  0.0052
  918MOL0     C21073   0.983  -0.151  10.081 -0.0025  0.7660 -0.2104
  918MOL0     O21074   0.942  -0.245  10.175 -0.5246 -0.7011 -0.5608
  918MOL0     C21075   0.812  -0.254  10.205  0.6765  0.2813  0.7772
  918MOL0     C21076   0.746  -0.385  10.213 -0.1940  0.9364 -1.0015
  918MOL0     C21077   0.615  -0.393  10.260  0.7183 -0.1367  1.0535
  918MOL0     C21078   0.538  -0.279  10.272 -0.7983 -0.1849 -1.6076
  918MOL0     O21079   0.408  -0.281  10.318  0.2571  0.6051  0.1954
  918MOL0     C21080   0.313  -0.237  10.221 -0.8271 -0.0949  0.1491
  918MOL0     C21081   0.171  -0.228  10.272  0.0353 -0.2552  0.1691
  918MOL0     C21082   0.106  -0.355  10.347  0.3293  0.3243  0.4855
  918MOL0     C21083  -0.032  -0.312  10.402  0.2007 -0.3229  0.3706
  918MOL0     C21084  -0.096  -0.419  10.484 -0.3590  0.2287 -0.6473
  918MOL0     C21085  -0.199  -0.374  10.587  0.1860  0.2744 -0.1494
  918MOL0     C21086  -0.315  -0.314  10.496  0.7885  0.4932 -0.0394
  918MOL0     C21087  -0.433  -0.279  10.590  0.1905 -0.0615 -0.2920
  918MOL0    Cl21088  -0.503  -0.426  10.638 -0.0878  0.1487 -0.0764
  918MOL0     C21089   0.603  -0.157  10.270 -0.1664  0.7729  0.6966
  918MOL0     C21090   0.735  -0.143  10.226  0.3817  0.1140  0.0696
  918MOL0     O21091   0.910  -0.079  10.017  0.2733 -0.1852 -0.9619
  918MOL0     C21092   1.165  -0.044   9.965 -1.1293 -0.3216  0.1300
  918MOL0     C21093   1.305  -0.015   9.954  0.3639 -0.5246  0.0202
  918MOL0     N21094   2.032  -0.042   9.981 -0.3181 -1.1845  0.7590
  918MOL0     N21095   2.153  -0.094   9.987  0.0008  0.5091  0.2948
  918MOL0     C21096   3.230   0.325   9.889  0.0722 -0.1357  0.1590
  918MOL0     C21097   3.341   0.374   9.811  0.4153  0.6131  1.0695
  918MOL0     C21098   3.540   0.647   9.494 -0.1923 -0.3239 -0.0937
  918MOL0     C21099   3.639   0.544   9.478  0.3005 -0.4731 -0.1070
  918MOL0     C21100   3.755   0.576   9.419  0.2730  0.1083  0.3496
  918MOL0     C21101   3.782   0.699   9.365  0.5103 -0.8697 -0.0038
  918MOL0     O21102   3.892   0.738   9.288 -0.7297  0.0601  0.6053
  918MOL0     C21103   4.010   0.654   9.275  0.1956  0.4639 -0.3885
  918MOL0     C21104   4.128   0.726   9.205  0.4000 -0.5703 -1.2025
  918MOL0     C21105   4.169   0.846   9.288 -0.4900 -0.2831  0.1615
  918MOL0     C21106   4.260   0.939   9.211  0.3700 -0.1771  0.0794
  918MOL0     C21107   4.198   1.056   9.149 -0.3114 -0.2137  0.2799
  918MOL0     C21108   4.138   1.155   9.110 -0.8615  0.0458  0.4833
  918MOL0     C21109   3.682   0.803   9.380 -0.2116  0.2192 -0.7140
  918MOL0     C21110   3.564   0.783   9.453 -0.5451  0.4543 -0.8262
  918MOL0     H21111   3.148   0.483   9.537  1.0493  0.7309 -0.5590
  918MOL0     H21112   2.966   0.405   9.694  1.3381  1.0093 -2.4951
  918MOL0     H21113   3.063   0.360  10.115 -0.8817  0.9832 -0.3169
  918MOL0     H21114   3.079   0.187  10.091  0.3264  0.5304  1.6948
  918MOL0     H21115   2.822   0.334  10.125 -2.6732 -0.8156  2.5136
  918MOL0     H21116   2.917   0.258  10.258 -0.1292 -1.9191  0.3362
  918MOL0     H21117   2.916   0.043  10.154  1.0495  1.4593  1.6614
  918MOL0     H21118   2.838   0.094  10.019  1.6037 -3.4466  0.7771
  918MOL0     H21119   2.714   0.072  10.304 -2.8887  2.9870  0.0317
  918MOL0     H21120   2.623   0.149  10.177 -0.8487 -0.6501 -0.4802
  918MOL0     H21121   2.754  -0.119  10.159 -0.6946 -1.1870  0.1847
  918MOL0     H21122   2.656  -0.067  10.024 -1.0032  1.2145  0.1555
  918MOL0     H21123   2.570  -0.179  10.275  0.3612  0.0165 -0.1607
  918MOL0     H21124   2.522  -0.223  10.116 -0.5415  1.0504 -0.3041
  918MOL0     H21125   2.339  -0.102  10.219  1.9421 -0.4925  1.6999
  918MOL0     H21126   2.435   0.050  10.215  1.8084  0.3566 -0.1598
  918MOL0     H21127   2.403  -0.103   9.963  0.7113 -0.9397  1.0214
  918MOL0     H21128   2.440   0.064   9.990  1.1226 -1.4552  0.8002
  918MOL0     H21129   2.204   0.231  10.044  2.5557 -0.7766 -1.4538
  918MOL0     H21130   1.917   0.268   9.968  0.3698 -0.7090  0.4587
  918MOL0     H21131   1.933   0.259  10.137 -0.7479  1.9932 -0.9601
  918MOL0     H21132   1.716   0.210  10.099  1.2520  2.0726  1.1925
  918MOL0     H21133   1.778   0.049  10.125 -3.3803  0.5519 -0.7147
  918MOL0     H21134   1.766   0.149   9.840  2.0582 -0.0805  0.2074
  918MOL0     H21135   1.799  -0.013   9.895  0.9414  1.2208 -3.2883
  918MOL0     H21136   1.560  -0.004   9.821  2.4254 -3.2649 -0.3136
  918MOL0     H21137   1.542   0.124   9.959  0.2110 -0.1628  1.4376
  918MOL0     H21138   1.431  -0.183  10.214  0.5123  2.4927  0.8726
  918MOL0     H21139   1.194  -0.262  10.225 -0.7548 -2.6514 -1.4645
  918MOL0     H21140   0.810  -0.472  10.211 -3.3362 -1.6207  0.5901
  918MOL0     H21141   0.578  -0.487  10.299 -1.0298  1.4393  3.4481
  918MOL0     H21142   0.298  -0.308  10.139  0.4668 -0.3252  0.0951
  918MOL0     H21143   0.342  -0.139  10.182 -3.1693  1.1487  1.2851
  918MOL0     H21144   0.109  -0.196  10.188  1.4779  1.7416 -0.2100
  918MOL0     H21145   0.160  -0.156  10.353 -0.2657  0.9532 -0.9212
  918MOL0     H21146   0.166  -0.378  10.436  0.4164  1.4808  0.7471
  918MOL0     H21147   0.092  -0.443  10.284  1.7652  0.0255  0.5366
  918MOL0     H21148  -0.016  -0.225  10.466  0.0900  1.6326 -2.1156
  918MOL0     H21149  -0.097  -0.277  10.322  0.1926  0.0223  0.5272
  918MOL0     H21150  -0.024  -0.484  10.536 -0.4486 -0.1217 -0.9586
  918MOL0     H21151  -0.141  -0.494  10.418 -0.4150  0.2103 -0.5884
  918MOL0     H21152  -0.162  -0.285  10.639 -1.2492  2.2821 -2.3364
  918MOL0     H21153  -0.237  -0.458  10.644 -0.9699 -0.3385 -1.7583
  918MOL0     H21154  -0.272  -0.225  10.448  2.6205 -0.8985 -1.0906
  918MOL0     H21155  -0.348  -0.388  10.424 -1.4154 -0.3976  1.7625
  918MOL0     H21156  -0.508  -0.245  10.519  0.7008 -2.5647 -2.1710
  918MOL0     H21157  -0.405  -0.203  10.664  1.4149  0.1418 -0.9323
  918MOL0     H21158   0.536  -0.076  10.298 -2.5721 -1.0625  0.6172
  918MOL0     H21159   0.781  -0.045  10.239 -0.4598  0.4619  0.5124
  918MOL0     H21160   1.102  -0.001   9.887 -0.2710  2.2778  0.7804
  918MOL0     H21161   1.329   0.040   9.864  1.1564 -3.2511 -1.5408
  918MOL0     H21162   3.261   0.301   9.990 -2.6509  0.0305  1.1054
  918MOL0     H21163   3.444   0.375   9.844  0.9038 -1.7740 -0.1888
  918MOL0     H21164   3.637   0.440   9.509  0.0432 -0.6599 -0.7214
  918MOL0     H21165   3.829   0.497   9.412  0.0167 -0.2893  1.8077
  918MOL0     H21166   3.979   0.574   9.207 -2.7794  1.9395 -0.9038
  918MOL0     H21167   4.042   0.627   9.376 -3.1380  1.2897  0.9989
  918MOL0     H21168   4.209   0.652   9.195  0.4264 -0.6164 -0.6635
  918MOL0     H21169   4.094   0.754   9.105 -3.6518  0.3795  0.2564
  918MOL0     H21170   4.229   0.793   9.363  0.8052  1.0429  0.0993
  918MOL0     H21171   4.082   0.902   9.323 -1.0743  0.9057 -2.8811
  918MOL0     H21172   4.331   0.965   9.290  0.0268 -2.2349  1.1405
  918MOL0     H21173   4.321   0.890   9.134  0.9492  0.6546 -0.0031
  918MOL0     H21174   4.075   1.231   9.068  1.2541  0.5200 -2.1183
  918MOL0     H21175   3.717   0.902   9.351  1.9349  0.9993  3.7682
  918MOL0     H21176   3.492   0.861   9.473 -0.9202 -0.2056  0.5285
  919MOL0     O21177  11.004   9.598   9.295  0.7648 -0.1983 -0.1986
  919MOL0     C21178  11.057   9.609   9.179  0.1215  0.5202 -0.5559
  919MOL0     O21179  10.991   9.636   9.058  0.6108  0.0515 -0.1392
  919MOL0     C21180  10.853   9.646   9.050  0.0815  0.4493 -0.4779
  919MOL0     C21181  10.772   9.726   9.140  0.2564  0.0609 -0.0750
  919MOL0     C21182  10.637   9.724   9.118  1.0995 -1.2403 -0.1768
  919MOL0     C21183  10.587   9.666   8.999  0.5789 -0.6957  0.8605
  919MOL0     O21184  10.458   9.684   8.956  0.9364  0.2907 -0.0399
  919MOL0     C21185  10.439   9.826   8.933 -0.2955  0.4194 -0.2377
  919MOL0     C21186  10.298   9.865   8.976 -0.2647  0.1560  0.5146
  919MOL0     C21187  10.179   9.795   8.906  0.2777  0.2542 -0.1417
  919MOL0     C21188  10.042   9.865   8.925  0.4147 -0.1178  0.3879
  919MOL0     C21189   9.937   9.780   8.850  0.1034 -0.4672 -0.1702
  919MOL0     C21190   9.799   9.851   8.815  0.3698  0.9821  1.0436
  919MOL0     C21191   9.679   9.745   8.782  0.7338 -0.1328  0.7371
  919MOL0     C21192   9.549   9.808   8.725 -0.6469  1.1746 -0.3672
  919MOL0     N21193   9.435   9.716   8.710  0.6779 -0.1835 -0.2067
  919MOL0     C21194   9.420   9.593   8.769  0.7134  0.0542 -0.2621
  919MOL0     C21195   9.317   9.541   8.699 -0.2044 -0.7068 -0.7028
  919MOL0     C21196   9.260   9.410   8.719 -0.8429 -0.2355  0.1183
  919MOL0     C21197   9.107   9.396   8.755  0.2675 -0.0541  0.5109
  919MOL0     C21198   9.012   9.434   8.640  0.6434 -0.1525 -0.5390
  919MOL0     C21199   8.867   9.439   8.686 -0.0949  0.3595  0.5559
  919MOL0     O21200   8.784   9.463   8.572 -0.5397  0.5178  0.1510
  919MOL0     C21201   8.719   9.358   8.508 -0.4627 -0.9255  0.9452
  919MOL0     C21202   8.597   9.391   8.446  0.2626  0.3603  0.7070
  919MOL0     C21203   8.546   9.304   8.346  0.2928 -0.6471 -0.0098
  919MOL0     C21204   8.614   9.187   8.308 -0.2357 -0.1079  0.6445
  919MOL0     C21205   8.584   9.117   8.184  0.1904  0.5888  0.8553
  919MOL0     O21206   8.657   9.013   8.139 -0.0987 -0.4822  0.0788
  919MOL0     C21207   8.649   8.985   8.005 -0.3154  0.3232  0.0643
  919MOL0     C21208   8.729   9.067   7.918  0.2548 -0.3130 -0.0400
  919MOL0     C21209   8.722   9.057   7.774  0.5050  0.0328  0.0093
  919MOL0     C21210   8.632   8.960   7.720  0.6483  0.1429 -0.9188
  919MOL0     O21211   8.619   8.959   7.584 -0.5062 -0.7166  0.7983
  919MOL0     C21212   8.604   8.834   7.521  0.8076  0.1125 -0.1433
  919MOL0     C21213   8.622   8.859   7.370 -0.2879 -0.7339 -0.0513
  919MOL0     C21214   8.564   8.748   7.284  0.3007  0.6304  0.5104
  919MOL0     C21215   8.558   8.794   7.134 -0.2080  0.0538 -0.3171
  919MOL0     C21216   8.509   8.698   7.030  0.1491 -0.5819  0.3752
  919MOL0     C21217   8.362   8.651   7.048  0.6376 -0.8603 -0.1051
  919MOL0     C21218   8.256   8.765   7.027 -0.1232  0.0208  1.1520
  919MOL0     C21219   8.118   8.719   7.077 -0.8351  0.3855  0.2286
  919MOL0    Cl21220   7.991   8.848   7.050 -0.0844  0.1706  0.2247
  919MOL0     C21221   8.553   8.883   7.808 -0.7935  0.1099 -0.2644
  919MOL0     C21222   8.567   8.892   7.946  0.3555  0.0673  0.5263
  919MOL0     O21223   8.495   9.172   8.116  1.3413  0.0926 -0.4221
  919MOL0     C21224   8.731   9.149   8.379 -0.9024 -0.6464 -1.0383
  919MOL0     C21225   8.789   9.238   8.476  0.2561  0.4846  0.0183
  919MOL0     N21226   9.267   9.649   8.622  0.3673  0.1550  0.0481
  919MOL0     N21227   9.329   9.762   8.632 -0.7104 -0.0613 -0.3460
  919MOL0     C21228  10.671   9.606   8.908  0.1863 -0.0971 -0.1925
  919MOL0     C21229  10.800   9.580   8.940 -0.4446  0.3588 -0.5906
  919MOL0     C21230  11.205   9.600   9.182  0.4801 -0.4825 -0.5927
  919MOL0     C21231  11.290   9.640   9.072  0.5785 -0.3298 -0.9818
  919MOL0     C21232  11.427   9.641   9.090  0.1939  0.1849  0.2327
  919MOL0     C21233  11.490   9.612   9.215 -0.5149  0.7662  0.0936
  919MOL0     O21234  11.625   9.596   9.242 -0.0062  0.3884  0.2831
  919MOL0     C21235  11.718   9.636   9.135  0.0874  0.6080 -0.6853
  919MOL0     C21236  11.739   9.788   9.129 -0.3784 -0.3264 -0.3030
  919MOL0     C21237  11.850   9.827   9.030  1.3836  1.4033  0.3401
  919MOL0     C21238  11.893   9.972   9.046  1.1184  0.2147 -0.5514
  919MOL0     C21239  11.980  10.014   8.935  0.3944 -0.4046 -0.1281
  919MOL0     C21240  12.054  10.055   8.850  0.1236  0.0118  0.2172
  919MOL0     C21241  11.413   9.568   9.313  0.8663 -0.0575  0.3322
  919MOL0     C21242  11.273   9.564   9.302  0.5070  0.4222 -0.4794
  919MOL0     H21243  10.829   9.770   9.222 -0.0607  0.6606 -0.1699
  919MOL0     H21244  10.571   9.779   9.184  1.2790 -1.1215 -0.0947
  919MOL0     H21245  10.439   9.851   8.826  0.3228 -1.5736 -0.7574
  919MOL0     H21246  10.518   9.885   8.980  0.1625  0.1083 -0.5991
  919MOL0     H21247  10.288   9.970   8.946  0.7735  1.1143  3.2201
  919MOL0     H21248  10.278   9.868   9.083 -1.8536  4.5151  0.2653
  919MOL0     H21249  10.180   9.691   8.940  1.7342  0.3539  0.1860
  919MOL0     H21250  10.202   9.797   8.799  3.0166 -0.0014  0.3732
  919MOL0     H21251  10.022   9.880   9.032 -1.6611  0.2842 -0.0125
  919MOL0     H21252  10.044   9.965   8.879 -1.4488 -0.6155 -0.8750
  919MOL0     H21253   9.910   9.695   8.913 -1.3716 -1.1552 -1.6695
  919MOL0     H21254   9.978   9.751   8.753  1.8968  2.8072 -0.5166
  919MOL0     H21255   9.812   9.920   8.731  0.0527  1.4454  1.3658
  919MOL0     H21256   9.766   9.918   8.896 -0.2947  0.8464  0.8925
  919MOL0     H21257   9.716   9.668   8.713 -1.7019 -2.0526  1.4452
  919MOL0     H21258   9.656   9.702   8.880  0.1462  1.9439  1.5614
  919MOL0     H21259   9.573   9.850   8.627 -2.3562  2.4703 -0.2771
  919MOL0     H21260   9.515   9.895   8.783 -0.1773  0.7695  0.5323
  919MOL0     H21261   9.478   9.543   8.845  0.3767 -0.1601 -0.1445
  919MOL0     H21262   9.324   9.346   8.781  2.3380  0.1594 -2.4806
  919MOL0     H21263   9.268   9.362   8.621 -0.6830  0.2628 -0.1122
  919MOL0     H21264   9.087   9.461   8.841  1.3235  0.4587  0.3897
  919MOL0     H21265   9.088   9.291   8.781 -0.2179  0.1760  1.1215
  919MOL0     H21266   9.037   9.538   8.620  0.5505 -0.3091 -1.5231
  919MOL0     H21267   9.032   9.379   8.547 -1.3372  2.2847 -2.5484
  919MOL0     H21268   8.857   9.524   8.756  0.7250 -0.3866  1.6088
  919MOL0     H21269   8.841   9.344   8.733 -0.1329 -0.6607 -1.4506
  919MOL0     H21270   8.555   9.489   8.467  1.6526  0.7819  1.6281
  919MOL0     H21271   8.455   9.331   8.292  0.8027 -0.5862 -0.8612
  919MOL0     H21272   8.793   9.148   7.951  2.2766 -1.4006 -1.0695
  919MOL0     H21273   8.776   9.128   7.712  0.3606 -1.0470 -1.4105
  919MOL0     H21274   8.497   8.819   7.532  0.8349 -0.6983 -0.8665
  919MOL0     H21275   8.662   8.750   7.561 -2.5525 -2.5804 -0.5025
  919MOL0     H21276   8.727   8.870   7.342 -0.3728 -0.0615 -0.1201
  919MOL0     H21277   8.575   8.954   7.341  0.3531 -0.8365 -1.5014
  919MOL0     H21278   8.465   8.711   7.314  1.4015 -0.9905  2.2850
  919MOL0     H21279   8.623   8.656   7.285  0.2001  0.5710  1.7730
  919MOL0     H21280   8.507   8.891   7.127 -0.0301  0.1309 -0.5921
  919MOL0     H21281   8.661   8.819   7.106  0.4656  0.3702  2.1845
  919MOL0     H21282   8.571   8.607   7.030  1.5530  0.3263  1.3345
  919MOL0     H21283   8.513   8.746   6.931  0.0054  2.6505  1.8126
  919MOL0     H21284   8.346   8.608   7.147  1.8353  0.6045  0.7754
  919MOL0     H21285   8.346   8.563   6.984 -2.5522  0.5857 -1.4737
  919MOL0     H21286   8.273   8.851   7.093 -2.5156 -0.3685  2.3794
  919MOL0     H21287   8.249   8.789   6.921  0.4210 -1.3881  0.7771
  919MOL0     H21288   8.131   8.696   7.183  1.2465 -0.9227 -0.2666
  919MOL0     H21289   8.096   8.627   7.022 -1.2188  0.5712  0.0663
  919MOL0     H21290   8.491   8.800   7.776  0.5777 -1.2621  0.5044
  919MOL0     H21291   8.499   8.830   8.005 -0.2580 -0.4408 -0.6757
  919MOL0     H21292   8.780   9.054   8.360 -1.9361 -1.4400  0.0909
  919MOL0     H21293   8.880   9.214   8.530 -0.3808 -4.4804 -0.6903
  919MOL0     H21294  10.645   9.565   8.811 -0.5078  2.8856 -1.3851
  919MOL0     H21295  10.861   9.503   8.893  1.1007  0.8792  0.4623
  919MOL0     H21296  11.244   9.680   8.983  0.7359  1.5384 -0.2777
  919MOL0     H21297  11.494   9.673   9.012 -0.0081 -1.7989 -0.8209
  919MOL0     H21298  11.677   9.604   9.039 -0.3136 -1.3422  0.0882
  919MOL0     H21299  11.815   9.585   9.143 -1.2155 -1.8889  0.4840
  919MOL0     H21300  11.647   9.829   9.086  1.0453 -0.3549 -3.6664
  919MOL0     H21301  11.762   9.823   9.231  2.4737 -0.3065 -0.8663
  919MOL0     H21302  11.806   9.813   8.931 -1.1295  1.1601  1.4212
  919MOL0     H21303  11.942   9.769   9.041  0.2699 -0.2521  1.3687
  919MOL0     H21304  11.799  10.026   9.028  0.9819 -0.6605 -2.7845
  919MOL0     H21305  11.933   9.981   9.147 -0.4362 -0.8517  0.1994
  919MOL0     H21306  12.115  10.105   8.777  1.1913 -0.6312  0.6407
  919MOL0     H21307  11.460   9.526   9.402 -1.7071 -2.0343  0.8842
  919MOL0     H21308  11.218   9.519   9.384  0.6743  1.6127  0.3126
  920MOL0     O21309   9.095   7.878   6.564  0.2778 -0.3829  0.1401
  920MOL0     C21310   9.113   7.939   6.664  0.0126  0.1351  0.0798
  920MOL0     O21311   9.019   8.018   6.730 -0.3290  0.7098  0.1938
  920MOL0     C21312   8.892   8.024   6.668  0.3252  0.1827  0.7042
  920MOL0     C21313   8.784   8.031   6.754  0.4536  0.0634 -0.7585
  920MOL0     C21314   8.650   8.036   6.708  0.7970 -0.2012  1.3532
  920MOL0     C21315   8.616   8.068   6.571  0.4823 -0.6130 -0.7003
  920MOL0     O21316   8.486   8.075   6.525 -0.3311 -0.0083  0.6929
  920MOL0     C21317   8.464   8.022   6.391  0.4049 -0.0540  0.7051
  920MOL0     C21318   8.319   8.029   6.351 -0.2463 -0.5495  0.1865
  920MOL0     C21319   8.215   7.937   6.405  0.0299  0.8229 -0.8586
  920MOL0     C21320   8.078   7.996   6.346 -0.6323 -1.0865 -0.1193
  920MOL0     C21321   7.954   7.893   6.354 -0.1524 -0.0573  0.8333
  920MOL0     C21322   7.829   7.950   6.424 -0.1394  0.3723 -0.5646
  920MOL0     C21323   7.718   7.847   6.461 -0.0605 -0.6551  0.1157
  920MOL0     C21324   7.592   7.932   6.494 -0.4696 -0.6857  0.1758
  920MOL0     N21325   7.492   7.859   6.570  0.1403  0.8083  0.4840
  920MOL0     C21326   7.500   7.825   6.702 -0.4439 -0.0258 -0.1831
  920MOL0     C21327   7.378   7.805   6.741 -0.6289 -0.4595  0.6465
  920MOL0     C21328   7.345   7.768   6.878  0.5768 -1.0117  0.5594
  920MOL0     C21329   7.290   7.624   6.874 -0.0363  0.5185  0.4383
  920MOL0     C21330   7.199   7.595   6.987  0.4780 -0.7223 -0.4613
  920MOL0     C21331   7.177   7.441   6.994 -1.2763 -0.0260  1.0283
  920MOL0     O21332   7.052   7.412   7.055  0.7224 -0.2772  0.2105
  920MOL0     C21333   7.014   7.283   7.026  0.7410  0.0316  0.5713
  920MOL0     C21334   6.882   7.249   7.028 -0.8453 -0.0035 -0.4133
  920MOL0     C21335   6.831   7.123   7.005 -0.3069 -0.1805 -1.3251
  920MOL0     C21336   6.914   7.020   6.964  0.4304 -0.4756 -0.4563
  920MOL0     C21337   6.861   6.884   6.935 -0.1488  0.2082  0.6074
  920MOL0     O21338   6.948   6.795   6.879 -0.4423  0.1131 -0.0189
  920MOL0     C21339   6.910   6.666   6.856 -0.0393  0.5795 -0.7259
  920MOL0     C21340   6.795   6.634   6.776 -0.4594 -0.6910  0.3114
  920MOL0     C21341   6.763   6.501   6.745 -0.3020 -0.6102  0.5934
  920MOL0     C21342   6.833   6.392   6.802  0.4944  0.3044  0.3703
  920MOL0     O21343   6.796   6.259   6.788 -0.4114  0.7490  0.7153
  920MOL0     C21344   6.786   6.213   6.649 -0.2938 -0.8151 -0.1056
  920MOL0     C21345   6.770   6.064   6.663  0.2173  0.7650 -0.1774
  920MOL0     C21346   6.909   6.014   6.704  0.4525  1.6953  0.5199
  920MOL0     C21347   6.902   5.860   6.707 -0.6985  0.5979 -0.0406
  920MOL0     C21348   7.044   5.803   6.688  0.2538  0.9256  0.8476
  920MOL0     C21349   7.058   5.654   6.712 -0.3007  0.8063  0.2934
  920MOL0     C21350   7.012   5.568   6.594  0.5715 -0.0015  0.6129
  920MOL0     C21351   7.061   5.424   6.586 -0.3987 -0.7712  0.4833
  920MOL0    Cl21352   7.234   5.400   6.603 -0.5533 -0.0368  0.5405
  920MOL0     C21353   6.948   6.427   6.875 -0.0247  1.1420  0.4057
  920MOL0     C21354   6.990   6.558   6.896  0.6465 -0.0286 -0.5773
  920MOL0     O21355   6.748   6.856   6.979 -0.4253 -0.1198  0.1368
  920MOL0     C21356   7.053   7.044   6.955  0.1784  0.0536 -0.1410
  920MOL0     C21357   7.100   7.171   6.988  1.0889 -0.4787 -1.1101
  920MOL0     N21358   7.293   7.832   6.635 -0.5623  0.1781 -0.2184
  920MOL0     N21359   7.362   7.858   6.537 -0.6316 -0.0028 -0.1996
  920MOL0     C21360   8.733   8.074   6.482 -0.3056 -0.8073  0.2168
  920MOL0     C21361   8.867   8.057   6.529  0.1008 -0.1347  0.1302
  920MOL0     C21362   9.241   7.936   6.725  0.6104  0.9007  0.6963
  920MOL0     C21363   9.344   7.865   6.665 -0.4041  0.0470  0.7727
  920MOL0     C21364   9.474   7.866   6.717  0.3912 -0.3360  0.5369
  920MOL0     C21365   9.497   7.932   6.834  0.1699 -0.3330 -0.3042
  920MOL0     O21366   9.626   7.924   6.886 -0.2750 -1.2498  0.2596
  920MOL0     C21367   9.700   8.045   6.882 -0.6672 -0.8644  0.3448
  920MOL0     C21368   9.802   8.031   6.778 -0.3563  0.4392  0.7033
  920MOL0     C21369   9.892   7.910   6.808 -0.3055  0.2929 -0.4500
  920MOL0     C21370   9.974   7.925   6.940 -0.5217  0.5578 -0.1990
  920MOL0     C21371  10.083   7.840   6.939 -0.8265  0.1919  0.0575
  920MOL0     C21372  10.191   7.777   6.928  0.5995  0.0291  0.5065
  920MOL0     C21373   9.391   8.014   6.889 -0.4175  0.5031  0.2011
  920MOL0     C21374   9.272   8.016   6.835  0.2742  0.3497  0.3444
  920MOL0     H21375   8.801   8.008   6.858 -1.3905  0.4501 -0.3498
  920MOL0     H21376   8.573   8.014   6.782  0.1524 -0.3255  0.6633
  920MOL0     H21377   8.507   7.922   6.380  1.9260  0.5630  0.8071
  920MOL0     H21378   8.522   8.083   6.321  0.7266 -1.5716 -0.4020
  920MOL0     H21379   8.316   8.010   6.243 -0.3538 -0.3019  0.1450
  920MOL0     H21380   8.289   8.133   6.367  1.2853 -0.2026  0.9238
  920MOL0     H21381   8.218   7.953   6.513  1.9540 -0.6374 -0.6612
  920MOL0     H21382   8.248   7.834   6.393 -1.8630  0.3942 -3.1878
  920MOL0     H21383   8.052   8.087   6.400 -0.6606 -1.7385  0.9934
  920MOL0     H21384   8.082   8.019   6.239 -2.6674  0.9365  0.1695
  920MOL0     H21385   7.991   7.805   6.408  1.9100  1.4247  1.9405
  920MOL0     H21386   7.926   7.855   6.255  0.3729  0.3175  0.5426
  920MOL0     H21387   7.790   8.034   6.365  1.4983  0.5101 -1.5184
  920MOL0     H21388   7.882   7.979   6.515 -0.5635  0.5387 -0.3693
  920MOL0     H21389   7.686   7.785   6.377 -2.2099  1.3484 -0.6651
  920MOL0     H21390   7.751   7.777   6.538 -1.4229 -2.7324 -1.0755
  920MOL0     H21391   7.560   7.973   6.398  1.9445  1.3318  0.1291
  920MOL0     H21392   7.626   8.009   6.564  1.4789 -3.7557  2.9054
  920MOL0     H21393   7.587   7.825   6.767 -0.5363 -0.1643 -0.0592
  920MOL0     H21394   7.271   7.837   6.921  0.7533  0.1505 -0.9031
  920MOL0     H21395   7.432   7.769   6.944 -0.1503 -1.9668  1.5743
  920MOL0     H21396   7.366   7.546   6.870 -2.4692 -1.9828 -2.8130
  920MOL0     H21397   7.249   7.605   6.774  0.5510  0.7414  0.1477
  920MOL0     H21398   7.251   7.628   7.078  0.6939 -1.8350 -0.1755
  920MOL0     H21399   7.112   7.656   6.960 -1.4236 -2.9055  0.4453
  920MOL0     H21400   7.262   7.396   7.045 -1.3178 -1.7239 -0.2791
  920MOL0     H21401   7.172   7.415   6.887  0.2816  4.1973 -0.2843
  920MOL0     H21402   6.807   7.324   7.054  0.0120 -0.1840  2.9137
  920MOL0     H21403   6.725   7.116   7.027 -0.0994  0.7568  0.1004
  920MOL0     H21404   6.744   6.722   6.739 -2.8092 -2.2700 -0.4323
  920MOL0     H21405   6.685   6.481   6.672  0.1858  0.2925 -0.1945
  920MOL0     H21406   6.876   6.253   6.602  0.2887 -1.8556  0.1033
  920MOL0     H21407   6.700   6.258   6.599 -0.0566  0.9158  0.9499
  920MOL0     H21408   6.751   6.015   6.567  2.5670  0.4037 -0.5176
  920MOL0     H21409   6.696   6.047   6.742 -1.6516  1.6782 -1.6519
  920MOL0     H21410   6.937   6.055   6.801  1.2346 -0.4684  1.2763
  920MOL0     H21411   6.981   6.045   6.628  0.3806 -1.7117 -1.1390
  920MOL0     H21412   6.866   5.828   6.805 -1.0656  1.2557  0.0466
  920MOL0     H21413   6.836   5.815   6.632  0.5736 -2.3425  0.4757
  920MOL0     H21414   7.112   5.848   6.760 -0.3342  0.8490  1.4658
  920MOL0     H21415   7.074   5.831   6.587  0.6481  2.3231  1.3239
  920MOL0     H21416   7.003   5.623   6.802 -1.5795  0.5667 -0.5422
  920MOL0     H21417   7.162   5.625   6.728  0.1226  1.2676 -1.4106
  920MOL0     H21418   6.903   5.561   6.605  0.5010  1.6910  1.2984
  920MOL0     H21419   7.031   5.625   6.502 -2.2382 -0.5941 -0.4526
  920MOL0     H21420   7.022   5.380   6.494  1.4979  0.1855 -0.8557
  920MOL0     H21421   7.017   5.379   6.675 -0.1880 -1.4324  0.2649
  920MOL0     H21422   7.007   6.348   6.920  0.5627  1.3100 -0.0628
  920MOL0     H21423   7.091   6.568   6.936  1.3550  0.4232 -2.3962
  920MOL0     H21424   7.123   6.970   6.920 -1.3358 -2.3561  1.6405
  920MOL0     H21425   7.207   7.183   6.972  1.1154  1.6730  0.2022
  920MOL0     H21426   8.733   8.118   6.382 -1.6868  3.8468  1.9928
  920MOL0     H21427   8.952   8.070   6.463  1.1986 -0.5644  1.4068
  920MOL0     H21428   9.312   7.808   6.579  0.5405  1.5759 -0.6476
  920MOL0     H21429   9.558   7.812   6.675 -0.9140 -0.4952 -2.0317
  920MOL0     H21430   9.736   8.050   6.986 -2.8910 -2.0797  1.2253
  920MOL0     H21431   9.633   8.130   6.868 -1.4209 -1.3026  1.2107
  920MOL0     H21432   9.744   8.021   6.685 -0.5977 -0.7294  0.9599
  920MOL0     H21433   9.865   8.120   6.779  1.9440 -0.9279 -2.9010
  920MOL0     H21434   9.963   7.889   6.728  0.2608  0.0095  0.1136
  920MOL0     H21435   9.833   7.818   6.815 -1.8583  1.3900  2.7021
  920MOL0     H21436  10.011   8.028   6.947 -1.4928  0.9916 -1.0958
  920MOL0     H21437   9.903   7.908   7.021 -1.5379 -0.1269 -1.2041
  920MOL0     H21438  10.284   7.726   6.912 -0.3020 -1.3053 -0.7259
  920MOL0     H21439   9.406   8.064   6.984 -0.4006  1.3423 -0.2294
  920MOL0     H21440   9.204   8.081   6.888 -0.2003 -0.8781  1.2931
  921MOL0     O21441  10.305   2.291   1.087  0.0264  0.1633 -0.3167
  921MOL0     C21442  10.223   2.283   1.002  0.1162 -0.1257  0.1127
  921MOL0     O21443  10.232   2.331   0.867  0.2979 -0.2724  0.1750
  921MOL0     C21444  10.351   2.396   0.846 -1.1878 -0.5806 -0.4088
  921MOL0     C21445  10.461   2.328   0.795 -1.2569  0.4736 -0.5946
  921MOL0     C21446  10.588   2.385   0.807 -0.5151 -0.5639 -0.5247
  921MOL0     C21447  10.608   2.517   0.844  0.1448  0.1984  0.4666
  921MOL0     O21448  10.733   2.579   0.851 -0.0762 -0.4342 -0.5576
  921MOL0     C21449  10.838   2.535   0.767 -0.0146  0.3534 -0.2584
  921MOL0     C21450  10.957   2.632   0.744  0.4871  0.7134 -0.2787
  921MOL0     C21451  10.896   2.754   0.674  0.3103 -0.5371 -0.5761
  921MOL0     C21452  11.002   2.828   0.586  0.6094 -0.4925  0.3281
  921MOL0     C21453  10.942   2.951   0.499 -1.0060 -0.0685  0.1480
  921MOL0     C21454  10.880   3.061   0.579 -0.6901 -0.5463 -0.0695
  921MOL0     C21455  10.800   3.159   0.497  0.0888 -0.8014 -0.0760
  921MOL0     C21456  10.734   3.268   0.588 -0.3977 -0.5299 -0.6792
  921MOL0     N21457  10.664   3.370   0.511 -0.1216 -0.7732  0.3402
  921MOL0     C21458  10.550   3.349   0.437 -0.6619  0.2690 -0.0157
  921MOL0     C21459  10.510   3.472   0.401  0.2066 -0.0431  0.9580
  921MOL0     C21460  10.388   3.493   0.307  0.5491 -0.3997 -0.0060
  921MOL0     C21461  10.301   3.609   0.347  0.3060 -0.7254  0.3186
  921MOL0     C21462  10.211   3.569   0.468  0.0099 -0.2216  0.5288
  921MOL0     C21463  10.095   3.664   0.503 -0.3162  0.1661 -0.3277
  921MOL0     O21464  10.002   3.655   0.395  1.2621  0.7777  0.7704
  921MOL0     C21465   9.883   3.725   0.412 -0.8326 -0.3960  0.5797
  921MOL0     C21466   9.791   3.717   0.309 -0.6396 -0.0353  0.0267
  921MOL0     C21467   9.670   3.779   0.318  0.4544 -0.0208 -0.1525
  921MOL0     C21468   9.636   3.851   0.422  0.9548 -0.2129 -0.0939
  921MOL0     C21469   9.500   3.914   0.438 -0.7364  0.2177  0.5088
  921MOL0     O21470   9.388   3.858   0.376 -0.3031  0.3962  0.2511
  921MOL0     C21471   9.261   3.920   0.382 -0.3163  0.8869 -0.1807
  921MOL0     C21472   9.162   3.835   0.419 -0.4541 -0.2316 -0.9028
  921MOL0     C21473   9.026   3.881   0.435 -0.0876 -0.4056  0.3031
  921MOL0     C21474   9.001   4.016   0.422 -0.6412  0.6479 -0.2138
  921MOL0     O21475   8.881   4.077   0.449  0.1227 -0.6532  0.0257
  921MOL0     C21476   8.768   4.004   0.497  0.7249 -0.7538 -0.1882
  921MOL0     C21477   8.662   4.092   0.541  0.5233  1.0828  0.6841
  921MOL0     C21478   8.617   4.181   0.419  0.7383  0.6788  0.0914
  921MOL0     C21479   8.506   4.270   0.469 -0.4822 -0.4743  0.0744
  921MOL0     C21480   8.446   4.335   0.343 -0.0172  0.5169 -1.0001
  921MOL0     C21481   8.340   4.440   0.379  1.0395  0.4102  0.7837
  921MOL0     C21482   8.299   4.520   0.259 -0.1861  0.1003  0.2755
  921MOL0     C21483   8.215   4.638   0.292  0.2949 -0.1314  0.2097
  921MOL0    Cl21484   8.119   4.700   0.155 -0.2064  0.2284 -0.0847
  921MOL0     C21485   9.105   4.099   0.382  0.4339 -0.5179 -0.1005
  921MOL0     C21486   9.234   4.052   0.364  0.6547 -0.3553 -1.7252
  921MOL0     O21487   9.497   4.016   0.506 -0.5105 -0.0200  0.1215
  921MOL0     C21488   9.732   3.870   0.520 -0.4701  0.0995  0.3815
  921MOL0     C21489   9.850   3.802   0.524 -0.3559  0.9127 -0.0764
  921MOL0     N21490  10.598   3.563   0.451 -0.9115  0.2300  0.3984
  921MOL0     N21491  10.690   3.502   0.513 -0.3909  0.4554 -0.4731
  921MOL0     C21492  10.492   2.589   0.878 -0.1504 -0.1318 -0.0830
  921MOL0     C21493  10.366   2.525   0.885  1.0206 -0.3104 -0.9055
  921MOL0     C21494  10.092   2.215   1.043 -1.0606 -0.4701 -0.0778
  921MOL0     C21495  10.032   2.120   0.961 -0.2819 -0.2652 -0.2493
  921MOL0     C21496   9.935   2.035   1.004  0.1296 -0.3539  1.0674
  921MOL0     C21497   9.880   2.046   1.134  0.6218  0.2639 -0.0658
  921MOL0     O21498   9.768   1.958   1.155 -0.5119  0.5484  0.1172
  921MOL0     C21499   9.692   1.973   1.270  0.3130  0.7674  0.2254
  921MOL0     C21500   9.582   1.867   1.251  0.7636  0.5891 -0.1312
  921MOL0     C21501   9.481   1.895   1.363  0.5224 -0.1523 -0.7096
  921MOL0     C21502   9.365   1.798   1.374 -0.4859 -0.3845 -0.4258
  921MOL0     C21503   9.302   1.812   1.510 -0.9506  0.1722 -0.6285
  921MOL0     C21504   9.236   1.835   1.611 -0.7774 -0.0447  0.6580
  921MOL0     C21505   9.934   2.142   1.218  0.2220  0.5215 -0.4028
  921MOL0     C21506  10.041   2.221   1.174  0.1834 -0.0879  0.2639
  921MOL0     H21507  10.442   2.224   0.772  0.6696 -0.1614  0.4270
  921MOL0     H21508  10.669   2.314   0.789  1.5129  1.3437  0.6839
  921MOL0     H21509  10.792   2.518   0.669  0.2906 -0.9577 -0.1848
  921MOL0     H21510  10.895   2.454   0.814 -0.4641  0.5726  0.6760
  921MOL0     H21511  11.027   2.581   0.678  1.5261 -1.0865  2.0617
  921MOL0     H21512  10.995   2.661   0.843  2.2960 -2.5812  0.1398
  921MOL0     H21513  10.849   2.819   0.748 -2.2957 -1.4116 -1.3486
  921MOL0     H21514  10.810   2.733   0.610  0.0708  0.4255 -0.5805
  921MOL0     H21515  11.086   2.854   0.652  2.2498 -2.3986 -0.9040
  921MOL0     H21516  11.042   2.760   0.510 -0.4669  1.4193 -2.0766
  921MOL0     H21517  10.863   2.916   0.432 -1.9727  1.3309  0.5114
  921MOL0     H21518  11.017   2.994   0.433  2.3083 -1.4787  2.6840
  921MOL0     H21519  10.966   3.104   0.632 -1.3441  0.8245 -0.0858
  921MOL0     H21520  10.811   3.036   0.660 -1.5277  2.7489  0.3643
  921MOL0     H21521  10.861   3.219   0.430  0.3415 -0.9995 -0.0264
  921MOL0     H21522  10.720   3.106   0.444 -1.9460 -2.1728  3.9354
  921MOL0     H21523  10.816   3.312   0.645 -1.5959  1.9832 -0.7729
  921MOL0     H21524  10.665   3.223   0.660  1.1687 -0.3810  0.9702
  921MOL0     H21525  10.498   3.256   0.417 -1.7003  0.8633 -0.1672
  921MOL0     H21526  10.332   3.400   0.291  1.5404 -0.6546 -2.5313
  921MOL0     H21527  10.436   3.506   0.210 -0.4622 -0.4727 -0.5292
  921MOL0     H21528  10.237   3.639   0.264  0.7056  0.8997  0.5641
  921MOL0     H21529  10.359   3.699   0.370  0.0543 -0.8138  1.3614
  921MOL0     H21530  10.159   3.478   0.439  0.4128 -0.4191  0.4182
  921MOL0     H21531  10.263   3.551   0.562 -0.8461 -1.2997  0.8103
  921MOL0     H21532  10.126   3.768   0.513 -1.4104  0.4873 -0.2158
  921MOL0     H21533  10.040   3.636   0.593 -0.5246  0.7205 -0.2832
  921MOL0     H21534   9.817   3.659   0.221  0.8278  0.1114  0.3338
  921MOL0     H21535   9.593   3.766   0.242  0.8107 -1.0874 -0.3502
  921MOL0     H21536   9.172   3.728   0.433  0.9257  0.1083  0.9411
  921MOL0     H21537   8.941   3.820   0.463 -1.7439  1.9495  0.7588
  921MOL0     H21538   8.789   3.935   0.579  1.9537 -2.0329 -1.5146
  921MOL0     H21539   8.736   3.940   0.414 -0.4033  0.5146 -0.7750
  921MOL0     H21540   8.698   4.160   0.618 -2.2833  1.3108  1.9049
  921MOL0     H21541   8.579   4.032   0.578  1.9685  0.9286  3.9945
  921MOL0     H21542   8.594   4.120   0.331  0.9786 -2.3026  1.9589
  921MOL0     H21543   8.697   4.252   0.397  0.1066  1.4804  0.3372
  921MOL0     H21544   8.418   4.219   0.512 -0.6318 -0.6174 -0.3989
  921MOL0     H21545   8.537   4.356   0.529 -1.1599  1.8629 -2.7223
  921MOL0     H21546   8.408   4.252   0.283  1.4149  0.5232 -1.9429
  921MOL0     H21547   8.525   4.381   0.283  1.7706 -2.3164 -0.9882
  921MOL0     H21548   8.373   4.518   0.448  1.4651 -1.5370  2.8822
  921MOL0     H21549   8.252   4.391   0.423  1.4954  0.6911  2.0521
  921MOL0     H21550   8.390   4.547   0.205 -1.4426 -0.9695 -2.5670
  921MOL0     H21551   8.239   4.462   0.188  1.1246  1.5574 -2.1410
  921MOL0     H21552   8.281   4.721   0.318  1.6684 -1.1697  0.1339
  921MOL0     H21553   8.145   4.624   0.375 -0.8630 -0.2369 -0.7501
  921MOL0     H21554   9.070   4.201   0.368  2.7389  0.1273 -1.6653
  921MOL0     H21555   9.312   4.117   0.327 -1.7490  3.2626 -0.9092
  921MOL0     H21556   9.713   3.927   0.610 -0.0007  1.2606 -0.2406
  921MOL0     H21557   9.918   3.804   0.609 -2.4214 -0.9927  1.7356
  921MOL0     H21558  10.522   2.683   0.923  3.3517 -1.5045  0.7852
  921MOL0     H21559  10.281   2.568   0.937  3.0829  1.0126  1.5978
  921MOL0     H21560  10.075   2.125   0.862  0.0019  2.0416 -0.0597
  921MOL0     H21561   9.895   1.955   0.943 -1.5689  0.7408  0.6536
  921MOL0     H21562   9.644   2.070   1.286 -0.6024  0.0505  2.2297
  921MOL0     H21563   9.743   1.952   1.365  4.0655  0.0237 -1.7960
  921MOL0     H21564   9.523   1.877   1.159 -1.2925 -1.0699  0.9197
  921MOL0     H21565   9.629   1.769   1.256  2.3651  1.1546 -2.6128
  921MOL0     H21566   9.442   1.996   1.348 -1.0351 -0.7060 -0.5890
  921MOL0     H21567   9.546   1.879   1.449 -0.2871 -2.9960 -0.5224
  921MOL0     H21568   9.285   1.825   1.305 -1.6495  0.6883  1.2678
  921MOL0     H21569   9.391   1.693   1.358 -1.4321 -0.5048 -1.2280
  921MOL0     H21570   9.170   1.858   1.693 -0.9863  0.1446  0.4418
  921MOL0     H21571   9.896   2.164   1.317 -1.3562  1.1943 -1.1128
  921MOL0     H21572  10.083   2.296   1.240  1.7546 -0.1019 -0.6654
  922MOL0     O21573   9.586   5.599   3.434 -0.0348  0.5148  0.2251
  922MOL0     C21574   9.582   5.716   3.456 -0.1084 -0.6009  0.3829
  922MOL0     O21575   9.471   5.786   3.464 -0.8633 -0.4550 -0.8228
  922MOL0     C21576   9.352   5.734   3.412 -0.2938 -0.2531 -0.4314
  922MOL0     C21577   9.235   5.734   3.488 -0.1052 -0.4669  0.2692
  922MOL0     C21578   9.121   5.664   3.459  0.4040  0.5219 -0.3629
  922MOL0     C21579   9.119   5.583   3.345 -0.5682 -0.3780 -0.1160
  922MOL0     O21580   9.014   5.499   3.335  0.0897  1.5490  0.0353
  922MOL0     C21581   8.931   5.506   3.216  0.6770  0.0739  0.3712
  922MOL0     C21582   8.797   5.430   3.227 -0.0134 -0.7027 -0.6910
  922MOL0     C21583   8.710   5.480   3.347 -0.6803 -0.4052  0.5829
  922MOL0     C21584   8.581   5.400   3.350  0.0152  1.2083 -1.1062
  922MOL0     C21585   8.483   5.436   3.244  0.1841  0.2342  0.2411
  922MOL0     C21586   8.347   5.355   3.249  0.6078 -0.7791 -0.2871
  922MOL0     C21587   8.271   5.364   3.114  0.1315 -0.4968  0.6057
  922MOL0     C21588   8.319   5.279   2.998 -0.3499 -0.0515 -0.0923
  922MOL0     N21589   8.261   5.137   3.006  0.2297 -0.2081  0.3601
  922MOL0     C21590   8.128   5.101   3.013  0.3083 -0.0177 -0.3064
  922MOL0     C21591   8.133   4.978   3.070  0.0806  0.4390 -0.0569
  922MOL0     C21592   8.011   4.888   3.114 -0.0994 -0.3581  0.7691
  922MOL0     C21593   7.965   4.805   2.988  0.2662 -0.3763  0.1025
  922MOL0     C21594   7.833   4.733   3.008 -0.0949  0.5975 -0.3163
  922MOL0     C21595   7.719   4.822   2.979  0.6183 -0.2475  0.6768
  922MOL0     O21596   7.604   4.747   2.911 -0.4588 -0.4807  0.0629
  922MOL0     C21597   7.508   4.816   2.847 -0.0162 -0.0707 -0.7536
  922MOL0     C21598   7.385   4.755   2.827  0.5223 -0.3458 -0.2586
  922MOL0     C21599   7.276   4.825   2.774  0.5040 -0.0358 -0.9328
  922MOL0     C21600   7.293   4.955   2.736 -0.7691  0.1249  0.6414
  922MOL0     C21601   7.181   5.019   2.658 -0.8527 -0.0173  0.1189
  922MOL0     O21602   7.060   4.959   2.675 -0.2606  0.2712  0.7106
  922MOL0     C21603   6.953   5.001   2.609  0.6209  0.0924 -0.8106
  922MOL0     C21604   6.920   5.126   2.544  0.7494  0.0316 -0.5962
  922MOL0     C21605   6.802   5.141   2.465 -0.5186  0.0936 -0.2753
  922MOL0     C21606   6.707   5.041   2.446 -0.4253 -0.3183 -0.4256
  922MOL0     O21607   6.591   5.069   2.374 -0.1081 -0.0850  0.0975
  922MOL0     C21608   6.482   4.977   2.367  0.5755  1.2096  0.5838
  922MOL0     C21609   6.365   5.058   2.300 -0.7475  0.2702 -1.0623
  922MOL0     C21610   6.413   5.158   2.188  0.4318 -0.2187  0.1533
  922MOL0     C21611   6.300   5.248   2.131  0.2532 -0.1838 -0.6519
  922MOL0     C21612   6.180   5.151   2.090 -0.3494  0.1337  0.4086
  922MOL0     C21613   6.090   5.222   1.993 -0.1304  0.6156 -0.3061
  922MOL0     C21614   5.977   5.132   1.942  0.0947  0.0586 -0.7451
  922MOL0     C21615   5.896   5.058   2.047  0.5064 -0.4594 -0.2619
  922MOL0    Cl21616   5.729   5.037   1.996 -0.1454 -0.1146  0.1917
  922MOL0     C21617   6.741   4.920   2.503  0.7788  0.5806 -0.7597
  922MOL0     C21618   6.857   4.908   2.584 -0.3960  0.4084 -0.3868
  922MOL0     O21619   7.209   5.114   2.582  0.1179 -1.1264  0.3377
  922MOL0     C21620   7.419   5.021   2.749 -0.0080 -0.6581 -0.4137
  922MOL0     C21621   7.521   4.950   2.809  0.5673  0.6942  0.2533
  922MOL0     N21622   8.260   4.951   3.097 -0.9228 -0.0981  0.6993
  922MOL0     N21623   8.339   5.045   3.055 -0.4793  0.5639  0.0011
  922MOL0     C21624   9.227   5.594   3.257  0.1971 -0.4160 -0.7073
  922MOL0     C21625   9.337   5.676   3.288  0.4933  0.2733  0.4918
  922MOL0     C21626   9.717   5.781   3.462 -0.2894 -0.4714  0.7775
  922MOL0     C21627   9.840   5.708   3.456  0.0856 -0.0016 -0.5981
  922MOL0     C21628   9.966   5.771   3.459  0.1310 -0.0017 -0.1901
  922MOL0     C21629   9.974   5.912   3.477 -0.3275 -0.2557  0.3301
  922MOL0     O21630  10.101   5.969   3.489  0.2196 -0.2519 -0.9232
  922MOL0     C21631  10.113   6.109   3.468 -0.0810  0.1931 -0.3640
  922MOL0     C21632  10.084   6.184   3.610 -0.1427  0.1489 -0.7422
  922MOL0     C21633  10.184   6.140   3.716 -0.0976 -0.6088 -0.0263
  922MOL0     C21634  10.303   6.228   3.696  0.2022 -0.1574  0.5919
  922MOL0     C21635  10.401   6.213   3.803  0.1959  0.7598  0.3466
  922MOL0     C21636  10.474   6.197   3.901 -0.4630  0.1795 -0.9690
  922MOL0     C21637   9.853   5.988   3.485  0.7901 -0.7313 -0.0801
  922MOL0     C21638   9.728   5.924   3.470  0.0292 -0.5863 -0.2985
  922MOL0     H21639   9.240   5.788   3.582  1.7531 -0.6757  0.3319
  922MOL0     H21640   9.042   5.649   3.532  0.2051 -2.9708 -1.1406
  922MOL0     H21641   8.986   5.453   3.138  1.6929  2.7766 -0.8871
  922MOL0     H21642   8.913   5.608   3.179  1.0282 -0.0635 -0.1937
  922MOL0     H21643   8.820   5.324   3.244  0.6252 -0.4929 -0.2010
  922MOL0     H21644   8.739   5.442   3.135 -1.4387 -0.1741  0.2454
  922MOL0     H21645   8.684   5.586   3.338  0.5152 -0.1729 -0.3125
  922MOL0     H21646   8.773   5.467   3.435  1.9589 -2.0891 -1.4270
  922MOL0     H21647   8.596   5.293   3.333 -1.2880  1.1581 -2.1335
  922MOL0     H21648   8.543   5.415   3.452 -4.2213  1.7753 -2.5881
  922MOL0     H21649   8.523   5.414   3.145 -2.4251 -0.1320 -0.8118
  922MOL0     H21650   8.453   5.542   3.246  0.7566  0.3946  0.9068
  922MOL0     H21651   8.284   5.393   3.329  0.7550  1.9383 -1.3588
  922MOL0     H21652   8.376   5.253   3.276  3.3512  0.1481  0.5738
  922MOL0     H21653   8.168   5.331   3.129  0.2401 -1.9663 -1.4812
  922MOL0     H21654   8.266   5.468   3.083  0.5863 -0.9154 -0.9462
  922MOL0     H21655   8.427   5.277   2.985 -0.4058 -1.3164 -0.4348
  922MOL0     H21656   8.269   5.307   2.905 -0.3364  0.9074  0.1714
  922MOL0     H21657   8.042   5.163   2.992  0.6472  0.1877 -1.1319
  922MOL0     H21658   7.936   4.957   3.152 -0.6105 -0.3445 -0.2388
  922MOL0     H21659   8.034   4.820   3.198 -3.8610 -0.1095  2.1671
  922MOL0     H21660   8.046   4.738   2.956  3.6919  1.7037  3.5924
  922MOL0     H21661   7.968   4.867   2.898  2.5443 -1.1506 -0.4206
  922MOL0     H21662   7.819   4.650   2.938  3.5019 -0.6266  0.2093
  922MOL0     H21663   7.837   4.703   3.113  3.5823  1.5940 -0.0525
  922MOL0     H21664   7.761   4.891   2.905  0.1506 -2.4041 -1.7411
  922MOL0     H21665   7.684   4.877   3.067 -1.4604 -0.3726 -0.0256
  922MOL0     H21666   7.372   4.651   2.857  1.3083 -0.3116  0.2404
  922MOL0     H21667   7.185   4.771   2.750  1.9135 -1.9766 -2.3220
  922MOL0     H21668   6.994   5.206   2.546 -0.1181  0.8739 -1.0262
  922MOL0     H21669   6.779   5.238   2.421  2.5928  0.0995 -2.2062
  922MOL0     H21670   6.462   4.925   2.462 -1.5742  1.7091  0.4495
  922MOL0     H21671   6.525   4.903   2.300 -1.7826  1.2143 -1.0179
  922MOL0     H21672   6.321   5.113   2.384 -1.2738  1.3117 -1.9950
  922MOL0     H21673   6.290   4.990   2.258 -0.8938  0.3476 -0.9236
  922MOL0     H21674   6.458   5.100   2.107  0.0275 -1.3447  0.7160
  922MOL0     H21675   6.473   5.243   2.221 -0.1237 -0.5358  2.1184
  922MOL0     H21676   6.265   5.324   2.201 -1.3303  0.0401 -1.6414
  922MOL0     H21677   6.326   5.299   2.038  2.0893 -1.6184 -0.9906
  922MOL0     H21678   6.112   5.118   2.169 -2.2653  0.7565 -0.9005
  922MOL0     H21679   6.217   5.064   2.035 -2.3788  0.1070 -1.0291
  922MOL0     H21680   6.139   5.257   1.902 -3.8094  1.8708 -1.9905
  922MOL0     H21681   6.058   5.317   2.037 -0.1227 -0.9438  3.4269
  922MOL0     H21682   5.913   5.196   1.880 -0.0963  1.6554  1.0317
  922MOL0     H21683   6.012   5.062   1.865 -0.6174 -0.2919 -0.7532
  922MOL0     H21684   5.886   5.123   2.135  1.0607 -1.2133  0.3667
  922MOL0     H21685   5.948   4.969   2.082  0.3018 -0.4438  0.0924
  922MOL0     H21686   6.670   4.839   2.485  1.5245 -0.2068 -0.2490
  922MOL0     H21687   6.886   4.809   2.618 -0.7599 -0.1275 -1.5819
  922MOL0     H21688   7.445   5.121   2.717 -1.3907 -0.2559 -0.3583
  922MOL0     H21689   7.617   4.998   2.804  1.6860 -1.5118 -1.3242
  922MOL0     H21690   9.207   5.540   3.165  0.7484 -0.9616 -0.5134
  922MOL0     H21691   9.418   5.684   3.216 -1.7977  1.9603 -2.0853
  922MOL0     H21692   9.835   5.600   3.452  1.1567 -0.0458 -1.4758
  922MOL0     H21693  10.050   5.703   3.463 -0.7946 -1.7109 -4.0957
  922MOL0     H21694  10.046   6.152   3.393 -1.0236  0.0387  0.3703
  922MOL0     H21695  10.215   6.137   3.438 -0.1342  2.1493  1.0667
  922MOL0     H21696  10.095   6.291   3.591  3.0839 -0.0220 -0.4307
  922MOL0     H21697   9.981   6.169   3.644  0.3795 -1.5664  0.2048
  922MOL0     H21698  10.205   6.033   3.716  1.0323 -0.4004  0.5500
  922MOL0     H21699  10.151   6.178   3.813  2.4749 -0.5286  0.8858
  922MOL0     H21700  10.350   6.221   3.597  3.4394 -1.9301  2.0732
  922MOL0     H21701  10.268   6.331   3.706  2.3626  0.5715  1.0919
  922MOL0     H21702  10.544   6.154   3.970 -1.6908 -2.5824 -1.3117
  922MOL0     H21703   9.845   6.095   3.500 -2.4682 -0.5369 -2.1242
  922MOL0     H21704   9.639   5.987   3.469  0.1688 -0.3714  0.3471
  923MOL0     O21705   3.397  10.238  10.288  0.0122  0.2945 -0.1939
  923MOL0     C21706   3.495  10.277  10.363  0.4414 -0.0249 -0.7469
  923MOL0     O21707   3.519  10.222  10.491 -0.8344  0.0973  0.8067
  923MOL0     C21708   3.431  10.138  10.544  0.0999  0.4829 -0.2731
  923MOL0     C21709   3.355  10.176  10.653 -1.1914  0.5724  0.1416
  923MOL0     C21710   3.257  10.090  10.710 -0.0929 -0.5215  0.0135
  923MOL0     C21711   3.227   9.968  10.648 -0.7164 -0.3762  0.6625
  923MOL0     O21712   3.127   9.891  10.708 -0.0137 -0.2292  0.4684
  923MOL0     C21713   3.070   9.797  10.627 -0.2692 -0.1419  0.4824
  923MOL0     C21714   2.956   9.742  10.714 -0.7078  0.3194 -0.5926
  923MOL0     C21715   2.848   9.843  10.746  0.3772 -0.6336  0.5411
  923MOL0     C21716   2.759   9.804  10.868 -0.8714  0.2772  0.3799
  923MOL0     C21717   2.693   9.673  10.833 -0.0698  0.1639  0.8368
  923MOL0     C21718   2.590   9.644  10.935  0.0294 -0.9813  0.3743
  923MOL0     C21719   2.525   9.505  10.923  0.0999 -1.2206  0.5499
  923MOL0     C21720   2.439   9.496  10.797  0.4362  0.1212 -0.6500
  923MOL0     N21721   2.310   9.571  10.793 -0.2772  0.7243 -0.7211
  923MOL0     C21722   2.215   9.549  10.886 -0.0685 -0.5576  0.1479
  923MOL0     C21723   2.136   9.657  10.884 -0.2928  0.1841 -0.7116
  923MOL0     C21724   2.016   9.692  10.970 -0.1065 -0.3573 -0.5568
  923MOL0     C21725   1.893   9.602  10.937 -0.4517  0.3941  0.1607
  923MOL0     C21726   1.904   9.464  11.004  0.4529 -0.8374  0.4847
  923MOL0     C21727   1.775   9.374  10.978 -0.3361  0.2316 -0.1965
  923MOL0     O21728   1.654   9.440  11.009 -0.1896  0.1413 -0.0537
  923MOL0     C21729   1.540   9.397  10.945 -0.2368 -0.3849 -0.7276
  923MOL0     C21730   1.458   9.490  10.881 -0.3828  0.1733 -0.8973
  923MOL0     C21731   1.344   9.456  10.806 -1.1196 -0.3135 -0.1635
  923MOL0     C21732   1.306   9.322  10.807  1.1915 -0.5603 -1.0408
  923MOL0     C21733   1.186   9.282  10.729  0.1311  0.4204  0.2297
  923MOL0     O21734   1.149   9.369  10.631 -0.4818 -0.8161  0.4532
  923MOL0     C21735   1.040   9.336  10.554  1.2184 -0.4256 -0.0593
  923MOL0     C21736   0.917   9.278  10.601 -0.8810 -0.1323  0.2042
  923MOL0     C21737   0.822   9.249  10.503  0.7976 -0.5672  0.0257
  923MOL0     C21738   0.826   9.282  10.369 -0.6079  0.9586  0.0236
  923MOL0     O21739   0.723   9.257  10.283 -0.2154  0.0595 -0.0409
  923MOL0     C21740   0.605   9.334  10.313  0.2693  0.3078  0.1021
  923MOL0     C21741   0.492   9.287  10.228 -0.0718 -0.4164 -0.4711
  923MOL0     C21742   0.366   9.357  10.275  0.4134 -0.0440  0.0277
  923MOL0     C21743   0.243   9.348  10.172 -0.6918 -0.1321  0.8255
  923MOL0     C21744   0.102   9.392  10.207 -0.2340 -0.0663  0.4787
  923MOL0     C21745   0.104   9.527  10.279 -0.7665  0.5826  0.0434
  923MOL0     C21746  -0.032   9.597  10.307  0.2472  0.4031 -0.1003
  923MOL0     C21747  -0.100   9.653  10.173 -0.0332  0.5422 -0.5174
  923MOL0    Cl21748  -0.255   9.719  10.219 -0.4128 -0.2171  0.1532
  923MOL0     C21749   0.940   9.346  10.326 -0.4758 -0.3203  0.3138
  923MOL0     C21750   1.047   9.368  10.416  0.2307  0.2447  1.3808
  923MOL0     O21751   1.130   9.173  10.756  0.5383  0.2410 -0.9272
  923MOL0     C21752   1.391   9.227  10.874 -0.0908  0.1002 -0.4432
  923MOL0     C21753   1.513   9.265  10.942 -0.6579 -0.2621  0.1571
  923MOL0     N21754   2.182   9.740  10.779 -0.3669 -0.6157 -0.5597
  923MOL0     N21755   2.295   9.692  10.732  0.7690  0.6630 -0.1979
  923MOL0     C21756   3.302   9.927  10.529  0.4726 -0.8978 -0.9056
  923MOL0     C21757   3.402  10.021  10.481  0.5770 -0.0920  0.1331
  923MOL0     C21758   3.593  10.371  10.306 -0.6204 -0.3513  0.3501
  923MOL0     C21759   3.706  10.413  10.378  0.0689 -1.3494  0.7711
  923MOL0     C21760   3.795  10.506  10.315  0.8351  0.1144  0.8736
  923MOL0     C21761   3.785  10.525  10.176 -0.6449 -0.0831  0.2853
  923MOL0     O21762   3.871  10.613  10.122  0.3297 -0.1191  0.3840
  923MOL0     C21763   4.004  10.569  10.101  0.3338 -0.0465 -0.7924
  923MOL0     C21764   4.012  10.503   9.960  0.2529  0.1547 -0.1796
  923MOL0     C21765   4.018  10.598   9.839 -0.0554 -0.7000  0.3151
  923MOL0     C21766   4.122  10.715   9.852  0.7955 -0.4780 -0.1358
  923MOL0     C21767   4.164  10.771   9.721  0.4839 -0.3859 -0.4944
  923MOL0     C21768   4.180  10.834   9.612  0.1483 -0.1548  0.4934
  923MOL0     C21769   3.673  10.487  10.108  0.1746  0.1419  0.7760
  923MOL0     C21770   3.587  10.400  10.168  0.3859 -0.7182 -0.4538
  923MOL0     H21771   3.375  10.269  10.704 -2.5631  0.8301  0.2593
  923MOL0     H21772   3.190  10.108  10.793  0.1683 -2.8691  0.8176
  923MOL0     H21773   3.140   9.717  10.604 -1.8898 -1.4212 -0.2094
  923MOL0     H21774   3.021   9.842  10.540  1.0389  0.2816 -0.0663
  923MOL0     H21775   3.002   9.696  10.801 -0.4216  1.1408 -0.3102
  923MOL0     H21776   2.910   9.663  10.652  1.0583 -0.0456 -1.4886
  923MOL0     H21777   2.777   9.854  10.663  1.4182 -0.3556 -0.3250
  923MOL0     H21778   2.903   9.935  10.770  1.1670 -1.9212  4.5375
  923MOL0     H21779   2.819   9.785  10.957 -0.4880 -2.3454 -0.3352
  923MOL0     H21780   2.695   9.890  10.886  1.6908  3.4317 -3.7624
  923MOL0     H21781   2.765   9.591  10.841 -0.4102 -0.3242 -0.7099
  923MOL0     H21782   2.651   9.667  10.732  1.2219 -1.7924  0.3570
  923MOL0     H21783   2.510   9.717  10.917  0.6797 -0.4307 -0.3381
  923MOL0     H21784   2.629   9.664  11.036  5.0228  0.1409 -1.5021
  923MOL0     H21785   2.601   9.426  10.920  0.7528 -0.7637  2.7186
  923MOL0     H21786   2.469   9.476  11.013 -1.1585  0.5291  0.3801
  923MOL0     H21787   2.423   9.392  10.766 -0.7788 -0.1498  0.7630
  923MOL0     H21788   2.489   9.549  10.716 -0.8873  0.4265 -1.2933
  923MOL0     H21789   2.200   9.470  10.959 -1.7658 -0.5485 -0.1457
  923MOL0     H21790   2.004   9.799  10.955  4.0144  0.3450 -0.0007
  923MOL0     H21791   2.053   9.677  11.071 -0.7872 -0.8020 -0.3654
  923MOL0     H21792   1.878   9.596  10.828 -0.3207  0.3138  0.1473
  923MOL0     H21793   1.803   9.655  10.970 -1.0341 -0.9235  0.8096
  923MOL0     H21794   1.996   9.421  10.964  1.0920  1.4726 -0.7051
  923MOL0     H21795   1.917   9.471  11.112 -2.0918  0.3297  0.7979
  923MOL0     H21796   1.786   9.279  11.030 -0.9071  0.6224  0.6483
  923MOL0     H21797   1.773   9.348  10.872 -2.1516  0.8996 -0.3522
  923MOL0     H21798   1.504   9.587  10.893  1.5866 -0.7894 -0.2639
  923MOL0     H21799   1.281   9.532  10.760  1.2203  2.4369  0.8625
  923MOL0     H21800   0.901   9.250  10.705 -1.6268  1.2797  0.4943
  923MOL0     H21801   0.730   9.204  10.538  0.3449  1.4807  1.6484
  923MOL0     H21802   0.622   9.440  10.294 -1.7586  0.7999  0.7216
  923MOL0     H21803   0.573   9.330  10.418 -0.0944  1.3371  0.0448
  923MOL0     H21804   0.481   9.179  10.242 -0.0172 -0.6147 -1.8695
  923MOL0     H21805   0.511   9.292  10.121  1.7438  1.0835 -0.1315
  923MOL0     H21806   0.389   9.463  10.295  0.6657 -0.2995  1.1401
  923MOL0     H21807   0.333   9.310  10.368 -1.0909  1.9279  0.5646
  923MOL0     H21808   0.271   9.409  10.085  1.4989  2.3989  3.1022
  923MOL0     H21809   0.244   9.245  10.137  2.0026  0.4249 -1.1012
  923MOL0     H21810   0.055   9.310  10.263  1.9240 -0.3990  1.9548
  923MOL0     H21811   0.053   9.399  10.110  1.4171 -3.5118 -0.7695
  923MOL0     H21812   0.175   9.594  10.228 -0.6937  2.5382  2.5158
  923MOL0     H21813   0.143   9.502  10.378 -1.0260 -3.1413 -0.6357
  923MOL0     H21814  -0.099   9.530  10.362  2.1893 -0.5694  1.1660
  923MOL0     H21815  -0.010   9.687  10.365 -2.4102  1.8014 -1.0693
  923MOL0     H21816  -0.123   9.575  10.100  3.3198 -0.9412 -0.1715
  923MOL0     H21817  -0.038   9.726  10.121 -0.6166  1.4868  0.0777
  923MOL0     H21818   0.952   9.364  10.220  1.2927 -1.1472  0.3466
  923MOL0     H21819   1.140   9.401  10.371  0.3277 -2.6710 -0.8458
  923MOL0     H21820   1.359   9.124  10.863 -1.8740  0.7583 -2.0020
  923MOL0     H21821   1.561   9.187  11.000 -0.5697  0.8432  1.6151
  923MOL0     H21822   3.286   9.832  10.479 -0.5176 -0.7278 -0.9303
  923MOL0     H21823   3.477   9.985  10.411  1.1743 -1.2645  1.3347
  923MOL0     H21824   3.731  10.391  10.481  1.0060 -1.8145  0.4591
  923MOL0     H21825   3.874  10.552  10.373  0.7568 -0.4580  1.4309
  923MOL0     H21826   4.025  10.499  10.183 -1.8555 -0.8340 -0.8230
  923MOL0     H21827   4.074  10.653  10.096  2.4828 -1.7629 -1.1490
  923MOL0     H21828   4.107  10.449   9.960 -1.5138 -3.3354 -2.5802
  923MOL0     H21829   3.930  10.434   9.940 -2.4966  2.7668  1.2798
  923MOL0     H21830   3.914  10.629   9.829 -0.1696 -1.6372 -1.6788
  923MOL0     H21831   4.040  10.543   9.747 -2.3328  2.7088 -2.5399
  923MOL0     H21832   4.085  10.795   9.917 -1.1395 -1.7924  0.4787
  923MOL0     H21833   4.214  10.679   9.900  0.4771 -1.4249 -0.1977
  923MOL0     H21834   4.198  10.885   9.520 -0.7395 -0.0182  0.3842
  923MOL0     H21835   3.652  10.509  10.004 -2.9346 -1.2168  1.0103
  923MOL0     H21836   3.508  10.361  10.104 -0.1163  1.1562 -1.0179
  924MOL0     O21837   6.763  11.004   8.622  0.2371 -0.5837 -0.6868
  924MOL0     C21838   6.823  10.932   8.699 -0.5060 -0.3249 -0.6599
  924MOL0     O21839   6.790  10.912   8.828  0.6957 -0.1799 -0.0173
  924MOL0     C21840   6.677  10.978   8.872 -0.6473 -0.4067  0.2823
  924MOL0     C21841   6.670  11.116   8.881  0.5626  0.2723 -0.3163
  924MOL0     C21842   6.545  11.172   8.902  0.3208 -0.1937 -0.0326
  924MOL0     C21843   6.428  11.093   8.928 -1.0740 -1.0940 -0.5622
  924MOL0     O21844   6.314  11.170   8.953  0.0432 -0.2247  0.1077
  924MOL0     C21845   6.192  11.107   8.989  0.5771  0.6583 -0.1299
  924MOL0     C21846   6.085  11.211   9.046 -0.3382  0.1206  0.2619
  924MOL0     C21847   6.019  11.291   8.940 -0.8351 -0.4234  1.5595
  924MOL0     C21848   5.915  11.391   8.989  0.2002  1.1313  0.4595
  924MOL0     C21849   5.852  11.443   8.863 -0.1375  0.4909 -0.1895
  924MOL0     C21850   5.723  11.530   8.887  0.0264 -0.2743  0.5105
  924MOL0     C21851   5.749  11.658   8.969  0.7077 -0.4402 -0.1930
  924MOL0     C21852   5.763  11.638   9.120 -1.2178 -0.5206 -0.7250
  924MOL0     N21853   5.691  11.731   9.204  0.1304  0.1424  0.4899
  924MOL0     C21854   5.718  11.863   9.216  0.9020  0.2163 -0.1488
  924MOL0     C21855   5.608  11.922   9.265  0.6799 -1.1584  0.8079
  924MOL0     C21856   5.601  12.069   9.290 -0.5090  0.8090  0.3034
  924MOL0     C21857   5.456  12.133   9.299 -0.4712 -0.3043 -0.4776
  924MOL0     C21858   5.417  12.174   9.444  0.0901  0.2255  0.0546
  924MOL0     C21859   5.350  12.057   9.519  0.6532 -0.1513 -0.1254
  924MOL0     O21860   5.218  12.041   9.462 -0.4258  0.0423  0.0233
  924MOL0     C21861   5.131  11.985   9.553 -0.6905  1.1469  1.1315
  924MOL0     C21862   5.003  12.037   9.565  0.5009  0.3527  0.2488
  924MOL0     C21863   4.906  11.978   9.648  0.0680 -1.1601 -1.0793
  924MOL0     C21864   4.939  11.868   9.731 -0.8234  0.4215  0.6220
  924MOL0     C21865   4.840  11.804   9.811  0.4540  0.8996  0.1738
  924MOL0     O21866   4.712  11.828   9.767 -0.1842  0.3395  0.1932
  924MOL0     C21867   4.604  11.778   9.839 -0.6576  0.1795  0.1985
  924MOL0     C21868   4.556  11.653   9.797  0.5190  0.1439 -0.5405
  924MOL0     C21869   4.442  11.598   9.862  0.0290  0.2707  0.2035
  924MOL0     C21870   4.383  11.676   9.961  0.1770 -0.7032  0.0353
  924MOL0     O21871   4.276  11.636  10.035 -0.8591  0.3780  0.4547
  924MOL0     C21872   4.172  11.574   9.957  0.8474 -0.0064 -0.1936
  924MOL0     C21873   4.050  11.558  10.035  0.0687  0.1871 -0.4723
  924MOL0     C21874   3.928  11.471   9.973 -0.4018  0.3263  0.6571
  924MOL0     C21875   3.813  11.465  10.076 -0.5377 -0.0040  0.2543
  924MOL0     C21876   3.689  11.393  10.023 -0.1689  0.0412 -0.7598
  924MOL0     C21877   3.714  11.236  10.000 -0.1886 -0.9018 -0.1861
  924MOL0     C21878   3.594  11.156   9.966 -0.0832 -0.6317  0.1071
  924MOL0     C21879   3.645  11.012   9.943  0.1858 -0.8988 -0.6988
  924MOL0    Cl21880   3.499  10.909   9.918  0.1212 -0.0827  0.5274
  924MOL0     C21881   4.422  11.809   9.997 -0.4954  0.1710  0.2804
  924MOL0     C21882   4.535  11.858   9.935 -0.7625  0.2980  1.0382
  924MOL0     O21883   4.875  11.728   9.900 -0.2661  0.4312 -0.2613
  924MOL0     C21884   5.063  11.806   9.704 -0.6725 -0.2083  0.4891
  924MOL0     C21885   5.164  11.867   9.618  0.0703 -0.0181  0.4816
  924MOL0     N21886   5.517  11.818   9.286 -0.0611 -0.3132  0.0806
  924MOL0     N21887   5.566  11.711   9.247  0.4845  0.8578 -0.4658
  924MOL0     C21888   6.450  10.956   8.934 -0.7652 -0.1157 -0.0995
  924MOL0     C21889   6.576  10.896   8.904 -0.4237 -0.2994  0.3166
  924MOL0     C21890   6.938  10.858   8.646 -0.0388  0.0150  0.5909
  924MOL0     C21891   7.007  10.896   8.531 -1.8538 -0.2198  0.6207
  924MOL0     C21892   7.115  10.819   8.481 -0.5322  0.3276  0.1408
  924MOL0     C21893   7.164  10.713   8.560 -1.1963 -0.2504  1.3629
  924MOL0     O21894   7.283  10.656   8.522 -0.0860 -0.3855  0.4218
  924MOL0     C21895   7.392  10.708   8.610 -0.1309  0.1536 -0.2415
  924MOL0     C21896   7.523  10.676   8.542 -0.2939 -0.2504 -0.5328
  924MOL0     C21897   7.649  10.716   8.621  0.5616 -0.2798 -0.6850
  924MOL0     C21898   7.780  10.717   8.536  0.9121  0.1301 -0.0359
  924MOL0     C21899   7.808  10.585   8.481 -0.0756  0.7816  0.3280
  924MOL0     C21900   7.836  10.481   8.424 -0.6097  0.3174 -0.1680
  924MOL0     C21901   7.101  10.689   8.683  0.1608  0.4583  0.2966
  924MOL0     C21902   6.990  10.756   8.726 -0.8191 -0.7458 -0.5385
  924MOL0     H21903   6.765  11.167   8.869  1.3479 -0.7640  1.1115
  924MOL0     H21904   6.541  11.280   8.911  0.7996 -0.2614  1.1531
  924MOL0     H21905   6.211  11.040   9.074 -2.9536  1.5675  1.5568
  924MOL0     H21906   6.146  11.054   8.905 -0.1501  4.9699 -2.7158
  924MOL0     H21907   6.136  11.285   9.109 -2.5856  3.1438 -1.2306
  924MOL0     H21908   6.014  11.155   9.108 -1.0140  1.9389  1.2283
  924MOL0     H21909   5.977  11.224   8.865  0.3232 -1.3021  1.6656
  924MOL0     H21910   6.100  11.349   8.895 -0.6623  0.7240  3.2299
  924MOL0     H21911   5.841  11.335   9.047  1.5212 -0.4412  0.7018
  924MOL0     H21912   5.963  11.472   9.046  1.3907  1.7613 -1.3587
  924MOL0     H21913   5.821  11.359   8.800  1.9311  0.6510 -1.5040
  924MOL0     H21914   5.931  11.500   8.812 -0.4348 -0.0364 -1.2839
  924MOL0     H21915   5.648  11.457   8.920  0.6747 -1.2500 -0.1074
  924MOL0     H21916   5.675  11.554   8.791 -0.1589  1.5414  1.0248
  924MOL0     H21917   5.834  11.707   8.921  0.3175 -0.6817 -1.1442
  924MOL0     H21918   5.656  11.714   8.958  0.3495 -0.4541  2.1887
  924MOL0     H21919   5.867  11.644   9.153 -0.6946  3.5432 -2.6426
  924MOL0     H21920   5.717  11.540   9.141 -0.5039 -1.3524 -2.7638
  924MOL0     H21921   5.808  11.915   9.183  0.3829  2.2634  1.4253
  924MOL0     H21922   5.662  12.121   9.215 -1.2290 -0.9659 -1.6279
  924MOL0     H21923   5.658  12.081   9.382 -0.5253  2.8850  0.0853
  924MOL0     H21924   5.374  12.075   9.254  0.0428  1.1659 -3.5582
  924MOL0     H21925   5.456  12.217   9.229 -1.4062 -1.0629 -1.4245
  924MOL0     H21926   5.508  12.196   9.502 -1.0138  0.0188  1.9624
  924MOL0     H21927   5.365  12.270   9.439  1.4511  0.9487 -1.0656
  924MOL0     H21928   5.330  12.079   9.624 -1.1523 -0.6906 -0.3242
  924MOL0     H21929   5.415  11.969   9.511  1.4666  0.5961 -4.5642
  924MOL0     H21930   4.974  12.103   9.484  0.1386 -1.5205 -1.1945
  924MOL0     H21931   4.813  12.033   9.647  1.6315  1.7720 -2.7026
  924MOL0     H21932   4.618  11.598   9.727 -1.7828 -1.7820 -1.2015
  924MOL0     H21933   4.398  11.503   9.833  2.5553 -0.8160 -0.2925
  924MOL0     H21934   4.193  11.472   9.924  0.9275  0.6673 -2.3575
  924MOL0     H21935   4.143  11.632   9.869  0.2372 -1.1610 -0.7684
  924MOL0     H21936   4.002  11.652  10.063 -1.4158 -0.1607 -1.7021
  924MOL0     H21937   4.081  11.506  10.127  0.5744  0.9769 -0.1877
  924MOL0     H21938   3.954  11.370   9.943  0.0299  0.6827 -0.1975
  924MOL0     H21939   3.881  11.513   9.884  0.6797 -0.2495 -0.2031
  924MOL0     H21940   3.861  11.399  10.149  0.3155 -0.7217 -0.9249
  924MOL0     H21941   3.788  11.562  10.121 -1.8743  0.7497 -1.9648
  924MOL0     H21942   3.653  11.439   9.930  0.0068 -1.6458 -1.7085
  924MOL0     H21943   3.600  11.394  10.087  0.3576 -3.8635  0.3015
  924MOL0     H21944   3.763  11.196  10.089  0.1911 -0.4977 -0.2084
  924MOL0     H21945   3.787  11.216   9.921  1.8150  0.5536  1.2071
  924MOL0     H21946   3.525  11.160  10.051 -1.3227  3.2561 -0.8452
  924MOL0     H21947   3.550  11.195   9.874  3.2648 -0.2760 -1.4546
  924MOL0     H21948   3.711  10.978  10.023  1.9950  1.9286 -0.8216
  924MOL0     H21949   3.703  11.021   9.850  1.1251  4.0320  0.0670
  924MOL0     H21950   4.384  11.872  10.077  3.0280  0.9072  1.5744
  924MOL0     H21951   4.575  11.957   9.952  2.5353 -1.0981  2.5050
  924MOL0     H21952   5.091  11.715   9.756 -0.4948 -1.9029 -2.3757
  924MOL0     H21953   5.262  11.824   9.603  0.5545  1.0064  0.6092
  924MOL0     H21954   6.370  10.888   8.962  0.3539 -1.2193  0.4933
  924MOL0     H21955   6.596  10.790   8.904 -4.1607 -1.1628  1.9391
  924MOL0     H21956   6.983  10.979   8.466 -3.0486  0.5315  1.9453
  924MOL0     H21957   7.163  10.853   8.389 -2.8874  1.2627 -0.8051
  924MOL0     H21958   7.394  10.660   8.708  0.1551 -0.7157 -0.6623
  924MOL0     H21959   7.383  10.816   8.629  0.6178 -0.2639  3.0279
  924MOL0     H21960   7.523  10.569   8.515 -2.5390 -1.0076  2.0544
  924MOL0     H21961   7.523  10.726   8.445  1.7852 -0.0333 -0.4677
  924MOL0     H21962   7.650  10.650   8.708 -2.0394 -1.6099 -1.5605
  924MOL0     H21963   7.632  10.819   8.654 -0.7971 -0.9742  0.9435
  924MOL0     H21964   7.762  10.781   8.450 -1.1116 -0.2207  0.0650
  924MOL0     H21965   7.863  10.754   8.597  0.3034 -0.8655  1.4739
  924MOL0     H21966   7.848  10.391   8.368  1.3615  0.6128 -0.3118
  924MOL0     H21967   7.143  10.615   8.750 -0.9297 -0.6720 -0.2245
  924MOL0     H21968   6.930  10.727   8.812 -2.3246  3.1298 -0.0740
  925MOL0     O21969   4.001   4.121   0.487  0.0997 -0.8537  0.0090
  925MOL0     C21970   4.007   4.129   0.368 -1.1048  0.0461  0.7155
  925MOL0     O21971   3.914   4.096   0.276  0.1856 -0.4541 -0.5305
  925MOL0     C21972   3.820   4.001   0.307  1.1223 -0.3712  0.7253
  925MOL0     C21973   3.701   4.041   0.369 -0.5366  0.7912 -1.0236
  925MOL0     C21974   3.605   3.946   0.405  0.6650 -0.5604 -0.5302
  925MOL0     C21975   3.617   3.802   0.383 -0.2390 -0.3983 -0.7917
  925MOL0     O21976   3.533   3.706   0.423 -0.1333  0.1946  0.5043
  925MOL0     C21977   3.398   3.725   0.365 -0.1079 -0.3227 -0.6731
  925MOL0     C21978   3.325   3.594   0.394 -0.3477  0.7308 -0.4018
  925MOL0     C21979   3.350   3.485   0.287 -0.4077  0.3892  0.1616
  925MOL0     C21980   3.277   3.361   0.339  0.7023  0.3237  0.2661
  925MOL0     C21981   3.299   3.239   0.251  0.2666  0.0605 -0.7743
  925MOL0     C21982   3.189   3.129   0.276 -0.4702 -0.0725 -1.2355
  925MOL0     C21983   3.252   2.994   0.238 -0.4500  0.2054 -0.6187
  925MOL0     C21984   3.300   2.977   0.094  0.0010  0.2200 -0.2622
  925MOL0     N21985   3.371   2.849   0.085  0.6193 -0.0810 -0.0374
  925MOL0     C21986   3.501   2.836   0.040  0.3441  0.1453  0.1653
  925MOL0     C21987   3.516   2.704   0.016 -0.5651  0.0786  0.2247
  925MOL0     C21988   3.657   2.646  -0.012  0.3392  0.4818 -0.0770
  925MOL0     C21989   3.768   2.696   0.077 -1.3159 -0.0584  0.4519
  925MOL0     C21990   3.755   2.663   0.230 -0.3571  0.4719  0.5721
  925MOL0     C21991   3.880   2.681   0.309 -0.7605  1.0961 -0.3397
  925MOL0     O21992   3.857   2.662   0.447 -0.0662 -0.1090 -1.0429
  925MOL0     C21993   3.957   2.675   0.542 -0.0214 -0.6415 -0.4562
  925MOL0     C21994   3.920   2.675   0.679  0.1343  0.7786 -0.7454
  925MOL0     C21995   4.012   2.677   0.789 -1.0580  0.6066  0.0829
  925MOL0     C21996   4.149   2.688   0.759  0.1504  0.3811 -0.6298
  925MOL0     C21997   4.248   2.686   0.867  0.5317 -0.2665  0.4472
  925MOL0     O21998   4.369   2.635   0.840 -0.1521  0.5842  0.4729
  925MOL0     C21999   4.469   2.651   0.923 -0.6015 -0.3283 -0.5267
  925MOL0     C22000   4.470   2.611   1.059  0.1630 -0.3294  0.2005
  925MOL0     C22001   4.577   2.629   1.145 -0.8179  0.3277 -0.6449
  925MOL0     C22002   4.690   2.695   1.094  0.3055 -0.3821  0.0336
  925MOL0     O22003   4.803   2.731   1.167 -0.4060 -0.1065 -0.5085
  925MOL0     C22004   4.831   2.664   1.288  0.9455 -0.2792  0.1309
  925MOL0     C22005   4.956   2.720   1.360 -0.6201  0.4394  0.5078
  925MOL0     C22006   5.083   2.685   1.275  0.4052 -0.5657  0.7341
  925MOL0     C22007   5.208   2.658   1.362  0.5043 -0.6295 -0.3878
  925MOL0     C22008   5.330   2.634   1.273  0.0777  0.5975 -0.3009
  925MOL0     C22009   5.375   2.764   1.203 -0.0724  0.7131  0.1144
  925MOL0     C22010   5.373   2.895   1.289  0.1629  0.5110 -0.4183
  925MOL0     C22011   5.420   3.008   1.199 -1.3225  0.5416  0.6174
  925MOL0    Cl22012   5.604   3.024   1.184  0.0316 -0.5233 -0.2853
  925MOL0     C22013   4.692   2.742   0.962  0.4408  1.2646 -0.2599
  925MOL0     C22014   4.587   2.710   0.883 -0.1963  0.4140 -0.6461
  925MOL0     O22015   4.214   2.713   0.981 -0.5211 -0.0712 -0.0708
  925MOL0     C22016   4.179   2.685   0.625 -0.3465  0.2020  0.6890
  925MOL0     C22017   4.093   2.681   0.514  0.7359  1.3673 -0.3628
  925MOL0     N22018   3.395   2.640   0.021 -0.1500 -0.0915 -0.2193
  925MOL0     N22019   3.312   2.721   0.083  0.1715  0.2112  0.2258
  925MOL0     C22020   3.739   3.766   0.320 -1.6798  1.1070  0.1490
  925MOL0     C22021   3.836   3.857   0.275  0.0700 -0.9272  0.0875
  925MOL0     C22022   4.144   4.161   0.307  0.5665  0.5257  0.4295
  925MOL0     C22023   4.269   4.190   0.367  0.1910  0.8195 -0.5326
  925MOL0     C22024   4.388   4.204   0.293  0.2558  0.3623  0.2062
  925MOL0     C22025   4.389   4.191   0.155 -0.4070  0.1663 -0.6119
  925MOL0     O22026   4.501   4.201   0.088  0.1320 -0.3805 -0.3891
  925MOL0     C22027   4.619   4.269   0.146  0.4951 -0.3378  0.4872
  925MOL0     C22028   4.726   4.291   0.038 -0.1436  0.2460 -0.2918
  925MOL0     C22029   4.737   4.426  -0.012  0.3725 -0.3687 -0.0757
  925MOL0     C22030   4.835   4.448  -0.120 -0.3834 -0.4919 -0.4139
  925MOL0     C22031   4.966   4.390  -0.097 -0.0560 -0.2809 -0.5050
  925MOL0     C22032   5.078   4.355  -0.085 -0.0724 -0.1529 -0.6544
  925MOL0     C22033   4.273   4.170   0.084  0.7136 -0.5616 -0.1854
  925MOL0     C22034   4.147   4.160   0.159  0.7342  0.3495 -0.7090
  925MOL0     H22035   3.681   4.140   0.409  0.1665 -0.2045  2.0116
  925MOL0     H22036   3.516   3.980   0.458  0.6759  0.8679 -1.3696
  925MOL0     H22037   3.398   3.740   0.256 -1.9870  1.2238 -0.4971
  925MOL0     H22038   3.348   3.815   0.401  2.5030  1.4290 -1.2073
  925MOL0     H22039   3.216   3.604   0.396 -0.8327 -2.7080 -1.5891
  925MOL0     H22040   3.362   3.563   0.492  0.6276  0.3657 -0.8726
  925MOL0     H22041   3.459   3.472   0.284 -0.5516 -0.9021 -2.3779
  925MOL0     H22042   3.331   3.514   0.184  0.2275  4.7059  1.0754
  925MOL0     H22043   3.313   3.336   0.439 -1.6680 -3.2005  0.4051
  925MOL0     H22044   3.169   3.380   0.341  0.1837 -1.0522 -4.4908
  925MOL0     H22045   3.398   3.203   0.282 -0.8198 -2.1734  0.2953
  925MOL0     H22046   3.285   3.273   0.148 -3.1632  2.5350  0.3093
  925MOL0     H22047   3.105   3.147   0.209 -1.2262  0.0967 -0.2722
  925MOL0     H22048   3.161   3.125   0.382  0.9278 -0.4822 -0.8521
  925MOL0     H22049   3.333   2.964   0.305 -2.8334 -4.6333  0.5931
  925MOL0     H22050   3.180   2.915   0.263 -0.3558 -0.2078 -1.6189
  925MOL0     H22051   3.374   3.055   0.071  2.0908 -1.3534  0.7921
  925MOL0     H22052   3.216   2.980   0.023 -0.6130  0.5048  0.4589
  925MOL0     H22053   3.573   2.916   0.030  1.5144 -0.6688  1.6074
  925MOL0     H22054   3.683   2.665  -0.117  0.6478 -1.4411 -0.3855
  925MOL0     H22055   3.662   2.538   0.000  1.8010  0.6211  0.8562
  925MOL0     H22056   3.783   2.804   0.075 -1.4507  0.0385  2.4605
  925MOL0     H22057   3.861   2.649   0.044 -1.0378 -0.8801  2.2583
  925MOL0     H22058   3.675   2.718   0.280  0.8147 -0.2165  3.4479
  925MOL0     H22059   3.730   2.557   0.246  0.0698  0.1986 -0.5292
  925MOL0     H22060   3.927   2.778   0.290  0.2707  0.7936  0.5902
  925MOL0     H22061   3.948   2.602   0.276 -2.2311 -0.3734  0.0375
  925MOL0     H22062   3.820   2.696   0.717 -0.2006  0.1799 -1.2872
  925MOL0     H22063   3.973   2.685   0.890  2.0071 -0.6353  1.4628
  925MOL0     H22064   4.378   2.562   1.091 -2.7665  3.1706 -2.1289
  925MOL0     H22065   4.577   2.588   1.246  0.4617  1.6989 -0.0468
  925MOL0     H22066   4.842   2.555   1.283 -1.1126 -0.5701  0.7972
  925MOL0     H22067   4.753   2.689   1.360  1.9855  2.9860  0.3024
  925MOL0     H22068   4.967   2.661   1.451  0.6926 -0.8144 -0.4006
  925MOL0     H22069   4.952   2.825   1.388 -2.6186  0.2683  1.0008
  925MOL0     H22070   5.101   2.769   1.207  4.0634 -0.5231  1.5712
  925MOL0     H22071   5.061   2.596   1.215  1.8494  0.2699 -1.1345
  925MOL0     H22072   5.224   2.736   1.438 -0.6894 -1.4103  0.7027
  925MOL0     H22073   5.187   2.565   1.415 -1.6717  0.3219  0.5317
  925MOL0     H22074   5.305   2.555   1.202  2.0786 -0.3599 -0.0034
  925MOL0     H22075   5.410   2.599   1.339 -2.2507  0.5236  2.7255
  925MOL0     H22076   5.312   2.785   1.116  1.4218  1.8979 -0.7368
  925MOL0     H22077   5.474   2.754   1.156 -0.7177 -0.8300 -1.0163
  925MOL0     H22078   5.268   2.916   1.314 -0.2766 -0.0187 -1.7027
  925MOL0     H22079   5.439   2.895   1.375  0.5997  1.9550 -0.7181
  925MOL0     H22080   5.383   3.097   1.250 -0.5309  0.8426  0.6931
  925MOL0     H22081   5.383   3.004   1.096  1.0414 -1.4075 -0.2800
  925MOL0     H22082   4.778   2.797   0.927  2.0635 -1.4980 -0.8281
  925MOL0     H22083   4.577   2.741   0.780 -0.8492 -0.3740 -0.8316
  925MOL0     H22084   4.284   2.686   0.599 -0.1054 -0.5473  1.5717
  925MOL0     H22085   4.135   2.680   0.414  1.6465 -1.0259 -0.0214
  925MOL0     H22086   3.748   3.660   0.302  2.4169  1.0643  1.2970
  925MOL0     H22087   3.925   3.835   0.218  1.7040  1.2895  1.6105
  925MOL0     H22088   4.256   4.209   0.474 -2.5864  1.1557 -0.8403
  925MOL0     H22089   4.480   4.218   0.348 -0.0169 -0.5925  0.9366
  925MOL0     H22090   4.658   4.200   0.221 -2.3041  0.6809  3.1068
  925MOL0     H22091   4.593   4.362   0.197  1.0097 -0.0126  0.1615
  925MOL0     H22092   4.818   4.258   0.086 -0.4551 -2.4130 -1.3797
  925MOL0     H22093   4.714   4.220  -0.044  2.3004 -2.1534  1.2563
  925MOL0     H22094   4.758   4.492   0.072 -0.3453 -1.0857  0.6888
  925MOL0     H22095   4.639   4.451  -0.053 -0.1945  2.6549  2.7084
  925MOL0     H22096   4.788   4.396  -0.203  0.8436 -3.1446  0.4520
  925MOL0     H22097   4.840   4.555  -0.142 -1.1460 -0.8410 -2.4874
  925MOL0     H22098   5.170   4.306  -0.061 -1.0816 -0.6899  2.7199
  925MOL0     H22099   4.287   4.164  -0.023  1.8406 -0.3800 -0.0632
  925MOL0     H22100   4.058   4.149   0.099 -0.5392  0.8581  1.0189
  926MOL0     O22101   4.819   1.514   5.389  0.1330  0.0433 -0.2284
  926MOL0     C22102   4.887   1.462   5.471 -0.0028 -0.3064 -0.1764
  926MOL0     O22103   4.857   1.450   5.605 -0.1433 -0.7064  0.8273
  926MOL0     C22104   4.728   1.456   5.638  0.7672 -0.3714  0.0070
  926MOL0     C22105   4.633   1.346   5.662 -0.6184 -0.6815  1.0216
  926MOL0     C22106   4.500   1.370   5.700  0.1367  0.7285 -0.4263
  926MOL0     C22107   4.458   1.502   5.708 -0.4838 -0.5441  0.0891
  926MOL0     O22108   4.335   1.519   5.762 -0.8065  0.7175 -0.6979
  926MOL0     C22109   4.251   1.618   5.701 -0.0830  0.4760  0.8790
  926MOL0     C22110   4.109   1.576   5.721  0.0503 -0.4000  0.0678
  926MOL0     C22111   4.010   1.673   5.666 -0.7838 -0.3076 -0.1317
  926MOL0     C22112   3.889   1.605   5.600 -0.8387 -0.0670 -0.3149
  926MOL0     C22113   3.787   1.561   5.711 -0.1074 -0.5520 -0.0103
  926MOL0     C22114   3.665   1.485   5.643  0.2848 -0.1837 -0.4005
  926MOL0     C22115   3.561   1.425   5.741  0.9101  0.4121  0.6064
  926MOL0     C22116   3.457   1.335   5.664 -0.9394  0.4329 -0.4805
  926MOL0     N22117   3.332   1.334   5.740  0.2060 -0.0151  0.6086
  926MOL0     C22118   3.317   1.363   5.868  0.5544 -0.6278 -0.3690
  926MOL0     C22119   3.186   1.337   5.891 -0.0196  0.1541  0.2257
  926MOL0     C22120   3.115   1.345   6.022 -0.7607  0.0365  0.3065
  926MOL0     C22121   3.062   1.488   6.050 -0.2179 -0.1674  0.3499
  926MOL0     C22122   2.935   1.502   5.966 -0.1292 -0.8481  0.4947
  926MOL0     C22123   2.811   1.429   6.009  0.2217  0.7045  1.0220
  926MOL0     O22124   2.780   1.473   6.137  0.0176  0.9413 -0.2048
  926MOL0     C22125   2.661   1.421   6.196 -1.1731 -0.0794 -0.5898
  926MOL0     C22126   2.556   1.509   6.221  0.3050  0.1697  0.4230
  926MOL0     C22127   2.427   1.467   6.265 -0.2986 -0.5290 -0.5270
  926MOL0     C22128   2.407   1.320   6.286 -0.1203 -0.3626 -0.3589
  926MOL0     C22129   2.266   1.274   6.333  1.2055 -0.2108 -0.3700
  926MOL0     O22130   2.166   1.368   6.351 -0.2232  0.1747 -0.5252
  926MOL0     C22131   2.035   1.335   6.384 -0.1615 -0.0733  0.3652
  926MOL0     C22132   1.960   1.415   6.469  0.1750 -0.0294  0.3820
  926MOL0     C22133   1.828   1.377   6.516  0.1831 -0.0740  0.0461
  926MOL0     C22134   1.766   1.255   6.487  0.0746  0.1864 -0.0293
  926MOL0     O22135   1.650   1.204   6.535 -0.1954 -0.0892  0.4369
  926MOL0     C22136   1.591   1.250   6.654  0.7871  1.0851 -0.8180
  926MOL0     C22137   1.457   1.184   6.671  0.2246 -0.0294 -0.0592
  926MOL0     C22138   1.396   1.177   6.812 -0.1807 -0.4105  0.5467
  926MOL0     C22139   1.253   1.114   6.807 -0.3610 -0.7253 -0.0582
  926MOL0     C22140   1.192   1.093   6.948  0.2600  0.5323  0.6148
  926MOL0     C22141   1.197   1.208   7.043 -0.2971 -0.6807 -0.7209
  926MOL0     C22142   1.095   1.194   7.159 -0.1743  0.3461  0.0346
  926MOL0     C22143   1.090   1.310   7.263 -0.5095  0.0702 -0.1222
  926MOL0    Cl22144   1.006   1.449   7.201 -0.2200 -0.1556  0.1597
  926MOL0     C22145   1.845   1.173   6.399  0.4036  0.0395  0.7127
  926MOL0     C22146   1.970   1.215   6.346 -0.0410 -0.2935  0.4304
  926MOL0     O22147   2.254   1.158   6.353  0.5334  0.5204  0.0746
  926MOL0     C22148   2.516   1.230   6.262 -0.7438  0.6088 -1.1643
  926MOL0     C22149   2.645   1.289   6.225  0.0258  0.5701 -0.0520
  926MOL0     N22150   3.131   1.305   5.763 -0.9124 -0.2305 -0.1883
  926MOL0     N22151   3.216   1.308   5.674 -0.6166 -0.1729 -0.6687
  926MOL0     C22152   4.547   1.607   5.690  0.1937  0.2609  0.2179
  926MOL0     C22153   4.675   1.589   5.648  0.8011 -0.3384  0.0912
  926MOL0     C22154   5.000   1.373   5.432  0.3590  0.3230 -0.2751
  926MOL0     C22155   5.049   1.384   5.299  0.4381 -0.9187  0.6522
  926MOL0     C22156   5.140   1.296   5.247  0.0496 -0.2953 -1.0513
  926MOL0     C22157   5.200   1.200   5.326  0.9080 -0.0146  0.6814
  926MOL0     O22158   5.288   1.119   5.257 -0.2987 -0.9421 -0.1146
  926MOL0     C22159   5.425   1.163   5.264 -0.7829 -0.1582  0.4130
  926MOL0     C22160   5.515   1.049   5.239  0.5586 -0.2996 -0.4230
  926MOL0     C22161   5.645   1.101   5.184 -0.9094  0.1031 -0.0801
  926MOL0     C22162   5.745   0.986   5.151  0.4604 -0.0172 -0.0112
  926MOL0     C22163   5.864   1.039   5.091 -0.2074  0.6224 -0.2650
  926MOL0     C22164   5.967   1.092   5.053  0.5060 -0.0823  0.3404
  926MOL0     C22165   5.145   1.183   5.458  0.5040  0.2368  0.0490
  926MOL0     C22166   5.054   1.274   5.513 -0.5662  0.2759 -0.2860
  926MOL0     H22167   4.667   1.244   5.646 -0.2727 -0.4864  0.4517
  926MOL0     H22168   4.434   1.285   5.712 -0.2838  0.6614 -2.6772
  926MOL0     H22169   4.267   1.618   5.593  0.4689 -3.0176  0.8288
  926MOL0     H22170   4.265   1.714   5.750  2.0679  0.4943  0.3338
  926MOL0     H22171   4.087   1.561   5.827 -1.0721 -0.9164 -0.2245
  926MOL0     H22172   4.088   1.481   5.670 -4.3659 -0.0125  0.7452
  926MOL0     H22173   4.064   1.733   5.593  0.1544  0.7375  1.3526
  926MOL0     H22174   3.967   1.739   5.742 -0.2297  1.1539 -1.0639
  926MOL0     H22175   3.850   1.677   5.527 -1.1468  0.7292  0.6137
  926MOL0     H22176   3.927   1.514   5.552  1.0723  0.6557 -0.2311
  926MOL0     H22177   3.759   1.657   5.754  1.8195  1.0436 -2.0769
  926MOL0     H22178   3.840   1.493   5.778  0.5688  0.5086  0.5603
  926MOL0     H22179   3.711   1.408   5.580 -0.3598  1.1058 -2.5651
  926MOL0     H22180   3.615   1.561   5.582 -1.9368 -1.0336  0.2604
  926MOL0     H22181   3.606   1.360   5.817 -1.4283  1.2795  2.8533
  926MOL0     H22182   3.514   1.512   5.787  1.1884  0.2573  1.1945
  926MOL0     H22183   3.499   1.239   5.633 -0.1026  1.1711 -1.7138
  926MOL0     H22184   3.429   1.371   5.564 -1.5919 -0.4763 -0.6501
  926MOL0     H22185   3.388   1.409   5.935  0.4429  0.1128 -0.7560
  926MOL0     H22186   3.188   1.336   6.102 -1.3251  2.7686  1.2537
  926MOL0     H22187   3.035   1.271   6.033 -0.5021 -0.1677  0.8274
  926MOL0     H22188   3.129   1.569   6.023 -0.0055 -0.4084  0.1515
  926MOL0     H22189   3.044   1.509   6.156  0.2736  0.1123  0.3770
  926MOL0     H22190   2.913   1.609   5.957 -1.9271 -1.2882 -1.3231
  926MOL0     H22191   2.953   1.479   5.860  2.5504 -0.1800  0.7368
  926MOL0     H22192   2.822   1.320   6.005  0.6213  0.7735  0.0972
  926MOL0     H22193   2.735   1.463   5.939  2.2988  2.5506 -0.4887
  926MOL0     H22194   2.556   1.609   6.180 -2.2948 -1.1116 -3.1923
  926MOL0     H22195   2.354   1.546   6.284 -0.2424 -0.9015  1.4875
  926MOL0     H22196   2.007   1.507   6.500  0.2078  0.9885 -2.4169
  926MOL0     H22197   1.788   1.442   6.592  0.7271 -0.1891  0.4352
  926MOL0     H22198   1.580   1.358   6.644  1.4595  1.1729 -0.6329
  926MOL0     H22199   1.659   1.229   6.737 -3.7211 -2.6872  2.4629
  926MOL0     H22200   1.461   1.077   6.649  4.0466 -0.1920  0.7097
  926MOL0     H22201   1.380   1.217   6.600 -1.2202 -1.7540  0.6183
  926MOL0     H22202   1.390   1.279   6.851 -0.1671 -1.0042  2.2075
  926MOL0     H22203   1.459   1.124   6.885  1.0693  2.1175  1.4213
  926MOL0     H22204   1.188   1.182   6.752 -0.7327  0.3908  1.6975
  926MOL0     H22205   1.254   1.018   6.754 -1.8493  0.6440 -2.8044
  926MOL0     H22206   1.261   1.023   6.997  1.0132 -0.0482 -1.1920
  926MOL0     H22207   1.092   1.056   6.928  1.3802 -0.4711 -4.7399
  926MOL0     H22208   1.191   1.290   6.971  2.7050 -3.1315 -4.1608
  926MOL0     H22209   1.295   1.223   7.089  0.5691 -0.4351 -2.5492
  926MOL0     H22210   0.999   1.190   7.107  0.5534 -0.7727 -1.3161
  926MOL0     H22211   1.120   1.099   7.207  1.5049 -0.7876 -2.8084
  926MOL0     H22212   1.187   1.330   7.309 -1.9992 -1.2942  3.9913
  926MOL0     H22213   1.031   1.275   7.348  1.2992 -0.0655  1.1413
  926MOL0     H22214   1.805   1.080   6.358 -1.9045  1.2123  0.1127
  926MOL0     H22215   2.015   1.145   6.276 -2.7094  0.0129 -1.7795
  926MOL0     H22216   2.515   1.125   6.289  0.4880  0.8419 -0.1170
  926MOL0     H22217   2.734   1.228   6.220  0.6390  1.1270  2.5474
  926MOL0     H22218   4.535   1.707   5.731  0.4847  0.2952  0.2192
  926MOL0     H22219   4.731   1.675   5.613 -0.6021  0.7735  0.4690
  926MOL0     H22220   5.009   1.461   5.234 -0.9465 -1.1814  1.1489
  926MOL0     H22221   5.173   1.308   5.144  2.3997  4.0032 -0.0207
  926MOL0     H22222   5.448   1.219   5.354 -1.1198  1.8866 -0.7167
  926MOL0     H22223   5.438   1.231   5.179 -2.0018 -2.0921 -1.4464
  926MOL0     H22224   5.535   1.009   5.338  0.5750  0.5222 -0.0893
  926MOL0     H22225   5.470   0.972   5.174  0.1909 -0.7036  0.2975
  926MOL0     H22226   5.693   1.165   5.259 -1.0892  0.9297 -0.6540
  926MOL0     H22227   5.627   1.157   5.092  0.2994 -0.3874 -0.6380
  926MOL0     H22228   5.782   0.932   5.240 -0.9386  0.3044  0.7923
  926MOL0     H22229   5.702   0.917   5.078 -2.4277 -1.4679  2.8213
  926MOL0     H22230   6.056   1.136   5.014  1.0949 -1.5584 -0.0667
  926MOL0     H22231   5.186   1.095   5.507  1.9377  1.4962  1.2175
  926MOL0     H22232   5.032   1.266   5.620 -1.1798  0.0969 -0.4194
  927MOL0     O22233  10.694   3.598  10.875  0.1682  0.0355 -0.7606
  927MOL0     C22234  10.745   3.495  10.875  0.1723  0.2181 -0.7673
  927MOL0     O22235  10.693   3.376  10.917  0.7075 -0.0725 -0.2997
  927MOL0     C22236  10.564   3.378  10.937 -0.0644 -0.8344  0.5009
  927MOL0     C22237  10.474   3.424  10.831 -0.5738  0.0280 -0.0931
  927MOL0     C22238  10.340   3.415  10.851  0.3591  0.3099 -0.0088
  927MOL0     C22239  10.286   3.351  10.961  0.3837  0.2105 -0.1325
  927MOL0     O22240  10.156   3.349  10.976 -0.2418 -0.1775  0.5337
  927MOL0     C22241  10.103   3.217  10.985  0.3707 -0.5670 -0.2561
  927MOL0     C22242   9.955   3.247  10.975  0.0009  0.2800 -0.0998
  927MOL0     C22243   9.918   3.297  10.833  0.5194 -0.4742  0.2678
  927MOL0     C22244   9.756   3.291  10.823 -0.2539  0.3602  0.3645
  927MOL0     C22245   9.699   3.295  10.687  0.3798  1.0760  0.3732
  927MOL0     C22246   9.553   3.330  10.691  0.1359 -0.9731  0.6210
  927MOL0     C22247   9.483   3.309  10.561  0.5150 -0.3729  1.2102
  927MOL0     C22248   9.332   3.334  10.581 -0.2110  0.5209 -0.7271
  927MOL0     N22249   9.265   3.382  10.458  0.1410  0.3135  0.2434
  927MOL0     C22250   9.201   3.503  10.439 -0.2115 -0.3581 -0.2847
  927MOL0     C22251   9.163   3.499  10.312  0.2795  0.2404 -0.4274
  927MOL0     C22252   9.100   3.613  10.232  0.9397 -0.2531  1.0559
  927MOL0     C22253   8.946   3.617  10.248  0.4044  0.6893 -0.4683
  927MOL0     C22254   8.880   3.718  10.152 -0.8546  0.5155  0.2045
  927MOL0     C22255   8.732   3.761  10.192 -0.3845 -0.6179  0.8354
  927MOL0     O22256   8.709   3.886  10.130 -0.0970  0.5901 -0.7052
  927MOL0     C22257   8.579   3.910  10.100 -0.1465  0.1094 -0.6104
  927MOL0     C22258   8.543   3.954   9.976  0.1707 -0.0720 -0.1288
  927MOL0     C22259   8.414   3.966   9.937  0.0999  0.6141  0.3073
  927MOL0     C22260   8.309   3.935  10.030  0.6691  0.0184  0.2723
  927MOL0     C22261   8.171   3.931   9.991  0.5171 -0.5570 -0.1039
  927MOL0     O22262   8.134   3.959   9.869 -0.2317 -0.6759 -0.3090
  927MOL0     C22263   8.012   3.974   9.808 -0.4029 -0.0089 -0.5876
  927MOL0     C22264   7.898   3.900   9.852  0.5633  0.2207 -0.3066
  927MOL0     C22265   7.780   3.908   9.776 -1.0684  0.1061 -0.6699
  927MOL0     C22266   7.772   3.992   9.660 -0.2432 -1.1084  0.7178
  927MOL0     O22267   7.659   4.020   9.583 -0.6002  0.5235  0.6076
  927MOL0     C22268   7.538   3.967   9.628 -0.2013  0.4335 -0.2886
  927MOL0     C22269   7.436   4.016   9.522 -0.2434 -0.0440 -1.4909
  927MOL0     C22270   7.383   3.905   9.429 -0.2155 -0.2413  0.0866
  927MOL0     C22271   7.307   3.975   9.313  0.6849  0.4664  0.5116
  927MOL0     C22272   7.239   3.869   9.235 -0.2311 -0.3924 -0.2483
  927MOL0     C22273   7.112   3.828   9.293 -1.2006 -0.1971  0.3923
  927MOL0     C22274   7.009   3.941   9.297  0.4618 -0.1543  0.2354
  927MOL0     C22275   6.861   3.888   9.309  0.2404  0.4375  0.0244
  927MOL0    Cl22276   6.753   4.023   9.267 -0.5500 -0.0477 -0.2043
  927MOL0     C22277   7.889   4.052   9.612 -0.0681  0.1615  0.3279
  927MOL0     C22278   8.008   4.040   9.685 -0.1384 -0.2836 -0.0803
  927MOL0     O22279   8.090   3.904  10.081 -0.1419  0.4606  0.4140
  927MOL0     C22280   8.344   3.911  10.161  0.2641 -0.0312  0.3792
  927MOL0     C22281   8.478   3.887  10.192  0.5590  1.3566 -0.5190
  927MOL0     N22282   9.192   3.373  10.264  0.3523  0.3143 -0.3005
  927MOL0     N22283   9.264   3.308  10.347 -0.4269 -0.3960  0.3024
  927MOL0     C22284  10.375   3.297  11.057  0.6721 -0.4105  0.5954
  927MOL0     C22285  10.512   3.318  11.057  0.4058 -0.0864  0.4538
  927MOL0     C22286  10.882   3.501  10.817  0.2253 -0.3223 -0.7500
  927MOL0     C22287  10.931   3.604  10.735  0.3727 -0.7585 -0.1010
  927MOL0     C22288  11.061   3.605  10.684  0.5467  0.6043  0.0806
  927MOL0     C22289  11.154   3.506  10.720 -0.1211 -0.5823 -0.0205
  927MOL0     O22290  11.290   3.518  10.708  0.2881 -0.1873  0.1075
  927MOL0     C22291  11.332   3.633  10.634 -0.0887 -0.0299 -0.1101
  927MOL0     C22292  11.483   3.644  10.655 -0.3789  0.2862  0.3964
  927MOL0     C22293  11.551   3.528  10.577 -0.2625 -0.1551  0.0468
  927MOL0     C22294  11.685   3.472  10.638  0.1835 -0.7179  0.1779
  927MOL0     C22295  11.653   3.402  10.764 -0.0007  0.7264 -0.4880
  927MOL0     C22296  11.627   3.331  10.860 -0.0974 -0.0869  0.0569
  927MOL0     C22297  11.103   3.405  10.794 -0.0355 -0.3277  0.3243
  927MOL0     C22298  10.982   3.399  10.843  0.3895 -0.6722 -0.0085
  927MOL0     H22299  10.517   3.462  10.739  0.0705 -4.2119 -1.8023
  927MOL0     H22300  10.275   3.440  10.768 -1.6253  0.6886  1.5751
  927MOL0     H22301  10.133   3.164  11.075 -0.1828 -1.1635 -0.4107
  927MOL0     H22302  10.149   3.165  10.901  3.6790 -0.6439  1.4666
  927MOL0     H22303   9.915   3.325  11.040 -3.6811  0.5329 -2.3826
  927MOL0     H22304   9.906   3.154  11.004 -0.4916  0.4009 -0.5388
  927MOL0     H22305   9.961   3.232  10.756  4.5507  2.7263 -0.4891
  927MOL0     H22306   9.949   3.399  10.808 -3.2329  0.9712  0.8249
  927MOL0     H22307   9.723   3.201  10.877 -1.2801  0.0232 -0.7837
  927MOL0     H22308   9.708   3.369  10.883 -0.3352  1.1922 -0.7567
  927MOL0     H22309   9.720   3.199  10.639  0.9440  1.1212  0.5182
  927MOL0     H22310   9.747   3.376  10.631 -1.5944  1.8359 -0.3003
  927MOL0     H22311   9.530   3.431  10.724 -2.5553 -0.7816 -1.4654
  927MOL0     H22312   9.520   3.263  10.771  0.2804 -0.8711  0.7665
  927MOL0     H22313   9.523   3.390  10.498  1.2836  0.2787  2.5053
  927MOL0     H22314   9.504   3.211  10.518  0.9126  0.2872 -0.1956
  927MOL0     H22315   9.309   3.412  10.654 -1.8294  0.0608 -0.7126
  927MOL0     H22316   9.297   3.237  10.618  1.4670 -0.8271 -2.4406
  927MOL0     H22317   9.176   3.582  10.509  1.1255 -0.6593  0.5723
  927MOL0     H22318   9.126   3.604  10.126  0.4269  1.7243  0.7365
  927MOL0     H22319   9.141   3.710  10.258 -2.7125  0.7980  3.7928
  927MOL0     H22320   8.916   3.645  10.349  1.7996  0.5815  0.0059
  927MOL0     H22321   8.907   3.519  10.217 -0.5839  1.2951 -1.1878
  927MOL0     H22322   8.940   3.808  10.142  2.0701 -1.3584 -0.5081
  927MOL0     H22323   8.870   3.685  10.048 -1.4264  0.1218  0.3754
  927MOL0     H22324   8.720   3.773  10.300  3.7979  0.2011  1.3775
  927MOL0     H22325   8.660   3.694  10.144  0.0063 -1.3910  1.2973
  927MOL0     H22326   8.614   3.962   9.895  0.0610 -3.7962 -0.7849
  927MOL0     H22327   8.394   3.986   9.833 -0.7043  0.7897  0.4915
  927MOL0     H22328   7.902   3.837   9.941  0.7362  0.9221  0.1940
  927MOL0     H22329   7.691   3.852   9.804 -1.3162  0.9392  0.2249
  927MOL0     H22330   7.514   4.008   9.727  1.4965  2.2762 -0.5763
  927MOL0     H22331   7.545   3.858   9.632 -0.3562  0.3476 -1.9193
  927MOL0     H22332   7.473   4.097   9.458  2.6216 -1.7948 -2.2727
  927MOL0     H22333   7.349   4.045   9.580  0.6632  0.4982 -0.3632
  927MOL0     H22334   7.315   3.840   9.485 -0.5983  2.4919  3.0781
  927MOL0     H22335   7.468   3.850   9.387  0.3139  0.2759  0.4594
  927MOL0     H22336   7.232   4.048   9.341 -2.5742 -3.2316  2.3657
  927MOL0     H22337   7.386   4.021   9.252  1.4020 -0.6104  0.6061
  927MOL0     H22338   7.311   3.786   9.227  2.7233  2.0829 -1.2528
  927MOL0     H22339   7.220   3.908   9.135  1.9655 -0.2622 -0.6703
  927MOL0     H22340   7.121   3.792   9.396 -1.7941 -0.5390  0.3286
  927MOL0     H22341   7.068   3.755   9.224  1.7659 -0.1374 -1.8121
  927MOL0     H22342   7.033   3.997   9.388  1.0541  0.1549 -0.1063
  927MOL0     H22343   7.010   4.001   9.205 -1.3070 -0.4885 -0.0458
  927MOL0     H22344   6.836   3.846   9.407 -0.7133  1.5005  0.2498
  927MOL0     H22345   6.846   3.808   9.236 -1.0719  0.0061  0.7237
  927MOL0     H22346   7.890   4.109   9.519  1.8873 -3.4824 -2.1646
  927MOL0     H22347   8.093   4.094   9.643 -1.2417 -1.4712 -4.3594
  927MOL0     H22348   8.280   3.881  10.244  0.4934 -0.3868  0.4265
  927MOL0     H22349   8.497   3.853  10.293 -1.1768  2.0588  0.0879
  927MOL0     H22350  10.332   3.240  11.138  1.4392  1.6488  2.5295
  927MOL0     H22351  10.566   3.264  11.134  1.0978 -1.6386 -1.0389
  927MOL0     H22352  10.860   3.679  10.702  0.4553 -1.1862 -1.2989
  927MOL0     H22353  11.088   3.689  10.622 -0.6949  1.7918  1.0880
  927MOL0     H22354  11.289   3.728  10.668 -3.1520 -1.6849  0.9947
  927MOL0     H22355  11.298   3.616  10.532 -0.0782  1.7103 -0.4465
  927MOL0     H22356  11.520   3.743  10.625  1.7047 -0.5655 -0.0500
  927MOL0     H22357  11.503   3.631  10.762 -1.3742 -2.6330  0.3146
  927MOL0     H22358  11.567   3.557  10.473  1.1817  0.8788  0.5317
  927MOL0     H22359  11.477   3.446  10.577 -0.2450 -0.2342 -2.2029
  927MOL0     H22360  11.730   3.410  10.559 -2.3294 -2.6762  0.1307
  927MOL0     H22361  11.753   3.555  10.658 -0.0554 -0.4765 -0.0124
  927MOL0     H22362  11.598   3.268  10.943  4.3693 -1.5790  0.7442
  927MOL0     H22363  11.164   3.325  10.834  0.8225  0.2382  0.1575
  927MOL0     H22364  10.963   3.324  10.920 -1.1232  0.0817  0.3857
  928MOL0     O22365   8.873  11.213   6.475  0.5357 -0.2045 -0.3424
  928MOL0     C22366   8.880  11.170   6.590  0.0860  0.2160 -0.6978
  928MOL0     O22367   8.779  11.169   6.685  0.4800  0.4147 -0.1820
  928MOL0     C22368   8.643  11.190   6.666  0.4332 -0.0547  0.9126
  928MOL0     C22369   8.569  11.179   6.779  0.1673 -0.5329 -0.8479
  928MOL0     C22370   8.426  11.182   6.762 -0.8229 -0.2596  1.1154
  928MOL0     C22371   8.371  11.196   6.631 -0.2161  0.1203 -0.6318
  928MOL0     O22372   8.237  11.185   6.640 -0.3812  0.0276 -0.7741
  928MOL0     C22373   8.163  11.190   6.516 -0.4967 -0.1999 -0.7956
  928MOL0     C22374   8.027  11.142   6.559 -0.1382  0.4283  0.7943
  928MOL0     C22375   7.937  11.244   6.626 -0.6035  0.1676 -0.1217
  928MOL0     C22376   7.788  11.205   6.615 -0.2214 -1.2802 -0.0353
  928MOL0     C22377   7.680  11.286   6.686  0.2859 -0.6123 -0.0888
  928MOL0     C22378   7.549  11.219   6.649 -0.6205 -0.3061  0.7527
  928MOL0     C22379   7.441  11.291   6.722  0.6276 -0.4642 -0.6548
  928MOL0     C22380   7.301  11.236   6.671 -0.2763 -0.1913  0.0105
  928MOL0     N22381   7.196  11.331   6.705  0.2177 -1.1576 -0.5328
  928MOL0     C22382   7.159  11.442   6.640  0.0234  0.3615 -0.3022
  928MOL0     C22383   7.079  11.499   6.726 -0.0238 -0.0043 -0.2151
  928MOL0     C22384   7.010  11.630   6.695 -1.3770  0.6226 -0.7816
  928MOL0     C22385   6.878  11.612   6.621 -0.2656  0.1294  0.0523
  928MOL0     C22386   6.785  11.527   6.698  0.1633 -0.2638 -0.5470
  928MOL0     C22387   6.645  11.514   6.644  0.6079  0.5011  0.0421
  928MOL0     O22388   6.553  11.457   6.742  0.1942 -0.5279 -1.2015
  928MOL0     C22389   6.411  11.467   6.744  0.5556  0.2316  0.1393
  928MOL0     C22390   6.348  11.408   6.845 -0.8830  0.1457 -0.1932
  928MOL0     C22391   6.215  11.395   6.859  0.4343 -0.4526  0.3429
  928MOL0     C22392   6.134  11.432   6.747 -0.0031  0.0566  0.4110
  928MOL0     C22393   5.993  11.408   6.749  0.5397  0.6008 -0.1393
  928MOL0     O22394   5.906  11.439   6.640 -0.1972  0.3451  0.8210
  928MOL0     C22395   5.776  11.386   6.644 -0.9919  0.9288 -0.6766
  928MOL0     C22396   5.680  11.467   6.603  0.1063  0.1458 -0.0088
  928MOL0     C22397   5.548  11.435   6.605 -0.4638  0.2208  0.4425
  928MOL0     C22398   5.505  11.312   6.658 -0.7888 -0.1375  0.1845
  928MOL0     O22399   5.377  11.274   6.667  0.5661  0.2049 -0.5145
  928MOL0     C22400   5.281  11.341   6.589  0.0961 -0.7696  0.2165
  928MOL0     C22401   5.143  11.281   6.601  0.4584  0.6659  0.1832
  928MOL0     C22402   5.041  11.319   6.492 -0.1899 -0.1681  0.2226
  928MOL0     C22403   4.893  11.313   6.541 -0.2223  0.5023 -0.0395
  928MOL0     C22404   4.808  11.287   6.422  0.3565  0.1325 -0.0064
  928MOL0     C22405   4.664  11.271   6.480  0.0031  0.8792 -0.4986
  928MOL0     C22406   4.560  11.245   6.372  0.4837  0.1215  0.2963
  928MOL0     C22407   4.424  11.264   6.431  0.3593 -0.4589  0.2683
  928MOL0    Cl22408   4.297  11.279   6.308 -0.1031 -0.3016 -0.4182
  928MOL0     C22409   5.605  11.231   6.711  0.7801 -0.2114  0.1412
  928MOL0     C22410   5.741  11.259   6.698 -0.0548  0.4763 -0.7326
  928MOL0     O22411   5.953  11.364   6.854 -0.1867 -0.0514 -0.4351
  928MOL0     C22412   6.196  11.504   6.640 -0.4520 -0.9439 -1.0906
  928MOL0     C22413   6.335  11.516   6.641 -0.7612 -1.1159  0.7662
  928MOL0     N22414   7.061  11.420   6.835 -0.1991  0.1477 -0.0067
  928MOL0     N22415   7.138  11.321   6.833  0.1112  0.2008  0.7299
  928MOL0     C22416   8.447  11.221   6.520 -0.4015  0.8155  0.2412
  928MOL0     C22417   8.586  11.214   6.541  0.4817 -0.5343  0.1173
  928MOL0     C22418   9.007  11.109   6.632  0.1758 -0.0428  0.6264
  928MOL0     C22419   9.034  11.038   6.749  0.8464 -0.0435 -0.2900
  928MOL0     C22420   9.155  10.976   6.774  0.7293  0.1772 -0.0522
  928MOL0     C22421   9.260  10.985   6.688 -0.3555 -0.2067  0.2108
  928MOL0     O22422   9.387  10.938   6.705  0.0241 -0.5325  0.6544
  928MOL0     C22423   9.410  10.849   6.815 -0.7451  0.1941 -0.4396
  928MOL0     C22424   9.554  10.812   6.829 -0.1056  0.3245  0.2024
  928MOL0     C22425   9.615  10.737   6.712  0.4659  0.0615  1.2240
  928MOL0     C22426   9.650  10.818   6.587 -0.3254  0.0598  0.9979
  928MOL0     C22427   9.765  10.906   6.622  0.0208  0.0322 -0.1445
  928MOL0     C22428   9.861  10.971   6.656 -0.0358  0.3864  0.1902
  928MOL0     C22429   9.234  11.049   6.566  0.6035  0.7507 -0.6207
  928MOL0     C22430   9.115  11.115   6.543  0.3461  0.1130  0.0576
  928MOL0     H22431   8.619  11.167   6.874 -1.5461 -1.3294 -0.0062
  928MOL0     H22432   8.365  11.175   6.852 -0.7983  0.5735  1.2003
  928MOL0     H22433   8.206  11.113   6.452  1.5384 -0.0844  0.3321
  928MOL0     H22434   8.151  11.290   6.472  1.3637  0.5083  0.1737
  928MOL0     H22435   8.044  11.065   6.635  2.0529 -0.8140 -0.8662
  928MOL0     H22436   7.963  11.105   6.479  0.0225  2.2178 -0.2145
  928MOL0     H22437   7.967  11.343   6.590  2.7323 -0.3967  0.7283
  928MOL0     H22438   7.977  11.239   6.728 -0.7682  3.1412  0.1909
  928MOL0     H22439   7.772  11.201   6.507 -0.6113 -1.9810  0.0402
  928MOL0     H22440   7.780  11.102   6.651  0.4527 -0.7689  1.6891
  928MOL0     H22441   7.685  11.389   6.651  2.5882 -1.0166 -1.1230
  928MOL0     H22442   7.695  11.277   6.794 -1.4586  3.4287  0.6850
  928MOL0     H22443   7.554  11.110   6.657  3.0436 -0.7570 -3.5165
  928MOL0     H22444   7.532  11.232   6.541  1.6184 -1.1306  0.2535
  928MOL0     H22445   7.447  11.268   6.829 -2.1271 -0.4548 -0.4224
  928MOL0     H22446   7.438  11.398   6.699 -1.6612 -0.3208  0.0547
  928MOL0     H22447   7.282  11.143   6.726  1.0128  0.3258  1.3687
  928MOL0     H22448   7.301  11.213   6.564 -0.9558  3.3451 -0.8838
  928MOL0     H22449   7.193  11.488   6.547 -0.2152  1.4931  0.1554
  928MOL0     H22450   7.087  11.684   6.639  1.4462  0.5727  2.6810
  928MOL0     H22451   6.996  11.687   6.787  0.4609  0.0404 -0.0891
  928MOL0     H22452   6.898  11.572   6.521  0.8058 -0.2728  0.4116
  928MOL0     H22453   6.844  11.713   6.599  1.7058  0.8364  0.0633
  928MOL0     H22454   6.833  11.429   6.694  0.8190  0.0649 -1.0634
  928MOL0     H22455   6.778  11.562   6.802  0.7304 -1.1654 -0.1957
  928MOL0     H22456   6.666  11.446   6.561 -1.8557 -3.2112  2.1715
  928MOL0     H22457   6.616  11.608   6.597  0.3936 -0.2788 -1.4541
  928MOL0     H22458   6.417  11.368   6.919 -1.1382 -2.2290 -1.1434
  928MOL0     H22459   6.173  11.351   6.949  1.6628  0.3460  1.3403
  928MOL0     H22460   5.696  11.563   6.554 -4.2072  2.6317  2.7523
  928MOL0     H22461   5.470  11.501   6.569 -0.8455  0.3952  1.5344
  928MOL0     H22462   5.303  11.335   6.481 -0.8274 -0.8574  0.0264
  928MOL0     H22463   5.260  11.446   6.613 -0.3154 -1.3781  2.7017
  928MOL0     H22464   5.095  11.319   6.692 -2.9413 -1.0617 -0.7138
  928MOL0     H22465   5.149  11.172   6.609 -0.4141  0.4947 -1.1656
  928MOL0     H22466   5.063  11.265   6.399 -0.3282 -0.1637  0.1872
  928MOL0     H22467   5.067  11.423   6.468  1.9443 -0.7984 -0.4199
  928MOL0     H22468   4.879  11.236   6.618  1.4422  2.6674  2.6259
  928MOL0     H22469   4.865  11.404   6.594  0.8471 -0.0488  1.5358
  928MOL0     H22470   4.840  11.199   6.366  0.3886  1.3223 -1.9539
  928MOL0     H22471   4.818  11.375   6.356 -0.7083 -0.2371 -0.6909
  928MOL0     H22472   4.635  11.368   6.521  0.0168  0.5059  0.4134
  928MOL0     H22473   4.660  11.197   6.561 -1.8632 -1.3667 -2.4955
  928MOL0     H22474   4.577  11.300   6.279 -0.6867 -1.8189 -1.1448
  928MOL0     H22475   4.566  11.143   6.333 -2.7851 -0.5219  1.1213
  928MOL0     H22476   4.417  11.361   6.482  2.2543  1.0740 -2.1526
  928MOL0     H22477   4.408  11.182   6.502  1.0098 -0.1872  0.7390
  928MOL0     H22478   5.573  11.137   6.754  2.7530 -1.2819 -0.5769
  928MOL0     H22479   5.816  11.184   6.719 -0.0922  0.3169 -1.1554
  928MOL0     H22480   6.134  11.528   6.553 -0.3926 -1.4285 -1.2666
  928MOL0     H22481   6.384  11.573   6.562 -3.1058  0.5000  0.3750
  928MOL0     H22482   8.398  11.237   6.424 -0.7725  0.8609  0.4400
  928MOL0     H22483   8.643  11.208   6.449 -0.6481  1.1184 -0.7629
  928MOL0     H22484   8.953  11.028   6.821  1.1649  1.3294  0.3006
  928MOL0     H22485   9.166  10.913   6.862 -2.8741 -1.9524 -0.9005
  928MOL0     H22486   9.344  10.763   6.801 -1.6338  0.9956 -1.2947
  928MOL0     H22487   9.385  10.888   6.914 -0.5703  0.5866 -0.5505
  928MOL0     H22488   9.614  10.902   6.845  1.5361 -0.7605  0.4636
  928MOL0     H22489   9.563  10.752   6.921 -0.4376  0.5916  0.4091
  928MOL0     H22490   9.550  10.653   6.687 -2.5152  2.3422  0.6155
  928MOL0     H22491   9.708  10.695   6.750 -0.3301 -1.4417  1.5552
  928MOL0     H22492   9.690  10.749   6.512  0.4766  2.4947 -0.9267
  928MOL0     H22493   9.564  10.867   6.542 -0.3131 -2.1302 -1.6521
  928MOL0     H22494   9.930  11.040   6.700  1.0360  0.1438 -1.0717
  928MOL0     H22495   9.306  11.036   6.486  0.3264  0.8211 -0.8798
  928MOL0     H22496   9.099  11.155   6.443 -2.6528 -1.4579 -0.1824
  929MOL0     O22497   9.892  11.169  10.884  0.2711  0.2466  0.6582
  929MOL0     C22498   9.905  11.179  11.004 -0.5719  0.6234 -1.2640
  929MOL0     O22499   9.799  11.195  11.094  0.1810 -0.7094  0.2387
  929MOL0     C22500   9.678  11.165  11.047  0.6569 -0.3025 -0.6568
  929MOL0     C22501   9.641  11.034  11.005 -0.7496 -1.0333  0.4165
  929MOL0     C22502   9.510  11.010  10.977  0.0020  0.2473  0.0489
  929MOL0     C22503   9.403  11.100  10.995 -0.2119  0.3033 -0.1423
  929MOL0     O22504   9.269  11.067  10.969  0.4147 -0.6904 -0.0595
  929MOL0     C22505   9.173  11.150  11.030 -0.4402 -0.6633 -0.3296
  929MOL0     C22506   9.038  11.097  11.053  0.3994  0.5108 -0.4323
  929MOL0     C22507   8.969  11.017  10.937 -0.0033 -0.0020  0.0533
  929MOL0     C22508   8.884  10.899  10.994 -0.4404  0.2581  0.1829
  929MOL0     C22509   8.774  10.839  10.908 -0.0809 -0.2045 -0.2201
  929MOL0     C22510   8.659  10.940  10.870 -0.4609  0.4317  0.1613
  929MOL0     C22511   8.548  10.852  10.804 -0.5752 -0.0603  0.1560
  929MOL0     C22512   8.450  10.955  10.743 -0.1866  0.2483  0.4086
  929MOL0     N22513   8.309  10.919  10.760 -0.1130 -0.1642  0.5061
  929MOL0     C22514   8.220  10.989  10.841  0.1865 -0.0204 -0.2375
  929MOL0     C22515   8.110  10.908  10.832 -0.2729  0.3588  0.7108
  929MOL0     C22516   7.984  10.960  10.897 -0.2438  0.5322 -0.4310
  929MOL0     C22517   7.866  10.955  10.800  0.7629 -0.2540  0.7093
  929MOL0     C22518   7.738  11.007  10.874  0.1821 -0.6098  0.0272
  929MOL0     C22519   7.599  11.003  10.810  0.7912 -0.2857 -0.1571
  929MOL0     O22520   7.555  10.876  10.755 -0.0218  0.7222  0.8915
  929MOL0     C22521   7.432  10.874  10.686 -0.1760 -0.1428  0.1151
  929MOL0     C22522   7.337  10.968  10.681  0.8086 -0.5743  0.2065
  929MOL0     C22523   7.221  10.950  10.617 -0.1130  1.3061  0.4726
  929MOL0     C22524   7.188  10.822  10.555 -0.3107 -0.2248  0.2355
  929MOL0     C22525   7.057  10.791  10.497  0.0570 -0.2957 -0.4130
  929MOL0     O22526   6.974  10.894  10.467  0.0621  0.0715 -0.4857
  929MOL0     C22527   6.851  10.872  10.416  0.0075 -0.6287 -0.0959
  929MOL0     C22528   6.747  10.795  10.470 -0.1452  1.2452  0.2150
  929MOL0     C22529   6.631  10.770  10.381 -0.5614 -1.5846 -0.0761
  929MOL0     C22530   6.616  10.832  10.261  0.6045  0.1033 -0.3955
  929MOL0     O22531   6.502  10.828  10.187 -0.9453  0.0140  0.5458
  929MOL0     C22532   6.380  10.767  10.237  0.5474 -0.1249  0.5899
  929MOL0     C22533   6.270  10.811  10.139  0.8783 -0.0836 -0.0386
  929MOL0     C22534   6.140  10.747  10.153  0.6333  0.1658 -0.5597
  929MOL0     C22535   6.041  10.824  10.062  0.3533 -0.3582  0.2878
  929MOL0     C22536   5.896  10.795  10.081  0.5654 -0.6741 -0.7843
  929MOL0     C22537   5.803  10.864   9.974  0.1439  0.0824  0.5275
  929MOL0     C22538   5.654  10.862  10.002  0.4442 -0.8257 -0.1565
  929MOL0     C22539   5.583  10.953   9.904 -0.4878  0.2140  0.7957
  929MOL0    Cl22540   5.622  10.924   9.726  0.1292 -0.2239 -0.2751
  929MOL0     C22541   6.714  10.913  10.221 -0.2700 -0.0711  0.0282
  929MOL0     C22542   6.836  10.934  10.291 -0.0293 -1.2909 -0.8164
  929MOL0     O22543   7.021  10.675  10.513 -0.2241 -0.1502  0.2574
  929MOL0     C22544   7.292  10.725  10.552 -0.0571 -0.0160 -0.2793
  929MOL0     C22545   7.410  10.754  10.626  1.0357 -1.1520  0.1451
  929MOL0     N22546   8.136  10.803  10.748  0.7213 -0.2770  0.2743
  929MOL0     N22547   8.257  10.812  10.707  0.8651  0.0515 -0.5720
  929MOL0     C22548   9.441  11.232  11.024  0.0144 -0.0798 -0.7036
  929MOL0     C22549   9.574  11.262  11.062  0.5265 -0.3190 -0.7168
  929MOL0     C22550  10.042  11.209  11.053  0.6118 -0.0594 -0.3664
  929MOL0     C22551  10.157  11.186  10.977  0.0262 -0.7748  0.1431
  929MOL0     C22552  10.287  11.207  11.029 -0.1710 -0.7139 -0.2543
  929MOL0     C22553  10.303  11.239  11.162  0.6378  0.4204 -0.8032
  929MOL0     O22554  10.420  11.263  11.225 -0.6981 -0.0328  0.1255
  929MOL0     C22555  10.558  11.220  11.182  0.3647  0.0346 -0.0105
  929MOL0     C22556  10.560  11.065  11.186  0.6598 -0.0399 -0.2874
  929MOL0     C22557  10.698  11.013  11.157  0.5670  0.0073 -0.2210
  929MOL0     C22558  10.749  11.041  11.015 -0.1404 -0.4116  0.4904
  929MOL0     C22559  10.878  10.978  10.987 -0.0921  0.8094 -0.0195
  929MOL0     C22560  10.975  10.913  10.964 -0.0224 -0.4789  0.2403
  929MOL0     C22561  10.191  11.266  11.244  0.0200  0.1202 -0.2738
  929MOL0     C22562  10.066  11.243  11.191  0.2866  0.2682  0.0775
  929MOL0     H22563   9.718  10.957  11.007 -1.5402 -1.8912 -0.5984
  929MOL0     H22564   9.479  10.909  10.953 -0.2944  0.3633 -0.0484
  929MOL0     H22565   9.153  11.239  10.970  0.7747 -1.4286 -1.9383
  929MOL0     H22566   9.210  11.176  11.130 -3.3829  2.4172  0.1238
  929MOL0     H22567   8.971  11.174  11.094  2.3460  1.2836  1.4985
  929MOL0     H22568   9.062  11.026  11.133  1.4879  0.6996 -0.5856
  929MOL0     H22569   9.044  10.981  10.866 -0.9081 -4.5565  1.1385
  929MOL0     H22570   8.900  11.085  10.886 -1.0898 -0.3509  1.0161
  929MOL0     H22571   8.952  10.825  11.037  1.4708  0.1496 -2.7270
  929MOL0     H22572   8.826  10.944  11.075  1.0228  0.2521  1.2549
  929MOL0     H22573   8.721  10.760  10.963 -1.6417 -0.6685 -2.2705
  929MOL0     H22574   8.828  10.793  10.825 -1.8482 -3.0955  0.0996
  929MOL0     H22575   8.699  11.021  10.809  0.6694 -0.6249 -0.5450
  929MOL0     H22576   8.620  10.991  10.959  1.6241  2.3451  0.0635
  929MOL0     H22577   8.588  10.793  10.721 -0.7030 -2.0027  1.4149
  929MOL0     H22578   8.513  10.776  10.874  0.5769 -0.8408 -0.1001
  929MOL0     H22579   8.469  10.962  10.636  2.0543 -2.6006  0.5037
  929MOL0     H22580   8.451  11.057  10.782  0.6292  0.6450 -0.6266
  929MOL0     H22581   8.232  11.083  10.893 -1.1356 -0.4425  0.8813
  929MOL0     H22582   8.007  11.063  10.925 -0.0666 -0.1023  1.9399
  929MOL0     H22583   7.956  10.901  10.985 -2.8844  0.7802 -1.0261
  929MOL0     H22584   7.847  10.856  10.758  0.8512  0.6085 -1.4906
  929MOL0     H22585   7.884  11.028  10.721  0.8697  1.4636  2.2508
  929MOL0     H22586   7.717  10.949  10.965 -1.9767  2.3899  1.6092
  929MOL0     H22587   7.755  11.110  10.906  0.2813 -0.7459  0.4212
  929MOL0     H22588   7.615  11.074  10.729  0.0013 -0.3239 -0.3508
  929MOL0     H22589   7.528  11.042  10.885  4.0062  3.1112  1.4357
  929MOL0     H22590   7.356  11.068  10.720 -1.3211  0.1020 -0.3198
  929MOL0     H22591   7.148  11.030  10.617 -2.2970 -0.5463 -1.6077
  929MOL0     H22592   6.742  10.746  10.566 -0.6285  2.0704  0.6236
  929MOL0     H22593   6.564  10.688  10.406  0.1512 -2.1123  0.1429
  929MOL0     H22594   6.362  10.812  10.334 -0.2524 -0.4505  0.5993
  929MOL0     H22595   6.383  10.658  10.250 -5.3364 -0.5553  0.6404
  929MOL0     H22596   6.299  10.781  10.038 -1.7996 -1.0363 -0.6355
  929MOL0     H22597   6.266  10.920  10.142  1.0266 -0.0847  0.2794
  929MOL0     H22598   6.117  10.757  10.260  3.0410  0.0454  0.0318
  929MOL0     H22599   6.149  10.639  10.134 -1.1741 -0.5995  2.2578
  929MOL0     H22600   6.045  10.931  10.082 -2.7049 -0.2579  0.8846
  929MOL0     H22601   6.082  10.812   9.961 -0.1009  1.2390 -0.1170
  929MOL0     H22602   5.870  10.845  10.175 -1.7654 -0.7825 -1.3093
  929MOL0     H22603   5.878  10.687  10.081 -2.1895 -0.2996  0.2857
  929MOL0     H22604   5.825  10.810   9.881 -2.0188  0.2311 -0.1115
  929MOL0     H22605   5.828  10.969   9.955 -3.5891  0.5936 -2.8810
  929MOL0     H22606   5.611  10.763   9.982  1.8980 -1.2964 -1.0571
  929MOL0     H22607   5.629  10.889  10.105 -2.4190 -2.4574 -0.3026
  929MOL0     H22608   5.620  11.055   9.921 -1.4971  0.6643  0.3760
  929MOL0     H22609   5.475  10.957   9.921 -0.2536 -2.0234  3.3728
  929MOL0     H22610   6.694  10.968  10.129 -1.8843 -1.8513 -0.7679
  929MOL0     H22611   6.903  11.008  10.248 -2.4624  1.7875  0.3319
  929MOL0     H22612   7.263  10.631  10.506  0.2493  0.8862 -2.4462
  929MOL0     H22613   7.481  10.673  10.644 -1.3152 -3.1229  1.2282
  929MOL0     H22614   9.371  11.314  11.039  1.1253  0.4557  2.0386
  929MOL0     H22615   9.599  11.366  11.077 -0.0547  0.0296 -1.9525
  929MOL0     H22616  10.139  11.154  10.875 -2.4955 -1.9447  0.8759
  929MOL0     H22617  10.378  11.183  10.975  0.3632  0.1017  0.2676
  929MOL0     H22618  10.624  11.265  11.257 -0.4390  2.9727 -0.9325
  929MOL0     H22619  10.588  11.252  11.082  0.4498 -0.1175 -0.0337
  929MOL0     H22620  10.522  11.032  11.283  1.2278  0.9346  0.2796
  929MOL0     H22621  10.491  11.020  11.113 -2.0150  0.5726  1.6931
  929MOL0     H22622  10.704  10.905  11.175  1.3285 -0.0806 -0.9652
  929MOL0     H22623  10.767  11.054  11.231 -0.8231 -1.0704  1.7818
  929MOL0     H22624  10.677  11.005  10.941 -0.6176  0.8698  0.3012
  929MOL0     H22625  10.768  11.147  10.996  1.8762 -0.9851 -1.0960
  929MOL0     H22626  11.053  10.855  10.920  1.0582 -1.1324  2.8452
  929MOL0     H22627  10.202  11.291  11.349 -0.2631  0.4638 -0.3250
  929MOL0     H22628   9.987  11.280  11.256 -0.9501 -2.7497  0.4173
  930MOL0     O22629   1.086   2.688   2.672 -0.5915 -0.3143 -0.2098
  930MOL0     C22630   1.011   2.778   2.642 -0.8055 -0.1155  0.8138
  930MOL0     O22631   1.052   2.902   2.620  0.2597 -0.8467  0.1844
  930MOL0     C22632   1.178   2.939   2.645  1.0417 -0.5923 -0.2734
  930MOL0     C22633   1.195   3.059   2.712  0.0048  0.5117  0.3507
  930MOL0     C22634   1.330   3.100   2.738 -0.0862 -1.1591 -1.4978
  930MOL0     C22635   1.443   3.024   2.709  0.1526 -0.2581  0.5146
  930MOL0     O22636   1.576   3.070   2.735  0.9882  0.2071 -0.0808
  930MOL0     C22637   1.688   2.983   2.732 -0.0434  0.1454 -1.1194
  930MOL0     C22638   1.818   3.035   2.799 -0.7101  0.3739  0.2325
  930MOL0     C22639   1.881   3.149   2.722 -0.2911 -0.0157 -0.2327
  930MOL0     C22640   2.026   3.166   2.745 -0.2146 -0.0111 -0.1156
  930MOL0     C22641   2.086   3.300   2.699  0.9808  0.4766 -0.6028
  930MOL0     C22642   2.238   3.300   2.699 -0.2342  0.1295  0.5967
  930MOL0     C22643   2.297   3.297   2.842  0.2497  0.1007  0.5343
  930MOL0     C22644   2.453   3.300   2.837  0.2319 -0.3250 -0.4982
  930MOL0     N22645   2.499   3.429   2.788 -0.2581  0.7346 -0.5067
  930MOL0     C22646   2.509   3.549   2.855 -0.4615  0.0289  0.0030
  930MOL0     C22647   2.517   3.641   2.754  0.3529  0.2002  0.1101
  930MOL0     C22648   2.529   3.785   2.769  0.3504  0.3067 -1.6984
  930MOL0     C22649   2.404   3.871   2.771  1.1834 -0.1138 -0.3741
  930MOL0     C22650   2.287   3.808   2.853  0.6015 -0.2414 -0.7684
  930MOL0     C22651   2.224   3.700   2.770  0.7157 -0.0802 -0.2812
  930MOL0     O22652   2.080   3.707   2.763 -0.6464 -0.8704 -0.5811
  930MOL0     C22653   1.997   3.697   2.877  0.7153  0.3186  0.2933
  930MOL0     C22654   1.868   3.733   2.875  0.5756  0.0829 -0.2859
  930MOL0     C22655   1.790   3.742   2.987 -0.9428  0.0924 -0.2973
  930MOL0     C22656   1.837   3.687   3.110 -0.6951 -0.8288 -0.2999
  930MOL0     C22657   1.760   3.692   3.234  0.1669 -0.6328  0.2962
  930MOL0     O22658   1.827   3.653   3.346  0.5486 -0.9101  0.2720
  930MOL0     C22659   1.769   3.659   3.475 -0.2439 -0.5029  0.8742
  930MOL0     C22660   1.831   3.728   3.579  0.0629  0.0655 -1.1327
  930MOL0     C22661   1.771   3.730   3.710  0.2872  0.5938 -0.0474
  930MOL0     C22662   1.651   3.673   3.739 -0.5288  0.1915  0.2785
  930MOL0     O22663   1.604   3.671   3.870  0.4371  0.7302  0.1052
  930MOL0     C22664   1.475   3.602   3.900  0.6945  0.0314  0.1231
  930MOL0     C22665   1.436   3.631   4.048  0.5511 -0.2442  0.8917
  930MOL0     C22666   1.305   3.557   4.076 -0.4467 -0.0076 -0.4834
  930MOL0     C22667   1.262   3.600   4.217 -0.5449 -0.3454 -0.1865
  930MOL0     C22668   1.124   3.541   4.249 -1.0436  0.0954  0.7620
  930MOL0     C22669   1.068   3.579   4.388 -0.7324 -0.6841  0.0466
  930MOL0     C22670   0.923   3.536   4.398 -0.1318 -0.5168  0.2475
  930MOL0     C22671   0.827   3.647   4.369 -0.0819 -0.0052 -0.3402
  930MOL0    Cl22672   0.662   3.577   4.379 -0.1074  0.0412  0.4256
  930MOL0     C22673   1.585   3.614   3.635 -0.3134  0.9280 -0.0405
  930MOL0     C22674   1.642   3.595   3.509 -0.1343 -0.2485  0.0355
  930MOL0     O22675   1.642   3.735   3.233 -0.0418 -0.5483  0.1507
  930MOL0     C22676   1.967   3.629   3.111 -0.4706 -0.3828  0.2274
  930MOL0     C22677   2.048   3.643   2.995  0.1747 -0.1327  0.1225
  930MOL0     N22678   2.519   3.570   2.631 -0.1498  1.4697  0.4414
  930MOL0     N22679   2.512   3.445   2.652  0.0802 -0.3146 -0.1874
  930MOL0     C22680   1.418   2.908   2.633 -0.3060  0.0094  0.0608
  930MOL0     C22681   1.288   2.869   2.600 -0.1372 -0.0357  0.1121
  930MOL0     C22682   0.862   2.756   2.648 -0.9886  0.2440  0.0354
  930MOL0     C22683   0.766   2.856   2.659 -0.4224 -1.0188 -0.0703
  930MOL0     C22684   0.630   2.830   2.662  0.5049  0.1502  0.1847
  930MOL0     C22685   0.577   2.696   2.667 -0.1617  0.3603 -0.3607
  930MOL0     O22686   0.439   2.679   2.685  0.4597 -0.2098  0.0911
  930MOL0     C22687   0.390   2.540   2.689 -0.2692  0.1271 -0.0339
  930MOL0     C22688   0.241   2.536   2.708  0.8582 -0.1185  0.2243
  930MOL0     C22689   0.163   2.580   2.589  0.5320 -0.2186  0.7409
  930MOL0     C22690   0.008   2.586   2.591  0.3126  0.2531  0.4189
  930MOL0     C22691  -0.044   2.639   2.725  0.2642 -0.2848  0.9899
  930MOL0     C22692  -0.074   2.691   2.835 -0.1671 -0.1577  0.0986
  930MOL0     C22693   0.671   2.592   2.661  0.3436 -0.3996 -0.9941
  930MOL0     C22694   0.811   2.620   2.657  0.3040 -0.1589  0.0175
  930MOL0     H22695   1.113   3.122   2.745  0.9616  1.4908  0.9356
  930MOL0     H22696   1.341   3.195   2.791 -2.3723 -2.5922  1.8851
  930MOL0     H22697   1.715   2.970   2.627 -4.3746  0.2207 -2.4320
  930MOL0     H22698   1.664   2.889   2.782 -1.6639  0.8450 -0.4956
  930MOL0     H22699   1.882   2.947   2.788 -2.4606 -0.6069 -3.9681
  930MOL0     H22700   1.781   3.065   2.898 -2.8845 -0.1424 -0.3626
  930MOL0     H22701   1.826   3.240   2.749  1.1504  0.4141  1.5172
  930MOL0     H22702   1.871   3.137   2.614  0.9555  1.0097 -0.4986
  930MOL0     H22703   2.042   3.156   2.853 -1.5666  2.8429  0.4537
  930MOL0     H22704   2.082   3.090   2.690  0.8180  0.1979  0.6034
  930MOL0     H22705   2.041   3.382   2.757  0.0009 -1.2070  1.1668
  930MOL0     H22706   2.051   3.307   2.596 -2.6624 -0.2822  0.4144
  930MOL0     H22707   2.274   3.394   2.656 -0.2014  0.2480  0.8828
  930MOL0     H22708   2.275   3.220   2.634  0.1621 -0.3630  1.4093
  930MOL0     H22709   2.264   3.379   2.906  3.6048  2.9263 -1.0103
  930MOL0     H22710   2.271   3.205   2.894 -1.4715 -0.2497 -0.8263
  930MOL0     H22711   2.493   3.217   2.778 -0.1367  0.1904 -1.4768
  930MOL0     H22712   2.491   3.285   2.939 -0.1068 -0.0435 -0.3281
  930MOL0     H22713   2.517   3.567   2.962 -1.4682 -1.2752  0.3100
  930MOL0     H22714   2.601   3.826   2.697  1.8114  1.2110  0.1881
  930MOL0     H22715   2.593   3.798   2.857 -0.3842 -0.1382 -1.0875
  930MOL0     H22716   2.371   3.899   2.671  0.6824  1.4403  0.1987
  930MOL0     H22717   2.438   3.965   2.815 -0.6717  0.1084  0.7210
  930MOL0     H22718   2.325   3.775   2.950  1.5582  0.8843 -0.7267
  930MOL0     H22719   2.211   3.884   2.870  0.9405  0.6278 -2.7941
  930MOL0     H22720   2.243   3.601   2.811 -0.0040  0.3176  1.0732
  930MOL0     H22721   2.261   3.694   2.667  0.1017 -1.2384 -0.4502
  930MOL0     H22722   1.840   3.768   2.776 -0.3469  1.6717  0.4935
  930MOL0     H22723   1.688   3.775   2.975 -0.9903  0.4892  1.0486
  930MOL0     H22724   1.923   3.782   3.557 -0.0040  0.4375 -0.5232
  930MOL0     H22725   1.830   3.764   3.794  0.2180  0.1743  0.1742
  930MOL0     H22726   1.472   3.497   3.872 -2.5318 -0.4433  1.7717
  930MOL0     H22727   1.395   3.654   3.845  1.3110 -0.4407 -1.2756
  930MOL0     H22728   1.423   3.739   4.060 -1.1990 -0.2058 -0.8470
  930MOL0     H22729   1.508   3.586   4.116  2.7536 -0.4996 -1.4456
  930MOL0     H22730   1.316   3.449   4.082 -0.2271  0.0364  0.0136
  930MOL0     H22731   1.234   3.591   4.000  0.3016  2.3651 -0.2021
  930MOL0     H22732   1.331   3.562   4.293 -0.0837 -0.9138 -0.8686
  930MOL0     H22733   1.258   3.708   4.231 -0.6794 -0.1529 -1.5097
  930MOL0     H22734   1.118   3.432   4.239  0.2668  0.1102 -0.5402
  930MOL0     H22735   1.062   3.576   4.166  0.1117  0.4443  0.0039
  930MOL0     H22736   1.085   3.685   4.405  0.7524 -0.7190 -1.0006
  930MOL0     H22737   1.128   3.522   4.461  0.9996  1.4865  0.4173
  930MOL0     H22738   0.899   3.444   4.346 -0.8658 -1.1317  1.6245
  930MOL0     H22739   0.914   3.500   4.501  1.4707 -4.5232 -0.8178
  930MOL0     H22740   0.855   3.692   4.273  2.3227  1.1710  0.8438
  930MOL0     H22741   0.837   3.724   4.446  1.9278 -0.4514 -0.0961
  930MOL0     H22742   1.478   3.595   3.640 -0.3065  0.8879 -0.0537
  930MOL0     H22743   1.598   3.539   3.427  2.1203 -0.6699 -0.9654
  930MOL0     H22744   2.007   3.579   3.198  0.4503 -0.3907 -0.1955
  930MOL0     H22745   2.153   3.616   3.005  0.3131 -0.0806 -1.0478
  930MOL0     H22746   1.500   2.859   2.582  2.3096  2.1626  1.9049
  930MOL0     H22747   1.278   2.786   2.531  3.2881 -0.0821 -0.5255
  930MOL0     H22748   0.808   2.956   2.650 -0.0117 -1.1310  0.5506
  930MOL0     H22749   0.567   2.917   2.679 -1.2528 -0.9032 -0.5906
  930MOL0     H22750   0.440   2.490   2.772  1.8369  1.6504 -0.3111
  930MOL0     H22751   0.405   2.494   2.591 -3.5344 -0.1090 -0.5368
  930MOL0     H22752   0.217   2.431   2.726 -1.4462  0.8450  4.0523
  930MOL0     H22753   0.220   2.595   2.798  1.0102 -0.1806  0.3015
  930MOL0     H22754   0.182   2.513   2.505  0.0977  2.2534 -1.4554
  930MOL0     H22755   0.199   2.681   2.568  2.4542 -1.2066 -1.0921
  930MOL0     H22756  -0.038   2.655   2.520  0.0021 -1.5748 -1.2073
  930MOL0     H22757  -0.035   2.487   2.572  0.0759  0.6521 -1.2433
  930MOL0     H22758  -0.111   2.723   2.930 -2.1195  2.2076 -1.3445
  930MOL0     H22759   0.640   2.488   2.662 -3.4875  0.5854  1.2611
  930MOL0     H22760   0.885   2.541   2.645  1.3210  0.7952 -0.1297
  931MOL0     O22761   3.343  10.298   5.343  0.6999  0.2394 -0.8347
  931MOL0     C22762   3.349  10.210   5.260  0.7678  0.8393 -0.6813
  931MOL0     O22763   3.318  10.084   5.284  1.0408  0.3686 -0.1565
  931MOL0     C22764   3.212  10.049   5.374 -0.4664  0.1002  1.1907
  931MOL0     C22765   3.087  10.114   5.384 -0.1560 -0.3562  0.3573
  931MOL0     C22766   2.986  10.075   5.468 -0.8700  0.8688 -0.0138
  931MOL0     C22767   3.002   9.959   5.541  0.3844  0.2059 -0.0164
  931MOL0     O22768   2.899   9.934   5.634 -0.0799 -0.5497  0.5034
  931MOL0     C22769   2.913   9.825   5.726 -0.8677 -0.4016 -0.2595
  931MOL0     C22770   2.774   9.788   5.773  0.2863 -0.0416 -0.6671
  931MOL0     C22771   2.768   9.655   5.852 -0.1410  0.4134  0.5747
  931MOL0     C22772   2.774   9.541   5.748  0.3379  0.5028 -0.9283
  931MOL0     C22773   2.706   9.418   5.792 -0.1017  1.0915 -0.2824
  931MOL0     C22774   2.559   9.424   5.798 -0.1705 -0.0566  0.9920
  931MOL0     C22775   2.486   9.336   5.900  0.2248 -0.5111  0.0890
  931MOL0     C22776   2.550   9.201   5.909  0.4526  0.3303 -0.0811
  931MOL0     N22777   2.468   9.087   5.966  0.2396  0.0509 -0.3743
  931MOL0     C22778   2.415   9.084   6.099  0.2836 -0.6430  0.7181
  931MOL0     C22779   2.347   8.967   6.100 -0.0621  0.0985 -0.2145
  931MOL0     C22780   2.292   8.900   6.218 -0.4063 -0.0273  0.1809
  931MOL0     C22781   2.160   8.850   6.177 -0.0693 -0.0592 -0.8133
  931MOL0     C22782   2.098   8.764   6.293  0.4188  0.1692  0.3579
  931MOL0     C22783   1.971   8.686   6.247  0.5822  0.2719 -0.2877
  931MOL0     O22784   1.905   8.641   6.364 -0.2846 -1.0325 -0.0946
  931MOL0     C22785   1.780   8.589   6.343 -0.1507  0.9840 -0.2198
  931MOL0     C22786   1.729   8.560   6.216 -0.7702  0.6241 -0.0238
  931MOL0     C22787   1.606   8.485   6.210 -0.2362 -0.9972  0.7069
  931MOL0     C22788   1.523   8.476   6.318 -0.2215  0.2370 -0.0114
  931MOL0     C22789   1.381   8.441   6.306  0.1117 -0.3107 -0.0099
  931MOL0     O22790   1.302   8.439   6.423  0.3830 -0.2310 -0.3117
  931MOL0     C22791   1.166   8.403   6.421  0.6470 -0.4448 -0.1254
  931MOL0     C22792   1.120   8.323   6.525  0.2352  0.5077 -0.3561
  931MOL0     C22793   0.982   8.287   6.529 -1.1448  0.2512  0.8699
  931MOL0     C22794   0.889   8.317   6.428 -0.2153  0.9654 -0.5371
  931MOL0     O22795   0.755   8.289   6.435 -0.2708  0.3200 -0.1381
  931MOL0     C22796   0.708   8.194   6.532 -0.6548  0.0286  0.5981
  931MOL0     C22797   0.564   8.166   6.491  0.2104 -0.5282  0.1725
  931MOL0     C22798   0.476   8.291   6.472  0.5144  0.5591  0.6577
  931MOL0     C22799   0.349   8.239   6.397 -0.3990  0.7519 -0.3088
  931MOL0     C22800   0.245   8.341   6.346  0.1877  0.8518 -0.0589
  931MOL0     C22801   0.115   8.276   6.295  0.1053  0.4123  0.4062
  931MOL0     C22802  -0.007   8.372   6.283 -0.3171 -0.5513  0.0740
  931MOL0     C22803  -0.141   8.314   6.233  0.2573  0.2149 -0.5036
  931MOL0    Cl22804  -0.193   8.178   6.327  0.3097  0.2673  0.0419
  931MOL0     C22805   0.942   8.395   6.326  0.0365 -0.1178  0.6130
  931MOL0     C22806   1.076   8.437   6.317  0.1789  0.0631  0.5601
  931MOL0     O22807   1.343   8.409   6.192 -0.1372  0.0628  0.3549
  931MOL0     C22808   1.578   8.504   6.446 -0.3012 -0.3685 -0.0011
  931MOL0     C22809   1.699   8.563   6.456  0.6528  0.0205  0.1367
  931MOL0     N22810   2.358   8.904   5.976 -0.9932 -0.2839 -0.1303
  931MOL0     N22811   2.429   8.981   5.895  0.1963 -0.0013  0.1127
  931MOL0     C22812   3.117   9.882   5.513  0.1263  0.3720 -0.3531
  931MOL0     C22813   3.222   9.927   5.441 -0.5755  0.0998  0.3350
  931MOL0     C22814   3.420  10.233   5.135  0.6203 -0.3537 -0.1482
  931MOL0     C22815   3.503  10.346   5.114  0.0503 -0.4914  0.3392
  931MOL0     C22816   3.559  10.365   4.987  0.2839 -0.3800  0.1412
  931MOL0     C22817   3.537  10.273   4.881 -0.5940 -0.4205 -0.8585
  931MOL0     O22818   3.589  10.272   4.753  0.2440  0.1214 -0.2333
  931MOL0     C22819   3.692  10.368   4.718  0.2414  0.2642  0.2630
  931MOL0     C22820   3.758  10.358   4.579 -0.5191  0.2705  0.2994
  931MOL0     C22821   3.830  10.225   4.553  0.1803 -0.4871 -1.3620
  931MOL0     C22822   3.902  10.233   4.424 -0.0388  0.0610  0.1448
  931MOL0     C22823   3.952  10.099   4.390  0.1082 -0.2349 -0.0648
  931MOL0     C22824   4.000   9.996   4.350  0.0315  0.2454  0.3108
  931MOL0     C22825   3.453  10.168   4.908  0.3853 -0.0573  0.2848
  931MOL0     C22826   3.392  10.145   5.038 -0.5642  0.5344 -0.6441
  931MOL0     H22827   3.072  10.194   5.312 -0.2644 -0.9597 -0.3113
  931MOL0     H22828   2.893  10.131   5.474 -1.1990  0.2826  0.4772
  931MOL0     H22829   2.992   9.845   5.799  2.1855  0.9526 -3.6160
  931MOL0     H22830   2.944   9.736   5.670  2.3500 -1.8793  3.3930
  931MOL0     H22831   2.696   9.786   5.697 -1.5872  2.4345  1.0150
  931MOL0     H22832   2.724   9.869   5.828  0.2407 -1.1505  1.0004
  931MOL0     H22833   2.682   9.648   5.920 -3.6574  0.0969 -3.4911
  931MOL0     H22834   2.866   9.645   5.900  0.5106  1.6483 -0.4418
  931MOL0     H22835   2.739   9.571   5.649 -0.6471 -0.2308 -0.8223
  931MOL0     H22836   2.879   9.517   5.729  0.2104  0.3016 -1.3890
  931MOL0     H22837   2.740   9.407   5.895 -2.1725 -0.4607  0.3023
  931MOL0     H22838   2.730   9.328   5.735 -1.7720 -1.0116  2.0911
  931MOL0     H22839   2.534   9.394   5.696  0.1894  0.8477  0.6235
  931MOL0     H22840   2.527   9.527   5.816  0.9006  0.6478 -0.8645
  931MOL0     H22841   2.479   9.387   5.997  0.2787  0.5141 -0.4375
  931MOL0     H22842   2.384   9.333   5.859  0.3085 -0.7440 -0.1022
  931MOL0     H22843   2.651   9.201   5.953  0.4172  0.1564  0.0036
  931MOL0     H22844   2.559   9.168   5.805  0.4381 -0.4514  0.1599
  931MOL0     H22845   2.428   9.148   6.186 -3.8648  1.1964  0.2254
  931MOL0     H22846   2.281   8.980   6.291 -3.2241 -0.1545  0.0192
  931MOL0     H22847   2.356   8.825   6.263 -0.5317 -0.6226 -0.6026
  931MOL0     H22848   2.160   8.786   6.089 -4.1849 -1.5295  0.0661
  931MOL0     H22849   2.086   8.926   6.149 -1.1982 -0.6809  0.3975
  931MOL0     H22850   2.170   8.686   6.320  0.0661  0.2725  1.6603
  931MOL0     H22851   2.085   8.824   6.384 -0.1477  0.1279  0.3076
  931MOL0     H22852   1.995   8.606   6.177  0.4385 -1.2755  1.3798
  931MOL0     H22853   1.902   8.756   6.200  0.9918  0.0970 -1.1753
  931MOL0     H22854   1.782   8.575   6.123  2.7057 -0.6466  1.5962
  931MOL0     H22855   1.585   8.454   6.108  3.8043  3.3669 -1.8745
  931MOL0     H22856   1.179   8.299   6.613 -0.5508  3.5753  1.1356
  931MOL0     H22857   0.955   8.234   6.619  0.5970 -1.5397  0.4083
  931MOL0     H22858   0.700   8.241   6.631  2.0350 -0.5923  1.2054
  931MOL0     H22859   0.772   8.106   6.540  0.4320  0.3136 -3.1133
  931MOL0     H22860   0.515   8.110   6.571 -1.7558  2.3579  1.1727
  931MOL0     H22861   0.569   8.105   6.400  2.8399 -0.3422  0.1154
  931MOL0     H22862   0.518   8.365   6.403 -2.1329  0.0119 -1.7071
  931MOL0     H22863   0.455   8.332   6.571 -1.1086 -2.0614  1.4800
  931MOL0     H22864   0.372   8.167   6.318  2.7372 -0.9806  1.9487
  931MOL0     H22865   0.292   8.178   6.468 -0.4384  2.0685  0.8140
  931MOL0     H22866   0.283   8.401   6.263 -0.8214  1.7979  0.1345
  931MOL0     H22867   0.233   8.421   6.420 -0.7147  0.1131  0.6129
  931MOL0     H22868   0.096   8.185   6.353  0.3019 -1.1048 -1.7800
  931MOL0     H22869   0.132   8.244   6.192 -0.7428  0.4836  0.2320
  931MOL0     H22870  -0.021   8.449   6.359 -0.5725  2.2376 -2.5753
  931MOL0     H22871   0.020   8.436   6.198  2.3211 -0.8233  0.6319
  931MOL0     H22872  -0.125   8.287   6.128  2.1379 -0.1405 -0.1657
  931MOL0     H22873  -0.216   8.394   6.241  0.7489  0.8548 -1.8970
  931MOL0     H22874   0.874   8.422   6.246 -1.0585 -1.1328  1.1660
  931MOL0     H22875   1.112   8.493   6.231  0.5334 -0.7143  0.1863
  931MOL0     H22876   1.526   8.501   6.541  1.3539  0.3878  0.9902
  931MOL0     H22877   1.730   8.599   6.553 -0.4120  0.7939  0.2051
  931MOL0     H22878   3.121   9.788   5.567 -0.6991  1.5302  1.8964
  931MOL0     H22879   3.312   9.867   5.432  2.2203  3.7198  1.2547
  931MOL0     H22880   3.520  10.431   5.180 -0.1397  1.9012 -2.4762
  931MOL0     H22881   3.618  10.454   4.965  0.2139 -0.8321 -2.1694
  931MOL0     H22882   3.764  10.355   4.798 -0.0585 -3.6608  0.0679
  931MOL0     H22883   3.631  10.459   4.725 -4.7364 -2.7601  2.2597
  931MOL0     H22884   3.681  10.359   4.502 -2.6822 -4.0899  2.0832
  931MOL0     H22885   3.827  10.443   4.575  1.2113 -1.1043 -0.0429
  931MOL0     H22886   3.754  10.147   4.559  0.3468 -0.5841 -0.2079
  931MOL0     H22887   3.900  10.207   4.636 -0.2769 -0.6103 -0.9981
  931MOL0     H22888   3.840  10.276   4.346 -0.7011  0.7417  1.0261
  931MOL0     H22889   3.984  10.306   4.427 -0.9103  1.0568  0.2466
  931MOL0     H22890   4.024   9.904   4.302 -0.1598  0.9134 -1.1245
  931MOL0     H22891   3.437  10.096   4.829  1.0485  0.6528 -0.5238
  931MOL0     H22892   3.345  10.050   5.058 -1.6340  1.2424  0.3821
  932MOL0     O22893   0.495   8.093   0.429  0.4127  0.2731  0.2571
  932MOL0     C22894   0.566   8.004   0.382  0.0187  0.1621  0.2408
  932MOL0     O22895   0.530   7.881   0.340 -0.4128  0.3637  0.0347
  932MOL0     C22896   0.399   7.844   0.330  0.2540  0.3112  0.5150
  932MOL0     C22897   0.305   7.921   0.261  0.0336  0.0472 -0.4068
  932MOL0     C22898   0.169   7.881   0.265  0.3124  0.2480  0.0739
  932MOL0     C22899   0.127   7.753   0.318  0.3371  0.0267  0.1597
  932MOL0     O22900   0.000   7.700   0.319  0.5630  0.1922  0.6048
  932MOL0     C22901  -0.095   7.773   0.240  0.6096  0.3490  0.1394
  932MOL0     C22902  -0.224   7.689   0.236  0.1372  0.5606  0.0511
  932MOL0     C22903  -0.335   7.773   0.166 -0.1720  0.4588  0.7957
  932MOL0     C22904  -0.464   7.694   0.163 -0.2171 -0.4979  0.4083
  932MOL0     C22905  -0.584   7.783   0.144 -1.3518 -0.2084  0.2964
  932MOL0     C22906  -0.710   7.696   0.119  0.8988 -0.4233  0.1137
  932MOL0     C22907  -0.840   7.777   0.104 -0.1507  0.2457  0.3259
  932MOL0     C22908  -0.844   7.857  -0.027  0.2061 -0.3821 -0.3830
  932MOL0     N22909  -0.961   7.839  -0.118  0.3177  0.1972  0.3671
  932MOL0     C22910  -1.092   7.815  -0.088 -0.0835  0.4329  0.1612
  932MOL0     C22911  -1.159   7.801  -0.200  1.1427 -0.3508  0.1362
  932MOL0     C22912  -1.298   7.753  -0.208 -0.0887 -0.0511 -0.0159
  932MOL0     C22913  -1.352   7.741  -0.347  0.6845 -0.2622  0.3607
  932MOL0     C22914  -1.386   7.878  -0.399 -1.4346 -0.0811 -0.1051
  932MOL0     C22915  -1.489   7.959  -0.321 -0.9778 -1.8469  0.3964
  932MOL0     O22916  -1.580   8.037  -0.406 -0.3382  0.7856  0.4169
  932MOL0     C22917  -1.713   8.053  -0.369 -0.2802  0.6661 -0.3392
  932MOL0     C22918  -1.803   8.079  -0.471  0.0333 -0.0594 -0.1535
  932MOL0     C22919  -1.944   8.085  -0.446 -0.7301 -0.4402 -0.0653
  932MOL0     C22920  -1.990   8.085  -0.309 -0.2612 -0.8926  0.8622
  932MOL0     C22921  -2.136   8.084  -0.278  0.1312  0.5719  0.9383
  932MOL0     O22922  -2.213   8.073  -0.386 -0.3221  0.1487  0.3973
  932MOL0     C22923  -2.353   8.071  -0.381 -0.3362 -0.4293  0.3080
  932MOL0     C22924  -2.417   7.948  -0.430 -0.0687 -0.2766 -0.5251
  932MOL0     C22925  -2.551   7.950  -0.426 -0.4321 -0.7898  0.1916
  932MOL0     C22926  -2.631   8.055  -0.380 -0.4572  0.1905  0.1751
  932MOL0     O22927  -2.764   8.031  -0.356 -0.7579 -0.0203  0.4482
  932MOL0     C22928  -2.867   8.015  -0.463 -1.3977  0.4014 -0.3667
  932MOL0     C22929  -2.997   7.971  -0.390 -1.1439  0.0346 -0.7355
  932MOL0     C22930  -3.051   8.093  -0.306  0.3548  0.5738  0.5085
  932MOL0     C22931  -3.146   8.044  -0.200  0.3980  0.2062 -1.0163
  932MOL0     C22932  -3.284   7.993  -0.257  0.6293 -0.4905  0.8079
  932MOL0     C22933  -3.382   7.957  -0.155 -0.5559 -0.2348 -0.1846
  932MOL0     C22934  -3.515   7.914  -0.218  0.5276 -0.6071 -0.2547
  932MOL0     C22935  -3.605   7.838  -0.129 -0.1278 -0.2998 -0.7204
  932MOL0    Cl22936  -3.679   7.969  -0.035  0.3089  0.0728  0.2048
  932MOL0     C22937  -2.564   8.174  -0.343  0.2817  0.3061  0.0577
  932MOL0     C22938  -2.424   8.183  -0.344 -0.2642  0.3755 -0.4468
  932MOL0     O22939  -2.164   8.057  -0.163 -0.6338 -1.1586 -0.3128
  932MOL0     C22940  -1.896   8.067  -0.210  0.4141  0.6056 -0.7217
  932MOL0     C22941  -1.753   8.047  -0.233  0.7713 -0.2104 -0.3694
  932MOL0     N22942  -1.066   7.831  -0.300  0.0537 -0.5016 -0.0895
  932MOL0     N22943  -0.944   7.841  -0.252  0.2423  0.7080  0.0696
  932MOL0     C22944   0.233   7.671   0.369 -0.3381 -0.2331  0.3908
  932MOL0     C22945   0.368   7.715   0.382 -0.0729 -0.8741  0.1787
  932MOL0     C22946   0.703   8.043   0.379 -0.7665  0.8213 -0.2452
  932MOL0     C22947   0.746   8.173   0.387 -0.4772  0.1848 -1.0377
  932MOL0     C22948   0.880   8.212   0.393  0.0412 -1.1152  0.4736
  932MOL0     C22949   0.982   8.113   0.394  0.1590 -0.5188  0.3977
  932MOL0     O22950   1.115   8.141   0.400  0.2670 -0.3378  0.2039
  932MOL0     C22951   1.156   8.196   0.529 -0.1027 -0.5443  0.5581
  932MOL0     C22952   1.292   8.147   0.572 -0.5331  0.6402  0.2680
  932MOL0     C22953   1.410   8.206   0.485  0.7294  0.3941  0.4506
  932MOL0     C22954   1.546   8.148   0.519 -0.3866 -0.5569  0.0667
  932MOL0     C22955   1.596   8.207   0.646 -0.2745 -0.1694  0.3963
  932MOL0     C22956   1.617   8.279   0.742 -0.1419  0.5582  0.2608
  932MOL0     C22957   0.944   7.981   0.392  0.5024 -0.0750 -0.6662
  932MOL0     C22958   0.806   7.947   0.382  0.4984  0.2132 -0.4281
  932MOL0     H22959   0.332   8.017   0.219  1.9528 -0.4366 -0.3985
  932MOL0     H22960   0.092   7.939   0.216  1.3685 -0.6880 -2.9069
  932MOL0     H22961  -0.065   7.781   0.135 -0.8843 -0.8505 -0.4244
  932MOL0     H22962  -0.115   7.873   0.279 -1.4533 -0.4751  1.2900
  932MOL0     H22963  -0.252   7.661   0.337 -0.9472  3.1216  0.5375
  932MOL0     H22964  -0.203   7.603   0.172 -0.7717  0.9539 -0.8219
  932MOL0     H22965  -0.309   7.793   0.061 -0.4155  0.3960  0.7244
  932MOL0     H22966  -0.347   7.869   0.217 -0.2979  1.1231 -0.4256
  932MOL0     H22967  -0.455   7.638   0.069  0.8223 -0.0605  0.2252
  932MOL0     H22968  -0.477   7.635   0.254  0.0500  0.9590  1.4304
  932MOL0     H22969  -0.564   7.850   0.059 -1.5647  0.0641  0.4575
  932MOL0     H22970  -0.598   7.830   0.242 -0.7393  0.4743  0.0681
  932MOL0     H22971  -0.741   7.634   0.204 -3.6533 -1.5076 -1.9974
  932MOL0     H22972  -0.694   7.621   0.041  2.0192 -2.4093  2.1384
  932MOL0     H22973  -0.920   7.702   0.100  0.0210  0.0803 -2.6349
  932MOL0     H22974  -0.852   7.852   0.182  2.5766  1.2566 -0.0948
  932MOL0     H22975  -0.751   7.852  -0.085  0.3509  1.6080 -0.4030
  932MOL0     H22976  -0.830   7.963  -0.003 -0.2604  0.0197 -1.7790
  932MOL0     H22977  -1.124   7.789   0.013 -2.6266  0.5605 -0.5432
  932MOL0     H22978  -1.355   7.821  -0.144  0.1415  0.1986 -0.0707
  932MOL0     H22979  -1.291   7.652  -0.167  0.5579  0.2155  0.5421
  932MOL0     H22980  -1.444   7.682  -0.345 -0.3653  1.2072 -1.6056
  932MOL0     H22981  -1.288   7.681  -0.413 -0.5531 -2.8865  1.3896
  932MOL0     H22982  -1.295   7.933  -0.426 -1.9102  1.0265  0.4862
  932MOL0     H22983  -1.421   7.860  -0.502  0.0504 -0.4487 -0.5662
  932MOL0     H22984  -1.444   8.019  -0.241  0.5307 -0.2280 -1.5570
  932MOL0     H22985  -1.549   7.883  -0.269 -0.0930 -1.1348  2.5414
  932MOL0     H22986  -1.758   8.088  -0.569  0.9803 -1.1514  0.1639
  932MOL0     H22987  -2.020   8.096  -0.523 -1.0817  0.1764  0.3607
  932MOL0     H22988  -2.362   7.858  -0.454 -0.6162 -0.9602  0.6972
  932MOL0     H22989  -2.589   7.851  -0.448  0.1110 -0.6197 -1.6349
  932MOL0     H22990  -2.835   7.929  -0.523 -0.6316 -0.3865  1.1005
  932MOL0     H22991  -2.878   8.104  -0.525 -0.3049 -0.3509 -1.6998
  932MOL0     H22992  -2.984   7.885  -0.324 -1.6647  0.9450  0.5998
  932MOL0     H22993  -3.078   7.936  -0.455 -0.9323 -1.9912  0.0216
  932MOL0     H22994  -3.112   8.161  -0.366 -0.6295 -0.5923  0.1462
  932MOL0     H22995  -2.970   8.152  -0.261  0.9611  0.4385 -0.3752
  932MOL0     H22996  -3.101   7.967  -0.137  1.7273  2.0900  0.4644
  932MOL0     H22997  -3.164   8.128  -0.132 -1.6720 -0.0243 -1.2279
  932MOL0     H22998  -3.258   7.911  -0.326  1.4732  0.2718  0.1993
  932MOL0     H22999  -3.329   8.075  -0.313 -0.1089 -0.4157  1.5090
  932MOL0     H23000  -3.389   8.046  -0.092 -0.3122  0.0804 -0.5938
  932MOL0     H23001  -3.344   7.871  -0.100  0.2832  0.5838  0.5552
  932MOL0     H23002  -3.562   8.001  -0.264  1.6010 -0.4962 -1.1973
  932MOL0     H23003  -3.500   7.841  -0.298 -2.4032 -0.9270 -0.6051
  932MOL0     H23004  -3.551   7.761  -0.074 -0.8993 -1.3183 -1.3429
  932MOL0     H23005  -3.683   7.788  -0.189  0.0341  1.5079 -2.5565
  932MOL0     H23006  -2.626   8.256  -0.307 -4.3552 -3.4777  1.7177
  932MOL0     H23007  -2.371   8.272  -0.313  1.0226 -0.2994 -0.6703
  932MOL0     H23008  -1.928   8.069  -0.107 -1.3178  0.7207 -1.2360
  932MOL0     H23009  -1.692   8.032  -0.146  0.6008  2.6564  0.3669
  932MOL0     H23010   0.209   7.570   0.400 -0.5478 -0.9191 -1.7964
  932MOL0     H23011   0.447   7.652   0.422  0.0654 -1.3799 -0.8430
  932MOL0     H23012   0.674   8.251   0.368 -1.1071  0.1342  0.9525
  932MOL0     H23013   0.901   8.318   0.389  0.6132 -1.2480 -0.4611
  932MOL0     H23014   1.081   8.169   0.604 -2.1033  2.1994 -0.3204
  932MOL0     H23015   1.153   8.305   0.523  2.1256 -0.4235  0.6117
  932MOL0     H23016   1.304   8.172   0.678 -3.0584 -0.5430  0.9096
  932MOL0     H23017   1.296   8.039   0.558 -0.8559  0.8717 -1.9584
  932MOL0     H23018   1.417   8.311   0.514  3.2557  0.0257  1.4741
  932MOL0     H23019   1.388   8.188   0.380  0.7162  0.2310  0.4807
  932MOL0     H23020   1.541   8.039   0.531 -0.1009 -0.3788  2.1269
  932MOL0     H23021   1.624   8.172   0.447 -0.5559  0.1063  0.1010
  932MOL0     H23022   1.633   8.340   0.829 -0.4952  1.0859 -0.0429
  932MOL0     H23023   1.015   7.900   0.409  0.4553  0.3006  1.5044
  932MOL0     H23024   0.783   7.842   0.370  0.6440  0.0907  0.3045
  933MOL0     O23025   4.143   0.737   5.199  0.5951  0.2122 -0.2260
  933MOL0     C23026   4.237   0.775   5.133  0.0984  0.2514  0.9267
  933MOL0     O23027   4.236   0.870   5.028 -0.0191 -0.1190  0.7015
  933MOL0     C23028   4.125   0.950   4.998 -0.0093 -0.4612  0.6756
  933MOL0     C23029   4.018   0.971   5.079 -0.4588 -0.9489  0.1224
  933MOL0     C23030   3.914   1.059   5.043 -0.3238 -0.0861  0.1947
  933MOL0     C23031   3.908   1.113   4.911 -0.6249 -0.5505 -0.0363
  933MOL0     O23032   3.802   1.196   4.873  0.2487  0.1746 -0.1117
  933MOL0     C23033   3.669   1.175   4.916 -0.7855  0.8406  0.2426
  933MOL0     C23034   3.585   1.252   4.822  0.9052 -0.6087  0.1726
  933MOL0     C23035   3.433   1.242   4.852 -0.4272 -0.1357  0.4246
  933MOL0     C23036   3.388   1.365   4.940 -1.4358 -0.9068  0.5490
  933MOL0     C23037   3.241   1.373   4.971  0.4047  0.3451 -0.7743
  933MOL0     C23038   3.163   1.414   4.841 -0.1549 -0.2210 -0.1008
  933MOL0     C23039   3.013   1.384   4.841  0.3241 -0.0549  0.2930
  933MOL0     C23040   2.932   1.467   4.926  0.3074 -0.5699 -1.7366
  933MOL0     N23041   2.963   1.473   5.070 -0.2803  0.1444 -0.3819
  933MOL0     C23042   2.983   1.367   5.148 -0.4119 -1.1573  0.1106
  933MOL0     C23043   3.011   1.424   5.271  0.4945  0.1061  0.7546
  933MOL0     C23044   3.022   1.333   5.384  0.6814  0.7847 -0.3657
  933MOL0     C23045   2.890   1.302   5.454  0.3922  0.2129  0.6556
  933MOL0     C23046   2.836   1.435   5.506 -1.1652  0.1392  0.9137
  933MOL0     C23047   2.720   1.413   5.601 -0.9855  0.1595 -0.1530
  933MOL0     O23048   2.649   1.536   5.636 -0.0460 -0.2875  0.0792
  933MOL0     C23049   2.539   1.509   5.724  0.3151 -0.5717  0.4007
  933MOL0     C23050   2.484   1.392   5.769 -0.1974  1.3085  0.5964
  933MOL0     C23051   2.380   1.397   5.864  0.0895  0.1079 -0.6178
  933MOL0     C23052   2.314   1.517   5.892 -0.3299  0.3712  0.0295
  933MOL0     C23053   2.193   1.511   5.978 -0.2976 -1.3542  1.3878
  933MOL0     O23054   2.167   1.634   6.040  0.7413 -0.7494 -0.1325
  933MOL0     C23055   2.056   1.639   6.121 -0.3530 -0.5979  0.1848
  933MOL0     C23056   1.929   1.605   6.076  0.2081 -0.3835  0.3707
  933MOL0     C23057   1.819   1.599   6.162 -0.6805  0.4474 -0.5130
  933MOL0     C23058   1.831   1.661   6.295 -0.0950  0.2747  0.8212
  933MOL0     O23059   1.733   1.674   6.388 -0.2531 -0.0902  1.0241
  933MOL0     C23060   1.619   1.594   6.356 -0.1840  0.1630 -0.4353
  933MOL0     C23061   1.537   1.609   6.493  0.1416  0.0531  0.8781
  933MOL0     C23062   1.398   1.543   6.494  0.2274  0.2831  0.7193
  933MOL0     C23063   1.314   1.568   6.618 -0.3291  0.4962 -0.2957
  933MOL0     C23064   1.183   1.484   6.615 -0.0929  0.2101  0.5969
  933MOL0     C23065   1.112   1.498   6.753  0.6074  0.2404 -0.1304
  933MOL0     C23066   0.977   1.414   6.749  0.4804 -0.8720 -0.6344
  933MOL0     C23067   0.907   1.416   6.889  0.1698  0.4827 -0.0880
  933MOL0    Cl23068   0.746   1.331   6.862 -0.4149 -0.2252  0.3627
  933MOL0     C23069   1.963   1.705   6.332 -0.2886 -0.5864  1.2039
  933MOL0     C23070   2.070   1.696   6.249 -0.5616  0.4789  0.6651
  933MOL0     O23071   2.130   1.406   5.978  0.8198 -0.1372  0.1968
  933MOL0     C23072   2.357   1.632   5.831 -0.5523 -0.0721 -0.3251
  933MOL0     C23073   2.474   1.624   5.756 -0.1685 -0.4808 -0.6883
  933MOL0     N23074   3.005   1.561   5.259 -0.6377 -0.2067  0.0206
  933MOL0     N23075   2.982   1.585   5.141 -0.1142 -0.5234 -0.4941
  933MOL0     C23076   4.016   1.091   4.823  0.1821 -0.4491 -0.0755
  933MOL0     C23077   4.131   1.023   4.875 -0.7838  0.0447 -0.2561
  933MOL0     C23078   4.370   0.704   5.141 -0.1993  0.3968  0.2278
  933MOL0     C23079   4.457   0.708   5.029  0.4186 -0.7483  0.0628
  933MOL0     C23080   4.586   0.655   5.035 -0.9557 -0.2858  0.1351
  933MOL0     C23081   4.627   0.581   5.150 -0.4752  0.2213 -0.0503
  933MOL0     O23082   4.756   0.531   5.144  0.1534 -0.1558  0.0669
  933MOL0     C23083   4.800   0.426   5.235 -0.3452  0.4553 -0.4297
  933MOL0     C23084   4.942   0.397   5.192  0.1914 -0.0972  0.5782
  933MOL0     C23085   5.017   0.318   5.291  0.2612  0.0265 -0.0753
  933MOL0     C23086   5.137   0.245   5.231 -0.1293 -0.1920 -0.2625
  933MOL0     C23087   5.230   0.206   5.342 -0.3169 -0.7729  0.6970
  933MOL0     C23088   5.307   0.172   5.425 -0.1096  0.4102 -0.1290
  933MOL0     C23089   4.535   0.555   5.255 -0.3415 -0.0717  0.6753
  933MOL0     C23090   4.409   0.621   5.251  0.3301  0.4014  0.1884
  933MOL0     H23091   4.018   0.934   5.181  0.0162 -0.2324  0.3916
  933MOL0     H23092   3.848   1.102   5.118  1.5423  3.2184  0.1382
  933MOL0     H23093   3.649   1.216   5.016 -3.0547 -0.3166  0.3441
  933MOL0     H23094   3.650   1.067   4.913  1.5827  0.3533  0.6608
  933MOL0     H23095   3.605   1.200   4.728 -0.5381 -1.0647  0.0887
  933MOL0     H23096   3.618   1.356   4.808  0.9927 -0.8271 -1.5172
  933MOL0     H23097   3.415   1.141   4.892 -1.0352  0.3612  1.4750
  933MOL0     H23098   3.378   1.247   4.758  0.1983  1.3086  0.1146
  933MOL0     H23099   3.444   1.355   5.034 -1.8780  1.7903  1.1950
  933MOL0     H23100   3.422   1.458   4.895 -1.9882  0.0828  2.0960
  933MOL0     H23101   3.221   1.432   5.060  0.4199  0.6585 -0.9784
  933MOL0     H23102   3.224   1.272   5.011 -0.3175  0.5045 -0.6601
  933MOL0     H23103   3.203   1.359   4.755  0.2880  2.5379 -1.7921
  933MOL0     H23104   3.174   1.521   4.817  1.0382 -0.4030 -0.4572
  933MOL0     H23105   2.967   1.399   4.743  0.0524  2.3656  0.7183
  933MOL0     H23106   2.988   1.280   4.865 -1.1018  0.1644 -0.1663
  933MOL0     H23107   2.827   1.437   4.919  0.6609 -2.9667  0.9932
  933MOL0     H23108   2.927   1.567   4.884 -1.8135  1.0052  1.8315
  933MOL0     H23109   2.954   1.264   5.130 -0.5290 -1.0486 -0.3280
  933MOL0     H23110   3.093   1.362   5.461  0.8365 -2.7558  1.0278
  933MOL0     H23111   3.063   1.236   5.353  0.5547 -0.5465  3.1392
  933MOL0     H23112   2.910   1.228   5.532 -0.7499  0.4189  1.1605
  933MOL0     H23113   2.818   1.259   5.383 -0.7287  1.8521  0.7480
  933MOL0     H23114   2.918   1.485   5.557 -0.7224  2.1758 -1.5824
  933MOL0     H23115   2.810   1.501   5.423  0.0721  1.5831  1.6264
  933MOL0     H23116   2.747   1.362   5.694 -0.7524 -1.6481 -1.1710
  933MOL0     H23117   2.652   1.359   5.535  1.8223 -1.2649 -2.0999
  933MOL0     H23118   2.532   1.297   5.749  1.0781  1.7023  1.6546
  933MOL0     H23119   2.352   1.309   5.920  1.9628 -0.0966  0.0468
  933MOL0     H23120   1.936   1.574   5.972  1.6173 -0.2709  0.4085
  933MOL0     H23121   1.729   1.550   6.126  0.5903 -2.3932 -0.1340
  933MOL0     H23122   1.636   1.488   6.334  1.3327  0.8856 -3.1380
  933MOL0     H23123   1.564   1.643   6.275 -0.2007  2.0880  0.6865
  933MOL0     H23124   1.529   1.717   6.506 -0.0243  0.1915 -0.2903
  933MOL0     H23125   1.602   1.568   6.571  1.7469 -0.7012 -0.7775
  933MOL0     H23126   1.413   1.435   6.487 -2.1694 -0.0057 -1.8421
  933MOL0     H23127   1.336   1.586   6.415  1.3135 -0.0212 -0.3423
  933MOL0     H23128   1.379   1.542   6.702 -1.2925  0.2087  0.3824
  933MOL0     H23129   1.292   1.675   6.626  2.3539  1.1525 -0.6364
  933MOL0     H23130   1.211   1.380   6.600 -0.3075  0.0498  1.2668
  933MOL0     H23131   1.120   1.520   6.533 -2.8630 -1.7522  1.7233
  933MOL0     H23132   1.089   1.604   6.763  2.0455  0.5445  0.1653
  933MOL0     H23133   1.179   1.478   6.837  1.0900 -0.7873 -0.7371
  933MOL0     H23134   0.898   1.444   6.680  0.0502 -1.7984 -0.5477
  933MOL0     H23135   0.991   1.309   6.725  0.2452 -1.1537  0.4028
  933MOL0     H23136   0.884   1.517   6.925  1.4910  1.3587 -1.5942
  933MOL0     H23137   0.961   1.356   6.963  0.5451  0.5341 -0.3191
  933MOL0     H23138   1.972   1.770   6.418  1.2455  1.0635 -0.1263
  933MOL0     H23139   2.162   1.736   6.293 -2.1816  2.4936  2.4338
  933MOL0     H23140   2.308   1.725   5.854 -1.2685 -0.9615  2.0491
  933MOL0     H23141   2.510   1.718   5.716 -1.3030 -0.0777 -0.7973
  933MOL0     H23142   4.019   1.137   4.725  0.1260  2.6382  1.2744
  933MOL0     H23143   4.224   0.997   4.825  1.7618 -2.6234  5.0214
  933MOL0     H23144   4.436   0.772   4.944  0.1808 -0.6442  0.2008
  933MOL0     H23145   4.660   0.685   4.961 -1.6917 -1.3043 -1.0381
  933MOL0     H23146   4.735   0.339   5.229  0.9454 -0.5391 -0.2591
  933MOL0     H23147   4.793   0.461   5.339 -3.7671  0.8134 -0.6511
  933MOL0     H23148   4.939   0.338   5.100 -4.3035  0.1530  0.3485
  933MOL0     H23149   5.000   0.486   5.163 -0.0333 -0.1609 -0.0841
  933MOL0     H23150   4.952   0.241   5.334 -1.4039  0.0411 -2.3890
  933MOL0     H23151   5.040   0.375   5.382  2.0410 -0.8061  0.0317
  933MOL0     H23152   5.097   0.155   5.184 -1.1297 -0.1483  0.4745
  933MOL0     H23153   5.190   0.313   5.164 -0.0317 -0.2011 -0.1947
  933MOL0     H23154   5.393   0.146   5.484 -0.3541  1.8285  0.8872
  933MOL0     H23155   4.561   0.494   5.341  1.8992  0.0082  0.1140
  933MOL0     H23156   4.340   0.600   5.332 -2.3302 -1.2564 -2.3130
  934MOL0     O23157   1.217   3.164   8.860  0.1738 -0.0815 -0.1035
  934MOL0     C23158   1.178   3.109   8.961  0.1166 -0.3315 -0.6824
  934MOL0     O23159   1.245   3.087   9.073 -0.1396  0.4551 -0.1298
  934MOL0     C23160   1.375   3.111   9.071 -0.6291  0.9907  0.2672
  934MOL0     C23161   1.410   3.220   9.144 -0.2791  0.2239 -0.4333
  934MOL0     C23162   1.546   3.259   9.145 -0.3726 -0.3723 -0.0804
  934MOL0     C23163   1.647   3.178   9.098  0.0204  0.0304  0.0824
  934MOL0     O23164   1.780   3.222   9.098  0.0225 -0.1925 -0.0205
  934MOL0     C23165   1.834   3.275   9.212 -0.9800 -0.5382 -1.4419
  934MOL0     C23166   1.984   3.312   9.185  0.6436 -0.6941 -1.2013
  934MOL0     C23167   2.065   3.336   9.312 -0.2855 -0.5080  0.4201
  934MOL0     C23168   2.200   3.407   9.296  0.1350 -0.2440  0.4288
  934MOL0     C23169   2.290   3.331   9.194  1.2294 -0.5115 -0.2598
  934MOL0     C23170   2.337   3.194   9.248  0.2770  0.2365 -0.3953
  934MOL0     C23171   2.456   3.138   9.165  0.1312 -0.2693 -0.2742
  934MOL0     C23172   2.405   3.107   9.031 -0.3989 -0.1480 -0.0406
  934MOL0     N23173   2.293   3.022   9.010 -0.0403  0.6437 -0.6578
  934MOL0     C23174   2.225   3.031   8.894  0.5037  0.0217 -0.3169
  934MOL0     C23175   2.154   2.913   8.891  0.2411 -0.6111 -0.8360
  934MOL0     C23176   2.058   2.853   8.794  0.0598  0.3799  0.1963
  934MOL0     C23177   1.917   2.816   8.856 -0.3814 -0.1862 -0.0621
  934MOL0     C23178   1.851   2.741   8.753 -0.0967 -0.7545 -0.1875
  934MOL0     C23179   1.712   2.688   8.792  0.4075 -0.3503  0.2009
  934MOL0     O23180   1.613   2.790   8.776  0.1448  0.8904 -0.5969
  934MOL0     C23181   1.479   2.750   8.760 -0.0200  0.5463 -0.3888
  934MOL0     C23182   1.424   2.626   8.791 -0.4053 -0.1254 -0.2368
  934MOL0     C23183   1.285   2.602   8.779 -0.1589  0.1095 -0.8264
  934MOL0     C23184   1.203   2.698   8.723  0.2902 -0.5702 -0.0990
  934MOL0     C23185   1.052   2.663   8.708 -0.1496  0.4093 -0.2467
  934MOL0     O23186   1.020   2.532   8.736  0.0519 -0.5409  0.5650
  934MOL0     C23187   0.889   2.493   8.747 -0.0676  0.2743 -0.9476
  934MOL0     C23188   0.782   2.564   8.790 -0.5845 -0.0928 -0.9286
  934MOL0     C23189   0.656   2.504   8.772  0.1356  0.6726  0.0719
  934MOL0     C23190   0.630   2.381   8.724 -0.1328  0.3604  0.0063
  934MOL0     O23191   0.501   2.345   8.703  0.1081 -0.0137  0.6715
  934MOL0     C23192   0.467   2.211   8.672  0.1204 -0.3333 -0.5081
  934MOL0     C23193   0.311   2.201   8.658 -0.2285 -0.4102 -0.3541
  934MOL0     C23194   0.289   2.052   8.652 -0.1034 -0.0565 -0.2356
  934MOL0     C23195   0.141   2.020   8.640  0.6859 -1.0334  0.8221
  934MOL0     C23196   0.119   1.877   8.600  0.4277  0.4212  0.0277
  934MOL0     C23197   0.105   1.870   8.447  0.1228  0.8039 -0.6524
  934MOL0     C23198   0.127   1.722   8.403 -0.3866 -0.6939  0.1608
  934MOL0     C23199   0.091   1.716   8.256 -0.4222 -0.4358 -0.1858
  934MOL0    Cl23200   0.035   1.552   8.203  0.5160 -0.1527 -0.1655
  934MOL0     C23201   0.743   2.301   8.700 -0.3083  0.1628  0.4887
  934MOL0     C23202   0.871   2.354   8.706 -0.0291 -0.5170 -0.8862
  934MOL0     O23203   0.971   2.750   8.662  0.0040  0.2284 -0.7005
  934MOL0     C23204   1.257   2.818   8.679 -0.0676  0.9323 -0.1668
  934MOL0     C23205   1.391   2.844   8.704  0.3904 -0.9046 -0.7003
  934MOL0     N23206   2.175   2.850   9.014 -0.6884  0.0201  0.4071
  934MOL0     N23207   2.255   2.914   9.088  0.0283 -0.6573  0.1192
  934MOL0     C23208   1.616   3.058   9.033 -0.2551 -0.5121 -0.2691
  934MOL0     C23209   1.480   3.020   9.039 -0.3146  0.1166  0.0883
  934MOL0     C23210   1.044   3.056   8.963  0.6346 -0.8105  1.0734
  934MOL0     C23211   1.026   2.934   9.029 -0.0906 -0.1139  0.7305
  934MOL0     C23212   0.898   2.880   9.036 -0.6837 -0.2109  0.2905
  934MOL0     C23213   0.791   2.945   8.985 -0.5173  0.2121 -0.4907
  934MOL0     O23214   0.679   2.877   8.996  0.9992  0.1607 -0.3611
  934MOL0     C23215   0.554   2.935   8.944  0.7119 -0.1047  0.3436
  934MOL0     C23216   0.495   3.038   9.044 -1.1793 -0.0959 -0.8365
  934MOL0     C23217   0.363   3.103   9.001  0.1472  0.3002 -0.1521
  934MOL0     C23218   0.366   3.245   8.947 -0.7472 -0.6835  0.2896
  934MOL0     C23219   0.433   3.256   8.820  0.1756 -0.0494  0.8608
  934MOL0     C23220   0.462   3.274   8.707 -0.3759 -0.6999 -0.2706
  934MOL0     C23221   0.803   3.072   8.926 -0.3556  0.3589 -0.3041
  934MOL0     C23222   0.931   3.119   8.901 -0.3908  0.1354  0.6138
  934MOL0     H23223   1.337   3.271   9.205  0.6403  0.5654  0.4158
  934MOL0     H23224   1.571   3.345   9.206 -3.3680  1.5252 -1.2755
  934MOL0     H23225   1.821   3.199   9.290  1.6538  0.0730 -0.3205
  934MOL0     H23226   1.785   3.364   9.252  1.6119 -1.0155  3.6107
  934MOL0     H23227   1.983   3.409   9.134  0.8526  0.9074  1.6106
  934MOL0     H23228   2.027   3.231   9.125  0.0517 -1.4544 -0.6269
  934MOL0     H23229   2.080   3.241   9.364 -0.7699 -0.0720  1.3630
  934MOL0     H23230   2.004   3.391   9.384  1.0653  0.9765  0.5075
  934MOL0     H23231   2.193   3.503   9.245  2.7313 -0.2742 -0.1116
  934MOL0     H23232   2.259   3.415   9.388  0.8693 -1.2449  0.0699
  934MOL0     H23233   2.384   3.387   9.186  1.9385 -1.7660 -1.0420
  934MOL0     H23234   2.251   3.321   9.092  0.4255  2.8757 -0.3992
  934MOL0     H23235   2.262   3.116   9.263  1.2825 -0.6071  0.4174
  934MOL0     H23236   2.362   3.203   9.354 -0.3162  1.2784 -0.3375
  934MOL0     H23237   2.545   3.200   9.156  0.9145 -1.4724 -1.1690
  934MOL0     H23238   2.494   3.041   9.198 -0.4134 -0.8093 -1.1793
  934MOL0     H23239   2.484   3.050   8.981  0.0824  3.0648 -3.3341
  934MOL0     H23240   2.390   3.199   8.975  0.4850 -0.1724 -0.3313
  934MOL0     H23241   2.232   3.109   8.819  1.4971 -0.7763 -1.0798
  934MOL0     H23242   2.101   2.762   8.751 -2.2636  0.4415 -2.5669
  934MOL0     H23243   2.031   2.926   8.717 -1.6887  0.6614  1.0184
  934MOL0     H23244   1.865   2.907   8.887  1.6143 -0.0344  3.4076
  934MOL0     H23245   1.942   2.754   8.943  1.9660  0.1578 -0.4305
  934MOL0     H23246   1.837   2.806   8.667 -1.8271  0.8335  1.2371
  934MOL0     H23247   1.916   2.657   8.724 -0.2806 -1.0160  0.1507
  934MOL0     H23248   1.714   2.654   8.896  0.4176  0.1535  0.3712
  934MOL0     H23249   1.690   2.605   8.724 -0.9016  0.3766 -0.3112
  934MOL0     H23250   1.492   2.556   8.839  0.0139  0.5633  0.1816
  934MOL0     H23251   1.246   2.504   8.806  2.6416 -0.4230  1.8342
  934MOL0     H23252   0.790   2.666   8.827  2.1775 -0.4997 -0.1897
  934MOL0     H23253   0.573   2.574   8.781 -0.0621  1.3714 -4.5584
  934MOL0     H23254   0.499   2.148   8.755 -2.1638  1.0756  1.5828
  934MOL0     H23255   0.516   2.162   8.587  2.3232 -2.2867  1.7227
  934MOL0     H23256   0.270   2.250   8.570  0.1545  1.2925  0.3853
  934MOL0     H23257   0.266   2.254   8.743  2.1779  3.2795 -1.1531
  934MOL0     H23258   0.326   2.004   8.743 -1.4246  0.1697  0.4549
  934MOL0     H23259   0.339   2.013   8.564  1.0894 -0.1012  0.4497
  934MOL0     H23260   0.096   2.032   8.739  0.6681  0.3057  0.6592
  934MOL0     H23261   0.091   2.091   8.574  0.1746 -2.0973  0.0256
  934MOL0     H23262   0.019   1.848   8.634  0.7263  0.9457  1.4021
  934MOL0     H23263   0.187   1.804   8.644 -4.1659 -2.3916  3.4037
  934MOL0     H23264   0.184   1.933   8.405 -0.2900 -0.1632 -3.0437
  934MOL0     H23265   0.003   1.903   8.421 -0.8021 -0.7256  0.8419
  934MOL0     H23266   0.232   1.692   8.414  0.4534  2.1270  0.4715
  934MOL0     H23267   0.071   1.653   8.466  1.7645  0.6947  3.9015
  934MOL0     H23268   0.163   1.752   8.182 -0.8917  1.2050  0.1112
  934MOL0     H23269   0.001   1.777   8.242 -0.1170  0.0408 -0.0635
  934MOL0     H23270   0.735   2.200   8.660  0.2994  0.1226  0.4512
  934MOL0     H23271   0.953   2.292   8.670  3.3362  1.2518  2.8880
  934MOL0     H23272   1.192   2.894   8.637 -0.6543  0.9193  0.7142
  934MOL0     H23273   1.434   2.939   8.672  0.6783 -1.7775 -3.1537
  934MOL0     H23274   1.691   2.988   8.996 -0.0193 -0.4718  0.1226
  934MOL0     H23275   1.459   2.923   8.995 -1.4586  1.0459 -1.5144
  934MOL0     H23276   1.114   2.880   9.064  0.6443  0.5942  0.0404
  934MOL0     H23277   0.877   2.785   9.085  2.6312 -0.3836  1.6400
  934MOL0     H23278   0.481   2.853   8.940 -0.1613  0.5412  1.9213
  934MOL0     H23279   0.572   2.979   8.846 -1.3404  0.8081  0.3122
  934MOL0     H23280   0.480   2.985   9.139  0.1853  1.4250  0.3027
  934MOL0     H23281   0.566   3.118   9.069  1.8034 -2.5127 -0.9615
  934MOL0     H23282   0.302   3.098   9.092 -0.4265 -1.7759 -0.6020
  934MOL0     H23283   0.302   3.044   8.933 -0.3086 -0.4439  0.8667
  934MOL0     H23284   0.265   3.282   8.932  0.0474  1.0674 -1.1070
  934MOL0     H23285   0.413   3.311   9.021 -1.0635 -0.9090  0.6941
  934MOL0     H23286   0.481   3.293   8.603  1.7038  1.8771  0.4598
  934MOL0     H23287   0.713   3.117   8.886 -0.9896 -1.1180 -0.6329
  934MOL0     H23288   0.936   3.214   8.849 -0.0076 -1.0169 -1.5904
  935MOL0     O23289   9.811   2.883   1.904  0.3513 -0.1294  0.2472
  935MOL0     C23290   9.857   2.834   1.797  0.3728  0.2449 -0.5456
  935MOL0     O23291   9.781   2.790   1.691 -0.8403  0.3396 -0.1318
  935MOL0     C23292   9.646   2.778   1.694  0.2304 -0.5085 -0.1561
  935MOL0     C23293   9.580   2.824   1.581  0.6967  0.4254 -0.4724
  935MOL0     C23294   9.443   2.826   1.576  0.6880  0.1436  0.0414
  935MOL0     C23295   9.373   2.767   1.684  0.1087 -0.2625  0.3673
  935MOL0     O23296   9.237   2.772   1.671 -0.8593  0.2198 -0.2757
  935MOL0     C23297   9.159   2.763   1.794  0.0548  0.4501 -0.2761
  935MOL0     C23298   9.011   2.789   1.752  0.0897  0.7773 -0.5083
  935MOL0     C23299   8.919   2.782   1.873 -0.0207  0.2421  1.1269
  935MOL0     C23300   8.779   2.828   1.831 -0.0588  0.4927 -0.2817
  935MOL0     C23301   8.707   2.702   1.801  0.4127  0.0693 -0.1388
  935MOL0     C23302   8.564   2.728   1.748  0.3206 -0.6652  0.0711
  935MOL0     C23303   8.490   2.600   1.712  0.5612 -0.0273 -0.2286
  935MOL0     C23304   8.394   2.617   1.587 -0.3726  0.1247  0.0348
  935MOL0     N23305   8.346   2.494   1.524 -0.3576 -0.0633 -0.0507
  935MOL0     C23306   8.271   2.395   1.584 -0.0667 -0.2817 -0.2471
  935MOL0     C23307   8.236   2.311   1.487 -0.8988 -0.4870  0.6244
  935MOL0     C23308   8.134   2.197   1.470 -0.2343  0.5137 -0.6048
  935MOL0     C23309   7.997   2.224   1.536  0.7466 -1.1530 -0.1876
  935MOL0     C23310   7.918   2.336   1.456 -0.2608  0.3916  0.0160
  935MOL0     C23311   7.795   2.377   1.535  0.2154 -0.1803 -0.0331
  935MOL0     O23312   7.731   2.476   1.451 -0.0886 -0.4533 -0.2786
  935MOL0     C23313   7.602   2.513   1.477 -0.7037 -0.1580  0.3208
  935MOL0     C23314   7.534   2.471   1.601  0.1022  1.1043 -0.4588
  935MOL0     C23315   7.397   2.498   1.619 -0.1551 -0.2548 -0.1315
  935MOL0     C23316   7.323   2.573   1.524  0.5862  0.5518 -0.2158
  935MOL0     C23317   7.183   2.611   1.549  0.8590 -0.1822  0.0864
  935MOL0     O23318   7.138   2.737   1.506 -0.2466 -0.0496 -1.1871
  935MOL0     C23319   7.017   2.772   1.544  0.6008 -0.4859  0.5747
  935MOL0     C23320   7.006   2.876   1.632 -0.9323 -0.7825 -0.1898
  935MOL0     C23321   6.887   2.931   1.663 -0.0252  0.0973  0.8558
  935MOL0     C23322   6.766   2.882   1.609 -0.3301 -0.5124  0.1181
  935MOL0     O23323   6.656   2.951   1.651 -0.4219  0.1338 -0.2181
  935MOL0     C23324   6.542   2.908   1.585  0.0511 -0.2435  0.2175
  935MOL0     C23325   6.430   3.011   1.612  0.1540 -0.3310  0.3458
  935MOL0     C23326   6.291   2.944   1.592 -0.5682  0.3669  0.4617
  935MOL0     C23327   6.173   3.050   1.573  0.1669 -0.1516  0.2630
  935MOL0     C23328   6.055   2.989   1.504 -0.3036 -0.9822 -0.5124
  935MOL0     C23329   5.938   3.093   1.504 -0.3264 -0.1326  0.1861
  935MOL0     C23330   5.806   3.028   1.487 -0.3237  0.1056 -1.2225
  935MOL0     C23331   5.689   3.126   1.492  0.3937  0.6211 -0.1541
  935MOL0    Cl23332   5.539   3.043   1.560 -0.2718 -0.1413  0.5362
  935MOL0     C23333   6.775   2.761   1.535  0.1498  0.0535 -0.3232
  935MOL0     C23334   6.903   2.707   1.501  0.3078  0.2213 -0.2744
  935MOL0     O23335   7.106   2.525   1.607 -0.2182 -0.3084 -0.1807
  935MOL0     C23336   7.391   2.614   1.406  0.4765  0.2544 -0.1273
  935MOL0     C23337   7.524   2.582   1.390 -0.0342 -0.1580 -0.0133
  935MOL0     N23338   8.292   2.357   1.369 -0.3092  0.7594 -0.1799
  935MOL0     N23339   8.363   2.458   1.392 -0.2177  0.2966 -0.2325
  935MOL0     C23340   9.437   2.708   1.794 -0.8445 -0.4426 -0.0703
  935MOL0     C23341   9.577   2.710   1.791 -0.1043 -0.9507 -0.3895
  935MOL0     C23342  10.008   2.819   1.787  0.5317  0.2526 -1.2200
  935MOL0     C23343  10.089   2.893   1.878 -0.4658  0.1707  0.5575
  935MOL0     C23344  10.225   2.875   1.882 -0.1790  0.5778  0.3748
  935MOL0     C23345  10.290   2.784   1.791  0.5242 -0.1480  0.2494
  935MOL0     O23346  10.429   2.783   1.801  0.3998  0.3774  0.0665
  935MOL0     C23347  10.489   2.753   1.673  0.4123  0.7164 -0.1655
  935MOL0     C23348  10.635   2.801   1.653 -0.1694 -0.7186  0.6153
  935MOL0     C23349  10.647   2.945   1.655 -0.3682  0.2429  0.3918
  935MOL0     C23350  10.802   2.992   1.633 -0.1774 -1.3282  0.0210
  935MOL0     C23351  10.833   2.987   1.492 -0.0098 -0.2150 -0.2420
  935MOL0     C23352  10.874   2.993   1.373  0.8060  0.4076 -0.5798
  935MOL0     C23353  10.209   2.710   1.705  1.1027 -0.6240  0.1003
  935MOL0     C23354  10.073   2.730   1.701 -0.2423  0.0949  0.0736
  935MOL0     H23355   9.643   2.855   1.498  0.8199  1.0956 -0.1354
  935MOL0     H23356   9.389   2.867   1.491  0.3768  1.2522  0.7458
  935MOL0     H23357   9.195   2.832   1.871  4.0531 -1.2627 -0.3969
  935MOL0     H23358   9.152   2.659   1.829 -0.2889  0.5605 -0.0121
  935MOL0     H23359   8.995   2.698   1.693  0.2782  1.2736 -1.3567
  935MOL0     H23360   8.995   2.882   1.695 -1.5575 -0.6400 -2.5299
  935MOL0     H23361   8.953   2.862   1.939 -0.7147  0.1022  1.6508
  935MOL0     H23362   8.925   2.687   1.926 -0.7285  0.1971  1.1269
  935MOL0     H23363   8.730   2.876   1.916  3.3989  2.3111  0.8937
  935MOL0     H23364   8.778   2.897   1.745 -0.8408  1.3302  0.3789
  935MOL0     H23365   8.703   2.632   1.885  3.1765  0.2173  0.1947
  935MOL0     H23366   8.766   2.653   1.722 -0.0992 -0.5905 -0.1271
  935MOL0     H23367   8.575   2.795   1.662 -2.3810 -1.0961 -0.7199
  935MOL0     H23368   8.506   2.790   1.817  1.0197  0.7547 -0.5742
  935MOL0     H23369   8.568   2.528   1.686  0.7062  0.5875 -1.5920
  935MOL0     H23370   8.435   2.561   1.798 -0.8762  0.8397 -0.7172
  935MOL0     H23371   8.437   2.680   1.509 -0.9172 -1.4741 -1.6358
  935MOL0     H23372   8.305   2.668   1.623 -1.1179 -0.5978 -0.7541
  935MOL0     H23373   8.230   2.399   1.684  1.0870 -0.3513  0.2524
  935MOL0     H23374   8.180   2.105   1.507 -2.9574 -1.2071 -1.2077
  935MOL0     H23375   8.120   2.178   1.363  2.1618 -0.0204 -0.8717
  935MOL0     H23376   8.014   2.258   1.638  1.6241  0.7728 -0.9405
  935MOL0     H23377   7.938   2.131   1.543 -0.2915 -0.5484 -0.6171
  935MOL0     H23378   7.966   2.434   1.455 -0.6932  0.7727  3.3967
  935MOL0     H23379   7.896   2.310   1.352 -3.1609 -1.2548  0.9038
  935MOL0     H23380   7.828   2.425   1.627 -2.7310 -1.6375  1.9258
  935MOL0     H23381   7.739   2.289   1.566 -2.6060  1.3455 -0.4956
  935MOL0     H23382   7.581   2.395   1.663 -0.2750  1.7188  0.6161
  935MOL0     H23383   7.365   2.449   1.710 -0.8182 -2.0492 -1.2795
  935MOL0     H23384   7.102   2.913   1.666 -0.5592 -2.8315  1.2074
  935MOL0     H23385   6.882   3.012   1.736  1.8173  1.3164 -0.2755
  935MOL0     H23386   6.504   2.817   1.633 -6.9773  3.4400  3.2599
  935MOL0     H23387   6.553   2.889   1.478 -0.4871 -1.1359  0.3066
  935MOL0     H23388   6.445   3.092   1.540  2.8852 -1.3362 -0.3509
  935MOL0     H23389   6.443   3.058   1.710  0.5186 -0.7295  0.4907
  935MOL0     H23390   6.267   2.880   1.678  0.1143  0.5514  0.8020
  935MOL0     H23391   6.292   2.874   1.508 -1.1134 -0.4184  1.0940
  935MOL0     H23392   6.139   3.089   1.670 -1.5899  0.9239 -0.7354
  935MOL0     H23393   6.217   3.132   1.516  1.4338 -0.7428  0.3564
  935MOL0     H23394   6.025   2.903   1.565  0.7999 -1.1492 -0.1738
  935MOL0     H23395   6.074   2.954   1.402 -1.6799 -0.8414 -0.8351
  935MOL0     H23396   5.945   3.161   1.418  1.2515  1.5550  1.5477
  935MOL0     H23397   5.941   3.155   1.594  3.4044  0.4751 -0.1988
  935MOL0     H23398   5.805   2.976   1.391  0.6578  3.0660 -2.9638
  935MOL0     H23399   5.807   2.952   1.566  1.0405 -1.0474 -2.2906
  935MOL0     H23400   5.676   3.158   1.388  1.4736  0.1786 -0.4457
  935MOL0     H23401   5.702   3.219   1.549 -0.3503  1.7219 -1.7065
  935MOL0     H23402   6.690   2.716   1.487  0.2326  0.2053 -0.6142
  935MOL0     H23403   6.913   2.624   1.432  3.0986  0.0569  0.2183
  935MOL0     H23404   7.328   2.667   1.335  0.6987  1.0189  0.2285
  935MOL0     H23405   7.585   2.615   1.306  0.7967  0.6974  0.8923
  935MOL0     H23406   9.395   2.648   1.874  1.1117  2.6246  3.5410
  935MOL0     H23407   9.629   2.672   1.879 -4.1849 -1.9573  1.8917
  935MOL0     H23408  10.041   2.958   1.951 -1.9806 -0.8593  0.5230
  935MOL0     H23409  10.293   2.931   1.946 -0.1617  0.8003  0.1661
  935MOL0     H23410  10.429   2.789   1.589 -2.3782 -1.4323  0.7362
  935MOL0     H23411  10.485   2.644   1.661  1.8365  0.6640 -0.2696
  935MOL0     H23412  10.701   2.762   1.730  2.3028  0.2837 -0.8914
  935MOL0     H23413  10.663   2.758   1.556  0.9771 -0.1364  0.6762
  935MOL0     H23414  10.625   2.974   1.758  2.4635 -0.8005  1.3967
  935MOL0     H23415  10.582   3.002   1.588  0.2197  1.1649  0.5802
  935MOL0     H23416  10.813   3.098   1.658  2.6143 -1.3182 -0.8233
  935MOL0     H23417  10.874   2.941   1.697  0.3478 -0.5068  0.1010
  935MOL0     H23418  10.907   2.991   1.271 -1.6207  3.9309 -1.6190
  935MOL0     H23419  10.260   2.656   1.626 -1.0717 -0.7841 -1.2560
  935MOL0     H23420  10.012   2.675   1.631  0.0132 -1.0358  0.7123
  936MOL0     O23421   0.679   9.182   2.952 -0.0500  0.1613 -0.1924
  936MOL0     C23422   0.693   9.101   3.048 -0.3104  0.7441  0.5123
  936MOL0     O23423   0.601   9.012   3.094  0.1414 -0.4297  0.4177
  936MOL0     C23424   0.485   9.004   3.018  0.7236 -0.3012 -0.2139
  936MOL0     C23425   0.466   8.986   2.880 -0.5114 -0.5200 -0.1127
  936MOL0     C23426   0.344   8.970   2.818  0.2528  0.0660  0.0303
  936MOL0     C23427   0.229   8.974   2.896 -0.2432  0.6401 -0.0052
  936MOL0     O23428   0.101   8.951   2.849 -0.6340 -0.4461  0.1341
  936MOL0     C23429   0.071   8.997   2.718 -0.0568 -0.6826  0.3795
  936MOL0     C23430  -0.076   8.961   2.688  0.3514  0.3544  0.4763
  936MOL0     C23431  -0.173   9.061   2.766 -0.3831 -0.0571 -0.0397
  936MOL0     C23432  -0.320   9.019   2.798  0.1654  0.3231  0.0534
  936MOL0     C23433  -0.416   9.028   2.677 -0.1514  0.1278  0.3545
  936MOL0     C23434  -0.553   8.974   2.705 -0.1601  0.4103  1.2373
  936MOL0     C23435  -0.645   8.989   2.579 -0.2034 -0.3172  0.1787
  936MOL0     C23436  -0.772   8.904   2.593  0.1648 -0.5809  0.2032
  936MOL0     N23437  -0.887   8.943   2.504  0.5746 -0.0204 -0.4135
  936MOL0     C23438  -0.942   8.867   2.403  0.7288 -1.8815 -0.9696
  936MOL0     C23439  -1.055   8.928   2.374  0.6264  0.7816 -0.2245
  936MOL0     C23440  -1.134   8.884   2.253  1.1176 -0.4791 -0.2829
  936MOL0     C23441  -1.127   8.981   2.135  0.5324 -0.0353  0.4503
  936MOL0     C23442  -1.193   8.927   2.008  0.4296  0.4252  0.5273
  936MOL0     C23443  -1.337   8.969   1.991 -0.4989  0.1993  0.4659
  936MOL0     O23444  -1.378   8.943   1.855 -0.2570 -0.9453 -0.5046
  936MOL0     C23445  -1.511   8.945   1.828  0.7434 -0.0820 -0.5982
  936MOL0     C23446  -1.621   8.964   1.923  0.3516  0.2933 -0.1067
  936MOL0     C23447  -1.745   8.967   1.865  0.4952 -0.6116  0.0633
  936MOL0     C23448  -1.773   8.933   1.733  0.3670 -0.3807  0.5180
  936MOL0     C23449  -1.910   8.928   1.681  0.0732  0.0144 -0.2946
  936MOL0     O23450  -1.933   8.949   1.548 -0.5208  0.0226  0.1039
  936MOL0     C23451  -2.058   8.934   1.494 -0.1653 -0.4917 -0.2594
  936MOL0     C23452  -2.171   8.996   1.541 -1.0508  0.6293 -0.3018
  936MOL0     C23453  -2.294   8.981   1.485  0.2782 -0.4630  1.4567
  936MOL0     C23454  -2.304   8.901   1.364 -0.7688  0.5578 -0.6154
  936MOL0     O23455  -2.431   8.881   1.316 -0.1676 -0.0897 -0.3657
  936MOL0     C23456  -2.453   8.851   1.177 -0.0964  0.3929  0.1189
  936MOL0     C23457  -2.607   8.858   1.162  0.4508 -0.4453 -0.1521
  936MOL0     C23458  -2.664   9.005   1.163 -0.0136 -0.2667 -0.1045
  936MOL0     C23459  -2.813   8.998   1.141 -0.1853 -0.6005  0.1446
  936MOL0     C23460  -2.887   9.136   1.144  0.1934  0.0175  0.2959
  936MOL0     C23461  -3.038   9.116   1.088 -0.6513 -0.3120 -0.6030
  936MOL0     C23462  -3.096   9.248   1.054 -0.0466 -0.2041 -0.2709
  936MOL0     C23463  -3.250   9.242   1.047 -0.4230  0.1933  0.6178
  936MOL0    Cl23464  -3.295   9.180   0.883 -0.2941  0.1461 -0.0878
  936MOL0     C23465  -2.190   8.842   1.317  0.2724 -0.0086  0.9756
  936MOL0     C23466  -2.064   8.858   1.376  0.5776 -0.1327 -0.5777
  936MOL0     O23467  -1.995   8.895   1.764 -0.4664  0.0840  0.3209
  936MOL0     C23468  -1.665   8.901   1.643 -0.1785  0.4955 -0.6494
  936MOL0     C23469  -1.536   8.920   1.694 -0.0008 -0.0879  0.3926
  936MOL0     N23470  -1.073   9.044   2.453  0.2600 -0.4673  0.3766
  936MOL0     N23471  -0.967   9.050   2.529 -0.2137  0.6365 -0.3602
  936MOL0     C23472   0.242   8.994   3.032 -0.0279  0.3591 -0.2212
  936MOL0     C23473   0.365   9.008   3.095  0.6771 -1.2457 -0.1056
  936MOL0     C23474   0.810   9.101   3.132  0.2292 -0.1931 -0.5915
  936MOL0     C23475   0.928   9.178   3.090  0.3010  0.2078 -0.6492
  936MOL0     C23476   1.048   9.176   3.162 -0.4266  0.2955 -0.1481
  936MOL0     C23477   1.059   9.109   3.282 -0.2063 -0.2033  0.8664
  936MOL0     O23478   1.172   9.098   3.359 -0.1667 -0.1874 -0.3444
  936MOL0     C23479   1.272   9.200   3.350 -0.5777 -0.1073  0.3380
  936MOL0     C23480   1.359   9.187   3.477  1.0164  0.8764  0.7658
  936MOL0     C23481   1.282   9.201   3.610 -0.1618 -0.4222 -0.3162
  936MOL0     C23482   1.365   9.269   3.720 -0.3622  0.2136 -0.4295
  936MOL0     C23483   1.479   9.177   3.749  0.0807  1.0173 -0.0908
  936MOL0     C23484   1.564   9.091   3.774  0.1073 -0.2867 -0.3358
  936MOL0     C23485   0.951   9.035   3.327 -0.0309 -0.7529  0.2627
  936MOL0     C23486   0.826   9.032   3.260 -0.4386 -0.1193  1.1831
  936MOL0     H23487   0.552   8.990   2.814  0.7814 -2.6677  1.3328
  936MOL0     H23488   0.336   8.962   2.710  1.7669  1.6937 -0.2492
  936MOL0     H23489   0.138   8.963   2.638 -1.2485  1.5076 -1.6621
  936MOL0     H23490   0.080   9.106   2.722 -0.0327 -0.6664 -0.1378
  936MOL0     H23491  -0.107   8.858   2.708  0.9461  0.0683 -0.0317
  936MOL0     H23492  -0.096   8.984   2.583 -1.8062  0.5872  0.8968
  936MOL0     H23493  -0.171   9.161   2.722 -1.9145  0.0947  0.1954
  936MOL0     H23494  -0.127   9.093   2.860  1.0474  1.9053 -1.3364
  936MOL0     H23495  -0.326   8.914   2.826 -1.9779  0.5469  0.6124
  936MOL0     H23496  -0.358   9.072   2.886 -0.8519  0.2849 -0.3526
  936MOL0     H23497  -0.357   8.982   2.598  0.2960 -1.2388  1.4497
  936MOL0     H23498  -0.432   9.132   2.646 -3.3266 -0.5273 -0.6374
  936MOL0     H23499  -0.591   9.022   2.795 -3.4856 -0.9147  0.6882
  936MOL0     H23500  -0.533   8.872   2.741 -3.1666 -0.9925 -0.6668
  936MOL0     H23501  -0.661   9.097   2.579  1.3716  0.0034 -2.2204
  936MOL0     H23502  -0.592   8.967   2.486  0.4098 -1.2379  0.7302
  936MOL0     H23503  -0.817   8.919   2.691  2.0960  2.1575  0.7870
  936MOL0     H23504  -0.747   8.803   2.558  0.7062 -0.0564 -1.0051
  936MOL0     H23505  -0.896   8.778   2.362 -1.3014 -3.6381  0.4194
  936MOL0     H23506  -1.239   8.878   2.284  1.4110  3.5995  2.2769
  936MOL0     H23507  -1.101   8.785   2.220 -0.5955 -0.4136 -2.4460
  936MOL0     H23508  -1.021   8.999   2.119  0.7091 -2.3269 -1.4804
  936MOL0     H23509  -1.162   9.081   2.161  2.0652  0.2588  1.5111
  936MOL0     H23510  -1.146   8.971   1.920 -1.1831  1.9371  0.3621
  936MOL0     H23511  -1.203   8.818   2.015 -1.6961  0.4465 -1.1632
  936MOL0     H23512  -1.343   9.075   2.017 -0.0106  0.8428 -1.7790
  936MOL0     H23513  -1.394   8.896   2.050 -0.7585  0.6588  0.7858
  936MOL0     H23514  -1.613   8.964   2.031 -2.1679 -2.0741  0.2153
  936MOL0     H23515  -1.833   8.998   1.920  0.1174  0.0701 -0.9034
  936MOL0     H23516  -2.139   9.060   1.623  1.5295  0.8758 -1.4253
  936MOL0     H23517  -2.381   9.015   1.539  0.2385  0.7782  0.6573
  936MOL0     H23518  -2.426   8.751   1.143  1.0615  0.9781 -0.7516
  936MOL0     H23519  -2.397   8.922   1.116  1.4403 -1.2467 -0.4529
  936MOL0     H23520  -2.657   8.799   1.239  2.2094 -2.6505 -0.5849
  936MOL0     H23521  -2.630   8.811   1.065  0.5596  2.8585 -1.9227
  936MOL0     H23522  -2.607   9.050   1.081  0.7926 -1.7235 -0.3748
  936MOL0     H23523  -2.638   9.056   1.256 -1.7981 -0.6473  0.6376
  936MOL0     H23524  -2.840   8.948   1.047 -0.4578 -0.7382  0.2941
  936MOL0     H23525  -2.844   8.938   1.227  1.5473  1.0143  1.9876
  936MOL0     H23526  -2.839   9.213   1.083  1.6266 -1.1683 -0.1356
  936MOL0     H23527  -2.885   9.170   1.248  2.3291 -1.4954  0.8027
  936MOL0     H23528  -3.096   9.069   1.168 -0.3184  1.1300  0.5363
  936MOL0     H23529  -3.035   9.062   0.993  0.4747  1.6923 -1.7695
  936MOL0     H23530  -3.059   9.327   1.119  0.8477  0.2926 -1.3586
  936MOL0     H23531  -3.047   9.281   0.962 -1.0206  0.2330 -0.6509
  936MOL0     H23532  -3.286   9.345   1.056  0.6960  0.4238  3.3583
  936MOL0     H23533  -3.293   9.181   1.127  1.2434  1.4487  2.5601
  936MOL0     H23534  -2.216   8.788   1.226 -3.0168  1.1521  1.0723
  936MOL0     H23535  -1.977   8.817   1.327  1.3943  0.1748  0.5599
  936MOL0     H23536  -1.684   8.852   1.548 -1.3472 -4.5191  1.8445
  936MOL0     H23537  -1.452   8.914   1.626 -0.3191  1.1360 -0.1406
  936MOL0     H23538   0.156   9.006   3.096  0.8950  2.6120  0.6809
  936MOL0     H23539   0.367   9.038   3.199  1.4696  0.7984 -0.6512
  936MOL0     H23540   0.931   9.235   2.998 -0.3098  0.7741 -0.3306
  936MOL0     H23541   1.139   9.217   3.121  0.0617 -3.4487 -3.4241
  936MOL0     H23542   1.237   9.303   3.347  2.6903  1.1294 -0.2621
  936MOL0     H23543   1.340   9.193   3.264 -1.0027 -0.0770 -0.0056
  936MOL0     H23544   1.412   9.091   3.483 -4.1300 -2.5108 -1.5102
  936MOL0     H23545   1.430   9.268   3.460  1.2529  0.4518 -0.3336
  936MOL0     H23546   1.250   9.101   3.640 -1.2593  0.3967  1.3338
  936MOL0     H23547   1.198   9.268   3.590  1.2078  1.2023 -0.8421
  936MOL0     H23548   1.385   9.373   3.694 -0.9392  0.6276  0.7338
  936MOL0     H23549   1.309   9.275   3.814  2.2378 -1.3524  1.3582
  936MOL0     H23550   1.640   9.022   3.805  4.8395  4.0282 -0.8901
  936MOL0     H23551   0.965   8.975   3.416  2.8664 -0.7831 -0.1194
  936MOL0     H23552   0.740   8.977   3.298 -1.2787  0.3497  0.0284
  937MOL0     O23553   7.043   2.300   6.146  0.0323  0.5877  0.5307
  937MOL0     C23554   7.049   2.179   6.177 -0.6343  0.2868 -0.5653
  937MOL0     O23555   6.943   2.098   6.201 -0.2177 -0.1698  0.5966
  937MOL0     C23556   6.821   2.141   6.160 -0.0456 -0.5287 -0.0517
  937MOL0     C23557   6.784   2.226   6.053 -0.7304  0.3406  0.0447
  937MOL0     C23558   6.640   2.244   6.030 -0.4773  0.2053  0.2720
  937MOL0     C23559   6.541   2.184   6.115  0.1120 -0.5594  0.6477
  937MOL0     O23560   6.409   2.211   6.095 -0.6506 -0.7972 -0.0796
  937MOL0     C23561   6.318   2.097   6.084  0.6142  0.5544 -0.1002
  937MOL0     C23562   6.174   2.135   6.054  0.0101 -0.3562 -0.8639
  937MOL0     C23563   6.153   2.190   5.915  0.8810  0.3350  0.6997
  937MOL0     C23564   6.014   2.262   5.903 -0.2721 -0.6926  0.2808
  937MOL0     C23565   5.896   2.166   5.911  0.1754  0.3183  0.4072
  937MOL0     C23566   5.760   2.243   5.884 -0.4720 -0.1829  0.1302
  937MOL0     C23567   5.643   2.141   5.864 -0.0135  0.1261  0.7790
  937MOL0     C23568   5.510   2.220   5.844 -0.0465 -0.1235 -0.0667
  937MOL0     N23569   5.413   2.121   5.808  0.3776 -0.1058  0.3189
  937MOL0     C23570   5.341   2.050   5.899  1.1108  0.2097 -0.6070
  937MOL0     C23571   5.253   1.971   5.833  0.0466  0.3847 -0.4996
  937MOL0     C23572   5.159   1.866   5.890 -0.0718  0.5780 -0.1505
  937MOL0     C23573   5.067   1.932   6.003  0.2150 -0.4330  0.4899
  937MOL0     C23574   4.994   2.057   5.959 -0.2368  1.2855 -0.4137
  937MOL0     C23575   4.924   2.040   5.824 -0.7023 -0.0126 -0.6491
  937MOL0     O23576   4.839   1.933   5.833  0.3288 -0.6275 -0.1107
  937MOL0     C23577   4.705   1.970   5.861  0.6421 -0.6146  0.5745
  937MOL0     C23578   4.621   2.004   5.759  0.2840 -0.9627 -0.0650
  937MOL0     C23579   4.484   2.041   5.776  0.2859 -0.0156 -1.0896
  937MOL0     C23580   4.420   2.017   5.899 -0.7371  0.3719  0.7823
  937MOL0     C23581   4.276   2.007   5.906 -0.4595  0.0525  0.3243
  937MOL0     O23582   4.215   1.984   6.027 -0.0055  0.1844 -0.2329
  937MOL0     C23583   4.084   1.951   6.031 -0.2899 -0.3932  0.3784
  937MOL0     C23584   3.991   2.053   6.027  0.1871  0.1654  0.6829
  937MOL0     C23585   3.849   2.019   6.024  0.4232 -0.0252  0.4730
  937MOL0     C23586   3.810   1.885   6.031  0.3661 -0.6768 -0.2056
  937MOL0     O23587   3.682   1.844   6.052 -0.2294 -0.5749 -0.6817
  937MOL0     C23588   3.577   1.927   6.006  0.3333  0.6488  0.5475
  937MOL0     C23589   3.454   1.861   6.063  0.2913 -0.1377  0.6497
  937MOL0     C23590   3.428   1.886   6.205  0.6434 -0.1182 -0.7100
  937MOL0     C23591   3.303   1.802   6.249  0.3601 -0.2813 -0.3072
  937MOL0     C23592   3.172   1.883   6.245 -0.8812 -0.1907 -0.8671
  937MOL0     C23593   3.065   1.807   6.316  0.1864  0.7057  0.0215
  937MOL0     C23594   2.929   1.880   6.311 -0.1422 -0.5480  0.0247
  937MOL0     C23595   2.839   1.781   6.375 -0.0189 -0.8408  0.9701
  937MOL0    Cl23596   2.668   1.816   6.354 -0.5910  0.2289 -0.5318
  937MOL0     C23597   3.912   1.786   6.030 -0.0160  0.9308 -0.3600
  937MOL0     C23598   4.048   1.818   6.021 -0.1545 -0.6059  0.2957
  937MOL0     O23599   4.215   2.023   5.801 -0.5592 -0.0038 -0.1786
  937MOL0     C23600   4.508   1.991   6.004 -0.3013  0.0271 -0.0047
  937MOL0     C23601   4.648   1.977   5.992  0.0606  0.3415  0.8642
  937MOL0     N23602   5.281   1.993   5.694  0.2600 -0.7372 -0.1369
  937MOL0     N23603   5.375   2.083   5.683 -0.0130 -0.5309  0.5589
  937MOL0     C23604   6.581   2.100   6.219  0.3130 -0.2381 -0.1726
  937MOL0     C23605   6.719   2.078   6.236 -0.0541 -0.5848  0.3494
  937MOL0     C23606   7.179   2.115   6.201  0.1338  0.4246  0.6173
  937MOL0     C23607   7.199   1.976   6.205  0.0052  0.3726  0.4938
  937MOL0     C23608   7.324   1.919   6.231  0.5464  0.0027  0.0500
  937MOL0     C23609   7.432   1.997   6.258 -0.0987  0.1026  0.6330
  937MOL0     O23610   7.562   1.963   6.278  0.6002  0.0905 -0.3854
  937MOL0     C23611   7.598   1.823   6.300 -0.1985 -0.0268  0.1024
  937MOL0     C23612   7.740   1.826   6.367 -0.2023 -0.8978 -0.0030
  937MOL0     C23613   7.826   1.696   6.350  0.1277 -0.0221  0.5299
  937MOL0     C23614   7.963   1.717   6.390 -0.2032 -0.2110 -0.3041
  937MOL0     C23615   7.981   1.714   6.541  0.3348 -0.7221  0.7788
  937MOL0     C23616   8.004   1.716   6.658  0.9403 -0.0452  0.0028
  937MOL0     C23617   7.412   2.135   6.253 -0.3149  0.4984  0.1302
  937MOL0     C23618   7.289   2.192   6.223  0.7211 -0.0867 -0.8389
  937MOL0     H23619   6.854   2.253   5.975 -1.4967  0.2092 -0.7022
  937MOL0     H23620   6.602   2.304   5.947  1.0376 -1.1222 -1.4581
  937MOL0     H23621   6.318   2.039   6.176  2.8342 -0.5067 -0.6905
  937MOL0     H23622   6.358   2.029   6.008  0.9805  0.4267  0.2018
  937MOL0     H23623   6.148   2.214   6.125  0.9808 -0.7694 -0.0297
  937MOL0     H23624   6.103   2.052   6.065 -0.9999  0.5063 -0.6473
  937MOL0     H23625   6.167   2.112   5.839  0.8119  0.4176  0.6013
  937MOL0     H23626   6.235   2.262   5.906 -1.1335  2.8575  1.3699
  937MOL0     H23627   6.005   2.336   5.984  0.8976 -0.0232 -0.1834
  937MOL0     H23628   6.015   2.326   5.814 -0.0714  2.7183  2.5267
  937MOL0     H23629   5.885   2.118   6.008  0.4709 -2.0534 -0.6680
  937MOL0     H23630   5.917   2.090   5.835 -0.5658  0.9049 -0.4125
  937MOL0     H23631   5.763   2.308   5.795  2.2433  0.6167  0.6974
  937MOL0     H23632   5.736   2.307   5.969  1.1228 -1.2011  1.4003
  937MOL0     H23633   5.672   2.065   5.791  3.6018  0.5645  1.5722
  937MOL0     H23634   5.622   2.085   5.956  0.4048  0.2082  0.9240
  937MOL0     H23635   5.519   2.302   5.772 -0.6916  0.5028  0.5469
  937MOL0     H23636   5.485   2.277   5.934 -0.0531  0.4431 -0.4228
  937MOL0     H23637   5.340   2.052   6.008 -0.3213 -2.3179 -0.5073
  937MOL0     H23638   5.206   1.778   5.934  0.2435  1.1994  0.7891
  937MOL0     H23639   5.114   1.816   5.804  3.5862 -0.6358 -1.5566
  937MOL0     H23640   5.133   1.958   6.086 -0.3073 -0.1345  0.8232
  937MOL0     H23641   4.989   1.861   6.033  0.0085 -0.3193  0.2208
  937MOL0     H23642   4.919   2.079   6.035 -4.0382 -0.9395 -3.1384
  937MOL0     H23643   5.064   2.140   5.952  1.8648 -0.2098  1.3960
  937MOL0     H23644   5.000   2.020   5.747 -0.4276 -0.5992 -0.2366
  937MOL0     H23645   4.878   2.133   5.790  1.6870  1.1880 -0.7913
  937MOL0     H23646   4.664   2.008   5.659  1.4744 -1.0400  0.4335
  937MOL0     H23647   4.439   2.079   5.685  1.7215  2.7366 -0.7630
  937MOL0     H23648   4.020   2.157   6.025 -1.5766  0.6665 -0.5561
  937MOL0     H23649   3.788   2.109   6.021  0.3798 -0.0647 -1.6678
  937MOL0     H23650   3.572   1.923   5.897  1.4533  0.6589  0.4887
  937MOL0     H23651   3.589   2.032   6.033 -0.1997  1.2257 -1.3559
  937MOL0     H23652   3.469   1.753   6.049 -0.9298 -0.7536  3.5078
  937MOL0     H23653   3.365   1.895   6.010  0.7334  1.6064  0.9600
  937MOL0     H23654   3.409   1.992   6.221  0.3040 -0.4954  1.8059
  937MOL0     H23655   3.510   1.849   6.267 -1.2438  0.8561  2.6242
  937MOL0     H23656   3.287   1.709   6.193 -2.0944 -0.9249  1.2967
  937MOL0     H23657   3.313   1.772   6.354 -0.2746  0.5770  0.0106
  937MOL0     H23658   3.146   1.902   6.141  0.4040 -3.9906 -2.0710
  937MOL0     H23659   3.181   1.975   6.303 -1.8241 -0.8827  0.4261
  937MOL0     H23660   3.090   1.803   6.422  1.8280  1.0359 -0.3246
  937MOL0     H23661   3.054   1.708   6.272  0.0482  0.8063 -0.1756
  937MOL0     H23662   2.937   1.970   6.372  1.7932  0.8653 -2.1177
  937MOL0     H23663   2.896   1.901   6.209 -1.5404 -0.8265  0.3929
  937MOL0     H23664   2.863   1.778   6.482  2.8111  2.6457  0.6317
  937MOL0     H23665   2.858   1.677   6.349  0.9143 -0.5905  0.6006
  937MOL0     H23666   3.889   1.679   6.031  1.1481  0.6598  0.8750
  937MOL0     H23667   4.121   1.739   6.008 -0.4505 -0.6808 -1.0931
  937MOL0     H23668   4.463   1.966   6.100 -1.2050 -0.1325 -0.4654
  937MOL0     H23669   4.704   1.962   6.084 -0.4112 -2.7521  0.7584
  937MOL0     H23670   6.511   2.044   6.280  0.4437 -0.8698 -0.5921
  937MOL0     H23671   6.762   2.013   6.311 -0.9619 -1.2146  0.3297
  937MOL0     H23672   7.111   1.917   6.183  0.3940  1.0471 -3.5358
  937MOL0     H23673   7.333   1.811   6.232 -0.0865 -0.0780 -1.0555
  937MOL0     H23674   7.596   1.764   6.207 -1.8134 -1.8925  1.2420
  937MOL0     H23675   7.522   1.785   6.368 -0.3339 -0.4437 -0.2754
  937MOL0     H23676   7.795   1.900   6.308 -1.5671  0.7706  0.6966
  937MOL0     H23677   7.715   1.852   6.471  0.2232  1.7813 -0.5027
  937MOL0     H23678   7.821   1.667   6.245 -1.9716 -1.4939  0.9808
  937MOL0     H23679   7.773   1.618   6.405 -0.2380  0.6767  1.1895
  937MOL0     H23680   8.017   1.637   6.340  0.0184  0.5866 -1.3760
  937MOL0     H23681   8.002   1.814   6.358 -0.9356  0.8033  1.7112
  937MOL0     H23682   8.021   1.720   6.764 -0.1620 -1.2399  0.2494
  937MOL0     H23683   7.491   2.205   6.275 -0.8040  1.9782 -2.3788
  937MOL0     H23684   7.279   2.300   6.231 -0.3569 -0.1015 -1.7099
  938MOL0     O23685   3.100   6.493   6.700  0.5924  0.0018 -0.3839
  938MOL0     C23686   3.212   6.460   6.680 -0.0628 -0.8175  1.0597
  938MOL0     O23687   3.261   6.339   6.726 -0.6405  0.2188 -0.2530
  938MOL0     C23688   3.197   6.272   6.823 -0.1733 -0.5701  0.0029
  938MOL0     C23689   3.190   6.311   6.962  0.6286  0.5425  0.0793
  938MOL0     C23690   3.144   6.227   7.056  0.3351  0.7357 -0.3907
  938MOL0     C23691   3.077   6.108   7.019  0.0339  0.5127  0.0757
  938MOL0     O23692   3.018   6.027   7.117  0.9238 -0.3451 -0.1062
  938MOL0     C23693   3.047   5.889   7.135  0.9615  0.3358  0.1540
  938MOL0     C23694   2.972   5.825   7.243  0.3651 -0.7230  0.0351
  938MOL0     C23695   2.824   5.852   7.224  0.8339  0.4321  0.5152
  938MOL0     C23696   2.755   5.775   7.338  0.0001  0.8315  0.3687
  938MOL0     C23697   2.597   5.773   7.330 -0.2955  0.1105 -0.7206
  938MOL0     C23698   2.526   5.892   7.276  0.1412 -0.1966  0.4236
  938MOL0     C23699   2.384   5.857   7.237  0.0063 -0.6553  0.3184
  938MOL0     C23700   2.304   5.982   7.202  0.3918  0.1634  0.7773
  938MOL0     N23701   2.168   5.955   7.163  0.0827  0.6780  0.3530
  938MOL0     C23702   2.080   5.895   7.250 -0.8047  0.5195 -0.4657
  938MOL0     C23703   1.969   5.865   7.181 -0.0491 -1.0599 -0.1547
  938MOL0     C23704   1.840   5.802   7.235 -0.5570 -0.0914 -0.5571
  938MOL0     C23705   1.700   5.846   7.195 -0.5431  0.5551  0.0324
  938MOL0     C23706   1.680   5.998   7.226  0.1873 -0.3932 -0.1790
  938MOL0     C23707   1.552   6.051   7.165 -0.0186 -0.3218  0.8840
  938MOL0     O23708   1.533   6.189   7.200 -0.1887 -0.0628  0.5042
  938MOL0     C23709   1.398   6.237   7.209 -0.1030  0.1226  0.3214
  938MOL0     C23710   1.288   6.180   7.136  0.3480  0.6394  0.2930
  938MOL0     C23711   1.156   6.233   7.140  0.0166 -0.0007  0.1819
  938MOL0     C23712   1.138   6.351   7.219  0.6373  0.6891  0.8600
  938MOL0     C23713   0.997   6.405   7.238 -0.2726 -0.1630 -0.0823
  938MOL0     O23714   0.909   6.313   7.279 -0.1788  0.1480  0.5071
  938MOL0     C23715   0.794   6.343   7.328  0.0666  0.9494 -0.3799
  938MOL0     C23716   0.681   6.264   7.299 -0.2645 -0.7171  1.1488
  938MOL0     C23717   0.558   6.275   7.357 -0.0880 -0.3184 -0.8254
  938MOL0     C23718   0.534   6.374   7.452  0.0065 -0.4176  0.5368
  938MOL0     O23719   0.405   6.391   7.496 -0.0270  0.3631  0.1106
  938MOL0     C23720   0.387   6.464   7.619 -0.0923  0.0277 -0.2151
  938MOL0     C23721   0.242   6.497   7.646  0.2337 -0.5261  0.2271
  938MOL0     C23722   0.138   6.386   7.632 -0.0858 -0.1031 -0.0031
  938MOL0     C23723  -0.008   6.434   7.655 -0.2180  0.0856  0.0739
  938MOL0     C23724  -0.065   6.506   7.523 -0.0492  0.7143  0.5160
  938MOL0     C23725  -0.196   6.577   7.545  0.2842 -0.2792  0.8056
  938MOL0     C23726  -0.248   6.666   7.426  0.6263  0.0336 -0.1758
  938MOL0     C23727  -0.395   6.702   7.456 -0.0302 -0.2826  0.0157
  938MOL0    Cl23728  -0.426   6.799   7.602 -0.5510 -0.5063  0.0703
  938MOL0     C23729   0.639   6.456   7.489  0.2875  0.0496 -0.0206
  938MOL0     C23730   0.770   6.439   7.434  0.3644  0.5879  0.3426
  938MOL0     O23731   0.975   6.523   7.242  0.1983  0.5519 -0.1781
  938MOL0     C23732   1.241   6.405   7.296 -0.0391 -0.0054  0.5259
  938MOL0     C23733   1.369   6.347   7.287 -0.6984  0.3294  0.0959
  938MOL0     N23734   1.995   5.916   7.051  0.2074  1.2997 -0.3397
  938MOL0     N23735   2.111   5.968   7.041 -0.4707  0.3724  0.8008
  938MOL0     C23736   3.071   6.065   6.883 -0.6223 -0.7490  0.7095
  938MOL0     C23737   3.133   6.157   6.781 -0.1128  0.5016 -0.7116
  938MOL0     C23738   3.279   6.533   6.560 -0.1595  1.2701  0.1258
  938MOL0     C23739   3.406   6.504   6.511  0.4122 -0.0427 -0.2110
  938MOL0     C23740   3.459   6.561   6.395  0.4126 -0.0990  0.4047
  938MOL0     C23741   3.387   6.664   6.329  0.8280  0.4616 -1.0304
  938MOL0     O23742   3.458   6.719   6.224  0.1171 -0.5219  0.2212
  938MOL0     C23743   3.371   6.753   6.111 -0.1330  0.2829  0.8121
  938MOL0     C23744   3.318   6.631   6.033 -1.0840  1.1272  0.5703
  938MOL0     C23745   3.240   6.662   5.898  1.3331  0.4643 -0.4352
  938MOL0     C23746   3.323   6.688   5.776  0.3651  0.1477 -0.8738
  938MOL0     C23747   3.249   6.726   5.649 -0.8252 -0.1956  0.3970
  938MOL0     C23748   3.184   6.766   5.554  0.2533 -0.0498 -0.6244
  938MOL0     C23749   3.259   6.690   6.377  0.1427  0.3067  0.2722
  938MOL0     C23750   3.205   6.624   6.489  0.0678  0.7499 -0.3131
  938MOL0     H23751   3.242   6.403   6.985  1.1840 -0.2670  2.3125
  938MOL0     H23752   3.142   6.274   7.154 -2.8376  0.6289 -0.3091
  938MOL0     H23753   3.154   5.880   7.158  0.6020 -1.0855  1.4234
  938MOL0     H23754   3.033   5.835   7.041  2.0939  2.0509 -1.0551
  938MOL0     H23755   3.007   5.854   7.342 -0.1656 -2.1514  0.6712
  938MOL0     H23756   3.001   5.720   7.237 -1.8934 -1.3196 -3.8291
  938MOL0     H23757   2.794   5.819   7.124 -1.0097  3.0615  0.1012
  938MOL0     H23758   2.785   5.953   7.227 -2.5044 -0.7674  1.9269
  938MOL0     H23759   2.793   5.673   7.335  2.1380  1.5812 -2.2648
  938MOL0     H23760   2.776   5.826   7.433 -0.0755 -0.8284  1.3097
  938MOL0     H23761   2.550   5.759   7.428 -1.7314 -0.4201 -1.4628
  938MOL0     H23762   2.572   5.688   7.266  0.2509  0.1272 -0.9686
  938MOL0     H23763   2.578   5.946   7.196  1.8914  1.3974  2.5012
  938MOL0     H23764   2.508   5.970   7.351 -0.0456  1.4537 -1.2746
  938MOL0     H23765   2.379   5.793   7.149  0.1432  3.3009 -2.8600
  938MOL0     H23766   2.338   5.818   7.329  2.4017 -2.4627  0.8364
  938MOL0     H23767   2.349   6.040   7.121  0.7274 -1.8389 -0.5469
  938MOL0     H23768   2.290   6.033   7.298 -0.6974 -1.4178  1.5147
  938MOL0     H23769   2.108   5.857   7.348  1.6288  2.4150 -0.3287
  938MOL0     H23770   1.823   5.817   7.342 -0.7392 -3.5908 -0.0002
  938MOL0     H23771   1.855   5.694   7.239 -1.1134 -0.2596  5.2257
  938MOL0     H23772   1.626   5.790   7.254 -0.8394  1.1303  0.2078
  938MOL0     H23773   1.680   5.830   7.089 -0.8207  2.8105 -0.2869
  938MOL0     H23774   1.673   6.024   7.332  0.8450 -0.2655 -0.1632
  938MOL0     H23775   1.757   6.060   7.180 -1.7322  0.1724 -2.8812
  938MOL0     H23776   1.468   5.986   7.192 -1.3344  0.0270 -1.9776
  938MOL0     H23777   1.561   6.050   7.056 -1.5912  0.7213  0.7042
  938MOL0     H23778   1.288   6.086   7.081 -0.1669  0.0312  1.3029
  938MOL0     H23779   1.067   6.186   7.101  0.5789 -2.2171  1.3983
  938MOL0     H23780   0.696   6.183   7.228  0.6947 -1.3040  1.9840
  938MOL0     H23781   0.470   6.218   7.332 -0.9010  0.6687 -0.3099
  938MOL0     H23782   0.432   6.563   7.601  1.9079 -1.0751 -1.7093
  938MOL0     H23783   0.439   6.408   7.697 -1.6754 -0.2386  0.6804
  938MOL0     H23784   0.212   6.581   7.582 -0.3992  0.6434  2.0066
  938MOL0     H23785   0.238   6.541   7.746  1.3524 -0.7969  0.4075
  938MOL0     H23786   0.158   6.297   7.692  2.5686 -0.0170 -0.6265
  938MOL0     H23787   0.145   6.350   7.528  0.0554  0.6079 -0.2412
  938MOL0     H23788  -0.053   6.339   7.682  0.9033 -0.8826 -1.3085
  938MOL0     H23789  -0.013   6.503   7.740  0.9779  2.7165 -1.8350
  938MOL0     H23790  -0.080   6.425   7.451 -1.8406 -0.6463  2.3223
  938MOL0     H23791   0.008   6.579   7.487 -0.8079  1.3163  0.1737
  938MOL0     H23792  -0.179   6.655   7.619  1.5577  3.5931 -3.1330
  938MOL0     H23793  -0.272   6.504   7.574 -0.8581  1.1662  1.5992
  938MOL0     H23794  -0.188   6.755   7.404  0.9842  0.3054  1.6968
  938MOL0     H23795  -0.236   6.599   7.341  1.3536 -1.4376  1.0484
  938MOL0     H23796  -0.446   6.606   7.467 -0.1902 -0.2046 -0.0351
  938MOL0     H23797  -0.441   6.749   7.368  0.9586 -0.1146 -0.4278
  938MOL0     H23798   0.627   6.539   7.558 -3.3721 -1.1490  0.9964
  938MOL0     H23799   0.853   6.498   7.471 -0.9377  1.9130  1.2662
  938MOL0     H23800   1.227   6.491   7.360  1.9514  1.7712 -1.2537
  938MOL0     H23801   1.456   6.380   7.342 -0.6941  1.4649 -0.5677
  938MOL0     H23802   3.016   5.982   6.840 -0.8810 -0.0215 -0.4160
  938MOL0     H23803   3.121   6.142   6.674 -1.2245  0.3754 -0.5840
  938MOL0     H23804   3.460   6.428   6.566  0.5241 -1.5273 -2.2587
  938MOL0     H23805   3.549   6.523   6.347  1.0753  1.7937  0.0698
  938MOL0     H23806   3.438   6.810   6.045  0.9032  0.3944  1.9214
  938MOL0     H23807   3.289   6.821   6.133  0.2400  0.9392  0.2375
  938MOL0     H23808   3.399   6.558   6.029 -1.8288  0.1375  2.1352
  938MOL0     H23809   3.258   6.572   6.104  1.3337 -2.7315 -0.3055
  938MOL0     H23810   3.168   6.743   5.910 -0.4111 -0.3814 -3.9746
  938MOL0     H23811   3.184   6.571   5.875 -0.3068  0.8504  1.6914
  938MOL0     H23812   3.380   6.776   5.807  0.2659  0.2449 -0.9668
  938MOL0     H23813   3.394   6.610   5.749  1.4481  1.5476 -2.2947
  938MOL0     H23814   3.132   6.805   5.468  1.2606  2.8987  0.0033
  938MOL0     H23815   3.187   6.749   6.322  1.6439  1.6429 -0.3397
  938MOL0     H23816   3.108   6.656   6.524 -0.4169 -0.5685 -0.3804
  939MOL0     O23817   2.565   2.447   6.427 -0.7453 -0.2202 -0.0593
  939MOL0     C23818   2.682   2.493   6.430  0.1770  0.5476  0.1377
  939MOL0     O23819   2.725   2.605   6.500 -0.3031 -0.0264  0.1029
  939MOL0     C23820   2.630   2.671   6.568  0.0998 -0.0878  0.0066
  939MOL0     C23821   2.635   2.669   6.707  0.0769 -0.5592 -0.0479
  939MOL0     C23822   2.539   2.736   6.785  0.2155  0.6734  0.7379
  939MOL0     C23823   2.427   2.794   6.732  0.9520 -0.7732  0.8104
  939MOL0     O23824   2.336   2.838   6.819  0.2585  0.2068 -0.2922
  939MOL0     C23825   2.217   2.886   6.764 -0.6503 -1.0905 -0.1174
  939MOL0     C23826   2.131   2.934   6.885 -0.5399  0.1080 -0.1982
  939MOL0     C23827   1.995   2.999   6.847 -0.0482  0.2292  0.3098
  939MOL0     C23828   2.007   3.140   6.777  0.8290 -0.1110  0.3349
  939MOL0     C23829   2.070   3.257   6.856  0.1082  0.5433  0.1571
  939MOL0     C23830   1.998   3.267   6.992 -0.0402 -0.1733 -1.3402
  939MOL0     C23831   1.841   3.288   6.972 -0.1306 -0.6899  0.0254
  939MOL0     C23832   1.767   3.308   7.107 -0.0124  0.1812 -0.2974
  939MOL0     N23833   1.789   3.187   7.187 -0.7888 -0.2162 -0.2796
  939MOL0     C23834   1.729   3.067   7.181  0.5527  0.2589 -1.3887
  939MOL0     C23835   1.775   2.991   7.281  0.2652  0.4280  0.6932
  939MOL0     C23836   1.707   2.855   7.310  0.3260 -0.5249  0.9366
  939MOL0     C23837   1.559   2.872   7.340  0.6947  0.8247  0.1996
  939MOL0     C23838   1.503   2.733   7.381 -0.3294  0.4146  0.8993
  939MOL0     C23839   1.372   2.741   7.452  0.2265 -0.2381 -0.3219
  939MOL0     O23840   1.267   2.783   7.365 -0.4520 -0.2255 -0.1042
  939MOL0     C23841   1.140   2.804   7.412  0.9044 -0.0717 -0.2307
  939MOL0     C23842   1.066   2.885   7.327  0.3342  0.0242  0.4256
  939MOL0     C23843   0.943   2.927   7.357  0.1340 -0.5097  1.0355
  939MOL0     C23844   0.880   2.879   7.473 -0.0787 -0.5828 -0.2465
  939MOL0     C23845   0.750   2.927   7.508 -1.0161 -0.4910 -0.7575
  939MOL0     O23846   0.655   2.932   7.409  0.2316  0.1358  0.6471
  939MOL0     C23847   0.539   2.976   7.448 -0.1006 -0.1939  0.1529
  939MOL0     C23848   0.454   2.891   7.517  0.4837  0.6417 -0.6157
  939MOL0     C23849   0.318   2.922   7.529  0.2389  0.2654  0.7843
  939MOL0     C23850   0.264   3.038   7.473  0.5289  0.3109 -0.4831
  939MOL0     O23851   0.130   3.057   7.478 -0.1142  0.2380 -0.2770
  939MOL0     C23852   0.049   3.032   7.597 -0.0998 -0.5701 -0.9588
  939MOL0     C23853  -0.082   3.113   7.601  0.0355  0.4292  0.4871
  939MOL0     C23854  -0.166   3.085   7.481  0.4308  0.1596 -0.4034
  939MOL0     C23855  -0.308   3.133   7.499  0.3020 -0.1834 -0.1925
  939MOL0     C23856  -0.404   3.087   7.392  0.3735 -0.0325 -0.1006
  939MOL0     C23857  -0.544   3.116   7.443 -0.2768  0.3343  0.3201
  939MOL0     C23858  -0.645   3.073   7.337  0.6593  0.7897  0.1635
  939MOL0     C23859  -0.783   3.108   7.367 -0.3431 -0.5200 -0.4011
  939MOL0    Cl23860  -0.851   3.001   7.482 -0.4469  0.0968  0.0939
  939MOL0     C23861   0.353   3.129   7.414  0.9495  0.0928 -0.1473
  939MOL0     C23862   0.486   3.098   7.396 -0.4599  0.7336 -0.3290
  939MOL0     O23863   0.737   2.966   7.626 -0.0050 -0.6172  0.3410
  939MOL0     C23864   0.947   2.789   7.560 -0.1721 -0.0799 -0.1862
  939MOL0     C23865   1.074   2.754   7.528  0.1916  0.0784 -0.0975
  939MOL0     N23866   1.862   3.073   7.344 -0.3969 -0.5719 -0.1520
  939MOL0     N23867   1.880   3.186   7.283 -0.6846  0.1573 -0.1179
  939MOL0     C23868   2.418   2.795   6.587  0.0113  0.0876  0.4270
  939MOL0     C23869   2.520   2.745   6.513 -0.1197  0.2706  0.7356
  939MOL0     C23870   2.787   2.416   6.358 -0.2298  0.0957 -0.1990
  939MOL0     C23871   2.754   2.308   6.279 -0.2067 -0.7050 -0.4904
  939MOL0     C23872   2.843   2.230   6.202 -0.3742 -0.1259  0.0420
  939MOL0     C23873   2.979   2.256   6.214 -1.0416 -0.9279 -0.6357
  939MOL0     O23874   3.058   2.175   6.138  0.0893 -0.5287  0.8133
  939MOL0     C23875   3.198   2.210   6.126  0.2157 -0.5104 -0.0687
  939MOL0     C23876   3.229   2.326   6.037 -0.1729 -0.9776  0.0039
  939MOL0     C23877   3.377   2.341   6.007 -0.1882  0.0424 -0.2315
  939MOL0     C23878   3.417   2.245   5.889  0.0379 -0.3775  0.1661
  939MOL0     C23879   3.561   2.269   5.851 -0.2424  0.5339 -0.2512
  939MOL0     C23880   3.679   2.274   5.816 -0.9695  0.6913 -0.0320
  939MOL0     C23881   3.017   2.369   6.302  0.1896  0.2821 -0.4727
  939MOL0     C23882   2.922   2.446   6.378 -0.1418  0.2571 -0.4478
  939MOL0     H23883   2.713   2.604   6.746  1.3463  0.0814 -1.3893
  939MOL0     H23884   2.554   2.733   6.892 -0.0687 -0.7341  0.7621
  939MOL0     H23885   2.154   2.815   6.709 -1.0371  0.3360 -1.6000
  939MOL0     H23886   2.235   2.975   6.703 -0.8985 -0.6794  0.4033
  939MOL0     H23887   2.195   2.994   6.951  1.6970 -2.0877 -0.2310
  939MOL0     H23888   2.107   2.847   6.946 -1.7076 -0.4053 -1.3478
  939MOL0     H23889   1.938   2.998   6.941 -0.6950 -1.2658 -0.0675
  939MOL0     H23890   1.935   2.940   6.776 -0.9619  2.9988 -1.3734
  939MOL0     H23891   2.056   3.136   6.679 -2.9564  0.8727 -1.8139
  939MOL0     H23892   1.911   3.186   6.751  1.8282  2.2882  0.6828
  939MOL0     H23893   2.060   3.350   6.798 -0.6966 -1.4939 -3.2283
  939MOL0     H23894   2.177   3.241   6.865 -0.0008  0.2816  1.1517
  939MOL0     H23895   2.033   3.358   7.042 -0.5820 -0.3887 -0.5502
  939MOL0     H23896   2.020   3.176   7.049 -0.7946 -0.0937 -0.9034
  939MOL0     H23897   1.831   3.377   6.909  1.9818  0.5048  1.2585
  939MOL0     H23898   1.795   3.207   6.915  0.5407 -1.7359  0.9296
  939MOL0     H23899   1.663   3.336   7.087  0.4788  0.9147 -2.0484
  939MOL0     H23900   1.813   3.388   7.165 -0.1845  1.2972 -1.6399
  939MOL0     H23901   1.655   3.033   7.109  0.0199 -1.6576 -0.0224
  939MOL0     H23902   1.759   2.811   7.396 -1.2423 -2.0635  1.1472
  939MOL0     H23903   1.719   2.789   7.224  3.9560 -3.0754  3.0923
  939MOL0     H23904   1.509   2.916   7.253  0.3404 -1.6195 -0.9231
  939MOL0     H23905   1.553   2.939   7.427  0.9348  0.0146  0.8495
  939MOL0     H23906   1.497   2.668   7.294  0.9145  1.2686  0.1469
  939MOL0     H23907   1.580   2.684   7.441 -0.8356  0.0616  1.2713
  939MOL0     H23908   1.370   2.801   7.544 -0.1341 -0.7913  0.0371
  939MOL0     H23909   1.360   2.638   7.485 -1.8382 -1.1377 -3.4849
  939MOL0     H23910   1.113   2.918   7.235 -0.8267  0.6489  0.0407
  939MOL0     H23911   0.899   2.997   7.287 -0.7946 -0.4914  1.6146
  939MOL0     H23912   0.484   2.794   7.554  3.1534  1.1743 -1.1527
  939MOL0     H23913   0.251   2.844   7.563  0.7031 -0.5528 -0.1415
  939MOL0     H23914   0.091   3.067   7.692  0.9422 -0.3290 -1.4908
  939MOL0     H23915   0.024   2.925   7.599  2.2303 -1.1586  0.3019
  939MOL0     H23916  -0.066   3.221   7.594 -1.0986  0.5022 -2.8647
  939MOL0     H23917  -0.126   3.089   7.697  1.0098 -1.1847  0.5720
  939MOL0     H23918  -0.179   2.976   7.479  0.9400 -0.0026  2.2581
  939MOL0     H23919  -0.109   3.109   7.391  3.1957 -2.2657  0.5325
  939MOL0     H23920  -0.341   3.110   7.601  2.3085  2.9428  1.3088
  939MOL0     H23921  -0.307   3.242   7.503 -1.4873 -0.1156 -0.8494
  939MOL0     H23922  -0.378   2.984   7.365 -0.5996 -0.6262  1.1216
  939MOL0     H23923  -0.388   3.140   7.298  0.0573 -0.2446 -0.2767
  939MOL0     H23924  -0.559   3.222   7.465 -0.8953 -0.2394  3.0260
  939MOL0     H23925  -0.562   3.067   7.539  2.8432  1.3043  1.5241
  939MOL0     H23926  -0.619   3.108   7.237  1.7140  1.9735  0.8304
  939MOL0     H23927  -0.636   2.964   7.342 -2.8110  0.4389  1.9286
  939MOL0     H23928  -0.843   3.095   7.276 -0.1470 -2.9715 -0.2358
  939MOL0     H23929  -0.788   3.211   7.404  0.1876 -1.3198  2.0207
  939MOL0     H23930   0.321   3.227   7.381 -0.9118  0.2396  1.9413
  939MOL0     H23931   0.557   3.167   7.352  2.9482 -1.4631  1.3233
  939MOL0     H23932   0.897   2.758   7.651 -0.9894  1.4640 -0.0692
  939MOL0     H23933   1.124   2.685   7.595 -0.3818  0.1000  0.3556
  939MOL0     H23934   2.331   2.837   6.539  1.2373  1.4296 -0.7181
  939MOL0     H23935   2.513   2.751   6.405 -0.9000 -1.0361  0.6897
  939MOL0     H23936   2.649   2.281   6.280 -0.6216  0.7567 -1.8704
  939MOL0     H23937   2.794   2.146   6.154 -2.0872  0.5779  0.5042
  939MOL0     H23938   3.249   2.123   6.084 -1.5895 -2.1803  1.0009
  939MOL0     H23939   3.234   2.224   6.229 -1.6853  1.1142  0.4331
  939MOL0     H23940   3.174   2.308   5.944  0.1234 -0.8673 -0.1929
  939MOL0     H23941   3.186   2.420   6.071 -0.9424 -0.8827 -1.1737
  939MOL0     H23942   3.437   2.317   6.095 -1.7575 -3.1999  0.0750
  939MOL0     H23943   3.398   2.442   5.971  2.1679 -0.6866 -1.1524
  939MOL0     H23944   3.383   2.142   5.907  0.0811 -0.5275 -0.5798
  939MOL0     H23945   3.351   2.277   5.808 -0.9731 -2.1499  0.2248
  939MOL0     H23946   3.779   2.283   5.779  0.5838 -0.1594  3.5395
  939MOL0     H23947   3.122   2.393   6.314 -0.0812  1.4034 -0.2541
  939MOL0     H23948   2.961   2.528   6.438 -1.0347  3.5286 -3.9275
  940MOL0     O23949   5.604   9.623   5.893  0.7758  0.1443  0.3662
  940MOL0     C23950   5.679   9.652   5.982 -0.9346  0.3378 -0.1500
  940MOL0     O23951   5.682   9.612   6.114  0.1228 -0.8125 -0.0848
  940MOL0     C23952   5.593   9.530   6.164  0.2527  0.3989  0.0183
  940MOL0     C23953   5.634   9.439   6.263 -0.0735  0.3636  0.6933
  940MOL0     C23954   5.542   9.349   6.308 -0.7086 -0.2600 -0.0717
  940MOL0     C23955   5.415   9.338   6.262  0.2139 -0.1182 -0.4024
  940MOL0     O23956   5.345   9.237   6.313  0.6148 -0.5635 -0.8275
  940MOL0     C23957   5.211   9.278   6.348  0.1686  0.0447  0.4456
  940MOL0     C23958   5.136   9.160   6.404 -0.3158 -0.6728 -0.5456
  940MOL0     C23959   5.008   9.210   6.483 -1.1687 -0.7077  0.6890
  940MOL0     C23960   4.931   9.087   6.527 -1.0021  0.2056 -0.2687
  940MOL0     C23961   4.833   9.127   6.633 -0.1657 -0.0655  0.3036
  940MOL0     C23962   4.763   9.012   6.702 -0.6624  0.5276  0.9660
  940MOL0     C23963   4.659   9.067   6.801 -0.2309 -0.6068 -0.3843
  940MOL0     C23964   4.570   8.956   6.864 -0.5488  0.3005 -0.3302
  940MOL0     N23965   4.459   8.920   6.783 -0.5370  0.1664  0.0588
  940MOL0     C23966   4.344   8.990   6.789  0.3616 -0.2735  0.1341
  940MOL0     C23967   4.259   8.924   6.707  0.2423 -0.0451 -0.2023
  940MOL0     C23968   4.112   8.941   6.681 -0.1185  0.6222  0.3237
  940MOL0     C23969   4.025   8.835   6.755  0.0843  0.9015 -0.7765
  940MOL0     C23970   3.892   8.850   6.685 -0.3453  0.5937  0.1071
  940MOL0     C23971   3.796   8.748   6.738 -0.9732 -0.0078 -0.2606
  940MOL0     O23972   3.687   8.728   6.646  0.6768  0.0428 -0.0429
  940MOL0     C23973   3.589   8.641   6.683  0.4004  0.9946  0.3913
  940MOL0     C23974   3.457   8.695   6.690 -0.3508 -0.5499  0.9357
  940MOL0     C23975   3.343   8.613   6.700 -0.4681 -0.4721  0.2257
  940MOL0     C23976   3.361   8.473   6.716 -0.0644  0.3419  1.3092
  940MOL0     C23977   3.253   8.376   6.728 -0.4831 -0.1075  0.2657
  940MOL0     O23978   3.286   8.246   6.711 -0.6422 -0.1493 -0.2359
  940MOL0     C23979   3.199   8.136   6.741 -0.2456 -0.7463 -0.0269
  940MOL0     C23980   3.228   8.023   6.666  0.4630 -0.1035  0.0724
  940MOL0     C23981   3.154   7.904   6.677  0.3219 -1.0133  0.5287
  940MOL0     C23982   3.035   7.895   6.758  0.1939  0.6940 -0.3941
  940MOL0     O23983   2.952   7.783   6.770  0.2796  0.2141 -0.0234
  940MOL0     C23984   2.948   7.690   6.663  0.0835 -0.1325 -0.7895
  940MOL0     C23985   2.797   7.661   6.629  0.1607  1.0227  0.7790
  940MOL0     C23986   2.682   7.693   6.730  0.1596  0.0515  0.7725
  940MOL0     C23987   2.553   7.631   6.692 -0.1971 -0.2955 -0.1944
  940MOL0     C23988   2.440   7.624   6.800 -0.7818  0.3303 -1.0016
  940MOL0     C23989   2.305   7.609   6.733 -0.8938  0.3201 -0.6575
  940MOL0     C23990   2.290   7.469   6.665 -0.7587 -0.5030  0.3137
  940MOL0     C23991   2.156   7.448   6.616  0.3099 -0.4974  0.7842
  940MOL0    Cl23992   2.024   7.455   6.738  0.5772 -0.3090 -0.5544
  940MOL0     C23993   3.004   8.016   6.820 -0.3832  0.0904 -0.7756
  940MOL0     C23994   3.081   8.134   6.812  0.0791  0.2275 -0.1622
  940MOL0     O23995   3.142   8.421   6.741 -0.3604 -0.0875 -0.0436
  940MOL0     C23996   3.492   8.422   6.720 -0.0915  0.0181 -0.1635
  940MOL0     C23997   3.599   8.509   6.704 -0.6592  0.0288 -0.4792
  940MOL0     N23998   4.326   8.817   6.649 -0.8061 -1.1796  1.0870
  940MOL0     N23999   4.448   8.814   6.695  0.6766 -0.4170 -0.2239
  940MOL0     C24000   5.371   9.428   6.170 -0.9501  0.9478 -0.1212
  940MOL0     C24001   5.455   9.523   6.120  0.4697 -0.2121 -0.0797
  940MOL0     C24002   5.779   9.755   5.946  0.1570 -0.5024  0.6400
  940MOL0     C24003   5.897   9.778   6.022  0.0671  0.2704 -0.1247
  940MOL0     C24004   5.994   9.866   5.982 -0.1539  0.1148 -0.2524
  940MOL0     C24005   5.978   9.955   5.868 -0.5344 -0.5305 -0.0569
  940MOL0     O24006   6.077  10.047   5.832  0.4152 -0.3479 -0.7978
  940MOL0     C24007   6.189  10.078   5.921  1.4181 -0.7162  0.4086
  940MOL0     C24008   6.271  10.209   5.872 -0.7020  0.0628 -0.1501
  940MOL0     C24009   6.316  10.206   5.726 -0.3899 -0.9272  0.2733
  940MOL0     C24010   6.352  10.346   5.679  0.1919  0.0888 -0.3473
  940MOL0     C24011   6.486  10.385   5.730  0.5472  0.2226 -0.1881
  940MOL0     C24012   6.594  10.436   5.756  0.0877  0.5577  1.0479
  940MOL0     C24013   5.859   9.934   5.797  0.0986 -0.1363  1.0773
  940MOL0     C24014   5.758   9.844   5.832  0.4265 -0.0550 -0.0382
  940MOL0     H24015   5.741   9.443   6.284  0.1056  3.6524 -0.3568
  940MOL0     H24016   5.581   9.288   6.389  0.8742  0.3521 -0.3399
  940MOL0     H24017   5.155   9.326   6.267  1.2997 -3.1466 -2.4382
  940MOL0     H24018   5.234   9.350   6.427  1.0422 -1.3516  1.5000
  940MOL0     H24019   5.205   9.108   6.472 -0.9761 -0.9524 -0.0760
  940MOL0     H24020   5.111   9.094   6.320 -1.6445 -0.5115 -0.3009
  940MOL0     H24021   4.941   9.276   6.427 -2.0023  0.7809  3.2958
  940MOL0     H24022   5.051   9.271   6.563  3.8287 -0.7483 -1.5874
  940MOL0     H24023   4.879   9.044   6.441  1.4583 -3.3375 -0.2017
  940MOL0     H24024   5.004   9.021   6.577  1.5218  1.1458 -2.4738
  940MOL0     H24025   4.758   9.192   6.588  2.0375  2.1190 -0.4780
  940MOL0     H24026   4.882   9.198   6.701 -2.9489  1.8074  0.5309
  940MOL0     H24027   4.842   8.958   6.756 -1.5233  0.1668  1.8989
  940MOL0     H24028   4.725   8.939   6.630  1.5051  0.4973 -0.2333
  940MOL0     H24029   4.705   9.137   6.871  1.0820  1.3195 -2.9749
  940MOL0     H24030   4.590   9.130   6.744  0.5311 -0.1636 -0.8502
  940MOL0     H24031   4.526   8.989   6.958  0.5442  1.0255 -0.0609
  940MOL0     H24032   4.638   8.872   6.885 -1.6894 -1.0976 -1.9086
  940MOL0     H24033   4.325   9.082   6.845 -0.0290  0.8877 -1.7916
  940MOL0     H24034   4.094   8.935   6.574 -0.7634 -0.9613  0.5007
  940MOL0     H24035   4.081   9.041   6.713 -0.6907  0.5294  0.0704
  940MOL0     H24036   4.029   8.861   6.861  1.7126  2.3079 -1.1348
  940MOL0     H24037   4.063   8.735   6.732 -1.7822 -0.1867  0.5337
  940MOL0     H24038   3.845   8.949   6.695 -0.9149  0.5137 -1.5587
  940MOL0     H24039   3.902   8.833   6.578 -0.9346 -0.0199  0.1442
  940MOL0     H24040   3.763   8.793   6.832  1.9689  2.4921 -0.2273
  940MOL0     H24041   3.858   8.658   6.748  0.0970  0.6914 -0.4295
  940MOL0     H24042   3.443   8.802   6.677 -0.7821 -0.8262 -1.2121
  940MOL0     H24043   3.257   8.679   6.687  0.3502  0.5843  0.0266
  940MOL0     H24044   3.307   8.026   6.591  0.0353  0.2418 -0.3714
  940MOL0     H24045   3.174   7.818   6.613  1.5295 -0.4020  0.0567
  940MOL0     H24046   2.999   7.596   6.686  0.7770  0.3248 -0.4342
  940MOL0     H24047   2.999   7.724   6.572  0.3955 -0.8423 -0.8867
  940MOL0     H24048   2.791   7.553   6.610 -0.4519  1.0795  0.6346
  940MOL0     H24049   2.775   7.712   6.535 -0.2069 -3.0372 -1.5756
  940MOL0     H24050   2.672   7.802   6.736  0.3183  0.0135  2.1624
  940MOL0     H24051   2.711   7.666   6.832 -0.3360  0.6613  1.0869
  940MOL0     H24052   2.512   7.677   6.602  1.2361  1.4154 -0.0140
  940MOL0     H24053   2.573   7.527   6.661  1.3624 -0.4481  1.2086
  940MOL0     H24054   2.445   7.706   6.872  1.0978 -0.9840  0.4815
  940MOL0     H24055   2.452   7.539   6.868 -0.8267  0.6149 -0.6369
  940MOL0     H24056   2.289   7.689   6.661  2.3559  2.3402  0.6140
  940MOL0     H24057   2.233   7.603   6.815  0.6059 -0.8051  0.6394
  940MOL0     H24058   2.361   7.458   6.584 -1.0684 -1.4547  0.1478
  940MOL0     H24059   2.308   7.393   6.743  0.8092  0.4111  0.8915
  940MOL0     H24060   2.158   7.362   6.549 -1.8173  0.6870 -0.9027
  940MOL0     H24061   2.137   7.525   6.541 -0.2632 -0.6976  0.7249
  940MOL0     H24062   2.912   8.001   6.876  1.1314  0.9802  2.1300
  940MOL0     H24063   3.062   8.224   6.869  3.3116  1.5569 -0.9781
  940MOL0     H24064   3.511   8.316   6.735  0.2722  0.5217  3.8498
  940MOL0     H24065   3.697   8.461   6.712 -1.5313 -1.6797  0.5706
  940MOL0     H24066   5.271   9.417   6.129  0.5182 -0.4857 -3.7559
  940MOL0     H24067   5.423   9.592   6.044 -1.2835 -0.8324  0.0501
  940MOL0     H24068   5.912   9.714   6.109 -2.0824 -0.8177 -0.4717
  940MOL0     H24069   6.086   9.860   6.039  0.4852 -0.4573 -1.3072
  940MOL0     H24070   6.264   9.998   5.925  0.1162 -2.1087 -1.3294
  940MOL0     H24071   6.154  10.093   6.024 -1.0181 -1.6187 -0.2197
  940MOL0     H24072   6.215  10.301   5.890 -2.0110 -0.7724  0.1710
  940MOL0     H24073   6.363  10.211   5.932  0.2966 -2.7872 -1.4142
  940MOL0     H24074   6.229  10.170   5.669 -2.7486  2.7709  1.2259
  940MOL0     H24075   6.406  10.144   5.715  0.5352  0.3944  0.2587
  940MOL0     H24076   6.357  10.356   5.571  0.3549 -1.2250 -0.4838
  940MOL0     H24077   6.275  10.418   5.708  1.2299  0.7337  0.9179
  940MOL0     H24078   6.694  10.470   5.777  1.5163 -1.1500 -2.3291
  940MOL0     H24079   5.858   9.970   5.694  1.6337 -1.7406  0.4570
  940MOL0     H24080   5.670   9.829   5.771  0.6544 -7.1479  0.5193
  941MOL0     O24081   4.014   4.029   2.265 -0.1850 -0.0498 -0.1919
  941MOL0     C24082   3.910   4.029   2.190 -0.0597  0.8023 -0.1501
  941MOL0     O24083   3.908   4.066   2.057  0.3987 -0.4727 -0.2170
  941MOL0     C24084   4.023   4.068   1.985 -0.4568 -0.1918 -0.5520
  941MOL0     C24085   4.014   4.027   1.850  0.1887 -0.1888  0.5008
  941MOL0     C24086   4.123   4.028   1.766 -0.1405  1.1924  0.3044
  941MOL0     C24087   4.243   4.081   1.809  0.1801 -0.0837  0.8817
  941MOL0     O24088   4.346   4.091   1.713  0.0142  0.1434 -0.0825
  941MOL0     C24089   4.451   4.187   1.733 -0.0967  0.4685 -0.0327
  941MOL0     C24090   4.569   4.121   1.795 -0.7876  1.1433 -0.3482
  941MOL0     C24091   4.626   4.037   1.677 -0.2297 -0.1201 -0.6152
  941MOL0     C24092   4.741   3.943   1.724 -0.7806 -0.2003 -0.1566
  941MOL0     C24093   4.775   3.852   1.608  0.1104  0.2751 -0.4542
  941MOL0     C24094   4.821   3.930   1.476  0.1549  0.0355  0.5098
  941MOL0     C24095   4.945   4.012   1.492  0.8350  0.2524 -0.7819
  941MOL0     C24096   4.998   4.059   1.359 -0.3197  0.0884  0.2834
  941MOL0     N24097   4.906   4.141   1.278  0.1867  0.4248  0.1378
  941MOL0     C24098   4.791   4.098   1.211  0.4221 -0.6688 -0.0510
  941MOL0     C24099   4.738   4.202   1.152  0.5748  0.1363 -0.2756
  941MOL0     C24100   4.611   4.209   1.067 -0.0704  0.2963  0.1534
  941MOL0     C24101   4.491   4.174   1.159  0.0329 -0.1553 -0.0900
  941MOL0     C24102   4.462   4.283   1.268 -1.1765  0.1695 -0.1117
  941MOL0     C24103   4.333   4.255   1.346  0.9872 -0.0054 -0.1170
  941MOL0     O24104   4.319   4.346   1.460 -0.1651 -0.5685  0.0390
  941MOL0     C24105   4.197   4.358   1.524  1.3077  0.3845  0.1972
  941MOL0     C24106   4.185   4.440   1.632  0.0481  0.0083 -0.6750
  941MOL0     C24107   4.071   4.446   1.707 -0.3186 -0.5775 -0.0200
  941MOL0     C24108   3.960   4.359   1.678 -0.0065  0.8422  0.1043
  941MOL0     C24109   3.824   4.369   1.737 -0.4107  0.4410  0.3567
  941MOL0     O24110   3.825   4.427   1.857 -0.3060 -0.2610 -0.2387
  941MOL0     C24111   3.701   4.427   1.913 -1.0418  0.0173 -0.7721
  941MOL0     C24112   3.620   4.539   1.892 -0.7305 -0.0934  0.8239
  941MOL0     C24113   3.487   4.534   1.937  0.0413  0.5087  0.1646
  941MOL0     C24114   3.431   4.430   2.002 -0.3985 -0.0004  0.7075
  941MOL0     O24115   3.299   4.424   2.038  0.2256 -0.2219 -0.3984
  941MOL0     C24116   3.219   4.540   2.042  0.6498 -0.0203  0.2652
  941MOL0     C24117   3.076   4.531   2.097  0.2267  0.2377 -0.4564
  941MOL0     C24118   2.986   4.428   2.037  0.9458  0.3299  0.5753
  941MOL0     C24119   2.833   4.465   2.045 -0.5394  0.2518  0.2592
  941MOL0     C24120   2.735   4.342   2.036 -0.4449  1.1569 -0.4515
  941MOL0     C24121   2.586   4.388   2.000  0.9843  0.1478 -0.1786
  941MOL0     C24122   2.507   4.263   1.976 -0.1343 -0.4931  0.0465
  941MOL0     C24123   2.371   4.293   1.920 -0.0573 -0.6235  0.1518
  941MOL0    Cl24124   2.280   4.369   2.064 -0.0472  0.1315  0.1190
  941MOL0     C24125   3.511   4.320   2.034  0.2351 -1.6516 -0.5613
  941MOL0     C24126   3.647   4.317   1.990  0.3574  0.0495 -0.7586
  941MOL0     O24127   3.730   4.331   1.670  0.1827  0.0149  0.2860
  941MOL0     C24128   3.971   4.279   1.563  0.3717 -0.3103  0.0639
  941MOL0     C24129   4.088   4.279   1.491  0.0091  0.5008  0.7091
  941MOL0     N24130   4.798   4.319   1.189  0.3079  0.3717 -0.0035
  941MOL0     N24131   4.907   4.276   1.252 -0.3649 -0.0821  0.1108
  941MOL0     C24132   4.248   4.132   1.936  0.2591  0.5620 -0.2945
  941MOL0     C24133   4.143   4.126   2.026  0.0807 -0.4083  0.3063
  941MOL0     C24134   3.771   4.016   2.249  0.0186  0.4781 -0.2355
  941MOL0     C24135   3.762   4.035   2.392  0.1347 -0.2206  0.4161
  941MOL0     C24136   3.634   4.032   2.447  0.2498  0.0244 -0.3362
  941MOL0     C24137   3.518   4.004   2.374  0.8406 -0.1395 -0.5169
  941MOL0     O24138   3.386   4.020   2.435 -0.3105 -0.2134  0.2693
  941MOL0     C24139   3.280   3.953   2.373 -0.6541  0.2267  0.6339
  941MOL0     C24140   3.152   3.943   2.450  0.0055  0.0665 -0.0594
  941MOL0     C24141   3.036   3.878   2.373 -0.7814 -0.6124 -0.2481
  941MOL0     C24142   2.897   3.868   2.437  0.0642  0.3748  0.4085
  941MOL0     C24143   2.805   3.777   2.361 -0.7309 -1.1423 -0.0214
  941MOL0     C24144   2.735   3.712   2.285  0.2636 -0.2597  0.8509
  941MOL0     C24145   3.528   3.977   2.242  0.5833  0.8408 -0.3551
  941MOL0     C24146   3.652   3.987   2.177 -0.0274  0.0767  0.2423
  941MOL0     H24147   3.914   4.001   1.815 -0.3276  0.0198  1.7703
  941MOL0     H24148   4.105   4.002   1.662 -0.3099 -3.0257  1.1858
  941MOL0     H24149   4.416   4.273   1.791 -0.5606  0.8210 -0.8200
  941MOL0     H24150   4.475   4.233   1.637 -1.6412 -1.6171 -1.4971
  941MOL0     H24151   4.542   4.062   1.884 -2.9435  2.7413  0.1487
  941MOL0     H24152   4.643   4.191   1.834  1.6895 -0.8937 -1.0730
  941MOL0     H24153   4.660   4.106   1.599 -0.1945  1.2769  0.5886
  941MOL0     H24154   4.543   3.977   1.639 -0.0769  1.1750 -3.1575
  941MOL0     H24155   4.828   3.997   1.760  1.2723 -0.9416 -3.5425
  941MOL0     H24156   4.709   3.881   1.808  0.8896  0.2249  0.8356
  941MOL0     H24157   4.694   3.784   1.582  0.5241  0.7014 -3.2264
  941MOL0     H24158   4.859   3.791   1.644 -0.4250  1.1429  2.4720
  941MOL0     H24159   4.733   3.983   1.437  1.6796  2.2069 -0.1783
  941MOL0     H24160   4.843   3.855   1.400 -2.3239 -0.5855  0.3043
  941MOL0     H24161   4.910   4.103   1.542 -1.3193 -0.1571 -1.4441
  941MOL0     H24162   5.020   3.961   1.555 -1.2197 -1.4005  0.4638
  941MOL0     H24163   5.035   3.971   1.305  0.6874 -0.5215  1.8811
  941MOL0     H24164   5.083   4.121   1.390  0.4042 -1.1530  0.8640
  941MOL0     H24165   4.758   3.995   1.210  0.3267 -0.6482  0.4342
  941MOL0     H24166   4.614   4.141   0.982  2.7058 -0.5390  0.8138
  941MOL0     H24167   4.591   4.305   1.019  0.0926  0.3793  0.2485
  941MOL0     H24168   4.502   4.078   1.210  0.4145  0.7685  1.6330
  941MOL0     H24169   4.409   4.170   1.087 -0.2465  0.9839  0.1534
  941MOL0     H24170   4.544   4.301   1.338 -1.8822 -0.1887  0.8393
  941MOL0     H24171   4.459   4.376   1.211  2.5078 -0.6894 -1.9980
  941MOL0     H24172   4.345   4.153   1.384  1.4474 -0.0619 -0.4132
  941MOL0     H24173   4.248   4.276   1.281  0.9569  0.9298  0.2063
  941MOL0     H24174   4.272   4.499   1.660  0.4563 -0.7107 -0.3819
  941MOL0     H24175   4.056   4.526   1.779  0.1009  0.9080 -1.5162
  941MOL0     H24176   3.658   4.616   1.825 -0.8910 -2.3723 -2.0299
  941MOL0     H24177   3.422   4.619   1.920 -0.7200 -0.0428  0.2866
  941MOL0     H24178   3.217   4.577   1.939 -0.7845 -1.8188 -0.4047
  941MOL0     H24179   3.275   4.612   2.102  0.3819 -0.0460  0.5475
  941MOL0     H24180   3.022   4.623   2.070  0.7403  0.4893 -0.6496
  941MOL0     H24181   3.082   4.523   2.206 -3.7005 -0.0464 -0.1161
  941MOL0     H24182   3.010   4.334   2.087 -2.3300 -2.3218 -2.3478
  941MOL0     H24183   3.003   4.403   1.932 -0.9641 -1.0989  0.5543
  941MOL0     H24184   2.809   4.526   2.133 -2.0095 -0.3511  0.3019
  941MOL0     H24185   2.808   4.540   1.969  0.2242 -0.8152 -1.0809
  941MOL0     H24186   2.749   4.280   2.124 -0.5428 -1.4505 -2.1819
  941MOL0     H24187   2.763   4.278   1.952 -0.6441 -0.1942  0.4844
  941MOL0     H24188   2.580   4.459   1.917 -0.1215  0.1008 -0.1519
  941MOL0     H24189   2.536   4.440   2.082  2.2270 -1.5431  1.7598
  941MOL0     H24190   2.556   4.197   1.904 -0.1273 -1.6303  1.0664
  941MOL0     H24191   2.484   4.202   2.063 -0.6881 -0.5520 -0.1359
  941MOL0     H24192   2.315   4.208   1.878 -1.2592  0.1404  0.1513
  941MOL0     H24193   2.385   4.367   1.841  0.6932  1.5868  2.2502
  941MOL0     H24194   3.467   4.227   2.066  0.1984 -2.0867 -1.8368
  941MOL0     H24195   3.710   4.228   1.994 -2.1354 -1.8399 -1.2240
  941MOL0     H24196   3.884   4.235   1.516  1.0016 -0.5604 -0.9167
  941MOL0     H24197   4.083   4.217   1.402  0.0471 -0.2241  1.2097
  941MOL0     H24198   4.346   4.172   1.960  0.1468  0.3760  0.5050
  941MOL0     H24199   4.171   4.179   2.117  5.3957  2.1420 -2.3551
  941MOL0     H24200   3.854   4.040   2.450 -0.0053 -1.3002  0.7580
  941MOL0     H24201   3.627   4.063   2.551  0.0747  2.2858 -0.9590
  941MOL0     H24202   3.312   3.854   2.339  0.5086  1.3045 -1.5993
  941MOL0     H24203   3.258   4.015   2.286  2.5080  1.2296  0.4298
  941MOL0     H24204   3.177   3.883   2.537 -0.6076 -0.8967 -0.5318
  941MOL0     H24205   3.112   4.041   2.479  1.0020  0.6988 -0.7536
  941MOL0     H24206   3.075   3.777   2.353 -0.4002 -1.0229  2.1986
  941MOL0     H24207   3.039   3.924   2.274  4.7421  0.3149  0.0700
  941MOL0     H24208   2.919   3.819   2.532  4.6536 -2.5217 -1.7989
  941MOL0     H24209   2.855   3.968   2.442  0.6600  0.5753  2.8068
  941MOL0     H24210   2.673   3.659   2.216 -0.3130 -0.1965  1.3049
  941MOL0     H24211   3.439   3.972   2.180  0.8928 -0.2357 -0.7435
  941MOL0     H24212   3.655   3.960   2.072 -1.4787 -4.3696  1.1360
  942MOL0     O24213   9.707   9.240   2.094  0.1962 -0.3361 -1.2857
  942MOL0     C24214   9.718   9.358   2.114  0.1323 -0.2002  0.2876
  942MOL0     O24215   9.642   9.458   2.064 -0.7154 -0.3139 -0.3592
  942MOL0     C24216   9.539   9.422   1.982 -0.0779 -0.0460  0.0806
  942MOL0     C24217   9.449   9.535   1.968  0.4722 -0.2827  1.7321
  942MOL0     C24218   9.335   9.531   1.888  0.5633  0.0281  0.2034
  942MOL0     C24219   9.311   9.415   1.811  0.1602 -0.0408 -0.1442
  942MOL0     O24220   9.211   9.399   1.717  0.2334 -0.8999 -0.3131
  942MOL0     C24221   9.234   9.484   1.610  0.7234 -0.5986 -0.3826
  942MOL0     C24222   9.144   9.437   1.494 -0.2811 -0.4644  0.6847
  942MOL0     C24223   9.001   9.458   1.531  0.4891  0.3243 -0.7642
  942MOL0     C24224   8.910   9.391   1.430 -0.2424 -0.2584  0.1099
  942MOL0     C24225   8.763   9.408   1.461 -0.2301  0.0839 -0.5382
  942MOL0     C24226   8.678   9.316   1.384 -0.7213 -0.1822  0.1055
  942MOL0     C24227   8.533   9.332   1.407 -0.4873 -0.6528  0.4822
  942MOL0     C24228   8.476   9.437   1.314 -0.3307 -0.4519  0.2314
  942MOL0     N24229   8.332   9.474   1.322 -0.3284 -0.1354  0.2857
  942MOL0     C24230   8.248   9.437   1.429  0.4733 -0.1720 -0.2334
  942MOL0     C24231   8.131   9.494   1.400  1.1399 -0.2465  0.2271
  942MOL0     C24232   8.007   9.504   1.488 -0.7409  0.7032 -0.2707
  942MOL0     C24233   7.881   9.546   1.411 -0.9567  0.0749  0.5829
  942MOL0     C24234   7.756   9.544   1.504 -0.4233 -0.2685  0.3199
  942MOL0     C24235   7.631   9.596   1.431  0.2660 -0.7404  0.3946
  942MOL0     O24236   7.650   9.726   1.374  0.3316  0.0121  0.1857
  942MOL0     C24237   7.545   9.794   1.327 -0.6794 -0.7935  0.0461
  942MOL0     C24238   7.427   9.741   1.281  0.0749 -0.0295  0.0713
  942MOL0     C24239   7.333   9.819   1.214 -0.5073  0.3552  0.0429
  942MOL0     C24240   7.342   9.959   1.208 -0.1301 -0.7007 -0.4774
  942MOL0     C24241   7.245  10.038   1.125 -0.1799  0.2782 -0.4713
  942MOL0     O24242   7.150   9.958   1.067 -0.1259 -0.2403  0.9078
  942MOL0     C24243   7.025  10.014   1.031  0.7183  0.1775  0.0814
  942MOL0     C24244   7.017  10.128   0.942 -0.2412 -0.1828 -1.0864
  942MOL0     C24245   6.886  10.173   0.904  0.4483 -0.4795 -0.4531
  942MOL0     C24246   6.768  10.114   0.952 -0.1879 -0.5099  0.0553
  942MOL0     O24247   6.640  10.167   0.921 -0.1699  0.7929 -0.2710
  942MOL0     C24248   6.623  10.238   0.795  0.4198 -0.6279  0.8874
  942MOL0     C24249   6.486  10.213   0.747  0.9462  0.5422  0.1997
  942MOL0     C24250   6.456  10.288   0.618 -0.0535 -0.5485  0.1254
  942MOL0     C24251   6.323  10.248   0.557  0.2043 -0.1377  0.2757
  942MOL0     C24252   6.203  10.339   0.574 -0.5550 -1.8092 -0.1515
  942MOL0     C24253   6.090  10.309   0.480  0.2454  0.1436  0.2164
  942MOL0     C24254   5.960  10.350   0.554  0.3826 -0.1355  0.7501
  942MOL0     C24255   5.838  10.328   0.459  0.4906  0.1759  0.1637
  942MOL0    Cl24256   5.815  10.164   0.415  0.0177 -0.2248  0.3116
  942MOL0     C24257   6.790  10.007   1.041 -0.0120 -0.2696 -0.6012
  942MOL0     C24258   6.911   9.951   1.081  0.6610 -0.1291 -0.1439
  942MOL0     O24259   7.242  10.160   1.136  0.4615  0.1067 -0.2203
  942MOL0     C24260   7.449  10.020   1.264 -0.2853 -0.5249 -0.5872
  942MOL0     C24261   7.555   9.935   1.314  0.1609  0.0642 -0.7359
  942MOL0     N24262   8.142   9.560   1.275  0.2052  0.5428  0.2659
  942MOL0     N24263   8.259   9.537   1.231 -0.8079 -0.3703  0.4268
  942MOL0     C24264   9.400   9.307   1.811 -0.8435  0.0696 -0.0658
  942MOL0     C24265   9.513   9.304   1.902  0.0228  0.0923 -0.5589
  942MOL0     C24266   9.821   9.389   2.209  0.2460 -0.2785 -0.3783
  942MOL0     C24267   9.863   9.519   2.227 -0.2788  0.0894 -0.2856
  942MOL0     C24268   9.974   9.552   2.310 -0.0909 -0.1055  0.6233
  942MOL0     C24269  10.043   9.457   2.387 -0.6218 -1.0869  0.2622
  942MOL0     O24270  10.145   9.498   2.469 -0.1212 -0.8457 -0.2322
  942MOL0     C24271  10.230   9.395   2.532 -0.5387 -0.4058  0.1385
  942MOL0     C24272  10.355   9.467   2.587  0.2069 -0.1413  0.0663
  942MOL0     C24273  10.485   9.387   2.588 -0.1246 -0.0711  0.2859
  942MOL0     C24274  10.607   9.478   2.604 -0.6740  0.7134 -0.1860
  942MOL0     C24275  10.623   9.572   2.493 -0.3922 -0.1840 -0.7516
  942MOL0     C24276  10.656   9.659   2.416  0.2121  0.5277 -0.1245
  942MOL0     C24277   9.991   9.328   2.368  0.2600 -0.0931 -0.0332
  942MOL0     C24278   9.888   9.293   2.279 -0.0982 -0.5753 -0.0495
  942MOL0     H24279   9.469   9.619   2.034  0.1402 -1.0646  2.8642
  942MOL0     H24280   9.274   9.620   1.879  1.5219  0.5956 -0.8441
  942MOL0     H24281   9.335   9.474   1.569  0.9271 -2.0645  0.4224
  942MOL0     H24282   9.209   9.587   1.639 -0.9726 -0.6224 -1.6232
  942MOL0     H24283   9.168   9.332   1.477 -0.2034 -0.1374 -1.5946
  942MOL0     H24284   9.178   9.475   1.398  2.3617 -1.0539  1.3198
  942MOL0     H24285   8.967   9.561   1.550 -1.2268 -0.5401  1.2413
  942MOL0     H24286   8.973   9.407   1.623 -0.8534  1.1898 -0.6529
  942MOL0     H24287   8.923   9.433   1.329  1.2520  3.6126  1.7070
  942MOL0     H24288   8.934   9.284   1.433 -2.0420 -0.7053 -0.3568
  942MOL0     H24289   8.725   9.510   1.449  1.1824  0.6456 -0.4115
  942MOL0     H24290   8.740   9.368   1.561 -1.1064 -1.9332 -1.4890
  942MOL0     H24291   8.697   9.213   1.417 -2.0977  0.0510  1.7478
  942MOL0     H24292   8.711   9.327   1.280 -0.8571  1.3177  0.2043
  942MOL0     H24293   8.481   9.235   1.403  1.6653 -1.8198 -0.5159
  942MOL0     H24294   8.519   9.372   1.508  0.4945 -1.0950  0.8076
  942MOL0     H24295   8.506   9.415   1.211  1.4504 -1.0384  0.8385
  942MOL0     H24296   8.523   9.533   1.334  2.0631 -2.1670  3.9526
  942MOL0     H24297   8.271   9.361   1.503  0.4633 -1.0189 -1.0713
  942MOL0     H24298   8.027   9.571   1.572  0.2110  0.0945 -0.0029
  942MOL0     H24299   7.978   9.407   1.529 -2.8719  1.1201 -0.6736
  942MOL0     H24300   7.855   9.478   1.330  1.4812 -0.9061  0.5442
  942MOL0     H24301   7.895   9.648   1.374 -0.1658  0.0007  0.6717
  942MOL0     H24302   7.744   9.443   1.544  0.5363 -1.0559 -1.2531
  942MOL0     H24303   7.779   9.607   1.590 -2.3426 -0.4636  1.0341
  942MOL0     H24304   7.546   9.604   1.499 -1.9596 -0.1785 -2.2328
  942MOL0     H24305   7.614   9.525   1.350  1.2211  0.2480 -0.7109
  942MOL0     H24306   7.412   9.635   1.298 -0.8039  0.1481  0.4773
  942MOL0     H24307   7.258   9.762   1.160  1.2080 -1.5183 -0.4849
  942MOL0     H24308   7.105  10.168   0.894  3.3561 -3.3858  2.1757
  942MOL0     H24309   6.881  10.264   0.846  0.7791  1.9142  3.0095
  942MOL0     H24310   6.688  10.203   0.714  2.6437  1.0190  1.8435
  942MOL0     H24311   6.639  10.344   0.818  1.3251 -0.2353 -1.3251
  942MOL0     H24312   6.406  10.241   0.817  0.8216 -0.2442  0.3831
  942MOL0     H24313   6.467  10.105   0.751 -0.3902  0.7871  1.6584
  942MOL0     H24314   6.539  10.270   0.548  0.5652 -3.2012  1.3886
  942MOL0     H24315   6.462  10.396   0.633 -1.2583 -0.6492  1.4878
  942MOL0     H24316   6.343  10.220   0.453  0.9138  0.2937  0.2842
  942MOL0     H24317   6.302  10.152   0.605  1.4886 -2.2417 -2.9875
  942MOL0     H24318   6.236  10.439   0.544 -0.9423 -1.8313 -0.6681
  942MOL0     H24319   6.176  10.350   0.679 -2.0915  0.5848 -0.6980
  942MOL0     H24320   6.076  10.202   0.466  2.5378 -0.2175  0.3944
  942MOL0     H24321   6.111  10.361   0.386  1.4165 -0.1484  0.3092
  942MOL0     H24322   5.955  10.287   0.644  2.7587 -0.6999  0.5601
  942MOL0     H24323   5.967  10.456   0.578  1.3764 -0.4298  1.8153
  942MOL0     H24324   5.855  10.386   0.368  2.5406  2.6076  1.9825
  942MOL0     H24325   5.750  10.365   0.513 -1.2606 -1.6304 -1.2540
  942MOL0     H24326   6.700   9.962   1.081 -0.3327  2.5929  2.2552
  942MOL0     H24327   6.907   9.865   1.147 -0.8099 -0.6591 -0.8603
  942MOL0     H24328   7.465  10.127   1.254  1.0055 -0.8060 -1.8587
  942MOL0     H24329   7.643   9.990   1.349 -0.0664  0.6452 -1.0681
  942MOL0     H24330   9.372   9.234   1.736 -0.8183 -0.6403  0.5976
  942MOL0     H24331   9.579   9.222   1.879 -2.6419 -2.0924 -0.9872
  942MOL0     H24332   9.814   9.601   2.175  3.3260  1.6821 -1.5109
  942MOL0     H24333  10.007   9.655   2.305 -1.9433  0.4771 -0.9964
  942MOL0     H24334  10.261   9.327   2.453 -2.4858 -0.4380 -0.6410
  942MOL0     H24335  10.183   9.330   2.606  0.0116  0.5035  1.3394
  942MOL0     H24336  10.364   9.570   2.551 -0.5039 -0.3182 -0.6412
  942MOL0     H24337  10.323   9.480   2.691  0.4213  0.7610  0.0278
  942MOL0     H24338  10.485   9.333   2.493  2.0824 -0.1868  0.3001
  942MOL0     H24339  10.486   9.307   2.662  1.5284 -1.8117 -1.4870
  942MOL0     H24340  10.603   9.532   2.700  0.5654  2.0707 -0.8603
  942MOL0     H24341  10.694   9.413   2.612 -1.2180 -0.0987 -0.7099
  942MOL0     H24342  10.683   9.738   2.349  1.1671 -0.4081 -0.8834
  942MOL0     H24343  10.031   9.246   2.427  0.7964 -0.5371 -0.9889
  942MOL0     H24344   9.869   9.187   2.263  1.1441 -1.3438  2.7782
  943MOL0     O24345   6.044   0.037   2.219  0.5596 -0.1092 -0.1246
  943MOL0     C24346   6.059   0.120   2.307  0.2501 -1.0674 -0.6082
  943MOL0     O24347   5.956   0.175   2.388 -0.1441 -0.0734  0.3201
  943MOL0     C24348   5.829   0.146   2.349 -0.3309  0.3959  0.5504
  943MOL0     C24349   5.785   0.008   2.350 -0.0319  0.3753  0.5555
  943MOL0     C24350   5.652  -0.030   2.311  0.4013  0.1459 -0.4580
  943MOL0     C24351   5.562   0.070   2.280  0.2480  0.6685  0.2974
  943MOL0     O24352   5.431   0.027   2.251  0.1056 -0.0695  0.1217
  943MOL0     C24353   5.327   0.122   2.287 -0.5986 -0.3313  0.2184
  943MOL0     C24354   5.218   0.040   2.346 -0.5201  0.1345  0.0563
  943MOL0     C24355   5.082   0.110   2.328 -0.0120  1.1349 -0.1972
  943MOL0     C24356   4.977   0.018   2.380  0.1228 -0.5813  0.8325
  943MOL0     C24357   4.840   0.083   2.408 -0.7559  0.1645  0.5387
  943MOL0     C24358   4.737  -0.026   2.440 -0.7249  0.7296  0.4023
  943MOL0     C24359   4.595   0.044   2.445  0.2253 -1.0106  0.6044
  943MOL0     C24360   4.473  -0.055   2.487  0.1919 -0.0285  0.0528
  943MOL0     N24361   4.342   0.016   2.514 -0.6833  0.2704  0.5681
  943MOL0     C24362   4.320   0.082   2.633  0.6837  0.1436 -0.7107
  943MOL0     C24363   4.213   0.150   2.606  0.6946 -0.0701  0.2025
  943MOL0     C24364   4.153   0.262   2.673  0.2617  0.2361 -0.8747
  943MOL0     C24365   4.026   0.226   2.748  0.5468 -0.1549 -0.1420
  943MOL0     C24366   4.060   0.140   2.869  0.8140 -0.6413 -0.2979
  943MOL0     C24367   3.927   0.094   2.934  0.0341  0.5221 -0.5269
  943MOL0     O24368   3.861   0.211   2.965 -0.4538 -0.2490 -0.1357
  943MOL0     C24369   3.735   0.204   3.003  0.4898  0.4660 -0.4811
  943MOL0     C24370   3.695   0.295   3.104  0.0414 -0.0943 -0.2048
  943MOL0     C24371   3.561   0.307   3.134  0.6541  0.4616  0.2245
  943MOL0     C24372   3.466   0.221   3.064  0.5904 -0.2550  0.1188
  943MOL0     C24373   3.318   0.222   3.106  0.8429 -0.5724 -0.5523
  943MOL0     O24374   3.221   0.166   3.022 -0.3626 -0.0832 -0.4862
  943MOL0     C24375   3.091   0.185   3.064  0.1832  0.1241  1.7921
  943MOL0     C24376   3.024   0.080   3.139  0.0109  0.1574  0.1474
  943MOL0     C24377   2.885   0.099   3.180 -0.1149 -0.2534 -0.0534
  943MOL0     C24378   2.815   0.216   3.144  0.5905 -0.1226  0.2401
  943MOL0     O24379   2.682   0.218   3.186  1.2867 -0.3098 -0.0980
  943MOL0     C24380   2.590   0.320   3.135  0.7963  0.7731  0.2153
  943MOL0     C24381   2.440   0.321   3.171  0.0135  1.0917 -0.1799
  943MOL0     C24382   2.415   0.344   3.319 -0.5352 -0.0045  0.3858
  943MOL0     C24383   2.274   0.379   3.349  0.3078 -0.1076 -0.3985
  943MOL0     C24384   2.264   0.403   3.502  0.1551  0.7296 -0.7034
  943MOL0     C24385   2.125   0.441   3.548 -0.0572  0.0688 -0.2249
  943MOL0     C24386   2.123   0.490   3.693  0.7654 -0.4061  0.3525
  943MOL0     C24387   1.979   0.550   3.716 -1.2506  0.3374  0.5390
  943MOL0    Cl24388   1.955   0.623   3.874  0.0496 -0.2434 -0.4602
  943MOL0     C24389   2.882   0.306   3.067 -0.1126 -0.7334  0.8647
  943MOL0     C24390   3.018   0.299   3.035  0.3855  0.2898 -0.8191
  943MOL0     O24391   3.285   0.293   3.207 -0.0043  0.7575  0.1497
  943MOL0     C24392   3.502   0.142   2.959 -0.4509  0.3671 -0.6445
  943MOL0     C24393   3.640   0.133   2.924 -0.1965  0.6983  0.1626
  943MOL0     N24394   4.171   0.117   2.479  0.4893  0.3713 -0.1620
  943MOL0     N24395   4.245   0.036   2.429  0.0559 -0.6996 -0.0004
  943MOL0     C24396   5.611   0.200   2.259  0.7182 -0.2559  0.6384
  943MOL0     C24397   5.740   0.238   2.304 -0.4034 -0.0114 -0.0761
  943MOL0     C24398   6.190   0.180   2.327 -0.5220 -0.1555  0.3936
  943MOL0     C24399   6.298   0.143   2.256  0.0153 -0.0878 -0.2824
  943MOL0     C24400   6.433   0.177   2.289 -0.0297 -0.9325  0.5216
  943MOL0     C24401   6.447   0.259   2.398 -0.7923  0.7077  0.0394
  943MOL0     O24402   6.576   0.278   2.441  0.3632 -0.7753 -0.4407
  943MOL0     C24403   6.606   0.268   2.580  0.5100  0.9962 -0.2368
  943MOL0     C24404   6.624   0.123   2.625 -0.1696 -0.3012 -0.1484
  943MOL0     C24405   6.681   0.100   2.767 -0.4429 -0.7929  0.0113
  943MOL0     C24406   6.595   0.162   2.877 -0.0696 -0.5031 -0.1726
  943MOL0     C24407   6.663   0.124   3.001  0.4465  0.6744 -0.7196
  943MOL0     C24408   6.718   0.094   3.104  0.3296 -0.4794 -0.0057
  943MOL0     C24409   6.343   0.310   2.473 -0.1170 -0.4993  0.8108
  943MOL0     C24410   6.214   0.272   2.434  0.6152 -0.3057 -0.9265
  943MOL0     H24411   5.858  -0.069   2.375  1.7854  1.5124 -1.0347
  943MOL0     H24412   5.618  -0.133   2.306  5.2295 -1.7447  0.7600
  943MOL0     H24413   5.288   0.177   2.200 -1.8609 -1.0727  0.2930
  943MOL0     H24414   5.370   0.192   2.359 -3.2505 -0.1291  1.7535
  943MOL0     H24415   5.236   0.014   2.451 -1.5877 -1.6564 -0.1669
  943MOL0     H24416   5.219  -0.053   2.289 -1.8911  0.8215 -1.1635
  943MOL0     H24417   5.073   0.128   2.220  0.2538  0.8242 -0.2730
  943MOL0     H24418   5.083   0.209   2.376 -0.2666  1.7586 -1.4397
  943MOL0     H24419   4.960  -0.068   2.314  3.3839 -1.9654  1.6178
  943MOL0     H24420   5.009  -0.035   2.471  3.3778 -1.7577 -0.8637
  943MOL0     H24421   4.816   0.143   2.320  0.2010 -0.1269  0.0599
  943MOL0     H24422   4.840   0.158   2.487 -0.4533  2.1711 -1.2728
  943MOL0     H24423   4.756  -0.082   2.532  4.0640  1.4052  0.0583
  943MOL0     H24424   4.734  -0.107   2.366 -1.7649  1.5227 -0.4681
  943MOL0     H24425   4.595   0.133   2.508  1.4861  1.3843 -2.5470
  943MOL0     H24426   4.571   0.073   2.343 -0.1169 -2.4967  0.2374
  943MOL0     H24427   4.503  -0.103   2.581  2.3870 -0.9379 -1.0527
  943MOL0     H24428   4.462  -0.125   2.404  2.0632  2.2178 -2.2611
  943MOL0     H24429   4.368   0.064   2.728 -0.8848 -2.5281 -0.3185
  943MOL0     H24430   4.137   0.342   2.601 -0.4695  0.6450 -0.2788
  943MOL0     H24431   4.228   0.302   2.742 -0.4340 -0.8912  0.6105
  943MOL0     H24432   3.964   0.171   2.677 -0.2495 -2.4041  2.1442
  943MOL0     H24433   3.986   0.323   2.779 -4.9081 -1.9964 -0.2662
  943MOL0     H24434   4.123   0.055   2.843 -2.8170 -3.0180 -2.0526
  943MOL0     H24435   4.118   0.199   2.941 -0.2391 -2.4374  2.1685
  943MOL0     H24436   3.944   0.037   3.026  1.9361 -0.9706 -1.7486
  943MOL0     H24437   3.874   0.033   2.860  0.0914  1.0161 -0.9839
  943MOL0     H24438   3.767   0.353   3.161 -2.8625 -0.6521  4.5918
  943MOL0     H24439   3.538   0.384   3.207 -0.8796  1.0799 -0.8593
  943MOL0     H24440   3.081  -0.007   3.172  0.7504  0.9748  1.0841
  943MOL0     H24441   2.831   0.028   3.241 -2.2175  1.3519  0.0669
  943MOL0     H24442   2.606   0.321   3.027 -0.0236  2.3490  0.0782
  943MOL0     H24443   2.627   0.418   3.167 -1.2251  1.6467  0.0247
  943MOL0     H24444   2.381   0.234   3.138  0.0576  0.8774  0.2989
  943MOL0     H24445   2.401   0.402   3.109  2.0401  2.3842  0.1677
  943MOL0     H24446   2.483   0.421   3.358 -0.8742 -0.3314  1.6719
  943MOL0     H24447   2.446   0.253   3.371  1.3843 -0.3439 -1.2265
  943MOL0     H24448   2.243   0.457   3.279  1.8020 -0.2964 -1.3283
  943MOL0     H24449   2.215   0.292   3.321  3.0221 -1.4799 -2.3198
  943MOL0     H24450   2.333   0.484   3.527 -0.1045  1.1598 -1.3508
  943MOL0     H24451   2.303   0.311   3.547  2.9376  2.2297  0.1614
  943MOL0     H24452   2.058   0.354   3.546  0.0712 -0.0695  0.7243
  943MOL0     H24453   2.087   0.516   3.479  1.6653 -0.5877 -2.0028
  943MOL0     H24454   2.157   0.412   3.762  1.9707 -1.1316 -1.0173
  943MOL0     H24455   2.203   0.564   3.704  1.4285 -1.2200  1.1547
  943MOL0     H24456   1.901   0.474   3.707 -0.9752  0.0103  0.8834
  943MOL0     H24457   1.969   0.632   3.645 -3.9153  0.5644  1.0782
  943MOL0     H24458   2.832   0.388   3.017  1.6027 -1.0080 -1.4378
  943MOL0     H24459   3.063   0.381   2.980  0.1594  0.7912 -0.2684
  943MOL0     H24460   3.424   0.092   2.903 -0.6342  1.6992 -1.6511
  943MOL0     H24461   3.659   0.078   2.832  1.1380  2.4095 -0.6443
  943MOL0     H24462   5.543   0.266   2.205  0.1919 -1.7654 -0.6182
  943MOL0     H24463   5.782   0.337   2.288 -0.7781 -0.2778 -3.1878
  943MOL0     H24464   6.285   0.081   2.167  0.3821 -0.3457 -0.1628
  943MOL0     H24465   6.521   0.139   2.238  0.9236  1.8433 -0.0430
  943MOL0     H24466   6.542   0.322   2.650  1.7813 -0.7854  2.5012
  943MOL0     H24467   6.701   0.319   2.601 -0.8452  3.0819  1.1663
  943MOL0     H24468   6.532   0.070   2.598  1.0608 -1.3951 -2.5173
  943MOL0     H24469   6.700   0.080   2.558 -2.5072 -1.5267 -2.2013
  943MOL0     H24470   6.778   0.148   2.767 -0.6146 -0.4283  1.0094
  943MOL0     H24471   6.684  -0.008   2.783 -0.7243 -0.6596  1.0038
  943MOL0     H24472   6.593   0.271   2.882 -0.7469 -0.5208  0.0483
  943MOL0     H24473   6.490   0.133   2.860 -1.0125  2.1748  0.5165
  943MOL0     H24474   6.761   0.066   3.198 -0.1960 -1.0121  0.0830
  943MOL0     H24475   6.360   0.387   2.547  0.4426  0.4021 -0.2174
  943MOL0     H24476   6.129   0.305   2.493  0.2649 -0.1378 -1.5139
  944MOL0     O24477   4.155   3.638   6.553  0.1683  0.3040 -0.3936
  944MOL0     C24478   4.219   3.672   6.451  0.0892  0.4232 -0.7135
  944MOL0     O24479   4.173   3.650   6.323 -0.1895  0.4999  0.0596
  944MOL0     C24480   4.063   3.580   6.306  1.1472 -0.1546  0.1385
  944MOL0     C24481   3.941   3.649   6.282  0.2506 -0.4889  0.2465
  944MOL0     C24482   3.822   3.587   6.292 -0.4951  0.1018  0.1777
  944MOL0     C24483   3.814   3.454   6.342 -0.5421  0.2900  0.5618
  944MOL0     O24484   3.695   3.392   6.370 -0.1776  0.0666  0.4095
  944MOL0     C24485   3.683   3.273   6.293 -0.8555  0.8182 -0.9470
  944MOL0     C24486   3.666   3.156   6.392 -0.3661 -0.0202  0.2861
  944MOL0     C24487   3.751   3.034   6.349 -0.0973  0.5359 -0.4823
  944MOL0     C24488   3.729   2.916   6.443  0.3603 -0.6532 -0.5140
  944MOL0     C24489   3.814   2.790   6.411  0.4610 -0.0062  0.1093
  944MOL0     C24490   3.966   2.801   6.375 -0.0995  0.5703 -0.0438
  944MOL0     C24491   4.047   2.675   6.423  0.2628  0.4368  1.4349
  944MOL0     C24492   4.193   2.691   6.372  0.3516  0.2208  0.1625
  944MOL0     N24493   4.256   2.561   6.361  0.1120 -0.1705 -0.3372
  944MOL0     C24494   4.249   2.471   6.258  0.1768 -0.8174 -0.0900
  944MOL0     C24495   4.340   2.382   6.277 -0.1796  0.2420 -0.3235
  944MOL0     C24496   4.382   2.275   6.178  0.5006  0.1264 -0.1931
  944MOL0     C24497   4.474   2.337   6.056  0.2710  0.9688 -0.0823
  944MOL0     C24498   4.575   2.437   6.098 -0.1738 -0.5077 -0.0470
  944MOL0     C24499   4.685   2.376   6.184  0.7978  0.2043  0.1783
  944MOL0     O24500   4.785   2.476   6.202  0.2685 -0.4485 -0.3231
  944MOL0     C24501   4.910   2.425   6.210 -1.0390  0.2860  0.6801
  944MOL0     C24502   5.008   2.510   6.165  0.6246  0.8817  0.7372
  944MOL0     C24503   5.147   2.469   6.177 -0.2044 -0.6181 -0.2170
  944MOL0     C24504   5.185   2.337   6.212  0.0042  0.0636 -0.1255
  944MOL0     C24505   5.320   2.299   6.212 -0.8437 -0.4863  0.5551
  944MOL0     O24506   5.359   2.194   6.287 -0.8110  0.7865 -0.1990
  944MOL0     C24507   5.488   2.156   6.284 -0.7464 -0.3644  0.0818
  944MOL0     C24508   5.510   2.018   6.252  0.6234  0.2092 -0.2177
  944MOL0     C24509   5.640   1.971   6.254  0.2932  0.4554 -0.2061
  944MOL0     C24510   5.747   2.050   6.293 -0.5976  0.5072 -0.6319
  944MOL0     O24511   5.875   1.993   6.311  0.4830 -0.1947  0.4818
  944MOL0     C24512   5.951   2.027   6.431 -0.5219  0.1172  0.7884
  944MOL0     C24513   6.062   2.120   6.398  1.3477  0.1296 -0.2199
  944MOL0     C24514   6.169   2.114   6.511  0.0336  0.5740 -0.1971
  944MOL0     C24515   6.282   2.005   6.504  0.6635 -0.2793  0.7055
  944MOL0     C24516   6.397   2.038   6.608  0.3892 -0.6934 -0.4043
  944MOL0     C24517   6.520   1.955   6.591 -0.0591  0.0566 -0.3258
  944MOL0     C24518   6.622   1.988   6.693 -0.5706 -0.0078  0.1701
  944MOL0     C24519   6.730   1.890   6.678 -0.1147 -0.0260 -0.0019
  944MOL0    Cl24520   6.883   1.918   6.767 -0.3557  0.1525  0.1615
  944MOL0     C24521   5.722   2.182   6.325  0.0827  0.8988  0.3977
  944MOL0     C24522   5.598   2.240   6.315  0.0470 -0.7122  0.1093
  944MOL0     O24523   5.398   2.374   6.148  0.5927  0.5245  1.1084
  944MOL0     C24524   5.086   2.259   6.273 -0.4480  0.0535  0.4577
  944MOL0     C24525   4.951   2.296   6.264 -0.4740  0.2776 -0.2752
  944MOL0     N24526   4.401   2.408   6.401 -0.2096  0.3112  0.3686
  944MOL0     N24527   4.342   2.508   6.455  0.8769 -0.3714 -0.8629
  944MOL0     C24528   3.939   3.396   6.384 -0.1422 -0.2197  0.2647
  944MOL0     C24529   4.062   3.449   6.349 -0.4010 -0.1914  0.2490
  944MOL0     C24530   4.338   3.759   6.465  0.1810  0.2174 -0.1406
  944MOL0     C24531   4.364   3.836   6.582 -0.5809  0.2808 -0.0811
  944MOL0     C24532   4.474   3.924   6.589 -0.3473  0.2245 -0.7851
  944MOL0     C24533   4.570   3.933   6.491 -0.6372  0.1469  0.3797
  944MOL0     O24534   4.670   4.031   6.494  0.0525 -0.5658  0.0505
  944MOL0     C24535   4.777   4.014   6.581  0.0704 -0.1102  0.6822
  944MOL0     C24536   4.858   3.902   6.525 -0.0580  0.1253 -0.4553
  944MOL0     C24537   4.992   3.902   6.589  0.5828  0.1905 -0.6725
  944MOL0     C24538   5.078   3.794   6.532 -0.5862 -0.2425 -0.6780
  944MOL0     C24539   5.182   3.766   6.637 -0.3471  0.0970 -0.2443
  944MOL0     C24540   5.269   3.722   6.717 -0.0614  0.4789  0.3680
  944MOL0     C24541   4.549   3.851   6.372 -0.0349 -0.5764  0.0163
  944MOL0     C24542   4.431   3.769   6.360  0.1422  0.3288 -1.0909
  944MOL0     H24543   3.947   3.753   6.249  1.0854  0.2399  2.4786
  944MOL0     H24544   3.734   3.640   6.258  0.8394 -0.1395 -4.2460
  944MOL0     H24545   3.769   3.257   6.227 -0.0067 -1.1795  0.5295
  944MOL0     H24546   3.596   3.282   6.228 -2.2967 -2.2730  0.3260
  944MOL0     H24547   3.561   3.125   6.387 -0.0572 -1.0690  0.2687
  944MOL0     H24548   3.691   3.179   6.495 -1.0542  0.0110  0.4560
  944MOL0     H24549   3.857   3.060   6.346  0.1280 -0.3823 -0.5437
  944MOL0     H24550   3.724   3.001   6.248 -1.2119 -0.3551  0.0801
  944MOL0     H24551   3.753   2.943   6.546  1.2183 -0.7802 -0.6720
  944MOL0     H24552   3.626   2.882   6.451  0.2437 -0.1649  0.2024
  944MOL0     H24553   3.769   2.737   6.326 -0.1244 -0.2678  0.5731
  944MOL0     H24554   3.794   2.724   6.495 -2.1049 -1.4142 -1.4719
  944MOL0     H24555   4.018   2.883   6.426  0.8246  1.4739 -2.3284
  944MOL0     H24556   3.978   2.821   6.268 -4.1351 -0.3940 -0.8494
  944MOL0     H24557   4.028   2.654   6.529 -1.5683  3.0920  1.7415
  944MOL0     H24558   4.008   2.598   6.357  0.8515  2.2322 -1.1704
  944MOL0     H24559   4.243   2.753   6.448 -1.9286 -0.2777  2.1886
  944MOL0     H24560   4.197   2.747   6.278 -0.5173 -0.7517 -0.4696
  944MOL0     H24561   4.190   2.499   6.171 -0.0305 -0.2203  0.2464
  944MOL0     H24562   4.289   2.233   6.139  0.6625  0.4136 -0.9093
  944MOL0     H24563   4.436   2.195   6.229 -1.0305  0.3842  1.9279
  944MOL0     H24564   4.388   2.377   6.001 -3.3496 -1.8170  2.9915
  944MOL0     H24565   4.527   2.262   5.997  0.6695  2.7344 -2.1093
  944MOL0     H24566   4.619   2.462   6.001  2.6478 -0.3033  1.1815
  944MOL0     H24567   4.525   2.519   6.151 -1.8377 -1.3424 -0.2620
  944MOL0     H24568   4.727   2.291   6.129  0.0119 -0.2379  0.2456
  944MOL0     H24569   4.640   2.347   6.279  2.8737  0.0400  1.1827
  944MOL0     H24570   4.983   2.607   6.124  2.0684  0.6051 -0.9618
  944MOL0     H24571   5.224   2.540   6.152 -0.8145  0.7212  1.5349
  944MOL0     H24572   5.427   1.954   6.225 -0.1105  1.6174 -1.4281
  944MOL0     H24573   5.650   1.863   6.241  2.2361  0.8147 -2.3978
  944MOL0     H24574   5.993   1.938   6.479  0.5049  1.7746  3.1774
  944MOL0     H24575   5.886   2.076   6.503 -1.9166 -0.3252 -0.1435
  944MOL0     H24576   6.015   2.217   6.381 -4.1725 -2.2817 -1.0418
  944MOL0     H24577   6.112   2.081   6.309 -0.6014 -2.2763 -0.3838
  944MOL0     H24578   6.137   2.113   6.615  1.8867 -0.2413  0.4025
  944MOL0     H24579   6.214   2.213   6.504 -0.6385  0.9991  1.1504
  944MOL0     H24580   6.237   1.906   6.517 -1.0841  0.1410 -1.4568
  944MOL0     H24581   6.326   2.004   6.404 -1.5356  0.4754 -0.3457
  944MOL0     H24582   6.357   2.024   6.709 -1.4258 -2.2613 -1.2694
  944MOL0     H24583   6.423   2.144   6.598 -1.7173  0.2563  2.7603
  944MOL0     H24584   6.556   1.958   6.488 -3.4037 -1.3405 -1.6584
  944MOL0     H24585   6.487   1.853   6.613 -0.1529  0.1221 -0.1657
  944MOL0     H24586   6.662   2.085   6.662 -0.1193 -0.7858 -1.7961
  944MOL0     H24587   6.564   1.993   6.786 -2.1151  3.0775 -0.8080
  944MOL0     H24588   6.742   1.871   6.571  0.4456 -5.3922  0.7198
  944MOL0     H24589   6.696   1.795   6.721  0.3986  0.1004  0.6856
  944MOL0     H24590   5.797   2.248   6.368  2.7224 -1.2862 -0.5181
  944MOL0     H24591   5.576   2.344   6.340  1.9119  1.6447 -6.1697
  944MOL0     H24592   5.120   2.163   6.310 -3.2992 -1.2961 -0.1458
  944MOL0     H24593   4.879   2.218   6.291  0.6580 -1.3260 -1.6801
  944MOL0     H24594   3.938   3.309   6.449 -0.7179  0.2330  0.8790
  944MOL0     H24595   4.157   3.408   6.383 -0.2391  0.3543  0.4662
  944MOL0     H24596   4.286   3.834   6.657 -1.0491 -0.7320 -0.5658
  944MOL0     H24597   4.485   3.981   6.680  0.1665 -0.0519 -0.6693
  944MOL0     H24598   4.736   3.993   6.681  0.1430  2.0417  1.2319
  944MOL0     H24599   4.839   4.104   6.591  1.0843 -1.0351  4.0062
  944MOL0     H24600   4.806   3.806   6.534  1.3495 -0.5167  1.7914
  944MOL0     H24601   4.870   3.932   6.421  0.9327  0.8243 -0.1536
  944MOL0     H24602   4.980   3.878   6.695  0.4662 -0.3680 -0.8085
  944MOL0     H24603   5.046   3.997   6.585 -0.2518  0.8040  1.5742
  944MOL0     H24604   5.018   3.706   6.509 -1.9033  0.5591 -0.4085
  944MOL0     H24605   5.125   3.829   6.439  0.6377 -3.1016 -1.2299
  944MOL0     H24606   5.344   3.675   6.778 -2.6032 -2.4567  1.5007
  944MOL0     H24607   4.584   3.861   6.270 -0.7918 -1.9339 -0.3926
  944MOL0     H24608   4.433   3.725   6.260  3.5927  1.5159 -1.6912
  945MOL0     O24609   5.570   9.303   2.660 -0.0383 -0.7511 -0.7194
  945MOL0     C24610   5.605   9.351   2.553  0.0513  0.7345 -0.2155
  945MOL0     O24611   5.535   9.442   2.476 -0.1857  0.4565  0.4913
  945MOL0     C24612   5.411   9.480   2.518  0.2899  0.5558 -0.2449
  945MOL0     C24613   5.305   9.392   2.509 -0.1445 -0.6632  0.2207
  945MOL0     C24614   5.183   9.438   2.564 -0.0110  0.2807  0.5428
  945MOL0     C24615   5.159   9.552   2.614  0.1712  0.7360 -0.0363
  945MOL0     O24616   5.032   9.576   2.653 -0.6353  0.7923 -0.3177
  945MOL0     C24617   5.018   9.602   2.796  0.4955 -0.0113 -0.6001
  945MOL0     C24618   4.886   9.695   2.817 -0.0550 -0.3677  0.0585
  945MOL0     C24619   4.763   9.650   2.741  0.3922  0.1489 -0.6780
  945MOL0     C24620   4.640   9.731   2.784 -0.3630  0.0449  0.5007
  945MOL0     C24621   4.535   9.736   2.678 -0.7435  0.1721 -0.2097
  945MOL0     C24622   4.401   9.796   2.726  0.1946  0.0408  0.1809
  945MOL0     C24623   4.289   9.783   2.620  0.3228 -0.0799 -0.1848
  945MOL0     C24624   4.152   9.843   2.667 -0.2092  0.2029  0.0546
  945MOL0     N24625   4.092   9.751   2.761 -0.3163 -0.0864  0.4629
  945MOL0     C24626   4.038   9.631   2.728  0.1287  0.7724 -0.3803
  945MOL0     C24627   4.022   9.560   2.846  0.4402  0.1961  0.5720
  945MOL0     C24628   3.956   9.426   2.873 -0.0516 -0.7599  0.2295
  945MOL0     C24629   3.827   9.413   2.791 -0.3867 -0.5861 -0.4439
  945MOL0     C24630   3.782   9.262   2.793  0.2641 -0.3497 -0.2872
  945MOL0     C24631   3.736   9.222   2.936 -0.9591 -0.6821  1.0875
  945MOL0     O24632   3.645   9.319   2.988 -0.0127 -0.0358 -0.6679
  945MOL0     C24633   3.511   9.303   2.976  0.1862 -0.2839 -0.1193
  945MOL0     C24634   3.451   9.207   2.895  0.6342 -0.2912  0.7920
  945MOL0     C24635   3.313   9.206   2.881  0.2778  0.3769  0.5205
  945MOL0     C24636   3.226   9.280   2.964  0.0498  0.4144 -0.5652
  945MOL0     C24637   3.084   9.280   2.953 -0.2779  0.3531 -0.3072
  945MOL0     O24638   3.022   9.371   3.032  0.3630 -0.9675  0.2859
  945MOL0     C24639   2.886   9.389   3.040 -0.0666 -0.1277  0.6168
  945MOL0     C24640   2.781   9.305   2.988  0.0358 -0.3412  0.0938
  945MOL0     C24641   2.642   9.320   3.023 -0.8359 -0.3500 -0.8824
  945MOL0     C24642   2.617   9.425   3.108 -0.5392 -0.3202 -0.2540
  945MOL0     O24643   2.489   9.456   3.133  0.7094 -0.4387 -0.3389
  945MOL0     C24644   2.449   9.599   3.121 -0.1134  0.1518  1.2378
  945MOL0     C24645   2.292   9.605   3.142 -0.7463 -0.3361 -0.1541
  945MOL0     C24646   2.249   9.735   3.220 -0.3447  0.1956  1.1513
  945MOL0     C24647   2.095   9.740   3.223  0.2969 -0.6985  0.2820
  945MOL0     C24648   2.060   9.864   3.309 -0.0407  0.5065 -0.1755
  945MOL0     C24649   1.901   9.890   3.319  0.9409 -0.0044  0.4179
  945MOL0     C24650   1.860  10.008   3.416  0.1734  0.2374 -1.0500
  945MOL0     C24651   1.720   9.981   3.474 -0.0531  0.3645 -0.0395
  945MOL0    Cl24652   1.614   9.983   3.332 -0.4122  0.4111 -0.0248
  945MOL0     C24653   2.712   9.506   3.169 -0.0192  0.3758  0.3330
  945MOL0     C24654   2.848   9.478   3.142  0.2114 -0.6312  0.0826
  945MOL0     O24655   3.031   9.207   2.870 -0.1040  0.6033  1.0522
  945MOL0     C24656   3.283   9.372   3.062  0.0545  0.3735  0.6678
  945MOL0     C24657   3.423   9.379   3.060  1.5430  0.0266  0.3877
  945MOL0     N24658   4.072   9.641   2.946 -0.8460 -0.2070  1.0376
  945MOL0     N24659   4.107   9.755   2.896  0.4567  0.1371  0.7928
  945MOL0     C24660   5.267   9.637   2.622  0.0270  0.8854 -0.0733
  945MOL0     C24661   5.390   9.602   2.569 -0.1695 -0.6003  0.2258
  945MOL0     C24662   5.751   9.329   2.509  0.8522 -0.0600 -0.8210
  945MOL0     C24663   5.828   9.250   2.593  0.1672  0.1473  0.0925
  945MOL0     C24664   5.962   9.241   2.558 -0.5738  1.3979 -0.5864
  945MOL0     C24665   6.014   9.291   2.445  0.0235  0.8652 -0.0688
  945MOL0     O24666   6.151   9.288   2.417 -0.1619 -0.2553  0.5851
  945MOL0     C24667   6.247   9.220   2.501  0.4061  0.1212 -0.5275
  945MOL0     C24668   6.384   9.272   2.441 -0.8382 -0.7755 -0.2192
  945MOL0     C24669   6.399   9.426   2.468  0.3049 -0.4565  0.6380
  945MOL0     C24670   6.513   9.496   2.373  0.0025  0.7380 -0.1921
  945MOL0     C24671   6.646   9.435   2.392  0.1489 -0.0277  0.6262
  945MOL0     C24672   6.746   9.373   2.425 -0.6840 -1.5471 -0.5191
  945MOL0     C24673   5.936   9.369   2.363  1.0494 -0.7565 -0.1830
  945MOL0     C24674   5.799   9.380   2.390 -0.4478 -0.5154 -0.7057
  945MOL0     H24675   5.302   9.296   2.457 -0.7736  0.5005 -2.0435
  945MOL0     H24676   5.102   9.366   2.554  2.2279 -2.5757  1.4962
  945MOL0     H24677   5.096   9.662   2.844 -1.6726  2.6178 -0.1454
  945MOL0     H24678   4.999   9.513   2.858 -1.0724  2.8983  3.5840
  945MOL0     H24679   4.905   9.797   2.782 -0.3121  0.1353  1.3342
  945MOL0     H24680   4.863   9.706   2.924  0.2483 -0.7595  0.1658
  945MOL0     H24681   4.733   9.546   2.751 -3.1450  1.0912  0.0575
  945MOL0     H24682   4.785   9.671   2.636  0.0980  3.3308 -0.2012
  945MOL0     H24683   4.609   9.689   2.880  0.7502  0.0203  0.8686
  945MOL0     H24684   4.676   9.833   2.804  0.5729 -0.3015  0.6180
  945MOL0     H24685   4.514   9.632   2.655 -0.7576  0.7565 -3.1779
  945MOL0     H24686   4.582   9.795   2.598 -2.2387  0.5916 -0.8088
  945MOL0     H24687   4.405   9.905   2.733 -0.9608  0.1782 -0.7967
  945MOL0     H24688   4.377   9.754   2.824  1.4747  1.2655  1.0559
  945MOL0     H24689   4.324   9.830   2.527  0.2829 -0.2133 -0.2665
  945MOL0     H24690   4.280   9.676   2.603  1.0242 -0.1466 -0.1627
  945MOL0     H24691   4.091   9.854   2.577 -0.0442 -0.6589 -0.1678
  945MOL0     H24692   4.159   9.943   2.711 -2.6645  1.6108 -2.4215
  945MOL0     H24693   4.008   9.601   2.628  2.0907  0.2439 -0.8546
  945MOL0     H24694   3.936   9.421   2.980 -0.1126 -1.8440  0.1809
  945MOL0     H24695   4.035   9.352   2.852  1.0760 -0.7599  3.8249
  945MOL0     H24696   3.836   9.441   2.686  1.2335 -1.1280 -0.4747
  945MOL0     H24697   3.747   9.479   2.826 -1.3291 -0.4600 -2.6743
  945MOL0     H24698   3.695   9.243   2.729 -0.3663 -1.3398  0.8321
  945MOL0     H24699   3.868   9.196   2.780 -0.4535 -1.1962 -0.7725
  945MOL0     H24700   3.824   9.221   3.001  0.5111  2.4560 -0.6486
  945MOL0     H24701   3.695   9.121   2.938  1.2957 -1.6755  0.6125
  945MOL0     H24702   3.501   9.143   2.823 -0.1623  0.0934 -0.1189
  945MOL0     H24703   3.282   9.126   2.814 -0.0529 -1.5698  2.8711
  945MOL0     H24704   2.802   9.224   2.918  1.4854 -0.5934  0.7867
  945MOL0     H24705   2.570   9.247   2.987  0.2406 -1.5526 -0.6690
  945MOL0     H24706   2.462   9.637   3.019 -2.4675  3.0009  1.8548
  945MOL0     H24707   2.494   9.673   3.187  2.4367 -1.5331  1.5118
  945MOL0     H24708   2.264   9.519   3.203 -1.3101 -0.6944 -0.9113
  945MOL0     H24709   2.238   9.612   3.047 -0.3076  0.0931 -0.3785
  945MOL0     H24710   2.285   9.817   3.156 -0.2643 -2.0996 -1.9845
  945MOL0     H24711   2.299   9.755   3.315 -1.0729  0.2976  1.5143
  945MOL0     H24712   2.046   9.754   3.126 -1.4331  0.2628  1.2537
  945MOL0     H24713   2.051   9.650   3.269 -0.6830 -0.7923 -0.7851
  945MOL0     H24714   2.101   9.956   3.266 -3.3299  2.4237  0.4726
  945MOL0     H24715   2.098   9.838   3.408 -0.5041  2.3685  0.5486
  945MOL0     H24716   1.854   9.794   3.342 -4.5329  2.0040 -0.8198
  945MOL0     H24717   1.869   9.910   3.217 -0.9591 -2.4887  0.4325
  945MOL0     H24718   1.925  10.008   3.505 -0.0351  1.3766 -0.8841
  945MOL0     H24719   1.876  10.102   3.362  1.6401 -0.9228 -2.7705
  945MOL0     H24720   1.694  10.068   3.535  1.9941  0.3925  0.8656
  945MOL0     H24721   1.701   9.886   3.525 -4.1928 -1.2792 -3.9221
  945MOL0     H24722   2.680   9.578   3.243  0.1036 -0.5067  1.2662
  945MOL0     H24723   2.924   9.533   3.196  1.3326  0.6630 -2.6675
  945MOL0     H24724   3.237   9.440   3.132  0.7386  1.3787  0.1734
  945MOL0     H24725   3.480   9.449   3.121  2.4791  1.0189 -1.5252
  945MOL0     H24726   5.252   9.736   2.662  3.8940  2.2410 -1.5191
  945MOL0     H24727   5.469   9.674   2.587  2.0500 -2.7281 -0.3884
  945MOL0     H24728   5.807   9.200   2.687  0.5434 -1.4288 -0.6289
  945MOL0     H24729   6.030   9.194   2.628 -1.8592 -1.2362 -0.9570
  945MOL0     H24730   6.233   9.112   2.501  0.4942  0.1103 -0.6399
  945MOL0     H24731   6.230   9.257   2.603  0.8264  0.6861 -0.6539
  945MOL0     H24732   6.465   9.227   2.499 -2.6301 -1.2737  2.0140
  945MOL0     H24733   6.401   9.240   2.338  2.1426  0.9705 -0.3936
  945MOL0     H24734   6.412   9.440   2.575 -1.4691 -2.6809  1.2132
  945MOL0     H24735   6.310   9.483   2.440 -0.4274 -1.3754  1.0447
  945MOL0     H24736   6.476   9.482   2.271  0.8781 -3.3832 -0.1402
  945MOL0     H24737   6.532   9.602   2.392  2.7807  0.1937  0.5266
  945MOL0     H24738   6.836   9.337   2.471 -0.2198 -1.7681 -1.5686
  945MOL0     H24739   5.975   9.413   2.271 -0.1672  2.8082  0.8612
  945MOL0     H24740   5.738   9.440   2.324 -1.5864 -2.6148 -1.6574
  946MOL0     O24741  10.716   4.823   9.506  0.0630 -0.4029 -0.5499
  946MOL0     C24742  10.790   4.781   9.423  0.4804 -0.7727 -0.4152
  946MOL0     O24743  10.763   4.675   9.336 -0.0442 -0.7504  0.6984
  946MOL0     C24744  10.639   4.620   9.336 -0.5914  0.1843 -0.0860
  946MOL0     C24745  10.512   4.692   9.326 -0.3733  0.6624 -1.1072
  946MOL0     C24746  10.391   4.619   9.314  0.0793 -0.1617 -0.2980
  946MOL0     C24747  10.401   4.480   9.310  0.6264  0.2804 -0.1941
  946MOL0     O24748  10.280   4.411   9.291 -0.3341 -0.2077 -0.6442
  946MOL0     C24749  10.256   4.311   9.401  1.0588  0.2452  0.6353
  946MOL0     C24750  10.132   4.233   9.365 -0.1300 -0.3852  0.0711
  946MOL0     C24751  10.000   4.310   9.373 -0.4957  0.7319 -0.3521
  946MOL0     C24752   9.961   4.403   9.261  0.5504 -0.2982 -0.0300
  946MOL0     C24753   9.935   4.318   9.139  0.3918  0.4855 -0.5085
  946MOL0     C24754   9.932   4.397   9.000  0.1488  0.2382  0.0193
  946MOL0     C24755  10.070   4.440   8.941 -0.1974 -0.3742 -0.4390
  946MOL0     C24756  10.131   4.319   8.883 -1.1488  0.3631 -0.0320
  946MOL0     N24757  10.076   4.265   8.753  0.2041 -0.9563 -0.7909
  946MOL0     C24758  10.114   4.300   8.626  0.4778  0.0263  0.2065
  946MOL0     C24759  10.074   4.187   8.556  0.0134 -0.1218 -0.2660
  946MOL0     C24760  10.083   4.160   8.411  0.0733 -0.6203 -0.4252
  946MOL0     C24761   9.972   4.232   8.326 -1.2621  0.6123 -0.1048
  946MOL0     C24762  10.013   4.379   8.315  0.4884  0.2974 -0.7246
  946MOL0     C24763   9.914   4.455   8.226  0.1463 -0.5018 -1.0374
  946MOL0     O24764   9.790   4.455   8.300  0.7535  0.1321  0.0435
  946MOL0     C24765   9.673   4.448   8.226 -0.9076  0.6807  0.4470
  946MOL0     C24766   9.568   4.351   8.237 -0.3925 -0.5665 -0.6416
  946MOL0     C24767   9.454   4.365   8.160 -0.1999  0.1100 -0.4585
  946MOL0     C24768   9.435   4.474   8.073  0.0097 -0.6602 -0.5509
  946MOL0     C24769   9.309   4.483   7.998 -0.3488  0.3792 -0.3376
  946MOL0     O24770   9.282   4.582   7.910  0.2974  0.0454 -0.4643
  946MOL0     C24771   9.156   4.581   7.843  0.3136 -0.1395  0.4188
  946MOL0     C24772   9.072   4.688   7.847 -0.0942  0.4462 -1.5534
  946MOL0     C24773   8.956   4.696   7.772 -0.6367  0.3986 -0.3041
  946MOL0     C24774   8.918   4.591   7.684 -0.1777 -0.0711 -0.4695
  946MOL0     O24775   8.797   4.580   7.615  0.0934 -0.1028  0.5057
  946MOL0     C24776   8.724   4.706   7.589  0.0410 -0.5612  0.5822
  946MOL0     C24777   8.581   4.677   7.544 -0.0343  0.3694  0.8054
  946MOL0     C24778   8.504   4.789   7.479 -0.1794 -0.3469 -0.2466
  946MOL0     C24779   8.356   4.770   7.470  0.3017 -0.3224  0.5035
  946MOL0     C24780   8.268   4.784   7.601  1.3011 -0.1421 -0.1152
  946MOL0     C24781   8.122   4.750   7.541  0.1791 -0.9064 -0.1458
  946MOL0     C24782   8.087   4.629   7.458  0.7828 -0.5189 -0.4995
  946MOL0     C24783   7.939   4.599   7.475 -0.5373 -0.0195  0.4269
  946MOL0    Cl24784   7.850   4.720   7.378 -0.1402  0.4695  0.6102
  946MOL0     C24785   9.001   4.479   7.672 -0.9694 -0.7491  0.0994
  946MOL0     C24786   9.126   4.475   7.748 -0.2554 -0.1987 -0.1531
  946MOL0     O24787   9.237   4.386   8.010 -0.0446  0.0353  0.0992
  946MOL0     C24788   9.533   4.570   8.058 -0.6513  0.8469 -0.3315
  946MOL0     C24789   9.647   4.556   8.136  0.1234  0.2462  0.6177
  946MOL0     N24790  10.004   4.106   8.644 -0.4784 -0.5961  1.3598
  946MOL0     N24791   9.999   4.153   8.759 -0.0345 -0.7068 -1.1578
  946MOL0     C24792  10.522   4.413   9.308 -0.1075  0.1906  0.4366
  946MOL0     C24793  10.639   4.484   9.318 -0.4254 -0.8167 -0.3783
  946MOL0     C24794  10.923   4.842   9.418 -0.1654 -0.3906 -0.4213
  946MOL0     C24795  11.011   4.812   9.313  0.1452  0.1334  0.7572
  946MOL0     C24796  11.137   4.861   9.308  0.0501 -0.6345 -0.5068
  946MOL0     C24797  11.189   4.936   9.417  0.8511 -0.2250 -0.6466
  946MOL0     O24798  11.322   4.967   9.417  0.3950 -0.5333  0.6076
  946MOL0     C24799  11.342   5.110   9.411 -0.0692  0.1719 -0.2762
  946MOL0     C24800  11.487   5.164   9.371  1.0013  0.0585  0.8858
  946MOL0     C24801  11.550   5.074   9.259  0.2019  0.4039 -0.5982
  946MOL0     C24802  11.696   5.107   9.242 -0.8621  0.3597  0.2651
  946MOL0     C24803  11.734   5.046   9.108 -0.3161  0.2178  0.3904
  946MOL0     C24804  11.772   4.989   9.002 -1.3382  0.7343 -0.7940
  946MOL0     C24805  11.100   4.967   9.519 -0.6052  0.0148 -0.3270
  946MOL0     C24806  10.970   4.925   9.515  0.3838 -0.2595 -0.3332
  946MOL0     H24807  10.513   4.800   9.335 -1.9872  0.6116  0.2251
  946MOL0     H24808  10.296   4.672   9.303  0.9060  1.3919 -0.1882
  946MOL0     H24809  10.245   4.364   9.496 -2.5204  3.0468 -1.1016
  946MOL0     H24810  10.346   4.249   9.406 -0.2218 -1.6541  1.3159
  946MOL0     H24811  10.121   4.154   9.440  0.9773 -0.4340  0.1873
  946MOL0     H24812  10.153   4.182   9.271 -1.0396 -2.4928  0.9505
  946MOL0     H24813   9.999   4.373   9.462 -1.3030 -0.0918  0.2316
  946MOL0     H24814   9.928   4.228   9.378  0.2533  0.1569  1.9578
  946MOL0     H24815   9.880   4.475   9.273 -0.1716 -0.8865 -1.1596
  946MOL0     H24816  10.047   4.466   9.236 -0.6063  1.2451 -0.2255
  946MOL0     H24817   9.835   4.277   9.149  0.4528 -0.4662 -2.9514
  946MOL0     H24818  10.008   4.237   9.135  1.9334  1.3964  3.8888
  946MOL0     H24819   9.882   4.486   9.038 -1.2137 -1.4697  2.5983
  946MOL0     H24820   9.872   4.332   8.936 -0.9508 -1.2609  2.4227
  946MOL0     H24821  10.041   4.517   8.869 -3.5957 -0.9831  0.1233
  946MOL0     H24822  10.137   4.480   9.018 -0.7663 -1.7122  0.7850
  946MOL0     H24823  10.114   4.234   8.950  0.8862 -1.4590 -1.6580
  946MOL0     H24824  10.239   4.334   8.882 -1.1459  0.3868  0.3454
  946MOL0     H24825  10.171   4.384   8.588 -0.9784  0.4692 -1.0999
  946MOL0     H24826  10.065   4.054   8.390 -2.0757 -1.0978  3.0891
  946MOL0     H24827  10.185   4.176   8.375 -0.2319  0.2539 -0.9433
  946MOL0     H24828   9.871   4.212   8.365 -0.8052  0.7907  1.2018
  946MOL0     H24829   9.972   4.198   8.222 -0.5061 -1.5281  0.5421
  946MOL0     H24830  10.012   4.430   8.412 -0.3724 -0.4678 -0.3173
  946MOL0     H24831  10.113   4.386   8.271  0.6814 -2.5319 -0.9131
  946MOL0     H24832   9.908   4.417   8.124 -2.0014  1.1183 -1.5898
  946MOL0     H24833   9.950   4.557   8.214 -2.1243  0.1786 -2.8629
  946MOL0     H24834   9.568   4.276   8.315 -0.3919 -0.0236 -0.1042
  946MOL0     H24835   9.388   4.281   8.175 -0.5402  0.7274  1.8752
  946MOL0     H24836   9.094   4.779   7.902  0.2244  0.1115 -1.1252
  946MOL0     H24837   8.890   4.780   7.786 -1.1227  0.1285 -0.9264
  946MOL0     H24838   8.786   4.763   7.520 -1.1062 -2.4063 -2.1361
  946MOL0     H24839   8.711   4.767   7.679  1.8465  2.5475 -1.0959
  946MOL0     H24840   8.523   4.648   7.632 -1.6260  0.3664 -0.2127
  946MOL0     H24841   8.585   4.595   7.472 -1.6356 -0.7264  1.9084
  946MOL0     H24842   8.544   4.813   7.380  0.3906 -2.4977 -0.6037
  946MOL0     H24843   8.533   4.873   7.544  1.9093 -1.5563  0.5013
  946MOL0     H24844   8.315   4.846   7.403 -3.5227 -2.5108  0.0495
  946MOL0     H24845   8.341   4.674   7.419  3.9623  0.0321 -1.5627
  946MOL0     H24846   8.273   4.884   7.645  1.2567  0.0314 -0.4983
  946MOL0     H24847   8.293   4.708   7.676  1.9695 -0.6722 -0.8610
  946MOL0     H24848   8.083   4.834   7.484 -1.9470 -1.6949  0.0652
  946MOL0     H24849   8.058   4.741   7.629 -0.9126 -2.1799 -1.0302
  946MOL0     H24850   8.109   4.641   7.352  1.9984  0.2866 -0.1889
  946MOL0     H24851   8.158   4.550   7.482  1.9383 -0.6952 -3.9949
  946MOL0     H24852   7.894   4.596   7.575  0.5278  0.2048  0.9248
  946MOL0     H24853   7.919   4.494   7.450  0.3795 -1.2046  4.0594
  946MOL0     H24854   8.965   4.405   7.602 -1.6603  1.2388 -1.7633
  946MOL0     H24855   9.183   4.383   7.738  0.8305  0.5176 -0.6034
  946MOL0     H24856   9.521   4.657   7.995  0.5346  1.0456 -0.3053
  946MOL0     H24857   9.713   4.640   8.120  1.2957 -1.0679 -2.2090
  946MOL0     H24858  10.516   4.307   9.285 -1.9613  0.6447 -1.5609
  946MOL0     H24859  10.733   4.431   9.309  0.6993  1.3600 -3.4580
  946MOL0     H24860  10.971   4.747   9.236 -2.5592  0.6237  1.6497
  946MOL0     H24861  11.202   4.840   9.223  1.1021 -2.5470  0.7087
  946MOL0     H24862  11.319   5.151   9.510  0.6328 -2.8220  1.2606
  946MOL0     H24863  11.264   5.155   9.349 -2.1338 -2.2151  0.3972
  946MOL0     H24864  11.480   5.268   9.337  1.8014  0.7843  2.7773
  946MOL0     H24865  11.548   5.170   9.462  0.8948 -2.0428  1.1491
  946MOL0     H24866  11.498   5.095   9.165 -2.1199 -2.2765 -0.0165
  946MOL0     H24867  11.550   4.968   9.283 -3.2396  0.5298  0.4995
  946MOL0     H24868  11.716   5.215   9.244 -1.8193  0.5989 -1.3007
  946MOL0     H24869  11.764   5.066   9.317 -1.3845  0.4898  0.8163
  946MOL0     H24870  11.803   4.938   8.913  2.7036  2.9709 -0.9246
  946MOL0     H24871  11.139   5.013   9.610 -0.0366 -1.8810  0.4298
  946MOL0     H24872  10.904   4.949   9.598 -0.3646 -0.9331 -0.7254
  947MOL0     O24873   6.916   3.440   9.321 -0.5398  0.1974  0.2708
  947MOL0     C24874   6.868   3.375   9.413  0.0925 -0.8488  0.2587
  947MOL0     O24875   6.933   3.266   9.475  0.6172 -0.3924 -0.2645
  947MOL0     C24876   7.056   3.221   9.436 -0.2336  1.5226  0.3022
  947MOL0     C24877   7.127   3.153   9.536  0.2112 -0.5417 -0.7249
  947MOL0     C24878   7.245   3.092   9.504 -0.7222 -0.0434 -0.0260
  947MOL0     C24879   7.305   3.089   9.378 -0.1052  0.1897 -0.4519
  947MOL0     O24880   7.422   3.034   9.353 -0.1613  0.8307 -0.1040
  947MOL0     C24881   7.520   3.025   9.455 -0.8795  0.2620 -0.4333
  947MOL0     C24882   7.648   2.968   9.401 -1.1053  0.1923  0.0796
  947MOL0     C24883   7.638   2.817   9.365 -0.0350 -0.7803 -0.3141
  947MOL0     C24884   7.782   2.777   9.328 -0.9524  0.3646 -0.2596
  947MOL0     C24885   7.794   2.632   9.289 -0.7317  0.3533  0.1272
  947MOL0     C24886   7.893   2.610   9.169  0.2074  0.2787 -0.1473
  947MOL0     C24887   7.904   2.461   9.122  1.3117 -0.7135  0.1606
  947MOL0     C24888   7.832   2.451   8.986  0.0204 -0.6182  0.1229
  947MOL0     N24889   7.687   2.464   8.993  0.0155  0.2511 -0.0009
  947MOL0     C24890   7.594   2.378   9.054 -0.0104 -0.3057 -0.4453
  947MOL0     C24891   7.475   2.448   9.055 -0.8167  0.1744 -0.2992
  947MOL0     C24892   7.340   2.399   9.099 -0.5439 -0.5036 -0.1706
  947MOL0     C24893   7.292   2.458   9.237 -0.1776 -0.1937 -0.0323
  947MOL0     C24894   7.343   2.600   9.263  1.1152  0.2038  0.5425
  947MOL0     C24895   7.281   2.663   9.389 -1.2454 -0.1451  0.7752
  947MOL0     O24896   7.139   2.683   9.358  0.4520  0.2475  0.3831
  947MOL0     C24897   7.051   2.760   9.435 -0.6076  0.4657 -1.1461
  947MOL0     C24898   6.938   2.813   9.378 -0.3689  0.2095  0.2025
  947MOL0     C24899   6.835   2.884   9.451  0.1248  0.6957  1.0964
  947MOL0     C24900   6.847   2.900   9.583 -0.2310 -0.2439 -0.0442
  947MOL0     C24901   6.773   3.001   9.658  0.5781  0.1131 -0.1377
  947MOL0     O24902   6.804   3.008   9.795  0.3817 -0.5838 -0.1509
  947MOL0     C24903   6.733   3.099   9.875  0.5474 -0.4112 -0.2054
  947MOL0     C24904   6.804   3.163   9.969 -0.5254  0.0069 -0.0367
  947MOL0     C24905   6.751   3.247  10.061 -0.2605 -0.7775 -0.3055
  947MOL0     C24906   6.611   3.266  10.062  0.8328  0.3528  0.6294
  947MOL0     O24907   6.536   3.337  10.149 -0.4386 -0.4622 -0.3728
  947MOL0     C24908   6.585   3.394  10.277 -1.2118 -0.9197 -0.0748
  947MOL0     C24909   6.654   3.295  10.374  0.6417  0.2108  0.1764
  947MOL0     C24910   6.761   3.351  10.461 -0.0928 -0.2720 -0.0200
  947MOL0     C24911   6.845   3.257  10.542 -0.5568  0.1408  0.8812
  947MOL0     C24912   6.924   3.327  10.655 -0.1403 -0.4155 -0.3066
  947MOL0     C24913   7.028   3.231  10.712 -0.7666 -0.2532  0.1634
  947MOL0     C24914   7.151   3.239  10.617 -0.8552 -0.1242 -0.1707
  947MOL0     C24915   7.265   3.145  10.681  0.0996  0.4533  0.0894
  947MOL0    Cl24916   7.405   3.150  10.582 -0.5562  0.1603  0.2464
  947MOL0     C24917   6.532   3.212   9.968 -0.3016  0.1285 -0.2917
  947MOL0     C24918   6.590   3.122   9.876  0.1947  1.2358  0.0691
  947MOL0     O24919   6.685   3.061   9.600  0.6335 -0.2771  0.0407
  947MOL0     C24920   6.960   2.846   9.648 -0.0121 -0.2418 -0.1359
  947MOL0     C24921   7.060   2.775   9.577 -0.5616  0.4745  0.7286
  947MOL0     N24922   7.503   2.574   8.997 -0.7697  0.2965 -0.0322
  947MOL0     N24923   7.623   2.577   8.956  0.1196 -0.0023 -0.3988
  947MOL0     C24924   7.230   3.154   9.274 -0.5620 -0.6302 -0.2604
  947MOL0     C24925   7.103   3.214   9.299  0.3193  0.3434 -0.2878
  947MOL0     C24926   6.750   3.435   9.483 -0.5535 -0.0769 -0.0895
  947MOL0     C24927   6.701   3.383   9.608  0.4023  0.0320  0.2144
  947MOL0     C24928   6.581   3.436   9.662  0.3025  0.0085  0.7074
  947MOL0     C24929   6.521   3.548   9.606  0.3210 -0.3991 -0.6174
  947MOL0     O24930   6.415   3.611   9.665 -0.6913 -0.8269 -0.2796
  947MOL0     C24931   6.372   3.740   9.623  0.3840 -0.4779  0.2643
  947MOL0     C24932   6.262   3.727   9.506 -1.1078 -0.1383  0.2142
  947MOL0     C24933   6.188   3.860   9.477  0.2355 -0.1189 -0.3673
  947MOL0     C24934   6.284   3.959   9.421 -0.1704 -0.5378 -0.6229
  947MOL0     C24935   6.214   4.091   9.437 -0.3593 -0.3384 -0.3052
  947MOL0     C24936   6.160   4.193   9.457  0.6093 -0.5987 -0.4161
  947MOL0     C24937   6.573   3.599   9.479 -0.1967  0.8487 -0.3144
  947MOL0     C24938   6.681   3.542   9.417  0.0578 -0.5655 -0.0926
  947MOL0     H24939   7.096   3.157   9.639  1.3781  1.1897 -0.3950
  947MOL0     H24940   7.275   3.042   9.595  1.0207  2.2413  0.7545
  947MOL0     H24941   7.498   2.965   9.544 -0.9134  2.0258  0.7966
  947MOL0     H24942   7.542   3.128   9.483  1.1983 -0.5862  1.3659
  947MOL0     H24943   7.717   2.976   9.485  1.0982 -0.7303 -1.5596
  947MOL0     H24944   7.679   3.018   9.309 -1.8528 -1.3263 -1.0307
  947MOL0     H24945   7.579   2.823   9.273 -0.9949  3.7131  0.3516
  947MOL0     H24946   7.591   2.753   9.440  2.2186 -1.2740  0.7660
  947MOL0     H24947   7.826   2.828   9.242  3.3657 -1.4385  0.6389
  947MOL0     H24948   7.846   2.806   9.412 -0.4411  0.8441 -0.8032
  947MOL0     H24949   7.695   2.588   9.276 -0.9425  0.5907  0.8939
  947MOL0     H24950   7.840   2.578   9.372  0.3013  0.6927 -0.2051
  947MOL0     H24951   7.993   2.621   9.212  0.0173 -0.5987  0.5560
  947MOL0     H24952   7.874   2.680   9.087 -0.5632  0.0769 -0.1521
  947MOL0     H24953   8.009   2.435   9.101  0.5676 -1.7167 -2.7594
  947MOL0     H24954   7.857   2.395   9.196  0.0244  0.4784  0.4355
  947MOL0     H24955   7.869   2.363   8.932  1.2603 -0.4652  0.6864
  947MOL0     H24956   7.875   2.529   8.923  0.0232  1.3560  2.4600
  947MOL0     H24957   7.602   2.282   9.105 -2.1773 -1.1295 -1.4972
  947MOL0     H24958   7.348   2.290   9.113  3.8253  0.0043  3.8977
  947MOL0     H24959   7.258   2.409   9.028 -1.1486 -2.3454  0.1902
  947MOL0     H24960   7.331   2.390   9.313  0.2140  1.4148  1.2482
  947MOL0     H24961   7.184   2.449   9.256  0.3410 -1.9371  2.4865
  947MOL0     H24962   7.451   2.610   9.275  1.5513 -2.0922 -0.8762
  947MOL0     H24963   7.314   2.663   9.178 -1.7196  0.9682  1.9305
  947MOL0     H24964   7.332   2.759   9.396  1.8433 -1.6168  0.2326
  947MOL0     H24965   7.290   2.599   9.477 -0.4828 -0.8579  0.1985
  947MOL0     H24966   6.931   2.780   9.275 -0.8374 -1.1382  0.6410
  947MOL0     H24967   6.757   2.931   9.392 -0.8608  2.1637  3.4674
  947MOL0     H24968   6.912   3.153   9.968 -0.0817  3.3912 -0.2415
  947MOL0     H24969   6.824   3.285  10.131 -1.0732  1.0852 -0.4000
  947MOL0     H24970   6.504   3.441  10.333  0.4411  0.0161  1.6462
  947MOL0     H24971   6.648   3.477  10.243 -1.0461 -1.3059 -0.7386
  947MOL0     H24972   6.685   3.206  10.319 -2.2881 -1.6667  1.3440
  947MOL0     H24973   6.572   3.268  10.441 -0.0430 -0.6851 -0.9852
  947MOL0     H24974   6.718   3.428  10.524  0.3621  0.7960 -0.9733
  947MOL0     H24975   6.832   3.390  10.387 -2.1986  3.2202 -0.3973
  947MOL0     H24976   6.779   3.178  10.578 -0.9027  0.4945  1.0304
  947MOL0     H24977   6.919   3.211  10.476 -1.0463  3.2784 -2.1641
  947MOL0     H24978   6.845   3.340  10.730 -0.6133  1.6224 -1.0943
  947MOL0     H24979   6.962   3.427  10.636  0.1163 -0.7398 -1.5984
  947MOL0     H24980   6.981   3.133  10.709 -0.4668 -0.3725 -1.0131
  947MOL0     H24981   7.052   3.253  10.817  1.4254 -0.7163 -0.1926
  947MOL0     H24982   7.127   3.189  10.523 -1.1240 -0.3802  0.0308
  947MOL0     H24983   7.179   3.342  10.593 -0.9966 -0.3389 -1.2724
  947MOL0     H24984   7.223   3.044  10.682  1.4499 -0.1767 -1.4185
  947MOL0     H24985   7.284   3.171  10.785  1.6464 -0.0172 -0.0466
  947MOL0     H24986   6.425   3.226   9.978  0.1433  2.5699  2.5679
  947MOL0     H24987   6.520   3.076   9.806 -1.4216 -1.8308  3.3858
  947MOL0     H24988   6.982   2.864   9.753  1.2678 -0.4127 -0.3576
  947MOL0     H24989   7.141   2.730   9.633 -0.6404  0.5326  0.8890
  947MOL0     H24990   7.269   3.152   9.173 -0.5597  2.2388 -0.4056
  947MOL0     H24991   7.040   3.258   9.223  1.8141  1.5759 -0.8617
  947MOL0     H24992   6.752   3.301   9.659 -0.9395 -1.0380 -0.0860
  947MOL0     H24993   6.536   3.394   9.751 -0.4285 -1.3180 -0.2478
  947MOL0     H24994   6.454   3.809   9.602 -0.5001  0.1458 -1.2642
  947MOL0     H24995   6.309   3.779   9.703  0.0822  2.3796 -1.2261
  947MOL0     H24996   6.307   3.694   9.412 -0.6286 -0.3183  0.5070
  947MOL0     H24997   6.189   3.651   9.536  1.1420 -1.9862  1.2969
  947MOL0     H24998   6.139   3.896   9.568 -2.2391 -2.2994 -0.7008
  947MOL0     H24999   6.107   3.838   9.407 -1.3823 -2.3467  1.9857
  947MOL0     H25000   6.374   3.988   9.477  0.1837 -0.2294 -1.3342
  947MOL0     H25001   6.314   3.920   9.323 -2.7338 -2.0900 -0.8488
  947MOL0     H25002   6.125   4.292   9.477  1.3506 -0.7464  1.9594
  947MOL0     H25003   6.514   3.675   9.429 -0.8617  0.9602  0.6010
  947MOL0     H25004   6.722   3.597   9.332 -0.4507  0.6389  0.4186
  948MOL0     O25005   7.880  10.116   7.370  0.7848  0.4989  0.2035
  948MOL0     C25006   7.870  10.202   7.461 -1.1724 -0.1041  0.4030
  948MOL0     O25007   7.754  10.277   7.492  0.1581  0.3191  0.0099
  948MOL0     C25008   7.637  10.264   7.428  0.6632  0.1224 -0.0270
  948MOL0     C25009   7.581  10.142   7.374 -0.4147 -0.1664 -1.2883
  948MOL0     C25010   7.463  10.146   7.298  0.2096  0.2365 -0.3153
  948MOL0     C25011   7.385  10.260   7.291 -0.0205  0.2157  0.7761
  948MOL0     O25012   7.269  10.246   7.223  0.4648 -0.1702 -0.6026
  948MOL0     C25013   7.144  10.299   7.279 -0.0279  0.2955 -0.7123
  948MOL0     C25014   7.027  10.250   7.198  0.0687 -0.5292 -0.2365
  948MOL0     C25015   6.888  10.276   7.258 -0.1729 -0.3297 -0.2197
  948MOL0     C25016   6.781  10.286   7.143 -0.0361 -0.4477 -0.0281
  948MOL0     C25017   6.645  10.334   7.198  0.2330 -0.0751  0.0386
  948MOL0     C25018   6.562  10.227   7.277 -0.5067 -0.5799  0.4526
  948MOL0     C25019   6.421  10.286   7.320 -0.4949 -0.4333  1.1805
  948MOL0     C25020   6.360  10.175   7.406 -0.3549 -0.3510  0.2778
  948MOL0     N25021   6.212  10.177   7.426  0.1585  0.0517  0.8833
  948MOL0     C25022   6.114  10.108   7.347 -0.5398 -0.5337  0.2856
  948MOL0     C25023   5.991  10.157   7.383 -0.9791  0.8492 -0.3440
  948MOL0     C25024   5.869  10.111   7.314  0.0314  0.5293  0.0980
  948MOL0     C25025   5.769  10.222   7.277 -0.4750 -0.1264  0.2859
  948MOL0     C25026   5.690  10.270   7.394  0.0195  0.4267  0.1168
  948MOL0     C25027   5.677  10.425   7.393 -0.2139  1.1302 -1.0906
  948MOL0     O25028   5.566  10.458   7.300 -0.1593 -0.3915  0.0367
  948MOL0     C25029   5.436  10.423   7.330 -0.2089 -0.3699 -0.1989
  948MOL0     C25030   5.356  10.406   7.220  0.8899 -0.2528  0.1350
  948MOL0     C25031   5.224  10.355   7.231 -0.9031 -0.1839 -0.0238
  948MOL0     C25032   5.171  10.342   7.363 -0.6653  0.0394 -0.6328
  948MOL0     C25033   5.030  10.309   7.381 -0.3332 -0.2538 -0.5934
  948MOL0     O25034   4.958  10.268   7.266 -0.1645  0.6188 -0.3342
  948MOL0     C25035   4.828  10.217   7.292  0.7909 -0.6256 -0.3220
  948MOL0     C25036   4.812  10.081   7.297  0.0640 -0.2948  0.5679
  948MOL0     C25037   4.688  10.024   7.318  0.0493 -0.0307  0.0943
  948MOL0     C25038   4.580  10.118   7.331  0.9785 -0.0950 -0.2249
  948MOL0     O25039   4.456  10.059   7.343  0.1596  0.0589 -0.3701
  948MOL0     C25040   4.349  10.110   7.426  0.4622 -1.2863 -0.4167
  948MOL0     C25041   4.273   9.987   7.464  0.7103  0.2477 -0.3093
  948MOL0     C25042   4.141  10.030   7.536  0.2597  0.8012  0.1533
  948MOL0     C25043   4.054   9.908   7.581  0.3543  0.0632  0.0467
  948MOL0     C25044   3.925   9.905   7.499 -1.1260  1.2662  0.3122
  948MOL0     C25045   3.828   9.803   7.566  0.2343 -0.9533 -0.1888
  948MOL0     C25046   3.696   9.807   7.488  0.0183 -0.1216 -0.4799
  948MOL0     C25047   3.580   9.749   7.563  0.0718  0.4435 -1.0136
  948MOL0    Cl25048   3.430   9.754   7.470 -0.5424 -0.3693  0.0984
  948MOL0     C25049   4.589  10.255   7.328  0.4848 -0.4824 -0.1226
  948MOL0     C25050   4.721  10.301   7.310  0.1710 -0.9856  0.7313
  948MOL0     O25051   4.985  10.320   7.496 -0.2911  0.9936 -0.1166
  948MOL0     C25052   5.254  10.368   7.475 -0.3850  0.6508 -0.9522
  948MOL0     C25053   5.391  10.404   7.456  0.1946 -0.5066  0.5908
  948MOL0     N25054   6.012  10.250   7.484  0.8385  0.8405  0.0146
  948MOL0     N25055   6.139  10.269   7.489  0.6205 -0.8017 -0.4850
  948MOL0     C25056   7.426  10.370   7.352  0.0778 -0.3602 -0.2621
  948MOL0     C25057   7.549  10.383   7.419 -1.0142 -0.5291  0.1983
  948MOL0     C25058   8.001  10.244   7.522 -0.0076  0.2155 -1.1104
  948MOL0     C25059   8.120  10.176   7.497  0.4308  0.1001  0.5897
  948MOL0     C25060   8.236  10.213   7.554 -0.4660  0.3775  0.1099
  948MOL0     C25061   8.245  10.325   7.636 -0.0960 -0.2908 -0.4404
  948MOL0     O25062   8.368  10.363   7.683  0.2193  0.0808  0.7022
  948MOL0     C25063   8.396  10.320   7.816 -0.3881 -0.0195  1.1781
  948MOL0     C25064   8.433  10.171   7.821 -0.1448 -0.3780 -0.4216
  948MOL0     C25065   8.573  10.135   7.754  0.2657  0.4694 -0.0408
  948MOL0     C25066   8.609   9.986   7.770 -0.3547  1.0735  0.0326
  948MOL0     C25067   8.727   9.944   7.688  0.4643  0.1896  0.1644
  948MOL0     C25068   8.821   9.891   7.640 -0.0788  0.3648  0.5628
  948MOL0     C25069   8.133  10.406   7.656  0.5699  0.6100 -0.1432
  948MOL0     C25070   8.013  10.367   7.603 -0.6510 -0.0116 -0.3827
  948MOL0     H25071   7.638  10.050   7.387 -0.7619 -0.0477  1.7072
  948MOL0     H25072   7.443  10.053   7.246  0.8685 -0.4593  0.6329
  948MOL0     H25073   7.152  10.408   7.272 -1.4920  0.6445  1.8389
  948MOL0     H25074   7.133  10.273   7.385 -1.8131  4.3725  0.3067
  948MOL0     H25075   7.033  10.141   7.197 -0.6271 -0.6409  2.2407
  948MOL0     H25076   7.041  10.292   7.098  1.7982  0.2555  0.2982
  948MOL0     H25077   6.886  10.364   7.322  1.2576 -0.3580 -0.1029
  948MOL0     H25078   6.870  10.185   7.316  1.4393 -1.4945 -1.4406
  948MOL0     H25079   6.819  10.363   7.076  1.9148 -0.0876  1.4182
  948MOL0     H25080   6.766  10.190   7.092 -1.9769 -1.0003  1.4392
  948MOL0     H25081   6.588  10.372   7.112  4.1852  1.2111 -2.3046
  948MOL0     H25082   6.663  10.420   7.264  0.2092 -0.4999  0.6028
  948MOL0     H25083   6.614  10.196   7.368 -2.4899 -1.2386  1.4048
  948MOL0     H25084   6.534  10.141   7.215  1.3489 -1.2207  0.4155
  948MOL0     H25085   6.431  10.378   7.377  1.5811  1.9104 -2.5649
  948MOL0     H25086   6.357  10.320   7.239  1.0900  2.8621  1.1492
  948MOL0     H25087   6.409  10.186   7.503 -1.3738  0.2688  0.7360
  948MOL0     H25088   6.385  10.081   7.356 -0.4593  0.1692 -0.7914
  948MOL0     H25089   6.130  10.037   7.267 -2.1424 -0.8238  0.1897
  948MOL0     H25090   5.810  10.041   7.374  0.8157 -0.5080 -0.3146
  948MOL0     H25091   5.896  10.056   7.223 -0.3100  0.0895  0.2620
  948MOL0     H25092   5.708  10.184   7.194 -0.7098  1.0441 -0.0956
  948MOL0     H25093   5.834  10.304   7.242  2.5306 -1.0179  3.2637
  948MOL0     H25094   5.590  10.227   7.379 -0.9052  3.2976 -3.2414
  948MOL0     H25095   5.727  10.236   7.491 -0.1222  0.3107  0.1298
  948MOL0     H25096   5.771  10.477   7.374 -0.9229  3.4196  1.0356
  948MOL0     H25097   5.648  10.456   7.494 -0.3059 -2.3539  0.0820
  948MOL0     H25098   5.387  10.426   7.118 -1.4016  1.4078 -0.3219
  948MOL0     H25099   5.164  10.343   7.141  1.4907 -0.3730 -1.6927
  948MOL0     H25100   4.897  10.015   7.284  1.4780  1.3297  1.2305
  948MOL0     H25101   4.674   9.918   7.331 -0.0190 -0.0179  0.1270
  948MOL0     H25102   4.286  10.186   7.381  1.8998  0.9659  1.1697
  948MOL0     H25103   4.389  10.164   7.513  0.9070  0.9322 -1.9215
  948MOL0     H25104   4.329   9.923   7.532 -0.4174 -0.7548 -0.2834
  948MOL0     H25105   4.248   9.920   7.381 -1.9420  0.2711  0.3642
  948MOL0     H25106   4.092  10.096   7.463  0.9732  0.7717 -0.3606
  948MOL0     H25107   4.161  10.098   7.619  0.0066  1.6622 -0.4765
  948MOL0     H25108   4.106   9.812   7.574  1.4226  0.6847 -1.2043
  948MOL0     H25109   4.022   9.915   7.685 -2.0024 -0.1027 -0.6160
  948MOL0     H25110   3.953   9.875   7.398  1.0205  2.4417  0.4935
  948MOL0     H25111   3.878  10.004   7.495 -2.4294  0.6280 -0.9541
  948MOL0     H25112   3.805   9.844   7.665 -3.3245  0.0268 -1.2747
  948MOL0     H25113   3.869   9.702   7.567  0.0346 -1.2524 -4.2770
  948MOL0     H25114   3.674   9.912   7.463 -0.3771 -0.3185 -0.9672
  948MOL0     H25115   3.712   9.746   7.399 -2.2374 -1.8483  0.2171
  948MOL0     H25116   3.561   9.796   7.660  1.0740 -0.5597 -0.3140
  948MOL0     H25117   3.611   9.647   7.585 -0.1542  0.5044 -0.3832
  948MOL0     H25118   4.503  10.322   7.332  2.9120  2.9611 -0.7500
  948MOL0     H25119   4.747  10.406   7.296  1.3468 -1.1702  1.3880
  948MOL0     H25120   5.216  10.357   7.576  0.9757  1.6037 -0.3099
  948MOL0     H25121   5.454  10.425   7.541  1.0758  3.6808 -0.8708
  948MOL0     H25122   7.358  10.453   7.337  1.3914  0.2196 -4.3766
  948MOL0     H25123   7.571  10.482   7.456 -2.3707  0.2361 -0.9437
  948MOL0     H25124   8.120  10.099   7.420 -2.6747  0.3069  0.2389
  948MOL0     H25125   8.324  10.154   7.532  0.1767 -0.0030  3.2094
  948MOL0     H25126   8.312  10.339   7.883 -1.6879  0.5456 -0.5214
  948MOL0     H25127   8.483  10.377   7.851 -0.3332  0.5784  0.1199
  948MOL0     H25128   8.442  10.142   7.926  2.3222  3.7116  0.7611
  948MOL0     H25129   8.357  10.108   7.774  0.2705  0.2100 -1.9461
  948MOL0     H25130   8.657  10.193   7.794 -1.1598  0.7135  2.8808
  948MOL0     H25131   8.565  10.156   7.647 -2.9177 -1.8053 -0.3934
  948MOL0     H25132   8.634   9.958   7.873 -0.8318  0.5598  0.0108
  948MOL0     H25133   8.523   9.926   7.739  1.4113 -0.6433 -1.8339
  948MOL0     H25134   8.897   9.837   7.586  2.0188  3.5490  0.0140
  948MOL0     H25135   8.138  10.497   7.715  1.6392  0.3378  0.2235
  948MOL0     H25136   7.924  10.425   7.626 -2.4247 -2.7443  0.2416
  949MOL0     O25137   0.307   7.454   5.529 -0.0438  0.6219  0.4699
  949MOL0     C25138   0.311   7.487   5.647 -0.5969 -0.5275 -0.3794
  949MOL0     O25139   0.208   7.537   5.720 -0.2053  0.5596 -0.6132
  949MOL0     C25140   0.079   7.567   5.660 -0.0997 -0.4007 -0.4297
  949MOL0     C25141  -0.031   7.566   5.751  0.2897 -0.7207  0.6968
  949MOL0     C25142  -0.152   7.609   5.702  0.2131 -0.1740  0.9537
  949MOL0     C25143  -0.171   7.666   5.574 -0.7108  0.2045  0.3288
  949MOL0     O25144  -0.287   7.728   5.547  0.5054  0.5531  0.3405
  949MOL0     C25145  -0.296   7.842   5.456 -0.1466  0.5220 -0.4234
  949MOL0     C25146  -0.447   7.866   5.452 -0.0845  0.2431 -0.0338
  949MOL0     C25147  -0.490   7.966   5.348  0.2306  0.0280 -0.3381
  949MOL0     C25148  -0.537   7.909   5.208  0.5155  0.3047 -0.2154
  949MOL0     C25149  -0.687   7.867   5.221  0.2589 -0.0908  0.3074
  949MOL0     C25150  -0.745   7.826   5.083  0.5898 -0.4979 -0.4740
  949MOL0     C25151  -0.901   7.830   5.077 -0.4407 -0.1052 -0.0787
  949MOL0     C25152  -0.955   7.720   4.991  0.3554  0.3601  0.2521
  949MOL0     N25153  -0.917   7.742   4.848 -0.3302 -0.1421 -0.7845
  949MOL0     C25154  -0.953   7.852   4.767 -0.1944 -0.1757  0.5934
  949MOL0     C25155  -0.904   7.823   4.642 -0.0735 -0.1450  0.1538
  949MOL0     C25156  -0.928   7.907   4.517 -0.2162  0.1914  0.0561
  949MOL0     C25157  -0.830   7.906   4.410 -0.0334  0.1867  0.2503
  949MOL0     C25158  -0.723   8.011   4.451 -0.4540  1.1315 -0.0448
  949MOL0     C25159  -0.620   7.946   4.565  0.3508  0.2735  0.5982
  949MOL0     O25160  -0.495   8.017   4.590  0.2147  0.4017  0.0360
  949MOL0     C25161  -0.433   8.001   4.714  0.2084  0.3465  0.6296
  949MOL0     C25162  -0.318   8.077   4.747  0.3577  0.3258 -0.1856
  949MOL0     C25163  -0.235   8.043   4.859  0.1605 -0.1851  0.0096
  949MOL0     C25164  -0.262   7.923   4.935 -0.0699  0.0064  0.5051
  949MOL0     C25165  -0.165   7.891   5.043 -0.8043  0.4624  0.5152
  949MOL0     O25166  -0.057   7.974   5.064  0.0552  0.1060 -0.3085
  949MOL0     C25167   0.032   7.939   5.169  0.6141 -0.5123 -0.1960
  949MOL0     C25168   0.140   7.842   5.163  0.4033 -0.1163 -0.1424
  949MOL0     C25169   0.216   7.823   5.275  0.2598 -0.0881 -0.5933
  949MOL0     C25170   0.199   7.884   5.396 -0.5860  0.2786 -0.1189
  949MOL0     O25171   0.281   7.873   5.504  0.4648  0.8009  0.7882
  949MOL0     C25172   0.407   7.812   5.483  0.1294 -0.2631 -0.6413
  949MOL0     C25173   0.498   7.865   5.589 -0.1980  0.4805 -0.1447
  949MOL0     C25174   0.644   7.871   5.530 -0.1853 -0.0248  0.4580
  949MOL0     C25175   0.735   7.938   5.639  0.5615  0.6662  0.2067
  949MOL0     C25176   0.878   7.958   5.578 -0.4807 -0.1783  0.3561
  949MOL0     C25177   0.952   8.042   5.688 -0.5381 -0.4297 -0.3913
  949MOL0     C25178   1.103   8.013   5.662  0.8468 -0.3651  0.4431
  949MOL0     C25179   1.207   8.104   5.723 -0.2647  0.1370 -0.4170
  949MOL0    Cl25180   1.375   8.079   5.657  0.2750  0.3877  0.1007
  949MOL0     C25181   0.091   7.978   5.402  0.2472  0.9157 -0.7869
  949MOL0     C25182   0.019   8.012   5.289 -0.2751  0.3368  0.4895
  949MOL0     O25183  -0.185   7.786   5.103  0.0903 -1.2353 -0.4222
  949MOL0     C25184  -0.381   7.856   4.908  0.5937  0.8297 -0.1051
  949MOL0     C25185  -0.465   7.894   4.801 -0.2312  0.8183  0.8571
  949MOL0     N25186  -0.845   7.699   4.648 -0.4469  0.1224  0.3493
  949MOL0     N25187  -0.837   7.665   4.775  0.6797  0.3351 -0.5609
  949MOL0     C25188  -0.059   7.671   5.482  0.1914  0.2579 -1.0930
  949MOL0     C25189   0.063   7.614   5.527  0.1256 -1.2245  0.0826
  949MOL0     C25190   0.441   7.486   5.701 -0.3741 -0.0214  0.4155
  949MOL0     C25191   0.560   7.449   5.633 -0.2180  0.4734 -0.5461
  949MOL0     C25192   0.688   7.462   5.689 -0.7014 -0.1364 -0.0052
  949MOL0     C25193   0.695   7.506   5.825 -0.8385 -0.4898  0.3046
  949MOL0     O25194   0.813   7.549   5.880 -0.5088 -0.1355  0.2957
  949MOL0     C25195   0.940   7.517   5.813  0.0650 -0.4186  0.3065
  949MOL0     C25196   1.053   7.534   5.906  0.3892 -0.9315 -0.4015
  949MOL0     C25197   1.193   7.503   5.848  0.8322  0.5534  0.4627
  949MOL0     C25198   1.229   7.595   5.733  1.3266 -0.6980 -0.2059
  949MOL0     C25199   1.365   7.565   5.694 -0.7522 -0.5029  0.2181
  949MOL0     C25200   1.476   7.532   5.658  0.4869 -1.1811  0.1803
  949MOL0     C25201   0.580   7.525   5.896  0.3040  0.0700  0.6117
  949MOL0     C25202   0.455   7.511   5.839 -0.0559  0.0749 -0.0796
  949MOL0     H25203  -0.017   7.533   5.853  0.8585 -0.8099  0.5935
  949MOL0     H25204  -0.231   7.601   5.776  0.6680 -1.0453  1.3584
  949MOL0     H25205  -0.244   7.826   5.361 -0.6675  0.6898 -0.7390
  949MOL0     H25206  -0.257   7.934   5.499  0.0920  0.1347  0.2124
  949MOL0     H25207  -0.479   7.890   5.554 -1.6353 -1.9870  0.0860
  949MOL0     H25208  -0.506   7.774   5.440 -0.6111  0.7773 -1.9187
  949MOL0     H25209  -0.392   8.014   5.332  2.1613 -3.7978 -1.2812
  949MOL0     H25210  -0.571   8.029   5.385  2.5966  1.6704  2.5418
  949MOL0     H25211  -0.518   7.979   5.125  2.2161  0.3115  0.1412
  949MOL0     H25212  -0.475   7.822   5.181 -0.7950 -0.5106 -0.6822
  949MOL0     H25213  -0.738   7.948   5.274  0.2873  0.0031  0.1905
  949MOL0     H25214  -0.706   7.781   5.286  2.0116 -0.8196 -0.0769
  949MOL0     H25215  -0.707   7.726   5.062 -0.3745 -1.0263  0.2427
  949MOL0     H25216  -0.700   7.885   5.002  0.2330 -2.9176 -2.5455
  949MOL0     H25217  -0.923   7.807   5.181  1.0190  0.0159  0.2767
  949MOL0     H25218  -0.945   7.927   5.053  0.1945  0.8282  2.2694
  949MOL0     H25219  -1.064   7.712   5.000  0.6025 -2.5910  1.3971
  949MOL0     H25220  -0.911   7.623   5.014  1.7015  1.8468  5.0930
  949MOL0     H25221  -1.010   7.937   4.802 -0.1490 -0.3685  1.1337
  949MOL0     H25222  -0.960   8.010   4.533 -0.2774  0.4411 -1.4979
  949MOL0     H25223  -1.023   7.875   4.473 -0.6826  0.7525  0.6490
  949MOL0     H25224  -0.878   7.941   4.318  0.3536 -0.7834 -0.3323
  949MOL0     H25225  -0.793   7.804   4.397 -1.2488 -0.2430  0.0767
  949MOL0     H25226  -0.662   8.031   4.362  0.0747 -2.6586 -0.7229
  949MOL0     H25227  -0.765   8.111   4.468 -0.8471  1.4120 -2.3185
  949MOL0     H25228  -0.604   7.838   4.559  1.5131  0.3110  2.2892
  949MOL0     H25229  -0.669   7.958   4.662  0.8226 -0.1109  0.8900
  949MOL0     H25230  -0.313   8.159   4.676 -1.0239  0.1446 -0.5139
  949MOL0     H25231  -0.145   8.102   4.876 -0.4161  1.4130 -1.9732
  949MOL0     H25232   0.150   7.776   5.078  0.2707  0.8061 -0.8878
  949MOL0     H25233   0.295   7.751   5.256  0.2074 -0.1523 -0.5690
  949MOL0     H25234   0.444   7.841   5.384 -0.8597  1.4879 -0.5305
  949MOL0     H25235   0.401   7.703   5.474  0.2933 -0.3879  0.5890
  949MOL0     H25236   0.486   7.808   5.682 -0.2974  0.0668 -0.4040
  949MOL0     H25237   0.461   7.965   5.612 -1.6185  0.4560 -1.9997
  949MOL0     H25238   0.647   7.931   5.438 -0.2737  0.7682  0.9619
  949MOL0     H25239   0.684   7.770   5.515  2.8029  0.9604  0.9435
  949MOL0     H25240   0.683   8.033   5.653  0.4367  1.0522 -2.4001
  949MOL0     H25241   0.733   7.876   5.730  4.5467 -0.0775 -0.0124
  949MOL0     H25242   0.871   8.001   5.478 -1.2897  0.9513  0.8784
  949MOL0     H25243   0.915   7.856   5.568 -0.3208  0.0578 -2.1507
  949MOL0     H25244   0.930   8.024   5.793  0.5112 -1.6308 -0.3495
  949MOL0     H25245   0.933   8.145   5.659  0.7463 -0.0012  0.2224
  949MOL0     H25246   1.122   7.912   5.701  2.2216  0.6260  2.5341
  949MOL0     H25247   1.113   8.011   5.553 -1.5973 -0.7746  0.1715
  949MOL0     H25248   1.209   8.096   5.832 -1.3550 -1.3858 -0.4876
  949MOL0     H25249   1.176   8.208   5.703 -1.2321 -0.0007  0.2687
  949MOL0     H25250   0.067   8.024   5.498 -2.7687 -0.7828 -0.6133
  949MOL0     H25251  -0.048   8.097   5.284  1.5099  1.6947 -2.1920
  949MOL0     H25252  -0.409   7.774   4.973 -1.0063 -1.3161 -3.2283
  949MOL0     H25253  -0.551   7.829   4.790  1.1173 -1.3903  2.3458
  949MOL0     H25254  -0.071   7.724   5.388  1.2232  2.3522 -0.1139
  949MOL0     H25255   0.145   7.607   5.456  1.0360  1.1503  0.8249
  949MOL0     H25256   0.542   7.417   5.531 -0.5509 -1.8517  0.1808
  949MOL0     H25257   0.770   7.442   5.620 -0.2965  0.4551  0.3036
  949MOL0     H25258   0.953   7.581   5.725  1.2616  1.4703  1.7684
  949MOL0     H25259   0.953   7.413   5.784  0.4295 -0.3828  0.3284
  949MOL0     H25260   1.055   7.634   5.952  0.8601 -0.9521 -0.3715
  949MOL0     H25261   1.043   7.454   5.980  1.0193 -1.1332 -0.5290
  949MOL0     H25262   1.199   7.399   5.814  1.1709  0.9068 -0.5933
  949MOL0     H25263   1.274   7.500   5.922  0.5870 -2.3349  0.7111
  949MOL0     H25264   1.156   7.587   5.652 -2.0666  0.5097  2.5135
  949MOL0     H25265   1.211   7.695   5.772 -0.8788 -1.9635  2.3497
  949MOL0     H25266   1.566   7.481   5.631 -0.0357 -1.4584 -1.0907
  949MOL0     H25267   0.585   7.554   6.000  0.1268  0.1685  0.5928
  949MOL0     H25268   0.375   7.546   5.904  0.2859 -0.3643  0.5958
  950MOL0     O25269  10.333  11.153   5.670  0.2404 -0.7939 -0.3854
  950MOL0     C25270  10.360  11.041   5.720  1.1579 -0.2162  0.3553
  950MOL0     O25271  10.275  10.937   5.729 -0.4512  0.3751 -0.1732
  950MOL0     C25272  10.143  10.964   5.722  0.6109 -0.2945 -0.4363
  950MOL0     C25273  10.071  11.046   5.807 -0.1633 -0.3256  0.2136
  950MOL0     C25274   9.933  11.059   5.806  0.5648 -0.1108  0.9150
  950MOL0     C25275   9.859  10.978   5.712 -0.2273  0.2657 -0.8093
  950MOL0     O25276   9.723  10.987   5.701 -0.2664 -0.4134  0.3860
  950MOL0     C25277   9.649  11.072   5.783  0.4145 -0.0064 -0.6089
  950MOL0     C25278   9.500  11.071   5.760 -0.1974 -0.0151  0.2345
  950MOL0     C25279   9.445  10.929   5.770 -0.9202 -0.3756  0.2624
  950MOL0     C25280   9.295  10.931   5.738 -0.3233  0.2837 -0.2339
  950MOL0     C25281   9.240  10.791   5.748  0.4379  0.0599 -0.3784
  950MOL0     C25282   9.091  10.807   5.761  0.2153 -0.2017  0.7572
  950MOL0     C25283   9.018  10.673   5.799  0.5088 -0.4826 -0.6144
  950MOL0     C25284   8.867  10.693   5.783 -0.4984 -0.3080 -0.4887
  950MOL0     N25285   8.774  10.584   5.818 -0.3119  0.3742  0.0064
  950MOL0     C25286   8.805  10.451   5.798  0.3414  0.4753 -0.0795
  950MOL0     C25287   8.724  10.386   5.884  0.1304 -0.3815 -0.8552
  950MOL0     C25288   8.710  10.236   5.900  1.1360  0.0596 -0.4821
  950MOL0     C25289   8.607  10.178   5.806  0.0928 -0.4036  0.5788
  950MOL0     C25290   8.604  10.029   5.795 -0.6958 -0.0476  0.3672
  950MOL0     C25291   8.540   9.963   5.922  0.4755 -0.0017 -0.2550
  950MOL0     O25292   8.523   9.820   5.899 -0.8684 -0.0917  0.4393
  950MOL0     C25293   8.426   9.786   5.807  0.4542  0.1324 -0.0998
  950MOL0     C25294   8.297   9.839   5.800 -0.5449  0.3449 -0.6540
  950MOL0     C25295   8.201   9.771   5.720 -0.1934 -0.1282  0.0518
  950MOL0     C25296   8.238   9.664   5.632  1.1557  1.0662 -0.2128
  950MOL0     C25297   8.134   9.594   5.549 -0.1582 -0.4389 -0.0881
  950MOL0     O25298   8.030   9.666   5.497 -0.1023 -0.8014  0.0878
  950MOL0     C25299   7.932   9.605   5.421 -0.6928 -0.3516 -0.5020
  950MOL0     C25300   7.914   9.650   5.289 -0.1425 -0.4289 -0.5841
  950MOL0     C25301   7.816   9.604   5.204 -0.0993  0.3307 -0.3963
  950MOL0     C25302   7.727   9.499   5.252 -0.3175 -0.4944 -0.2629
  950MOL0     O25303   7.618   9.447   5.189  0.0637 -0.9076  0.4156
  950MOL0     C25304   7.593   9.506   5.059 -0.2317  0.3714 -0.2210
  950MOL0     C25305   7.448   9.466   5.020 -0.2300 -0.1547  0.5954
  950MOL0     C25306   7.325   9.525   5.110 -1.4723  0.3400 -0.0222
  950MOL0     C25307   7.189   9.487   5.051  0.1617 -0.0058 -0.1665
  950MOL0     C25308   7.089   9.562   5.140  1.0288  0.9209  0.4942
  950MOL0     C25309   6.955   9.556   5.083  0.4731  0.6208 -0.2287
  950MOL0     C25310   6.904   9.422   5.117 -0.4794  0.2265 -0.2402
  950MOL0     C25311   6.755   9.418   5.146  0.3970  0.6436  0.3567
  950MOL0    Cl25312   6.656   9.454   4.997  0.5186  0.1792 -0.3647
  950MOL0     C25313   7.758   9.446   5.381  0.4151  0.2622 -0.0886
  950MOL0     C25314   7.859   9.495   5.469 -0.9906 -0.5006  0.3363
  950MOL0     O25315   8.153   9.477   5.528 -0.1602 -0.0594  0.4116
  950MOL0     C25316   8.368   9.616   5.646  0.1973 -0.1444 -1.1245
  950MOL0     C25317   8.466   9.673   5.731 -0.5376  0.2486  0.8120
  950MOL0     N25318   8.665  10.477   5.973  0.0344  0.6736  0.0002
  950MOL0     N25319   8.690  10.597   5.927  0.3239  0.4367  0.0551
  950MOL0     C25320   9.926  10.899   5.621 -1.1110 -0.7491  0.3170
  950MOL0     C25321  10.072  10.899   5.627 -0.5452 -0.8407 -0.2799
  950MOL0     C25322  10.499  11.010   5.748 -0.2844  0.4002 -0.1220
  950MOL0     C25323  10.603  11.106   5.753  0.7860  0.1514  0.4676
  950MOL0     C25324  10.733  11.078   5.785 -0.0605 -0.5100 -0.1315
  950MOL0     C25325  10.775  10.949   5.816  0.4260  0.1044  0.4601
  950MOL0     O25326  10.914  10.932   5.830  0.2935 -0.0305  0.5403
  950MOL0     C25327  10.960  10.792   5.843  0.4434 -0.1359  0.0581
  950MOL0     C25328  11.106  10.784   5.807  0.2475 -0.4236 -0.7549
  950MOL0     C25329  11.119  10.846   5.668 -1.2957  0.2742 -0.6952
  950MOL0     C25330  11.267  10.851   5.623  0.2387 -0.0934  0.0742
  950MOL0     C25331  11.350  10.957   5.682  0.0617  0.0768  0.0174
  950MOL0     C25332  11.426  11.040   5.723  0.4780 -0.7946 -0.3488
  950MOL0     C25333  10.676  10.850   5.821 -0.5101  0.0602 -0.6345
  950MOL0     C25334  10.539  10.886   5.806 -0.5975  0.6462 -0.5201
  950MOL0     H25335  10.125  11.094   5.888  0.1592 -0.8161  0.2967
  950MOL0     H25336   9.886  11.126   5.876 -3.3093 -1.1275 -0.4486
  950MOL0     H25337   9.694  11.170   5.768  0.1855  0.7393  2.7518
  950MOL0     H25338   9.676  11.054   5.888  0.2602  1.0552 -0.3777
  950MOL0     H25339   9.483  11.125   5.667 -1.7650  2.8402  2.0238
  950MOL0     H25340   9.469  11.132   5.846  1.0935  4.4702 -2.1722
  950MOL0     H25341   9.468  10.882   5.866  1.1816 -1.3949 -0.6674
  950MOL0     H25342   9.504  10.866   5.702 -1.1326 -0.2167 -0.0685
  950MOL0     H25343   9.258  10.998   5.817  1.6805 -1.8856  2.7886
  950MOL0     H25344   9.276  10.988   5.647 -1.2491  2.2198  1.0823
  950MOL0     H25345   9.270  10.740   5.840 -0.5021  0.7907  0.3566
  950MOL0     H25346   9.267  10.733   5.659  1.0238  1.2443 -0.9885
  950MOL0     H25347   9.064  10.844   5.662 -1.8870 -1.5848  0.7362
  950MOL0     H25348   9.070  10.889   5.831 -1.6207 -1.1610  1.4112
  950MOL0     H25349   9.047  10.591   5.732  0.0243 -1.7195  0.6655
  950MOL0     H25350   9.036  10.639   5.901  1.6764 -1.3965 -1.0953
  950MOL0     H25351   8.848  10.731   5.682  0.5570 -0.5717 -0.8035
  950MOL0     H25352   8.843  10.785   5.837  2.1614 -0.3221  0.8652
  950MOL0     H25353   8.884  10.413   5.733  1.9485  0.2689  1.9031
  950MOL0     H25354   8.678  10.203   5.999 -0.0638 -0.9019 -1.1592
  950MOL0     H25355   8.806  10.193   5.869  1.1146 -1.8457  1.8106
  950MOL0     H25356   8.629  10.214   5.705  0.3708  0.6580  1.0069
  950MOL0     H25357   8.504  10.209   5.823 -0.1821  1.5009 -3.5245
  950MOL0     H25358   8.545   9.996   5.709  2.0169 -0.5462 -1.4546
  950MOL0     H25359   8.705   9.991   5.774 -0.9141 -0.3458 -0.1626
  950MOL0     H25360   8.448  10.022   5.935 -1.5923 -2.7676 -1.3622
  950MOL0     H25361   8.588   9.974   6.020  1.5319  1.4992 -0.8945
  950MOL0     H25362   8.271   9.922   5.864 -1.9667  0.3214 -1.1822
  950MOL0     H25363   8.101   9.813   5.733 -0.6125 -1.3290  0.8971
  950MOL0     H25364   7.987   9.719   5.249 -0.4037 -0.0550 -0.4176
  950MOL0     H25365   7.790   9.650   5.110 -1.4130 -0.2057 -0.3214
  950MOL0     H25366   7.668   9.458   4.996  0.4809 -4.0319  3.4527
  950MOL0     H25367   7.595   9.615   5.068 -0.3215  0.7371 -3.3314
  950MOL0     H25368   7.436   9.358   5.013 -3.7089  0.1919 -0.5813
  950MOL0     H25369   7.430   9.495   4.916 -1.2981  0.3340  0.9014
  950MOL0     H25370   7.342   9.632   5.117  1.7836 -0.0496 -0.3439
  950MOL0     H25371   7.335   9.486   5.212  1.6819  0.0599 -0.3120
  950MOL0     H25372   7.186   9.515   4.945 -0.9289 -0.7976 -0.3727
  950MOL0     H25373   7.164   9.381   5.060 -1.9668  0.4210 -0.6255
  950MOL0     H25374   7.114   9.668   5.138 -0.8479  1.4715  2.5485
  950MOL0     H25375   7.087   9.530   5.245  1.9022  1.5446  0.7177
  950MOL0     H25376   6.950   9.567   4.974 -4.1295  1.1471 -0.1476
  950MOL0     H25377   6.896   9.637   5.126 -1.9397 -2.2525  2.2786
  950MOL0     H25378   6.917   9.344   5.041 -1.8701 -1.0672  0.7996
  950MOL0     H25379   6.951   9.381   5.207 -1.6022  0.4910  0.4896
  950MOL0     H25380   6.732   9.487   5.227 -0.9642  1.4453 -0.6747
  950MOL0     H25381   6.740   9.315   5.181 -0.1359  1.3971  2.4421
  950MOL0     H25382   7.693   9.370   5.424 -0.5325  1.6753  1.0820
  950MOL0     H25383   7.884   9.460   5.569 -0.5178 -1.1917 -0.0159
  950MOL0     H25384   8.390   9.529   5.584 -1.8965 -0.2193 -1.8333
  950MOL0     H25385   8.557   9.614   5.739 -2.5034 -3.0215  0.6615
  950MOL0     H25386   9.870  10.840   5.550 -1.0354 -0.2564 -0.1608
  950MOL0     H25387  10.122  10.842   5.549 -2.9195 -1.8581 -1.1525
  950MOL0     H25388  10.590  11.211   5.729 -0.3762 -0.3171 -1.1004
  950MOL0     H25389  10.812  11.152   5.790  1.0206 -1.6570  0.3728
  950MOL0     H25390  10.901  10.728   5.777 -1.0941 -0.6702  1.8561
  950MOL0     H25391  10.952  10.748   5.942  2.1670 -0.6769 -0.0118
  950MOL0     H25392  11.167  10.828   5.887  1.6838 -0.5158 -1.7686
  950MOL0     H25393  11.128  10.677   5.803 -0.1694 -0.5285 -0.3698
  950MOL0     H25394  11.105  10.955   5.669  4.3350  1.2964 -0.3576
  950MOL0     H25395  11.059  10.780   5.605 -0.6613 -2.1627  1.0965
  950MOL0     H25396  11.327  10.764   5.651  0.9882  0.2987 -0.2911
  950MOL0     H25397  11.265  10.862   5.514 -0.4256 -1.0231 -0.0223
  950MOL0     H25398  11.481  11.117   5.773 -1.1140 -1.6423  2.9356
  950MOL0     H25399  10.702  10.752   5.859 -1.0127  0.8624  1.9364
  950MOL0     H25400  10.461  10.817   5.836 -0.6321  1.7000  2.1136
  951MOL0     O25401   3.971   3.203   6.780 -0.0215 -0.4427  0.3249
  951MOL0     C25402   4.007   3.113   6.706 -0.3200 -0.4346  0.2916
  951MOL0     O25403   3.946   2.991   6.700  0.2149 -0.2586 -0.3219
  951MOL0     C25404   3.843   2.966   6.794 -0.0686  0.0522 -0.1026
  951MOL0     C25405   3.716   3.025   6.804  0.3611 -0.4163 -0.1326
  951MOL0     C25406   3.634   2.990   6.907  0.0617 -0.1556 -0.7585
  951MOL0     C25407   3.676   2.906   7.009  0.2939 -0.5527 -0.3647
  951MOL0     O25408   3.586   2.904   7.117 -0.1003 -0.1440  0.3218
  951MOL0     C25409   3.596   2.795   7.215 -0.4043 -0.3180 -0.0102
  951MOL0     C25410   3.477   2.817   7.314  0.5369  0.0301 -0.3518
  951MOL0     C25411   3.348   2.770   7.243 -0.3451 -0.1734 -0.0005
  951MOL0     C25412   3.220   2.823   7.316 -0.0082  0.0953  0.2898
  951MOL0     C25413   3.115   2.712   7.347 -0.1721 -0.3190  0.9390
  951MOL0     C25414   3.001   2.759   7.440  0.0389  0.5183  0.8400
  951MOL0     C25415   2.926   2.630   7.481 -0.4408 -0.5442  0.1197
  951MOL0     C25416   2.826   2.659   7.595 -0.1624 -0.2546  0.7584
  951MOL0     N25417   2.740   2.544   7.607  0.5011  0.1496  0.4591
  951MOL0     C25418   2.619   2.511   7.554 -0.1125 -0.7199  0.3586
  951MOL0     C25419   2.601   2.383   7.591 -0.5731  0.0717  0.4839
  951MOL0     C25420   2.488   2.299   7.540 -0.1687 -0.9519 -0.6123
  951MOL0     C25421   2.482   2.258   7.396  0.0770  0.7095  0.4396
  951MOL0     C25422   2.587   2.161   7.341  0.2101  0.9510  0.1869
  951MOL0     C25423   2.719   2.233   7.332  0.3025 -0.1164 -0.7570
  951MOL0     O25424   2.786   2.146   7.242 -0.1921 -0.0239  0.1351
  951MOL0     C25425   2.921   2.167   7.224  0.0099 -0.2434  0.4665
  951MOL0     C25426   3.006   2.263   7.282  0.3158 -1.4829 -0.8062
  951MOL0     C25427   3.143   2.278   7.244  0.0357 -0.0166  0.6960
  951MOL0     C25428   3.202   2.187   7.162  0.1516 -0.0759 -0.4375
  951MOL0     C25429   3.352   2.201   7.131 -0.7017  0.1100  0.0393
  951MOL0     O25430   3.417   2.311   7.180  0.2246 -0.4424  0.4327
  951MOL0     C25431   3.552   2.307   7.174  0.4673  0.1775 -0.3661
  951MOL0     C25432   3.621   2.210   7.240 -0.7039 -0.3806 -0.1555
  951MOL0     C25433   3.763   2.213   7.253  0.7133  0.1479  0.3180
  951MOL0     C25434   3.836   2.326   7.203  0.3018  0.7022 -0.2907
  951MOL0     O25435   3.971   2.339   7.220 -0.1246  0.8526 -0.1566
  951MOL0     C25436   4.053   2.237   7.280  0.1074  0.4379 -0.3035
  951MOL0     C25437   4.196   2.275   7.295 -0.1523  0.1915  0.4190
  951MOL0     C25438   4.280   2.153   7.346  0.3947 -0.0187 -0.5305
  951MOL0     C25439   4.432   2.187   7.370 -0.5931  0.0377  0.2209
  951MOL0     C25440   4.461   2.281   7.479 -0.1592 -0.0333  0.3557
  951MOL0     C25441   4.611   2.299   7.487  0.4630  0.1541 -0.5389
  951MOL0     C25442   4.652   2.355   7.626 -0.3948  0.7857 -0.6702
  951MOL0     C25443   4.656   2.257   7.738 -0.5227  0.5543  0.0290
  951MOL0    Cl25444   4.760   2.099   7.714  0.4390  0.2650 -0.8293
  951MOL0     C25445   3.760   2.426   7.142  0.1373 -0.1567 -0.5362
  951MOL0     C25446   3.625   2.417   7.128  0.9370  0.4113 -0.6177
  951MOL0     O25447   3.405   2.103   7.078 -0.1327  0.3281 -0.3977
  951MOL0     C25448   3.119   2.081   7.109 -0.0414 -0.1663 -0.4930
  951MOL0     C25449   2.986   2.069   7.144 -0.0355  0.0849 -0.4498
  951MOL0     N25450   2.717   2.340   7.660 -0.0204 -0.0946 -0.1924
  951MOL0     N25451   2.793   2.435   7.676 -0.0936 -0.5195 -0.2360
  951MOL0     C25452   3.796   2.837   7.005  0.4170 -0.1718 -0.3339
  951MOL0     C25453   3.883   2.869   6.892  0.3037  0.4638  0.3399
  951MOL0     C25454   4.134   3.124   6.633 -0.3419  0.2694 -0.0372
  951MOL0     C25455   4.204   3.016   6.580 -0.5227 -0.3549 -0.0413
  951MOL0     C25456   4.325   3.043   6.512  0.9927  0.6087  0.1237
  951MOL0     C25457   4.383   3.170   6.493 -0.3891 -0.1074 -0.3617
  951MOL0     O25458   4.511   3.182   6.436 -0.0398  0.7884 -0.0535
  951MOL0     C25459   4.601   3.253   6.522  0.6671  0.6748  1.2580
  951MOL0     C25460   4.624   3.183   6.655  0.0062  0.2728  1.2879
  951MOL0     C25461   4.710   3.067   6.633  0.4519  0.4492 -0.3181
  951MOL0     C25462   4.755   3.017   6.767 -0.0963  1.0294  0.1246
  951MOL0     C25463   4.640   2.938   6.830 -0.3168  0.8808  0.2468
  951MOL0     C25464   4.534   2.883   6.864 -0.1618  0.4980 -0.3346
  951MOL0     C25465   4.309   3.270   6.540  0.1477  0.5792  0.3615
  951MOL0     C25466   4.190   3.250   6.612 -0.3806 -1.0803  0.2438
  951MOL0     H25467   3.691   3.096   6.727  1.3989  0.5345  0.3775
  951MOL0     H25468   3.536   3.036   6.905 -0.2957 -0.9238 -2.0359
  951MOL0     H25469   3.681   2.808   7.283 -0.9731 -0.1785  0.6940
  951MOL0     H25470   3.593   2.695   7.171  1.9557 -0.2745 -0.3947
  951MOL0     H25471   3.469   2.925   7.332 -1.8218  0.5650 -3.7919
  951MOL0     H25472   3.499   2.762   7.407 -0.5894  1.3943  0.7701
  951MOL0     H25473   3.351   2.660   7.242 -0.6775 -0.2794  3.0811
  951MOL0     H25474   3.347   2.808   7.140  0.6338  1.0286  0.4184
  951MOL0     H25475   3.252   2.871   7.409  1.8848 -2.8071  1.2559
  951MOL0     H25476   3.184   2.907   7.256  1.8789  0.2635 -0.6815
  951MOL0     H25477   3.166   2.634   7.405 -0.0276 -1.3834 -0.5605
  951MOL0     H25478   3.078   2.685   7.248 -0.0251  2.4320  0.0444
  951MOL0     H25479   2.934   2.823   7.380  1.4365  1.3131  0.0664
  951MOL0     H25480   3.044   2.805   7.529  1.3386  0.6089  0.1852
  951MOL0     H25481   2.860   2.607   7.397  1.5134 -0.7695 -1.4229
  951MOL0     H25482   2.995   2.552   7.514  0.8574  0.2673 -0.5706
  951MOL0     H25483   2.774   2.754   7.579  1.1880  0.3708 -0.1228
  951MOL0     H25484   2.882   2.663   7.689 -0.4732 -4.3171  1.3107
  951MOL0     H25485   2.561   2.580   7.492  0.2749 -1.0236 -0.3598
  951MOL0     H25486   2.402   2.357   7.576  0.7887 -1.4039  2.8340
  951MOL0     H25487   2.490   2.210   7.604  0.0393  0.3467  1.2782
  951MOL0     H25488   2.471   2.350   7.337 -1.3042 -0.3191 -0.9827
  951MOL0     H25489   2.388   2.203   7.393  0.5277 -0.2381  2.1236
  951MOL0     H25490   2.591   2.060   7.383 -3.2350 -0.2165 -1.8923
  951MOL0     H25491   2.557   2.136   7.239 -1.4265  1.5959  0.4827
  951MOL0     H25492   2.766   2.244   7.430  0.8765 -0.3371 -0.9982
  951MOL0     H25493   2.713   2.330   7.281 -1.1001  0.3263  0.2087
  951MOL0     H25494   2.969   2.350   7.335  2.4320  0.8832 -2.9821
  951MOL0     H25495   3.195   2.369   7.274  0.0042  0.0623  0.5111
  951MOL0     H25496   3.563   2.125   7.273  2.4777 -2.0764  1.5438
  951MOL0     H25497   3.813   2.125   7.292 -0.8313 -1.8014 -1.8322
  951MOL0     H25498   4.046   2.145   7.223 -1.9292  1.0241 -1.1199
  951MOL0     H25499   4.009   2.221   7.379  0.7663 -0.6761 -0.1783
  951MOL0     H25500   4.206   2.352   7.372  1.2775 -1.3365  1.8268
  951MOL0     H25501   4.234   2.330   7.209  1.0048  1.4240  1.6808
  951MOL0     H25502   4.285   2.069   7.275 -4.4457 -0.7529 -0.3436
  951MOL0     H25503   4.232   2.119   7.439 -1.0457  1.7903 -0.5655
  951MOL0     H25504   4.496   2.099   7.380  0.5406  0.9620  1.6341
  951MOL0     H25505   4.459   2.232   7.274 -0.9953 -0.6418 -0.2120
  951MOL0     H25506   4.421   2.242   7.573 -3.4834 -2.0588 -1.6554
  951MOL0     H25507   4.401   2.371   7.466 -1.3263 -0.9309 -0.8329
  951MOL0     H25508   4.641   2.372   7.411  0.6277  1.7489  0.9985
  951MOL0     H25509   4.672   2.210   7.467  1.6861  0.2740  2.2559
  951MOL0     H25510   4.750   2.403   7.612 -1.2452  1.8881 -3.7177
  951MOL0     H25511   4.574   2.427   7.653  0.2800  0.7975  1.3428
  951MOL0     H25512   4.556   2.226   7.769 -0.5623 -1.7426 -2.0962
  951MOL0     H25513   4.697   2.308   7.826  2.4133  0.7144 -1.3171
  951MOL0     H25514   3.824   2.507   7.108  2.8178 -0.6736  2.7106
  951MOL0     H25515   3.561   2.501   7.102 -2.7221 -0.5125  4.0995
  951MOL0     H25516   3.171   2.005   7.052  1.0603 -0.6688  1.0986
  951MOL0     H25517   2.922   1.997   7.094 -1.5813 -0.6789  2.3906
  951MOL0     H25518   3.830   2.773   7.086 -0.4923  0.0703  0.2476
  951MOL0     H25519   3.978   2.817   6.889 -1.0742 -2.2376 -0.1432
  951MOL0     H25520   4.167   2.916   6.596  0.0944 -1.1390 -2.9725
  951MOL0     H25521   4.381   2.957   6.477 -1.5721 -1.0013 -0.3317
  951MOL0     H25522   4.559   3.351   6.546 -0.4777  0.0649  1.8869
  951MOL0     H25523   4.692   3.261   6.463 -0.4403  1.5309 -0.4373
  951MOL0     H25524   4.673   3.256   6.720 -0.6589  0.0859  2.0167
  951MOL0     H25525   4.533   3.156   6.709 -0.8994 -0.0178 -0.3272
  951MOL0     H25526   4.800   3.094   6.576  0.9235 -1.0580 -0.3468
  951MOL0     H25527   4.657   2.995   6.569  0.1643  0.8549 -0.5397
  951MOL0     H25528   4.836   2.944   6.759 -1.6362 -0.8090  0.3050
  951MOL0     H25529   4.789   3.098   6.832 -0.6618 -0.3689  2.2976
  951MOL0     H25530   4.449   2.821   6.882  1.5022 -1.6101  0.6158
  951MOL0     H25531   4.351   3.368   6.522 -0.2004  0.5787 -0.5305
  951MOL0     H25532   4.125   3.334   6.636  0.9454 -0.0366  0.2736
  952MOL0     O25533   0.179   6.026   4.465  0.2980  0.2995 -0.5151
  952MOL0     C25534   0.201   5.970   4.568  0.0804 -0.5956  0.3142
  952MOL0     O25535   0.110   5.922   4.658 -0.0686 -0.2373 -0.7078
  952MOL0     C25536  -0.021   5.906   4.632 -0.0604 -0.4258  0.3257
  952MOL0     C25537  -0.060   5.863   4.507 -0.5844  0.6656 -0.5168
  952MOL0     C25538  -0.199   5.843   4.482 -0.5979  0.2147  0.6343
  952MOL0     C25539  -0.290   5.879   4.581 -0.4359  0.2287 -0.2200
  952MOL0     O25540  -0.425   5.875   4.560 -0.1972  0.1278  0.2812
  952MOL0     C25541  -0.475   5.742   4.531  0.3493 -0.5096 -1.1317
  952MOL0     C25542  -0.623   5.766   4.543  0.1067 -0.9825  0.3908
  952MOL0     C25543  -0.700   5.641   4.502  0.5109 -0.3232  0.6516
  952MOL0     C25544  -0.852   5.658   4.477 -0.6903  0.2713 -0.3551
  952MOL0     C25545  -0.926   5.530   4.439 -0.1513 -0.0055  0.0334
  952MOL0     C25546  -1.069   5.556   4.392  0.1210  0.5613 -0.8087
  952MOL0     C25547  -1.147   5.428   4.350 -0.6109  0.3579 -0.1046
  952MOL0     C25548  -1.268   5.474   4.268 -0.5320  0.3308 -0.6044
  952MOL0     N25549  -1.327   5.353   4.201  0.2522 -0.0429 -0.0259
  952MOL0     C25550  -1.405   5.259   4.260  0.5340  0.5516 -0.4431
  952MOL0     C25551  -1.441   5.176   4.160  0.5160  1.0855  0.2116
  952MOL0     C25552  -1.535   5.054   4.165 -0.1379 -0.2131 -0.3722
  952MOL0     C25553  -1.670   5.071   4.091  0.5828 -0.2949  0.0209
  952MOL0     C25554  -1.756   4.946   4.089  0.0656  0.5927  0.6568
  952MOL0     C25555  -1.895   4.983   4.025 -0.8042 -0.6024 -0.4683
  952MOL0     O25556  -1.996   4.912   4.090  0.1530 -0.3799 -0.2629
  952MOL0     C25557  -2.123   4.962   4.084 -0.2109  0.8081 -0.3888
  952MOL0     C25558  -2.217   4.906   4.171  0.3837 -0.3693 -0.1269
  952MOL0     C25559  -2.354   4.934   4.168 -0.4663 -0.5727 -0.7095
  952MOL0     C25560  -2.400   5.014   4.069  1.1512 -0.0135 -0.1428
  952MOL0     C25561  -2.548   5.036   4.047  0.1999 -0.2993  1.1669
  952MOL0     O25562  -2.626   4.948   4.109 -0.0431  0.7339  0.3638
  952MOL0     C25563  -2.768   4.968   4.092  0.1094 -0.2008  1.3819
  952MOL0     C25564  -2.849   4.862   4.059 -0.5095 -0.3789 -0.0762
  952MOL0     C25565  -2.989   4.866   4.063 -0.8632  0.1708 -0.2607
  952MOL0     C25566  -3.056   4.986   4.091 -0.5932 -1.6239 -0.3163
  952MOL0     O25567  -3.192   5.009   4.100 -0.3053 -0.1560  0.7418
  952MOL0     C25568  -3.275   4.889   4.105 -0.0272 -0.1940 -0.2001
  952MOL0     C25569  -3.405   4.916   4.177  0.1419 -1.1258 -1.0151
  952MOL0     C25570  -3.484   4.789   4.173  0.0175  0.3841  0.3970
  952MOL0     C25571  -3.631   4.797   4.227 -0.1489 -0.2710 -0.2353
  952MOL0     C25572  -3.733   4.829   4.115 -0.0181 -0.9113 -0.4909
  952MOL0     C25573  -3.872   4.859   4.175  0.3053 -0.3679  0.2125
  952MOL0     C25574  -3.966   4.926   4.066 -0.3329 -0.4672 -0.5913
  952MOL0     C25575  -4.113   4.934   4.124  1.1422  0.3744  0.2221
  952MOL0    Cl25576  -4.194   4.772   4.102  0.3926  0.0312 -0.4329
  952MOL0     C25577  -2.972   5.096   4.117 -0.4955 -0.1939 -0.4006
  952MOL0     C25578  -2.831   5.091   4.128 -0.0210  1.1568 -0.2141
  952MOL0     O25579  -2.585   5.126   3.972  0.3051 -0.1054  0.1313
  952MOL0     C25580  -2.313   5.081   3.984  0.2490 -0.2421 -0.2658
  952MOL0     C25581  -2.172   5.060   3.991  0.2286  0.4138  0.0949
  952MOL0     N25582  -1.376   5.217   4.045  0.3484 -0.3263  0.1993
  952MOL0     N25583  -1.309   5.320   4.075  0.2443  0.1364 -0.0747
  952MOL0     C25584  -0.238   5.913   4.710 -1.4345 -0.5761 -0.3395
  952MOL0     C25585  -0.104   5.927   4.733  0.6490 -0.5090 -0.7968
  952MOL0     C25586   0.353   5.947   4.604 -0.4976 -0.2426 -0.1644
  952MOL0     C25587   0.388   5.922   4.735  0.2530 -0.0403 -0.0145
  952MOL0     C25588   0.527   5.915   4.770  0.0779 -0.4763  0.1047
  952MOL0     C25589   0.624   5.932   4.670 -0.1269 -0.3402  0.5933
  952MOL0     O25590   0.761   5.926   4.695 -0.1337 -0.2563  0.2303
  952MOL0     C25591   0.800   5.898   4.834 -0.9897 -0.2972  0.2797
  952MOL0     C25592   0.952   5.912   4.846 -0.2190  0.2680  0.0858
  952MOL0     C25593   1.004   6.051   4.891 -0.0671 -0.3794  0.1727
  952MOL0     C25594   1.142   6.055   4.963 -0.7592  0.0002 -0.3917
  952MOL0     C25595   1.240   5.965   4.913 -0.4657  0.0830 -0.6405
  952MOL0     C25596   1.333   5.893   4.889  0.1606 -0.2744 -0.3394
  952MOL0     C25597   0.586   5.957   4.538  0.1118  0.1774  0.0843
  952MOL0     C25598   0.446   5.970   4.499 -0.4355  0.2397 -0.0447
  952MOL0     H25599   0.012   5.841   4.429 -2.4145 -0.2252 -2.0530
  952MOL0     H25600  -0.226   5.811   4.382  0.2369  0.4213  0.3333
  952MOL0     H25601  -0.441   5.674   4.609 -0.9051  0.8629  0.7240
  952MOL0     H25602  -0.447   5.713   4.430  1.3409  0.4264 -1.1475
  952MOL0     H25603  -0.657   5.848   4.479  2.5778 -1.1301 -1.2921
  952MOL0     H25604  -0.653   5.783   4.646  0.7922 -2.6090  0.8933
  952MOL0     H25605  -0.690   5.559   4.574 -1.9540 -0.4062  0.9958
  952MOL0     H25606  -0.656   5.606   4.408 -0.3600 -1.2816  0.5902
  952MOL0     H25607  -0.891   5.708   4.566  0.6904 -1.6365  1.4259
  952MOL0     H25608  -0.866   5.728   4.395 -3.6954  1.4602  1.0083
  952MOL0     H25609  -0.925   5.452   4.516 -0.7573  1.1035  1.2093
  952MOL0     H25610  -0.868   5.486   4.357  2.0913 -3.2148  3.0386
  952MOL0     H25611  -1.069   5.621   4.304  0.1459  2.7462  0.7293
  952MOL0     H25612  -1.132   5.609   4.465 -0.8172  0.9959 -1.8964
  952MOL0     H25613  -1.083   5.362   4.291 -0.5738  0.3191 -0.0211
  952MOL0     H25614  -1.186   5.373   4.437 -1.1689 -0.0883 -0.6210
  952MOL0     H25615  -1.251   5.553   4.194  0.2449 -0.3165 -1.1453
  952MOL0     H25616  -1.335   5.520   4.341 -0.0240  0.0762  0.0256
  952MOL0     H25617  -1.434   5.238   4.362 -0.7655  0.8639 -0.7279
  952MOL0     H25618  -1.557   5.020   4.267 -1.2667  3.1779  0.6599
  952MOL0     H25619  -1.479   4.971   4.120  0.4690 -0.0140  0.0009
  952MOL0     H25620  -1.657   5.118   3.993  2.2161  0.8706  0.7430
  952MOL0     H25621  -1.725   5.147   4.148  2.6412  1.1822  0.1566
  952MOL0     H25622  -1.706   4.867   4.033  1.3341  1.8555 -0.0709
  952MOL0     H25623  -1.788   4.909   4.187 -2.6515 -0.2819 -0.4616
  952MOL0     H25624  -1.881   4.945   3.923  1.6589 -1.2120  0.0374
  952MOL0     H25625  -1.908   5.091   4.036  0.1435 -0.7164  2.4857
  952MOL0     H25626  -2.185   4.829   4.240 -3.6533 -2.6862 -0.5282
  952MOL0     H25627  -2.416   4.877   4.237 -0.0280  0.7597  0.8368
  952MOL0     H25628  -2.813   4.762   4.034  0.6238  0.4154 -1.8533
  952MOL0     H25629  -3.045   4.779   4.028 -3.8762  2.1802 -0.8061
  952MOL0     H25630  -3.210   4.815   4.152  0.3162  0.5455  0.5003
  952MOL0     H25631  -3.300   4.861   4.002  0.0478  0.7764 -0.4892
  952MOL0     H25632  -3.461   4.993   4.124 -0.9851 -0.2677  1.2902
  952MOL0     H25633  -3.387   4.945   4.281 -1.0191 -2.7190 -0.3150
  952MOL0     H25634  -3.426   4.713   4.227 -1.5964 -0.4972  0.9742
  952MOL0     H25635  -3.505   4.757   4.070 -2.6369 -3.7543  1.9205
  952MOL0     H25636  -3.659   4.698   4.265  0.7397 -0.8188 -0.9867
  952MOL0     H25637  -3.636   4.848   4.324  1.2828 -3.5991  1.7577
  952MOL0     H25638  -3.730   4.751   4.038 -1.9838 -1.2776 -0.2436
  952MOL0     H25639  -3.688   4.923   4.082 -1.7753  0.3800  0.6506
  952MOL0     H25640  -3.867   4.927   4.261  1.0383  1.7842 -1.4273
  952MOL0     H25641  -3.909   4.762   4.208 -0.1583  0.1236  1.1687
  952MOL0     H25642  -3.930   5.027   4.046 -2.3920  0.7586  1.3326
  952MOL0     H25643  -3.964   4.881   3.966 -0.9070 -1.3619 -0.2166
  952MOL0     H25644  -4.161   5.018   4.072  0.6607 -0.5137 -0.8135
  952MOL0     H25645  -4.109   4.951   4.232 -0.2667 -0.0413  0.3605
  952MOL0     H25646  -3.014   5.190   4.150  1.3322  0.7008 -0.5228
  952MOL0     H25647  -2.776   5.174   4.173  0.3276  0.8481 -0.0712
  952MOL0     H25648  -2.345   5.151   3.906 -1.7775 -2.5945 -1.6919
  952MOL0     H25649  -2.107   5.123   3.931 -0.0692 -0.7316 -1.5043
  952MOL0     H25650  -0.314   5.924   4.786 -0.7044 -0.3821  0.3813
  952MOL0     H25651  -0.068   5.951   4.832 -1.0294 -0.7641 -0.0905
  952MOL0     H25652   0.319   5.908   4.817  0.4512 -0.8839  0.0202
  952MOL0     H25653   0.558   5.918   4.874 -0.4809  4.4890  0.3728
  952MOL0     H25654   0.766   5.805   4.880  0.6764 -2.5146 -2.6426
  952MOL0     H25655   0.757   5.983   4.888  0.4163 -0.0119  1.0111
  952MOL0     H25656   0.996   5.835   4.910  1.1610  0.9858  0.0273
  952MOL0     H25657   0.980   5.881   4.745  0.3582  1.2988 -0.0854
  952MOL0     H25658   0.928   6.100   4.952  0.8222 -0.3449  1.2932
  952MOL0     H25659   1.015   6.113   4.802 -2.5885  0.6321  0.5005
  952MOL0     H25660   1.179   6.157   4.948 -1.6776  0.3988 -0.0200
  952MOL0     H25661   1.120   6.035   5.068 -1.4840  0.1070 -0.5112
  952MOL0     H25662   1.428   5.848   4.870  0.5011  1.4567 -3.5540
  952MOL0     H25663   0.655   5.972   4.455  1.6054  0.4919  1.3248
  952MOL0     H25664   0.417   6.004   4.399 -0.0713 -1.9822 -0.9758
  953MOL0     O25665   4.713   4.811   6.479 -0.0165 -0.2040 -0.1872
  953MOL0     C25666   4.682   4.840   6.361 -0.4235  0.6028 -0.2231
  953MOL0     O25667   4.561   4.840   6.304  0.7299  0.1467  0.1107
  953MOL0     C25668   4.449   4.783   6.354  0.1990 -0.5674  0.1488
  953MOL0     C25669   4.321   4.814   6.291 -0.4145 -0.1972 -0.3862
  953MOL0     C25670   4.201   4.761   6.345  0.0473 -0.1051 -0.0962
  953MOL0     C25671   4.211   4.677   6.458  0.3036 -0.8287 -0.1243
  953MOL0     O25672   4.097   4.617   6.513 -0.0471 -0.3008 -0.3695
  953MOL0     C25673   3.967   4.673   6.473  0.0188 -0.1672  0.3374
  953MOL0     C25674   3.856   4.568   6.507  0.7319  0.1947  0.5688
  953MOL0     C25675   3.729   4.593   6.430 -0.0225  0.1011  0.3699
  953MOL0     C25676   3.658   4.714   6.470  0.2438 -0.6527  0.3845
  953MOL0     C25677   3.533   4.734   6.386 -0.0634 -0.5727  0.2205
  953MOL0     C25678   3.406   4.705   6.458  0.6199  0.5810  0.5629
  953MOL0     C25679   3.278   4.713   6.372 -0.1725  0.5509 -0.0124
  953MOL0     C25680   3.154   4.670   6.440  0.0725 -0.1174 -0.5443
  953MOL0     N25681   3.034   4.705   6.365 -0.8356  0.7789  0.4608
  953MOL0     C25682   2.961   4.820   6.378 -0.0831 -0.1204 -0.2089
  953MOL0     C25683   2.882   4.824   6.269  0.3186  0.4945 -0.6382
  953MOL0     C25684   2.805   4.934   6.220  0.8720 -0.3948  0.8557
  953MOL0     C25685   2.652   4.913   6.245 -0.1605 -0.0031  0.5422
  953MOL0     C25686   2.563   5.031   6.206 -0.1267 -0.0179 -0.0570
  953MOL0     C25687   2.421   5.003   6.261 -0.2772  0.4657  0.1168
  953MOL0     O25688   2.393   5.051   6.394  0.4458  0.2069 -0.4499
  953MOL0     C25689   2.268   5.081   6.435  0.2871  0.8525 -0.8123
  953MOL0     C25690   2.151   5.054   6.371  0.4052  0.1514  0.7679
  953MOL0     C25691   2.025   5.101   6.403 -0.0315 -0.2617 -0.1285
  953MOL0     C25692   2.017   5.182   6.517 -0.1176  0.1591 -0.1589
  953MOL0     C25693   1.886   5.240   6.566 -0.1081 -0.9519  0.0717
  953MOL0     O25694   1.772   5.219   6.491 -0.5142 -0.4566 -0.3934
  953MOL0     C25695   1.656   5.275   6.529 -0.5837  0.6629 -0.1923
  953MOL0     C25696   1.546   5.206   6.489 -0.2803 -0.1641 -0.0579
  953MOL0     C25697   1.414   5.244   6.501 -0.0426 -0.0615  0.1887
  953MOL0     C25698   1.385   5.362   6.570  0.3393  0.5874  0.0539
  953MOL0     O25699   1.253   5.388   6.595  0.2363 -0.2913  0.3513
  953MOL0     C25700   1.227   5.514   6.647 -0.6673  0.1905  0.0360
  953MOL0     C25701   1.074   5.519   6.634 -0.2751  0.2261  0.2503
  953MOL0     C25702   1.004   5.634   6.696 -0.4588 -0.2062 -0.7627
  953MOL0     C25703   0.858   5.600   6.719 -0.8866 -0.4761  0.4519
  953MOL0     C25704   0.790   5.712   6.792 -0.4837 -0.3188 -0.5948
  953MOL0     C25705   0.821   5.723   6.947 -0.5156  0.2759 -0.3503
  953MOL0     C25706   0.770   5.839   7.025  0.3647 -0.0114  0.0427
  953MOL0     C25707   0.644   5.907   6.982 -0.1379  0.2761  0.3825
  953MOL0    Cl25708   0.556   6.030   7.096 -0.0168  0.3281  0.0422
  953MOL0     C25709   1.498   5.431   6.627 -0.5926 -0.0931 -0.3997
  953MOL0     C25710   1.630   5.395   6.596  0.4099  0.0801 -1.0607
  953MOL0     O25711   1.893   5.281   6.681  0.6018  0.3119  0.1086
  953MOL0     C25712   2.142   5.204   6.592  0.0744 -0.6441 -0.2624
  953MOL0     C25713   2.259   5.158   6.551 -0.4369  0.4762  0.1028
  953MOL0     N25714   2.882   4.692   6.212 -0.4097  0.0139 -0.1184
  953MOL0     N25715   2.978   4.627   6.269  0.3324 -0.0279 -0.4470
  953MOL0     C25716   4.329   4.636   6.520 -1.3208 -0.7541  0.5215
  953MOL0     C25717   4.448   4.686   6.462  0.9235 -0.4348  0.2937
  953MOL0     C25718   4.795   4.857   6.274  0.6360  0.3229 -0.0794
  953MOL0     C25719   4.906   4.939   6.310 -0.2385  0.4456  0.4284
  953MOL0     C25720   5.015   4.955   6.218  0.5312 -0.0766 -0.8423
  953MOL0     C25721   5.014   4.896   6.095  0.3787 -0.6300 -0.4886
  953MOL0     O25722   5.113   4.910   6.004  0.2364 -0.1217  0.5071
  953MOL0     C25723   5.248   4.932   6.047 -0.2585 -0.5366  0.6269
  953MOL0     C25724   5.351   4.866   5.947  0.4666 -1.0984 -0.2732
  953MOL0     C25725   5.373   4.718   5.957 -0.1337  0.3376  0.4137
  953MOL0     C25726   5.460   4.696   6.077  0.3851 -0.3657 -0.0661
  953MOL0     C25727   5.605   4.711   6.045 -0.3474 -0.6708 -0.9864
  953MOL0     C25728   5.723   4.727   6.019  0.0731  0.1155 -0.1783
  953MOL0     C25729   4.899   4.812   6.057 -0.5071 -0.1482 -0.5503
  953MOL0     C25730   4.797   4.790   6.150  0.1409  0.0056 -0.1530
  953MOL0     H25731   4.316   4.878   6.203 -1.9648 -0.0950 -0.2497
  953MOL0     H25732   4.111   4.782   6.287 -1.1203 -2.9033  0.5745
  953MOL0     H25733   3.969   4.683   6.365  1.8156 -2.6181  0.0474
  953MOL0     H25734   3.947   4.764   6.531 -0.3393 -0.5824  0.8817
  953MOL0     H25735   3.830   4.574   6.613  1.4463  2.9610  0.6564
  953MOL0     H25736   3.899   4.469   6.489 -2.9966 -1.5400  0.3458
  953MOL0     H25737   3.655   4.515   6.446 -0.3993  0.0118 -1.5721
  953MOL0     H25738   3.756   4.601   6.324  0.1908 -0.5517  0.3730
  953MOL0     H25739   3.644   4.710   6.578  0.3815 -3.2923  0.3708
  953MOL0     H25740   3.724   4.797   6.443  0.2723 -1.0855 -0.9920
  953MOL0     H25741   3.546   4.663   6.303 -2.8008 -0.2897 -0.5673
  953MOL0     H25742   3.540   4.836   6.347 -0.2053  0.5564  2.9369
  953MOL0     H25743   3.398   4.771   6.545 -0.9600 -0.8873  1.5769
  953MOL0     H25744   3.421   4.602   6.492 -0.4506  0.5611  1.0127
  953MOL0     H25745   3.261   4.812   6.329 -1.3590  0.9090  1.2089
  953MOL0     H25746   3.288   4.644   6.288 -1.4945 -1.4311  1.3796
  953MOL0     H25747   3.139   4.716   6.538  2.7740 -2.9547  1.3784
  953MOL0     H25748   3.156   4.563   6.459 -1.4310  0.1749  1.6320
  953MOL0     H25749   2.983   4.905   6.441  1.0931  0.2239 -1.0507
  953MOL0     H25750   2.826   4.952   6.114  1.9648 -0.6306  1.0200
  953MOL0     H25751   2.840   5.021   6.276  2.0495 -0.1406 -0.2115
  953MOL0     H25752   2.635   4.886   6.349 -0.0433  0.7109  0.7522
  953MOL0     H25753   2.609   4.825   6.196 -4.4392  0.0977  3.6015
  953MOL0     H25754   2.602   5.124   6.249  0.1358  0.6053 -1.5869
  953MOL0     H25755   2.573   5.047   6.099 -0.0384 -1.1010 -0.2183
  953MOL0     H25756   2.408   4.895   6.268  2.1307 -0.0678 -2.1764
  953MOL0     H25757   2.343   5.027   6.188  0.0354 -2.2935 -1.2487
  953MOL0     H25758   2.152   5.000   6.277  0.1642 -0.4917  1.1294
  953MOL0     H25759   1.936   5.072   6.349 -0.4742 -0.4570  0.6754
  953MOL0     H25760   1.565   5.110   6.442 -1.5704 -0.6717  0.4176
  953MOL0     H25761   1.347   5.175   6.450  0.8956 -1.6270  1.0005
  953MOL0     H25762   1.277   5.591   6.587  0.4450  0.9245  1.8236
  953MOL0     H25763   1.257   5.525   6.752 -0.1530 -2.2981  0.2212
  953MOL0     H25764   1.041   5.434   6.693  2.2500 -1.0194 -0.0104
  953MOL0     H25765   1.036   5.513   6.532  0.1875  1.2891 -0.0043
  953MOL0     H25766   1.021   5.722   6.633  1.3756 -0.3719 -0.5642
  953MOL0     H25767   1.046   5.657   6.794 -3.1262  4.6873 -0.4351
  953MOL0     H25768   0.805   5.585   6.624  2.3313  2.3888 -2.0617
  953MOL0     H25769   0.854   5.507   6.775  1.2075 -1.2268 -0.5531
  953MOL0     H25770   0.682   5.693   6.789 -1.4832  4.2813 -1.4944
  953MOL0     H25771   0.807   5.808   6.744 -1.3451 -0.0094 -0.3004
  953MOL0     H25772   0.927   5.712   6.972 -0.9964 -2.3370  0.8512
  953MOL0     H25773   0.780   5.635   6.997  2.4168 -2.1657 -1.8666
  953MOL0     H25774   0.759   5.813   7.131 -0.9119  0.6801  0.1041
  953MOL0     H25775   0.851   5.911   7.017 -0.3762  1.0506  1.5881
  953MOL0     H25776   0.559   5.838   6.971 -0.5813  0.7700  0.6424
  953MOL0     H25777   0.658   5.955   6.884 -1.8802 -1.8950 -1.0239
  953MOL0     H25778   1.483   5.518   6.691 -2.0165 -2.2390  2.4032
  953MOL0     H25779   1.711   5.458   6.630  1.3120 -2.5561  2.2900
  953MOL0     H25780   2.148   5.270   6.678 -0.8946  0.2474 -0.8490
  953MOL0     H25781   2.353   5.190   6.596 -1.1727  3.8429 -0.4754
  953MOL0     H25782   4.328   4.557   6.595  2.4691 -3.3123 -1.7974
  953MOL0     H25783   4.533   4.642   6.513  1.1958  0.5373  0.7077
  953MOL0     H25784   4.909   5.001   6.399 -0.1980 -0.6913  1.2436
  953MOL0     H25785   5.096   5.012   6.263  0.0147 -1.1356  1.5628
  953MOL0     H25786   5.269   4.904   6.151  1.6532  0.0531  0.4356
  953MOL0     H25787   5.269   5.039   6.046 -0.5259 -0.3795  3.2741
  953MOL0     H25788   5.312   4.887   5.848 -1.7653  0.0834  0.7845
  953MOL0     H25789   5.444   4.924   5.942  0.3113 -0.2485  3.5937
  953MOL0     H25790   5.421   4.674   5.869 -0.9363  1.0901 -0.4206
  953MOL0     H25791   5.276   4.668   5.968  0.3969 -0.7057  0.4925
  953MOL0     H25792   5.428   4.758   6.161  1.0503 -0.0982  0.0020
  953MOL0     H25793   5.439   4.592   6.104  0.0109 -0.3028 -0.1123
  953MOL0     H25794   5.821   4.767   6.005  0.1549  0.5783  1.4948
  953MOL0     H25795   4.897   4.758   5.963  4.3634  0.4102 -1.2568
  953MOL0     H25796   4.703   4.739   6.132 -0.3105  0.1884  1.5512
  954MOL0     O25797   9.436   2.946   6.455 -1.1720  0.5255  0.1777
  954MOL0     C25798   9.404   2.899   6.557 -0.0807 -0.0124 -1.2832
  954MOL0     O25799   9.277   2.868   6.596 -0.8023 -0.6964 -0.8078
  954MOL0     C25800   9.162   2.909   6.533 -0.5238 -0.5071  0.8974
  954MOL0     C25801   9.148   2.997   6.422 -0.0126  0.6004  1.1083
  954MOL0     C25802   9.023   3.039   6.378  0.3869  0.2495  0.9358
  954MOL0     C25803   8.908   2.996   6.441 -0.9115  0.0186  0.7471
  954MOL0     O25804   8.792   3.054   6.385 -0.5697  0.1394 -1.0907
  954MOL0     C25805   8.667   3.022   6.430  0.0576  0.0945 -1.0105
  954MOL0     C25806   8.565   3.087   6.338 -0.2502 -0.5376  0.6216
  954MOL0     C25807   8.411   3.073   6.378 -0.8142  0.3976 -1.3169
  954MOL0     C25808   8.368   3.147   6.509 -0.0252 -0.1113 -0.3513
  954MOL0     C25809   8.218   3.122   6.552  0.5260 -0.1370  0.3403
  954MOL0     C25810   8.173   2.974   6.593  0.6153 -0.1445 -0.1391
  954MOL0     C25811   8.022   2.966   6.613 -0.4490  0.4944 -0.0050
  954MOL0     C25812   7.937   2.980   6.486  0.0871  0.2036  0.2701
  954MOL0     N25813   7.793   2.998   6.516  0.2007 -0.1675 -0.3506
  954MOL0     C25814   7.746   3.078   6.621  0.5405  0.2760  0.4141
  954MOL0     C25815   7.612   3.035   6.633 -0.1470  0.7778  0.3674
  954MOL0     C25816   7.525   3.091   6.735  0.5475 -0.7921 -0.5981
  954MOL0     C25817   7.513   3.016   6.869 -0.4300 -0.0416  0.8600
  954MOL0     C25818   7.455   2.869   6.869  0.1720 -0.1509 -0.1279
  954MOL0     C25819   7.313   2.878   6.818  0.1188 -0.0677  0.2231
  954MOL0     O25820   7.228   2.948   6.910 -0.5712  0.5294  0.6211
  954MOL0     C25821   7.113   2.998   6.856 -0.0335 -0.6323  0.2882
  954MOL0     C25822   7.056   2.974   6.731 -0.6825  0.2031  0.0161
  954MOL0     C25823   6.938   3.034   6.692  0.3882 -0.2070 -0.3412
  954MOL0     C25824   6.864   3.104   6.784  0.1695 -0.1844 -0.0354
  954MOL0     C25825   6.729   3.167   6.760  0.2094  0.6597 -0.3160
  954MOL0     O25826   6.671   3.235   6.860  0.0070 -0.0902  0.0342
  954MOL0     C25827   6.533   3.243   6.850 -0.0164  1.2779 -0.1600
  954MOL0     C25828   6.460   3.362   6.845  0.2594  0.0410 -0.8123
  954MOL0     C25829   6.318   3.361   6.858 -0.7559 -0.3833  0.4444
  954MOL0     C25830   6.250   3.248   6.890  0.1094 -0.2154  0.2816
  954MOL0     O25831   6.110   3.259   6.897  0.2328  0.2969 -1.1421
  954MOL0     C25832   6.031   3.169   6.984 -0.2789 -0.9028 -0.6684
  954MOL0     C25833   5.890   3.161   6.927  0.3390 -0.3321  0.9112
  954MOL0     C25834   5.781   3.135   7.034 -0.3224  0.1036  1.1088
  954MOL0     C25835   5.651   3.126   6.959  0.1983 -0.2058  0.4812
  954MOL0     C25836   5.546   3.034   7.031 -0.0972  0.0675 -0.1023
  954MOL0     C25837   5.496   3.088   7.169 -0.1268 -0.3309  0.1808
  954MOL0     C25838   5.375   3.011   7.225  0.6747 -0.3851 -0.1171
  954MOL0     C25839   5.416   2.862   7.258  0.2707  0.0464 -0.1161
  954MOL0    Cl25840   5.272   2.772   7.314  0.3903  0.3436  0.1948
  954MOL0     C25841   6.320   3.124   6.886  0.0753 -0.4119  0.6063
  954MOL0     C25842   6.460   3.122   6.863 -0.7444  0.0670 -0.2034
  954MOL0     O25843   6.689   3.166   6.643  0.2497 -0.0094 -1.0094
  954MOL0     C25844   6.920   3.122   6.909  0.8113  0.2169  0.0721
  954MOL0     C25845   7.049   3.083   6.946 -0.1341 -0.3534  0.1467
  954MOL0     N25846   7.586   2.934   6.546  0.1790 -0.0822  0.5382
  954MOL0     N25847   7.694   2.922   6.466  0.0284  0.0880  0.2654
  954MOL0     C25848   8.920   2.907   6.545  0.2687  0.8771  0.7055
  954MOL0     C25849   9.041   2.859   6.587  0.7379 -0.3545 -0.3725
  954MOL0     C25850   9.520   2.880   6.660 -0.4526  1.1442  0.0840
  954MOL0     C25851   9.649   2.892   6.619  0.4176 -0.1942 -0.3165
  954MOL0     C25852   9.755   2.891   6.713  1.0265 -0.8065 -0.1087
  954MOL0     C25853   9.729   2.878   6.852  0.4963  0.4182  0.0518
  954MOL0     O25854   9.845   2.885   6.929  0.2000  0.1850  0.4160
  954MOL0     C25855   9.840   2.896   7.075 -0.2484  0.2514  0.0478
  954MOL0     C25856   9.827   3.043   7.120 -0.0315 -0.0344  0.2186
  954MOL0     C25857   9.944   3.125   7.070 -0.0433 -0.2308 -0.1376
  954MOL0     C25858  10.071   3.109   7.156  0.2965 -0.5704 -0.1185
  954MOL0     C25859  10.185   3.170   7.088  0.3031 -0.3101  0.1177
  954MOL0     C25860  10.278   3.209   7.019 -0.8328 -0.5443  0.9014
  954MOL0     C25861   9.598   2.837   6.890 -0.2399 -0.1734  0.2362
  954MOL0     C25862   9.491   2.846   6.797  0.4717  0.5711 -0.4523
  954MOL0     H25863   9.239   3.035   6.376 -0.7148  1.7355  0.6187
  954MOL0     H25864   9.005   3.107   6.295 -1.3834 -1.4127 -0.1152
  954MOL0     H25865   8.649   3.058   6.531  0.0156 -0.6995 -0.7249
  954MOL0     H25866   8.640   2.916   6.418 -3.4509  0.7909 -0.4385
  954MOL0     H25867   8.575   3.031   6.244  2.8900  1.1919 -0.2142
  954MOL0     H25868   8.593   3.191   6.322  1.5439 -0.8344  1.5860
  954MOL0     H25869   8.394   2.970   6.409 -0.7537  0.3457 -1.4584
  954MOL0     H25870   8.343   3.101   6.297 -0.0227 -1.3420 -2.6447
  954MOL0     H25871   8.431   3.105   6.588 -0.3472 -1.7914 -0.9516
  954MOL0     H25872   8.375   3.254   6.489 -0.5890 -0.3205 -1.7939
  954MOL0     H25873   8.157   3.167   6.474  0.5168 -1.8124 -0.6764
  954MOL0     H25874   8.212   3.187   6.640  2.6153 -0.3003  0.6724
  954MOL0     H25875   8.214   2.941   6.689 -0.4048  1.3928  0.8817
  954MOL0     H25876   8.202   2.899   6.520 -1.5951  0.3479 -1.6340
  954MOL0     H25877   7.992   2.877   6.669 -0.2515  0.4701  0.0599
  954MOL0     H25878   8.000   3.054   6.674  0.9512  0.8101  0.0652
  954MOL0     H25879   7.955   2.891   6.425  2.0758  3.0005 -3.6853
  954MOL0     H25880   7.976   3.061   6.425  0.1682  0.6149  0.8653
  954MOL0     H25881   7.805   3.162   6.657  2.8461 -0.1153 -2.0804
  954MOL0     H25882   7.425   3.098   6.689  1.3156 -0.6554 -2.3281
  954MOL0     H25883   7.556   3.194   6.754 -2.2565 -0.0446  0.4345
  954MOL0     H25884   7.455   3.081   6.936 -0.6921  1.9433 -1.1629
  954MOL0     H25885   7.613   2.996   6.908  1.8175  0.2857 -4.0170
  954MOL0     H25886   7.513   2.803   6.804  0.7542  1.3630 -1.1823
  954MOL0     H25887   7.455   2.835   6.973 -4.2438  1.1022  0.4839
  954MOL0     H25888   7.273   2.777   6.801  2.2063 -0.6977 -1.3146
  954MOL0     H25889   7.304   2.923   6.718  0.4985  0.0856  0.2555
  954MOL0     H25890   7.093   2.897   6.664  0.7060  0.2567  0.6780
  954MOL0     H25891   6.907   3.013   6.590  2.5735 -2.6091 -0.6223
  954MOL0     H25892   6.500   3.462   6.841  0.1219  0.0739 -3.7618
  954MOL0     H25893   6.260   3.451   6.842 -0.6244 -0.8857 -3.9678
  954MOL0     H25894   6.024   3.219   7.081 -0.7173 -0.7477 -0.7761
  954MOL0     H25895   6.072   3.068   6.995 -0.6818 -0.8403  2.1877
  954MOL0     H25896   5.889   3.081   6.852  1.1975  1.3180 -0.9458
  954MOL0     H25897   5.859   3.245   6.864  0.6936 -0.6294  0.3311
  954MOL0     H25898   5.773   3.217   7.105 -2.4880  1.6799 -0.7880
  954MOL0     H25899   5.804   3.047   7.095 -2.0892 -1.5325 -0.4607
  954MOL0     H25900   5.616   3.230   6.961  0.5785 -0.0663 -0.0251
  954MOL0     H25901   5.655   3.085   6.858 -0.1648  1.1595 -0.1138
  954MOL0     H25902   5.605   2.943   7.046  0.4383  0.5368  0.6627
  954MOL0     H25903   5.464   3.020   6.959 -0.8571  1.9262  0.3472
  954MOL0     H25904   5.465   3.192   7.157  0.1687 -0.1992  0.5390
  954MOL0     H25905   5.580   3.085   7.240 -0.2085 -0.6218  0.2665
  954MOL0     H25906   5.348   3.065   7.316 -1.3938 -0.8159 -0.4257
  954MOL0     H25907   5.292   3.015   7.154 -0.3480  2.6787  1.0554
  954MOL0     H25908   5.495   2.863   7.334  0.9155  1.3715 -0.7586
  954MOL0     H25909   5.458   2.816   7.168  3.6088  1.5934  0.4910
  954MOL0     H25910   6.266   3.030   6.894 -1.4209  0.0908 -2.3054
  954MOL0     H25911   6.508   3.025   6.853  0.2447  0.2874  1.8755
  954MOL0     H25912   6.861   3.161   6.991  0.9168  0.7812 -0.1140
  954MOL0     H25913   7.086   3.082   7.048  0.3378  0.5239 -0.0025
  954MOL0     H25914   8.830   2.873   6.594 -1.8156  2.6011 -1.6505
  954MOL0     H25915   9.043   2.787   6.668  0.5634  0.5167  0.4288
  954MOL0     H25916   9.662   2.900   6.512 -1.1025 -1.4348 -0.6364
  954MOL0     H25917   9.858   2.918   6.691  1.1513  0.4501  1.7991
  954MOL0     H25918   9.937   2.866   7.114 -0.7873  2.2820  3.3201
  954MOL0     H25919   9.763   2.830   7.117  0.1133 -2.1277 -2.7535
  954MOL0     H25920   9.736   3.099   7.095 -0.0686 -0.1125  0.1759
  954MOL0     H25921   9.827   3.035   7.229 -3.0282 -2.9326  0.1992
  954MOL0     H25922   9.918   3.230   7.084 -0.8975 -0.7821  3.5946
  954MOL0     H25923   9.955   3.118   6.961  0.6361 -2.8610  0.0284
  954MOL0     H25924  10.060   3.150   7.257  1.1523 -2.9810  1.0289
  954MOL0     H25925  10.091   3.003   7.172  1.3472 -0.0414  2.5960
  954MOL0     H25926  10.363   3.257   6.977 -2.3464  2.0558  0.6081
  954MOL0     H25927   9.573   2.814   6.994 -1.8364  1.7440  0.3419
  954MOL0     H25928   9.390   2.811   6.817  0.2767  1.2547 -0.1840
  955MOL0     O25929  10.926   4.903   7.372  0.3120  0.2054  0.5555
  955MOL0     C25930  10.970   4.929   7.261 -0.9745 -1.0398  0.1671
  955MOL0     O25931  10.904   4.960   7.150 -0.2798  0.0111 -0.2649
  955MOL0     C25932  10.771   4.929   7.138  0.1789 -0.0164 -0.2711
  955MOL0     C25933  10.685   5.045   7.134 -0.1588  0.2901 -0.0945
  955MOL0     C25934  10.548   5.025   7.106 -0.6622  0.3002  0.2257
  955MOL0     C25935  10.494   4.897   7.109 -0.0444 -0.5375 -0.4464
  955MOL0     O25936  10.356   4.889   7.096 -0.0400  0.5062 -0.1574
  955MOL0     C25937  10.307   4.805   6.994  0.3412  0.2495  0.7342
  955MOL0     C25938  10.158   4.794   6.991  0.1123  0.4672 -0.3192
  955MOL0     C25939  10.119   4.734   6.854  0.3175 -0.3982 -0.1759
  955MOL0     C25940   9.965   4.721   6.845  0.0704 -0.0260 -1.0966
  955MOL0     C25941   9.915   4.685   6.705  0.2515 -0.2879 -0.0218
  955MOL0     C25942   9.759   4.683   6.690 -0.6711 -0.3445  0.1214
  955MOL0     C25943   9.682   4.818   6.686 -0.5290  0.0827  0.4221
  955MOL0     C25944   9.697   4.899   6.561  0.3230  0.7387  0.1431
  955MOL0     N25945   9.753   5.035   6.556 -0.6957  0.3585  0.2411
  955MOL0     C25946   9.704   5.143   6.628  0.8438  0.3970 -0.0776
  955MOL0     C25947   9.770   5.248   6.575  0.2931  0.3182  0.9008
  955MOL0     C25948   9.739   5.399   6.603  0.4659  0.0603  0.7557
  955MOL0     C25949   9.697   5.440   6.744  0.5235 -0.8518 -0.4965
  955MOL0     C25950   9.667   5.591   6.759 -0.4913  0.2122 -0.3210
  955MOL0     C25951   9.533   5.645   6.702  0.8249  0.5232  0.3054
  955MOL0     O25952   9.417   5.582   6.777  0.7712  0.1047  0.6099
  955MOL0     C25953   9.293   5.609   6.740  0.2284 -0.1783 -0.2544
  955MOL0     C25954   9.257   5.694   6.638 -0.4272  0.0688  0.2445
  955MOL0     C25955   9.127   5.709   6.601 -0.2435 -0.0121 -0.2861
  955MOL0     C25956   9.025   5.642   6.674  0.9762  0.4914  0.2181
  955MOL0     C25957   8.889   5.664   6.627 -0.7221 -0.7879  0.3475
  955MOL0     O25958   8.869   5.742   6.511 -0.2944 -0.4232 -0.2255
  955MOL0     C25959   8.739   5.742   6.476 -0.9005 -0.2126 -0.1949
  955MOL0     C25960   8.681   5.859   6.434 -0.5470  0.0815 -0.2635
  955MOL0     C25961   8.554   5.855   6.370 -0.0837 -0.5338  0.8026
  955MOL0     C25962   8.478   5.743   6.353  0.1730  0.0533  0.1781
  955MOL0     O25963   8.353   5.769   6.306 -0.0089 -0.0113 -0.8292
  955MOL0     C25964   8.269   5.656   6.300 -0.7832 -0.6380 -0.7632
  955MOL0     C25965   8.125   5.703   6.285 -0.0684  0.1206 -0.2498
  955MOL0     C25966   8.041   5.583   6.239 -0.0268 -0.5058 -0.2446
  955MOL0     C25967   7.897   5.627   6.207  0.9473 -0.0838 -0.5832
  955MOL0     C25968   7.807   5.525   6.133  0.1145 -0.0290 -0.2318
  955MOL0     C25969   7.754   5.407   6.217  0.0505 -0.1893 -0.6454
  955MOL0     C25970   7.677   5.437   6.353 -0.7771  0.9263  0.9765
  955MOL0     C25971   7.559   5.530   6.325  0.1515  0.3717  0.2633
  955MOL0    Cl25972   7.446   5.455   6.215 -0.3193 -0.5246  0.2255
  955MOL0     C25973   8.540   5.619   6.389 -0.1455 -0.3401 -0.0679
  955MOL0     C25974   8.666   5.623   6.459  0.0180 -0.0930 -0.2726
  955MOL0     O25975   8.800   5.608   6.698 -0.5978  0.1712  0.1788
  955MOL0     C25976   9.053   5.559   6.777  0.7614  0.7272 -0.6350
  955MOL0     C25977   9.191   5.545   6.815 -0.2920  0.1656  0.4083
  955MOL0     N25978   9.855   5.206   6.478 -0.6845  0.1460 -0.7151
  955MOL0     N25979   9.851   5.073   6.468 -0.2083 -0.3413  0.4882
  955MOL0     C25980  10.574   4.780   7.138  0.4510 -0.2016 -0.3663
  955MOL0     C25981  10.715   4.796   7.139 -0.1669 -0.0710 -0.4535
  955MOL0     C25982  11.110   4.968   7.261  0.5009 -0.1690  0.5842
  955MOL0     C25983  11.147   5.084   7.189  0.2817  1.0939 -0.3981
  955MOL0     C25984  11.275   5.120   7.184  0.2519  0.1762 -0.9998
  955MOL0     C25985  11.380   5.054   7.254 -0.5345  0.2984  0.3143
  955MOL0     O25986  11.514   5.098   7.238 -0.3526 -0.0970 -0.1739
  955MOL0     C25987  11.632   5.016   7.259  1.0890 -0.1169  0.2215
  955MOL0     C25988  11.743   5.056   7.163 -0.5076  0.0606  0.1752
  955MOL0     C25989  11.733   4.997   7.030  0.0467  0.7729 -0.2939
  955MOL0     C25990  11.648   5.100   6.942  0.2081 -0.7218 -1.0837
  955MOL0     C25991  11.661   5.055   6.804 -0.4703  0.2034 -0.1835
  955MOL0     C25992  11.647   5.012   6.697 -0.1615  0.9234 -0.2995
  955MOL0     C25993  11.339   4.944   7.335 -0.1685 -0.4407  0.3915
  955MOL0     C25994  11.205   4.905   7.341 -0.7904  0.1811  0.3929
  955MOL0     H25995  10.738   5.139   7.148  2.3075 -1.1456  0.6880
  955MOL0     H25996  10.480   5.109   7.106 -0.6431  0.3382  1.5224
  955MOL0     H25997  10.347   4.705   7.016 -1.3649 -0.3497  1.2721
  955MOL0     H25998  10.346   4.840   6.898  2.5401 -2.0380  0.6874
  955MOL0     H25999  10.099   4.886   6.998 -2.4888 -1.0329 -1.1172
  955MOL0     H26000  10.134   4.726   7.073  1.4240 -0.3857 -0.6158
  955MOL0     H26001  10.155   4.632   6.841 -1.0259 -1.0247  0.7506
  955MOL0     H26002  10.156   4.794   6.770 -0.2068  1.8244  1.0889
  955MOL0     H26003   9.934   4.642   6.914  2.9012  0.5005  0.9912
  955MOL0     H26004   9.919   4.815   6.874 -1.3144 -0.8768 -0.4296
  955MOL0     H26005   9.955   4.584   6.699  1.6614  0.2736 -0.4738
  955MOL0     H26006   9.954   4.745   6.623  2.7838 -1.3171  0.3261
  955MOL0     H26007   9.728   4.636   6.784  2.3093 -3.4170 -0.2238
  955MOL0     H26008   9.737   4.609   6.612  1.9219 -0.6636 -0.3861
  955MOL0     H26009   9.578   4.787   6.691 -0.4731 -0.5079 -1.4076
  955MOL0     H26010   9.714   4.881   6.770  0.2982 -1.9283  1.6770
  955MOL0     H26011   9.596   4.895   6.519  0.4308 -4.5917 -0.2544
  955MOL0     H26012   9.755   4.838   6.492 -1.9801 -0.8211 -0.5489
  955MOL0     H26013   9.621   5.148   6.698 -0.3294 -0.0976 -1.3865
  955MOL0     H26014   9.659   5.437   6.539  1.0024  1.6545  0.9987
  955MOL0     H26015   9.835   5.450   6.587  0.1687  0.0756 -1.2410
  955MOL0     H26016   9.774   5.415   6.817  2.3324  3.6557 -0.5665
  955MOL0     H26017   9.611   5.383   6.782 -0.1504 -0.3121 -1.1869
  955MOL0     H26018   9.662   5.619   6.864 -0.4330 -2.3087  0.4224
  955MOL0     H26019   9.749   5.644   6.709 -1.8062  1.2914 -1.4139
  955MOL0     H26020   9.531   5.611   6.598 -1.5111 -2.5571  1.2009
  955MOL0     H26021   9.534   5.754   6.690 -0.6606  0.4482 -0.8201
  955MOL0     H26022   9.337   5.744   6.585 -0.8756  0.8396  0.2692
  955MOL0     H26023   9.107   5.777   6.518 -0.0482  0.7209  0.2648
  955MOL0     H26024   8.744   5.944   6.455  2.1112 -2.5660  4.0364
  955MOL0     H26025   8.503   5.944   6.334 -1.2487 -1.2153  0.7178
  955MOL0     H26026   8.278   5.595   6.390 -2.1203 -0.5716 -0.5781
  955MOL0     H26027   8.292   5.593   6.213 -4.1810 -2.8424 -0.2133
  955MOL0     H26028   8.128   5.789   6.218  3.4531  2.9163  3.0349
  955MOL0     H26029   8.098   5.739   6.384  1.9529 -1.1629  0.8483
  955MOL0     H26030   8.044   5.508   6.318  0.1630 -1.4763 -1.1439
  955MOL0     H26031   8.085   5.535   6.151  2.1467 -1.6048  1.3462
  955MOL0     H26032   7.841   5.647   6.298  1.0770 -0.7432 -0.3473
  955MOL0     H26033   7.909   5.715   6.143 -1.1984  0.4040 -0.3755
  955MOL0     H26034   7.862   5.481   6.049  0.3582  1.2075 -0.7325
  955MOL0     H26035   7.720   5.580   6.098  0.2182  0.2039 -0.1243
  955MOL0     H26036   7.842   5.344   6.236  0.5325  0.4453 -0.7482
  955MOL0     H26037   7.688   5.350   6.150 -1.7750  0.8734  0.1909
  955MOL0     H26038   7.644   5.346   6.405 -0.2877 -0.7071 -1.4250
  955MOL0     H26039   7.748   5.491   6.416  1.9784  1.1381 -2.0645
  955MOL0     H26040   7.591   5.624   6.278  0.6714  0.7568  1.3614
  955MOL0     H26041   7.507   5.547   6.419 -1.4068  0.8943 -0.6552
  955MOL0     H26042   8.500   5.518   6.376  1.5888 -0.9908 -0.6299
  955MOL0     H26043   8.706   5.524   6.481  1.2902  0.2265 -1.0520
  955MOL0     H26044   8.977   5.506   6.834  1.4221 -1.2867 -1.5009
  955MOL0     H26045   9.221   5.472   6.890 -0.5341 -1.8102 -1.3278
  955MOL0     H26046  10.523   4.684   7.137 -1.5312  0.8086 -0.4505
  955MOL0     H26047  10.787   4.715   7.150  1.6089  1.2118 -2.1062
  955MOL0     H26048  11.075   5.133   7.125  0.6989 -0.5418 -2.2073
  955MOL0     H26049  11.290   5.206   7.120  0.4610  0.0621 -1.1048
  955MOL0     H26050  11.602   4.913   7.237 -4.1795  1.5829 -2.3607
  955MOL0     H26051  11.658   5.043   7.362  1.4085 -1.1481  0.4170
  955MOL0     H26052  11.767   5.163   7.164  4.4545 -0.7885  1.6864
  955MOL0     H26053  11.830   5.011   7.212 -1.4389  0.3956  2.2547
  955MOL0     H26054  11.679   4.902   7.028 -0.0019  0.7131  1.7033
  955MOL0     H26055  11.835   4.976   6.998 -0.0607 -2.1470  0.9705
  955MOL0     H26056  11.542   5.096   6.967  0.1380  0.9715 -1.0018
  955MOL0     H26057  11.689   5.200   6.957 -2.6440  0.4656 -0.7021
  955MOL0     H26058  11.647   4.954   6.607 -0.9196  0.2714  0.1127
  955MOL0     H26059  11.417   4.891   7.389  1.2663 -0.4496 -1.5580
  955MOL0     H26060  11.203   4.807   7.388  2.0762 -1.3679 -2.3599
  956MOL0     O26061   2.410   7.260   4.383  0.8310  0.3041 -0.9177
  956MOL0     C26062   2.476   7.193   4.463 -0.1020  0.1097  0.5032
  956MOL0     O26063   2.428   7.101   4.551  0.3871 -0.4571 -0.7321
  956MOL0     C26064   2.290   7.087   4.538 -0.4104  0.0468 -0.0242
  956MOL0     C26065   2.238   6.979   4.470  0.1807 -0.0357  0.5692
  956MOL0     C26066   2.106   6.965   4.441  1.1653  0.3947 -0.6532
  956MOL0     C26067   2.019   7.052   4.515  0.0601  0.3109 -0.8378
  956MOL0     O26068   1.881   7.051   4.505  0.3576  0.7824 -0.2691
  956MOL0     C26069   1.814   6.950   4.420  0.0193 -0.2203 -0.2483
  956MOL0     C26070   1.671   6.928   4.474 -0.8733 -0.1308  0.5211
  956MOL0     C26071   1.560   7.016   4.432  0.0751  0.8069 -0.2025
  956MOL0     C26072   1.436   6.972   4.508 -0.4276  0.0579  0.7287
  956MOL0     C26073   1.305   7.040   4.456 -0.0832 -0.3490  0.2466
  956MOL0     C26074   1.200   7.028   4.568 -0.7134 -0.2010  0.0093
  956MOL0     C26075   1.065   7.069   4.542 -0.3262  0.7876  0.3905
  956MOL0     C26076   0.991   6.992   4.432 -0.3644 -0.3239  0.4307
  956MOL0     N26077   0.867   7.064   4.396  0.9186 -0.0893 -0.4162
  956MOL0     C26078   0.780   7.136   4.479 -0.6249  0.8854 -0.5150
  956MOL0     C26079   0.678   7.178   4.400  0.4009 -0.5568  0.5168
  956MOL0     C26080   0.555   7.234   4.454  0.1137  0.0541 -0.2043
  956MOL0     C26081   0.425   7.198   4.370  0.3930  0.5537  0.2839
  956MOL0     C26082   0.380   7.058   4.388 -0.4618  0.4888  0.0147
  956MOL0     C26083   0.251   7.051   4.468 -0.1327  0.6847 -0.2280
  956MOL0     O26084   0.149   7.128   4.408  0.1482 -0.2421 -0.0838
  956MOL0     C26085   0.024   7.120   4.465 -0.4458 -0.3052 -0.9075
  956MOL0     C26086  -0.074   7.196   4.397  0.0993  0.1951  0.1212
  956MOL0     C26087  -0.209   7.186   4.426 -0.8536  0.2800  0.0348
  956MOL0     C26088  -0.251   7.093   4.527  0.0903 -0.6133  0.5750
  956MOL0     C26089  -0.395   7.064   4.556  0.4142  0.0797  0.2183
  956MOL0     O26090  -0.426   6.977   4.648  0.1582  0.0812 -0.2063
  956MOL0     C26091  -0.551   6.955   4.701  0.4238 -0.7457 -0.1297
  956MOL0     C26092  -0.656   7.050   4.718  0.7993 -0.7078  0.1908
  956MOL0     C26093  -0.773   7.015   4.782  0.9026 -1.8914 -0.2519
  956MOL0     C26094  -0.792   6.891   4.839  1.2481  0.1064  0.6440
  956MOL0     O26095  -0.914   6.862   4.890 -0.2186  0.0609  0.2573
  956MOL0     C26096  -0.990   6.960   4.965  0.6168  0.3962  1.1257
  956MOL0     C26097  -1.119   7.004   4.892  0.2540 -0.3452 -0.2235
  956MOL0     C26098  -1.236   6.909   4.905  0.0798  0.1934 -0.1798
  956MOL0     C26099  -1.366   6.981   4.869  0.4793 -0.2021 -0.3004
  956MOL0     C26100  -1.486   6.882   4.852  0.9533  0.0527  0.5486
  956MOL0     C26101  -1.520   6.816   4.717  0.5067 -0.1206  0.0640
  956MOL0     C26102  -1.647   6.741   4.704  0.5560 -0.2060  0.4609
  956MOL0     C26103  -1.762   6.831   4.674 -0.0484 -0.5050 -0.1351
  956MOL0    Cl26104  -1.741   6.887   4.505 -0.8172  0.1122 -0.1268
  956MOL0     C26105  -0.696   6.793   4.820  0.6791 -0.3712 -0.4663
  956MOL0     C26106  -0.577   6.830   4.754  0.6617 -0.0353 -0.0650
  956MOL0     O26107  -0.479   7.122   4.485  0.0244  0.2316  0.2453
  956MOL0     C26108  -0.152   7.023   4.592  0.1329 -0.0970 -0.3098
  956MOL0     C26109  -0.020   7.032   4.560  0.0736  0.3931  0.5686
  956MOL0     N26110   0.707   7.132   4.281  0.4942  0.1868 -0.0425
  956MOL0     N26111   0.822   7.080   4.272  0.1689  0.4083  1.1155
  956MOL0     C26112   2.071   7.158   4.589  0.3479  0.1909  0.2645
  956MOL0     C26113   2.202   7.177   4.608 -0.3055  0.7347 -0.3551
  956MOL0     C26114   2.624   7.219   4.471  0.4688 -0.2054  0.1534
  956MOL0     C26115   2.713   7.160   4.565 -0.5521  0.1955 -0.1891
  956MOL0     C26116   2.855   7.184   4.553 -1.1036 -0.2090 -0.1999
  956MOL0     C26117   2.910   7.274   4.461 -0.4678  0.0083  0.6901
  956MOL0     O26118   3.047   7.288   4.468  0.5370  0.6148 -0.4541
  956MOL0     C26119   3.114   7.340   4.354 -0.0228  1.2291 -0.3066
  956MOL0     C26120   3.261   7.343   4.382 -0.4192 -0.1831 -0.5644
  956MOL0     C26121   3.342   7.398   4.261 -0.4648  0.8851 -0.0880
  956MOL0     C26122   3.490   7.427   4.301 -0.4818 -1.2182  0.0364
  956MOL0     C26123   3.571   7.313   4.293 -0.4948 -0.3513 -0.8240
  956MOL0     C26124   3.628   7.209   4.282  0.4266  0.3613 -0.1278
  956MOL0     C26125   2.825   7.304   4.353  1.0548  0.1560 -0.1444
  956MOL0     C26126   2.691   7.278   4.359  0.0546  1.2480  0.5917
  956MOL0     H26127   2.313   6.922   4.416  0.2167 -0.5323  1.1365
  956MOL0     H26128   2.076   6.885   4.375 -1.5516 -1.7557  2.7927
  956MOL0     H26129   1.871   6.856   4.422  3.1520  1.5659  0.3462
  956MOL0     H26130   1.808   6.994   4.320  0.0924  0.6582  0.1249
  956MOL0     H26131   1.687   6.937   4.582  1.2747  0.3844  0.2136
  956MOL0     H26132   1.635   6.827   4.451 -0.8221  0.5593 -3.0028
  956MOL0     H26133   1.550   7.011   4.323 -0.5549  0.2892 -0.1233
  956MOL0     H26134   1.583   7.119   4.464 -1.1048  0.7359  0.9671
  956MOL0     H26135   1.414   6.865   4.500  0.4236 -0.2620  2.4324
  956MOL0     H26136   1.454   7.002   4.611  4.5114  0.2389  0.0624
  956MOL0     H26137   1.267   6.993   4.365  1.8170  0.0170 -0.7945
  956MOL0     H26138   1.327   7.145   4.438 -3.9834  0.3491 -1.6266
  956MOL0     H26139   1.235   7.090   4.651 -0.3385 -0.5005  0.0750
  956MOL0     H26140   1.203   6.924   4.602 -0.0649 -0.4324 -0.7378
  956MOL0     H26141   1.015   7.058   4.639  1.1549 -1.1570  0.9938
  956MOL0     H26142   1.082   7.173   4.512 -0.2419  0.0854 -2.2615
  956MOL0     H26143   0.965   6.888   4.453 -2.4143  0.2674  1.0529
  956MOL0     H26144   1.048   6.985   4.339 -2.0190  1.1075 -0.7486
  956MOL0     H26145   0.789   7.141   4.587  2.3220 -1.2834 -0.5038
  956MOL0     H26146   0.566   7.343   4.464 -3.0687  0.3377  1.4884
  956MOL0     H26147   0.538   7.212   4.560 -0.1203  0.8249 -0.0689
  956MOL0     H26148   0.463   7.210   4.269 -0.5129 -0.2770 -0.1736
  956MOL0     H26149   0.347   7.275   4.376  0.1049  0.2410  0.5819
  956MOL0     H26150   0.357   7.023   4.287 -2.4375 -3.0549  1.5032
  956MOL0     H26151   0.461   6.990   4.414 -0.2216  0.3743 -1.0082
  956MOL0     H26152   0.275   7.106   4.559 -2.3551  2.1697 -0.4524
  956MOL0     H26153   0.218   6.949   4.488  1.8473  0.5496  3.0535
  956MOL0     H26154  -0.042   7.258   4.314  1.0690 -0.2863  0.1285
  956MOL0     H26155  -0.271   7.240   4.355  0.6658 -0.1650 -1.6964
  956MOL0     H26156  -0.634   7.152   4.688 -0.4638 -0.5686 -0.2989
  956MOL0     H26157  -0.853   7.088   4.775  3.2479  1.0621  1.3959
  956MOL0     H26158  -0.920   7.041   4.982  1.6613 -0.0218 -0.9012
  956MOL0     H26159  -1.012   6.923   5.066  2.3009  0.1641  1.4278
  956MOL0     H26160  -1.104   7.035   4.788  3.6546  1.0153  0.5589
  956MOL0     H26161  -1.153   7.088   4.953  0.6040  0.3082 -0.9105
  956MOL0     H26162  -1.239   6.867   5.006 -0.3432  0.8581  0.0866
  956MOL0     H26163  -1.221   6.828   4.833  1.5842  0.2782  0.0106
  956MOL0     H26164  -1.391   7.049   4.951  0.4745  4.0065 -3.4800
  956MOL0     H26165  -1.357   7.042   4.779 -3.7978  0.3396 -0.5814
  956MOL0     H26166  -1.567   6.947   4.888 -0.5243 -1.2465 -0.3508
  956MOL0     H26167  -1.467   6.793   4.912 -2.0105 -2.2616 -1.6540
  956MOL0     H26168  -1.439   6.747   4.691 -0.6928 -1.4955 -0.1589
  956MOL0     H26169  -1.517   6.893   4.640  5.4353  0.2127  0.2161
  956MOL0     H26170  -1.639   6.664   4.627  0.4725  0.9989 -0.7808
  956MOL0     H26171  -1.663   6.685   4.797  0.0168  0.4588  0.7770
  956MOL0     H26172  -1.775   6.920   4.737 -0.1996  0.7331 -1.8449
  956MOL0     H26173  -1.854   6.772   4.680 -1.4823  1.5831 -0.4714
  956MOL0     H26174  -0.707   6.690   4.853  0.1512  0.3202  1.7094
  956MOL0     H26175  -0.498   6.756   4.744  2.7854  1.9408  1.1472
  956MOL0     H26176  -0.176   6.937   4.654 -0.0517  2.0961  2.8954
  956MOL0     H26177   0.033   6.954   4.614 -1.3113 -0.3982  0.8227
  956MOL0     H26178   1.987   7.204   4.641 -2.2672 -1.7548 -1.9183
  956MOL0     H26179   2.233   7.258   4.674  1.5732 -0.1023 -0.1443
  956MOL0     H26180   2.665   7.118   4.653 -1.4527  4.2295  1.4682
  956MOL0     H26181   2.914   7.157   4.639 -2.7651 -1.3066  0.6439
  956MOL0     H26182   3.073   7.440   4.343 -1.7687  0.5443 -0.3587
  956MOL0     H26183   3.078   7.286   4.266 -1.8914  2.1027 -0.1164
  956MOL0     H26184   3.293   7.411   4.463  3.8356 -2.9509  0.4316
  956MOL0     H26185   3.298   7.245   4.411 -1.9359 -1.5462 -2.9440
  956MOL0     H26186   3.301   7.483   4.206  2.7447  2.1586 -0.7743
  956MOL0     H26187   3.353   7.320   4.186 -0.2156 -2.4083  3.0723
  956MOL0     H26188   3.534   7.498   4.231 -1.5160 -1.3373 -0.7538
  956MOL0     H26189   3.493   7.460   4.406 -0.6817 -1.2369  0.0491
  956MOL0     H26190   3.667   7.111   4.267  0.4731  0.4396 -0.5289
  956MOL0     H26191   2.867   7.350   4.264  0.7482 -1.7238 -1.3172
  956MOL0     H26192   2.622   7.309   4.281  0.9262 -0.3085 -0.8576
  957MOL0     O26193   2.504   3.512   5.611 -0.1951 -0.1455 -0.4948
  957MOL0     C26194   2.535   3.424   5.692  0.3888  0.1800 -0.0384
  957MOL0     O26195   2.452   3.374   5.791 -0.8393 -0.6957 -0.6840
  957MOL0     C26196   2.327   3.428   5.786  0.7699  0.2024  0.5480
  957MOL0     C26197   2.233   3.376   5.697 -0.7756 -0.2416  0.1960
  957MOL0     C26198   2.103   3.432   5.683  0.5564 -1.0758  0.8293
  957MOL0     C26199   2.067   3.547   5.760  0.4020 -0.0075  0.1016
  957MOL0     O26200   1.942   3.604   5.758  0.1417 -0.3660 -0.0355
  957MOL0     C26201   1.837   3.543   5.683 -0.4516 -0.7640 -1.4094
  957MOL0     C26202   1.719   3.636   5.711  0.5087  0.3386  0.0545
  957MOL0     C26203   1.604   3.599   5.629  0.5073  0.9869  0.1745
  957MOL0     C26204   1.475   3.642   5.711 -0.5229  0.4468  1.2696
  957MOL0     C26205   1.351   3.566   5.648  0.3829  0.0722  0.7266
  957MOL0     C26206   1.219   3.638   5.662  0.9000  0.4937  0.0127
  957MOL0     C26207   1.155   3.613   5.808  0.5339 -0.2407  0.1300
  957MOL0     C26208   1.020   3.677   5.836 -0.9114  0.0224 -0.0434
  957MOL0     N26209   0.986   3.662   5.975  0.5845  0.7638 -0.4000
  957MOL0     C26210   0.901   3.570   6.017 -0.9649  0.4008 -0.8223
  957MOL0     C26211   0.906   3.572   6.152  0.1681  0.4831 -0.7958
  957MOL0     C26212   0.829   3.489   6.252  0.8232  0.6265  0.1111
  957MOL0     C26213   0.751   3.564   6.360  0.2625 -0.8279 -0.2636
  957MOL0     C26214   0.631   3.641   6.299  0.4625  0.7023  0.2821
  957MOL0     C26215   0.515   3.543   6.249  0.3309  0.0401 -1.0587
  957MOL0     O26216   0.405   3.620   6.210  0.4332 -0.2474 -0.8114
  957MOL0     C26217   0.272   3.574   6.193 -0.2077  0.0988 -0.3073
  957MOL0     C26218   0.249   3.446   6.165 -0.3726 -0.3762 -0.1921
  957MOL0     C26219   0.120   3.395   6.185  0.5736 -0.4348  0.5903
  957MOL0     C26220   0.010   3.486   6.221 -0.7292 -0.4060  0.2006
  957MOL0     C26221  -0.128   3.433   6.256 -0.3994 -0.3632  0.2473
  957MOL0     O26222  -0.152   3.305   6.217 -0.1892  0.3423 -0.9402
  957MOL0     C26223  -0.270   3.245   6.234  0.8432  0.4202 -0.0328
  957MOL0     C26224  -0.267   3.106   6.217  0.5748 -0.4011  0.2667
  957MOL0     C26225  -0.390   3.032   6.211  0.2116  0.4616 -1.2416
  957MOL0     C26226  -0.512   3.095   6.210  0.3721  0.1980 -0.1221
  957MOL0     O26227  -0.637   3.038   6.198  0.0056  0.3235 -0.6635
  957MOL0     C26228  -0.654   2.899   6.236 -0.4116 -0.1023 -0.2067
  957MOL0     C26229  -0.794   2.843   6.221 -0.0874 -0.4750  0.2456
  957MOL0     C26230  -0.895   2.938   6.274  0.1120 -0.5610 -0.1238
  957MOL0     C26231  -1.046   2.896   6.269 -0.3797 -0.0063  0.3739
  957MOL0     C26232  -1.110   2.874   6.125  0.0310  0.4173 -0.2185
  957MOL0     C26233  -1.080   2.984   6.022  0.2471 -0.2861 -0.1626
  957MOL0     C26234  -1.135   3.126   6.065 -0.5055  0.0370 -0.8054
  957MOL0     C26235  -1.073   3.230   5.974 -0.5298 -0.1301  0.1070
  957MOL0    Cl26236  -0.920   3.289   6.048 -0.0231  0.7264  0.3673
  957MOL0     C26237  -0.512   3.235   6.223 -0.6756 -0.3341  0.1399
  957MOL0     C26238  -0.399   3.310   6.243 -0.7021 -0.1002  0.5274
  957MOL0     O26239  -0.208   3.505   6.315 -0.1111  0.0390 -0.5884
  957MOL0     C26240   0.043   3.620   6.234 -0.0753  0.7502 -0.2554
  957MOL0     C26241   0.171   3.664   6.221 -0.5491 -0.3938  0.4294
  957MOL0     N26242   1.007   3.663   6.179  0.0953  0.8388  0.1758
  957MOL0     N26243   1.059   3.713   6.069 -0.7192 -0.0148  0.0246
  957MOL0     C26244   2.165   3.601   5.844  0.3815 -0.5279  0.4552
  957MOL0     C26245   2.292   3.550   5.855 -0.9172  1.0677 -0.1997
  957MOL0     C26246   2.669   3.373   5.684  0.0838 -0.0443 -0.2698
  957MOL0     C26247   2.739   3.300   5.792 -0.0801 -0.2562 -0.2806
  957MOL0     C26248   2.866   3.250   5.770 -0.5054  0.3332 -1.6210
  957MOL0     C26249   2.942   3.275   5.654 -0.2369  0.7496 -0.7975
  957MOL0     O26250   3.064   3.225   5.627  1.0999 -0.0318  1.1728
  957MOL0     C26251   3.139   3.137   5.718  0.5018 -0.1278  0.0165
  957MOL0     C26252   3.278   3.109   5.693 -0.4835  1.5523  0.2721
  957MOL0     C26253   3.315   3.034   5.560  0.5437  0.8367 -0.0974
  957MOL0     C26254   3.460   2.987   5.544  0.0439  0.3957  0.4914
  957MOL0     C26255   3.460   2.888   5.435  1.1198  0.1588  0.3722
  957MOL0     C26256   3.472   2.799   5.348 -0.2660  0.5435 -1.2334
  957MOL0     C26257   2.875   3.340   5.546  0.2328 -0.0808 -0.2918
  957MOL0     C26258   2.741   3.386   5.565 -0.2783 -0.5664  0.6509
  957MOL0     H26259   2.269   3.290   5.640  1.4055 -0.1574  1.3511
  957MOL0     H26260   2.034   3.395   5.608  0.9680  1.2066 -0.8111
  957MOL0     H26261   1.824   3.443   5.727  0.4456 -0.0766  0.4984
  957MOL0     H26262   1.866   3.537   5.578 -0.8257  2.5523 -1.7984
  957MOL0     H26263   1.744   3.739   5.685 -1.0598  0.5699 -0.6589
  957MOL0     H26264   1.697   3.622   5.817 -0.7132  0.9109 -0.1049
  957MOL0     H26265   1.596   3.491   5.618  1.2041  1.0991 -1.7599
  957MOL0     H26266   1.603   3.641   5.528 -1.3906 -0.4711 -0.4762
  957MOL0     H26267   1.480   3.616   5.817 -1.5869  0.5104  1.3413
  957MOL0     H26268   1.460   3.749   5.700 -0.9212  0.2866  0.1054
  957MOL0     H26269   1.343   3.462   5.680 -0.4166  0.4424  1.7802
  957MOL0     H26270   1.372   3.582   5.542 -1.1611  0.8418  0.5120
  957MOL0     H26271   1.149   3.612   5.582 -0.2607  1.5223  0.6499
  957MOL0     H26272   1.222   3.748   5.657 -0.0238  0.7352  2.8247
  957MOL0     H26273   1.149   3.507   5.837  2.6004 -0.4095  0.0476
  957MOL0     H26274   1.223   3.653   5.883 -1.8553  2.5952  0.9727
  957MOL0     H26275   0.938   3.647   5.770 -1.2734 -0.4274  0.6027
  957MOL0     H26276   1.043   3.782   5.817  0.5260 -0.1956  0.3971
  957MOL0     H26277   0.846   3.495   5.961  0.4493 -1.8773  0.6928
  957MOL0     H26278   0.902   3.420   6.295 -0.2394  0.4213  1.6548
  957MOL0     H26279   0.757   3.435   6.190  0.3119  1.7777 -0.3313
  957MOL0     H26280   0.824   3.632   6.404  0.2505 -1.1805  0.3141
  957MOL0     H26281   0.715   3.499   6.440 -3.8671 -1.4370 -2.3472
  957MOL0     H26282   0.590   3.708   6.375 -1.3951 -0.9023  0.7875
  957MOL0     H26283   0.659   3.699   6.211  0.5333 -0.3105 -0.3823
  957MOL0     H26284   0.483   3.482   6.334  2.0619  0.3539 -0.1456
  957MOL0     H26285   0.540   3.469   6.172 -1.8471 -2.1426  0.1640
  957MOL0     H26286   0.333   3.379   6.148  1.0786  1.1125  0.8876
  957MOL0     H26287   0.110   3.288   6.171  0.4259 -0.0411 -3.7339
  957MOL0     H26288  -0.171   3.056   6.225  1.1881  0.5903 -0.5895
  957MOL0     H26289  -0.395   2.924   6.213 -0.5406  0.4910 -1.0160
  957MOL0     H26290  -0.614   2.890   6.338  1.0169 -0.6620 -0.7884
  957MOL0     H26291  -0.585   2.834   6.182  2.0946  0.1052  2.4646
  957MOL0     H26292  -0.815   2.750   6.274 -0.2292 -0.7784 -0.3300
  957MOL0     H26293  -0.804   2.830   6.112  1.2705  1.8055 -0.2134
  957MOL0     H26294  -0.881   3.034   6.223  2.8774 -0.6363  0.3266
  957MOL0     H26295  -0.871   2.946   6.381 -2.0255 -0.3088  0.3742
  957MOL0     H26296  -1.062   2.807   6.330  0.2810  1.7021  3.1892
  957MOL0     H26297  -1.102   2.971   6.325 -1.4670 -1.3080  1.0744
  957MOL0     H26298  -1.219   2.869   6.128 -0.0806  2.3374 -0.3362
  957MOL0     H26299  -1.084   2.774   6.089 -1.9502  0.3934 -1.7082
  957MOL0     H26300  -1.123   2.953   5.927  1.2805  0.6309 -0.9546
  957MOL0     H26301  -0.972   2.994   6.007  0.2164 -0.8021 -0.7580
  957MOL0     H26302  -1.244   3.127   6.056 -0.4347  1.3638 -1.9420
  957MOL0     H26303  -1.118   3.151   6.170 -2.6852 -0.7484 -0.2224
  957MOL0     H26304  -1.153   3.298   5.943  1.4054  1.3561 -1.9836
  957MOL0     H26305  -1.041   3.181   5.882 -0.5576 -2.4402  1.2531
  957MOL0     H26306  -0.603   3.295   6.223 -0.9487 -0.6677  2.0814
  957MOL0     H26307  -0.414   3.417   6.241  1.1178  0.1822  0.4649
  957MOL0     H26308  -0.021   3.702   6.264  1.1509  1.1714  1.3819
  957MOL0     H26309   0.192   3.768   6.241  0.9049 -0.9323  1.9656
  957MOL0     H26310   2.146   3.690   5.902 -0.4901 -0.9678  0.8630
  957MOL0     H26311   2.367   3.590   5.922 -0.7334  2.6324 -1.2703
  957MOL0     H26312   2.699   3.300   5.893  0.4340  1.7219 -0.0265
  957MOL0     H26313   2.919   3.189   5.842 -2.0808  2.0554  1.1994
  957MOL0     H26314   3.093   3.038   5.719  4.0678 -2.0508 -2.3187
  957MOL0     H26315   3.140   3.188   5.815 -1.4686  1.8280 -0.9208
  957MOL0     H26316   3.336   3.201   5.689 -0.6329  1.6142 -0.5669
  957MOL0     H26317   3.314   3.051   5.779 -2.4279  0.0879  0.1836
  957MOL0     H26318   3.294   3.102   5.477 -2.9486  0.7789  0.6051
  957MOL0     H26319   3.251   2.945   5.566 -2.0884  2.7151  2.1521
  957MOL0     H26320   3.524   3.069   5.511  1.9571 -0.5033  1.7860
  957MOL0     H26321   3.490   2.940   5.639  0.6198 -0.5368 -0.1332
  957MOL0     H26322   3.482   2.736   5.262 -0.4109  0.4574 -1.1886
  957MOL0     H26323   2.936   3.343   5.457  0.0885 -2.7092 -0.5782
  957MOL0     H26324   2.695   3.431   5.478 -0.3321 -1.1863  0.3539
  958MOL0     O26325   7.337   4.793   5.665 -0.1399  0.5073 -0.9384
  958MOL0     C26326   7.393   4.771   5.565  0.2113  0.2788  0.1491
  958MOL0     O26327   7.342   4.823   5.435 -0.2072 -0.8195 -0.9092
  958MOL0     C26328   7.222   4.881   5.422  0.7258 -0.1809  0.4868
  958MOL0     C26329   7.102   4.840   5.490 -1.0335 -0.3573 -0.1606
  958MOL0     C26330   6.978   4.876   5.434  0.5737  0.0927 -0.4974
  958MOL0     C26331   6.975   4.957   5.323  0.7706 -0.2961  0.3324
  958MOL0     O26332   6.845   4.974   5.281 -0.0218  0.8085 -0.7039
  958MOL0     C26333   6.834   5.000   5.142 -0.3151 -0.4782 -0.3474
  958MOL0     C26334   6.694   4.978   5.091 -0.1248  0.5491 -0.0212
  958MOL0     C26335   6.646   4.834   5.088  0.4651 -0.3921 -0.0215
  958MOL0     C26336   6.492   4.841   5.055 -0.1151 -0.0902  0.3200
  958MOL0     C26337   6.461   4.901   4.912 -0.4108  0.2462 -0.6513
  958MOL0     C26338   6.543   4.831   4.800 -0.3120 -0.7072  0.0159
  958MOL0     C26339   6.500   4.691   4.773 -0.7929 -0.7860  0.7462
  958MOL0     C26340   6.384   4.688   4.672 -0.0056  1.0562  0.6821
  958MOL0     N26341   6.378   4.559   4.604  0.5865 -0.1294 -0.1154
  958MOL0     C26342   6.336   4.436   4.661 -0.0115 -0.3654 -0.5507
  958MOL0     C26343   6.333   4.347   4.559 -0.1831 -0.1253 -0.3874
  958MOL0     C26344   6.291   4.200   4.553  0.4026 -0.0316  0.2073
  958MOL0     C26345   6.141   4.180   4.518 -0.8095 -0.1208  0.0959
  958MOL0     C26346   6.111   4.185   4.365  0.6928  0.3364 -0.5035
  958MOL0     C26347   5.959   4.189   4.336 -0.2933 -0.2769 -0.2821
  958MOL0     O26348   5.884   4.097   4.423 -0.9995 -0.2164 -0.4753
  958MOL0     C26349   5.756   4.081   4.405  0.5289 -0.1521  0.3220
  958MOL0     C26350   5.693   4.009   4.507 -0.2641  0.1689 -0.2648
  958MOL0     C26351   5.562   3.975   4.493  1.0122  0.1050  0.3168
  958MOL0     C26352   5.486   3.995   4.374 -0.1766  0.2498 -0.8221
  958MOL0     C26353   5.351   3.944   4.362  0.2226  0.0629  0.3861
  958MOL0     O26354   5.282   3.992   4.254 -0.7310 -0.0659  0.1960
  958MOL0     C26355   5.150   3.966   4.248 -0.1148 -0.4707 -0.0407
  958MOL0     C26356   5.108   3.846   4.185 -0.1858  0.7050  0.3063
  958MOL0     C26357   4.975   3.816   4.173  0.4781 -0.2927  0.2983
  958MOL0     C26358   4.871   3.903   4.221 -1.2461 -0.0945 -0.5343
  958MOL0     O26359   4.741   3.858   4.205 -0.5240  0.3630 -0.5785
  958MOL0     C26360   4.638   3.957   4.190 -0.2208 -0.5793  0.5979
  958MOL0     C26361   4.516   3.867   4.164  0.2476 -0.2834  0.3313
  958MOL0     C26362   4.383   3.936   4.129 -0.2807  0.5597 -0.0424
  958MOL0     C26363   4.265   3.840   4.141  0.4246 -0.2488  0.4678
  958MOL0     C26364   4.125   3.900   4.101  0.0315  0.1649 -0.3355
  958MOL0     C26365   4.083   4.018   4.192  0.1540  0.3909  0.3366
  958MOL0     C26366   3.930   4.040   4.167 -0.2709 -0.0756  0.5912
  958MOL0     C26367   3.874   4.168   4.231 -1.2873  0.3403 -0.0075
  958MOL0    Cl26368   3.697   4.166   4.213  0.2820 -0.4272  0.2053
  958MOL0     C26369   4.914   4.027   4.281  0.2703  0.0884 -0.2841
  958MOL0     C26370   5.053   4.057   4.287  0.3932  0.0860  0.3909
  958MOL0     O26371   5.312   3.858   4.435 -0.0008  0.2193 -0.4550
  958MOL0     C26372   5.545   4.078   4.273  0.4888  0.4027  0.3503
  958MOL0     C26373   5.675   4.122   4.293  0.1033 -0.0159 -0.7373
  958MOL0     N26374   6.382   4.414   4.450  0.2220 -0.6215  0.6859
  958MOL0     N26375   6.397   4.540   4.475  0.5691  0.8691  0.3221
  958MOL0     C26376   7.087   5.009   5.263 -0.0160  0.6563 -0.2159
  958MOL0     C26377   7.209   4.968   5.313 -0.7007 -0.8555 -0.3841
  958MOL0     C26378   7.511   4.685   5.567 -0.3057 -0.1454 -0.0882
  958MOL0     C26379   7.567   4.650   5.691 -0.2471  0.0858  0.1955
  958MOL0     C26380   7.699   4.580   5.695  0.2163 -0.5617 -0.1491
  958MOL0     C26381   7.759   4.552   5.574  0.6792  1.3457  0.6813
  958MOL0     O26382   7.867   4.473   5.582 -0.0089 -0.2071 -0.1709
  958MOL0     C26383   7.981   4.534   5.650  0.7506 -1.0368 -0.0571
  958MOL0     C26384   8.101   4.522   5.551 -0.3135  0.4712  0.0868
  958MOL0     C26385   8.148   4.367   5.562 -0.6820 -0.3451 -0.2365
  958MOL0     C26386   8.247   4.338   5.446 -0.2780 -1.0356  0.1472
  958MOL0     C26387   8.321   4.219   5.479 -0.4923 -0.0330  0.4555
  958MOL0     C26388   8.385   4.124   5.515 -0.0422  0.4282 -0.5134
  958MOL0     C26389   7.711   4.583   5.452 -0.1431 -0.4360 -0.4588
  958MOL0     C26390   7.584   4.658   5.448  0.2599  0.7812 -0.2409
  958MOL0     H26391   7.092   4.784   5.582 -0.5737 -1.8405 -0.9756
  958MOL0     H26392   6.883   4.847   5.477  2.0816 -1.1903  2.1967
  958MOL0     H26393   6.907   4.935   5.094  0.2638  0.9008 -1.4219
  958MOL0     H26394   6.881   5.096   5.117 -1.6932 -0.0974 -1.5960
  958MOL0     H26395   6.693   5.024   4.991  1.9021  1.2108  0.2211
  958MOL0     H26396   6.629   5.030   5.162 -0.2389  2.5394 -1.4787
  958MOL0     H26397   6.661   4.801   5.191 -0.2834 -1.5108 -0.2508
  958MOL0     H26398   6.700   4.766   5.022  0.4032 -0.3770 -0.0869
  958MOL0     H26399   6.460   4.737   5.055 -1.1489  0.2019 -0.6984
  958MOL0     H26400   6.439   4.898   5.131 -1.3563  0.5608 -0.9754
  958MOL0     H26401   6.490   5.006   4.912 -0.5060  0.2719 -0.0386
  958MOL0     H26402   6.354   4.904   4.886 -0.4064 -0.3646 -0.7612
  958MOL0     H26403   6.649   4.834   4.825 -0.0352 -1.9976 -0.9261
  958MOL0     H26404   6.523   4.892   4.712  1.1025  0.1927  0.2969
  958MOL0     H26405   6.583   4.641   4.721  0.4935  0.9097  1.0910
  958MOL0     H26406   6.480   4.630   4.862 -2.4942 -0.9881  0.2506
  958MOL0     H26407   6.398   4.769   4.600 -2.6703  0.4931 -0.6149
  958MOL0     H26408   6.288   4.705   4.721 -1.4670 -1.7672 -0.9214
  958MOL0     H26409   6.297   4.424   4.762 -0.5278  0.2809 -0.6681
  958MOL0     H26410   6.305   4.162   4.655  0.0773  1.2505  0.7605
  958MOL0     H26411   6.352   4.139   4.486  2.1402  0.5619  1.1569
  958MOL0     H26412   6.088   4.266   4.560 -1.4764 -1.4723  2.1539
  958MOL0     H26413   6.109   4.086   4.564 -1.9574  1.1072  1.9116
  958MOL0     H26414   6.157   4.278   4.330  0.2922  1.0622  0.8423
  958MOL0     H26415   6.164   4.097   4.329  0.8650  0.0342  0.4687
  958MOL0     H26416   5.951   4.168   4.229  1.3110  1.1138 -0.7148
  958MOL0     H26417   5.928   4.290   4.362 -0.7217 -0.6248  0.6005
  958MOL0     H26418   5.747   3.972   4.593 -2.0560 -1.5410  0.2154
  958MOL0     H26419   5.517   3.917   4.573 -2.4914  0.2627 -1.3609
  958MOL0     H26420   5.178   3.776   4.141 -1.3349  0.4562 -1.2005
  958MOL0     H26421   4.941   3.724   4.126 -1.7804 -0.3327  1.8408
  958MOL0     H26422   4.662   4.026   4.109  0.3225 -0.9937  0.4058
  958MOL0     H26423   4.627   4.018   4.281  1.1788  0.9076 -0.1672
  958MOL0     H26424   4.511   3.804   4.253  0.1076  0.6430  0.9815
  958MOL0     H26425   4.540   3.801   4.080  0.4964  0.0316  0.1523
  958MOL0     H26426   4.382   3.991   4.035 -1.6325 -1.9338 -1.5789
  958MOL0     H26427   4.370   4.004   4.214  3.6723  1.7267 -0.1890
  958MOL0     H26428   4.279   3.754   4.075 -3.3002  0.5870 -1.7382
  958MOL0     H26429   4.263   3.815   4.247 -2.2094  2.5303  1.2242
  958MOL0     H26430   4.054   3.817   4.111 -1.7713  1.4662 -1.6866
  958MOL0     H26431   4.130   3.920   3.993 -1.7576 -0.0493 -0.5000
  958MOL0     H26432   4.135   4.102   4.147 -1.2745  0.9368 -0.3488
  958MOL0     H26433   4.112   4.007   4.297 -0.9722  1.2727  0.7479
  958MOL0     H26434   3.915   4.051   4.059  2.9117  1.4420  0.1917
  958MOL0     H26435   3.884   3.952   4.213  0.2800 -0.3531  0.6170
  958MOL0     H26436   3.916   4.264   4.200 -0.7789  0.4843  1.0578
  958MOL0     H26437   3.892   4.159   4.339  1.6697  0.9458 -0.3637
  958MOL0     H26438   4.847   4.094   4.334  1.7329  0.0810  1.7396
  958MOL0     H26439   5.088   4.144   4.341  1.9197  0.3161 -0.8787
  958MOL0     H26440   5.503   4.094   4.175  0.1499 -0.6857  0.3002
  958MOL0     H26441   5.729   4.171   4.213  0.6716 -2.2592 -1.7994
  958MOL0     H26442   7.091   5.073   5.175 -2.3977  0.7458 -0.3444
  958MOL0     H26443   7.295   5.005   5.259 -0.5300 -0.9078 -0.1496
  958MOL0     H26444   7.527   4.688   5.784 -0.5456  0.8311 -0.2276
  958MOL0     H26445   7.747   4.549   5.788 -0.4551 -0.2050  0.3313
  958MOL0     H26446   8.010   4.488   5.745  2.1904  1.9945  1.0923
  958MOL0     H26447   7.970   4.639   5.677  3.6173  0.0870 -2.6225
  958MOL0     H26448   8.064   4.557   5.454 -2.3656  1.1037  1.0447
  958MOL0     H26449   8.182   4.587   5.585 -0.5632  0.8584 -0.0424
  958MOL0     H26450   8.066   4.296   5.548 -0.9163  0.0412 -0.8738
  958MOL0     H26451   8.192   4.355   5.661  0.4252  2.2171 -0.3352
  958MOL0     H26452   8.188   4.337   5.354 -0.9265  2.5788  0.3818
  958MOL0     H26453   8.318   4.421   5.437  1.1580 -2.0515  1.6059
  958MOL0     H26454   8.425   4.030   5.549 -1.5841 -0.8993 -2.1710
  958MOL0     H26455   7.757   4.555   5.358 -0.8269  0.3383 -1.0420
  958MOL0     H26456   7.553   4.699   5.353 -3.8041  0.2360  0.6673
  959MOL0     O26457   5.520   6.265   4.812  0.3899 -0.4728 -0.3362
  959MOL0     C26458   5.514   6.328   4.918  1.6418  0.5610  0.4460
  959MOL0     O26459   5.573   6.446   4.954  0.6425 -0.2196  0.3396
  959MOL0     C26460   5.691   6.498   4.900  0.3942  0.1191  0.0542
  959MOL0     C26461   5.789   6.416   4.852  0.2864  0.3050  0.7108
  959MOL0     C26462   5.902   6.469   4.797  0.3749 -0.3154  0.1550
  959MOL0     C26463   5.929   6.607   4.804 -0.2897 -0.4100  1.3246
  959MOL0     O26464   6.043   6.676   4.762 -0.3379  0.2572 -0.3702
  959MOL0     C26465   6.087   6.637   4.628  0.5749 -0.4401 -0.3001
  959MOL0     C26466   6.219   6.694   4.596 -0.2184 -0.1702 -0.5470
  959MOL0     C26467   6.216   6.843   4.615  1.0453 -0.2659  0.0606
  959MOL0     C26468   6.345   6.910   4.574  0.2137 -0.0201 -0.3238
  959MOL0     C26469   6.333   7.051   4.512 -0.0832 -0.1248  0.4445
  959MOL0     C26470   6.473   7.095   4.466 -0.2174  0.1028  0.7690
  959MOL0     C26471   6.476   7.229   4.389  0.2654  0.1450  0.2898
  959MOL0     C26472   6.602   7.245   4.303  0.5309 -0.0735  0.5767
  959MOL0     N26473   6.607   7.384   4.245  0.0673  0.5280  0.5903
  959MOL0     C26474   6.654   7.490   4.313 -0.2367  0.4553 -0.1318
  959MOL0     C26475   6.629   7.600   4.238 -1.1134  0.0630 -1.0357
  959MOL0     C26476   6.666   7.741   4.277 -0.1456  0.1755 -0.5543
  959MOL0     C26477   6.573   7.845   4.220 -0.2085 -0.6837 -0.9316
  959MOL0     C26478   6.580   7.968   4.308 -0.1663 -0.5660 -0.5713
  959MOL0     C26479   6.723   8.026   4.319 -0.9600  0.6953  0.1444
  959MOL0     O26480   6.716   8.145   4.396  0.0971  0.6397  0.0878
  959MOL0     C26481   6.833   8.207   4.435 -0.0070 -0.1592 -0.3223
  959MOL0     C26482   6.823   8.309   4.531 -0.6906 -0.2761  0.2572
  959MOL0     C26483   6.936   8.385   4.574  0.5654 -0.1686  0.5733
  959MOL0     C26484   7.063   8.355   4.528  0.2398  0.5037  0.2836
  959MOL0     C26485   7.179   8.432   4.559 -0.4497  0.1422  0.5504
  959MOL0     O26486   7.285   8.429   4.476  0.0204 -0.6920 -0.0497
  959MOL0     C26487   7.395   8.511   4.499  0.3525 -0.3236  0.2076
  959MOL0     C26488   7.474   8.481   4.605 -0.5312  0.4646 -0.3852
  959MOL0     C26489   7.592   8.555   4.633  0.9774  0.6528  1.0994
  959MOL0     C26490   7.629   8.651   4.534 -0.5961 -0.0474  0.2933
  959MOL0     O26491   7.744   8.721   4.568  0.4202  0.4341 -0.5392
  959MOL0     C26492   7.800   8.803   4.465  0.4221 -0.1364 -0.0655
  959MOL0     C26493   7.905   8.899   4.514 -0.2523 -0.3624 -0.0761
  959MOL0     C26494   8.020   8.815   4.572  0.1514 -0.7035  0.6530
  959MOL0     C26495   8.103   8.914   4.655 -0.7815 -0.1735  0.0279
  959MOL0     C26496   8.190   8.848   4.762 -0.5186  0.0008 -0.0714
  959MOL0     C26497   8.301   8.950   4.790 -0.2124 -0.0062  0.0105
  959MOL0     C26498   8.358   8.947   4.934  0.2428  0.5383 -0.2025
  959MOL0     C26499   8.470   9.050   4.954 -0.0551 -0.3752  0.3117
  959MOL0    Cl26500   8.598   9.036   4.836 -0.2866  0.2591 -0.1165
  959MOL0     C26501   7.549   8.673   4.420  0.2636 -0.5499 -0.0039
  959MOL0     C26502   7.429   8.606   4.400 -0.3961 -0.0469 -0.2979
  959MOL0     O26503   7.167   8.510   4.652  0.1343  0.2242  0.8370
  959MOL0     C26504   7.074   8.249   4.436 -1.0728  1.0471 -0.1414
  959MOL0     C26505   6.966   8.172   4.392 -0.1380  0.3104 -0.4829
  959MOL0     N26506   6.571   7.558   4.118 -0.0333  0.6715  0.0694
  959MOL0     N26507   6.545   7.433   4.130 -0.4172 -0.6275  0.0022
  959MOL0     C26508   5.829   6.692   4.860 -0.5390  0.0515 -0.3643
  959MOL0     C26509   5.714   6.633   4.916  0.4667  0.3804 -0.4229
  959MOL0     C26510   5.420   6.269   5.016  0.8538  0.1936 -0.3471
  959MOL0     C26511   5.392   6.343   5.131 -0.4531 -0.3599 -0.1698
  959MOL0     C26512   5.296   6.300   5.219 -0.1276 -0.1361  0.1204
  959MOL0     C26513   5.211   6.197   5.197  0.6108 -0.3084 -0.0051
  959MOL0     O26514   5.112   6.169   5.294 -0.2842  0.4002 -0.2932
  959MOL0     C26515   5.014   6.068   5.267  0.1673 -0.5154 -0.2708
  959MOL0     C26516   4.900   6.083   5.363 -0.8968 -0.1498  0.3805
  959MOL0     C26517   4.764   6.042   5.302 -0.3825  0.3421  0.3276
  959MOL0     C26518   4.649   6.050   5.403  0.1666  0.1783  0.4136
  959MOL0     C26519   4.581   6.176   5.400  0.9953  0.1753  0.7125
  959MOL0     C26520   4.518   6.282   5.387  0.1971  0.0709  0.6977
  959MOL0     C26521   5.246   6.115   5.081 -0.1765  0.5452  0.1306
  959MOL0     C26522   5.342   6.155   4.992 -0.1862  0.5423  0.0493
  959MOL0     H26523   5.769   6.310   4.859  0.4281  0.3836  2.9343
  959MOL0     H26524   5.984   6.408   4.760 -0.8139 -0.8719 -1.6610
  959MOL0     H26525   6.009   6.666   4.558  0.3143 -2.0088 -0.7083
  959MOL0     H26526   6.090   6.528   4.615 -1.2895 -0.2838 -2.5402
  959MOL0     H26527   6.250   6.661   4.496 -0.2392  0.2992 -0.7120
  959MOL0     H26528   6.293   6.643   4.658 -0.5136 -2.3816 -1.9192
  959MOL0     H26529   6.194   6.868   4.720  1.6806 -0.1064  0.1612
  959MOL0     H26530   6.138   6.900   4.564  0.5712 -1.7431 -0.9014
  959MOL0     H26531   6.410   6.910   4.663  2.8620  0.5867 -2.1277
  959MOL0     H26532   6.399   6.854   4.497  3.4893 -0.2280  1.8913
  959MOL0     H26533   6.297   7.125   4.584  0.0060  0.8599 -0.5094
  959MOL0     H26534   6.258   7.059   4.433 -1.1157  0.2910  1.4359
  959MOL0     H26535   6.514   7.026   4.391 -0.6178  1.0566 -0.3633
  959MOL0     H26536   6.544   7.090   4.550  2.0866 -3.9202 -1.1035
  959MOL0     H26537   6.393   7.253   4.322  1.2170  0.5512 -0.7688
  959MOL0     H26538   6.471   7.310   4.462 -1.1457 -0.2598  0.6808
  959MOL0     H26539   6.594   7.171   4.223 -7.5700 -0.4090  0.8667
  959MOL0     H26540   6.690   7.224   4.365  0.3720  0.5159  1.0110
  959MOL0     H26541   6.704   7.484   4.409  0.4615  0.4521 -0.4829
  959MOL0     H26542   6.771   7.762   4.251  0.2639  2.4195  2.3513
  959MOL0     H26543   6.660   7.751   4.386 -0.2976 -2.6280 -0.2532
  959MOL0     H26544   6.470   7.811   4.219 -1.0887  1.4314  1.9003
  959MOL0     H26545   6.607   7.872   4.120  0.2977 -2.0028 -1.1325
  959MOL0     H26546   6.511   8.044   4.269 -0.4964  0.1186  1.2473
  959MOL0     H26547   6.549   7.947   4.411  1.0668 -0.1154 -0.0863
  959MOL0     H26548   6.764   8.048   4.220  3.8218  1.4331  2.0381
  959MOL0     H26549   6.789   7.953   4.366  0.3844  1.8756  0.1511
  959MOL0     H26550   6.725   8.333   4.573 -0.3923  0.6041  0.4871
  959MOL0     H26551   6.932   8.450   4.660 -1.4343  0.2103  0.2450
  959MOL0     H26552   7.447   8.398   4.670  0.2305  0.2088 -0.3972
  959MOL0     H26553   7.664   8.551   4.714  2.5051 -0.1692 -0.2459
  959MOL0     H26554   7.722   8.869   4.425 -0.2180 -1.8666 -1.8609
  959MOL0     H26555   7.844   8.745   4.383 -1.3238  2.6858 -3.2594
  959MOL0     H26556   7.865   8.959   4.596  0.7922  1.2752 -0.7106
  959MOL0     H26557   7.947   8.960   4.433 -0.5079 -0.7559 -0.5065
  959MOL0     H26558   8.075   8.772   4.488 -5.5406 -0.4618 -3.7775
  959MOL0     H26559   7.985   8.752   4.654 -1.1539 -0.8762 -0.0239
  959MOL0     H26560   8.158   8.984   4.592  2.1052 -1.7451  0.6061
  959MOL0     H26561   8.042   8.976   4.721  2.1600  1.7595  1.1512
  959MOL0     H26562   8.231   8.749   4.740 -0.3956 -0.2302  1.0999
  959MOL0     H26563   8.130   8.846   4.853 -1.6739  1.0483 -0.7838
  959MOL0     H26564   8.267   9.052   4.765 -0.1906 -0.3408 -1.5018
  959MOL0     H26565   8.383   8.934   4.719  0.1117  1.7753 -0.0688
  959MOL0     H26566   8.274   8.969   5.001  0.2029  2.4135 -0.8071
  959MOL0     H26567   8.407   8.854   4.963  3.1830  1.0280 -3.1418
  959MOL0     H26568   8.520   9.031   5.049 -0.6414  3.7069  1.6539
  959MOL0     H26569   8.427   9.151   4.961 -0.6658 -0.5788 -0.4012
  959MOL0     H26570   7.583   8.748   4.349 -2.9021 -0.1478 -1.2715
  959MOL0     H26571   7.364   8.607   4.313  0.1378 -0.6738 -0.7208
  959MOL0     H26572   7.174   8.228   4.399 -1.1472  1.5002 -0.6032
  959MOL0     H26573   6.973   8.099   4.312  0.7188  1.0849 -1.1399
  959MOL0     H26574   5.845   6.799   4.869  1.3829 -0.2315  0.2098
  959MOL0     H26575   5.639   6.695   4.965 -1.8984 -0.1895 -3.0943
  959MOL0     H26576   5.458   6.423   5.164 -0.3094 -1.1242  1.4694
  959MOL0     H26577   5.291   6.350   5.316 -0.5894 -0.9011  0.5009
  959MOL0     H26578   5.051   5.965   5.277  1.0338 -0.4796 -2.4243
  959MOL0     H26579   4.972   6.083   5.167  0.2741 -0.3602 -0.2924
  959MOL0     H26580   4.923   6.026   5.454 -1.4159  3.2123  2.8208
  959MOL0     H26581   4.906   6.189   5.391  1.4199  0.0617 -0.7164
  959MOL0     H26582   4.767   5.937   5.274 -1.2066  0.8897 -2.0350
  959MOL0     H26583   4.740   6.102   5.214 -1.5362  0.5482  0.7590
  959MOL0     H26584   4.585   5.964   5.384  1.3450 -0.5633 -0.3758
  959MOL0     H26585   4.692   6.033   5.502 -2.2026 -1.8587  1.1965
  959MOL0     H26586   4.459   6.372   5.389 -1.0064 -0.6880  3.6561
  959MOL0     H26587   5.192   6.022   5.066  0.9046  0.1167 -1.2595
  959MOL0     H26588   5.361   6.088   4.909 -2.0536 -0.6895  0.5686
  960MOL0     O26589  10.999   8.047   1.784  0.0504 -0.3305 -0.2704
  960MOL0     C26590  11.044   8.070   1.675 -0.0126 -0.1324 -0.2579
  960MOL0     O26591  10.978   8.048   1.554  0.0529  0.0016 -0.2911
  960MOL0     C26592  10.858   7.991   1.570  0.5176 -0.1361  1.1911
  960MOL0     C26593  10.745   8.072   1.542 -1.3163  0.4767 -0.0054
  960MOL0     C26594  10.622   8.019   1.539 -0.0104  0.6382 -0.2245
  960MOL0     C26595  10.600   7.884   1.558 -0.5753  0.0220 -0.7948
  960MOL0     O26596  10.484   7.824   1.525  0.1061  0.7156 -0.3745
  960MOL0     C26597  10.464   7.804   1.387  0.7034  0.2725 -0.3922
  960MOL0     C26598  10.314   7.761   1.382  0.0180 -0.1483  0.5258
  960MOL0     C26599  10.245   7.788   1.247 -0.0335 -0.6625 -0.6482
  960MOL0     C26600  10.097   7.763   1.273  0.3679 -0.8140  0.5071
  960MOL0     C26601  10.039   7.714   1.135 -0.2247  0.9783 -0.1069
  960MOL0     C26602   9.886   7.706   1.140  0.0833 -0.9200  0.7580
  960MOL0     C26603   9.830   7.651   1.014  0.1893  0.2902  0.2767
  960MOL0     C26604   9.707   7.562   1.042 -1.1125  0.3299  0.4431
  960MOL0     N26605   9.595   7.657   1.057 -0.1142  0.4579  0.1914
  960MOL0     C26606   9.505   7.687   0.960  0.8702  0.2633 -0.2915
  960MOL0     C26607   9.419   7.776   1.017  0.1572 -0.1058  0.1322
  960MOL0     C26608   9.299   7.839   0.947 -0.8225 -0.4588 -0.1466
  960MOL0     C26609   9.174   7.808   1.022  1.3129  0.3363  0.6863
  960MOL0     C26610   9.048   7.878   0.952 -0.0254  0.1946 -0.7849
  960MOL0     C26611   8.929   7.848   1.040 -0.6909  0.3287  0.7516
  960MOL0     O26612   8.817   7.904   0.964  0.6124  0.3704 -0.0380
  960MOL0     C26613   8.693   7.864   0.997 -0.8564  0.2561  0.3744
  960MOL0     C26614   8.600   7.907   0.910 -0.3298  0.2505  0.7999
  960MOL0     C26615   8.469   7.863   0.912 -0.3233  0.4414 -0.1449
  960MOL0     C26616   8.424   7.770   1.009  0.2140 -0.7565  0.1079
  960MOL0     C26617   8.282   7.726   1.016  0.5039  1.3318 -0.0411
  960MOL0     O26618   8.198   7.773   0.926  0.0072 -0.5464 -0.3679
  960MOL0     C26619   8.067   7.738   0.919 -0.1399  0.0344  0.4164
  960MOL0     C26620   8.029   7.622   0.851  0.1562 -0.0391 -0.0967
  960MOL0     C26621   7.889   7.586   0.850 -0.2657  0.1185 -0.6504
  960MOL0     C26622   7.793   7.663   0.917 -0.9149 -0.7950 -0.4748
  960MOL0     O26623   7.660   7.642   0.923 -0.3794  0.1532  0.6494
  960MOL0     C26624   7.605   7.518   0.869 -0.3779 -0.0867 -0.3533
  960MOL0     C26625   7.454   7.513   0.893 -0.1450  0.6826  0.2176
  960MOL0     C26626   7.394   7.377   0.888  0.6018  0.6078  0.5528
  960MOL0     C26627   7.237   7.381   0.927  0.3309  0.9457  0.3052
  960MOL0     C26628   7.162   7.425   0.804 -0.4659 -0.3250  0.4886
  960MOL0     C26629   7.010   7.414   0.829 -0.1476  0.9230  0.2080
  960MOL0     C26630   6.934   7.473   0.711 -0.1119 -1.0247  0.6335
  960MOL0     C26631   6.910   7.377   0.602 -0.1385 -1.0085 -0.2115
  960MOL0    Cl26632   6.843   7.456   0.462  0.2408  0.2765 -0.4562
  960MOL0     C26633   7.842   7.773   0.989 -0.2291  0.7759 -0.3208
  960MOL0     C26634   7.978   7.805   0.993 -0.0696  0.5198 -0.6836
  960MOL0     O26635   8.257   7.640   1.093 -0.4915  0.5354  0.0080
  960MOL0     C26636   8.519   7.720   1.100 -0.8542  0.6840  0.0088
  960MOL0     C26637   8.646   7.775   1.100 -0.0404  0.1144 -0.2602
  960MOL0     N26638   9.435   7.780   1.154 -0.7909  0.2418 -0.2118
  960MOL0     N26639   9.547   7.718   1.175 -0.0252 -0.3242  0.6323
  960MOL0     C26640  10.712   7.804   1.599 -0.5661  0.3290  0.3572
  960MOL0     C26641  10.838   7.860   1.605 -0.0427  0.0643 -0.5964
  960MOL0     C26642  11.184   8.122   1.684  0.2786 -0.4084  0.0230
  960MOL0     C26643  11.233   8.173   1.809  0.7158  0.2302 -0.1453
  960MOL0     C26644  11.361   8.224   1.814  1.2375 -0.5695  0.5437
  960MOL0     C26645  11.438   8.233   1.699  0.4274  0.4485 -0.2987
  960MOL0     O26646  11.567   8.266   1.728 -0.6213  0.1368  0.7709
  960MOL0     C26647  11.664   8.267   1.620 -0.1860  0.6076  0.1588
  960MOL0     C26648  11.806   8.289   1.666 -0.5137 -0.1009  0.0153
  960MOL0     C26649  11.818   8.431   1.725 -0.3352  0.1514  0.2633
  960MOL0     C26650  11.962   8.479   1.767  0.5669  0.0298  0.3770
  960MOL0     C26651  12.063   8.430   1.667  0.2386 -0.7856 -0.2187
  960MOL0     C26652  12.141   8.373   1.593 -0.1107 -0.0675  0.1490
  960MOL0     C26653  11.398   8.187   1.575 -0.2234 -0.6517  0.4399
  960MOL0     C26654  11.270   8.132   1.570 -0.3582 -0.7535  0.0305
  960MOL0     H26655  10.759   8.178   1.522  1.6172 -0.0343 -1.2273
  960MOL0     H26656  10.541   8.082   1.503 -1.0167 -1.2143 -1.3618
  960MOL0     H26657  10.529   7.731   1.338 -2.3665 -2.0113 -1.4013
  960MOL0     H26658  10.485   7.893   1.326 -0.0743  0.8825  0.2178
  960MOL0     H26659  10.256   7.803   1.464  0.2356 -1.8045  1.5765
  960MOL0     H26660  10.301   7.654   1.401 -1.3295  0.0851  0.9865
  960MOL0     H26661  10.275   7.721   1.166 -3.7594 -0.5849 -2.3074
  960MOL0     H26662  10.254   7.888   1.204 -2.7671  0.0162  0.1941
  960MOL0     H26663  10.075   7.692   1.353  1.5696  1.7271  3.2653
  960MOL0     H26664  10.056   7.859   1.307  2.0836 -0.9861  3.2884
  960MOL0     H26665  10.091   7.621   1.109  0.7385  1.0612  1.4358
  960MOL0     H26666  10.075   7.785   1.060  1.6846  1.8725  1.5920
  960MOL0     H26667   9.838   7.801   1.165 -0.2162 -0.5785 -0.9513
  960MOL0     H26668   9.850   7.636   1.216 -2.0276 -0.1636  0.5367
  960MOL0     H26669   9.822   7.721   0.930  1.4821 -1.6342 -1.5675
  960MOL0     H26670   9.900   7.585   0.962  1.6911  0.9039  1.4417
  960MOL0     H26671   9.728   7.500   1.129 -0.0938 -0.0684 -0.0735
  960MOL0     H26672   9.680   7.502   0.954 -1.7486  0.1876  0.7293
  960MOL0     H26673   9.486   7.652   0.859 -1.2065 -2.2577  0.8543
  960MOL0     H26674   9.292   7.796   0.846  1.3625  0.5065 -0.7799
  960MOL0     H26675   9.317   7.947   0.937  1.5936 -0.8333 -0.4449
  960MOL0     H26676   9.183   7.826   1.129 -1.1638 -0.0143  1.0009
  960MOL0     H26677   9.145   7.703   1.027 -1.2802  0.8905 -0.8820
  960MOL0     H26678   9.066   7.986   0.951 -2.4586  1.0439  4.9705
  960MOL0     H26679   9.028   7.836   0.853 -1.9331  0.4295 -0.5321
  960MOL0     H26680   8.946   7.880   1.144 -0.6550 -2.4216  1.6629
  960MOL0     H26681   8.920   7.740   1.048  2.3203  0.1344  3.7757
  960MOL0     H26682   8.642   7.965   0.828 -2.1830  0.6653  0.1042
  960MOL0     H26683   8.394   7.894   0.840  1.4678  0.9695 -1.8591
  960MOL0     H26684   8.113   7.564   0.814  0.8379  1.4880 -1.0425
  960MOL0     H26685   7.852   7.513   0.778  3.6088 -1.9953 -0.7313
  960MOL0     H26686   7.642   7.439   0.934 -1.0444 -0.9748 -1.0150
  960MOL0     H26687   7.629   7.506   0.763 -1.6966 -1.2588 -0.5571
  960MOL0     H26688   7.404   7.575   0.818 -1.4266  1.9053  2.0118
  960MOL0     H26689   7.443   7.552   0.994  3.4408  1.5680  0.4062
  960MOL0     H26690   7.447   7.316   0.963 -0.5022 -0.1550  0.7425
  960MOL0     H26691   7.405   7.337   0.787 -0.9368 -0.2739  0.7035
  960MOL0     H26692   7.195   7.284   0.956  0.6023  0.1675 -1.7057
  960MOL0     H26693   7.220   7.447   1.012 -1.8947  0.0272  0.6467
  960MOL0     H26694   7.181   7.368   0.712  0.8989 -0.1367  0.6396
  960MOL0     H26695   7.194   7.528   0.787 -0.4624 -0.3711  0.2031
  960MOL0     H26696   6.971   7.470   0.915  0.5162 -0.5101  1.4764
  960MOL0     H26697   6.991   7.308   0.847  1.6762  0.8418  2.0000
  960MOL0     H26698   6.835   7.509   0.741  0.4800  1.8458 -0.4687
  960MOL0     H26699   6.984   7.561   0.669 -2.0114  0.3058  1.0271
  960MOL0     H26700   6.828   7.311   0.634 -1.0173  0.8106  1.5738
  960MOL0     H26701   7.004   7.327   0.578 -0.0992 -0.8002 -0.4912
  960MOL0     H26702   7.777   7.845   1.039  0.2858  0.2149  1.2025
  960MOL0     H26703   8.021   7.883   1.055  0.9556 -2.5527  2.7992
  960MOL0     H26704   8.502   7.631   1.160  1.0617 -1.4268 -2.3388
  960MOL0     H26705   8.719   7.734   1.169  0.2731 -1.3648 -1.4134
  960MOL0     H26706  10.685   7.704   1.630 -3.8832  0.5695 -1.3260
  960MOL0     H26707  10.923   7.802   1.640 -0.9689  0.1781  2.1222
  960MOL0     H26708  11.174   8.179   1.900  0.3762 -1.2893 -0.2281
  960MOL0     H26709  11.396   8.267   1.907 -0.4153  1.3542  0.3532
  960MOL0     H26710  11.642   8.344   1.546  1.3810  0.1822 -0.7803
  960MOL0     H26711  11.658   8.171   1.568 -2.4860  1.0048 -0.4131
  960MOL0     H26712  11.813   8.221   1.752 -4.1329 -0.2549  0.3662
  960MOL0     H26713  11.874   8.269   1.583  0.6173  1.4259  0.5429
  960MOL0     H26714  11.757   8.443   1.815  0.4465 -0.7410  0.9202
  960MOL0     H26715  11.797   8.504   1.646  0.5842 -0.2644 -0.3779
  960MOL0     H26716  11.961   8.588   1.771 -4.2922  0.2211  0.1447
  960MOL0     H26717  11.989   8.433   1.862  1.7219 -0.5825 -0.2216
  960MOL0     H26718  12.201   8.326   1.518  1.4999  1.6385  0.3004
  960MOL0     H26719  11.459   8.202   1.486 -0.0319  1.4659  0.8729
  960MOL0     H26720  11.236   8.114   1.469 -0.5142 -0.5825  0.0523
  961MOL0     O26721   4.778  11.112  11.196 -0.0740 -0.1348  0.1648
  961MOL0     C26722   4.800  11.196  11.106  1.3726  0.8175  0.1372
  961MOL0     O26723   4.702  11.269  11.036  0.1485  0.2994  0.5481
  961MOL0     C26724   4.570  11.243  11.072 -0.5401 -0.0809 -0.0300
  961MOL0     C26725   4.495  11.336  11.143  0.1994 -0.4190 -1.2294
  961MOL0     C26726   4.360  11.312  11.180  0.3380  0.0736 -0.0184
  961MOL0     C26727   4.305  11.185  11.161 -0.4548  0.3583 -0.1444
  961MOL0     O26728   4.188  11.135  11.216 -0.0150  0.1329  0.3389
  961MOL0     C26729   4.102  11.228  11.272  0.7550  0.1324  0.2105
  961MOL0     C26730   3.974  11.139  11.307 -0.9404  0.1360 -0.0350
  961MOL0     C26731   3.879  11.142  11.185  1.5157 -0.5982 -0.6717
  961MOL0     C26732   3.750  11.070  11.203 -0.5209  0.1238 -0.0511
  961MOL0     C26733   3.756  10.920  11.162 -0.0205 -0.4215 -0.9891
  961MOL0     C26734   3.615  10.868  11.178 -0.6581 -0.5121  0.3262
  961MOL0     C26735   3.593  10.726  11.132 -0.0892  0.2181  0.5406
  961MOL0     C26736   3.462  10.664  11.197 -0.1861  0.2933  0.3236
  961MOL0     N26737   3.338  10.732  11.159 -0.4643  0.6764 -0.1863
  961MOL0     C26738   3.298  10.842  11.222 -0.0121 -0.0515 -0.6761
  961MOL0     C26739   3.179  10.877  11.162 -0.6408 -0.1113  1.0709
  961MOL0     C26740   3.083  11.001  11.184  0.4051 -0.5501  0.1478
  961MOL0     C26741   3.059  11.035  11.326 -0.5160  0.6668  0.0209
  961MOL0     C26742   2.999  10.922  11.408  0.2740  0.3761  0.2257
  961MOL0     C26743   2.966  10.974  11.547  0.9014  0.3656  0.8843
  961MOL0     O26744   2.923  10.856  11.619  0.2190 -0.5939  0.1703
  961MOL0     C26745   2.786  10.833  11.629 -0.9357  0.7257 -0.5334
  961MOL0     C26746   2.737  10.728  11.719  0.6042 -0.8639 -0.4875
  961MOL0     C26747   2.596  10.706  11.736 -0.1636 -0.1763 -0.2306
  961MOL0     C26748   2.502  10.769  11.654 -0.1833 -0.9571  1.0290
  961MOL0     C26749   2.353  10.732  11.660 -0.9252 -0.0739 -0.1752
  961MOL0     O26750   2.273  10.800  11.576 -0.5359 -0.1311 -0.7275
  961MOL0     C26751   2.137  10.785  11.610  0.0624 -0.9392  1.0328
  961MOL0     C26752   2.072  10.675  11.558  0.8428 -0.4331  0.3524
  961MOL0     C26753   1.946  10.638  11.609  0.5786 -0.1975 -0.2120
  961MOL0     C26754   1.882  10.718  11.706 -0.3741  0.0395 -0.8923
  961MOL0     O26755   1.760  10.701  11.770  0.4527  0.4597  0.7076
  961MOL0     C26756   1.666  10.614  11.697  0.3171  0.1178  0.5002
  961MOL0     C26757   1.538  10.623  11.769 -0.1229 -0.0692 -0.1918
  961MOL0     C26758   1.441  10.521  11.709 -0.1839 -0.0521 -0.0426
  961MOL0     C26759   1.297  10.520  11.789 -0.7738  0.0617  0.7710
  961MOL0     C26760   1.182  10.475  11.697  0.2264  0.1818 -0.1063
  961MOL0     C26761   1.053  10.465  11.786 -0.0436  0.1081 -0.3388
  961MOL0     C26762   0.932  10.436  11.692  0.4491 -0.2297 -0.2381
  961MOL0     C26763   0.809  10.390  11.771  0.0317 -0.2733  0.4970
  961MOL0    Cl26764   0.663  10.374  11.666  0.1123 -0.0020  0.0243
  961MOL0     C26765   1.950  10.830  11.757 -0.0841 -0.7231  0.2965
  961MOL0     C26766   2.080  10.862  11.712 -0.5764 -0.8699  0.0780
  961MOL0     O26767   2.314  10.666  11.757  0.1414 -0.3810 -0.6621
  961MOL0     C26768   2.547  10.864  11.564  0.7259  0.6794 -0.2202
  961MOL0     C26769   2.679  10.900  11.559  0.8463  0.4627 -0.0201
  961MOL0     N26770   3.149  10.782  11.069  0.3188  0.4832 -0.5484
  961MOL0     N26771   3.245  10.706  11.066 -0.5574 -0.4682 -0.6444
  961MOL0     C26772   4.392  11.092  11.093 -0.6842  1.0199 -0.7350
  961MOL0     C26773   4.520  11.114  11.055  0.1527 -0.8801 -0.3635
  961MOL0     C26774   4.943  11.226  11.079  0.8494 -0.6927  0.3662
  961MOL0     C26775   4.963  11.357  11.033 -0.1948  0.3163  0.3154
  961MOL0     C26776   5.095  11.399  11.003 -0.9709 -0.0099  0.0258
  961MOL0     C26777   5.210  11.319  11.024 -0.1465  0.4993 -0.2628
  961MOL0     O26778   5.332  11.353  10.992 -0.4900 -0.3008 -0.0355
  961MOL0     C26779   5.376  11.490  10.992 -0.1484 -0.2608 -0.1918
  961MOL0     C26780   5.520  11.517  10.955  0.2751 -0.0785  0.3735
  961MOL0     C26781   5.540  11.476  10.812 -1.3552  0.5441 -0.3705
  961MOL0     C26782   5.692  11.487  10.785  0.8375  0.3359 -0.1615
  961MOL0     C26783   5.716  11.396  10.671 -0.6723  0.4986 -0.1002
  961MOL0     C26784   5.716  11.335  10.565 -0.9691  0.7322  0.8982
  961MOL0     C26785   5.183  11.186  11.065 -0.1471 -0.0850  0.2676
  961MOL0     C26786   5.052  11.140  11.093 -0.6672 -0.0969  0.8479
  961MOL0     H26787   4.539  11.430  11.175  1.3690 -1.4141  0.2578
  961MOL0     H26788   4.310  11.396  11.227  2.5642  3.0600 -2.5811
  961MOL0     H26789   4.081  11.313  11.206 -0.5666 -0.8957 -0.7390
  961MOL0     H26790   4.144  11.268  11.365 -0.0098  3.1900 -0.6579
  961MOL0     H26791   3.924  11.185  11.392 -0.3433 -0.9335  0.9191
  961MOL0     H26792   4.007  11.040  11.339  0.5930  0.7931  0.5040
  961MOL0     H26793   3.930  11.103  11.096  0.7133 -1.8239 -0.6161
  961MOL0     H26794   3.851  11.246  11.165 -0.1393 -1.2917 -2.2788
  961MOL0     H26795   3.709  11.082  11.304 -2.0312 -0.3659 -0.5733
  961MOL0     H26796   3.683  11.117  11.130  0.5856  0.2682 -0.9992
  961MOL0     H26797   3.819  10.859  11.228  2.1245  1.6567 -1.0135
  961MOL0     H26798   3.794  10.906  11.060 -1.8020 -1.5229 -1.5537
  961MOL0     H26799   3.557  10.935  11.114  2.5348  0.8966 -1.3276
  961MOL0     H26800   3.586  10.885  11.282 -1.0687  0.0313  0.1270
  961MOL0     H26801   3.586  10.727  11.023 -0.3528  1.7832  0.5457
  961MOL0     H26802   3.670  10.661  11.173 -0.5151  0.0760  1.1323
  961MOL0     H26803   3.470  10.674  11.306  1.0846  1.5602  0.1519
  961MOL0     H26804   3.442  10.560  11.170 -1.4601  0.7729 -0.6786
  961MOL0     H26805   3.337  10.887  11.313  0.2248  1.5492 -1.5279
  961MOL0     H26806   2.996  10.980  11.122  1.2774 -2.6028 -0.4770
  961MOL0     H26807   3.132  11.091  11.146  0.4343 -0.6535 -0.0625
  961MOL0     H26808   2.985  11.114  11.338 -4.2810 -2.4403 -0.5332
  961MOL0     H26809   3.148  11.077  11.372  0.2360  1.0820 -1.7295
  961MOL0     H26810   2.912  10.879  11.359  0.0215  1.0211  0.0895
  961MOL0     H26811   3.067  10.838  11.422  0.4155  0.6311  1.1696
  961MOL0     H26812   2.895  11.056  11.535 -0.3512 -0.9035 -1.0345
  961MOL0     H26813   3.057  11.005  11.599  0.1219 -0.6873  2.9907
  961MOL0     H26814   2.816  10.676  11.772  0.4286 -1.0716 -0.4286
  961MOL0     H26815   2.564  10.618  11.791  0.0374 -0.7618 -1.0373
  961MOL0     H26816   2.121  10.618  11.480 -2.4513 -2.5052 -0.4378
  961MOL0     H26817   1.909  10.542  11.574  1.0939 -0.4599 -0.0482
  961MOL0     H26818   1.701  10.511  11.692  1.9969  0.7084 -0.9193
  961MOL0     H26819   1.637  10.655  11.600 -3.0652 -0.2304  1.2345
  961MOL0     H26820   1.498  10.724  11.757 -0.4080 -0.0429  0.8742
  961MOL0     H26821   1.556  10.620  11.877  0.0572 -0.2147 -0.2249
  961MOL0     H26822   1.481  10.420  11.720 -1.6240 -0.8797 -1.9230
  961MOL0     H26823   1.413  10.546  11.606 -2.0976  0.6542  0.6082
  961MOL0     H26824   1.300  10.448  11.871  5.5644 -0.2474  0.7348
  961MOL0     H26825   1.271  10.619  11.827  1.0617  1.0066 -0.2927
  961MOL0     H26826   1.212  10.383  11.647  3.1106  1.9488 -1.9352
  961MOL0     H26827   1.156  10.544  11.615 -0.1135 -0.7104 -0.7634
  961MOL0     H26828   1.031  10.557  11.843  2.7527  1.3802 -1.1629
  961MOL0     H26829   1.050  10.384  11.860 -1.6947  0.2656 -0.1852
  961MOL0     H26830   0.910  10.531  11.644  1.6007  0.6719  0.9585
  961MOL0     H26831   0.953  10.346  11.632 -0.2675 -1.4302  1.2285
  961MOL0     H26832   0.785  10.468  11.844  1.9924  1.1397 -0.2845
  961MOL0     H26833   0.840  10.295  11.815  0.5697 -1.2155 -1.7734
  961MOL0     H26834   1.898  10.887  11.833  0.4729  1.4412 -0.8726
  961MOL0     H26835   2.129  10.947  11.758 -1.9047  1.1838 -2.1180
  961MOL0     H26836   2.478  10.905  11.491 -0.2350 -2.3268 -1.1557
  961MOL0     H26837   2.709  10.985  11.497  5.1669  0.3666  1.5519
  961MOL0     H26838   4.368  10.986  11.103 -1.7320  1.4203  5.7651
  961MOL0     H26839   4.585  11.040  11.009  2.1184 -0.5470  1.6713
  961MOL0     H26840   4.882  11.429  11.026 -0.2306  0.2550  0.1038
  961MOL0     H26841   5.102  11.502  10.969 -1.5285  0.5723  1.5842
  961MOL0     H26842   5.356  11.525  11.093  0.1662 -0.7101  0.0324
  961MOL0     H26843   5.314  11.553  10.928  1.5139 -0.4605 -2.1138
  961MOL0     H26844   5.548  11.623  10.964  1.5823 -0.4898  1.6749
  961MOL0     H26845   5.580  11.457  11.025 -0.0421 -1.3007 -0.3754
  961MOL0     H26846   5.479  11.540  10.748 -4.2848 -1.3914  0.3333
  961MOL0     H26847   5.506  11.374  10.793  0.3343  0.0441 -0.8726
  961MOL0     H26848   5.727  11.587  10.756  0.1370  0.3047 -1.1554
  961MOL0     H26849   5.754  11.440  10.862 -0.4079  0.0292  0.6715
  961MOL0     H26850   5.712  11.280  10.474  3.5470  1.3058  0.1507
  961MOL0     H26851   5.269  11.120  11.075  1.9495  2.4745  0.2728
  961MOL0     H26852   5.036  11.036  11.119  0.8486 -0.8107 -0.8339
  962MOL0     O26853   3.839   1.753   1.371  0.2374 -0.4575  0.0835
  962MOL0     C26854   3.911   1.839   1.321  1.1709  0.2201  0.1037
  962MOL0     O26855   3.866   1.934   1.244 -0.3331  0.0648 -0.1361
  962MOL0     C26856   3.742   1.951   1.195 -0.0083 -0.5476  0.7276
  962MOL0     C26857   3.627   1.891   1.241 -0.8647  0.2954  0.0426
  962MOL0     C26858   3.494   1.940   1.196 -0.0033  0.3500 -0.4979
  962MOL0     C26859   3.479   2.029   1.096  0.7211  0.0556  0.5952
  962MOL0     O26860   3.366   2.099   1.053 -0.2638 -0.5624  0.4033
  962MOL0     C26861   3.237   2.041   1.082  0.0726  0.0211  0.2126
  962MOL0     C26862   3.198   1.914   1.008  0.5599 -0.4823  0.0445
  962MOL0     C26863   3.061   1.876   1.055 -0.4336 -0.1354 -0.1876
  962MOL0     C26864   3.025   1.730   1.009  0.1881 -0.9035  0.8908
  962MOL0     C26865   2.890   1.689   1.062  0.3311  0.4864 -0.4129
  962MOL0     C26866   2.774   1.797   1.070  0.1314  0.6530 -0.3182
  962MOL0     C26867   2.629   1.734   1.089  0.4094 -0.7602  0.0119
  962MOL0     C26868   2.527   1.808   1.004 -0.3303  0.3085 -0.3259
  962MOL0     N26869   2.397   1.752   1.044 -0.5566 -0.0650  0.1282
  962MOL0     C26870   2.328   1.754   1.163  0.0019  1.0876  0.2057
  962MOL0     C26871   2.206   1.709   1.136 -0.4208  0.1967  0.7782
  962MOL0     C26872   2.101   1.666   1.235 -0.0495 -1.7943  0.5938
  962MOL0     C26873   2.030   1.793   1.285  0.2514 -0.2225  0.1517
  962MOL0     C26874   1.923   1.745   1.389 -0.3825 -0.5123 -0.0467
  962MOL0     C26875   1.811   1.677   1.313  0.3116  0.4862  0.3601
  962MOL0     O26876   1.705   1.664   1.404  0.6848 -0.7635 -0.2706
  962MOL0     C26877   1.589   1.600   1.367  0.9340 -0.2262 -0.4239
  962MOL0     C26878   1.560   1.543   1.247  0.3341  0.3297 -0.5510
  962MOL0     C26879   1.431   1.502   1.213  0.3983  0.9456 -0.1673
  962MOL0     C26880   1.329   1.503   1.312 -0.6138 -0.4002  0.5697
  962MOL0     C26881   1.187   1.451   1.292  0.5587 -1.5316 -0.0879
  962MOL0     O26882   1.104   1.459   1.402 -0.0247  0.4740  0.4909
  962MOL0     C26883   0.984   1.397   1.422  0.0270  0.1139  0.0327
  962MOL0     C26884   0.893   1.358   1.317 -1.0142 -0.4517 -0.6709
  962MOL0     C26885   0.760   1.325   1.346 -0.2293 -0.6721 -0.8214
  962MOL0     C26886   0.715   1.305   1.477 -0.1029 -0.9113  0.6135
  962MOL0     O26887   0.586   1.258   1.486  0.2571  0.0646  0.1358
  962MOL0     C26888   0.565   1.182   1.602 -0.3922 -0.6059  0.1115
  962MOL0     C26889   0.439   1.099   1.579 -0.0745 -0.1818 -0.3599
  962MOL0     C26890   0.312   1.201   1.585 -0.7146 -0.1549 -0.6869
  962MOL0     C26891   0.188   1.122   1.579 -0.1116  0.7957 -0.2505
  962MOL0     C26892   0.062   1.200   1.617 -0.3043  0.3191 -0.4312
  962MOL0     C26893  -0.056   1.102   1.639  0.3729 -0.6509 -0.0491
  962MOL0     C26894  -0.184   1.163   1.694  0.7826  0.1728  0.4340
  962MOL0     C26895  -0.173   1.201   1.841 -0.0703 -0.0007  0.0085
  962MOL0    Cl26896  -0.334   1.232   1.916  0.2148 -0.0101 -0.1808
  962MOL0     C26897   0.801   1.345   1.579 -0.6745  0.0564  0.1343
  962MOL0     C26898   0.932   1.393   1.550  0.1431 -0.3622 -0.6329
  962MOL0     O26899   1.157   1.408   1.182 -0.0634 -0.0315 -0.4895
  962MOL0     C26900   1.369   1.547   1.444 -0.6060 -0.3880 -0.3560
  962MOL0     C26901   1.498   1.594   1.467  0.7439 -0.0896  0.0220
  962MOL0     N26902   2.191   1.682   1.004  0.1235 -0.1988  0.1813
  962MOL0     N26903   2.307   1.716   0.949 -0.0895 -0.0343  0.1587
  962MOL0     C26904   3.600   2.079   1.043 -0.3054  0.7137  0.5894
  962MOL0     C26905   3.729   2.046   1.092  0.0072  0.0406 -0.2951
  962MOL0     C26906   4.049   1.849   1.384 -0.1860 -0.8810  0.5400
  962MOL0     C26907   4.134   1.960   1.368 -0.4647  0.2927  0.6067
  962MOL0     C26908   4.269   1.957   1.428  0.1876 -0.3481  0.4007
  962MOL0     C26909   4.310   1.853   1.514  0.7370  0.0315 -0.9426
  962MOL0     O26910   4.437   1.846   1.573 -0.3273 -0.3337 -0.2136
  962MOL0     C26911   4.533   1.943   1.534 -0.3502  0.7727  0.3175
  962MOL0     C26912   4.665   1.906   1.606 -0.3314  0.4765 -0.2654
  962MOL0     C26913   4.800   1.963   1.559  0.3675  1.1100 -0.7756
  962MOL0     C26914   4.908   1.930   1.667  0.2257 -1.4666  0.6533
  962MOL0     C26915   5.012   2.035   1.670  0.2096 -0.1109  0.3148
  962MOL0     C26916   5.099   2.120   1.683  0.6781  0.0704 -0.3950
  962MOL0     C26917   4.211   1.759   1.541 -0.4428  0.3121  0.6029
  962MOL0     C26918   4.086   1.752   1.479 -0.5498  0.1448  0.9108
  962MOL0     H26919   3.625   1.822   1.324  3.8780  0.4208  0.5140
  962MOL0     H26920   3.411   1.905   1.257  0.2800 -0.8607 -0.7875
  962MOL0     H26921   3.167   2.121   1.059  2.0365  1.7798  0.1116
  962MOL0     H26922   3.234   2.024   1.190  0.1124  1.4321  0.4454
  962MOL0     H26923   3.256   1.829   1.043  2.6924  0.1973 -1.6255
  962MOL0     H26924   3.199   1.934   0.900  0.8092  2.0529  0.4547
  962MOL0     H26925   2.978   1.932   1.011 -2.3220  0.1141  3.2947
  962MOL0     H26926   3.062   1.887   1.164 -2.5654  0.6677 -0.1996
  962MOL0     H26927   3.008   1.712   0.903  0.7333 -2.0574  0.9905
  962MOL0     H26928   3.104   1.661   1.039  1.0108 -0.1061  0.5713
  962MOL0     H26929   2.893   1.649   1.164  0.0191  0.2128 -0.5090
  962MOL0     H26930   2.850   1.607   1.001  0.6210 -0.3513  0.4869
  962MOL0     H26931   2.771   1.859   0.980 -2.4478 -0.7554 -1.2971
  962MOL0     H26932   2.807   1.856   1.156 -1.7271  0.3827  0.6144
  962MOL0     H26933   2.627   1.629   1.059 -0.4293 -0.1776 -2.2300
  962MOL0     H26934   2.610   1.749   1.196 -0.2471  1.1909 -0.3292
  962MOL0     H26935   2.554   1.791   0.899  1.4981 -3.0268  0.5425
  962MOL0     H26936   2.548   1.911   1.037 -0.7832 -0.3187  2.1216
  962MOL0     H26937   2.377   1.760   1.259  0.2710  0.3293  0.1181
  962MOL0     H26938   2.148   1.629   1.327  2.6721 -2.1638 -0.8381
  962MOL0     H26939   2.036   1.593   1.185 -0.9061 -1.7659  1.6299
  962MOL0     H26940   1.982   1.850   1.204 -2.3856 -2.3884  0.0148
  962MOL0     H26941   2.105   1.850   1.339 -1.6722  2.3443  0.3363
  962MOL0     H26942   1.967   1.677   1.461  0.0030 -0.4383 -0.2054
  962MOL0     H26943   1.884   1.833   1.442 -0.1334 -0.3380 -0.1475
  962MOL0     H26944   1.813   1.580   1.263 -4.0567  1.2406 -1.8389
  962MOL0     H26945   1.791   1.745   1.230  0.8790 -0.5835 -0.6800
  962MOL0     H26946   1.632   1.531   1.166  1.8786 -3.5020  1.1593
  962MOL0     H26947   1.409   1.465   1.114 -3.5123  0.2486  0.8055
  962MOL0     H26948   0.928   1.378   1.216 -1.7248  0.4666 -0.7433
  962MOL0     H26949   0.679   1.305   1.275 -0.4370  2.3954 -1.5843
  962MOL0     H26950   0.556   1.255   1.683  0.0270  1.3004 -1.4772
  962MOL0     H26951   0.649   1.117   1.629  0.4072  0.7178  0.9387
  962MOL0     H26952   0.432   1.016   1.650 -0.6214 -1.3111 -1.6741
  962MOL0     H26953   0.434   1.065   1.475 -0.5009  2.1598 -1.1666
  962MOL0     H26954   0.318   1.267   1.498 -2.0537  0.9239  0.0088
  962MOL0     H26955   0.322   1.272   1.667  2.2711 -1.4289  0.2312
  962MOL0     H26956   0.180   1.088   1.476 -2.0041 -0.9672  0.4178
  962MOL0     H26957   0.203   1.043   1.654 -0.3809 -0.4755 -1.5084
  962MOL0     H26958   0.042   1.276   1.541 -3.2721 -0.0672 -0.1507
  962MOL0     H26959   0.079   1.252   1.712 -3.0151 -2.7558  1.9825
  962MOL0     H26960  -0.020   1.027   1.711  1.6446  1.5207  1.7034
  962MOL0     H26961  -0.081   1.051   1.545  1.7008 -0.0314 -0.7596
  962MOL0     H26962  -0.210   1.245   1.627  1.4041  2.2675  2.6073
  962MOL0     H26963  -0.264   1.089   1.688 -0.5033  1.6284 -0.8304
  962MOL0     H26964  -0.104   1.284   1.859  2.3672 -2.1142  1.0862
  962MOL0     H26965  -0.117   1.126   1.897 -0.4293 -0.4086 -0.1758
  962MOL0     H26966   0.772   1.337   1.683  0.5242 -0.2582  0.4571
  962MOL0     H26967   0.977   1.426   1.643 -1.6245 -1.3115  0.6183
  962MOL0     H26968   1.301   1.551   1.528  2.4942  3.2284  2.3298
  962MOL0     H26969   1.520   1.629   1.567 -1.0705 -0.3978  0.5570
  962MOL0     H26970   3.597   2.149   0.960 -1.2957  1.3891  1.1788
  962MOL0     H26971   3.816   2.095   1.050  1.6004 -2.0844  0.3126
  962MOL0     H26972   4.100   2.041   1.304  2.7988  0.2704 -1.3624
  962MOL0     H26973   4.329   2.047   1.415 -0.8691  0.5412  1.4662
  962MOL0     H26974   4.511   2.045   1.569  3.0220  0.6477  3.3476
  962MOL0     H26975   4.556   1.928   1.428  0.6938 -3.0683  0.9628
  962MOL0     H26976   4.651   1.937   1.710  1.9442 -0.8788  0.5483
  962MOL0     H26977   4.667   1.797   1.617 -0.6542  0.5965  1.2162
  962MOL0     H26978   4.787   2.069   1.536  1.6511  0.8197 -3.1711
  962MOL0     H26979   4.828   1.919   1.463  5.0153  2.9229 -0.4844
  962MOL0     H26980   4.869   1.925   1.769  3.0377 -0.7852  1.8515
  962MOL0     H26981   4.960   1.838   1.639  3.4560  0.5309 -0.4422
  962MOL0     H26982   5.176   2.192   1.699  0.8179 -0.2934  0.6671
  962MOL0     H26983   4.233   1.687   1.619  4.0825  0.4006 -0.3475
  962MOL0     H26984   4.023   1.668   1.506 -0.8126 -0.6896 -1.9262
  963MOL0     O26985   4.834   4.520   2.375  0.4542  0.6864  0.0002
  963MOL0     C26986   4.953   4.492   2.357 -0.8170 -0.4744 -0.0974
  963MOL0     O26987   5.052   4.543   2.436 -0.1944  0.1064  0.0084
  963MOL0     C26988   5.028   4.649   2.519  0.0893  0.5702 -0.7505
  963MOL0     C26989   5.090   4.768   2.485  0.5907 -0.4133 -0.8202
  963MOL0     C26990   5.072   4.887   2.559 -0.4554  0.1599  0.5818
  963MOL0     C26991   4.998   4.885   2.673  0.3241 -1.1177 -0.4031
  963MOL0     O26992   4.996   5.007   2.743  0.7985 -0.4485 -0.2973
  963MOL0     C26993   4.936   5.029   2.875  0.2717  0.2365  0.4593
  963MOL0     C26994   4.792   5.066   2.863  0.4010  0.2235 -0.6598
  963MOL0     C26995   4.741   5.102   3.005  0.0210  0.0671 -0.1902
  963MOL0     C26996   4.602   5.153   3.007  0.4573 -0.6409 -0.4104
  963MOL0     C26997   4.546   5.130   3.151  0.0342 -0.0440  0.0158
  963MOL0     C26998   4.425   5.213   3.194 -0.3749 -0.5589  0.3384
  963MOL0     C26999   4.413   5.208   3.346 -0.3721 -0.0663 -1.2129
  963MOL0     C27000   4.276   5.268   3.398  0.2820 -0.5028  0.4420
  963MOL0     N27001   4.165   5.215   3.323  0.1810 -0.4863  0.2931
  963MOL0     C27002   4.137   5.079   3.328  0.0709  0.2555 -0.3474
  963MOL0     C27003   4.027   5.064   3.256 -0.4006  0.2761  0.4164
  963MOL0     C27004   3.952   4.928   3.226 -0.5148  0.4515 -0.0837
  963MOL0     C27005   3.836   4.939   3.136  0.2120 -1.0411  0.0741
  963MOL0     C27006   3.875   4.918   2.992 -0.3819 -0.3111  1.1337
  963MOL0     C27007   3.985   5.024   2.933 -0.7326 -0.5083  0.5862
  963MOL0     O27008   4.115   4.969   2.958 -0.3229 -0.3243 -0.1819
  963MOL0     C27009   4.216   5.009   2.869  0.8418  0.3985 -0.9527
  963MOL0     C27010   4.217   5.130   2.792  0.4610 -0.2603  0.5731
  963MOL0     C27011   4.327   5.148   2.703  0.6530 -0.1935 -0.2541
  963MOL0     C27012   4.432   5.054   2.697  0.5672 -0.0517  0.7368
  963MOL0     C27013   4.538   5.069   2.590  0.0124  0.2353 -0.3148
  963MOL0     O27014   4.625   4.963   2.564  0.0829 -0.1473  0.1714
  963MOL0     C27015   4.726   4.982   2.471  0.6730  0.2398 -0.0675
  963MOL0     C27016   4.811   5.098   2.465  0.1630  0.1041 -0.3421
  963MOL0     C27017   4.924   5.104   2.375  0.9922  0.0074 -0.4583
  963MOL0     C27018   4.960   4.996   2.289  0.0164  0.2718  0.3497
  963MOL0     O27019   5.071   5.000   2.209  0.0712  0.8877  0.4719
  963MOL0     C27020   5.170   5.100   2.210 -0.0454  0.1799 -0.9386
  963MOL0     C27021   5.272   5.082   2.107 -0.2710  0.6715 -0.3410
  963MOL0     C27022   5.213   5.029   1.976  0.2236  0.4933  0.2259
  963MOL0     C27023   5.307   5.057   1.855  0.0171  0.5276 -0.2273
  963MOL0     C27024   5.285   4.973   1.728  0.5823  0.2540  0.1917
  963MOL0     C27025   5.157   5.011   1.662  0.7005 -0.1586 -0.3900
  963MOL0     C27026   5.104   4.900   1.565  0.1998 -0.1462  0.5214
  963MOL0     C27027   5.209   4.894   1.446  0.6316  0.0902  0.3150
  963MOL0    Cl27028   5.124   4.790   1.338 -0.4833  0.0834 -0.3452
  963MOL0     C27029   4.869   4.883   2.296 -0.2382 -0.2696 -0.4992
  963MOL0     C27030   4.756   4.875   2.384 -0.5698 -0.0656  0.9943
  963MOL0     O27031   4.549   5.184   2.544 -0.0332  0.4337  0.9950
  963MOL0     C27032   4.433   4.933   2.774 -0.7969  0.8741  0.3307
  963MOL0     C27033   4.320   4.915   2.859  0.3165 -0.0122  0.1212
  963MOL0     N27034   3.984   5.191   3.222  0.3106 -0.2015 -0.0323
  963MOL0     N27035   4.072   5.288   3.262  0.4469  0.4605  0.7403
  963MOL0     C27036   4.937   4.765   2.713 -0.0093  0.4000  0.5039
  963MOL0     C27037   4.953   4.647   2.641  0.2943  0.0912 -0.0185
  963MOL0     C27038   5.004   4.411   2.241  0.6121  0.5309  0.6602
  963MOL0     C27039   5.134   4.355   2.236  0.3267  0.3399  0.1211
  963MOL0     C27040   5.178   4.295   2.116 -0.7469 -0.3427 -0.4911
  963MOL0     C27041   5.100   4.269   2.012  0.0828  0.6169  0.1201
  963MOL0     O27042   5.171   4.221   1.907  0.1100 -0.1442  0.2626
  963MOL0     C27043   5.093   4.183   1.793 -0.0665 -0.3285 -0.6070
  963MOL0     C27044   5.084   4.310   1.714  0.4125 -0.1789  0.7927
  963MOL0     C27045   5.212   4.357   1.645 -1.1808  0.5638  0.2333
  963MOL0     C27046   5.194   4.478   1.556 -0.5006 -0.2838 -0.0147
  963MOL0     C27047   5.328   4.530   1.511 -0.6489  0.1550 -0.8156
  963MOL0     C27048   5.426   4.588   1.474 -0.1690 -0.3938  0.1694
  963MOL0     C27049   4.962   4.311   2.018 -1.3534 -0.6219 -0.3017
  963MOL0     C27050   4.921   4.370   2.135 -0.3916 -0.3465 -0.1023
  963MOL0     H27051   5.161   4.766   2.403  0.9044  0.0134 -0.5647
  963MOL0     H27052   5.116   4.980   2.523  0.2901 -0.5430 -0.3668
  963MOL0     H27053   4.977   5.115   2.928 -0.9513  0.3827  1.2155
  963MOL0     H27054   4.950   4.940   2.938  2.2942  0.3299  0.2031
  963MOL0     H27055   4.734   4.988   2.814  0.2489  1.0501 -1.8600
  963MOL0     H27056   4.782   5.150   2.793 -0.6709  3.7276  3.2728
  963MOL0     H27057   4.801   5.186   3.042 -1.3112  0.9822 -0.0150
  963MOL0     H27058   4.766   5.016   3.068  1.9688 -0.3503 -1.4258
  963MOL0     H27059   4.591   5.259   2.986  0.8450 -0.5081  0.0576
  963MOL0     H27060   4.543   5.091   2.939  1.2770  0.5706 -2.3011
  963MOL0     H27061   4.621   5.133   3.230 -1.1976  0.2844  1.1996
  963MOL0     H27062   4.517   5.025   3.156  1.3948 -0.3810  2.1380
  963MOL0     H27063   4.331   5.199   3.139 -0.1248  0.9079 -0.5015
  963MOL0     H27064   4.445   5.316   3.164 -1.2068  0.1389  2.0330
  963MOL0     H27065   4.415   5.103   3.374  0.2700  0.1646 -0.3804
  963MOL0     H27066   4.487   5.265   3.402 -1.4633  0.0787  0.1307
  963MOL0     H27067   4.265   5.374   3.373  2.2324 -0.2628  0.4651
  963MOL0     H27068   4.263   5.260   3.507 -5.1444 -1.3091 -0.0144
  963MOL0     H27069   4.195   5.000   3.374 -0.9940 -0.6217 -0.4768
  963MOL0     H27070   3.922   4.879   3.319  2.5618  0.8392  1.2333
  963MOL0     H27071   4.025   4.859   3.182 -0.6692  0.4378 -0.3203
  963MOL0     H27072   3.785   5.033   3.157  4.0201  0.8016  2.2358
  963MOL0     H27073   3.765   4.858   3.149  1.4101 -2.4520 -1.6342
  963MOL0     H27074   3.911   4.818   2.966 -1.0988 -0.2009 -0.3892
  963MOL0     H27075   3.781   4.932   2.937  0.8377 -1.6331 -1.4671
  963MOL0     H27076   3.971   5.115   2.992 -1.2349  0.0172 -0.3127
  963MOL0     H27077   3.972   5.056   2.829 -1.8273  1.2745  1.2341
  963MOL0     H27078   4.145   5.207   2.817  0.1880  0.2183 -1.5252
  963MOL0     H27079   4.331   5.245   2.655 -1.0092  0.6999  1.2470
  963MOL0     H27080   4.794   5.174   2.540  3.0600 -0.8627  1.4746
  963MOL0     H27081   4.978   5.199   2.376 -0.7893  1.2299  3.7048
  963MOL0     H27082   5.220   5.108   2.307 -0.8049  2.3110 -0.6669
  963MOL0     H27083   5.125   5.200   2.202  1.9108  1.4333  2.1572
  963MOL0     H27084   5.345   5.009   2.140  0.7438  2.4494  1.5990
  963MOL0     H27085   5.328   5.176   2.101 -1.3280  1.2991 -0.6771
  963MOL0     H27086   5.115   5.075   1.967  0.0736  0.4702  1.6312
  963MOL0     H27087   5.184   4.924   1.983  0.3283  0.3895 -0.7476
  963MOL0     H27088   5.313   5.164   1.835  0.6368  0.0543 -2.8734
  963MOL0     H27089   5.407   5.024   1.885 -0.0825 -0.0648 -0.5375
  963MOL0     H27090   5.283   4.868   1.757  0.1006 -0.3727 -1.9657
  963MOL0     H27091   5.367   4.991   1.657 -0.0197 -1.8093 -1.0831
  963MOL0     H27092   5.167   5.107   1.610  0.7841  0.5104  0.8221
  963MOL0     H27093   5.083   5.034   1.739  1.0207 -1.0750  0.2024
  963MOL0     H27094   5.084   4.805   1.615 -0.6370 -0.7731 -0.9431
  963MOL0     H27095   5.008   4.929   1.521 -0.2439 -1.0081  0.9020
  963MOL0     H27096   5.295   4.835   1.480  0.8986 -0.9817 -2.0611
  963MOL0     H27097   5.230   4.992   1.402  3.3185 -0.7827 -0.4853
  963MOL0     H27098   4.883   4.795   2.234  2.0928  0.1092 -0.6053
  963MOL0     H27099   4.688   4.790   2.390 -0.5870 -0.0516  0.9990
  963MOL0     H27100   4.512   4.859   2.771 -0.2279  1.5077 -0.7289
  963MOL0     H27101   4.307   4.827   2.921  1.1084 -1.0410 -1.1137
  963MOL0     H27102   4.874   4.761   2.801 -0.0026  1.5422  0.5765
  963MOL0     H27103   4.901   4.557   2.674 -1.3739  0.9050 -0.3318
  963MOL0     H27104   5.195   4.353   2.326  2.1650 -1.6538 -1.0764
  963MOL0     H27105   5.281   4.259   2.109 -0.6463 -0.4680  1.1430
  963MOL0     H27106   5.004   4.126   1.823 -1.6359  2.0031 -0.5495
  963MOL0     H27107   5.154   4.114   1.735  0.5569  0.6806 -1.1706
  963MOL0     H27108   5.006   4.301   1.637  0.4921 -0.1506  0.7084
  963MOL0     H27109   5.047   4.397   1.769 -0.3271  1.0334 -1.4795
  963MOL0     H27110   5.266   4.280   1.589 -0.5350  1.0610  0.1658
  963MOL0     H27111   5.285   4.385   1.722  0.7764 -1.2271 -0.8500
  963MOL0     H27112   5.140   4.450   1.465  0.0147  1.3452 -0.8589
  963MOL0     H27113   5.142   4.560   1.606 -0.4074 -0.1783 -0.0887
  963MOL0     H27114   5.515   4.642   1.450 -1.6510  1.2382 -2.0353
  963MOL0     H27115   4.890   4.304   1.938 -1.9696  1.0373  0.0633
  963MOL0     H27116   4.817   4.401   2.129  0.2916  2.3490  0.6702
  964MOL0     O27117   2.000   9.092   9.841 -0.9953  0.5118 -0.5953
  964MOL0     C27118   2.042   9.206   9.816 -1.1912  0.3095  0.1601
  964MOL0     O27119   1.956   9.309   9.806 -0.2105 -0.0413 -0.8373
  964MOL0     C27120   1.853   9.318   9.907 -0.2934 -0.4637  0.1752
  964MOL0     C27121   1.878   9.292  10.044  0.5815 -0.1075  0.0334
  964MOL0     C27122   1.767   9.303  10.135 -0.9330  0.0095  0.7095
  964MOL0     C27123   1.640   9.345  10.093  0.2082 -0.0054  0.7775
  964MOL0     O27124   1.539   9.343  10.185 -0.0204 -0.1973  0.5229
  964MOL0     C27125   1.404   9.368  10.154 -0.3987 -0.3454 -0.9344
  964MOL0     C27126   1.349   9.263  10.059 -0.1370 -0.3350 -0.2492
  964MOL0     C27127   1.202   9.231  10.070  0.3532  0.0648  0.0461
  964MOL0     C27128   1.162   9.135   9.966 -0.5003 -0.2234  0.7211
  964MOL0     C27129   1.013   9.105   9.988  0.1626  0.3541 -0.3961
  964MOL0     C27130   0.927   9.082   9.856  0.1625 -0.1238  0.0825
  964MOL0     C27131   0.781   9.031   9.886 -1.0304 -0.6377 -0.3020
  964MOL0     C27132   0.698   9.120   9.981  0.6566  1.0343 -0.0708
  964MOL0     N27133   0.571   9.045   9.993  0.6946 -0.9664  0.4228
  964MOL0     C27134   0.516   8.961  10.086  0.2802  0.2834  0.5060
  964MOL0     C27135   0.390   8.940  10.047  0.2343 -0.0656  0.3249
  964MOL0     C27136   0.292   8.857  10.118  0.6959 -0.2923 -0.4593
  964MOL0     C27137   0.149   8.840  10.053  1.2487  0.2728 -0.7070
  964MOL0     C27138   0.062   8.959  10.097  0.1149 -0.0526  0.5462
  964MOL0     C27139  -0.059   8.989  10.009 -0.3771 -0.5087 -0.0612
  964MOL0     O27140  -0.155   9.035  10.103  0.3573 -0.3085 -0.0003
  964MOL0     C27141  -0.259   9.118  10.055 -0.1802  0.6419 -0.0053
  964MOL0     C27142  -0.306   9.211  10.143  0.4790 -0.0042  0.1436
  964MOL0     C27143  -0.409   9.306  10.123 -0.2652  0.2756  0.4355
  964MOL0     C27144  -0.472   9.301  10.001  0.2589 -1.1443  0.1535
  964MOL0     C27145  -0.585   9.398   9.969  0.0986  0.0716 -0.4696
  964MOL0     O27146  -0.604   9.504  10.058  0.5160  0.2430  0.8511
  964MOL0     C27147  -0.687   9.607  10.024 -0.2195  0.3580  0.1579
  964MOL0     C27148  -0.696   9.688   9.904 -0.9920 -0.1808 -0.4654
  964MOL0     C27149  -0.787   9.790   9.892  0.2119 -0.2765  0.7424
  964MOL0     C27150  -0.878   9.815   9.996  0.8465 -0.3403  1.0020
  964MOL0     O27151  -0.966   9.924   9.988  0.1196  0.4912 -0.1179
  964MOL0     C27152  -0.956  10.019  10.102 -0.6940 -0.3180 -0.4037
  964MOL0     C27153  -1.060  10.130  10.107 -0.9023 -0.0599  0.9150
  964MOL0     C27154  -1.070  10.205  10.241 -0.0033 -0.1593 -0.3032
  964MOL0     C27155  -1.199  10.289  10.252 -0.1519  0.0072  0.7207
  964MOL0     C27156  -1.219  10.340  10.393 -0.1720 -0.6454 -0.1017
  964MOL0     C27157  -1.354  10.401  10.414  0.0302  0.5647 -0.0885
  964MOL0     C27158  -1.405  10.516  10.325  0.6134  0.2297 -0.6822
  964MOL0     C27159  -1.301  10.623  10.299  0.2583  0.5781 -0.4878
  964MOL0    Cl27160  -1.356  10.759  10.196  0.6158 -0.1490 -0.2890
  964MOL0     C27161  -0.877   9.730  10.111  0.3145  0.1755  0.6326
  964MOL0     C27162  -0.782   9.627  10.122  0.4698 -0.1036 -1.2295
  964MOL0     O27163  -0.641   9.378   9.865  0.2416 -0.1292  0.0593
  964MOL0     C27164  -0.424   9.211   9.906 -0.7867 -0.2103  0.4254
  964MOL0     C27165  -0.317   9.116   9.932 -0.1057 -0.5609 -0.5577
  964MOL0     N27166   0.355   9.021   9.939  0.1984 -0.0783  0.3636
  964MOL0     N27167   0.469   9.080   9.908  0.1906 -0.6434  0.7242
  964MOL0     C27168   1.619   9.372   9.951 -0.1024  0.0524 -0.7318
  964MOL0     C27169   1.730   9.360   9.861  0.0072  0.3115 -0.2469
  964MOL0     C27170   2.177   9.210   9.760 -0.2854  0.4172 -0.3430
  964MOL0     C27171   2.262   9.098   9.770 -0.6360 -0.3284 -0.7820
  964MOL0     C27172   2.385   9.099   9.710  0.2475 -0.4352  0.1374
  964MOL0     C27173   2.439   9.214   9.650 -0.4427  0.0067  1.3620
  964MOL0     O27174   2.562   9.198   9.590 -0.0426  0.3480 -0.1058
  964MOL0     C27175   2.620   9.308   9.532 -0.5226 -0.6979 -0.0466
  964MOL0     C27176   2.757   9.253   9.481 -0.1971  0.3763 -0.2267
  964MOL0     C27177   2.871   9.240   9.591  0.2523 -1.0558 -0.5079
  964MOL0     C27178   3.008   9.181   9.551  0.5421  0.9845 -0.8658
  964MOL0     C27179   3.067   9.262   9.450 -0.7942  0.2789  0.6037
  964MOL0     C27180   3.136   9.320   9.369  0.5667  0.8262  0.5844
  964MOL0     C27181   2.358   9.329   9.645  0.5546 -0.0718 -0.6332
  964MOL0     C27182   2.223   9.325   9.696 -0.6275  0.4700  0.0116
  964MOL0     H27183   1.978   9.261  10.071  1.1994  1.2213 -0.6406
  964MOL0     H27184   1.791   9.295  10.240  1.1884 -0.1872  0.2456
  964MOL0     H27185   1.387   9.470  10.118  0.5834  0.2191  0.1332
  964MOL0     H27186   1.349   9.359  10.248 -0.8362 -4.0605 -1.3949
  964MOL0     H27187   1.397   9.165  10.073  0.7695 -0.0273 -1.0523
  964MOL0     H27188   1.359   9.288   9.953 -4.2773 -0.5324 -0.8275
  964MOL0     H27189   1.144   9.323  10.054 -0.4706 -0.6718 -1.4680
  964MOL0     H27190   1.185   9.199  10.173  1.3588 -1.4650 -0.2315
  964MOL0     H27191   1.176   9.186   9.870 -0.5920 -0.2795  0.6769
  964MOL0     H27192   1.229   9.049   9.977 -2.7011 -2.0212  0.8521
  964MOL0     H27193   0.960   9.191  10.029 -2.3409 -0.6758 -1.2401
  964MOL0     H27194   1.008   9.020  10.057 -0.7358 -0.1487 -1.0582
  964MOL0     H27195   0.968   9.006   9.788 -0.8688 -1.4569  0.8814
  964MOL0     H27196   0.922   9.177   9.802 -1.4826 -1.8293 -3.0685
  964MOL0     H27197   0.732   9.028   9.789 -4.7028  1.5871  1.2859
  964MOL0     H27198   0.792   8.927   9.921  1.5658 -0.6150 -0.8713
  964MOL0     H27199   0.680   9.223   9.949 -0.1767  0.8698 -0.1457
  964MOL0     H27200   0.750   9.125  10.078  0.5468 -0.1930  0.0667
  964MOL0     H27201   0.559   8.935  10.182 -0.4102 -0.3243  0.6663
  964MOL0     H27202   0.272   8.897  10.218  1.7245 -1.0469  0.0664
  964MOL0     H27203   0.320   8.752  10.129 -2.1195 -0.8907  3.0721
  964MOL0     H27204   0.105   8.746  10.088  2.7057  0.0257  0.6268
  964MOL0     H27205   0.165   8.818   9.947  0.6571  0.6486 -0.8737
  964MOL0     H27206   0.033   8.947  10.202  1.4518  0.3201  0.9721
  964MOL0     H27207   0.113   9.055  10.090 -0.3391  0.1235 -0.6490
  964MOL0     H27208  -0.098   8.903   9.953 -1.5439 -0.1579  0.1831
  964MOL0     H27209  -0.031   9.068   9.939  0.9389  0.4976  1.5257
  964MOL0     H27210  -0.256   9.216  10.240  3.0074 -2.8979 -0.8307
  964MOL0     H27211  -0.445   9.362  10.209 -1.7015 -1.1425  0.8192
  964MOL0     H27212  -0.632   9.672   9.818 -1.3095  1.5824 -1.0682
  964MOL0     H27213  -0.786   9.853   9.804 -0.6603  1.6400  2.0129
  964MOL0     H27214  -0.859  10.070  10.106 -1.1790  0.6681 -0.8812
  964MOL0     H27215  -0.971   9.959  10.192  1.3479 -2.3973 -1.3218
  964MOL0     H27216  -1.155  10.076  10.095 -1.9851  2.0325 -0.8150
  964MOL0     H27217  -1.060  10.192  10.016  1.5326 -1.3985 -0.0984
  964MOL0     H27218  -0.990  10.279  10.250  2.8836 -3.2323  1.3757
  964MOL0     H27219  -1.067  10.144  10.331 -0.9103  1.2625  0.7381
  964MOL0     H27220  -1.196  10.371  10.180 -0.5740 -0.8650 -0.3406
  964MOL0     H27221  -1.287  10.236  10.212 -0.3277  2.2655 -2.2543
  964MOL0     H27222  -1.149  10.422  10.413 -0.9965  0.2218 -0.7001
  964MOL0     H27223  -1.202  10.263  10.469  1.0476  0.8986  1.2815
  964MOL0     H27224  -1.357  10.431  10.519  0.4332  1.8417 -0.4195
  964MOL0     H27225  -1.423  10.317  10.417  0.8766 -0.1290  0.8518
  964MOL0     H27226  -1.426  10.459  10.234  1.0970 -2.3922  0.7693
  964MOL0     H27227  -1.499  10.556  10.365  0.1562 -0.8850 -0.6260
  964MOL0     H27228  -1.222  10.568  10.246 -1.7332  0.0002 -3.0461
  964MOL0     H27229  -1.253  10.657  10.392 -0.6021 -0.8887  0.5482
  964MOL0     H27230  -0.947   9.747  10.192 -2.1857  0.9965 -1.5714
  964MOL0     H27231  -0.781   9.579  10.219 -0.2845 -1.7500 -1.9907
  964MOL0     H27232  -0.482   9.208   9.814  1.8402  4.3503 -1.7581
  964MOL0     H27233  -0.301   9.035   9.862  1.6468 -1.3294  0.6498
  964MOL0     H27234   1.531   9.410   9.901 -2.3341 -1.6507  1.6760
  964MOL0     H27235   1.717   9.381   9.756  0.4201 -0.0736 -0.3814
  964MOL0     H27236   2.234   9.007   9.823 -1.5224  0.8955  0.9317
  964MOL0     H27237   2.445   9.011   9.730  2.2334  1.1024  1.3491
  964MOL0     H27238   2.629   9.401   9.589 -0.5467 -0.6576 -0.1096
  964MOL0     H27239   2.558   9.322   9.443 -2.3524 -0.2196  1.2541
  964MOL0     H27240   2.744   9.158   9.430  0.3450  1.7151 -3.0724
  964MOL0     H27241   2.801   9.316   9.403  1.3442 -1.8965 -1.2973
  964MOL0     H27242   2.834   9.184   9.678  2.0319 -0.7982  0.4655
  964MOL0     H27243   2.878   9.340   9.636 -0.7569 -3.1955  5.3440
  964MOL0     H27244   3.060   9.178   9.647  3.0367 -1.9899 -2.1239
  964MOL0     H27245   3.001   9.075   9.526 -1.8567  0.2224  2.3421
  964MOL0     H27246   3.192   9.378   9.299 -0.5080  1.0749 -0.0895
  964MOL0     H27247   2.395   9.416   9.592  5.1075 -1.0012  0.5987
  964MOL0     H27248   2.158   9.412   9.697 -2.3758 -0.7551 -1.0721
  965MOL0     O27249  10.518  10.651   0.829  0.0026  0.6767  0.0578
  965MOL0     C27250  10.580  10.549   0.792  0.5455 -0.2755  0.7641
  965MOL0     O27251  10.633  10.529   0.661 -0.0809 -0.1994 -0.7935
  965MOL0     C27252  10.581  10.600   0.556 -0.1772  0.4065  0.1780
  965MOL0     C27253  10.666  10.648   0.455 -0.0508 -0.4856  0.2048
  965MOL0     C27254  10.615  10.704   0.330  0.7088 -0.6350  0.3631
  965MOL0     C27255  10.476  10.732   0.321 -0.5061 -0.5941  0.0989
  965MOL0     O27256  10.443  10.808   0.208  0.0000  0.0562  0.6790
  965MOL0     C27257  10.309  10.857   0.184 -0.7383 -0.2749  0.0390
  965MOL0     C27258  10.250  10.788   0.061  0.4334 -0.0470  0.0620
  965MOL0     C27259  10.219  10.640   0.080 -0.2646 -0.1010  1.1378
  965MOL0     C27260  10.108  10.614   0.172 -0.4251 -0.4391 -0.4812
  965MOL0     C27261  10.045  10.477   0.170 -0.4107  0.9423  1.0138
  965MOL0     C27262  10.123  10.359   0.228 -0.4208 -0.3323  0.6661
  965MOL0     C27263  10.143  10.368   0.383 -0.5023  0.4156 -0.3628
  965MOL0     C27264  10.009  10.358   0.456  0.1150  0.3861 -0.0882
  965MOL0     N27265   9.929  10.230   0.440  0.6044  0.4430  0.1166
  965MOL0     C27266   9.984  10.108   0.449 -0.6341  0.7766 -0.4955
  965MOL0     C27267   9.876  10.020   0.470 -0.0716 -0.0283  0.3380
  965MOL0     C27268   9.883   9.871   0.485 -0.5993 -0.1169 -0.5517
  965MOL0     C27269   9.763   9.821   0.402 -0.4512  0.7678 -0.0442
  965MOL0     C27270   9.732   9.667   0.413  0.5579  0.5534 -0.3748
  965MOL0     C27271   9.589   9.636   0.352  0.2219  0.4539  0.4995
  965MOL0     O27272   9.597   9.669   0.212  0.3749 -0.3163 -0.0838
  965MOL0     C27273   9.480   9.691   0.134 -0.1013 -0.5199 -1.1013
  965MOL0     C27274   9.352   9.721   0.188  0.6391 -0.3086 -0.5876
  965MOL0     C27275   9.255   9.785   0.121  0.2670  0.4499  0.8801
  965MOL0     C27276   9.275   9.806  -0.018  0.0667 -0.5325 -0.5626
  965MOL0     C27277   9.158   9.853  -0.101 -0.0076 -0.7231  0.9058
  965MOL0     O27278   9.041   9.875  -0.040 -0.3567  0.2480 -0.2503
  965MOL0     C27279   8.924   9.905  -0.106 -0.7757  0.0163  1.0366
  965MOL0     C27280   8.857  10.026  -0.074  0.2501 -0.2531 -0.6023
  965MOL0     C27281   8.731  10.054  -0.126 -0.2730 -0.0495  0.0563
  965MOL0     C27282   8.676   9.962  -0.228  0.6393 -0.2920 -0.1593
  965MOL0     O27283   8.546   9.982  -0.279 -0.6066 -0.3471  0.4155
  965MOL0     C27284   8.470   9.862  -0.277  0.5021 -0.5654 -0.9113
  965MOL0     C27285   8.323   9.900  -0.302  0.0484  0.5395 -0.6727
  965MOL0     C27286   8.224   9.794  -0.275  0.6690  0.4712  0.3921
  965MOL0     C27287   8.083   9.833  -0.245  0.0201 -1.0778  0.6007
  965MOL0     C27288   8.038   9.939  -0.349  0.1135  0.2267  0.1634
  965MOL0     C27289   7.890   9.951  -0.357  0.3266  0.2728 -0.2383
  965MOL0     C27290   7.847   9.996  -0.215  0.6711 -0.1925 -0.5043
  965MOL0     C27291   7.733   9.922  -0.148  0.3800  0.1674 -0.7478
  965MOL0    Cl27292   7.600   9.837  -0.252 -0.0791 -0.1947 -0.6210
  965MOL0     C27293   8.747   9.846  -0.260  0.1883  0.0157  0.0830
  965MOL0     C27294   8.871   9.816  -0.207  0.5247 -1.2259  0.3504
  965MOL0     O27295   9.170   9.866  -0.221  0.1142  0.3952  0.7131
  965MOL0     C27296   9.390   9.759  -0.077  0.1618  0.1454 -0.1454
  965MOL0     C27297   9.500   9.711  -0.003  0.2294 -0.4317 -0.4569
  965MOL0     N27298   9.762  10.098   0.456 -0.5898 -0.1885 -0.3906
  965MOL0     N27299   9.790  10.223   0.445 -0.5027 -1.1700  0.5785
  965MOL0     C27300  10.394  10.679   0.423  0.6440  0.4027 -0.1863
  965MOL0     C27301  10.444  10.608   0.531  0.7722  0.0226 -0.6258
  965MOL0     C27302  10.602  10.443   0.892 -1.1931 -0.3352  0.1215
  965MOL0     C27303  10.598  10.463   1.032 -0.0350  0.1707 -0.1318
  965MOL0     C27304  10.612  10.349   1.116 -0.8856 -0.3014  0.3922
  965MOL0     C27305  10.618  10.221   1.066 -0.5037 -0.3609 -0.1455
  965MOL0     O27306  10.628  10.119   1.168 -0.1269 -0.4665  0.9004
  965MOL0     C27307  10.631   9.974   1.114 -0.2719  0.1539 -0.4000
  965MOL0     C27308  10.573   9.878   1.226 -0.8164  0.1243  0.9064
  965MOL0     C27309  10.493   9.754   1.177  0.3658 -0.6025 -0.0026
  965MOL0     C27310  10.586   9.648   1.120  0.0048 -0.2019  0.0949
  965MOL0     C27311  10.509   9.541   1.054 -0.4880 -0.8883 -0.2154
  965MOL0     C27312  10.446   9.452   1.001  0.5023  0.0849  0.4825
  965MOL0     C27313  10.633  10.201   0.929 -0.8387 -0.5829 -0.7327
  965MOL0     C27314  10.629  10.309   0.842  1.1673  0.2726 -1.1590
  965MOL0     H27315  10.775  10.642   0.458 -0.1281 -2.2004  0.5374
  965MOL0     H27316  10.669  10.734   0.241 -0.3631 -2.2217 -0.8945
  965MOL0     H27317  10.308  10.966   0.171 -1.6080  0.2174  3.2673
  965MOL0     H27318  10.242  10.837   0.268 -0.5728 -1.2302 -0.0448
  965MOL0     H27319  10.317  10.794  -0.025  1.1342  0.1623  0.6091
  965MOL0     H27320  10.158  10.842   0.039  1.8969  2.4822 -0.2594
  965MOL0     H27321  10.314  10.601   0.117  1.8208 -0.7999 -4.1649
  965MOL0     H27322  10.215  10.589  -0.017  1.3343  1.9947 -0.1123
  965MOL0     H27323  10.132  10.630   0.277  0.5008 -0.9441 -0.6124
  965MOL0     H27324  10.028  10.685   0.148 -0.2749  0.4989  1.5808
  965MOL0     H27325  10.032  10.453   0.064 -0.5544 -1.6150  1.5391
  965MOL0     H27326   9.949  10.489   0.220 -0.9962  1.8646 -0.2780
  965MOL0     H27327  10.221  10.347   0.181 -0.0181  0.1742  1.3517
  965MOL0     H27328  10.065  10.268   0.211 -2.0982  0.8155 -0.0360
  965MOL0     H27329  10.201  10.281   0.414 -0.6793  0.8167  1.1411
  965MOL0     H27330  10.191  10.460   0.420  1.5554 -0.0996 -1.5523
  965MOL0     H27331   9.946  10.439   0.418 -0.5583  2.5787  4.8151
  965MOL0     H27332  10.018  10.376   0.564  1.6983  1.1472 -0.3207
  965MOL0     H27333  10.087  10.073   0.443 -0.6316  0.4298  1.0979
  965MOL0     H27334   9.874   9.845   0.591  1.6558 -2.0063 -0.7284
  965MOL0     H27335   9.974   9.827   0.443 -0.9719  0.2544 -1.7993
  965MOL0     H27336   9.787   9.839   0.297 -2.5198  0.3650 -0.6411
  965MOL0     H27337   9.672   9.875   0.432 -0.5599  0.3092  0.4702
  965MOL0     H27338   9.806   9.598   0.372 -1.4376 -2.1224  0.2472
  965MOL0     H27339   9.715   9.655   0.520  2.2086  2.6560  0.1853
  965MOL0     H27340   9.514   9.697   0.403 -2.0357 -1.8492  0.1171
  965MOL0     H27341   9.574   9.529   0.370  0.9764 -1.4381 -6.8698
  965MOL0     H27342   9.327   9.694   0.290  1.4062 -0.3331 -0.4057
  965MOL0     H27343   9.160   9.815   0.164  1.2866  3.2092  1.3836
  965MOL0     H27344   8.888  10.097   0.002 -1.0789 -2.2420  1.9704
  965MOL0     H27345   8.685  10.150  -0.105  2.3770  1.8216 -1.9419
  965MOL0     H27346   8.484   9.815  -0.179  1.2432 -0.7356 -1.0935
  965MOL0     H27347   8.491   9.789  -0.356  2.4875 -2.3956  1.1295
  965MOL0     H27348   8.316   9.929  -0.407  0.5411 -1.8287 -1.3969
  965MOL0     H27349   8.299   9.983  -0.234  2.0728 -0.8805  2.0110
  965MOL0     H27350   8.249   9.746  -0.180 -0.6912  0.5804  0.8100
  965MOL0     H27351   8.221   9.717  -0.353  0.7221  2.5807 -1.8354
  965MOL0     H27352   8.016   9.748  -0.251 -0.9833 -0.2931  0.4584
  965MOL0     H27353   8.079   9.868  -0.142 -0.5396 -0.1301  0.2645
  965MOL0     H27354   8.087   9.920  -0.446 -0.2070  0.7442 -0.1051
  965MOL0     H27355   8.081  10.035  -0.317  2.0843 -0.7673  0.6394
  965MOL0     H27356   7.842   9.856  -0.382 -1.7111  0.1506  3.5196
  965MOL0     H27357   7.866  10.028  -0.431 -3.8012 -0.4807  0.0720
  965MOL0     H27358   7.928   9.995  -0.140 -0.9771  0.7593  1.3846
  965MOL0     H27359   7.821  10.102  -0.218  3.9039  0.7409  0.0929
  965MOL0     H27360   7.676   9.993  -0.087  0.7560  0.7582 -1.0688
  965MOL0     H27361   7.782   9.853  -0.078 -1.8392 -3.0363 -2.1579
  965MOL0     H27362   8.712   9.780  -0.339  2.5319  1.4387 -2.3076
  965MOL0     H27363   8.934   9.729  -0.223  1.0466 -0.7435 -0.2513
  965MOL0     H27364   9.416   9.775  -0.181 -0.2538  2.0398  0.0131
  965MOL0     H27365   9.600   9.705  -0.047 -0.0899 -2.6246 -0.9642
  965MOL0     H27366  10.287  10.694   0.425  0.7276  1.0308 -0.3126
  965MOL0     H27367  10.379  10.573   0.611  0.8125  1.8105  0.2363
  965MOL0     H27368  10.579  10.552   1.090  0.5873 -1.3674  2.5799
  965MOL0     H27369  10.598  10.356   1.224  0.2153 -0.9062  0.5957
  965MOL0     H27370  10.729   9.939   1.084 -0.1162  1.3932 -1.4167
  965MOL0     H27371  10.574   9.960   1.022  1.8817 -3.3012 -1.3597
  965MOL0     H27372  10.657   9.846   1.290  0.0191 -1.2116 -0.7783
  965MOL0     H27373  10.502   9.935   1.286 -1.8752  1.0394 -1.1428
  965MOL0     H27374  10.428   9.784   1.094 -2.9552 -2.1184  1.8603
  965MOL0     H27375  10.423   9.705   1.244  0.5154 -3.4936 -1.7978
  965MOL0     H27376  10.648   9.696   1.042 -1.0159  0.9621 -0.0303
  965MOL0     H27377  10.658   9.613   1.195 -0.0554 -0.4139  0.0541
  965MOL0     H27378  10.399   9.374   0.944  0.0647  0.4975  0.2751
  965MOL0     H27379  10.664  10.103   0.896  1.6844 -0.2350  0.3091
  965MOL0     H27380  10.642  10.276   0.739 -1.2983 -1.8238 -0.9041
  966MOL0     O27381   4.413   9.326   6.922 -0.0914 -0.4406  0.1140
  966MOL0     C27382   4.441   9.431   6.861 -1.4088 -0.1083 -0.0168
  966MOL0     O27383   4.347   9.527   6.818  0.4342 -0.0550  0.0092
  966MOL0     C27384   4.219   9.503   6.831  0.3592 -0.3020  0.1664
  966MOL0     C27385   4.143   9.603   6.895 -0.3073 -0.5055 -0.2486
  966MOL0     C27386   4.007   9.586   6.918 -0.6248 -0.4321  0.6107
  966MOL0     C27387   3.941   9.475   6.867  0.9051 -0.1689 -0.5232
  966MOL0     O27388   3.801   9.475   6.879  0.2147  0.2218 -0.6949
  966MOL0     C27389   3.738   9.349   6.892  0.8107  0.4592 -0.2904
  966MOL0     C27390   3.593   9.371   6.924  0.2137  0.2578 -0.3908
  966MOL0     C27391   3.550   9.418   7.067  0.0334 -0.5705  1.0820
  966MOL0     C27392   3.413   9.490   7.064  0.0543  0.6794 -0.2308
  966MOL0     C27393   3.361   9.499   7.209 -0.3203 -0.0840 -0.1086
  966MOL0     C27394   3.220   9.576   7.202  0.0522 -0.7393 -0.9416
  966MOL0     C27395   3.129   9.561   7.326 -0.3796  0.0693 -0.0513
  966MOL0     C27396   3.066   9.433   7.352 -0.0261 -0.5976  0.2783
  966MOL0     N27397   2.958   9.393   7.257  0.5581 -0.6483 -0.2202
  966MOL0     C27398   2.975   9.355   7.128 -0.4867  0.8175 -0.4659
  966MOL0     C27399   2.854   9.363   7.067  0.7723 -0.1385  0.7349
  966MOL0     C27400   2.828   9.312   6.926 -0.1537 -0.2424 -0.1587
  966MOL0     C27401   2.840   9.154   6.917 -0.1109  0.4434 -0.5594
  966MOL0     C27402   2.731   9.082   7.009 -0.2062 -0.0539  0.2207
  966MOL0     C27403   2.595   9.126   6.969 -0.7442 -0.1323  0.6694
  966MOL0     O27404   2.493   9.062   7.039 -0.5254  0.1177 -0.5954
  966MOL0     C27405   2.363   9.110   7.045  0.6324 -0.2846 -0.3274
  966MOL0     C27406   2.271   9.035   7.120 -0.5980 -0.1850  0.9025
  966MOL0     C27407   2.141   9.086   7.124 -0.1816  0.1456  0.3615
  966MOL0     C27408   2.100   9.203   7.062 -0.3541 -0.2916 -0.1795
  966MOL0     C27409   1.962   9.247   7.093  0.0844  0.0509  0.5884
  966MOL0     O27410   1.883   9.175   7.177  0.2570  0.4564  0.0218
  966MOL0     C27411   1.756   9.215   7.207  0.6837  0.1094 -0.1474
  966MOL0     C27412   1.714   9.335   7.262  1.1836 -0.0152 -0.4448
  966MOL0     C27413   1.583   9.367   7.296 -0.0211  0.1019 -0.4168
  966MOL0     C27414   1.481   9.284   7.258 -0.8127 -0.1886 -0.5217
  966MOL0     O27415   1.348   9.307   7.282  0.2488  0.7228  0.7294
  966MOL0     C27416   1.286   9.430   7.251 -0.7662 -0.0483  0.1298
  966MOL0     C27417   1.141   9.405   7.274  0.2936  0.4034  0.7825
  966MOL0     C27418   1.072   9.538   7.309  0.3459 -0.1500  0.7545
  966MOL0     C27419   0.924   9.518   7.323  0.6728  0.7499  0.5387
  966MOL0     C27420   0.882   9.472   7.458 -0.2625 -0.7828 -1.0080
  966MOL0     C27421   0.743   9.408   7.464 -0.2196  0.3209  0.2118
  966MOL0     C27422   0.629   9.512   7.429 -0.6028 -0.0772 -0.2999
  966MOL0     C27423   0.594   9.542   7.277  0.1612  0.1664 -0.5759
  966MOL0    Cl27424   0.431   9.611   7.244 -0.2780 -0.0380 -0.2980
  966MOL0     C27425   1.520   9.159   7.201  0.3073  0.5435  0.1294
  966MOL0     C27426   1.653   9.122   7.183 -0.0193  0.8640  0.5264
  966MOL0     O27427   1.923   9.343   7.024 -0.0353  0.1749  0.8104
  966MOL0     C27428   2.189   9.276   6.978 -0.5876  0.2447 -0.1141
  966MOL0     C27429   2.324   9.227   6.970  0.9993  0.6284 -0.2317
  966MOL0     N27430   2.765   9.409   7.164  0.0889 -0.4795 -0.4856
  966MOL0     N27431   2.830   9.427   7.273 -0.0200 -0.5189  0.5122
  966MOL0     C27432   4.015   9.378   6.798 -0.4184  0.0596 -0.5476
  966MOL0     C27433   4.150   9.395   6.776  0.3600 -0.3346  0.3550
  966MOL0     C27434   4.583   9.460   6.841 -0.8065 -1.1817  0.0524
  966MOL0     C27435   4.674   9.404   6.927 -0.7417  0.2269  0.5221
  966MOL0     C27436   4.815   9.422   6.910  0.2642  0.1518 -0.7063
  966MOL0     C27437   4.855   9.505   6.809 -0.0061  0.2077  0.6975
  966MOL0     O27438   4.994   9.518   6.785 -0.0468  0.2255 -0.2733
  966MOL0     C27439   5.042   9.604   6.887  0.1558 -0.1204  0.2371
  966MOL0     C27440   5.183   9.648   6.845 -0.3492 -0.5700 -0.0890
  966MOL0     C27441   5.190   9.737   6.721  0.5634 -0.5239 -0.0594
  966MOL0     C27442   5.200   9.657   6.590 -0.3367 -0.0665 -0.5435
  966MOL0     C27443   5.199   9.756   6.477  0.4846  0.2215  0.1270
  966MOL0     C27444   5.215   9.851   6.401  0.1986  0.6064  0.2111
  966MOL0     C27445   4.761   9.569   6.724 -0.7623  0.1071 -0.0347
  966MOL0     C27446   4.626   9.549   6.737 -0.3426  0.2004  0.4078
  966MOL0     H27447   4.204   9.691   6.916  1.2665 -1.2865 -1.3288
  966MOL0     H27448   3.942   9.656   6.971 -1.1589 -1.0886  0.8254
  966MOL0     H27449   3.787   9.288   6.969  0.0174  2.1233  1.6442
  966MOL0     H27450   3.743   9.290   6.800 -0.5009  0.8916 -0.6493
  966MOL0     H27451   3.545   9.274   6.905  0.1450  0.3557 -0.7359
  966MOL0     H27452   3.556   9.448   6.855 -0.3634  0.6730  0.3761
  966MOL0     H27453   3.630   9.473   7.116 -1.2576  0.5761  1.9693
  966MOL0     H27454   3.540   9.329   7.129 -0.1083 -0.1035  1.7388
  966MOL0     H27455   3.411   9.591   7.022  0.4525  1.2017  0.9647
  966MOL0     H27456   3.337   9.432   7.010  0.4961  0.8664 -1.0717
  966MOL0     H27457   3.434   9.550   7.273  0.6109 -1.6462  0.1382
  966MOL0     H27458   3.342   9.398   7.247 -4.6388  1.3466  2.1434
  966MOL0     H27459   3.158   9.543   7.117 -0.2040 -0.0825 -1.0125
  966MOL0     H27460   3.241   9.683   7.191  1.2447 -0.8721 -0.0888
  966MOL0     H27461   3.204   9.579   7.405  1.3634  2.7142 -2.1075
  966MOL0     H27462   3.057   9.642   7.313  0.5517  0.6453 -2.0562
  966MOL0     H27463   3.027   9.437   7.454 -0.3949  1.6123  0.1117
  966MOL0     H27464   3.147   9.360   7.356  1.5596  1.1332  2.0032
  966MOL0     H27465   3.074   9.320   7.099  0.5792 -0.2768  3.7386
  966MOL0     H27466   2.910   9.355   6.867  1.6021 -0.6047  1.8732
  966MOL0     H27467   2.732   9.344   6.885  0.6207  0.0962 -1.8267
  966MOL0     H27468   2.937   9.120   6.955 -0.9897  1.2669  2.7445
  966MOL0     H27469   2.829   9.122   6.813 -0.3947  0.3009 -0.4879
  966MOL0     H27470   2.741   8.974   6.991 -1.4640 -0.1913  0.2446
  966MOL0     H27471   2.741   9.095   7.117 -1.3347 -1.3211  0.5053
  966MOL0     H27472   2.576   9.109   6.863 -2.9724  1.6458  0.7185
  966MOL0     H27473   2.585   9.234   6.986 -1.7589  0.0413 -0.8718
  966MOL0     H27474   2.314   8.945   7.161 -1.1222  0.0415  1.9892
  966MOL0     H27475   2.076   9.031   7.191 -0.4288 -1.2631 -0.9800
  966MOL0     H27476   1.790   9.410   7.282  0.4144  0.5168  0.6295
  966MOL0     H27477   1.564   9.458   7.353  1.4972 -1.5748  3.0710
  966MOL0     H27478   1.292   9.458   7.145 -1.8404 -0.4980 -0.0671
  966MOL0     H27479   1.326   9.510   7.314 -2.0937  0.7068  0.0717
  966MOL0     H27480   1.128   9.342   7.362  0.7447  4.0983  3.6964
  966MOL0     H27481   1.100   9.360   7.182 -0.2123 -0.5723  1.4664
  966MOL0     H27482   1.096   9.612   7.232 -1.6911 -0.2788 -0.0802
  966MOL0     H27483   1.114   9.579   7.402 -1.8128  1.4949  1.0794
  966MOL0     H27484   0.867   9.605   7.289 -0.6079 -0.5471 -0.7914
  966MOL0     H27485   0.891   9.435   7.260 -1.6848 -0.7230  3.4788
  966MOL0     H27486   0.883   9.552   7.533 -4.0820 -0.0790 -1.4929
  966MOL0     H27487   0.954   9.399   7.496 -2.6288 -2.1121  1.2952
  966MOL0     H27488   0.732   9.369   7.566  0.4286 -0.2132  0.0862
  966MOL0     H27489   0.720   9.329   7.392 -1.7634 -0.0442  1.0498
  966MOL0     H27490   0.544   9.454   7.467 -1.2282  0.0728 -1.4269
  966MOL0     H27491   0.659   9.594   7.494  0.3816 -2.2972  2.2296
  966MOL0     H27492   0.610   9.449   7.223 -1.9634 -1.6595  1.7124
  966MOL0     H27493   0.667   9.616   7.241 -3.0096  3.5598 -0.6704
  966MOL0     H27494   1.441   9.086   7.184  1.2975  0.0148 -2.5849
  966MOL0     H27495   1.677   9.022   7.151  2.0828  0.7012  2.3737
  966MOL0     H27496   2.159   9.365   6.924 -0.7926 -0.5167 -1.3010
  966MOL0     H27497   2.403   9.267   6.907  0.1161  1.6262 -0.7445
  966MOL0     H27498   3.968   9.302   6.737  1.3666 -0.7084 -1.0405
  966MOL0     H27499   4.212   9.324   6.722  0.5163 -0.8046  1.1420
  966MOL0     H27500   4.640   9.356   7.018 -2.2327  3.5647  1.8927
  966MOL0     H27501   4.888   9.371   6.973  0.2286  0.2244 -0.6059
  966MOL0     H27502   5.043   9.548   6.981 -1.6278 -0.6670 -0.0272
  966MOL0     H27503   4.984   9.694   6.909  0.3170 -0.4804  2.3062
  966MOL0     H27504   5.215   9.693   6.939 -1.8841 -0.7432  0.5466
  966MOL0     H27505   5.247   9.562   6.822  1.0370  1.1877 -3.5178
  966MOL0     H27506   5.279   9.799   6.736 -0.0150  0.2616  0.2338
  966MOL0     H27507   5.108   9.809   6.723  1.7358  0.9072  2.6665
  966MOL0     H27508   5.290   9.599   6.569 -2.3339 -3.1548 -1.1173
  966MOL0     H27509   5.120   9.582   6.581  3.1167 -4.1292 -0.3758
  966MOL0     H27510   5.230   9.938   6.340  1.3853  1.3366  1.5017
  966MOL0     H27511   4.793   9.648   6.656  0.2035  0.1385  0.4389
  966MOL0     H27512   4.559   9.603   6.671  0.2465  1.1827  0.5876
  967MOL0     O27513   4.429   4.897   9.156  0.5974 -0.1314  0.0301
  967MOL0     C27514   4.427   4.918   9.281  0.4511  0.0285  0.3760
  967MOL0     O27515   4.310   4.930   9.354  0.2959 -0.7317  0.3416
  967MOL0     C27516   4.193   4.929   9.281  0.6879  0.8516  0.5391
  967MOL0     C27517   4.145   5.042   9.217 -0.0298 -0.4042 -0.2616
  967MOL0     C27518   4.022   5.029   9.160 -0.4051  0.2697 -0.3343
  967MOL0     C27519   3.936   4.916   9.168  0.0681  0.2026 -0.4761
  967MOL0     O27520   3.812   4.926   9.109  0.6045 -0.3567 -0.0433
  967MOL0     C27521   3.725   4.812   9.117 -0.7086 -0.1175 -0.3695
  967MOL0     C27522   3.581   4.853   9.066 -0.0088  0.8177 -0.0028
  967MOL0     C27523   3.462   4.765   9.111  0.4785  0.7121 -0.4392
  967MOL0     C27524   3.482   4.610   9.086 -0.6361  0.4720  0.2575
  967MOL0     C27525   3.355   4.537   9.107  0.0713  0.5649 -0.1066
  967MOL0     C27526   3.275   4.575   9.237  0.2410 -0.0272  0.2595
  967MOL0     C27527   3.167   4.463   9.266  0.5092  0.3883  0.5122
  967MOL0     C27528   3.043   4.527   9.334 -0.0300  0.6018  0.2888
  967MOL0     N27529   2.950   4.426   9.380  0.5251  0.5203  0.4782
  967MOL0     C27530   2.881   4.434   9.505 -0.1544 -1.5260  1.0269
  967MOL0     C27531   2.750   4.389   9.482  0.1381 -0.2008  0.5009
  967MOL0     C27532   2.638   4.397   9.585 -0.4723  0.3458 -0.1537
  967MOL0     C27533   2.525   4.299   9.558  0.1745  0.3700 -0.1207
  967MOL0     C27534   2.396   4.320   9.635  0.0646 -0.0923 -0.7132
  967MOL0     C27535   2.275   4.251   9.581  0.3486 -0.3480 -0.2474
  967MOL0     O27536   2.172   4.304   9.671  0.1074 -0.2578  0.9206
  967MOL0     C27537   2.046   4.265   9.637 -0.2447  0.9902  0.2230
  967MOL0     C27538   2.005   4.199   9.523  0.4710  0.3264  0.2332
  967MOL0     C27539   1.867   4.161   9.512 -0.1504 -0.1429  0.7581
  967MOL0     C27540   1.771   4.185   9.611 -1.5973 -0.6277  0.0343
  967MOL0     C27541   1.628   4.146   9.613 -0.2325  0.2803  0.5688
  967MOL0     O27542   1.546   4.203   9.716  0.0178 -0.0909  0.7470
  967MOL0     C27543   1.413   4.170   9.729 -0.0672  1.2607  0.4451
  967MOL0     C27544   1.370   4.035   9.708 -0.6126  0.4325  0.3247
  967MOL0     C27545   1.229   4.004   9.709 -0.3357 -0.1345  0.2594
  967MOL0     C27546   1.142   4.107   9.746  0.1134 -0.5223 -0.1986
  967MOL0     O27547   1.015   4.065   9.755 -0.2959 -0.2636 -0.5100
  967MOL0     C27548   0.960   4.063   9.885  0.1488  0.5098 -0.5336
  967MOL0     C27549   0.962   3.917   9.929  0.9585 -0.4554 -0.2127
  967MOL0     C27550   0.869   3.889  10.046  1.4387 -0.3845  0.2106
  967MOL0     C27551   0.717   3.895  10.013 -0.0063 -0.2509  0.7402
  967MOL0     C27552   0.618   3.842  10.117 -0.5144 -0.0775  0.1398
  967MOL0     C27553   0.630   3.691  10.142 -0.7894  1.3588  0.1350
  967MOL0     C27554   0.505   3.633  10.214 -1.4005  0.4883  0.1590
  967MOL0     C27555   0.385   3.608  10.130 -0.3015  0.3140  1.1705
  967MOL0    Cl27556   0.401   3.529   9.969  0.3018 -0.5435 -0.1594
  967MOL0     C27557   1.185   4.238   9.783 -0.2506  0.0253  0.5479
  967MOL0     C27558   1.315   4.262   9.774 -0.5054  0.7155  0.2647
  967MOL0     O27559   1.589   4.079   9.522 -0.2397  0.4851 -0.4191
  967MOL0     C27560   1.821   4.253   9.724 -0.2443 -0.5051 -0.6912
  967MOL0     C27561   1.952   4.299   9.739  0.4814  0.5558  0.4926
  967MOL0     N27562   2.752   4.340   9.351  0.1050  0.3027 -0.8756
  967MOL0     N27563   2.872   4.359   9.291  0.0464  0.8709 -0.0593
  967MOL0     C27564   3.996   4.803   9.226  0.9933 -0.6100 -0.7783
  967MOL0     C27565   4.121   4.805   9.281 -0.2063 -0.1044  0.2088
  967MOL0     C27566   4.556   4.930   9.353  0.3157 -0.8344  0.1563
  967MOL0     C27567   4.677   4.970   9.295  0.3847  1.1967 -0.0978
  967MOL0     C27568   4.795   4.987   9.367 -0.2494 -0.4614  0.9548
  967MOL0     C27569   4.800   4.974   9.501 -0.0716 -0.3822 -0.2510
  967MOL0     O27570   4.909   4.987   9.579  0.3408  0.8903 -0.4774
  967MOL0     C27571   4.978   5.110   9.571  0.0908 -0.2188 -0.1776
  967MOL0     C27572   5.038   5.155   9.704 -0.1966 -0.8687 -0.5330
  967MOL0     C27573   4.934   5.217   9.799  0.3487 -0.6275  0.3739
  967MOL0     C27574   4.983   5.254   9.937 -0.3731  0.3264 -0.2494
  967MOL0     C27575   4.897   5.240  10.051  0.2552 -0.3928  0.2587
  967MOL0     C27576   4.814   5.230  10.138  0.5089  0.2389  0.0053
  967MOL0     C27577   4.691   4.922   9.569 -0.2340  0.1065 -0.0242
  967MOL0     C27578   4.572   4.902   9.495  0.4553 -1.0312  0.3945
  967MOL0     H27579   4.214   5.125   9.214  1.7329 -1.7875  0.3706
  967MOL0     H27580   3.980   5.116   9.110  0.3878  0.6549 -0.3384
  967MOL0     H27581   3.720   4.781   9.222 -0.5372 -1.0909 -0.6396
  967MOL0     H27582   3.774   4.731   9.064  1.3169  1.1878 -0.5868
  967MOL0     H27583   3.590   4.861   8.957  3.5610 -2.4947 -0.1436
  967MOL0     H27584   3.558   4.945   9.121  1.7544  0.7131  0.9628
  967MOL0     H27585   3.376   4.803   9.055  1.2052  2.7949 -0.2460
  967MOL0     H27586   3.458   4.771   9.220 -1.5762  1.0377 -0.4990
  967MOL0     H27587   3.514   4.590   8.983 -0.3867 -0.8353  0.5774
  967MOL0     H27588   3.553   4.566   9.156 -1.1010 -1.2226 -0.2942
  967MOL0     H27589   3.379   4.431   9.114 -1.1679  0.2420 -0.3639
  967MOL0     H27590   3.280   4.541   9.027 -0.2753 -0.6682  0.1380
  967MOL0     H27591   3.221   4.666   9.213  0.3680  0.0698  0.3428
  967MOL0     H27592   3.349   4.592   9.316  0.9255 -0.7640 -0.2118
  967MOL0     H27593   3.139   4.428   9.166  2.8385  0.0246 -0.0689
  967MOL0     H27594   3.204   4.377   9.323 -0.7392  1.1037  2.5460
  967MOL0     H27595   2.990   4.585   9.258 -1.4352  1.2810  1.7117
  967MOL0     H27596   3.085   4.579   9.420  0.1346 -0.3883  0.8247
  967MOL0     H27597   2.925   4.492   9.585  0.6312  2.1661 -1.8071
  967MOL0     H27598   2.608   4.502   9.591  3.3676  1.5141  1.9224
  967MOL0     H27599   2.687   4.377   9.681 -2.2855 -1.4908  0.4657
  967MOL0     H27600   2.558   4.196   9.574  0.3802 -0.1796 -3.3593
  967MOL0     H27601   2.494   4.310   9.453  0.4322  1.4430 -0.0957
  967MOL0     H27602   2.415   4.282   9.735 -2.4956  0.2118 -0.0285
  967MOL0     H27603   2.381   4.428   9.629  2.6434  0.3203 -0.9271
  967MOL0     H27604   2.284   4.142   9.588 -1.2138 -0.4320  1.0502
  967MOL0     H27605   2.251   4.280   9.478 -1.2263 -0.2416  0.1295
  967MOL0     H27606   2.063   4.167   9.437  0.1925  1.7112 -0.4931
  967MOL0     H27607   1.835   4.107   9.423 -2.0551  0.4617  1.0279
  967MOL0     H27608   1.443   3.957   9.687  0.1682  0.9387  1.0801
  967MOL0     H27609   1.179   3.914   9.674 -3.1014  1.6552 -0.7809
  967MOL0     H27610   0.857   4.098   9.871 -0.0594  1.0779  1.9516
  967MOL0     H27611   1.008   4.132   9.954 -0.7961 -0.8288  1.5608
  967MOL0     H27612   1.065   3.889   9.954  0.8915  0.5404  1.2418
  967MOL0     H27613   0.925   3.847   9.853 -1.9274  0.1882  0.4791
  967MOL0     H27614   0.884   3.959  10.128 -2.4131 -1.9503  2.5361
  967MOL0     H27615   0.911   3.792  10.074 -0.5632 -1.2641  0.3806
  967MOL0     H27616   0.690   4.000   9.995  1.7598  0.1369  0.1409
  967MOL0     H27617   0.703   3.846   9.917  4.6385  1.0826 -0.9160
  967MOL0     H27618   0.517   3.865  10.081 -0.5928  0.1304  0.4804
  967MOL0     H27619   0.634   3.894  10.213 -0.0370 -0.3043  0.1858
  967MOL0     H27620   0.715   3.674  10.210  1.2738  1.3982 -2.2679
  967MOL0     H27621   0.650   3.637  10.049 -1.5030  2.2441 -0.5438
  967MOL0     H27622   0.538   3.540  10.262  1.8380  1.7103  0.5159
  967MOL0     H27623   0.483   3.708  10.290  1.2061  1.4523  0.0638
  967MOL0     H27624   0.337   3.706  10.122 -4.3027 -1.4909  0.8403
  967MOL0     H27625   0.309   3.547  10.179 -2.5514 -0.0992 -2.4523
  967MOL0     H27626   1.111   4.311   9.815  0.4434  1.6158 -1.3011
  967MOL0     H27627   1.354   4.362   9.792  0.6427  0.5320 -0.9840
  967MOL0     H27628   1.747   4.276   9.800  0.3520  1.7467 -0.7267
  967MOL0     H27629   1.984   4.343   9.833 -0.5378  0.4688  0.8915
  967MOL0     H27630   3.946   4.710   9.253  1.5021 -0.7569 -0.3010
  967MOL0     H27631   4.159   4.711   9.318  0.0316 -1.4659 -3.1703
  967MOL0     H27632   4.695   4.994   9.191  2.5960  1.3136  0.2758
  967MOL0     H27633   4.885   5.020   9.315 -0.5929 -0.6253  0.2445
  967MOL0     H27634   4.916   5.186   9.523  1.8593  2.3022  1.2868
  967MOL0     H27635   5.071   5.103   9.514  0.0222 -0.2639 -0.2835
  967MOL0     H27636   5.073   5.062   9.749 -1.8212 -1.9787 -1.4556
  967MOL0     H27637   5.124   5.220   9.682 -0.5824  0.7270  2.2508
  967MOL0     H27638   4.864   5.137   9.824 -1.1889  0.8181  0.9237
  967MOL0     H27639   4.878   5.299   9.754 -0.0938 -0.2207  1.6230
  967MOL0     H27640   5.065   5.184   9.957 -0.7418  0.3202  1.3869
  967MOL0     H27641   5.032   5.351   9.930  1.5975 -0.6321 -0.1647
  967MOL0     H27642   4.737   5.211  10.210  1.0130 -0.3723  0.3851
  967MOL0     H27643   4.692   4.907   9.676 -2.0882 -0.9000 -0.1124
  967MOL0     H27644   4.481   4.868   9.543 -0.4889  1.0257  0.1742
  968MOL0     O27645   1.998   5.206   1.056 -0.9410  0.4983 -0.1966
  968MOL0     C27646   2.026   5.192   0.936  0.1353  0.7032 -0.2658
  968MOL0     O27647   1.991   5.079   0.864  0.3126 -0.3310  0.3148
  968MOL0     C27648   1.922   4.980   0.921 -0.2029 -0.8939 -0.2585
  968MOL0     C27649   1.978   4.912   1.025  0.5247 -0.5559  0.0751
  968MOL0     C27650   1.912   4.815   1.100 -0.5662  0.8136 -0.1636
  968MOL0     C27651   1.779   4.784   1.066 -0.0174 -0.3207 -0.2987
  968MOL0     O27652   1.695   4.704   1.140  0.2151 -0.1279  0.0788
  968MOL0     C27653   1.757   4.612   1.232  0.0575  0.4075 -0.8438
  968MOL0     C27654   1.652   4.505   1.277 -0.3532 -0.5224  0.0524
  968MOL0     C27655   1.723   4.390   1.350  0.2964  0.2344  0.2235
  968MOL0     C27656   1.626   4.268   1.381 -1.0231  0.5657 -0.5050
  968MOL0     C27657   1.695   4.194   1.496 -0.1901  0.3719  0.0206
  968MOL0     C27658   1.636   4.057   1.521 -0.1958  0.5143 -0.6040
  968MOL0     C27659   1.722   3.975   1.626 -0.1890 -0.2501  0.4781
  968MOL0     C27660   1.736   3.830   1.587  0.6921 -0.7263  0.7034
  968MOL0     N27661   1.614   3.745   1.593  0.0530  0.3560 -1.1606
  968MOL0     C27662   1.487   3.770   1.545 -0.4113 -0.1402 -0.3265
  968MOL0     C27663   1.415   3.667   1.589 -1.7543 -0.3482 -0.0808
  968MOL0     C27664   1.266   3.660   1.577  0.3736 -0.1934 -0.6342
  968MOL0     C27665   1.218   3.602   1.445 -0.1272  0.9680 -0.6253
  968MOL0     C27666   1.078   3.551   1.438  0.2379  0.7715  0.2774
  968MOL0     C27667   0.969   3.656   1.462 -0.3649 -0.7097  0.0717
  968MOL0     O27668   0.848   3.584   1.487  0.6738 -0.5344 -0.2200
  968MOL0     C27669   0.782   3.626   1.596  0.4319 -0.1559 -0.4284
  968MOL0     C27670   0.670   3.695   1.566  0.0419  0.2307 -0.2859
  968MOL0     C27671   0.572   3.746   1.660  0.2571 -0.2267 -0.0108
  968MOL0     C27672   0.599   3.721   1.795  0.6972  0.1880  0.3209
  968MOL0     C27673   0.519   3.790   1.898  0.7341  0.0238 -0.5145
  968MOL0     O27674   0.567   3.799   2.025  0.2066  0.2057  0.0476
  968MOL0     C27675   0.475   3.824   2.120  0.1046  0.0905  0.7456
  968MOL0     C27676   0.454   3.954   2.168 -0.3809 -0.2193  0.3401
  968MOL0     C27677   0.366   3.984   2.269 -0.0391  0.0876  0.1153
  968MOL0     C27678   0.288   3.886   2.327 -0.4194  0.5408 -0.0396
  968MOL0     O27679   0.179   3.904   2.405 -1.0530 -0.0773 -0.3197
  968MOL0     C27680   0.139   4.031   2.439 -0.2818  0.1813  0.2347
  968MOL0     C27681   0.225   4.076   2.558 -1.2747 -0.4589 -0.5880
  968MOL0     C27682   0.168   4.204   2.617  0.0412 -0.2176 -0.0378
  968MOL0     C27683   0.270   4.254   2.725 -0.4917 -0.7433 -0.2940
  968MOL0     C27684   0.256   4.402   2.762  0.0193 -0.2831  0.3674
  968MOL0     C27685   0.137   4.417   2.859  0.5207  0.5985  0.5498
  968MOL0     C27686   0.112   4.574   2.872  0.3976 -0.6730  0.3780
  968MOL0     C27687   0.004   4.613   2.780 -0.0753  0.5159 -0.4248
  968MOL0    Cl27688  -0.154   4.551   2.818  0.3542 -0.0444  0.1150
  968MOL0     C27689   0.304   3.755   2.282 -0.2435  0.2559 -0.3160
  968MOL0     C27690   0.398   3.720   2.177 -0.1426 -0.2656 -0.4623
  968MOL0     O27691   0.410   3.829   1.866 -0.2156 -0.4903  0.2731
  968MOL0     C27692   0.718   3.654   1.831 -0.0712 -0.6005  0.9386
  968MOL0     C27693   0.798   3.593   1.736  0.5733  0.3883  0.4279
  968MOL0     N27694   1.501   3.574   1.643 -0.7037  0.1797 -0.5679
  968MOL0     N27695   1.620   3.623   1.658  0.3442  0.5573 -0.5790
  968MOL0     C27696   1.716   4.847   0.961  0.2684 -0.4512  0.7407
  968MOL0     C27697   1.789   4.946   0.889  0.8814 -0.4451 -0.0371
  968MOL0     C27698   2.105   5.301   0.874 -0.1239  0.1341  0.0112
  968MOL0     C27699   2.150   5.281   0.745 -0.4213  1.2566  1.0138
  968MOL0     C27700   2.244   5.374   0.686 -0.5091 -0.5443  0.8673
  968MOL0     C27701   2.278   5.490   0.750 -0.2630 -0.2183  0.0166
  968MOL0     O27702   2.376   5.575   0.713 -0.6833 -0.2532  0.0842
  968MOL0     C27703   2.325   5.660   0.610 -0.5901  0.3035  0.9136
  968MOL0     C27704   2.328   5.807   0.642  0.3492  0.3881  0.4792
  968MOL0     C27705   2.457   5.842   0.716 -0.5052 -0.6324  0.0497
  968MOL0     C27706   2.475   5.995   0.733 -0.0135  0.5656  0.8188
  968MOL0     C27707   2.610   6.023   0.777  0.2956  0.0359 -1.0307
  968MOL0     C27708   2.718   6.038   0.822  0.0238  0.4949 -0.3297
  968MOL0     C27709   2.224   5.513   0.873 -0.0177  0.4357  0.1727
  968MOL0     C27710   2.133   5.422   0.941  0.1644  0.4887 -0.1212
  968MOL0     H27711   2.075   4.938   1.065 -0.4391  1.0344  1.5273
  968MOL0     H27712   1.970   4.784   1.187 -3.4756  0.4781  1.7728
  968MOL0     H27713   1.802   4.663   1.317  0.6074 -2.5219  0.7459
  968MOL0     H27714   1.837   4.552   1.189 -0.7661 -2.3228  1.1970
  968MOL0     H27715   1.600   4.449   1.198  0.3171 -2.9824  1.2613
  968MOL0     H27716   1.571   4.550   1.335 -1.4587  2.4247 -3.3867
  968MOL0     H27717   1.762   4.433   1.442 -1.2212 -0.5369  1.2763
  968MOL0     H27718   1.807   4.354   1.290 -0.7841 -2.2500  0.0661
  968MOL0     H27719   1.527   4.312   1.401 -1.4183 -0.0212 -1.1401
  968MOL0     H27720   1.616   4.207   1.291  1.2836  0.8383 -0.9926
  968MOL0     H27721   1.686   4.255   1.586  0.9427 -1.6198  1.5663
  968MOL0     H27722   1.802   4.179   1.475 -0.2331 -0.0983  0.1198
  968MOL0     H27723   1.644   4.008   1.423  2.2015  0.3759 -0.3973
  968MOL0     H27724   1.533   4.066   1.556 -0.5267  0.4722 -1.5382
  968MOL0     H27725   1.823   4.016   1.632  0.2787 -1.3955  0.5669
  968MOL0     H27726   1.683   3.993   1.726 -0.5520  0.5323  0.2038
  968MOL0     H27727   1.821   3.791   1.644  1.8623  0.0153 -0.4595
  968MOL0     H27728   1.763   3.831   1.481  1.2752  1.7193  0.7979
  968MOL0     H27729   1.458   3.857   1.488  1.1323 -0.6146 -1.9036
  968MOL0     H27730   1.237   3.766   1.576  1.7455  0.1936 -1.4894
  968MOL0     H27731   1.227   3.597   1.658 -0.6822 -1.8313 -2.3215
  968MOL0     H27732   1.282   3.521   1.410 -1.8560  0.1251 -1.9762
  968MOL0     H27733   1.241   3.679   1.371 -0.1127 -2.0333 -4.0265
  968MOL0     H27734   1.060   3.517   1.335 -1.1933  1.8574  0.1320
  968MOL0     H27735   1.062   3.468   1.507  2.7858 -1.3013 -1.4382
  968MOL0     H27736   0.949   3.711   1.370 -0.4118  1.5892  1.3876
  968MOL0     H27737   1.002   3.723   1.541  2.3138 -1.6691 -0.1171
  968MOL0     H27738   0.642   3.716   1.463 -0.5527 -1.4231 -0.4813
  968MOL0     H27739   0.487   3.803   1.624  2.1081  2.3330 -0.6204
  968MOL0     H27740   0.511   4.041   2.136  2.0925 -1.6953  0.4809
  968MOL0     H27741   0.347   4.089   2.291  0.9821 -0.0750  2.0142
  968MOL0     H27742   0.037   4.018   2.475 -0.5545  2.1561  0.3253
  968MOL0     H27743   0.141   4.091   2.347  2.6220  0.8094  0.6077
  968MOL0     H27744   0.328   4.099   2.532 -1.0942  3.6099  2.6081
  968MOL0     H27745   0.237   4.001   2.637 -0.3447 -0.1922 -0.4659
  968MOL0     H27746   0.076   4.179   2.671  0.6550  2.1245  2.2372
  968MOL0     H27747   0.156   4.280   2.539  2.8919 -0.4068 -0.7821
  968MOL0     H27748   0.268   4.192   2.815  3.6312 -0.0045  0.5299
  968MOL0     H27749   0.373   4.244   2.688 -0.7165  2.5891 -2.1710
  968MOL0     H27750   0.233   4.465   2.676 -2.5179 -0.9214  0.4972
  968MOL0     H27751   0.344   4.437   2.818 -1.1599  1.8217  1.0429
  968MOL0     H27752   0.172   4.370   2.951  0.5320 -0.7932 -0.1252
  968MOL0     H27753   0.053   4.357   2.821 -0.2463  1.3110  1.1092
  968MOL0     H27754   0.078   4.600   2.973 -2.6472  1.1951 -0.9613
  968MOL0     H27755   0.209   4.621   2.855  1.3035 -2.2187  1.0001
  968MOL0     H27756   0.027   4.587   2.677  1.1712  1.6938 -0.4580
  968MOL0     H27757  -0.001   4.722   2.783  1.2144  0.5792  1.0132
  968MOL0     H27758   0.232   3.679   2.313 -0.2090  0.3352 -0.0322
  968MOL0     H27759   0.405   3.618   2.139 -1.6912 -1.3174  1.8027
  968MOL0     H27760   0.737   3.646   1.937  0.3981 -2.3412  0.7571
  968MOL0     H27761   0.880   3.532   1.773 -0.4124 -0.4843  1.2295
  968MOL0     H27762   1.611   4.827   0.948  0.0909 -1.0579  2.7128
  968MOL0     H27763   1.745   4.988   0.799  2.1848  0.4848 -0.2791
  968MOL0     H27764   2.126   5.186   0.698 -0.8273  1.0437  1.6449
  968MOL0     H27765   2.288   5.361   0.588 -1.6940  2.0171 -0.0930
  968MOL0     H27766   2.224   5.632   0.579  0.1589  0.9803 -2.5257
  968MOL0     H27767   2.399   5.657   0.530  0.5239  1.6271  1.8322
  968MOL0     H27768   2.308   5.867   0.553 -3.2947  0.1044  0.9685
  968MOL0     H27769   2.237   5.817   0.702  0.5877  0.9532  0.7517
  968MOL0     H27770   2.541   5.800   0.660 -0.1089  0.2971 -0.0682
  968MOL0     H27771   2.454   5.793   0.814 -1.8262  0.2590  0.4785
  968MOL0     H27772   2.462   6.044   0.636 -0.4780  0.7592  0.9719
  968MOL0     H27773   2.400   6.037   0.802 -1.2501 -0.7173  0.3028
  968MOL0     H27774   2.818   6.069   0.844 -0.7294  2.2416  0.9402
  968MOL0     H27775   2.271   5.602   0.914  0.4233 -0.7038  2.3087
  968MOL0     H27776   2.087   5.434   1.039 -0.7789  2.1962 -0.7314
  969MOL0     O27777   0.172   0.425  10.072 -0.0398 -0.3004  0.4636
  969MOL0     C27778   0.238   0.348  10.010 -0.0783 -1.1272  0.2458
  969MOL0     O27779   0.195   0.232   9.964 -0.3373  0.0335 -0.1966
  969MOL0     C27780   0.069   0.186   9.965 -0.4995 -0.9334 -0.3074
  969MOL0     C27781  -0.032   0.261   9.909 -0.0881 -0.6257 -1.1282
  969MOL0     C27782  -0.161   0.206   9.906 -0.2556  0.3585  0.4959
  969MOL0     C27783  -0.186   0.085   9.976 -0.1777  0.1457 -0.6443
  969MOL0     O27784  -0.312   0.034   9.973  0.3090 -0.7490 -0.1282
  969MOL0     C27785  -0.380   0.033   9.847 -0.0365 -0.3142  0.3761
  969MOL0     C27786  -0.497  -0.057   9.857  0.1372  0.0286 -0.0732
  969MOL0     C27787  -0.454  -0.199   9.851 -0.2363 -0.0278 -0.9046
  969MOL0     C27788  -0.380  -0.261   9.976  0.1355 -0.0186  0.3653
  969MOL0     C27789  -0.474  -0.275  10.094 -0.0411  0.0338 -0.4281
  969MOL0     C27790  -0.566  -0.394  10.091 -0.3214 -0.0601 -0.7067
  969MOL0     C27791  -0.641  -0.420  10.216  0.6405 -0.3269 -0.2477
  969MOL0     C27792  -0.674  -0.569  10.238 -0.0398 -0.2027  0.0581
  969MOL0     N27793  -0.752  -0.645  10.135 -0.5323  0.0758  0.4398
  969MOL0     C27794  -0.843  -0.598  10.037  0.4159 -0.4417 -0.2640
  969MOL0     C27795  -0.899  -0.706   9.979 -1.0108  0.8398  0.1297
  969MOL0     C27796  -1.003  -0.703   9.879  0.3145  0.7616  0.6434
  969MOL0     C27797  -1.145  -0.691   9.929 -0.4326  0.2128  0.3425
  969MOL0     C27798  -1.238  -0.673   9.809  0.2407  0.6828  0.9011
  969MOL0     C27799  -1.380  -0.642   9.858  0.5338 -0.2710 -0.2820
  969MOL0     O27800  -1.473  -0.648   9.749 -0.5326  0.2972 -0.1133
  969MOL0     C27801  -1.597  -0.589   9.767  0.1289  0.3371  0.1875
  969MOL0     C27802  -1.647  -0.531   9.887 -0.5179 -0.1911  0.0202
  969MOL0     C27803  -1.775  -0.483   9.888  0.3407 -0.1129 -0.4340
  969MOL0     C27804  -1.849  -0.463   9.770 -0.1309 -0.5046  0.1934
  969MOL0     C27805  -1.973  -0.389   9.763  0.1249 -0.3521 -0.5224
  969MOL0     O27806  -2.046  -0.413   9.652 -0.1239 -0.2814 -0.0184
  969MOL0     C27807  -2.144  -0.319   9.627  0.1828 -0.2283 -0.4924
  969MOL0     C27808  -2.267  -0.322   9.679 -0.2849  0.2070 -0.5183
  969MOL0     C27809  -2.353  -0.223   9.640 -0.1218 -0.2085  0.1958
  969MOL0     C27810  -2.312  -0.119   9.553  0.2483 -0.0691 -0.0730
  969MOL0     O27811  -2.423  -0.043   9.521 -1.0578 -0.0579 -0.2054
  969MOL0     C27812  -2.394   0.084   9.460  0.3027 -0.4389 -0.0496
  969MOL0     C27813  -2.527   0.160   9.456 -0.7979  0.0126 -0.1950
  969MOL0     C27814  -2.610   0.106   9.338  0.2190 -0.1299 -1.6114
  969MOL0     C27815  -2.752   0.170   9.333 -0.5442 -0.5421  0.1204
  969MOL0     C27816  -2.818   0.092   9.223 -0.6268  0.6000 -1.2738
  969MOL0     C27817  -2.933   0.169   9.176  0.1570  0.4574 -0.1013
  969MOL0     C27818  -2.992   0.084   9.061  0.1802  0.0505 -0.2268
  969MOL0     C27819  -3.119   0.143   9.007  0.4138  0.1305 -0.7371
  969MOL0    Cl27820  -3.253   0.133   9.127 -0.0833  0.0159 -0.4089
  969MOL0     C27821  -2.178  -0.111   9.507  0.9498  0.0734  0.3440
  969MOL0     C27822  -2.095  -0.217   9.539 -0.2974 -0.3643 -0.0080
  969MOL0     O27823  -2.005  -0.320   9.859 -0.2617 -0.1629 -0.7326
  969MOL0     C27824  -1.793  -0.508   9.649 -0.1093 -0.1603  0.1497
  969MOL0     C27825  -1.665  -0.572   9.646  0.1482 -0.4068 -0.1277
  969MOL0     N27826  -0.826  -0.816  10.017  0.9736  0.3509  0.1200
  969MOL0     N27827  -0.738  -0.778  10.103  0.0345  0.6556  0.2439
  969MOL0     C27828  -0.075   0.004  10.022  0.0989 -0.3104 -0.0636
  969MOL0     C27829   0.053   0.067  10.026  0.8488  0.6680 -0.4424
  969MOL0     C27830   0.388   0.373   9.994 -0.4755  1.3991 -0.2804
  969MOL0     C27831   0.458   0.485  10.048  0.5754  0.0239  0.5067
  969MOL0     C27832   0.595   0.500  10.049 -0.3536  0.2247  0.0885
  969MOL0     C27833   0.673   0.389  10.016  0.7037 -0.0500 -0.4995
  969MOL0     O27834   0.811   0.393  10.052  0.6681 -0.4191  0.1958
  969MOL0     C27835   0.889   0.274  10.038 -0.7028 -0.6423  1.3864
  969MOL0     C27836   1.025   0.274  10.110 -0.0976 -0.2902  0.4167
  969MOL0     C27837   1.031   0.240  10.262  1.1140 -0.8200  0.1496
  969MOL0     C27838   1.123   0.125  10.299 -0.7972 -0.3759  0.4191
  969MOL0     C27839   1.135   0.128  10.445  0.3813  0.0008 -0.2070
  969MOL0     C27840   1.139   0.129  10.569 -0.6146 -0.2289  0.9567
  969MOL0     C27841   0.607   0.273   9.967 -0.2846  0.4591 -0.0500
  969MOL0     C27842   0.467   0.262   9.960  0.1465  0.6969  0.6194
  969MOL0     H27843  -0.019   0.359   9.865  0.4413 -0.5791 -0.8704
  969MOL0     H27844  -0.243   0.249   9.850 -1.5702 -2.1355  0.3520
  969MOL0     H27845  -0.317   0.003   9.764  2.4275 -1.0801  2.4096
  969MOL0     H27846  -0.423   0.126   9.808  2.2961 -0.3076 -2.4528
  969MOL0     H27847  -0.558  -0.037   9.768  2.7000  2.5758 -1.3921
  969MOL0     H27848  -0.562  -0.033   9.942 -1.3332  1.4897 -1.5507
  969MOL0     H27849  -0.384  -0.210   9.768 -0.0801  1.1684 -0.9495
  969MOL0     H27850  -0.537  -0.268   9.834  0.7302 -1.8465  1.1552
  969MOL0     H27851  -0.348  -0.363   9.954 -0.9417 -0.4618  0.7440
  969MOL0     H27852  -0.297  -0.198  10.006 -1.4148  3.1135 -1.4614
  969MOL0     H27853  -0.538  -0.186  10.095 -0.0265  0.0674 -1.4464
  969MOL0     H27854  -0.401  -0.271  10.176  1.7025  2.8476 -1.9169
  969MOL0     H27855  -0.493  -0.475  10.093  1.2979  1.3398 -0.7691
  969MOL0     H27856  -0.627  -0.390  10.001 -1.8017 -1.4760  0.1834
  969MOL0     H27857  -0.577  -0.396  10.302  1.1625 -1.2824 -0.3587
  969MOL0     H27858  -0.734  -0.362  10.217  0.4268 -0.6580  1.4157
  969MOL0     H27859  -0.738  -0.569  10.327 -0.0968  0.1728  0.0160
  969MOL0     H27860  -0.582  -0.620  10.267 -0.4473 -1.1752 -0.3161
  969MOL0     H27861  -0.862  -0.492  10.018 -1.3575 -0.8419 -0.9140
  969MOL0     H27862  -0.999  -0.802   9.831 -0.3592  3.1020 -4.9799
  969MOL0     H27863  -0.992  -0.621   9.807 -1.4966 -0.2176 -0.8365
  969MOL0     H27864  -1.134  -0.602   9.993  0.9654  0.9559 -0.8605
  969MOL0     H27865  -1.167  -0.784   9.983  1.9890 -0.0105  1.0911
  969MOL0     H27866  -1.199  -0.598   9.739 -1.4172  1.6834  0.9914
  969MOL0     H27867  -1.248  -0.769   9.757 -0.6575  0.9097  0.6428
  969MOL0     H27868  -1.382  -0.548   9.914 -0.6333 -1.6070  2.1015
  969MOL0     H27869  -1.412  -0.718   9.931 -1.5806  0.7587 -0.0711
  969MOL0     H27870  -1.594  -0.550   9.980  3.5453  3.2706 -1.2713
  969MOL0     H27871  -1.820  -0.449   9.980 -1.2580 -1.0596 -0.8262
  969MOL0     H27872  -2.287  -0.404   9.747 -2.0762  0.4634 -0.6838
  969MOL0     H27873  -2.453  -0.233   9.680  0.0695  3.5849  1.9797
  969MOL0     H27874  -2.357   0.052   9.363  1.9117 -2.1379  1.0622
  969MOL0     H27875  -2.320   0.135   9.522  0.0589  0.4499 -0.4652
  969MOL0     H27876  -2.513   0.268   9.459  1.5216 -0.2048 -1.2345
  969MOL0     H27877  -2.600   0.131   9.533 -1.4730 -1.0279 -1.1933
  969MOL0     H27878  -2.631   0.001   9.363  1.0842  0.2649  1.0524
  969MOL0     H27879  -2.558   0.116   9.243  0.6703 -2.1877 -1.6246
  969MOL0     H27880  -2.802   0.172   9.430  1.2072 -0.1205  1.0493
  969MOL0     H27881  -2.728   0.269   9.295  0.5861 -0.1149  1.8471
  969MOL0     H27882  -2.854   0.000   9.271 -0.4141  0.5923 -1.1239
  969MOL0     H27883  -2.747   0.060   9.147  1.3748 -1.6570  1.2969
  969MOL0     H27884  -2.907   0.266   9.133  1.3133  0.4654  0.5914
  969MOL0     H27885  -3.003   0.191   9.257 -2.0241 -0.0529 -1.7320
  969MOL0     H27886  -2.921   0.089   8.978  0.1855 -0.5738 -0.2658
  969MOL0     H27887  -3.011  -0.017   9.097  0.3977  0.6672  1.7360
  969MOL0     H27888  -3.162   0.095   8.919 -1.9687  2.0531 -0.7318
  969MOL0     H27889  -3.099   0.247   8.978 -2.1679  0.3280 -2.0410
  969MOL0     H27890  -2.134  -0.031   9.448  3.5637 -0.7001  1.0949
  969MOL0     H27891  -1.994  -0.216   9.498 -0.8515  0.3764 -1.4367
  969MOL0     H27892  -1.847  -0.513   9.555 -0.8947 -0.4376  0.5981
  969MOL0     H27893  -1.628  -0.603   9.549 -1.2748 -0.8291 -0.5648
  969MOL0     H27894  -0.093  -0.094  10.066 -3.7215  1.3600  2.5965
  969MOL0     H27895   0.139   0.009  10.058  0.2230 -2.4190 -3.6315
  969MOL0     H27896   0.396   0.563  10.092 -0.2779  0.5465 -1.5398
  969MOL0     H27897   0.646   0.586  10.092 -1.1153  1.3499 -1.2028
  969MOL0     H27898   0.907   0.254   9.932 -3.6244  3.7987 -0.2491
  969MOL0     H27899   0.835   0.192  10.084 -1.9309 -0.4989  0.2565
  969MOL0     H27900   1.082   0.201  10.052  1.2979  2.3046 -1.6827
  969MOL0     H27901   1.059   0.378  10.105 -0.3569 -0.2499 -0.7702
  969MOL0     H27902   0.933   0.202  10.292  0.4848  0.7435  0.1445
  969MOL0     H27903   1.043   0.329  10.324  1.5758 -0.3130 -0.6523
  969MOL0     H27904   1.073   0.030  10.278 -1.2259 -0.0721  0.0540
  969MOL0     H27905   1.220   0.119  10.251 -0.0939  0.6022  1.6587
  969MOL0     H27906   1.141   0.133  10.676 -2.3422 -1.1525  1.0544
  969MOL0     H27907   0.651   0.182   9.927 -2.1657 -0.5392  0.0392
  969MOL0     H27908   0.437   0.159   9.945  1.9833  0.2311 -0.0633
  970MOL0     O27909   5.258   8.504   8.717 -0.0551 -0.4934 -0.1561
  970MOL0     C27910   5.310   8.562   8.809 -1.3435 -0.2453 -0.7509
  970MOL0     O27911   5.259   8.586   8.928  0.1182  0.3724  0.1945
  970MOL0     C27912   5.136   8.538   8.964  0.2946 -0.6491  0.4379
  970MOL0     C27913   5.022   8.574   8.893  0.4752  0.4089  0.3766
  970MOL0     C27914   4.891   8.533   8.921  0.4003  0.0590  0.3980
  970MOL0     C27915   4.882   8.441   9.033  0.2559  0.2818 -0.1944
  970MOL0     O27916   4.759   8.388   9.063  0.2637  0.1343  0.5132
  970MOL0     C27917   4.723   8.341   9.201 -0.4106  0.2046 -0.8453
  970MOL0     C27918   4.586   8.283   9.201 -0.6337 -0.0136  0.1994
  970MOL0     C27919   4.537   8.237   9.341 -0.0935  0.3268 -0.3131
  970MOL0     C27920   4.406   8.155   9.349  0.0150 -0.5351 -0.0135
  970MOL0     C27921   4.276   8.237   9.342  0.3887  0.6709 -0.0078
  970MOL0     C27922   4.160   8.135   9.354 -0.5904  0.2414 -0.3577
  970MOL0     C27923   4.025   8.202   9.325 -0.6912  0.3814 -0.2870
  970MOL0     C27924   3.916   8.102   9.352 -0.2020 -0.5110 -0.6253
  970MOL0     N27925   3.780   8.152   9.331  0.1600 -0.9558 -0.6851
  970MOL0     C27926   3.740   8.288   9.336 -0.8798  0.5038  0.3182
  970MOL0     C27927   3.607   8.285   9.346  0.1948 -0.0914 -0.2525
  970MOL0     C27928   3.518   8.405   9.367 -0.8484 -0.1390  0.1080
  970MOL0     C27929   3.562   8.464   9.499 -0.3371 -0.3521  0.4711
  970MOL0     C27930   3.478   8.580   9.535 -1.3425  0.1223  0.3590
  970MOL0     C27931   3.506   8.633   9.676  0.2131 -0.4238 -0.4796
  970MOL0     O27932   3.421   8.749   9.686 -0.1720  0.2190 -1.2038
  970MOL0     C27933   3.284   8.733   9.719  0.1100 -0.2641  0.8409
  970MOL0     C27934   3.220   8.614   9.761 -1.5316  0.4594 -0.5631
  970MOL0     C27935   3.088   8.612   9.797 -0.2046 -0.3906 -0.3142
  970MOL0     C27936   3.004   8.721   9.797 -0.1336  1.1526  0.9529
  970MOL0     C27937   2.861   8.705   9.798 -0.2969  0.2769 -0.1224
  970MOL0     O27938   2.782   8.818   9.770  0.0690 -0.5936 -0.0039
  970MOL0     C27939   2.649   8.791   9.750 -0.8715  0.4551  0.0310
  970MOL0     C27940   2.574   8.733   9.852 -0.2318  0.8534 -0.4217
  970MOL0     C27941   2.437   8.708   9.841  0.0913 -0.5969  0.2702
  970MOL0     C27942   2.380   8.726   9.719 -0.0221  0.0507 -0.0985
  970MOL0     O27943   2.243   8.709   9.692  0.8239  0.8865  0.4317
  970MOL0     C27944   2.149   8.630   9.767  0.1178  0.0680  0.6037
  970MOL0     C27945   2.038   8.612   9.673 -0.1181  0.5825  0.4846
  970MOL0     C27946   1.950   8.738   9.671  0.2379  0.5215  0.1609
  970MOL0     C27947   1.817   8.704   9.615  0.8638  0.4529 -0.0799
  970MOL0     C27948   1.721   8.822   9.624  0.1208  0.1160  0.6896
  970MOL0     C27949   1.666   8.859   9.774 -0.6640  0.8258  0.1725
  970MOL0     C27950   1.557   8.969   9.770 -0.4356  0.1053  0.5845
  970MOL0     C27951   1.422   8.908   9.745  0.1226 -0.2952 -0.4205
  970MOL0    Cl27952   1.378   8.839   9.901 -0.1002 -0.2161 -0.1189
  970MOL0     C27953   2.459   8.776   9.613  0.0256 -0.1064  0.4866
  970MOL0     C27954   2.591   8.811   9.627 -0.0481  0.6497  0.4321
  970MOL0     O27955   2.820   8.591   9.822  0.1007  0.4154 -0.4574
  970MOL0     C27956   3.065   8.840   9.769  0.4469 -0.4350  0.2755
  970MOL0     C27957   3.201   8.853   9.727 -0.3021  0.2868  0.9210
  970MOL0     N27958   3.566   8.154   9.342  0.0468  0.2401  0.1347
  970MOL0     N27959   3.669   8.081   9.327 -1.1449 -0.2914  0.2138
  970MOL0     C27960   5.000   8.400   9.101  0.4519 -0.3900 -0.5897
  970MOL0     C27961   5.123   8.453   9.077 -0.2565  0.1601 -0.1047
  970MOL0     C27962   5.449   8.612   8.786  0.9569  0.3459  0.0122
  970MOL0     C27963   5.496   8.636   8.658  0.3438 -0.2918 -0.7344
  970MOL0     C27964   5.622   8.696   8.640 -0.3493 -0.0789  0.2026
  970MOL0     C27965   5.701   8.727   8.748 -0.6545 -0.3785 -0.1484
  970MOL0     O27966   5.817   8.792   8.726 -0.0454 -0.4220 -0.5569
  970MOL0     C27967   5.880   8.861   8.838 -0.2959  1.0180 -0.1024
  970MOL0     C27968   6.001   8.927   8.762  0.1243  0.3189  1.1593
  970MOL0     C27969   6.086   9.011   8.861 -0.1977 -0.9164 -0.0306
  970MOL0     C27970   6.227   9.052   8.810  0.0739  0.0082  0.6771
  970MOL0     C27971   6.310   8.936   8.786 -0.4977 -0.2906 -0.4375
  970MOL0     C27972   6.390   8.849   8.759  0.2028  0.1245 -1.0663
  970MOL0     C27973   5.650   8.708   8.878  0.5658 -0.2042  0.2135
  970MOL0     C27974   5.529   8.636   8.893  0.2714 -0.0941  0.1862
  970MOL0     H27975   5.028   8.643   8.810  0.0838 -1.1180 -0.9760
  970MOL0     H27976   4.806   8.548   8.855  0.5456 -0.5084  0.0805
  970MOL0     H27977   4.733   8.429   9.266  1.8238 -0.3737 -0.3293
  970MOL0     H27978   4.786   8.260   9.236 -0.8005  0.3038  0.1196
  970MOL0     H27979   4.589   8.205   9.124 -0.7591  2.6158 -2.6626
  970MOL0     H27980   4.527   8.369   9.167 -1.1414 -0.5870 -0.4051
  970MOL0     H27981   4.528   8.329   9.400 -2.9692  0.6296 -1.0580
  970MOL0     H27982   4.618   8.178   9.384 -1.2138 -0.4210  0.8192
  970MOL0     H27983   4.410   8.080   9.269 -1.4073  2.1878 -2.8429
  970MOL0     H27984   4.399   8.096   9.441  1.2563 -0.8085 -0.0756
  970MOL0     H27985   4.258   8.290   9.248 -1.3401 -3.0716 -1.9939
  970MOL0     H27986   4.279   8.304   9.428  0.1015  0.6697  0.0043
  970MOL0     H27987   4.164   8.111   9.461  2.0702  1.2354 -0.1654
  970MOL0     H27988   4.182   8.047   9.294  0.2598 -0.3183  0.7422
  970MOL0     H27989   4.022   8.288   9.392 -0.8195  1.4736 -1.6522
  970MOL0     H27990   4.025   8.248   9.226  4.6682 -0.3347 -0.9363
  970MOL0     H27991   3.916   8.071   9.457  0.0673  0.6709 -0.2677
  970MOL0     H27992   3.929   8.011   9.293  1.0476 -1.6129  1.2549
  970MOL0     H27993   3.798   8.380   9.333  1.5912 -0.9186 -3.4215
  970MOL0     H27994   3.416   8.367   9.373 -0.5470 -0.8903  0.6307
  970MOL0     H27995   3.535   8.480   9.289  0.6571  0.1258  0.6527
  970MOL0     H27996   3.667   8.496   9.509 -1.3622  3.1094  1.5236
  970MOL0     H27997   3.550   8.396   9.584  0.5060  1.6217  2.2463
  970MOL0     H27998   3.511   8.655   9.462 -0.3640  0.2486  0.9158
  970MOL0     H27999   3.371   8.562   9.521 -1.2080  0.2056 -0.8846
  970MOL0     H28000   3.611   8.663   9.683 -0.3142  2.4269 -2.7627
  970MOL0     H28001   3.491   8.558   9.754 -1.6498  0.1927 -0.2064
  970MOL0     H28002   3.269   8.518   9.768 -3.5399 -0.6398 -0.5974
  970MOL0     H28003   3.044   8.514   9.814 -2.6714  0.1239 -2.8079
  970MOL0     H28004   2.627   8.720   9.945  0.8978  2.2718 -0.8425
  970MOL0     H28005   2.379   8.677   9.928 -0.1024 -0.3749  0.2205
  970MOL0     H28006   2.121   8.681   9.859  0.2538  0.0403  0.6598
  970MOL0     H28007   2.193   8.531   9.778  0.8893  0.1768 -1.2028
  970MOL0     H28008   1.975   8.531   9.709  1.0445  0.3052  2.0026
  970MOL0     H28009   2.074   8.579   9.576 -1.8917  2.5629 -0.9466
  970MOL0     H28010   1.989   8.824   9.615 -1.3013  0.7392 -0.6530
  970MOL0     H28011   1.939   8.770   9.774 -2.3881 -1.6173  0.6589
  970MOL0     H28012   1.825   8.673   9.510 -0.1902  1.7859 -0.5880
  970MOL0     H28013   1.776   8.618   9.668 -0.5630  0.9544 -0.3277
  970MOL0     H28014   1.642   8.813   9.549  0.4822  1.1613  0.1554
  970MOL0     H28015   1.782   8.907   9.593  1.3588 -1.4986 -1.5266
  970MOL0     H28016   1.749   8.895   9.835 -0.3210 -0.3279  0.4240
  970MOL0     H28017   1.624   8.767   9.817 -1.2771  0.3863 -1.2759
  970MOL0     H28018   1.564   9.023   9.865  0.2574 -3.6180  2.8459
  970MOL0     H28019   1.572   9.038   9.686 -1.0361 -0.7587 -0.2678
  970MOL0     H28020   1.420   8.828   9.671  0.7262 -0.4934 -0.2267
  970MOL0     H28021   1.337   8.973   9.719  0.1093  0.1331  0.6429
  970MOL0     H28022   2.410   8.797   9.518  1.9486  0.4570 -0.4257
  970MOL0     H28023   2.643   8.864   9.549  2.4360 -3.3581 -0.8890
  970MOL0     H28024   3.000   8.926   9.776  0.5169 -0.0750 -2.3750
  970MOL0     H28025   3.238   8.954   9.710  2.7335 -0.7120  0.9029
  970MOL0     H28026   4.998   8.330   9.184 -0.9963  1.7801  1.3367
  970MOL0     H28027   5.210   8.423   9.136 -0.1364 -0.8475 -0.7811
  970MOL0     H28028   5.431   8.615   8.573  0.2524 -3.3614 -0.0239
  970MOL0     H28029   5.672   8.728   8.550  0.7965  1.9387  1.4826
  970MOL0     H28030   5.922   8.787   8.906 -0.1707  0.3833 -0.8601
  970MOL0     H28031   5.825   8.935   8.897 -2.6264 -1.1045  0.5365
  970MOL0     H28032   6.059   8.848   8.714 -2.4166 -0.7401 -0.3605
  970MOL0     H28033   5.964   8.994   8.684  0.2870 -0.4597  0.3968
  970MOL0     H28034   6.102   8.970   8.961 -0.3664  0.9209  0.8055
  970MOL0     H28035   6.033   9.105   8.882 -1.9972 -1.8623 -0.1366
  970MOL0     H28036   6.219   9.124   8.728 -0.6381 -0.5120  0.2705
  970MOL0     H28037   6.270   9.102   8.897 -1.2684  0.8862  0.8684
  970MOL0     H28038   6.478   8.789   8.746  2.4220  3.0841 -0.7863
  970MOL0     H28039   5.703   8.733   8.969 -0.9063 -1.3591  1.4396
  970MOL0     H28040   5.500   8.605   8.993  0.1351  1.3535  0.6203
  971MOL0     O28041   1.175   9.759  10.755  0.3453 -0.1365 -0.7557
  971MOL0     C28042   1.223   9.834  10.845 -0.5812  1.1038  0.6586
  971MOL0     O28043   1.157   9.895  10.944  0.4327  0.4628  0.2819
  971MOL0     C28044   1.022   9.891  10.959 -0.3110  0.3656 -0.6603
  971MOL0     C28045   0.932   9.884  10.849  0.1860  0.3297 -0.4079
  971MOL0     C28046   0.794   9.873  10.877 -0.0018 -0.6834 -0.5214
  971MOL0     C28047   0.737   9.872  11.008  0.3701 -0.3211 -0.0530
  971MOL0     O28048   0.605   9.849  11.034  0.4179  0.1624  0.3802
  971MOL0     C28049   0.539   9.905  11.145  0.3186  0.4685 -0.7997
  971MOL0     C28050   0.388   9.878  11.117 -0.5797  0.5739  0.3816
  971MOL0     C28051   0.294   9.926  11.242 -0.4790  0.5385 -0.5302
  971MOL0     C28052   0.147   9.901  11.196 -0.1146  0.6217 -0.7127
  971MOL0     C28053   0.046   9.945  11.311 -0.0282  0.6446  0.2043
  971MOL0     C28054  -0.093   9.959  11.258  0.7383  0.3701  0.7946
  971MOL0     C28055  -0.191   9.993  11.376  0.6850 -0.2367  0.3972
  971MOL0     C28056  -0.243   9.864  11.444 -0.4186  0.6670 -0.2963
  971MOL0     N28057  -0.319   9.768  11.350  0.0005 -0.2484  0.0524
  971MOL0     C28058  -0.458   9.745  11.342  0.0714  0.4671 -0.5270
  971MOL0     C28059  -0.471   9.629  11.282  0.2660 -0.1493  0.0998
  971MOL0     C28060  -0.606   9.569  11.263  1.0763 -0.1896  0.3912
  971MOL0     C28061  -0.600   9.423  11.299  1.3433  0.9679  0.3297
  971MOL0     C28062  -0.752   9.370  11.316 -0.7087  0.3601 -0.4326
  971MOL0     C28063  -0.820   9.332  11.181 -0.0880  0.0297  0.4719
  971MOL0     O28064  -0.817   9.448  11.092 -0.4309 -0.0669 -0.1056
  971MOL0     C28065  -0.869   9.450  10.964 -0.1409 -0.8637 -0.9445
  971MOL0     C28066  -0.923   9.347  10.888 -0.0444 -0.0561  0.5169
  971MOL0     C28067  -0.958   9.369  10.758 -0.2404  0.1564 -0.0021
  971MOL0     C28068  -0.932   9.489  10.692 -1.1356 -0.0745  0.2908
  971MOL0     C28069  -0.950   9.499  10.542 -0.6579 -0.3827 -0.0990
  971MOL0     O28070  -0.970   9.383  10.478 -0.8243  1.0951 -0.0904
  971MOL0     C28071  -1.005   9.401  10.346  0.0166 -0.0183  0.5322
  971MOL0     C28072  -0.930   9.342  10.252 -0.7233 -0.7698  0.3144
  971MOL0     C28073  -0.972   9.345  10.115  1.0581 -0.0519 -0.3141
  971MOL0     C28074  -1.085   9.429  10.078  0.2175  0.0545 -0.3554
  971MOL0     O28075  -1.111   9.447   9.938  0.0438  0.2751 -0.3370
  971MOL0     C28076  -1.244   9.491   9.907  0.2462 -0.4787 -0.4036
  971MOL0     C28077  -1.252   9.490   9.752 -0.4998  0.1905 -0.9022
  971MOL0     C28078  -1.213   9.353   9.692 -0.2975 -0.2722  0.8827
  971MOL0     C28079  -1.295   9.346   9.560 -0.4764  0.2734 -0.5272
  971MOL0     C28080  -1.261   9.214   9.487 -0.6945  0.8227  0.0806
  971MOL0     C28081  -1.328   9.191   9.348  0.6463 -0.0489  0.4595
  971MOL0     C28082  -1.299   9.046   9.304 -0.3480  0.9812 -0.0591
  971MOL0     C28083  -1.374   8.985   9.186  0.3035 -0.3129  0.6329
  971MOL0    Cl28084  -1.530   8.933   9.223  0.5344  0.0867  0.3585
  971MOL0     C28085  -1.166   9.486  10.172  0.2321 -0.4193  0.0481
  971MOL0     C28086  -1.125   9.462  10.306  0.1271 -0.3504 -0.3654
  971MOL0     O28087  -0.939   9.608  10.490  0.8847 -0.3627 -0.2854
  971MOL0     C28088  -0.875   9.600  10.764  0.5207  0.5621 -0.2159
  971MOL0     C28089  -0.846   9.572  10.901 -0.5736  0.5071  0.4401
  971MOL0     N28090  -0.345   9.578  11.249  0.2421 -0.1372 -0.2582
  971MOL0     N28091  -0.255   9.670  11.278  0.1228  0.4790  0.1217
  971MOL0     C28092   0.827   9.882  11.107  0.1095  0.5015 -0.9476
  971MOL0     C28093   0.971   9.890  11.089 -0.6403  0.7496  0.3909
  971MOL0     C28094   1.371   9.843  10.851 -0.1759 -0.5806 -0.0263
  971MOL0     C28095   1.445   9.895  10.963  0.4026  1.2306 -0.1544
  971MOL0     C28096   1.582   9.920  10.953 -0.4216  0.0315 -1.0533
  971MOL0     C28097   1.649   9.910  10.836  0.6715  0.4211 -0.6325
  971MOL0     O28098   1.780   9.935  10.811 -0.6954  0.0938 -0.1345
  971MOL0     C28099   1.831  10.033  10.895 -0.3462 -1.0754  0.0381
  971MOL0     C28100   1.932  10.117  10.816  0.4985  0.7246 -0.5292
  971MOL0     C28101   1.978  10.236  10.911 -0.6383  1.0685  0.0034
  971MOL0     C28102   2.069  10.328  10.825 -0.0067 -0.2122 -0.3213
  971MOL0     C28103   2.153  10.425  10.903 -0.0372  0.1238  0.2026
  971MOL0     C28104   2.205  10.502  10.981  0.0434  0.3148 -0.0348
  971MOL0     C28105   1.579   9.860  10.730 -0.4626  0.8514  0.2160
  971MOL0     C28106   1.442   9.814  10.737 -0.5268 -0.5289  0.3449
  971MOL0     H28107   0.969   9.870  10.748  0.4029 -1.1794 -0.1378
  971MOL0     H28108   0.727   9.848  10.795 -0.3252  0.9203 -0.7744
  971MOL0     H28109   0.558  10.012  11.145  1.7003  0.2849  1.6075
  971MOL0     H28110   0.568   9.861  11.241 -1.0248 -2.8980 -1.7856
  971MOL0     H28111   0.373   9.770  11.113 -0.6621  0.6083 -0.5071
  971MOL0     H28112   0.360   9.915  11.018 -0.9843 -0.6339  0.0251
  971MOL0     H28113   0.320  10.031  11.262  1.0436  0.4951 -2.0507
  971MOL0     H28114   0.317   9.872  11.334 -0.3174  1.3622 -0.0786
  971MOL0     H28115   0.132   9.946  11.097 -0.1800 -0.1765 -1.0734
  971MOL0     H28116   0.134   9.793  11.186 -2.8003  0.2984  3.7187
  971MOL0     H28117   0.074  10.045  11.346  0.9000  0.0359  1.2616
  971MOL0     H28118   0.038   9.867  11.387 -0.1544 -0.5300 -0.9699
  971MOL0     H28119  -0.125   9.874  11.196 -1.1813  0.4634  1.5650
  971MOL0     H28120  -0.096  10.044  11.189 -2.4192  0.1250  0.4546
  971MOL0     H28121  -0.152  10.061  11.452 -1.5118  2.3361 -0.6435
  971MOL0     H28122  -0.275  10.048  11.334  3.0448  1.1483 -2.8572
  971MOL0     H28123  -0.299   9.894  11.533 -1.8169  0.3036 -1.0175
  971MOL0     H28124  -0.154   9.808  11.475 -0.9196 -0.1687 -0.3268
  971MOL0     H28125  -0.527   9.817  11.385  1.9491  2.0788 -0.0346
  971MOL0     H28126  -0.636   9.587  11.160 -2.9302 -4.1563  0.5542
  971MOL0     H28127  -0.682   9.613  11.330  1.0469  0.7662 -0.2612
  971MOL0     H28128  -0.546   9.408  11.393  2.2222 -0.7232 -0.4109
  971MOL0     H28129  -0.563   9.374  11.209 -1.6833  1.0406 -1.0783
  971MOL0     H28130  -0.759   9.288  11.389  0.9754 -0.2843 -0.9358
  971MOL0     H28131  -0.812   9.452  11.357 -0.3233  1.8073 -2.5963
  971MOL0     H28132  -0.924   9.298  11.191 -0.0928 -0.4864 -1.0731
  971MOL0     H28133  -0.772   9.242  11.142  1.3923 -0.2079  2.7000
  971MOL0     H28134  -0.936   9.249  10.932  0.3516 -0.6294 -0.6057
  971MOL0     H28135  -1.004   9.289  10.701 -1.1010 -0.1627  1.1125
  971MOL0     H28136  -0.845   9.288  10.292 -0.6772 -0.0888  1.1645
  971MOL0     H28137  -0.929   9.284  10.036 -0.4110 -0.4622 -0.8365
  971MOL0     H28138  -1.257   9.593   9.945  1.4199 -0.9759  1.4648
  971MOL0     H28139  -1.321   9.432   9.957 -1.2002  3.3943  2.3616
  971MOL0     H28140  -1.187   9.567   9.709 -2.5350  1.6911 -1.4391
  971MOL0     H28141  -1.351   9.524   9.722 -0.5464  2.3265  1.3594
  971MOL0     H28142  -1.239   9.270   9.759 -0.6358  2.0601  3.8784
  971MOL0     H28143  -1.108   9.346   9.665 -0.4860  2.7438 -1.2176
  971MOL0     H28144  -1.400   9.350   9.591 -0.5336  0.4915 -0.7507
  971MOL0     H28145  -1.269   9.432   9.498 -1.5862  1.4995  0.6394
  971MOL0     H28146  -1.293   9.138   9.559  2.6177 -1.0399 -0.2147
  971MOL0     H28147  -1.153   9.205   9.477 -0.8031 -0.7752  0.1566
  971MOL0     H28148  -1.289   9.260   9.273 -1.1632 -0.4379 -0.9264
  971MOL0     H28149  -1.435   9.196   9.371  0.4326 -1.8877  0.0195
  971MOL0     H28150  -1.191   9.053   9.289 -0.5486  2.9345 -0.8531
  971MOL0     H28151  -1.315   8.977   9.387  2.4759  0.1949 -0.0517
  971MOL0     H28152  -1.324   8.901   9.137 -0.8055 -0.6796  0.0914
  971MOL0     H28153  -1.385   9.063   9.110  2.0399  0.5536  1.2326
  971MOL0     H28154  -1.253   9.543  10.140  0.2702 -1.9180 -3.0391
  971MOL0     H28155  -1.192   9.516  10.372  1.5809  1.8348 -0.5264
  971MOL0     H28156  -0.842   9.693  10.719 -0.1579  2.2603  2.5681
  971MOL0     H28157  -0.806   9.653  10.962 -4.4196  3.7412 -0.8202
  971MOL0     H28158   0.803   9.887  11.213  1.8996 -0.1209 -0.4630
  971MOL0     H28159   1.041   9.896  11.171  0.2015 -1.1742 -0.1386
  971MOL0     H28160   1.394   9.918  11.056 -0.0567  2.8045 -0.7450
  971MOL0     H28161   1.624   9.953  11.047 -2.9366  2.1784 -0.5845
  971MOL0     H28162   1.874   9.986  10.983  1.9126  1.3119  0.3491
  971MOL0     H28163   1.754  10.105  10.924  2.0926  1.5087  0.4989
  971MOL0     H28164   2.011  10.057  10.770  0.1012  1.8198 -2.7719
  971MOL0     H28165   1.883  10.162  10.729  0.2550  1.3772 -0.0702
  971MOL0     H28166   2.033  10.191  10.994 -2.3403 -2.5383 -0.6600
  971MOL0     H28167   1.891  10.282  10.958 -3.5327 -1.3539 -2.5903
  971MOL0     H28168   2.141  10.268  10.769  0.2953  0.4146 -0.6159
  971MOL0     H28169   2.004  10.379  10.753  2.0584  0.4737 -1.8048
  971MOL0     H28170   2.251  10.575  11.044  1.3913 -0.4374 -0.1117
  971MOL0     H28171   1.625   9.851  10.632 -2.7396  0.9754 -0.9456
  971MOL0     H28172   1.391   9.782  10.647  0.9050  1.8371 -1.4312
  972MOL0     O28173   1.401   0.123   0.148  0.5052 -0.1051 -0.1390
  972MOL0     C28174   1.426   0.245   0.155  0.0930 -0.1689 -0.0103
  972MOL0     O28175   1.336   0.347   0.179  0.4250  0.4622 -0.2308
  972MOL0     C28176   1.201   0.314   0.191  0.1709 -0.1358  0.6585
  972MOL0     C28177   1.129   0.223   0.111  0.3588  0.2447  0.3747
  972MOL0     C28178   0.991   0.202   0.146 -0.8611 -0.3898 -0.0495
  972MOL0     C28179   0.932   0.279   0.249  1.1074  0.3556  0.4100
  972MOL0     O28180   0.796   0.270   0.267 -0.8880  0.7064  0.0594
  972MOL0     C28181   0.757   0.143   0.322  0.0594 -0.5589 -0.1712
  972MOL0     C28182   0.630   0.161   0.407 -0.2358  0.0034  0.4724
  972MOL0     C28183   0.569   0.024   0.428 -0.4118  0.2914  0.5840
  972MOL0     C28184   0.431   0.028   0.486  0.3300 -0.9009 -0.2622
  972MOL0     C28185   0.404   0.096   0.616 -0.7286 -1.1238 -0.1619
  972MOL0     C28186   0.475   0.031   0.730 -0.5948  0.0776 -0.7233
  972MOL0     C28187   0.423   0.083   0.864  0.0475  0.0121  0.3674
  972MOL0     C28188   0.473   0.011   0.989  0.5350  0.3009  0.1453
  972MOL0     N28189   0.353  -0.017   1.072 -0.1864  0.0499 -0.0041
  972MOL0     C28190   0.271  -0.128   1.056 -0.0181  0.3200 -0.2676
  972MOL0     C28191   0.188  -0.126   1.162  0.0318  0.2809 -0.0950
  972MOL0     C28192   0.065  -0.211   1.196  0.7768  0.3011  0.0176
  972MOL0     C28193  -0.053  -0.171   1.102 -0.1278 -0.0835  0.2103
  972MOL0     C28194  -0.028  -0.179   0.952  0.0174  0.3253 -0.1710
  972MOL0     C28195  -0.016  -0.320   0.898 -0.2967 -0.2625  0.1975
  972MOL0     O28196  -0.131  -0.405   0.923 -0.6528  0.1463  0.0869
  972MOL0     C28197  -0.127  -0.534   0.889  0.3662 -0.2795  0.7510
  972MOL0     C28198  -0.229  -0.611   0.936  1.2025 -0.7054  0.6208
  972MOL0     C28199  -0.236  -0.747   0.912  0.0777  0.1064 -0.1362
  972MOL0     C28200  -0.136  -0.808   0.838  0.5989  0.2482  0.3008
  972MOL0     C28201  -0.134  -0.957   0.820  0.8094 -0.2762 -0.4728
  972MOL0     O28202  -0.266  -1.009   0.818 -0.9215 -0.2549 -0.2797
  972MOL0     C28203  -0.288  -1.143   0.825 -0.6558  0.4321 -0.1332
  972MOL0     C28204  -0.361  -1.220   0.732  0.8836  0.2512  0.3881
  972MOL0     C28205  -0.374  -1.362   0.728  0.6091 -0.2572 -0.1901
  972MOL0     C28206  -0.319  -1.431   0.839  0.5843  0.1841  0.8441
  972MOL0     O28207  -0.336  -1.561   0.859  0.5873 -0.5278 -0.6500
  972MOL0     C28208  -0.215  -1.643   0.841 -0.1206 -0.3386  1.0265
  972MOL0     C28209  -0.263  -1.788   0.842 -0.2511 -0.1473 -0.3235
  972MOL0     C28210  -0.229  -1.857   0.977 -0.2514  0.2905 -0.0266
  972MOL0     C28211  -0.302  -1.996   0.984 -0.1648  0.1128 -0.4245
  972MOL0     C28212  -0.297  -2.073   0.853 -0.3588  0.2118  0.4414
  972MOL0     C28213  -0.348  -2.219   0.872  0.6395  0.9132  0.3194
  972MOL0     C28214  -0.298  -2.327   0.771 -0.9878 -0.0929 -0.0918
  972MOL0     C28215  -0.292  -2.287   0.620  0.5192  0.2667 -0.7718
  972MOL0    Cl28216  -0.463  -2.255   0.564 -0.1414  0.5936  0.0318
  972MOL0     C28217  -0.260  -1.357   0.944  0.2661  0.2565 -0.0186
  972MOL0     C28218  -0.240  -1.219   0.934 -0.8173 -0.2919  0.2766
  972MOL0     O28219  -0.031  -1.028   0.822 -0.0731 -0.2754 -0.0256
  972MOL0     C28220  -0.027  -0.732   0.800  0.4656 -0.1628  0.6682
  972MOL0     C28221  -0.016  -0.594   0.828 -0.3041  0.2756 -0.2459
  972MOL0     N28222   0.218  -0.021   1.245  0.4952 -0.4767 -0.0930
  972MOL0     N28223   0.322   0.040   1.190 -0.1571  0.1857 -0.7996
  972MOL0     C28224   1.006   0.375   0.313 -0.7209 -0.0576  0.0152
  972MOL0     C28225   1.142   0.387   0.285  0.7306  0.1299  1.0611
  972MOL0     C28226   1.564   0.284   0.106 -0.8783 -0.2406  0.3716
  972MOL0     C28227   1.589   0.413   0.069 -0.5364  0.4580 -0.1358
  972MOL0     C28228   1.710   0.459   0.022  0.1500  0.1035 -0.0398
  972MOL0     C28229   1.812   0.372   0.001 -0.4735  0.8732 -0.7086
  972MOL0     O28230   1.947   0.389  -0.037  0.4211 -0.3709 -0.9214
  972MOL0     C28231   1.982   0.519  -0.088  0.1096 -1.1557 -0.3278
  972MOL0     C28232   1.910   0.568  -0.215 -0.3228  0.7386  0.6975
  972MOL0     C28233   1.987   0.553  -0.347  0.1047  0.5350 -0.5612
  972MOL0     C28234   2.087   0.666  -0.361 -0.3344  0.0789  0.4959
  972MOL0     C28235   2.216   0.653  -0.288  0.4659  0.0176  0.4559
  972MOL0     C28236   2.324   0.645  -0.227 -0.2362  0.2552  0.2810
  972MOL0     C28237   1.789   0.241   0.043 -0.7796  0.1351  0.1394
  972MOL0     C28238   1.672   0.195   0.094  0.9873 -0.0965  0.6390
  972MOL0     H28239   1.181   0.163   0.037  0.6143  0.1022  0.6698
  972MOL0     H28240   0.927   0.126   0.102 -0.8237 -0.3192 -0.2302
  972MOL0     H28241   0.832   0.095   0.385  2.2997  1.9684 -0.6895
  972MOL0     H28242   0.735   0.079   0.235 -0.3161 -0.0369 -0.4710
  972MOL0     H28243   0.561   0.227   0.353  0.2428 -0.3867 -0.6549
  972MOL0     H28244   0.664   0.215   0.496  0.3671  0.9808 -0.3307
  972MOL0     H28245   0.634  -0.037   0.492  0.1614  1.0104  0.6908
  972MOL0     H28246   0.560  -0.019   0.328  0.1651  1.9516 -0.2105
  972MOL0     H28247   0.375   0.078   0.406  0.0194 -1.2042 -0.2390
  972MOL0     H28248   0.386  -0.071   0.493 -2.5520  0.3033 -0.1928
  972MOL0     H28249   0.296   0.099   0.628 -0.7461  0.3026 -0.5069
  972MOL0     H28250   0.433   0.200   0.598  0.3801 -1.3814  0.0825
  972MOL0     H28251   0.581   0.055   0.724 -0.6147  1.1703  2.1160
  972MOL0     H28252   0.460  -0.077   0.725 -1.0488  0.0587  0.6913
  972MOL0     H28253   0.462   0.185   0.875 -0.4797 -0.0615  3.8971
  972MOL0     H28254   0.315   0.102   0.867  0.3091  2.2669 -1.1445
  972MOL0     H28255   0.545   0.079   1.034 -0.0256  0.9431  0.1007
  972MOL0     H28256   0.523  -0.084   0.967 -0.0966  0.0311 -0.1757
  972MOL0     H28257   0.268  -0.201   0.976 -1.8947  1.8088 -1.6545
  972MOL0     H28258   0.045  -0.203   1.303  0.9884  1.1730 -0.0028
  972MOL0     H28259   0.079  -0.318   1.178  0.2281 -0.5014  3.6356
  972MOL0     H28260  -0.059  -0.068   1.138 -0.4573  0.9449 -2.5602
  972MOL0     H28261  -0.146  -0.225   1.121 -1.9210  1.9036 -2.1933
  972MOL0     H28262  -0.118  -0.137   0.907  0.0327  0.2451 -0.2752
  972MOL0     H28263   0.056  -0.120   0.917  0.7344 -0.7502 -0.2937
  972MOL0     H28264   0.070  -0.377   0.935  0.4645 -1.4389 -3.0082
  972MOL0     H28265  -0.003  -0.301   0.791 -0.2605 -2.4647 -0.2410
  972MOL0     H28266  -0.307  -0.559   0.992 -0.1348 -0.7035 -1.1708
  972MOL0     H28267  -0.315  -0.798   0.967  0.0160 -0.7544 -1.0057
  972MOL0     H28268  -0.400  -1.163   0.648 -1.1997 -0.1313  1.0548
  972MOL0     H28269  -0.433  -1.420   0.657 -2.2668  0.7367  1.2183
  972MOL0     H28270  -0.145  -1.623   0.923 -0.7039 -0.9735  1.6924
  972MOL0     H28271  -0.156  -1.613   0.754 -2.4305  0.8810 -0.1962
  972MOL0     H28272  -0.215  -1.847   0.764 -1.5459 -0.4861 -0.8803
  972MOL0     H28273  -0.370  -1.793   0.821 -0.3859  2.0104 -0.4328
  972MOL0     H28274  -0.273  -1.787   1.049 -0.3991  0.6096 -0.4259
  972MOL0     H28275  -0.121  -1.864   0.990 -0.3580 -0.4262  0.5720
  972MOL0     H28276  -0.259  -2.051   1.069 -0.7737  0.6290  0.2309
  972MOL0     H28277  -0.408  -1.975   1.001  0.4794  3.3766  0.1400
  972MOL0     H28278  -0.191  -2.075   0.827 -0.1338 -1.5277  1.3351
  972MOL0     H28279  -0.349  -2.027   0.768  0.9211  1.9003  0.5352
  972MOL0     H28280  -0.458  -2.222   0.876  0.6275  0.6077  4.5360
  972MOL0     H28281  -0.312  -2.240   0.973 -1.6182  2.7789  1.6032
  972MOL0     H28282  -0.197  -2.359   0.800 -0.5880 -0.9811 -2.2798
  972MOL0     H28283  -0.360  -2.417   0.785 -1.8777  0.7483  1.7686
  972MOL0     H28284  -0.248  -2.361   0.552 -1.2043 -0.7513 -0.8283
  972MOL0     H28285  -0.237  -2.194   0.608 -0.9325  1.0490 -1.6194
  972MOL0     H28286  -0.226  -1.401   1.038 -3.1876  1.3413  1.9235
  972MOL0     H28287  -0.192  -1.176   1.022 -1.0200 -0.3284  0.4052
  972MOL0     H28288   0.050  -0.795   0.757 -0.5167  0.0440 -1.5469
  972MOL0     H28289   0.079  -0.542   0.815  2.0005 -3.8652 -1.7280
  972MOL0     H28290   0.950   0.434   0.385 -2.4070 -0.2779 -1.0464
  972MOL0     H28291   1.203   0.451   0.347 -1.3154  1.8062  1.4879
  972MOL0     H28292   1.509   0.487   0.070  0.0428  1.0933  0.6945
  972MOL0     H28293   1.710   0.556  -0.026 -0.6799  0.8770  1.4441
  972MOL0     H28294   2.091   0.516  -0.099  0.1627 -2.3129  0.3476
  972MOL0     H28295   1.957   0.594  -0.012 -0.6316  0.8267 -2.4047
  972MOL0     H28296   1.815   0.513  -0.220  0.3994 -0.5220  0.5963
  972MOL0     H28297   1.879   0.670  -0.192 -1.4026  0.8214 -0.9393
  972MOL0     H28298   1.917   0.556  -0.430 -2.8130 -0.1272  1.7039
  972MOL0     H28299   2.045   0.461  -0.344 -1.7145 -0.6382  1.4359
  972MOL0     H28300   2.116   0.655  -0.466  0.7366 -0.3897  0.8202
  972MOL0     H28301   2.040   0.762  -0.340  0.2991  1.0848 -2.2438
  972MOL0     H28302   2.422   0.627  -0.188  0.3549  0.8025 -0.9172
  972MOL0     H28303   1.866   0.168   0.019 -1.0475 -0.0747 -0.0963
  972MOL0     H28304   1.661   0.089   0.116 -1.5979  0.2636  1.4231
  973MOL0     O28305   0.490   0.049   1.777 -0.6644  0.5808 -0.2583
  973MOL0     C28306   0.610   0.066   1.755 -0.0316 -0.3636 -0.9522
  973MOL0     O28307   0.711   0.029   1.840  0.1816 -0.7397  0.1525
  973MOL0     C28308   0.695  -0.044   1.957 -0.8754 -0.8742 -0.2168
  973MOL0     C28309   0.589  -0.135   1.979 -0.9605 -0.5506 -0.6577
  973MOL0     C28310   0.582  -0.205   2.098  0.2623 -0.6971 -0.4439
  973MOL0     C28311   0.667  -0.181   2.197  0.2551 -0.9925 -0.2412
  973MOL0     O28312   0.660  -0.246   2.321  0.0088  0.3084  0.3013
  973MOL0     C28313   0.545  -0.326   2.362 -0.1492 -0.5235  1.3972
  973MOL0     C28314   0.560  -0.375   2.501  0.2085 -0.4186 -0.0554
  973MOL0     C28315   0.437  -0.455   2.536  0.6121  0.7527  0.8471
  973MOL0     C28316   0.429  -0.521   2.677 -0.0940 -0.3969 -0.5186
  973MOL0     C28317   0.327  -0.627   2.681 -0.1389  0.1024  0.5084
  973MOL0     C28318   0.314  -0.685   2.820 -1.1314 -0.5471  0.1904
  973MOL0     C28319   0.204  -0.788   2.834 -0.2978  0.5331 -0.6172
  973MOL0     C28320   0.228  -0.867   2.960 -0.4366 -0.3711  0.1062
  973MOL0     N28321   0.255  -0.778   3.076  0.4647  0.1647 -0.1443
  973MOL0     C28322   0.158  -0.707   3.143  0.2835 -0.5345  0.8264
  973MOL0     C28323   0.221  -0.675   3.264 -0.1689 -0.9565  0.0394
  973MOL0     C28324   0.165  -0.595   3.379  0.6056  0.6787 -0.1541
  973MOL0     C28325   0.026  -0.646   3.439 -0.4261 -0.5458 -0.1630
  973MOL0     C28326   0.021  -0.775   3.525 -0.0498  0.0770  0.5737
  973MOL0     C28327  -0.117  -0.803   3.576  0.7655 -0.2430 -0.5083
  973MOL0     O28328  -0.147  -0.720   3.689 -0.0156  0.6286  0.8022
  973MOL0     C28329  -0.260  -0.749   3.771 -0.6702 -0.2950  0.1568
  973MOL0     C28330  -0.267  -0.706   3.907  0.1837  0.0872  0.5266
  973MOL0     C28331  -0.376  -0.724   3.994 -0.2953 -1.3917  0.0154
  973MOL0     C28332  -0.479  -0.805   3.947  0.7949  0.2139  0.3119
  973MOL0     C28333  -0.594  -0.842   4.035  0.0629 -0.5949 -0.9932
  973MOL0     O28334  -0.584  -0.810   4.169 -0.1267  0.6534 -0.7146
  973MOL0     C28335  -0.678  -0.850   4.263 -0.0761 -0.7176 -0.1680
  973MOL0     C28336  -0.772  -0.950   4.261  0.3930  0.9566  0.3378
  973MOL0     C28337  -0.879  -0.955   4.360 -1.0146 -0.1015  0.0783
  973MOL0     C28338  -0.864  -0.871   4.478  0.5854 -0.2428 -0.0394
  973MOL0     O28339  -0.937  -0.878   4.592 -0.5706  0.1936 -0.8205
  973MOL0     C28340  -1.031  -0.985   4.606 -0.0334 -0.0202 -0.6701
  973MOL0     C28341  -1.088  -1.004   4.747  0.2550 -1.0649  0.7449
  973MOL0     C28342  -1.150  -0.867   4.795 -0.2055  0.0960 -0.3878
  973MOL0     C28343  -1.212  -0.885   4.933 -0.0472  0.3771 -0.5524
  973MOL0     C28344  -1.242  -0.750   4.992  0.2001 -0.1147 -0.9232
  973MOL0     C28345  -1.341  -0.759   5.109  0.2560  0.2975 -0.1771
  973MOL0     C28346  -1.416  -0.634   5.146 -0.0953 -0.7513  0.2558
  973MOL0     C28347  -1.525  -0.669   5.241  0.2688  0.4180 -0.3133
  973MOL0    Cl28348  -1.614  -0.525   5.278 -0.0632  0.4454 -0.1151
  973MOL0     C28349  -0.760  -0.781   4.490 -0.1033  0.1488 -0.1949
  973MOL0     C28350  -0.674  -0.772   4.379 -1.5815 -0.0680 -0.5045
  973MOL0     O28351  -0.696  -0.873   3.973 -0.1874  0.1015 -0.6103
  973MOL0     C28352  -0.468  -0.860   3.813  0.3657 -0.4493  0.5502
  973MOL0     C28353  -0.369  -0.827   3.721  0.3867  0.0674  0.1398
  973MOL0     N28354   0.361  -0.708   3.254  0.2240 -1.1334  0.0573
  973MOL0     N28355   0.381  -0.769   3.142  0.3182  0.3236 -0.7202
  973MOL0     C28356   0.772  -0.087   2.183 -0.0824  0.7037  0.1620
  973MOL0     C28357   0.787  -0.023   2.062  0.0177  0.0895 -0.5143
  973MOL0     C28358   0.645   0.135   1.632  0.0837 -0.5828  0.3022
  973MOL0     C28359   0.543   0.186   1.546  0.0234  0.4168  0.1665
  973MOL0     C28360   0.563   0.231   1.415  0.5735 -0.4973 -0.6719
  973MOL0     C28361   0.695   0.230   1.363  0.0745 -0.0617 -0.6851
  973MOL0     O28362   0.710   0.260   1.229 -0.2472 -0.1575  0.0317
  973MOL0     C28363   0.819   0.211   1.149  0.3391  0.2157  0.1913
  973MOL0     C28364   0.794   0.266   0.999  0.2163  0.1876 -0.7099
  973MOL0     C28365   0.867   0.183   0.892  0.1081 -0.3660 -0.2790
  973MOL0     C28366   0.838   0.236   0.746  0.3176  0.6850  0.7908
  973MOL0     C28367   0.928   0.171   0.647 -0.4990 -0.2664 -0.2781
  973MOL0     C28368   1.005   0.099   0.586 -0.1052 -1.0312 -0.2874
  973MOL0     C28369   0.799   0.192   1.449  0.3931 -0.4623  1.1194
  973MOL0     C28370   0.770   0.147   1.576  0.8754 -0.4296 -0.3370
  973MOL0     H28371   0.512  -0.153   1.906 -3.5115  1.0303  1.4573
  973MOL0     H28372   0.511  -0.286   2.107  0.7569 -0.9630  1.6584
  973MOL0     H28373   0.534  -0.418   2.303 -2.1675  0.3715  0.2488
  973MOL0     H28374   0.461  -0.256   2.358 -0.4796 -0.6391  4.2567
  973MOL0     H28375   0.567  -0.293   2.573  5.4097  0.0523 -0.7577
  973MOL0     H28376   0.654  -0.430   2.508  0.0961 -0.9040 -1.7920
  973MOL0     H28377   0.442  -0.537   2.464 -2.1916 -1.0744  2.5392
  973MOL0     H28378   0.348  -0.396   2.513  1.9367  2.4569 -0.1275
  973MOL0     H28379   0.524  -0.560   2.714  0.3715  2.7425  2.1168
  973MOL0     H28380   0.394  -0.450   2.753 -0.1676  1.2643 -2.0555
  973MOL0     H28381   0.359  -0.711   2.618 -2.4172 -1.0657  0.7681
  973MOL0     H28382   0.232  -0.601   2.633  0.6276  0.0572 -1.1045
  973MOL0     H28383   0.285  -0.603   2.886 -1.3802 -0.2360 -0.3053
  973MOL0     H28384   0.408  -0.726   2.859 -1.9855 -1.8832  0.9264
  973MOL0     H28385   0.111  -0.731   2.825 -0.0275  0.9684 -0.6800
  973MOL0     H28386   0.206  -0.861   2.752 -1.2472 -0.1962 -0.0108
  973MOL0     H28387   0.311  -0.937   2.949 -0.1551  0.0469 -0.4748
  973MOL0     H28388   0.143  -0.931   2.988 -0.3985  0.3023  1.9673
  973MOL0     H28389   0.051  -0.701   3.124  0.4857  1.5084  0.1052
  973MOL0     H28390   0.156  -0.489   3.356 -1.1308  0.4547 -0.6027
  973MOL0     H28391   0.244  -0.593   3.455 -0.8300  2.4029  1.4066
  973MOL0     H28392  -0.049  -0.660   3.361 -1.1472  1.0368  0.2017
  973MOL0     H28393  -0.002  -0.565   3.506 -2.1519 -2.4911  1.5904
  973MOL0     H28394   0.051  -0.865   3.471 -1.5420 -0.0768 -0.0308
  973MOL0     H28395   0.087  -0.758   3.611 -0.1786  3.1859  0.1752
  973MOL0     H28396  -0.114  -0.907   3.611  3.6863 -0.4333 -1.0882
  973MOL0     H28397  -0.188  -0.790   3.495 -0.8168  1.3741  1.0320
  973MOL0     H28398  -0.177  -0.653   3.937 -0.2417  1.9308 -1.2454
  973MOL0     H28399  -0.382  -0.685   4.095 -0.2236 -1.5585  0.0855
  973MOL0     H28400  -0.785  -1.025   4.183 -0.0244 -1.4496  2.5461
  973MOL0     H28401  -0.959  -1.028   4.348 -2.1327  0.9663  0.8067
  973MOL0     H28402  -0.974  -1.073   4.572 -1.3135 -0.9537 -0.4600
  973MOL0     H28403  -1.108  -0.955   4.535  3.1087  4.2611 -2.7216
  973MOL0     H28404  -1.014  -1.050   4.813  1.5465 -1.5600 -0.9666
  973MOL0     H28405  -1.175  -1.070   4.743 -1.2028  0.6525  2.1885
  973MOL0     H28406  -1.230  -0.842   4.725 -0.4691 -2.9010 -1.2620
  973MOL0     H28407  -1.076  -0.785   4.793  0.7523 -0.7443 -0.1731
  973MOL0     H28408  -1.309  -0.935   4.924  0.4600 -0.7985  0.2947
  973MOL0     H28409  -1.146  -0.937   5.002  1.1904  2.4932 -0.0284
  973MOL0     H28410  -1.282  -0.693   4.908  1.4131  0.3961 -1.1871
  973MOL0     H28411  -1.151  -0.695   5.021  1.2911 -1.8732 -0.8554
  973MOL0     H28412  -1.300  -0.815   5.193 -1.7704 -0.0305  0.6485
  973MOL0     H28413  -1.414  -0.830   5.068 -0.9332  1.6439 -0.4842
  973MOL0     H28414  -1.358  -0.556   5.197  0.6418 -2.5722  2.3736
  973MOL0     H28415  -1.462  -0.598   5.054 -1.6711 -0.1289  1.2442
  973MOL0     H28416  -1.483  -0.709   5.334  2.0504  1.0128 -0.8215
  973MOL0     H28417  -1.591  -0.743   5.195 -2.5165  2.4039  0.2420
  973MOL0     H28418  -0.755  -0.725   4.583  0.0278 -2.2570  1.3281
  973MOL0     H28419  -0.601  -0.692   4.382 -1.2919 -0.3418 -0.2652
  973MOL0     H28420  -0.551  -0.914   3.770  0.0149  1.5741 -1.5090
  973MOL0     H28421  -0.380  -0.857   3.617  0.3500  0.7331 -0.0534
  973MOL0     H28422   0.840  -0.068   2.266 -1.3554 -0.7011  1.5914
  973MOL0     H28423   0.853   0.057   2.030  0.1816 -0.0656 -0.5706
  973MOL0     H28424   0.440   0.163   1.570  0.4924 -0.5243  1.3879
  973MOL0     H28425   0.473   0.251   1.358  0.3704  0.5935  0.0070
  973MOL0     H28426   0.821   0.102   1.143 -1.4040  0.1851 -0.2165
  973MOL0     H28427   0.911   0.246   1.196 -0.0631  3.9241 -1.4041
  973MOL0     H28428   0.687   0.275   0.979  0.7684  0.5837 -3.9654
  973MOL0     H28429   0.834   0.367   1.005  0.8940  0.1784 -3.6520
  973MOL0     H28430   0.843   0.076   0.895 -0.1298 -0.3133 -0.2800
  973MOL0     H28431   0.974   0.194   0.915 -0.0879  0.7844  0.1722
  973MOL0     H28432   0.732   0.230   0.719 -0.2134  2.5742  2.2509
  973MOL0     H28433   0.864   0.342   0.746  0.3794  0.6700  0.5542
  973MOL0     H28434   1.070   0.019   0.556 -0.0893 -0.4893 -1.8206
  973MOL0     H28435   0.902   0.202   1.418 -0.3071 -0.2623 -1.3346
  973MOL0     H28436   0.853   0.103   1.632  1.6296  1.9751  0.5856
  974MOL0     O28437   3.535   2.159   6.357 -0.1518 -0.2361 -0.1777
  974MOL0     C28438   3.502   2.263   6.415 -0.6968  0.0736  0.9947
  974MOL0     O28439   3.579   2.376   6.414  0.0144  0.0503  0.2567
  974MOL0     C28440   3.669   2.391   6.314 -0.2386  0.6652  0.3653
  974MOL0     C28441   3.640   2.464   6.203 -0.1715 -0.1308 -0.2089
  974MOL0     C28442   3.732   2.490   6.101 -0.1204 -0.2608 -1.3529
  974MOL0     C28443   3.856   2.429   6.102 -0.0917 -0.2003  1.0460
  974MOL0     O28444   3.947   2.453   6.007  0.0942 -0.5507 -0.3467
  974MOL0     C28445   3.918   2.559   5.905 -0.5372  0.3828  0.5467
  974MOL0     C28446   4.037   2.578   5.808  0.0241 -0.2289  0.1463
  974MOL0     C28447   4.079   2.449   5.739 -0.0091 -0.3796  0.1337
  974MOL0     C28448   4.188   2.475   5.632 -0.5302 -0.7781  0.2526
  974MOL0     C28449   4.333   2.457   5.685 -0.2272  0.5663 -0.1474
  974MOL0     C28450   4.429   2.513   5.590  0.0534  0.4901 -0.5570
  974MOL0     C28451   4.572   2.496   5.648 -0.2003 -0.0391  0.4625
  974MOL0     C28452   4.626   2.348   5.641 -0.0035 -0.0193  0.0073
  974MOL0     N28453   4.769   2.359   5.685  0.0832  0.6886 -0.5724
  974MOL0     C28454   4.882   2.336   5.613  0.4202  0.1657  0.0282
  974MOL0     C28455   4.978   2.365   5.706 -0.3643 -0.5317  0.4721
  974MOL0     C28456   5.131   2.351   5.696  0.1739  0.0794 -0.1466
  974MOL0     C28457   5.199   2.350   5.558  0.0008 -0.8672 -0.8551
  974MOL0     C28458   5.192   2.495   5.508  0.4851  0.5634 -0.8815
  974MOL0     C28459   5.213   2.509   5.351 -0.4066  0.3755  0.1044
  974MOL0     O28460   5.124   2.427   5.270 -0.0212 -0.3135  0.2278
  974MOL0     C28461   4.990   2.445   5.281  0.1129  0.6417  0.3444
  974MOL0     C28462   4.923   2.327   5.238  1.4454 -0.2058  0.0545
  974MOL0     C28463   4.786   2.337   5.221 -0.8317  0.2930 -0.1238
  974MOL0     C28464   4.718   2.457   5.256  0.1175 -0.9105 -0.1187
  974MOL0     C28465   4.566   2.447   5.235 -0.6504 -0.6445  0.5633
  974MOL0     O28466   4.520   2.331   5.186 -0.3057 -0.1877  0.1261
  974MOL0     C28467   4.397   2.337   5.120 -0.3991  0.2256 -0.2311
  974MOL0     C28468   4.390   2.375   4.986 -0.4389 -0.1647  0.0328
  974MOL0     C28469   4.265   2.381   4.925 -0.2623  0.3289 -0.4066
  974MOL0     C28470   4.147   2.338   4.983  0.9896 -0.4098  0.0013
  974MOL0     O28471   4.019   2.356   4.918 -0.6840  0.4634 -0.1628
  974MOL0     C28472   3.905   2.275   4.945  0.6499  0.2137 -0.0871
  974MOL0     C28473   3.791   2.329   5.037 -0.0381 -0.6804  0.3012
  974MOL0     C28474   3.722   2.440   4.957 -0.3266  0.2448  0.0140
  974MOL0     C28475   3.589   2.493   5.018 -0.5067  0.4481  0.4531
  974MOL0     C28476   3.533   2.619   4.961 -0.1008 -0.1134  0.2651
  974MOL0     C28477   3.536   2.613   4.806  0.2191 -0.3864  0.1758
  974MOL0     C28478   3.455   2.728   4.754 -0.2982 -0.8653 -0.4184
  974MOL0     C28479   3.420   2.701   4.602  0.2700  0.3362 -0.3642
  974MOL0    Cl28480   3.559   2.719   4.491 -0.2405  0.3847 -0.0848
  974MOL0     C28481   4.151   2.303   5.121  0.0204  0.3294  0.3313
  974MOL0     C28482   4.278   2.293   5.188 -0.0325  0.2635 -0.0451
  974MOL0     O28483   4.506   2.552   5.258 -0.3786  0.0917 -0.0389
  974MOL0     C28484   4.785   2.569   5.304  0.2226  0.1391  0.4489
  974MOL0     C28485   4.928   2.567   5.313 -0.4936  0.0435  0.2714
  974MOL0     N28486   4.927   2.389   5.828 -0.2987  0.2321 -0.1643
  974MOL0     N28487   4.796   2.389   5.813  0.7479 -0.3237 -0.3217
  974MOL0     C28488   3.889   2.346   6.207  0.2321 -0.5914  0.1512
  974MOL0     C28489   3.798   2.327   6.316  0.2230 -0.0871  0.1747
  974MOL0     C28490   3.376   2.263   6.486  0.6085 -0.6085  0.2986
  974MOL0     C28491   3.328   2.377   6.556  0.5024 -0.3224 -0.1722
  974MOL0     C28492   3.205   2.379   6.634 -0.3459  0.4523 -0.1577
  974MOL0     C28493   3.120   2.272   6.631 -0.6108  0.2041 -0.2782
  974MOL0     O28494   3.008   2.282   6.702  0.0988 -0.3791 -0.2697
  974MOL0     C28495   2.898   2.202   6.654 -0.1084 -0.9007  0.6961
  974MOL0     C28496   2.769   2.228   6.730  0.6530 -0.0528  1.1710
  974MOL0     C28497   2.651   2.149   6.675  0.4230 -0.2868  0.0202
  974MOL0     C28498   2.541   2.131   6.770  0.0478 -0.8466 -0.4257
  974MOL0     C28499   2.571   2.041   6.889 -0.1172 -0.5539 -0.7797
  974MOL0     C28500   2.594   1.991   6.996 -0.4797  0.3919  0.1417
  974MOL0     C28501   3.165   2.160   6.562  0.4357  0.3254 -0.3676
  974MOL0     C28502   3.282   2.152   6.497  1.3349  0.1845 -0.2358
  974MOL0     H28503   3.540   2.503   6.190 -1.3616 -3.1236 -1.0061
  974MOL0     H28504   3.700   2.553   6.019  0.9171  0.4114 -1.2572
  974MOL0     H28505   3.896   2.653   5.958  0.7572  1.0468 -0.0609
  974MOL0     H28506   3.826   2.546   5.846 -1.2940  1.5638  1.4192
  974MOL0     H28507   4.123   2.617   5.864 -0.5558  0.5968  0.4770
  974MOL0     H28508   4.000   2.643   5.729 -2.7151 -1.8903 -0.0792
  974MOL0     H28509   3.992   2.413   5.684  1.6346 -1.7115 -1.7240
  974MOL0     H28510   4.104   2.376   5.816 -1.6316 -1.9027 -0.7066
  974MOL0     H28511   4.168   2.403   5.553 -0.2784  0.9082 -1.4158
  974MOL0     H28512   4.171   2.571   5.581  3.1042 -1.2740 -2.2551
  974MOL0     H28513   4.354   2.351   5.701 -0.8320  0.6015  0.9445
  974MOL0     H28514   4.344   2.502   5.784 -5.4572  0.7898  0.6249
  974MOL0     H28515   4.425   2.623   5.583  3.2195  0.7373  0.1989
  974MOL0     H28516   4.416   2.466   5.492  2.4179  1.8776 -1.6224
  974MOL0     H28517   4.643   2.563   5.600 -0.0661  0.6558  1.5878
  974MOL0     H28518   4.570   2.543   5.747 -1.3192 -0.3521  0.6051
  974MOL0     H28519   4.628   2.308   5.539  1.8093 -0.3526  0.1352
  974MOL0     H28520   4.573   2.285   5.713  2.1897 -1.7940  0.1727
  974MOL0     H28521   4.899   2.307   5.510  0.5040  3.6415 -1.0738
  974MOL0     H28522   5.146   2.248   5.730  1.4228  0.6540  1.1317
  974MOL0     H28523   5.183   2.420   5.763  0.2154 -0.9372  0.8934
  974MOL0     H28524   5.154   2.276   5.491  0.9612 -0.2636 -2.1986
  974MOL0     H28525   5.304   2.322   5.574 -0.5734 -1.9688  1.4529
  974MOL0     H28526   5.102   2.547   5.541 -0.6092 -0.7144 -1.7293
  974MOL0     H28527   5.279   2.539   5.557 -0.9717 -0.6094  3.1661
  974MOL0     H28528   5.315   2.478   5.327 -0.6417 -1.3361  1.2102
  974MOL0     H28529   5.207   2.612   5.312  1.6241 -0.4250 -2.6936
  974MOL0     H28530   4.978   2.237   5.217  0.1774 -0.5303 -2.1651
  974MOL0     H28531   4.739   2.245   5.187  1.6952 -1.5541  1.0282
  974MOL0     H28532   4.470   2.402   4.918  0.8048 -2.5479  0.4848
  974MOL0     H28533   4.254   2.436   4.832 -2.5227  1.0476  0.2170
  974MOL0     H28534   3.936   2.179   4.987 -0.7761 -0.6428 -0.9329
  974MOL0     H28535   3.869   2.240   4.848  2.6956 -0.4602 -0.6670
  974MOL0     H28536   3.841   2.362   5.129 -0.4930 -0.4715  0.4791
  974MOL0     H28537   3.714   2.257   5.067 -1.6680 -0.0570 -2.0848
  974MOL0     H28538   3.703   2.395   4.858  0.1346 -0.7536  0.3588
  974MOL0     H28539   3.796   2.517   4.933  0.6650 -1.3038 -2.3784
  974MOL0     H28540   3.510   2.419   5.001  0.1011 -0.4534  1.4566
  974MOL0     H28541   3.593   2.515   5.125 -4.2867  2.2578  0.3811
  974MOL0     H28542   3.574   2.715   4.992 -0.6876 -0.2007  1.3464
  974MOL0     H28543   3.428   2.608   4.989 -1.0174 -3.0901 -3.5177
  974MOL0     H28544   3.494   2.522   4.762  1.8832  0.6566 -3.9843
  974MOL0     H28545   3.641   2.617   4.776 -0.0732 -0.0058 -0.8075
  974MOL0     H28546   3.359   2.743   4.804 -0.4140 -1.3128 -0.4991
  974MOL0     H28547   3.503   2.826   4.759  0.4243 -1.2687  0.8925
  974MOL0     H28548   3.345   2.772   4.565  2.5835  2.1424 -1.8457
  974MOL0     H28549   3.386   2.597   4.593  0.9719 -0.3132  3.2123
  974MOL0     H28550   4.061   2.279   5.177  1.1534  0.3165  2.2399
  974MOL0     H28551   4.288   2.266   5.292  2.0812  1.5338  0.1446
  974MOL0     H28552   4.729   2.658   5.330 -2.1446 -1.1089 -0.1115
  974MOL0     H28553   4.988   2.652   5.345 -0.5658 -0.3157  1.4225
  974MOL0     H28554   3.986   2.298   6.205 -0.8416 -2.8925  0.2635
  974MOL0     H28555   3.830   2.281   6.409 -0.7024  1.5020  1.3320
  974MOL0     H28556   3.392   2.464   6.560 -0.2887  0.3038 -0.9659
  974MOL0     H28557   3.183   2.465   6.695 -0.1323 -1.4797  2.8378
  974MOL0     H28558   2.917   2.095   6.659  1.5875 -0.9370 -3.0518
  974MOL0     H28559   2.877   2.211   6.547  0.2054 -4.0666  0.2741
  974MOL0     H28560   2.794   2.202   6.833  2.7553  3.6594  1.7725
  974MOL0     H28561   2.750   2.336   6.733  1.3357  0.0744  1.1166
  974MOL0     H28562   2.691   2.048   6.658  1.3221 -0.2833  1.8157
  974MOL0     H28563   2.615   2.202   6.587 -1.8466 -0.5785  0.7273
  974MOL0     H28564   2.517   2.226   6.818  2.2137 -0.3615 -0.1988
  974MOL0     H28565   2.453   2.100   6.712 -1.0964  1.9754 -0.3390
  974MOL0     H28566   2.611   1.946   7.091 -2.3031 -0.3971  0.1262
  974MOL0     H28567   3.101   2.072   6.557  0.6126  0.2292 -0.8968
  974MOL0     H28568   3.302   2.062   6.440  1.4113 -0.7041  1.1640
  975MOL0     O28569   5.304   3.689   8.139 -0.4175  1.0050  0.7155
  975MOL0     C28570   5.316   3.695   8.019 -0.5349  0.6466  0.1885
  975MOL0     O28571   5.208   3.695   7.935  0.2358  0.0109  0.3658
  975MOL0     C28572   5.087   3.729   7.983  0.0460  0.3292  0.1821
  975MOL0     C28573   4.972   3.654   7.948 -0.3886  0.5801  0.6967
  975MOL0     C28574   4.843   3.693   7.979 -1.4649  0.5511 -0.1822
  975MOL0     C28575   4.821   3.807   8.058  0.6736 -0.8581  1.1512
  975MOL0     O28576   4.694   3.819   8.087  0.1018  0.4593  0.5681
  975MOL0     C28577   4.671   3.869   8.218  1.3358  0.3165 -0.0009
  975MOL0     C28578   4.522   3.900   8.239 -0.3603 -0.5828 -0.0522
  975MOL0     C28579   4.429   3.787   8.172 -0.2626 -0.3387  0.0978
  975MOL0     C28580   4.297   3.806   8.221  0.3236  0.1594 -0.0538
  975MOL0     C28581   4.212   3.693   8.163 -0.1135  0.0869  0.0206
  975MOL0     C28582   4.085   3.672   8.257 -0.1442 -0.7096 -0.8503
  975MOL0     C28583   4.014   3.540   8.225 -0.2997  0.0463 -0.2559
  975MOL0     C28584   3.933   3.559   8.090 -0.0642 -0.2573  1.5615
  975MOL0     N28585   3.847   3.442   8.048 -0.8423 -0.4041 -1.0450
  975MOL0     C28586   3.755   3.461   7.946 -0.9136 -0.6927  0.5598
  975MOL0     C28587   3.714   3.336   7.912  0.5668  0.1617  0.0117
  975MOL0     C28588   3.613   3.301   7.810 -0.2091 -0.0117 -0.4979
  975MOL0     C28589   3.670   3.325   7.672  0.0093 -0.0984 -0.0121
  975MOL0     C28590   3.652   3.209   7.571  0.4275  0.1864 -0.1708
  975MOL0     C28591   3.505   3.209   7.509 -0.1709  0.3596 -1.1537
  975MOL0     O28592   3.407   3.180   7.613  0.3478 -0.4247  0.1035
  975MOL0     C28593   3.272   3.159   7.584 -0.1408 -0.4116 -0.0483
  975MOL0     C28594   3.191   3.135   7.691  0.0607 -0.6136 -0.3539
  975MOL0     C28595   3.056   3.099   7.679  0.5236  0.5048 -0.0310
  975MOL0     C28596   2.993   3.100   7.560 -0.1433  0.2956  0.3766
  975MOL0     C28597   2.843   3.083   7.540  0.5853 -0.2706  0.6629
  975MOL0     O28598   2.768   3.121   7.639  0.7797 -0.4146 -0.5522
  975MOL0     C28599   2.633   3.089   7.637 -0.9395  0.4668 -0.6156
  975MOL0     C28600   2.528   3.157   7.569  0.1033 -0.5952 -0.2037
  975MOL0     C28601   2.398   3.101   7.567  0.3424  0.6932 -0.6083
  975MOL0     C28602   2.378   2.975   7.626 -0.7806  0.2089  0.1449
  975MOL0     O28603   2.259   2.907   7.616  0.5002  0.3317  0.4815
  975MOL0     C28604   2.146   2.983   7.570 -0.3719 -0.0033  0.5345
  975MOL0     C28605   2.021   2.897   7.592 -0.6488  0.7573 -0.1205
  975MOL0     C28606   1.991   2.888   7.746 -0.0077  0.6579  0.4751
  975MOL0     C28607   1.840   2.838   7.767  0.2470 -0.3649 -0.1830
  975MOL0     C28608   1.825   2.689   7.738 -0.0574 -0.3016  0.3079
  975MOL0     C28609   1.679   2.632   7.757  0.1540 -0.7804  0.2703
  975MOL0     C28610   1.684   2.476   7.745  0.3742 -0.1416 -0.0795
  975MOL0     C28611   1.554   2.412   7.800 -0.5062 -0.0641 -0.1822
  975MOL0    Cl28612   1.558   2.234   7.782 -0.1208 -0.1373 -0.3507
  975MOL0     C28613   2.483   2.915   7.698 -0.2768  0.1364 -0.0747
  975MOL0     C28614   2.610   2.965   7.702 -0.5255  0.0430 -0.0630
  975MOL0     O28615   2.800   3.042   7.437 -0.3372 -0.4709  0.0811
  975MOL0     C28616   3.082   3.118   7.446  0.9218  0.5493 -0.5950
  975MOL0     C28617   3.213   3.163   7.459  0.3542 -0.1624  0.0489
  975MOL0     N28618   3.789   3.244   7.986  0.6250 -0.2460  0.2990
  975MOL0     N28619   3.870   3.311   8.060  0.0337  0.1473 -1.0045
  975MOL0     C28620   4.924   3.891   8.082  0.0707 -0.4623 -0.2728
  975MOL0     C28621   5.056   3.853   8.051 -0.0696  0.1690  0.0059
  975MOL0     C28622   5.446   3.674   7.948 -0.0600 -1.0993 -0.1040
  975MOL0     C28623   5.459   3.703   7.811 -0.3986  0.5369 -0.1807
  975MOL0     C28624   5.577   3.677   7.753  0.7217 -0.1079  0.7521
  975MOL0     C28625   5.692   3.636   7.818  0.7999 -0.0357 -0.6552
  975MOL0     O28626   5.811   3.628   7.747  0.5469  0.0174  0.3026
  975MOL0     C28627   5.911   3.544   7.803  0.5860  0.5630 -0.4309
  975MOL0     C28628   6.027   3.519   7.708 -1.0792 -0.4098 -0.6519
  975MOL0     C28629   6.147   3.442   7.775  0.1648 -0.8352 -0.3330
  975MOL0     C28630   6.111   3.304   7.845  0.4199  0.7340 -0.5449
  975MOL0     C28631   6.234   3.221   7.861  0.3395 -0.3867 -0.3762
  975MOL0     C28632   6.332   3.153   7.883  0.2800  0.4502  0.5647
  975MOL0     C28633   5.676   3.609   7.956  0.1588 -0.4287  0.1289
  975MOL0     C28634   5.554   3.625   8.019  0.4094  0.2102 -0.1715
  975MOL0     H28635   4.980   3.560   7.894 -1.3576 -0.4523  2.2836
  975MOL0     H28636   4.762   3.624   7.956  1.3887 -4.0468  2.1128
  975MOL0     H28637   4.717   3.967   8.232 -1.9998  2.5981 -2.9484
  975MOL0     H28638   4.712   3.789   8.280  3.9566  0.1454 -1.8286
  975MOL0     H28639   4.496   3.996   8.194  1.2944 -1.2496 -2.5870
  975MOL0     H28640   4.508   3.908   8.348  0.5136  0.4660  0.0022
  975MOL0     H28641   4.469   3.691   8.207 -0.5123 -1.3802 -2.2961
  975MOL0     H28642   4.436   3.790   8.063  1.7552 -2.1355  0.1114
  975MOL0     H28643   4.286   3.808   8.330 -1.1211  0.8508 -0.1962
  975MOL0     H28644   4.254   3.902   8.193 -0.6920 -0.5738 -1.0819
  975MOL0     H28645   4.264   3.600   8.140 -1.2434 -0.3236 -0.9963
  975MOL0     H28646   4.178   3.722   8.063 -0.4256 -2.0051 -0.5174
  975MOL0     H28647   4.017   3.757   8.244  0.4028  0.1719  1.5398
  975MOL0     H28648   4.125   3.672   8.359  0.3103  3.9157 -0.8163
  975MOL0     H28649   4.088   3.464   8.201  1.7872  1.8517  0.1921
  975MOL0     H28650   3.941   3.515   8.304 -0.9178 -2.9903 -1.6654
  975MOL0     H28651   4.005   3.578   8.010  0.1595 -1.5790  1.4392
  975MOL0     H28652   3.873   3.651   8.085 -0.3315 -0.4911 -1.0532
  975MOL0     H28653   3.721   3.553   7.900 -0.1130  0.5319  2.3055
  975MOL0     H28654   3.523   3.364   7.808 -0.1966  0.0664  0.6917
  975MOL0     H28655   3.581   3.200   7.838  2.0197  0.5814  5.4681
  975MOL0     H28656   3.778   3.341   7.682  0.0649 -0.5849  0.2178
  975MOL0     H28657   3.634   3.418   7.628 -0.7407 -1.0121 -1.3913
  975MOL0     H28658   3.726   3.227   7.492  1.5279 -2.0290  0.2762
  975MOL0     H28659   3.675   3.114   7.620  2.4481 -0.1037 -1.5431
  975MOL0     H28660   3.489   3.138   7.427 -2.0544 -0.0614 -0.4634
  975MOL0     H28661   3.481   3.309   7.471 -2.8322  0.4244  0.4509
  975MOL0     H28662   3.248   3.139   7.783  0.7546  2.7524 -0.7734
  975MOL0     H28663   3.000   3.078   7.769 -1.4255  2.1079 -0.7916
  975MOL0     H28664   2.551   3.246   7.512  5.4879 -3.1253 -2.7953
  975MOL0     H28665   2.316   3.153   7.518 -0.4199  1.7997  1.7128
  975MOL0     H28666   2.160   2.998   7.463  1.8111 -1.0162  0.6173
  975MOL0     H28667   2.136   3.080   7.619  1.6230  0.0691  0.8668
  975MOL0     H28668   2.038   2.797   7.552  0.6771  0.7179  0.4901
  975MOL0     H28669   1.934   2.948   7.549 -1.6356  0.8591  1.8399
  975MOL0     H28670   2.000   2.983   7.800 -1.7495 -0.1825  2.3625
  975MOL0     H28671   2.057   2.816   7.795 -0.7915  0.6433  1.5409
  975MOL0     H28672   1.811   2.865   7.869 -2.5321 -2.4500 -0.3101
  975MOL0     H28673   1.774   2.903   7.707  0.7691  0.1767 -0.1827
  975MOL0     H28674   1.904   2.637   7.792 -0.5920 -0.7237  0.7031
  975MOL0     H28675   1.845   2.673   7.631 -0.3616  2.0578 -0.1495
  975MOL0     H28676   1.618   2.674   7.676  0.6644  1.6012  1.0627
  975MOL0     H28677   1.635   2.658   7.853 -2.9138 -4.0017 -0.0317
  975MOL0     H28678   1.706   2.441   7.644  0.1204 -0.6923  0.0526
  975MOL0     H28679   1.763   2.444   7.813  1.7005 -0.0461 -1.5297
  975MOL0     H28680   1.469   2.458   7.750  0.9982  0.2475 -2.6074
  975MOL0     H28681   1.549   2.423   7.909 -1.1867 -0.1498 -0.2028
  975MOL0     H28682   2.466   2.826   7.758 -1.9811  0.9728  0.7548
  975MOL0     H28683   2.686   2.904   7.749 -1.0873  0.0398  0.8648
  975MOL0     H28684   3.035   3.117   7.348 -0.6612  0.8629  0.1322
  975MOL0     H28685   3.272   3.188   7.371  1.0676  0.9822  0.8176
  975MOL0     H28686   4.913   3.987   8.131  0.6504 -0.7670  0.4677
  975MOL0     H28687   5.141   3.917   8.073  0.9858 -1.2658  0.2205
  975MOL0     H28688   5.380   3.748   7.752  0.6199 -0.1733 -2.2034
  975MOL0     H28689   5.595   3.700   7.649 -2.0187 -1.9651 -0.2302
  975MOL0     H28690   5.868   3.446   7.825 -2.7948  1.1029 -3.7098
  975MOL0     H28691   5.951   3.592   7.893  0.3639  1.3279 -0.7365
  975MOL0     H28692   5.995   3.453   7.627 -1.3608 -0.4646 -0.4996
  975MOL0     H28693   6.064   3.604   7.651  1.2882 -0.4080  0.7641
  975MOL0     H28694   6.195   3.504   7.852  2.2048 -2.0007 -0.5797
  975MOL0     H28695   6.229   3.419   7.707  0.9442  1.6859 -0.3570
  975MOL0     H28696   6.069   3.321   7.945 -0.7883 -0.4900 -0.8111
  975MOL0     H28697   6.043   3.249   7.780 -0.9454  2.2312 -0.4491
  975MOL0     H28698   6.414   3.086   7.896  0.0296  0.4925  2.7291
  975MOL0     H28699   5.758   3.563   8.010  1.0388  0.5361 -0.3312
  975MOL0     H28700   5.549   3.585   8.120 -1.0663 -1.3070 -0.8046
  976MOL0     O28701   9.876   9.624   8.507  0.2826  0.0617  0.0655
  976MOL0     C28702   9.928   9.513   8.512 -0.0590 -0.9799  0.2806
  976MOL0     O28703   9.864   9.398   8.484  0.3755 -0.6239  0.0094
  976MOL0     C28704   9.736   9.395   8.432 -0.6617 -1.1145 -0.2684
  976MOL0     C28705   9.719   9.310   8.319 -0.6962  0.3499  0.2386
  976MOL0     C28706   9.595   9.282   8.264  0.2123  0.9125 -0.0965
  976MOL0     C28707   9.480   9.359   8.295 -0.7773 -0.5502  0.1214
  976MOL0     O28708   9.366   9.326   8.227  0.4706 -0.6298 -0.5225
  976MOL0     C28709   9.266   9.431   8.235  0.4090 -1.3567 -0.0550
  976MOL0     C28710   9.132   9.376   8.185 -0.0065 -0.4076 -0.2594
  976MOL0     C28711   9.034   9.487   8.163 -1.2905 -0.4331 -0.0509
  976MOL0     C28712   8.900   9.429   8.111  1.4459 -0.1839 -0.7267
  976MOL0     C28713   8.796   9.537   8.113 -0.0755 -0.5491 -1.0902
  976MOL0     C28714   8.659   9.491   8.058  0.4357 -0.4256 -0.4030
  976MOL0     C28715   8.561   9.611   8.043  0.6757 -0.6310 -0.7993
  976MOL0     C28716   8.426   9.555   7.996 -0.4255 -0.3279  0.0676
  976MOL0     N28717   8.336   9.661   7.944  0.1620  0.0100  0.7197
  976MOL0     C28718   8.280   9.667   7.818  0.2391 -0.2262 -0.5573
  976MOL0     C28719   8.202   9.777   7.813 -0.1328  0.3918 -0.7331
  976MOL0     C28720   8.111   9.799   7.695 -0.2249 -0.2364 -0.3207
  976MOL0     C28721   7.964   9.798   7.737 -0.1039 -0.1018  1.2529
  976MOL0     C28722   7.864   9.835   7.622 -0.5972 -0.3204 -0.3703
  976MOL0     C28723   7.722   9.849   7.670  0.3273 -0.0121 -0.2962
  976MOL0     O28724   7.639   9.845   7.542  0.5784  0.2971 -0.3008
  976MOL0     C28725   7.494   9.830   7.550  0.2256 -0.2691  0.7016
  976MOL0     C28726   7.429   9.846   7.426 -0.9349  0.1426  0.2708
  976MOL0     C28727   7.293   9.856   7.413  0.4868 -0.4098 -0.3957
  976MOL0     C28728   7.210   9.851   7.527 -0.3877 -0.5284  0.3521
  976MOL0     C28729   7.069   9.878   7.519 -0.1874  0.3627 -0.4030
  976MOL0     O28730   7.008   9.894   7.640  0.0369  0.8688 -0.1417
  976MOL0     C28731   6.868   9.920   7.648 -0.2615 -0.4389 -0.2392
  976MOL0     C28732   6.772   9.895   7.554  0.3717 -0.0860 -0.7034
  976MOL0     C28733   6.636   9.907   7.593 -0.3629  0.3453  0.3372
  976MOL0     C28734   6.598   9.957   7.718 -0.1832 -0.5873 -0.4266
  976MOL0     O28735   6.472   9.975   7.763 -0.7564 -0.0462  0.6578
  976MOL0     C28736   6.357   9.929   7.689 -0.2817  0.1282  0.7474
  976MOL0     C28737   6.230   9.941   7.775 -0.1432  0.2903 -0.7179
  976MOL0     C28738   6.101   9.969   7.695 -0.7860  0.0248  0.5619
  976MOL0     C28739   5.981   9.928   7.776 -0.4526 -0.6318  0.2029
  976MOL0     C28740   5.852   9.953   7.703  0.4195  0.6759  0.2092
  976MOL0     C28741   5.723   9.942   7.773 -1.2541 -0.0130 -0.3383
  976MOL0     C28742   5.610  10.029   7.723  1.4053  0.5995 -0.1780
  976MOL0     C28743   5.480  10.032   7.817  0.3104  0.2971  0.4054
  976MOL0    Cl28744   5.439   9.857   7.853  0.1844 -0.2138  0.4746
  976MOL0     C28745   6.696   9.980   7.812  0.0753 -0.6162 -0.4013
  976MOL0     C28746   6.825   9.970   7.776  0.3670  0.5667  0.5047
  976MOL0     O28747   7.019   9.897   7.408  0.5389 -0.2149 -0.3940
  976MOL0     C28748   7.272   9.823   7.654  0.2167 -0.4378 -0.0728
  976MOL0     C28749   7.416   9.808   7.661  0.6412  0.2708 -0.1114
  976MOL0     N28750   8.217   9.838   7.935  0.9952  0.5053  0.2043
  976MOL0     N28751   8.297   9.769   8.014 -0.3416  0.2006  0.2462
  976MOL0     C28752   9.506   9.457   8.395 -0.0818 -0.7814  0.2551
  976MOL0     C28753   9.626   9.467   8.465 -1.1826  0.5301 -0.4886
  976MOL0     C28754  10.073   9.501   8.534 -0.3052 -0.4196  0.0844
  976MOL0     C28755  10.144   9.385   8.499 -0.1020  0.7545 -0.4829
  976MOL0     C28756  10.286   9.373   8.512  0.1936 -0.0013  0.0254
  976MOL0     C28757  10.351   9.479   8.576  0.4802  0.1061  0.2488
  976MOL0     O28758  10.490   9.474   8.604  0.3051 -0.3034  0.3370
  976MOL0     C28759  10.584   9.383   8.536  0.8917  0.2076 -0.7841
  976MOL0     C28760  10.618   9.440   8.403  0.6679 -0.5444 -0.4711
  976MOL0     C28761  10.698   9.571   8.413  0.6319  0.4331 -0.0174
  976MOL0     C28762  10.754   9.612   8.272 -0.2958  1.4656 -0.9653
  976MOL0     C28763  10.887   9.555   8.233 -0.0198  0.0329  0.1737
  976MOL0     C28764  10.988   9.504   8.192 -0.2194  0.3141  0.0033
  976MOL0     C28765  10.286   9.594   8.611  0.3589 -0.3255  0.4448
  976MOL0     C28766  10.152   9.600   8.594  0.7028 -0.5038 -0.0960
  976MOL0     H28767   9.811   9.258   8.294 -1.0024  0.0289 -0.2484
  976MOL0     H28768   9.589   9.211   8.181 -4.5279  1.9093 -0.9008
  976MOL0     H28769   9.300   9.515   8.173  0.5583  0.5073  2.3978
  976MOL0     H28770   9.242   9.482   8.328  1.2936  1.7442 -1.3914
  976MOL0     H28771   9.088   9.311   8.262 -1.3016  1.5511  0.7317
  976MOL0     H28772   9.151   9.320   8.093  1.2809 -1.4149  0.5775
  976MOL0     H28773   9.061   9.572   8.100 -0.1225  1.6588  3.0631
  976MOL0     H28774   9.017   9.536   8.259  1.4896  0.2149  0.1782
  976MOL0     H28775   8.910   9.394   8.008  0.0456  1.0573 -1.3245
  976MOL0     H28776   8.860   9.349   8.175 -0.9440  1.6137  0.1899
  976MOL0     H28777   8.840   9.618   8.054 -1.2359  0.0805 -1.1280
  976MOL0     H28778   8.786   9.581   8.212  0.1191  0.5185 -1.5245
  976MOL0     H28779   8.617   9.420   8.130  1.0819  0.2545  0.6763
  976MOL0     H28780   8.665   9.453   7.956  1.2153  0.3077 -0.6472
  976MOL0     H28781   8.540   9.667   8.135 -0.4866  0.5241 -1.7182
  976MOL0     H28782   8.599   9.689   7.976  1.1811  1.4432  1.7456
  976MOL0     H28783   8.370   9.512   8.080  1.7612 -0.2874  1.6432
  976MOL0     H28784   8.441   9.474   7.924  0.6618 -0.4405  0.4016
  976MOL0     H28785   8.304   9.612   7.728  0.8198  1.4422 -1.4728
  976MOL0     H28786   8.120   9.723   7.618  0.1293  2.2574 -2.9067
  976MOL0     H28787   8.137   9.900   7.661 -0.8616  0.3744  0.9095
  976MOL0     H28788   7.948   9.863   7.824 -1.1227  1.8308 -0.2839
  976MOL0     H28789   7.942   9.697   7.771  1.0441 -0.2170  1.7036
  976MOL0     H28790   7.873   9.936   7.580 -2.3090  0.5019  1.1263
  976MOL0     H28791   7.874   9.758   7.545  0.8128  1.3242 -1.9372
  976MOL0     H28792   7.709   9.941   7.728  2.1078 -0.0190  0.2078
  976MOL0     H28793   7.705   9.763   7.736  0.6457 -0.5425 -0.8871
  976MOL0     H28794   7.501   9.849   7.345 -1.7870 -1.8623 -0.6316
  976MOL0     H28795   7.252   9.872   7.314  2.3882  1.6322 -0.9214
  976MOL0     H28796   6.798   9.865   7.453  2.7909  0.6769 -0.3701
  976MOL0     H28797   6.563   9.887   7.515 -0.2207  1.6254 -0.1458
  976MOL0     H28798   6.370   9.826   7.655 -2.1840  0.0580  0.0889
  976MOL0     H28799   6.348   9.998   7.604 -0.7220 -1.1643 -0.2973
  976MOL0     H28800   6.241  10.016   7.854  0.3991  1.0460 -1.5016
  976MOL0     H28801   6.213   9.848   7.832 -3.4803  1.7756  1.0199
  976MOL0     H28802   6.109   9.922   7.596 -0.1240  0.6694  0.2982
  976MOL0     H28803   6.083  10.076   7.684 -1.5920 -0.1273  0.3673
  976MOL0     H28804   5.989   9.823   7.804 -1.0143 -0.3813  1.3430
  976MOL0     H28805   5.988  10.000   7.858  0.5965  1.7927 -1.8586
  976MOL0     H28806   5.846   9.881   7.620 -0.7727  1.1246 -0.1218
  976MOL0     H28807   5.862  10.054   7.662 -0.4493  1.9501  2.9571
  976MOL0     H28808   5.747   9.966   7.877  2.1846 -4.1143  0.1240
  976MOL0     H28809   5.694   9.836   7.774 -1.7273  0.1085  1.1281
  976MOL0     H28810   5.644  10.131   7.702 -1.0775  1.0451 -2.4881
  976MOL0     H28811   5.578   9.996   7.624  1.2214  0.3316 -0.0325
  976MOL0     H28812   5.391  10.082   7.777 -0.9240 -1.3634  0.9802
  976MOL0     H28813   5.504  10.084   7.910  1.0865 -0.9685  0.9369
  976MOL0     H28814   6.672   9.998   7.916 -0.0074 -2.6485 -0.0404
  976MOL0     H28815   6.900   9.982   7.853 -1.7610  2.9979  2.3855
  976MOL0     H28816   7.218   9.815   7.748  2.4981 -0.0838  1.3361
  976MOL0     H28817   7.449   9.783   7.761  3.7821 -0.6137 -1.2451
  976MOL0     H28818   9.429   9.531   8.416 -0.3722 -1.2709  0.9942
  976MOL0     H28819   9.637   9.555   8.529 -0.9241  0.3960 -0.3491
  976MOL0     H28820  10.093   9.297   8.461  0.5540 -0.4861  1.3670
  976MOL0     H28821  10.339   9.283   8.482  2.4986  0.8531  1.3199
  976MOL0     H28822  10.542   9.282   8.542 -0.3341  0.7621  1.9629
  976MOL0     H28823  10.677   9.374   8.593  1.2732 -1.0931 -1.5736
  976MOL0     H28824  10.670   9.365   8.342  1.2706 -0.9738  0.5480
  976MOL0     H28825  10.527   9.462   8.348  0.2141  2.1473  1.1904
  976MOL0     H28826  10.785   9.557   8.478  0.0111  0.9024  0.9337
  976MOL0     H28827  10.638   9.650   8.458  1.0907 -0.6097  2.6598
  976MOL0     H28828  10.682   9.581   8.197 -0.4538  1.2210 -0.7157
  976MOL0     H28829  10.752   9.721   8.265  0.5544  1.9884  3.5180
  976MOL0     H28830  11.070   9.469   8.132  0.4649  1.9680 -0.1065
  976MOL0     H28831  10.346   9.681   8.638  1.0933  0.3221 -2.8476
  976MOL0     H28832  10.114   9.698   8.624  1.4405 -0.1867 -0.1800
  977MOL0     O28833   8.024   8.628   4.208 -0.0446 -0.5618  0.0469
  977MOL0     C28834   8.011   8.537   4.288  0.7990  0.3262 -0.2475
  977MOL0     O28835   7.897   8.458   4.308 -0.1334  0.5479  0.1527
  977MOL0     C28836   7.812   8.437   4.202 -0.6018 -0.5274 -0.7217
  977MOL0     C28837   7.676   8.404   4.242  1.1657  1.1932  0.5881
  977MOL0     C28838   7.579   8.386   4.149 -0.5332 -0.3225 -0.7259
  977MOL0     C28839   7.601   8.390   4.014 -0.0067  0.3296 -0.4197
  977MOL0     O28840   7.487   8.391   3.943 -0.5951 -0.0939  0.6129
  977MOL0     C28841   7.498   8.392   3.801  0.5779  0.3900 -0.6672
  977MOL0     C28842   7.543   8.263   3.729 -0.2343 -0.4529 -0.1930
  977MOL0     C28843   7.461   8.146   3.771  0.3291 -0.0393  0.3267
  977MOL0     C28844   7.457   8.029   3.666 -0.7495 -0.8246  0.1639
  977MOL0     C28845   7.348   7.924   3.707 -0.1387 -1.2021 -0.4557
  977MOL0     C28846   7.341   7.817   3.591 -0.7635  0.2940  0.1459
  977MOL0     C28847   7.253   7.694   3.612 -0.1110 -0.0070  0.4871
  977MOL0     C28848   7.104   7.726   3.623  0.1256  0.3649 -0.6117
  977MOL0     N28849   7.023   7.602   3.619 -0.3448 -0.6051  0.2059
  977MOL0     C28850   7.059   7.484   3.561 -0.0918 -0.3543 -0.1928
  977MOL0     C28851   6.937   7.425   3.548 -0.2482  1.1463  0.0750
  977MOL0     C28852   6.913   7.284   3.501 -0.6459  0.6033  0.1712
  977MOL0     C28853   6.780   7.249   3.429 -0.3115  0.2989 -0.2315
  977MOL0     C28854   6.777   7.099   3.400  0.4466 -0.0824  0.1627
  977MOL0     C28855   6.627   7.073   3.387 -0.1421  0.0321  0.3917
  977MOL0     O28856   6.581   7.024   3.516  0.2431 -0.7559  0.7300
  977MOL0     C28857   6.443   6.985   3.514 -0.1766  0.5023 -0.1899
  977MOL0     C28858   6.333   7.078   3.515  0.4470 -0.2136  0.1012
  977MOL0     C28859   6.206   7.034   3.506 -0.4935 -0.5608  0.4780
  977MOL0     C28860   6.169   6.894   3.510 -0.8587 -1.1941 -0.7256
  977MOL0     C28861   6.034   6.842   3.506 -0.2273 -0.1960 -0.1618
  977MOL0     O28862   5.939   6.943   3.533  0.5402  0.1488 -0.2414
  977MOL0     C28863   5.805   6.921   3.524  0.5403  0.1941  0.1412
  977MOL0     C28864   5.724   7.030   3.500  0.4228  0.4606  0.4316
  977MOL0     C28865   5.586   7.011   3.486  0.4531  0.2092 -0.4298
  977MOL0     C28866   5.524   6.892   3.501 -0.0775  1.3561 -0.0999
  977MOL0     O28867   5.387   6.887   3.495 -0.1691 -0.9408  0.1801
  977MOL0     C28868   5.314   6.784   3.562 -0.0294 -0.6063 -0.4837
  977MOL0     C28869   5.170   6.791   3.528  0.5404 -0.0419  0.5075
  977MOL0     C28870   5.113   6.918   3.599  0.0065 -0.7589 -0.0347
  977MOL0     C28871   4.955   6.937   3.588 -0.8376 -0.5521  0.2349
  977MOL0     C28872   4.906   7.057   3.675 -0.5001 -0.0081  0.2368
  977MOL0     C28873   4.746   7.063   3.678 -0.0942  0.4726 -0.5944
  977MOL0     C28874   4.699   7.192   3.751 -0.4540 -0.4861  0.2331
  977MOL0     C28875   4.549   7.190   3.792 -0.0417 -0.5875 -0.4173
  977MOL0    Cl28876   4.460   7.175   3.636  0.1962  0.2724 -0.2189
  977MOL0     C28877   5.599   6.789   3.551  0.0489  0.1344  0.7669
  977MOL0     C28878   5.742   6.796   3.548 -0.3774  0.0051 -0.6695
  977MOL0     O28879   6.011   6.725   3.497 -0.7257  0.2003  0.5360
  977MOL0     C28880   6.274   6.805   3.503 -0.7505  0.0043 -0.3711
  977MOL0     C28881   6.407   6.846   3.502  0.7866 -0.1205  0.4233
  977MOL0     N28882   6.844   7.507   3.599 -0.2739  1.3365  0.3355
  977MOL0     N28883   6.892   7.613   3.643 -0.0972 -0.0107 -1.6563
  977MOL0     C28884   7.740   8.424   3.972  0.3754  0.9734  0.1621
  977MOL0     C28885   7.843   8.429   4.068 -0.4335 -0.5178  0.3396
  977MOL0     C28886   8.123   8.521   4.386  0.0475 -0.0839 -0.5742
  977MOL0     C28887   8.238   8.596   4.387 -0.5745 -0.3783 -0.2559
  977MOL0     C28888   8.346   8.582   4.474 -0.1130  0.7015 -0.3910
  977MOL0     C28889   8.334   8.483   4.573  0.0323 -0.5050  0.1766
  977MOL0     O28890   8.441   8.471   4.663 -0.2059 -0.0906 -0.3713
  977MOL0     C28891   8.437   8.368   4.759  0.1272 -0.0209  0.1555
  977MOL0     C28892   8.572   8.365   4.840 -0.7592 -0.5768 -0.3706
  977MOL0     C28893   8.569   8.244   4.930  0.8731  0.1139  0.9141
  977MOL0     C28894   8.687   8.227   5.027  0.7309  0.2878 -0.3672
  977MOL0     C28895   8.706   8.341   5.116 -0.7402  0.8896  0.6102
  977MOL0     C28896   8.735   8.430   5.191 -0.0829 -0.0392  0.3340
  977MOL0     C28897   8.218   8.405   4.580 -0.0510 -1.0446  0.2083
  977MOL0     C28898   8.107   8.427   4.489  0.3254  0.0205  0.4528
  977MOL0     H28899   7.646   8.387   4.345  0.3420 -2.8346 -0.1666
  977MOL0     H28900   7.486   8.366   4.201  0.9148 -1.5146  1.5375
  977MOL0     H28901   7.558   8.479   3.772 -0.5864  0.4844 -3.0710
  977MOL0     H28902   7.398   8.413   3.761 -0.9508 -1.4980  1.9268
  977MOL0     H28903   7.649   8.243   3.747  0.0664  1.6461  0.6936
  977MOL0     H28904   7.527   8.272   3.621  0.3701  2.5968 -0.1132
  977MOL0     H28905   7.358   8.169   3.798  0.3504 -0.9249  1.2566
  977MOL0     H28906   7.508   8.103   3.861  1.8462 -1.0977 -0.9049
  977MOL0     H28907   7.456   8.069   3.565  1.5507  0.1722  0.4815
  977MOL0     H28908   7.552   7.975   3.674 -0.8378 -1.4013 -2.0700
  977MOL0     H28909   7.251   7.974   3.721  0.7640  1.0042 -1.5212
  977MOL0     H28910   7.373   7.886   3.806  0.4670 -0.6020 -0.3721
  977MOL0     H28911   7.443   7.785   3.572 -0.2652  1.6715  0.3533
  977MOL0     H28912   7.303   7.872   3.504  0.1605 -0.8050 -0.9828
  977MOL0     H28913   7.269   7.638   3.520 -0.1554 -0.9546  1.0428
  977MOL0     H28914   7.284   7.647   3.706 -0.8699  0.1609  0.8307
  977MOL0     H28915   7.080   7.780   3.531 -3.1073  1.4722  0.7047
  977MOL0     H28916   7.089   7.776   3.720  1.2119 -0.1220 -0.1812
  977MOL0     H28917   7.157   7.441   3.544 -0.1121  0.0844 -1.5416
  977MOL0     H28918   6.925   7.227   3.594  1.9995  2.1206  0.8781
  977MOL0     H28919   6.997   7.250   3.440 -0.4548  3.3844 -1.2724
  977MOL0     H28920   6.772   7.306   3.336  1.5132  2.3656  0.7765
  977MOL0     H28921   6.704   7.284   3.499 -0.2206  4.0871 -1.7682
  977MOL0     H28922   6.834   7.073   3.311  3.5752  1.7006  1.4781
  977MOL0     H28923   6.821   7.042   3.482  0.6526  3.0317  2.3850
  977MOL0     H28924   6.618   6.991   3.316  1.3581 -0.8621  1.1830
  977MOL0     H28925   6.576   7.165   3.355  2.1654  0.6907 -1.7446
  977MOL0     H28926   6.365   7.181   3.514 -1.5755  0.4481 -0.2411
  977MOL0     H28927   6.122   7.102   3.498 -2.6858 -2.8085  2.3830
  977MOL0     H28928   5.768   7.128   3.485  0.7156 -0.1341 -3.8765
  977MOL0     H28929   5.517   7.087   3.451 -1.7731 -1.5187 -0.0607
  977MOL0     H28930   5.325   6.783   3.671  0.9465 -4.2695 -0.4798
  977MOL0     H28931   5.362   6.694   3.523 -0.3740 -0.1783 -1.9495
  977MOL0     H28932   5.125   6.708   3.584 -0.1034  0.1807  0.3345
  977MOL0     H28933   5.145   6.779   3.423 -1.2988 -1.7077  1.0685
  977MOL0     H28934   5.164   6.998   3.544  1.9195 -1.5513  0.5105
  977MOL0     H28935   5.136   6.913   3.706 -1.8231  0.3230  0.4581
  977MOL0     H28936   4.926   6.958   3.485  1.0688  2.5741  0.1888
  977MOL0     H28937   4.913   6.849   3.637 -2.1918 -0.2526 -0.3515
  977MOL0     H28938   4.941   7.150   3.628  1.7580  0.0790  1.8996
  977MOL0     H28939   4.964   7.047   3.767 -1.5845 -0.2012  0.9049
  977MOL0     H28940   4.710   6.963   3.704  1.4493 -0.4262 -1.6953
  977MOL0     H28941   4.718   7.074   3.573  0.8136 -0.4744 -0.9552
  977MOL0     H28942   4.752   7.200   3.846 -0.9885 -0.0650  0.5058
  977MOL0     H28943   4.718   7.280   3.690  0.7719 -0.7724  0.1812
  977MOL0     H28944   4.523   7.286   3.838 -0.6142 -0.4506 -1.0077
  977MOL0     H28945   4.517   7.106   3.854 -2.0027  1.7497  1.9937
  977MOL0     H28946   5.562   6.691   3.581  0.8937 -0.6118 -0.5084
  977MOL0     H28947   5.791   6.702   3.574 -1.9945 -0.7900 -0.3337
  977MOL0     H28948   6.260   6.697   3.513 -1.9317  0.1647 -0.1730
  977MOL0     H28949   6.484   6.770   3.491  1.7771  1.1612 -2.3378
  977MOL0     H28950   7.761   8.436   3.866  2.6697  2.3350  0.6924
  977MOL0     H28951   7.948   8.437   4.042 -0.5322  0.2081  0.1131
  977MOL0     H28952   8.240   8.669   4.307 -0.4016  0.5876  0.6142
  977MOL0     H28953   8.433   8.646   4.464  2.2356 -1.9129  1.8118
  977MOL0     H28954   8.437   8.281   4.694 -0.6153  1.6121 -2.1715
  977MOL0     H28955   8.355   8.382   4.831  1.0539 -1.1747  1.4798
  977MOL0     H28956   8.657   8.358   4.772 -0.6812  2.0381 -0.6354
  977MOL0     H28957   8.583   8.454   4.903  1.7538 -0.9180 -0.2392
  977MOL0     H28958   8.575   8.157   4.863 -0.8900  1.2972 -0.9097
  977MOL0     H28959   8.479   8.242   4.993 -0.8443 -0.3971 -1.3907
  977MOL0     H28960   8.691   8.138   5.090  0.6800  1.8769  1.9720
  977MOL0     H28961   8.769   8.205   4.959 -0.6965 -0.8292 -1.8188
  977MOL0     H28962   8.754   8.517   5.250 -1.6297  0.2861  0.4023
  977MOL0     H28963   8.193   8.314   4.632 -1.2344 -0.6010  0.4571
  977MOL0     H28964   8.024   8.359   4.474 -0.3739  1.1421 -1.0581
  978MOL0     O28965   6.478  11.173   0.082 -0.3707 -0.1017 -0.9999
  978MOL0     C28966   6.543  11.088   0.023  0.8952 -0.7126 -0.0357
  978MOL0     O28967   6.499  11.032  -0.087  1.0094  0.2875  0.3771
  978MOL0     C28968   6.359  11.028  -0.100 -0.4051 -0.3135  0.3414
  978MOL0     C28969   6.292  11.129  -0.165  0.3746 -0.8515 -0.2638
  978MOL0     C28970   6.152  11.138  -0.173 -0.2743 -0.4777  0.4281
  978MOL0     C28971   6.079  11.023  -0.121  0.6188  0.1656  1.1413
  978MOL0     O28972   5.947  11.001  -0.132  1.2002 -0.6574 -0.1202
  978MOL0     C28973   5.869  11.116  -0.151  0.3991 -0.3602 -0.3416
  978MOL0     C28974   5.720  11.100  -0.151  0.5909 -0.6975  0.8982
  978MOL0     C28975   5.672  11.092  -0.000 -0.3975  0.6861 -0.1847
  978MOL0     C28976   5.527  11.062  -0.014  0.2528  0.2552  0.1599
  978MOL0     C28977   5.456  11.015   0.114 -0.6906 -0.9198 -0.1740
  978MOL0     C28978   5.341  10.917   0.079  0.3052  0.0120 -0.9144
  978MOL0     C28979   5.244  10.893   0.188  0.1464  1.0433 -0.3091
  978MOL0     C28980   5.136  10.795   0.151  0.6323 -0.5578  0.5394
  978MOL0     N28981   5.029  10.799   0.249  0.1645 -0.2070 -0.7170
  978MOL0     C28982   4.903  10.855   0.217  0.3844 -0.4890 -0.7924
  978MOL0     C28983   4.831  10.856   0.333  0.4120  0.4531 -0.0104
  978MOL0     C28984   4.695  10.923   0.352 -0.1775 -0.0402  0.5140
  978MOL0     C28985   4.586  10.855   0.261 -0.5933  0.2692  0.1125
  978MOL0     C28986   4.570  10.712   0.307 -0.6584  0.4872  0.3269
  978MOL0     C28987   4.526  10.705   0.454  0.4007  0.1833 -0.5426
  978MOL0     O28988   4.402  10.776   0.471  1.3735  0.4028  0.5825
  978MOL0     C28989   4.298  10.708   0.533 -0.2981  0.6612  0.1477
  978MOL0     C28990   4.301  10.639   0.650 -0.7306  0.0565 -0.1473
  978MOL0     C28991   4.193  10.586   0.715  0.4494 -0.1887  0.5279
  978MOL0     C28992   4.064  10.588   0.652 -0.0803 -0.3194  0.4680
  978MOL0     C28993   3.948  10.535   0.715  0.1834  0.4042 -0.2130
  978MOL0     O28994   3.981  10.478   0.832 -0.2677 -0.0037  0.1926
  978MOL0     C28995   3.879  10.421   0.903  0.1456 -0.6606  0.1258
  978MOL0     C28996   3.896  10.296   0.958 -0.0573  0.6750  0.5877
  978MOL0     C28997   3.791  10.229   1.027  0.1305 -0.1227 -0.2918
  978MOL0     C28998   3.680  10.308   1.063  0.3248 -0.3434  0.1281
  978MOL0     O28999   3.580  10.265   1.148  0.0263 -0.3453  0.5416
  978MOL0     C29000   3.616  10.207   1.270  0.3708 -0.3062  0.0149
  978MOL0     C29001   3.588  10.309   1.379  0.0032  0.0256  0.3568
  978MOL0     C29002   3.548  10.254   1.513  0.1031  0.2181  0.3091
  978MOL0     C29003   3.489  10.340   1.621 -0.0334 -0.0271  0.5807
  978MOL0     C29004   3.371  10.419   1.574  0.0974 -0.9059  0.2225
  978MOL0     C29005   3.254  10.334   1.537  0.3939  0.5588 -0.6841
  978MOL0     C29006   3.136  10.429   1.513 -0.3432  0.5091  0.3782
  978MOL0     C29007   3.149  10.490   1.374 -0.5215 -0.0724  0.2184
  978MOL0    Cl29008   3.081  10.656   1.384  0.1202 -0.1820  0.0405
  978MOL0     C29009   3.669  10.441   1.027 -0.3568  1.0161 -0.2736
  978MOL0     C29010   3.772  10.500   0.953 -0.4943  0.5524  0.8278
  978MOL0     O29011   3.837  10.533   0.660 -0.3744  0.1773  0.0539
  978MOL0     C29012   4.056  10.658   0.529 -0.2904  0.4300 -0.9008
  978MOL0     C29013   4.170  10.716   0.477  0.3242  0.4672  0.0454
  978MOL0     N29014   4.908  10.796   0.430 -0.4611 -0.0755  0.7463
  978MOL0     N29015   5.025  10.759   0.377  0.5483 -0.2244 -0.5127
  978MOL0     C29016   6.151  10.914  -0.058  0.8486  0.2235 -0.2161
  978MOL0     C29017   6.290  10.920  -0.045 -0.0612 -0.2759  0.7263
  978MOL0     C29018   6.676  11.046   0.077 -0.4635 -1.3165 -0.3512
  978MOL0     C29019   6.749  10.934   0.026  0.2162 -1.5694  0.4911
  978MOL0     C29020   6.877  10.901   0.071  0.2679 -0.2093  0.7424
  978MOL0     C29021   6.948  10.982   0.168 -0.6379  0.3736 -0.5181
  978MOL0     O29022   7.084  10.977   0.209  0.5320 -0.1950  0.9060
  978MOL0     C29023   7.159  10.887   0.136  0.2156  0.7570  0.5549
  978MOL0     C29024   7.302  10.892   0.197 -0.3805  0.0651  1.0196
  978MOL0     C29025   7.292  10.870   0.348 -0.0894  0.3881 -1.1131
  978MOL0     C29026   7.420  10.786   0.395  0.0753 -0.7305  0.9671
  978MOL0     C29027   7.541  10.867   0.371 -0.1526  0.4442  0.1449
  978MOL0     C29028   7.640  10.939   0.368 -0.9710 -0.4120 -0.0884
  978MOL0     C29029   6.861  11.072   0.235  0.2169 -0.1938 -0.3518
  978MOL0     C29030   6.732  11.107   0.191  0.1073  0.5144 -0.5203
  978MOL0     H29031   6.350  11.205  -0.216 -2.2184 -0.1166 -2.3836
  978MOL0     H29032   6.113  11.233  -0.208  0.8501 -0.7824 -1.8072
  978MOL0     H29033   5.886  11.147  -0.254 -1.0608 -2.2931 -1.2216
  978MOL0     H29034   5.874  11.204  -0.085 -1.8824  1.2497 -2.1159
  978MOL0     H29035   5.699  11.006  -0.203 -1.8881 -0.1803  0.8191
  978MOL0     H29036   5.666  11.180  -0.201  2.0550 -0.6419 -0.6965
  978MOL0     H29037   5.699  11.180   0.058  2.1782 -1.6006  2.3712
  978MOL0     H29038   5.715  11.007   0.053 -1.5214  0.0451 -0.2484
  978MOL0     H29039   5.479  11.153  -0.052  0.1542  1.0449  2.0331
  978MOL0     H29040   5.528  10.983  -0.089  3.9401  1.5116 -1.3676
  978MOL0     H29041   5.403  11.101   0.157 -0.6617 -0.6588 -0.6602
  978MOL0     H29042   5.532  10.974   0.181 -0.0893 -0.8319 -0.7921
  978MOL0     H29043   5.403  10.830   0.057  1.1085 -0.5490  2.8500
  978MOL0     H29044   5.285  10.948  -0.010 -0.7950  0.7178  0.0039
  978MOL0     H29045   5.305  10.876   0.277 -2.4167  0.9592  1.5351
  978MOL0     H29046   5.192  10.988   0.198 -2.3123 -0.2429 -0.2198
  978MOL0     H29047   5.183  10.697   0.141 -0.4238 -1.0819  0.5866
  978MOL0     H29048   5.083  10.812   0.057 -3.3575 -1.2503  2.4488
  978MOL0     H29049   4.858  10.886   0.123 -2.0801 -1.0260  0.1230
  978MOL0     H29050   4.714  11.030   0.344 -1.0964 -0.0137 -3.2841
  978MOL0     H29051   4.671  10.902   0.457 -2.8104 -0.6386 -0.1352
  978MOL0     H29052   4.619  10.858   0.157  0.4901  3.0793  0.4619
  978MOL0     H29053   4.488  10.902   0.254 -1.6454 -1.9476 -1.1918
  978MOL0     H29054   4.498  10.658   0.246 -0.8000 -0.3032  1.1686
  978MOL0     H29055   4.667  10.663   0.293 -1.0309  0.1315 -1.0702
  978MOL0     H29056   4.607  10.724   0.525  0.0211 -0.0077 -0.0506
  978MOL0     H29057   4.505  10.598   0.464  0.0803  0.0689 -2.2308
  978MOL0     H29058   4.391  10.637   0.710 -2.4326  1.2169  2.6735
  978MOL0     H29059   4.220  10.538   0.808 -0.5147 -1.3915  0.1975
  978MOL0     H29060   3.987  10.249   0.921 -0.7084 -0.0917 -0.0902
  978MOL0     H29061   3.801  10.123   1.051 -1.8934 -0.4179 -0.5889
  978MOL0     H29062   3.720  10.173   1.277  0.2074 -1.1000 -1.2101
  978MOL0     H29063   3.558  10.116   1.287  1.7474 -1.0296  1.1380
  978MOL0     H29064   3.516  10.386   1.347 -1.0335 -1.1617 -0.2698
  978MOL0     H29065   3.685  10.356   1.397  0.6093 -0.5271 -1.3494
  978MOL0     H29066   3.645  10.222   1.552  0.8239  0.2638 -1.3847
  978MOL0     H29067   3.476  10.175   1.486  0.9355 -0.4966  0.1418
  978MOL0     H29068   3.463  10.278   1.707 -0.3180 -1.6629 -0.6129
  978MOL0     H29069   3.557  10.413   1.664  0.2950 -0.0331  0.0770
  978MOL0     H29070   3.399  10.496   1.502 -0.0074 -0.5625  0.5436
  978MOL0     H29071   3.338  10.475   1.662  0.3908 -2.2922  1.2677
  978MOL0     H29072   3.240  10.260   1.617 -2.1764  0.2347 -1.3447
  978MOL0     H29073   3.275  10.282   1.443  0.2575  1.6912 -1.3650
  978MOL0     H29074   3.043  10.370   1.512  0.7826 -1.3659 -1.0724
  978MOL0     H29075   3.129  10.496   1.598  0.7003  1.9795 -0.6502
  978MOL0     H29076   3.103  10.438   1.290  1.7668  0.6593 -1.5868
  978MOL0     H29077   3.253  10.503   1.343 -1.5382  1.9413 -2.7903
  978MOL0     H29078   3.577  10.491   1.055 -0.9874  0.8736 -2.0202
  978MOL0     H29079   3.765  10.604   0.923 -1.4483  0.9986  2.4759
  978MOL0     H29080   3.965  10.676   0.473 -0.6352  2.2042  0.1589
  978MOL0     H29081   4.174  10.769   0.382  3.6827  2.0115  0.9104
  978MOL0     H29082   6.091  10.830  -0.025  1.8315 -0.8558 -1.1107
  978MOL0     H29083   6.349  10.849   0.011 -0.0507 -2.0738 -1.4410
  978MOL0     H29084   6.717  10.873  -0.058  0.9122  0.6519 -1.4845
  978MOL0     H29085   6.930  10.820   0.022  3.2993  0.9152  1.9057
  978MOL0     H29086   7.160  10.911   0.029 -0.6244 -0.0737  0.3517
  978MOL0     H29087   7.124  10.785   0.151  1.4918  0.3145  0.6566
  978MOL0     H29088   7.358  10.814   0.145 -0.5725 -1.3668  2.8734
  978MOL0     H29089   7.353  10.988   0.184  0.4130 -0.6687 -2.0198
  978MOL0     H29090   7.203  10.813   0.377  0.3192 -0.1104 -0.8373
  978MOL0     H29091   7.278  10.964   0.403 -2.7373 -0.1399 -0.7347
  978MOL0     H29092   7.418  10.740   0.494 -2.1847 -2.9880 -0.0100
  978MOL0     H29093   7.431  10.704   0.324 -0.0233 -1.0277  1.2904
  978MOL0     H29094   7.712  11.018   0.369 -1.4721  0.1013  2.0474
  978MOL0     H29095   6.894  11.133   0.319 -1.2303  0.9569 -0.5828
  978MOL0     H29096   6.686  11.190   0.243  0.9314  1.1299 -0.7567
  979MOL0     O29097   2.762   6.029   4.703  0.7182  0.4465 -0.3256
  979MOL0     C29098   2.776   6.153   4.719 -0.4036 -0.2558  0.4532
  979MOL0     O29099   2.684   6.252   4.712  0.1549 -0.9787  0.1708
  979MOL0     C29100   2.548   6.221   4.712 -0.7454  0.2358 -0.3695
  979MOL0     C29101   2.488   6.138   4.810  0.3190 -0.7829  0.1533
  979MOL0     C29102   2.349   6.113   4.807 -0.1360  0.8146  0.2643
  979MOL0     C29103   2.266   6.160   4.702  0.9260 -0.1786 -0.7161
  979MOL0     O29104   2.134   6.112   4.690 -1.0575  0.6674 -0.5109
  979MOL0     C29105   2.043   6.179   4.610 -0.4571  0.8048 -0.0616
  979MOL0     C29106   1.914   6.163   4.703  0.4176 -0.1050  0.0574
  979MOL0     C29107   1.791   6.201   4.624  0.0072 -0.2780  0.3629
  979MOL0     C29108   1.775   6.121   4.493  0.3461  0.0415 -0.3755
  979MOL0     C29109   1.625   6.067   4.489  0.6368 -0.3784 -0.1837
  979MOL0     C29110   1.509   6.174   4.489  1.0392 -0.3023  0.5842
  979MOL0     C29111   1.506   6.272   4.366  0.0403 -0.1619  0.2036
  979MOL0     C29112   1.477   6.200   4.234  0.2898  0.2275  0.0904
  979MOL0     N29113   1.352   6.125   4.238 -0.1583  0.8333 -0.0688
  979MOL0     C29114   1.227   6.184   4.235 -0.7635  0.4561  0.1142
  979MOL0     C29115   1.152   6.075   4.221  0.6610 -0.7010 -0.5145
  979MOL0     C29116   0.999   6.094   4.220 -0.1089  0.2614  1.2070
  979MOL0     C29117   0.934   6.101   4.360  0.0127 -0.1339 -0.4252
  979MOL0     C29118   0.925   6.247   4.413 -0.0870 -0.1816 -0.7981
  979MOL0     C29119   0.811   6.263   4.511  0.0437  0.4491  0.3098
  979MOL0     O29120   0.685   6.297   4.452 -0.7546 -0.2918  0.2728
  979MOL0     C29121   0.576   6.298   4.528  0.2343 -0.3861 -0.3986
  979MOL0     C29122   0.568   6.296   4.667  0.1211  0.2099 -0.2448
  979MOL0     C29123   0.440   6.280   4.730 -0.0619 -0.3435  0.1452
  979MOL0     C29124   0.324   6.299   4.655  0.3325  0.2881 -0.6236
  979MOL0     C29125   0.191   6.301   4.728 -0.5043  0.9040 -0.5815
  979MOL0     O29126   0.082   6.343   4.661  0.1190  0.0232  0.5316
  979MOL0     C29127  -0.046   6.321   4.713  0.4461  0.5085  0.0759
  979MOL0     C29128  -0.085   6.352   4.837  0.3140 -0.0107 -0.0236
  979MOL0     C29129  -0.220   6.341   4.876 -0.5821 -0.9528  0.7345
  979MOL0     C29130  -0.310   6.272   4.786 -0.8068 -1.4075  0.3821
  979MOL0     O29131  -0.442   6.263   4.820  0.1150  1.1647 -0.4927
  979MOL0     C29132  -0.495   6.344   4.920 -0.0472  0.0354 -0.0011
  979MOL0     C29133  -0.651   6.335   4.895 -0.4197  0.0895 -0.7813
  979MOL0     C29134  -0.732   6.420   4.990  0.3398 -0.2126  0.6556
  979MOL0     C29135  -0.886   6.435   4.951  0.8110  0.9237 -0.2522
  979MOL0     C29136  -0.976   6.514   5.040 -0.0166 -0.4305  0.1165
  979MOL0     C29137  -1.119   6.534   4.986  0.5147  0.9572  0.2018
  979MOL0     C29138  -1.194   6.409   5.032 -0.0402 -0.1839  0.2722
  979MOL0     C29139  -1.340   6.416   4.994  0.0942  0.4023  0.5756
  979MOL0    Cl29140  -1.382   6.239   4.970  0.3003 -0.7012  0.0083
  979MOL0     C29141  -0.270   6.233   4.659  0.4898 -0.3681  0.1458
  979MOL0     C29142  -0.137   6.259   4.628  0.7616 -0.1626  0.2348
  979MOL0     O29143   0.195   6.259   4.846 -0.0532  0.0475 -0.5777
  979MOL0     C29144   0.329   6.321   4.520 -0.1910  0.3831 -0.6344
  979MOL0     C29145   0.454   6.321   4.460  0.2201 -0.6532 -1.5051
  979MOL0     N29146   1.213   5.959   4.219 -0.0566 -0.5240 -0.6487
  979MOL0     N29147   1.335   5.989   4.232  0.6602 -0.3879  0.0772
  979MOL0     C29148   2.328   6.244   4.611 -0.5665  0.3694 -0.2732
  979MOL0     C29149   2.471   6.280   4.612  0.4249  0.6629 -0.3243
  979MOL0     C29150   2.917   6.193   4.723  0.0758 -0.1940 -0.2408
  979MOL0     C29151   3.023   6.099   4.721 -0.5914 -0.2409  0.0025
  979MOL0     C29152   3.155   6.132   4.712 -0.4908 -0.2257 -0.3173
  979MOL0     C29153   3.184   6.269   4.709 -1.0028 -1.1388 -0.8388
  979MOL0     O29154   3.318   6.293   4.725 -0.0461 -1.3160 -0.5527
  979MOL0     C29155   3.397   6.292   4.608  1.0711  0.3493  0.7527
  979MOL0     C29156   3.513   6.383   4.614  0.5715 -0.0507 -0.1952
  979MOL0     C29157   3.589   6.364   4.475  0.3263  0.0181  0.5474
  979MOL0     C29158   3.692   6.475   4.474  0.2277 -0.2705 -0.0023
  979MOL0     C29159   3.814   6.461   4.559 -0.2969 -0.2447  0.5430
  979MOL0     C29160   3.921   6.446   4.625  0.1944 -0.5332  0.3520
  979MOL0     C29161   3.087   6.363   4.719 -0.5256 -0.3123  0.0055
  979MOL0     C29162   2.949   6.325   4.723  1.0068  0.7049  0.0751
  979MOL0     H29163   2.547   6.079   4.879  0.5453  2.9365  3.5334
  979MOL0     H29164   2.311   6.044   4.882  1.4585 -1.0898 -0.5763
  979MOL0     H29165   2.044   6.129   4.513 -0.5007 -0.4427  0.5615
  979MOL0     H29166   2.064   6.284   4.589 -1.9494  1.5913  2.0131
  979MOL0     H29167   1.926   6.229   4.789 -0.7284  0.3775 -0.1260
  979MOL0     H29168   1.911   6.059   4.735 -0.1983 -0.7814 -2.0111
  979MOL0     H29169   1.804   6.303   4.586  1.2742 -0.5970 -0.1296
  979MOL0     H29170   1.703   6.202   4.689 -2.2027 -0.6218 -2.4173
  979MOL0     H29171   1.811   6.183   4.410 -2.7646 -0.5344 -2.3386
  979MOL0     H29172   1.839   6.033   4.497 -1.1610 -1.0733 -0.1112
  979MOL0     H29173   1.606   6.015   4.583 -2.4080  1.2665  0.2374
  979MOL0     H29174   1.606   6.009   4.398  1.3255  1.2719 -1.4349
  979MOL0     H29175   1.509   6.244   4.573  0.3155 -0.4031  0.6770
  979MOL0     H29176   1.413   6.121   4.498 -0.6509  2.5790  0.5924
  979MOL0     H29177   1.426   6.342   4.389  0.4088  0.1245  0.6352
  979MOL0     H29178   1.604   6.321   4.359  0.6985 -0.7929  3.2721
  979MOL0     H29179   1.554   6.125   4.212  0.3268  0.5952 -1.1041
  979MOL0     H29180   1.477   6.269   4.150 -1.1601 -1.5139 -1.4254
  979MOL0     H29181   1.191   6.284   4.256  0.9056  1.5524 -1.8607
  979MOL0     H29182   0.968   5.997   4.178  2.5937 -0.9563  1.8052
  979MOL0     H29183   0.967   6.172   4.150  1.0423 -2.2427 -2.4541
  979MOL0     H29184   0.994   6.031   4.418  0.2086  0.0794 -0.3705
  979MOL0     H29185   0.834   6.060   4.341  0.1223 -0.5826 -0.0466
  979MOL0     H29186   1.011   6.279   4.472 -0.7809  1.8000 -0.8008
  979MOL0     H29187   0.900   6.311   4.329 -2.6648 -2.3800 -1.8484
  979MOL0     H29188   0.843   6.339   4.584 -1.1080  0.5695  0.7017
  979MOL0     H29189   0.801   6.173   4.572  0.0408  1.6053  2.1080
  979MOL0     H29190   0.653   6.291   4.734  0.4605  2.9921 -0.3741
  979MOL0     H29191   0.434   6.274   4.838  0.6096  1.6324  0.3453
  979MOL0     H29192  -0.016   6.398   4.907 -2.5806  0.9323  2.4485
  979MOL0     H29193  -0.238   6.377   4.977  0.3940 -1.9611  1.3006
  979MOL0     H29194  -0.460   6.445   4.898 -0.1106 -0.0268 -0.3906
  979MOL0     H29195  -0.470   6.321   5.024  0.1378 -1.5962 -0.3766
  979MOL0     H29196  -0.685   6.233   4.919 -0.6952  0.2926 -0.2870
  979MOL0     H29197  -0.681   6.343   4.791 -1.2761 -3.5462 -0.9371
  979MOL0     H29198  -0.698   6.524   4.995  0.7304 -0.2936 -0.1822
  979MOL0     H29199  -0.723   6.378   5.091 -3.4239  0.1509  1.2945
  979MOL0     H29200  -0.892   6.462   4.845 -0.1628  1.0625 -0.1715
  979MOL0     H29201  -0.931   6.338   4.970 -0.4038  1.6421  0.6937
  979MOL0     H29202  -0.928   6.612   5.045 -0.0629 -0.3494 -0.9387
  979MOL0     H29203  -0.981   6.468   5.139 -0.8802 -1.2007 -0.2757
  979MOL0     H29204  -1.128   6.546   4.878 -0.6610 -1.8190 -0.0939
  979MOL0     H29205  -1.157   6.631   5.021  4.0409  3.0581 -1.2289
  979MOL0     H29206  -1.145   6.324   4.983 -2.9272 -1.4426 -0.6108
  979MOL0     H29207  -1.194   6.400   5.141  0.6822  0.0319  0.3006
  979MOL0     H29208  -1.371   6.470   4.904  2.3766  1.5651  0.4125
  979MOL0     H29209  -1.401   6.458   5.074 -1.2909 -0.6539  0.1272
  979MOL0     H29210  -0.333   6.196   4.579  2.8931 -1.2008 -1.4899
  979MOL0     H29211  -0.093   6.215   4.539  2.1617  0.4682  0.5932
  979MOL0     H29212   0.245   6.338   4.452 -1.3516  0.6863  0.8242
  979MOL0     H29213   0.454   6.336   4.353  0.5934  0.5704 -1.3570
  979MOL0     H29214   2.268   6.294   4.535 -0.5198 -1.3322 -1.4878
  979MOL0     H29215   2.517   6.350   4.542  2.2273  0.1722  0.2993
  979MOL0     H29216   2.995   5.997   4.746 -0.0660  0.0154  1.8333
  979MOL0     H29217   3.219   6.045   4.728  0.0545  0.2679  0.2220
  979MOL0     H29218   3.344   6.306   4.514  2.0428 -0.0404  0.1338
  979MOL0     H29219   3.438   6.191   4.593 -0.8185 -0.0263 -3.0121
  979MOL0     H29220   3.480   6.487   4.624 -1.2077 -0.5420 -0.6459
  979MOL0     H29221   3.581   6.353   4.694  0.7167  1.7743  0.4169
  979MOL0     H29222   3.531   6.379   4.384  2.1316  1.4933 -0.4110
  979MOL0     H29223   3.635   6.264   4.476 -0.7831 -0.5083  0.5358
  979MOL0     H29224   3.723   6.480   4.370 -1.3021 -1.4661 -0.5496
  979MOL0     H29225   3.630   6.562   4.497 -0.3309 -0.0604 -2.1108
  979MOL0     H29226   4.012   6.429   4.679  0.7646  2.1690  0.4066
  979MOL0     H29227   3.120   6.467   4.721  0.2519 -0.5175 -1.0574
  979MOL0     H29228   2.874   6.403   4.726 -0.9627 -0.9999 -1.6336
  980MOL0     O29229   2.945   4.202   2.331 -0.4180  0.1966 -0.0768
  980MOL0     C29230   2.974   4.280   2.421  0.2851 -0.1689 -0.7535
  980MOL0     O29231   2.883   4.336   2.506  0.5579 -0.1135 -0.3037
  980MOL0     C29232   2.757   4.279   2.510  0.1977 -0.7884  0.3456
  980MOL0     C29233   2.661   4.331   2.424  0.3069  0.1510 -0.4846
  980MOL0     C29234   2.530   4.285   2.431  0.8055 -0.9024 -0.4274
  980MOL0     C29235   2.506   4.161   2.482 -0.5680  0.3545 -0.1996
  980MOL0     O29236   2.380   4.120   2.451 -0.4197 -0.8531 -0.6226
  980MOL0     C29237   2.380   3.998   2.369 -0.3072  0.1662  0.3666
  980MOL0     C29238   2.237   3.959   2.335  0.0151 -0.1187  0.8137
  980MOL0     C29239   2.150   3.918   2.455  0.7763  0.0819 -0.0962
  980MOL0     C29240   1.992   3.899   2.427 -0.1737  0.4498 -1.2929
  980MOL0     C29241   1.889   3.938   2.543  0.1049 -0.2494  0.7931
  980MOL0     C29242   1.847   4.082   2.549 -0.6482 -0.0406  0.1626
  980MOL0     C29243   1.949   4.189   2.579 -0.6495 -0.7340 -0.0575
  980MOL0     C29244   2.011   4.182   2.719  0.0700 -0.7078  0.2419
  980MOL0     N29245   2.062   4.311   2.769 -0.0997  0.1164  0.5046
  980MOL0     C29246   2.164   4.384   2.710  0.6971  0.5752  0.2935
  980MOL0     C29247   2.192   4.478   2.794  0.1158 -1.0610 -0.0719
  980MOL0     C29248   2.286   4.590   2.771 -0.5934  0.4899  0.8765
  980MOL0     C29249   2.414   4.567   2.834 -0.0413 -0.0012 -0.2770
  980MOL0     C29250   2.512   4.491   2.741  0.1915  0.1140  1.3250
  980MOL0     C29251   2.660   4.514   2.778  0.4587  0.0351 -0.5306
  980MOL0     O29252   2.688   4.650   2.799  0.1971 -0.2171 -0.2388
  980MOL0     C29253   2.821   4.671   2.806  0.1134  0.7305 -0.7465
  980MOL0     C29254   2.871   4.720   2.923 -1.1197 -0.3415 -1.2134
  980MOL0     C29255   3.011   4.736   2.926  0.1231 -0.0763 -0.2281
  980MOL0     C29256   3.089   4.720   2.809 -0.3156  0.2454 -0.8817
  980MOL0     C29257   3.230   4.747   2.824  0.8877  0.1555 -0.5867
  980MOL0     O29258   3.303   4.728   2.710 -0.4148 -0.7633 -0.0645
  980MOL0     C29259   3.433   4.768   2.707 -0.3029 -0.1526  0.1159
  980MOL0     C29260   3.521   4.662   2.720 -0.6372 -0.3894 -0.1783
  980MOL0     C29261   3.654   4.689   2.709  0.3627  0.0675 -0.4201
  980MOL0     C29262   3.702   4.820   2.691 -0.0667 -0.5136 -0.0133
  980MOL0     O29263   3.833   4.860   2.687  0.6097  1.1736 -0.1226
  980MOL0     C29264   3.918   4.775   2.599 -0.2964 -0.4261  0.7824
  980MOL0     C29265   4.054   4.851   2.565  0.6430  0.9414 -0.1059
  980MOL0     C29266   4.129   4.785   2.450  0.1694 -0.7139  0.0603
  980MOL0     C29267   4.273   4.850   2.454 -0.4686  0.1457 -0.4042
  980MOL0     C29268   4.362   4.804   2.339  0.0293 -0.5676  0.3459
  980MOL0     C29269   4.408   4.656   2.348 -0.2149 -0.1758  0.6503
  980MOL0     C29270   4.480   4.612   2.218 -0.3731  0.1775 -0.6926
  980MOL0     C29271   4.478   4.462   2.204  1.2369  0.2464 -0.1480
  980MOL0    Cl29272   4.531   4.410   2.048 -0.0714  0.5356 -0.1114
  980MOL0     C29273   3.610   4.930   2.691  0.4639  0.6838  0.0000
  980MOL0     C29274   3.474   4.905   2.702 -0.6812  0.2249  0.6827
  980MOL0     O29275   3.277   4.783   2.926  0.5676 -0.0220 -0.3572
  980MOL0     C29276   3.035   4.694   2.688  0.0093  0.7056 -0.6742
  980MOL0     C29277   2.896   4.668   2.685 -0.4342  1.7747 -0.2433
  980MOL0     N29278   2.107   4.473   2.906 -0.4919  0.3079  0.1291
  980MOL0     N29279   2.031   4.373   2.889  0.6702 -0.2061  0.0875
  980MOL0     C29280   2.606   4.091   2.542 -0.7050  0.3342 -0.9224
  980MOL0     C29281   2.730   4.154   2.560 -0.6000 -0.7900  0.4719
  980MOL0     C29282   3.110   4.317   2.432 -0.3857  0.0110  0.5584
  980MOL0     C29283   3.201   4.300   2.332 -0.0041 -0.9893 -0.4083
  980MOL0     C29284   3.338   4.323   2.352  0.0013 -0.2010  0.6168
  980MOL0     C29285   3.384   4.376   2.473 -0.8251 -0.4579  0.9693
  980MOL0     O29286   3.518   4.392   2.499 -0.2333 -0.4225 -0.0940
  980MOL0     C29287   3.602   4.397   2.385  0.1243  0.0811  0.1560
  980MOL0     C29288   3.733   4.463   2.430 -0.0942 -1.4035 -0.0233
  980MOL0     C29289   3.828   4.479   2.311 -0.5423  0.0679 -0.0992
  980MOL0     C29290   3.978   4.462   2.345 -0.1194  0.3120  0.3361
  980MOL0     C29291   4.049   4.470   2.216 -0.1901  0.1596 -0.2348
  980MOL0     C29292   4.108   4.454   2.112 -0.4496  0.4370 -0.2838
  980MOL0     C29293   3.293   4.401   2.572  1.2979  0.1041 -0.1037
  980MOL0     C29294   3.154   4.364   2.548  0.1361  0.6332  0.2839
  980MOL0     H29295   2.690   4.418   2.368 -0.1167 -0.7848 -2.2249
  980MOL0     H29296   2.457   4.341   2.373 -0.6264 -0.4414  1.6808
  980MOL0     H29297   2.426   3.913   2.421  3.0696  2.3615  1.3235
  980MOL0     H29298   2.448   4.015   2.285  1.2528 -1.6248  1.1839
  980MOL0     H29299   2.239   3.877   2.262 -3.3977 -1.0291  1.5774
  980MOL0     H29300   2.194   4.045   2.282 -0.5252 -0.7345  0.2418
  980MOL0     H29301   2.175   3.984   2.539  3.0424 -0.2704 -0.4390
  980MOL0     H29302   2.191   3.821   2.487 -2.4458 -1.0848  0.9520
  980MOL0     H29303   1.971   3.958   2.337  1.5003  1.2953 -1.1677
  980MOL0     H29304   1.968   3.796   2.397 -1.0992  0.6954 -1.4266
  980MOL0     H29305   1.929   3.930   2.645 -2.3346  1.0447  1.9457
  980MOL0     H29306   1.794   3.889   2.521  0.0548 -0.2958  1.1059
  980MOL0     H29307   1.776   4.094   2.631  0.9113  0.5148  1.4835
  980MOL0     H29308   1.795   4.109   2.457  1.7439 -0.3682 -1.3797
  980MOL0     H29309   2.026   4.194   2.502 -1.5136 -1.8610 -1.0400
  980MOL0     H29310   1.893   4.283   2.582  1.3274  0.5681 -1.5322
  980MOL0     H29311   2.091   4.109   2.734  0.7251  0.3085  2.0801
  980MOL0     H29312   1.939   4.162   2.799  0.2365  1.2889  0.9398
  980MOL0     H29313   2.204   4.362   2.612 -2.7235 -1.5594 -0.7907
  980MOL0     H29314   2.237   4.674   2.821  0.3489  1.3061  0.4743
  980MOL0     H29315   2.294   4.611   2.664  0.4117  0.8631  1.0147
  980MOL0     H29316   2.402   4.503   2.923 -0.5186 -0.1961 -0.4793
  980MOL0     H29317   2.453   4.665   2.864 -0.6097  0.7183 -1.8160
  980MOL0     H29318   2.482   4.386   2.741  0.5285 -0.0246 -0.8924
  980MOL0     H29319   2.504   4.528   2.638 -0.0358 -0.7061  1.0424
  980MOL0     H29320   2.727   4.465   2.708  1.5416  1.1456 -0.2881
  980MOL0     H29321   2.676   4.458   2.871  1.5736  0.3029 -0.5526
  980MOL0     H29322   2.805   4.735   3.008 -1.2345  1.3274 -1.5777
  980MOL0     H29323   3.067   4.777   3.010 -1.8311  1.1559  0.5448
  980MOL0     H29324   3.485   4.562   2.739 -1.1126  0.2878  3.0447
  980MOL0     H29325   3.731   4.613   2.702  1.0114  0.7892 -1.7507
  980MOL0     H29326   3.877   4.756   2.499  2.7781 -0.8586 -0.5087
  980MOL0     H29327   3.930   4.673   2.639 -1.5490 -1.6300 -1.6862
  980MOL0     H29328   4.127   4.856   2.647  1.1637  2.3383 -0.6226
  980MOL0     H29329   4.030   4.955   2.538 -0.6974  0.4431 -0.9225
  980MOL0     H29330   4.077   4.797   2.354  0.0368 -1.1333  0.0794
  980MOL0     H29331   4.143   4.678   2.467 -0.6458 -0.9034 -0.3841
  980MOL0     H29332   4.257   4.958   2.443 -0.4858  0.1646 -0.2142
  980MOL0     H29333   4.322   4.829   2.550  0.3084 -0.7494 -0.9767
  980MOL0     H29334   4.456   4.859   2.330  0.7962 -2.0874 -1.8361
  980MOL0     H29335   4.309   4.837   2.250  2.3579  2.9772  0.0414
  980MOL0     H29336   4.322   4.590   2.361 -1.3041  0.9959 -0.3535
  980MOL0     H29337   4.478   4.644   2.431  0.3290 -0.4408  0.1629
  980MOL0     H29338   4.428   4.649   2.130  1.3361 -2.5511 -3.0491
  980MOL0     H29339   4.585   4.644   2.211 -0.4447  1.1639  1.6911
  980MOL0     H29340   4.380   4.416   2.220  1.1376 -0.5528 -2.5940
  980MOL0     H29341   4.542   4.418   2.281  0.8997 -1.4824 -0.7931
  980MOL0     H29342   3.651   5.030   2.684  0.2076  0.8954  1.2548
  980MOL0     H29343   3.390   4.973   2.701 -1.1030 -0.2711 -1.0030
  980MOL0     H29344   3.092   4.703   2.596 -1.6541 -0.1160 -1.8433
  980MOL0     H29345   2.847   4.642   2.592 -0.5683 -2.4189  0.8054
  980MOL0     H29346   2.586   3.991   2.577  0.9429  1.1054  2.5482
  980MOL0     H29347   2.814   4.107   2.611  3.0702  0.5411 -3.7097
  980MOL0     H29348   3.175   4.267   2.232  1.5056  2.3372 -2.0767
  980MOL0     H29349   3.410   4.313   2.272 -0.5326 -4.4013  0.4182
  980MOL0     H29350   3.560   4.464   2.309 -0.6045  0.5497  0.9504
  980MOL0     H29351   3.623   4.297   2.346 -1.5451 -0.4525  0.5253
  980MOL0     H29352   3.706   4.567   2.450  0.7224 -0.6307 -2.6055
  980MOL0     H29353   3.780   4.415   2.516  1.1411 -0.5832 -0.2175
  980MOL0     H29354   3.813   4.579   2.272  0.6395  0.6200  0.7893
  980MOL0     H29355   3.791   4.406   2.239 -0.7026  0.2778 -0.2305
  980MOL0     H29356   4.019   4.521   2.427  1.2958 -0.7569  0.4392
  980MOL0     H29357   3.993   4.357   2.372  0.1778  1.3280  4.7662
  980MOL0     H29358   4.141   4.452   2.010 -0.6342  1.7969 -0.3863
  980MOL0     H29359   3.314   4.437   2.672  0.0653 -1.4598  0.7686
  980MOL0     H29360   3.093   4.369   2.637 -1.2886  1.9173 -0.7173
  981MOL0     O29361   2.218   6.995   6.037 -0.2383 -0.0194  0.1778
  981MOL0     C29362   2.211   6.875   6.059  0.1136  0.8315  0.7812
  981MOL0     O29363   2.308   6.786   6.045  0.2732  0.2268  0.3176
  981MOL0     C29364   2.424   6.833   5.987  0.4682  0.7673 -0.8545
  981MOL0     C29365   2.529   6.886   6.057  0.2929  0.1943 -0.4894
  981MOL0     C29366   2.644   6.945   5.999 -0.6375  0.5526  0.1064
  981MOL0     C29367   2.656   6.928   5.861  0.2961  0.7233 -0.5951
  981MOL0     O29368   2.773   6.973   5.813 -0.4051 -0.2605  0.1531
  981MOL0     C29369   2.816   6.966   5.674 -0.0178 -0.1596  0.4460
  981MOL0     C29370   2.886   7.096   5.640  0.2187  0.1569 -0.0062
  981MOL0     C29371   2.805   7.184   5.538 -0.1012  0.5395 -0.1921
  981MOL0     C29372   2.885   7.297   5.471  0.3957 -1.3120  0.9649
  981MOL0     C29373   2.807   7.351   5.354  0.8452  0.2989  0.4822
  981MOL0     C29374   2.688   7.436   5.405  0.7365  0.5648  0.5677
  981MOL0     C29375   2.629   7.522   5.298  0.2595 -0.4422 -0.0631
  981MOL0     C29376   2.527   7.462   5.200  0.7804  0.4081 -0.0401
  981MOL0     N29377   2.395   7.447   5.258 -1.2131  0.7117  0.3536
  981MOL0     C29378   2.335   7.326   5.263 -0.2175 -0.0590  0.2744
  981MOL0     C29379   2.209   7.358   5.289  0.6837 -0.0996 -0.1230
  981MOL0     C29380   2.100   7.262   5.271 -0.5430  1.0607  0.1442
  981MOL0     C29381   2.045   7.199   5.392 -1.0081  0.4743  0.0009
  981MOL0     C29382   1.928   7.102   5.359 -0.6964 -0.4300  0.7451
  981MOL0     C29383   1.892   7.025   5.489  0.6574  0.2433  0.6648
  981MOL0     O29384   1.788   6.933   5.458 -0.2087  0.6900 -0.3826
  981MOL0     C29385   1.660   6.972   5.462  0.9227  0.2626  0.5348
  981MOL0     C29386   1.568   6.865   5.448 -0.9695 -0.3606  0.1741
  981MOL0     C29387   1.437   6.890   5.417  0.0323 -0.1507  0.2070
  981MOL0     C29388   1.381   7.016   5.415 -0.1660  0.4320  0.0462
  981MOL0     C29389   1.238   7.031   5.390 -1.0316 -0.6557  0.5091
  981MOL0     O29390   1.199   7.167   5.379  0.1100 -0.2252 -0.1719
  981MOL0     C29391   1.065   7.200   5.371 -0.8529  0.1221 -0.0458
  981MOL0     C29392   1.025   7.270   5.257  0.3044 -0.6111  0.2586
  981MOL0     C29393   0.889   7.310   5.240 -0.5304  0.4383  0.5597
  981MOL0     C29394   0.793   7.272   5.338 -0.0318  0.2062 -0.2112
  981MOL0     O29395   0.663   7.318   5.346 -0.1287  0.3343 -0.0668
  981MOL0     C29396   0.616   7.400   5.245  0.6125 -0.2462  0.1613
  981MOL0     C29397   0.474   7.439   5.235  0.2702  0.0263 -0.8472
  981MOL0     C29398   0.376   7.319   5.228 -0.3757  0.1708  0.2994
  981MOL0     C29399   0.231   7.374   5.216  1.4362  0.3261  0.0087
  981MOL0     C29400   0.204   7.452   5.073 -0.8785 -0.3906  0.1056
  981MOL0     C29401   0.058   7.489   5.054  0.3382  0.1574 -0.6140
  981MOL0     C29402   0.029   7.562   4.921  0.5227 -0.6597 -0.5265
  981MOL0     C29403  -0.121   7.566   4.887  0.0023  0.2928 -0.1095
  981MOL0    Cl29404  -0.147   7.669   4.742  0.1151 -0.4129 -0.0897
  981MOL0     C29405   0.832   7.201   5.452 -1.0380 -0.0907  0.2053
  981MOL0     C29406   0.967   7.156   5.465  0.4248 -0.0946 -0.2193
  981MOL0     O29407   1.170   6.930   5.382 -0.4030 -0.8196 -0.2368
  981MOL0     C29408   1.473   7.122   5.426 -0.0181 -0.0755 -0.4589
  981MOL0     C29409   1.604   7.097   5.452 -1.2171 -0.2754 -0.6539
  981MOL0     N29410   2.195   7.493   5.311  0.4710  0.3153 -0.3930
  981MOL0     N29411   2.313   7.547   5.304 -0.0043 -0.0244 -0.6086
  981MOL0     C29412   2.551   6.874   5.780  0.6646 -0.3359  0.3581
  981MOL0     C29413   2.435   6.829   5.848 -0.3345  0.2872  0.2669
  981MOL0     C29414   2.083   6.822   6.097  0.3962  0.5627 -0.1364
  981MOL0     C29415   2.070   6.694   6.152 -0.3017 -0.0053 -0.5265
  981MOL0     C29416   1.950   6.651   6.200  0.4445  0.2907 -0.2814
  981MOL0     C29417   1.829   6.723   6.185  0.3422 -0.8171  0.7477
  981MOL0     O29418   1.713   6.667   6.235  0.0776 -0.0150 -0.7532
  981MOL0     C29419   1.594   6.712   6.175 -0.0944  0.4787 -0.6147
  981MOL0     C29420   1.542   6.829   6.263 -0.8226  0.4372  0.6034
  981MOL0     C29421   1.469   6.779   6.389  0.5047 -0.4562  1.1173
  981MOL0     C29422   1.551   6.712   6.497 -0.4188 -0.5727 -0.2248
  981MOL0     C29423   1.667   6.789   6.561  0.3531 -0.0351 -0.8194
  981MOL0     C29424   1.765   6.833   6.618  1.5554 -0.3929  0.2681
  981MOL0     C29425   1.840   6.845   6.110  0.8308  0.4704 -0.2074
  981MOL0     C29426   1.966   6.893   6.071 -0.1731 -0.2319 -0.4157
  981MOL0     H29427   2.517   6.888   6.164  4.0480  2.4960  0.0666
  981MOL0     H29428   2.724   6.974   6.066 -0.4709  3.9719 -1.3589
  981MOL0     H29429   2.741   6.946   5.596  1.3418  0.1771 -1.0027
  981MOL0     H29430   2.883   6.881   5.659  0.2463 -0.5127  3.2471
  981MOL0     H29431   2.984   7.074   5.597  0.0004  0.5606 -0.7236
  981MOL0     H29432   2.898   7.150   5.733  1.1193  0.6902 -0.4234
  981MOL0     H29433   2.711   7.207   5.590  0.3172  0.1274  0.7835
  981MOL0     H29434   2.778   7.120   5.454 -1.1403  3.2100 -2.0207
  981MOL0     H29435   2.900   7.381   5.540 -2.6022 -0.0660  0.2480
  981MOL0     H29436   2.985   7.263   5.443 -0.1341 -0.1128 -2.8405
  981MOL0     H29437   2.769   7.269   5.291  0.6914 -0.2504  1.2810
  981MOL0     H29438   2.885   7.404   5.298  1.7279 -4.1501 -3.1634
  981MOL0     H29439   2.727   7.511   5.474  0.8196  0.5071  0.5839
  981MOL0     H29440   2.611   7.378   5.456  2.5563 -2.9954 -0.3776
  981MOL0     H29441   2.598   7.616   5.345  2.0009 -0.9340  2.3004
  981MOL0     H29442   2.713   7.558   5.239  1.3429  2.1270  2.7846
  981MOL0     H29443   2.558   7.370   5.150  2.3454  1.0486 -0.3232
  981MOL0     H29444   2.520   7.527   5.113  0.7822 -0.8909 -1.0335
  981MOL0     H29445   2.375   7.236   5.216 -0.1316  0.8648 -1.4884
  981MOL0     H29446   2.127   7.183   5.200  2.4058  1.3287  0.8597
  981MOL0     H29447   2.016   7.319   5.229 -2.0180 -1.2945 -0.2621
  981MOL0     H29448   2.017   7.272   5.468 -2.1715  0.8331 -0.7361
  981MOL0     H29449   2.128   7.141   5.433 -0.2696 -0.6281 -2.8079
  981MOL0     H29450   1.840   7.158   5.325 -1.1151 -1.3963  0.1677
  981MOL0     H29451   1.955   7.026   5.285  0.2178  0.1185  0.5033
  981MOL0     H29452   1.865   7.095   5.568  2.4270  1.7621 -0.0184
  981MOL0     H29453   1.979   6.968   5.525 -0.7911 -1.7972  1.0972
  981MOL0     H29454   1.609   6.766   5.435  1.3496  0.4675  0.7518
  981MOL0     H29455   1.375   6.803   5.399 -0.6784  0.7028 -1.7704
  981MOL0     H29456   1.098   7.296   5.181  1.0869  1.5120  1.6585
  981MOL0     H29457   0.858   7.359   5.149 -0.2540 -1.6280 -0.7216
  981MOL0     H29458   0.630   7.343   5.153  0.4457 -0.2649  0.1477
  981MOL0     H29459   0.662   7.500   5.249 -0.3537  0.1554  2.0265
  981MOL0     H29460   0.459   7.500   5.146 -2.3425 -2.5653 -2.3438
  981MOL0     H29461   0.457   7.512   5.316  4.0398 -1.9065  2.0204
  981MOL0     H29462   0.379   7.259   5.320 -1.0269  0.6546  0.6505
  981MOL0     H29463   0.399   7.258   5.141  4.0498 -0.0705  1.3888
  981MOL0     H29464   0.157   7.296   5.237  2.5473 -0.1896  2.2898
  981MOL0     H29465   0.219   7.455   5.289 -2.4479  0.0890 -0.1529
  981MOL0     H29466   0.234   7.393   4.986  2.9378  1.3640  0.0043
  981MOL0     H29467   0.268   7.541   5.072  2.0416 -2.3351 -0.1274
  981MOL0     H29468   0.024   7.554   5.136  1.2024  0.2322 -0.3061
  981MOL0     H29469  -0.007   7.401   5.057 -1.2442  1.2874 -0.2319
  981MOL0     H29470   0.059   7.667   4.928  0.4970 -0.7159  0.7369
  981MOL0     H29471   0.087   7.516   4.841  0.4529 -0.1294 -0.8902
  981MOL0     H29472  -0.180   7.588   4.977 -0.6786  1.0840 -0.7257
  981MOL0     H29473  -0.161   7.467   4.863  0.6223 -0.2604  1.0255
  981MOL0     H29474   0.756   7.190   5.528 -0.0754 -0.4483  1.1409
  981MOL0     H29475   1.000   7.104   5.555 -1.3550  0.7526  0.9801
  981MOL0     H29476   1.440   7.225   5.428  0.2199 -0.0089  0.5464
  981MOL0     H29477   1.668   7.184   5.457 -0.1205 -0.9560 -2.1463
  981MOL0     H29478   2.561   6.868   5.672  4.0118 -1.9642  0.6088
  981MOL0     H29479   2.359   6.777   5.790 -0.3959 -0.2501  0.8159
  981MOL0     H29480   2.159   6.637   6.176 -0.2744  1.5940  4.0362
  981MOL0     H29481   1.945   6.559   6.258  2.9294  0.4364  0.2964
  981MOL0     H29482   1.523   6.629   6.169 -0.5123  0.6635  1.1153
  981MOL0     H29483   1.604   6.755   6.075  1.4617  0.1468 -0.6227
  981MOL0     H29484   1.624   6.898   6.284 -0.1273  0.5992 -2.2737
  981MOL0     H29485   1.471   6.892   6.208 -0.7479 -0.4333 -0.5343
  981MOL0     H29486   1.388   6.712   6.360  0.9110 -0.1103 -1.0222
  981MOL0     H29487   1.424   6.869   6.432 -2.9386 -1.5716  0.1654
  981MOL0     H29488   1.487   6.694   6.584 -0.9711 -3.4700 -1.1255
  981MOL0     H29489   1.580   6.611   6.467  6.6241  0.9970 -0.4812
  981MOL0     H29490   1.847   6.883   6.666  2.0036 -1.0236  0.1850
  981MOL0     H29491   1.757   6.911   6.085  0.6983  0.0437 -0.9211
  981MOL0     H29492   1.971   6.993   6.028 -0.4273 -0.1527 -0.2623
  982MOL0     O29493   2.930   5.934   2.014 -0.5051 -0.0155  0.5430
  982MOL0     C29494   2.943   5.958   1.891  0.5009  0.4357 -0.3370
  982MOL0     O29495   2.853   5.933   1.797  0.8812  0.1104  0.3670
  982MOL0     C29496   2.735   5.863   1.806 -0.2328  1.1011 -0.6884
  982MOL0     C29497   2.652   5.844   1.919 -1.2788  0.4545 -0.9740
  982MOL0     C29498   2.542   5.762   1.935  0.1527  0.4467  0.7797
  982MOL0     C29499   2.487   5.722   1.812 -0.1243  0.3577  0.0587
  982MOL0     O29500   2.366   5.660   1.812  0.2262 -0.2396 -0.7531
  982MOL0     C29501   2.260   5.759   1.838 -0.4666 -0.5211  0.2395
  982MOL0     C29502   2.128   5.737   1.770  0.3004 -0.2640 -0.1679
  982MOL0     C29503   2.074   5.602   1.810  0.2830 -0.4217  0.2998
  982MOL0     C29504   1.921   5.584   1.775  0.2739 -0.9250 -0.4406
  982MOL0     C29505   1.857   5.445   1.819 -0.3022 -0.4569  0.0142
  982MOL0     C29506   1.727   5.416   1.745  0.4371 -0.7517 -0.0095
  982MOL0     C29507   1.659   5.291   1.801  0.6905 -0.0458 -0.1385
  982MOL0     C29508   1.620   5.298   1.946  0.6100  0.9944 -0.0569
  982MOL0     N29509   1.482   5.336   1.957  0.1437 -0.9647 -0.2363
  982MOL0     C29510   1.387   5.270   2.036  0.1800 -0.1472 -0.3556
  982MOL0     C29511   1.276   5.349   2.030 -0.4111  0.9739  0.5291
  982MOL0     C29512   1.144   5.305   2.091 -0.1749 -0.4875  0.1165
  982MOL0     C29513   1.146   5.166   2.163 -0.2689  0.1116 -1.0080
  982MOL0     C29514   1.000   5.123   2.216  0.3462 -0.8459  0.3343
  982MOL0     C29515   0.922   5.223   2.299 -0.1610 -0.3821 -1.0622
  982MOL0     O29516   0.837   5.174   2.400  0.2069 -1.4436  0.2865
  982MOL0     C29517   0.714   5.121   2.362  0.1672 -0.3700  0.8868
  982MOL0     C29518   0.661   5.119   2.233  0.3385 -0.3972 -0.7314
  982MOL0     C29519   0.544   5.045   2.208  0.1224 -1.0388 -0.7112
  982MOL0     C29520   0.474   4.978   2.313  0.1121  0.0131 -0.2716
  982MOL0     C29521   0.338   4.916   2.282  0.6024  0.0712 -0.1860
  982MOL0     O29522   0.300   4.917   2.147  0.8820  0.1308  0.0554
  982MOL0     C29523   0.177   4.874   2.105  0.9021 -0.5247 -0.3168
  982MOL0     C29524   0.071   4.955   2.066 -0.8072 -1.1775  0.4236
  982MOL0     C29525  -0.050   4.904   2.024  0.5775  0.5185 -0.3695
  982MOL0     C29526  -0.068   4.765   2.015  0.8753  0.7304  0.1094
  982MOL0     O29527  -0.189   4.707   1.973 -0.4222 -0.4189 -0.5796
  982MOL0     C29528  -0.284   4.799   1.907  0.1336  0.7290 -0.0968
  982MOL0     C29529  -0.409   4.739   1.849 -0.0395 -0.9328 -0.2995
  982MOL0     C29530  -0.387   4.651   1.720  0.0553 -0.4192  0.1056
  982MOL0     C29531  -0.526   4.636   1.648 -0.1172 -0.8124 -0.1026
  982MOL0     C29532  -0.551   4.729   1.527  0.4634  0.4237  0.4633
  982MOL0     C29533  -0.701   4.713   1.493  0.6681  0.3881  0.0075
  982MOL0     C29534  -0.735   4.785   1.359 -0.8460 -0.3828  0.1263
  982MOL0     C29535  -0.879   4.758   1.315  0.3024 -0.3743  0.6879
  982MOL0    Cl29536  -1.003   4.829   1.428  0.0051 -0.3589  0.3793
  982MOL0     C29537   0.040   4.682   2.040 -0.5876  0.0825  0.0834
  982MOL0     C29538   0.158   4.734   2.090  0.1739  0.3174 -0.5610
  982MOL0     O29539   0.265   4.863   2.367 -0.2142 -0.5347 -0.1665
  982MOL0     C29540   0.528   4.986   2.440  0.7109 -0.4711  0.4357
  982MOL0     C29541   0.643   5.057   2.466 -0.5805  0.2121  0.0636
  982MOL0     N29542   1.304   5.468   1.963  0.5163 -0.2494 -0.8092
  982MOL0     N29543   1.424   5.452   1.922  0.7167 -0.8631  0.7010
  982MOL0     C29544   2.563   5.732   1.689 -0.1700 -0.3398  0.3424
  982MOL0     C29545   2.692   5.800   1.693  0.6071 -0.3977  0.3744
  982MOL0     C29546   3.077   6.016   1.852 -0.1579 -0.1995 -0.2777
  982MOL0     C29547   3.102   6.056   1.718  0.3225  0.3940 -0.0419
  982MOL0     C29548   3.221   6.122   1.692  0.0128 -0.5454 -0.4155
  982MOL0     C29549   3.320   6.134   1.786 -0.0540 -0.0755  0.3735
  982MOL0     O29550   3.428   6.201   1.737 -0.1745 -0.2756  0.6070
  982MOL0     C29551   3.557   6.134   1.751  0.9190  0.3933 -0.4394
  982MOL0     C29552   3.566   6.021   1.649 -0.7505 -0.3347  0.1528
  982MOL0     C29553   3.567   6.090   1.514  0.6372 -0.6514  0.8711
  982MOL0     C29554   3.663   6.020   1.421  0.0569  0.2932  0.2087
  982MOL0     C29555   3.678   6.077   1.293  0.7158  0.1874  0.0646
  982MOL0     C29556   3.671   6.155   1.201  0.1160 -0.9992  0.0640
  982MOL0     C29557   3.303   6.077   1.909  0.0513 -0.2024 -0.7393
  982MOL0     C29558   3.178   6.026   1.947 -0.5233  1.0012 -0.1507
  982MOL0     H29559   2.685   5.895   2.009 -1.7508 -0.2540 -0.3826
  982MOL0     H29560   2.485   5.738   2.024 -0.0683 -1.5064  0.1495
  982MOL0     H29561   2.285   5.864   1.820  0.7323 -1.1390 -2.1885
  982MOL0     H29562   2.237   5.740   1.943 -0.5185 -2.1436 -0.0383
  982MOL0     H29563   2.130   5.752   1.661  1.7153  1.5631  0.0772
  982MOL0     H29564   2.061   5.812   1.812 -1.0977 -0.4310 -1.9909
  982MOL0     H29565   2.084   5.588   1.918  0.5100 -1.7790  0.1279
  982MOL0     H29566   2.126   5.519   1.761 -0.2846 -0.6860  0.1456
  982MOL0     H29567   1.872   5.675   1.812  0.0141 -0.9508 -0.7133
  982MOL0     H29568   1.910   5.601   1.667 -2.6792  0.0907 -0.0849
  982MOL0     H29569   1.857   5.451   1.928 -0.3677 -1.4648  0.0799
  982MOL0     H29570   1.934   5.368   1.806 -0.7320 -0.6218 -1.8388
  982MOL0     H29571   1.745   5.399   1.638 -1.1656 -0.7271 -0.3070
  982MOL0     H29572   1.661   5.501   1.762  1.6189 -0.4134  3.8013
  982MOL0     H29573   1.568   5.270   1.744 -0.1679  0.9450  0.8385
  982MOL0     H29574   1.724   5.202   1.795  0.6939 -0.0097 -0.7073
  982MOL0     H29575   1.673   5.366   2.013  0.3865 -0.5248  1.7504
  982MOL0     H29576   1.628   5.199   1.991 -0.0702  0.2326 -1.5283
  982MOL0     H29577   1.401   5.180   2.094  2.5960 -0.2534 -0.9756
  982MOL0     H29578   1.068   5.310   2.013  0.4079 -0.0819 -0.4275
  982MOL0     H29579   1.115   5.378   2.168 -1.5835 -0.0471 -0.7881
  982MOL0     H29580   1.216   5.167   2.247  0.3556  0.4090 -1.5286
  982MOL0     H29581   1.182   5.099   2.084  0.2315 -0.0415 -0.6532
  982MOL0     H29582   0.932   5.108   2.132 -0.7507 -1.2889  1.2779
  982MOL0     H29583   1.011   5.034   2.279 -1.6158  0.6579  2.9954
  982MOL0     H29584   0.863   5.285   2.230 -1.7397 -2.0551 -1.2992
  982MOL0     H29585   0.990   5.289   2.353  0.4418 -1.4803 -0.4662
  982MOL0     H29586   0.704   5.159   2.141 -0.9305 -3.1575 -2.6841
  982MOL0     H29587   0.503   5.031   2.109 -1.8587 -2.5784  0.2641
  982MOL0     H29588   0.087   5.062   2.076  1.0537 -1.4061  0.2829
  982MOL0     H29589  -0.122   4.972   1.981  0.3054  0.3362 -0.2070
  982MOL0     H29590  -0.233   4.857   1.830  1.5296 -0.0381  0.2080
  982MOL0     H29591  -0.322   4.871   1.979 -1.6085  0.8288 -1.0730
  982MOL0     H29592  -0.473   4.823   1.823  1.8808  0.0083 -2.2880
  982MOL0     H29593  -0.470   4.684   1.921  0.0695  0.3743  0.8280
  982MOL0     H29594  -0.343   4.555   1.749  1.4846  0.6769  1.7500
  982MOL0     H29595  -0.315   4.688   1.646  2.4836 -2.2722  1.3851
  982MOL0     H29596  -0.530   4.530   1.619 -1.6433 -0.8674  0.2392
  982MOL0     H29597  -0.616   4.654   1.706 -2.4148 -1.5217 -3.1698
  982MOL0     H29598  -0.491   4.701   1.441  1.5543 -0.1221  1.3738
  982MOL0     H29599  -0.522   4.831   1.557 -1.0679  0.8122  0.7078
  982MOL0     H29600  -0.765   4.752   1.573 -0.4531 -1.3371 -0.0011
  982MOL0     H29601  -0.730   4.608   1.485  1.7510  0.1639 -1.2635
  982MOL0     H29602  -0.718   4.893   1.361  0.8743 -0.6191  0.0910
  982MOL0     H29603  -0.670   4.737   1.285 -1.5249 -1.4124  0.1805
  982MOL0     H29604  -0.891   4.649   1.322  2.7301 -0.7199  0.3606
  982MOL0     H29605  -0.890   4.800   1.214  1.5027  0.1686  0.7625
  982MOL0     H29606   0.027   4.574   2.044 -1.4877  0.1317 -0.8448
  982MOL0     H29607   0.240   4.666   2.111  1.3383  2.4727  2.5881
  982MOL0     H29608   0.474   4.928   2.514  1.8674  0.5156  2.1241
  982MOL0     H29609   0.671   5.073   2.570  0.6970  2.0864 -0.5206
  982MOL0     H29610   2.520   5.696   1.596  0.1865  0.9020 -0.3274
  982MOL0     H29611   2.751   5.804   1.602 -0.3811  1.4840 -0.2331
  982MOL0     H29612   3.028   6.042   1.640 -1.4830 -1.4803  1.8575
  982MOL0     H29613   3.248   6.161   1.594  1.2048 -2.1078 -0.7438
  982MOL0     H29614   3.569   6.092   1.852 -1.3287 -0.0380 -0.3181
  982MOL0     H29615   3.634   6.211   1.739  0.5726  0.6950 -0.7322
  982MOL0     H29616   3.656   5.964   1.672  0.8584  1.3168 -1.6776
  982MOL0     H29617   3.472   5.965   1.650 -2.1083  1.8048  0.7956
  982MOL0     H29618   3.573   6.199   1.513  3.5321 -0.7485  1.1189
  982MOL0     H29619   3.470   6.065   1.468  1.6172 -0.1123 -1.6784
  982MOL0     H29620   3.767   6.018   1.454 -0.6050 -0.4678  2.4384
  982MOL0     H29621   3.625   5.919   1.402 -0.3668  0.7780 -1.6747
  982MOL0     H29622   3.662   6.218   1.115  0.5432 -0.8234  0.1498
  982MOL0     H29623   3.377   6.094   1.986 -0.7930 -0.6897  0.2022
  982MOL0     H29624   3.162   5.997   2.050  0.5771 -0.8358 -0.4571
  983MOL0     O29625   9.360   7.412   7.122 -0.4888 -0.2797  1.1144
  983MOL0     C29626   9.433   7.510   7.104 -0.0321  0.1189 -0.1980
  983MOL0     O29627   9.395   7.636   7.082 -0.1254  0.1357  0.0808
  983MOL0     C29628   9.264   7.662   7.079 -0.7228  0.2087 -0.9374
  983MOL0     C29629   9.207   7.727   7.190 -0.3988 -0.7644  0.3119
  983MOL0     C29630   9.065   7.751   7.192 -0.4549 -0.9076  0.1566
  983MOL0     C29631   8.984   7.717   7.084  0.3916  0.5611  0.3108
  983MOL0     O29632   8.846   7.723   7.104 -0.0766 -0.4683  0.2014
  983MOL0     C29633   8.761   7.626   7.040  0.0683 -0.4184 -0.1081
  983MOL0     C29634   8.626   7.677   7.068 -0.6438 -0.4360 -0.1776
  983MOL0     C29635   8.516   7.573   7.035 -1.0701  0.2437  0.8413
  983MOL0     C29636   8.380   7.638   7.035 -0.7531 -0.3150  0.3500
  983MOL0     C29637   8.267   7.537   7.022 -0.4150  0.6304 -0.2093
  983MOL0     C29638   8.136   7.599   7.049  1.1893  0.7668 -0.9043
  983MOL0     C29639   8.106   7.627   7.200  0.0340 -0.5080  0.2163
  983MOL0     C29640   7.999   7.732   7.207 -0.0078 -0.5723  0.9575
  983MOL0     N29641   7.860   7.692   7.165  0.5364  0.5331 -0.5204
  983MOL0     C29642   7.805   7.565   7.183 -0.3483 -0.6798 -0.6595
  983MOL0     C29643   7.671   7.576   7.171 -0.2196 -0.5386 -0.4524
  983MOL0     C29644   7.573   7.470   7.196  0.2463  0.3722 -0.4919
  983MOL0     C29645   7.533   7.471   7.347  0.5610 -1.3144 -0.3246
  983MOL0     C29646   7.442   7.348   7.376  0.1660 -0.5465 -0.3344
  983MOL0     C29647   7.376   7.363   7.510 -1.1010  0.5955 -0.2796
  983MOL0     O29648   7.330   7.231   7.544  0.1341 -0.0180  0.3343
  983MOL0     C29649   7.198   7.197   7.503 -0.9472 -0.8098 -0.9227
  983MOL0     C29650   7.115   7.268   7.407 -0.1967 -0.0423 -0.8938
  983MOL0     C29651   6.993   7.213   7.383 -0.8719 -0.4035 -0.4577
  983MOL0     C29652   6.937   7.102   7.453  0.2771 -0.2147  0.7517
  983MOL0     C29653   6.807   7.040   7.421 -1.1528  0.9543  0.4068
  983MOL0     O29654   6.790   6.909   7.447  0.3882  0.6674 -0.0623
  983MOL0     C29655   6.681   6.838   7.392  0.1111  0.3031  0.5882
  983MOL0     C29656   6.649   6.722   7.463  0.9968  0.6762  0.4340
  983MOL0     C29657   6.538   6.643   7.420 -0.5017 -0.2138  0.5481
  983MOL0     C29658   6.467   6.678   7.307  0.0225  0.7125  0.4477
  983MOL0     O29659   6.351   6.614   7.257 -0.3688 -0.4799  0.3426
  983MOL0     C29660   6.286   6.503   7.327 -0.6798 -0.2396 -0.5264
  983MOL0     C29661   6.180   6.461   7.223  1.0282 -0.1502 -0.2639
  983MOL0     C29662   6.063   6.374   7.292 -0.2437 -0.1798 -0.1369
  983MOL0     C29663   5.940   6.362   7.199  0.1138  0.6263 -0.4605
  983MOL0     C29664   5.819   6.290   7.262  0.3692 -0.0588 -0.1076
  983MOL0     C29665   5.791   6.331   7.414  0.6856 -0.1813  0.6221
  983MOL0     C29666   5.658   6.271   7.453  0.5302 -0.6900  0.1433
  983MOL0     C29667   5.618   6.305   7.600 -0.2943 -0.3213  0.7511
  983MOL0    Cl29668   5.455   6.239   7.618 -0.0585  0.1348  0.0472
  983MOL0     C29669   6.502   6.792   7.230 -0.0088 -0.0589 -0.4985
  983MOL0     C29670   6.609   6.875   7.274  0.7699 -0.4064 -0.1209
  983MOL0     O29671   6.724   7.108   7.374 -0.4480  0.0455  0.6383
  983MOL0     C29672   7.027   7.027   7.526 -0.0999 -0.1933  0.0164
  983MOL0     C29673   7.153   7.076   7.551  0.6297  0.4037 -0.1880
  983MOL0     N29674   7.644   7.699   7.129  0.0827  0.5614  0.1418
  983MOL0     N29675   7.753   7.771   7.133 -0.4802 -0.4462  0.5860
  983MOL0     C29676   9.038   7.637   6.977 -0.3494 -0.3215  0.1862
  983MOL0     C29677   9.178   7.620   6.975 -0.2973  0.2792 -0.0515
  983MOL0     C29678   9.579   7.488   7.102 -0.4434  0.1713 -0.0569
  983MOL0     C29679   9.634   7.378   7.170 -0.0280  1.1114  0.7411
  983MOL0     C29680   9.772   7.356   7.173  0.1960  0.0525 -0.3547
  983MOL0     C29681   9.861   7.437   7.102 -1.2164 -0.8302  0.0400
  983MOL0     O29682   9.993   7.423   7.129 -0.0341  0.1581  0.3026
  983MOL0     C29683  10.085   7.512   7.061  0.2002  0.8697  0.4367
  983MOL0     C29684  10.231   7.494   7.106  0.7820 -0.7608  0.5059
  983MOL0     C29685  10.269   7.349   7.093  0.1231  0.1399 -0.9769
  983MOL0     C29686  10.420   7.332   7.085 -0.6027 -1.3880  0.0245
  983MOL0     C29687  10.457   7.191   7.059  1.0060 -0.0923  0.8423
  983MOL0     C29688  10.475   7.082   7.018 -0.3336  0.3187  0.1949
  983MOL0     C29689   9.806   7.539   7.021 -0.8871 -0.3507  0.4063
  983MOL0     C29690   9.666   7.567   7.020  0.2646 -0.2872  0.4180
  983MOL0     H29691   9.260   7.744   7.283  2.0689 -4.3202 -0.2475
  983MOL0     H29692   9.020   7.800   7.277 -2.6264  0.8532 -1.8532
  983MOL0     H29693   8.780   7.534   7.095 -1.1460 -0.6285 -0.0114
  983MOL0     H29694   8.770   7.604   6.933  0.2100 -0.5041 -0.0786
  983MOL0     H29695   8.613   7.772   7.015  1.4841  0.1898  0.3439
  983MOL0     H29696   8.620   7.717   7.170  3.1305  0.2558 -0.1010
  983MOL0     H29697   8.521   7.487   7.102  2.5054 -0.8268 -0.5389
  983MOL0     H29698   8.528   7.535   6.933 -1.2006  0.5182  0.7229
  983MOL0     H29699   8.362   7.705   7.120  0.4235  2.6628 -1.5871
  983MOL0     H29700   8.369   7.717   6.961 -3.7011  1.2259  2.2044
  983MOL0     H29701   8.278   7.446   7.082 -1.6428  0.2392 -0.5487
  983MOL0     H29702   8.274   7.501   6.919 -1.9840 -0.9779  0.1862
  983MOL0     H29703   8.059   7.532   7.011  1.2155  0.1437  0.1069
  983MOL0     H29704   8.119   7.686   6.984  0.3325  1.4372  0.1732
  983MOL0     H29705   8.072   7.541   7.259 -0.2531 -1.6298 -1.5091
  983MOL0     H29706   8.200   7.661   7.243  0.9279 -2.1217 -0.3659
  983MOL0     H29707   8.029   7.818   7.147 -1.8159 -0.2617  0.4382
  983MOL0     H29708   7.984   7.763   7.311 -1.6576  0.3803  0.4791
  983MOL0     H29709   7.863   7.481   7.220  0.6514 -0.3678 -1.4897
  983MOL0     H29710   7.605   7.368   7.173  0.9538  0.4195  0.2305
  983MOL0     H29711   7.484   7.496   7.139  1.3715  2.1871 -1.5246
  983MOL0     H29712   7.486   7.565   7.377  0.9728 -1.6875  1.6762
  983MOL0     H29713   7.624   7.456   7.407  0.5082  1.4583  0.6089
  983MOL0     H29714   7.362   7.332   7.303  0.5741  0.1175 -0.9300
  983MOL0     H29715   7.503   7.257   7.375 -0.4569 -0.9987  0.6702
  983MOL0     H29716   7.292   7.434   7.509 -1.0322  0.6739 -0.6282
  983MOL0     H29717   7.442   7.398   7.589 -0.6610 -1.3198  0.2569
  983MOL0     H29718   7.149   7.355   7.351  1.8467 -0.5868 -0.5839
  983MOL0     H29719   6.931   7.279   7.322 -0.2738 -0.1738 -0.8206
  983MOL0     H29720   6.709   6.684   7.545  1.0640 -2.4130 -0.9095
  983MOL0     H29721   6.497   6.562   7.479 -0.9842  0.4220  1.1009
  983MOL0     H29722   6.234   6.525   7.421 -0.7319 -0.5768 -0.4782
  983MOL0     H29723   6.362   6.425   7.340  0.1302  0.6747  0.4968
  983MOL0     H29724   6.226   6.403   7.142 -2.3767 -0.6710 -2.0114
  983MOL0     H29725   6.143   6.553   7.177  3.6582 -0.0019 -2.3632
  983MOL0     H29726   6.030   6.435   7.376 -2.4061 -0.2327 -0.8643
  983MOL0     H29727   6.096   6.274   7.323 -1.5013 -0.6088 -0.0992
  983MOL0     H29728   5.902   6.458   7.163  1.0882  0.4514 -2.0545
  983MOL0     H29729   5.980   6.301   7.117  4.8544 -2.5165  3.5915
  983MOL0     H29730   5.827   6.183   7.242  0.4481  0.4958 -4.0005
  983MOL0     H29731   5.734   6.320   7.201  0.8849 -2.0147 -1.9133
  983MOL0     H29732   5.782   6.439   7.431 -1.4782 -0.5177  1.9509
  983MOL0     H29733   5.872   6.285   7.472  0.3393 -1.6371 -0.0062
  983MOL0     H29734   5.588   6.320   7.384  0.7226 -0.6868 -0.0536
  983MOL0     H29735   5.664   6.163   7.436 -0.8833 -0.3275 -3.8286
  983MOL0     H29736   5.612   6.412   7.620 -1.4055  0.0893 -1.4320
  983MOL0     H29737   5.679   6.248   7.671 -2.2558 -2.9815  0.4589
  983MOL0     H29738   6.424   6.830   7.165 -0.3327  0.8602  0.3991
  983MOL0     H29739   6.626   6.972   7.229  2.3724  0.2532  1.7959
  983MOL0     H29740   7.001   6.935   7.578  1.2835 -1.1811 -0.9693
  983MOL0     H29741   7.232   7.018   7.598  0.8400  1.7446  1.1617
  983MOL0     H29742   8.985   7.583   6.899  0.3401 -1.0060  0.1763
  983MOL0     H29743   9.226   7.555   6.903  3.2156  2.2310  0.2935
  983MOL0     H29744   9.579   7.301   7.223 -1.1404  1.6369  0.3747
  983MOL0     H29745   9.801   7.275   7.240  0.0652 -0.3969 -0.8331
  983MOL0     H29746  10.062   7.617   7.079  2.8849  1.5384  0.3776
  983MOL0     H29747  10.078   7.495   6.953 -1.0291 -1.3300  0.7898
  983MOL0     H29748  10.295   7.558   7.045 -0.7602  1.1999  0.8474
  983MOL0     H29749  10.244   7.536   7.206  0.7282  2.0190 -0.5740
  983MOL0     H29750  10.215   7.306   7.009  1.3225  0.3508 -1.8737
  983MOL0     H29751  10.237   7.292   7.182  0.8152 -1.2076 -1.5543
  983MOL0     H29752  10.473   7.394   7.012  1.9260  0.9009  3.4902
  983MOL0     H29753  10.457   7.361   7.184  0.0835 -3.0794  0.3136
  983MOL0     H29754  10.484   6.978   6.990 -2.6347  0.6706 -2.2733
  983MOL0     H29755   9.869   7.614   6.974 -0.1551 -0.3398  1.3718
  983MOL0     H29756   9.629   7.660   6.978 -0.9088  0.5159  2.9870
  984MOL0     O29757   1.316   2.217   5.367  0.0450 -0.0457  0.3345
  984MOL0     C29758   1.289   2.099   5.406 -1.0370 -0.4899  0.0644
  984MOL0     O29759   1.359   1.982   5.356  0.5253 -0.1497 -0.0431
  984MOL0     C29760   1.461   2.015   5.270  0.4782 -0.3969 -0.9908
  984MOL0     C29761   1.560   2.110   5.304  0.2822  0.0241 -0.6213
  984MOL0     C29762   1.660   2.129   5.212 -0.1533  0.2616  0.3795
  984MOL0     C29763   1.661   2.059   5.090  0.1715  0.7186  0.0649
  984MOL0     O29764   1.776   2.083   5.014  0.6059 -0.0458  0.3926
  984MOL0     C29765   1.783   2.024   4.885  0.0651  0.1658  0.4136
  984MOL0     C29766   1.914   2.072   4.823 -0.6539 -0.0618 -0.0006
  984MOL0     C29767   1.931   2.053   4.671 -0.5929 -0.2686  0.7000
  984MOL0     C29768   2.087   2.017   4.663 -0.0019 -1.5195 -0.0407
  984MOL0     C29769   2.134   2.012   4.515 -1.1562  0.0764 -0.2237
  984MOL0     C29770   2.064   1.900   4.440  0.2677 -0.2796 -0.0766
  984MOL0     C29771   2.065   1.763   4.503 -0.1886 -0.7078  0.3931
  984MOL0     C29772   1.991   1.676   4.406 -0.6873  0.1576 -0.6466
  984MOL0     N29773   1.848   1.710   4.386  0.0830 -0.3512 -0.0619
  984MOL0     C29774   1.747   1.715   4.481  0.7760 -0.4182  0.0601
  984MOL0     C29775   1.637   1.750   4.407 -0.4612  0.6493  0.1698
  984MOL0     C29776   1.501   1.768   4.462  0.1691  0.0450 -0.2716
  984MOL0     C29777   1.491   1.899   4.554 -0.8967  0.8193  0.3720
  984MOL0     C29778   1.372   1.987   4.506  0.4281 -0.3251  0.1989
  984MOL0     C29779   1.392   2.128   4.547  0.4569 -0.5953 -0.2014
  984MOL0     O29780   1.407   2.134   4.687 -0.5880  0.1343 -0.3972
  984MOL0     C29781   1.299   2.177   4.757 -0.8722 -0.1533  1.0498
  984MOL0     C29782   1.319   2.196   4.892 -0.2304  0.0729 -0.3006
  984MOL0     C29783   1.219   2.218   4.984  0.2047  0.3446  0.3402
  984MOL0     C29784   1.082   2.212   4.938  0.3673 -0.2740  0.2424
  984MOL0     C29785   0.966   2.232   5.027  0.4630  0.2017  0.1512
  984MOL0     O29786   0.993   2.320   5.127  0.0079  0.4578  0.4112
  984MOL0     C29787   0.892   2.363   5.209  0.2891 -0.7562 -0.7446
  984MOL0     C29788   0.860   2.301   5.328 -0.2926  0.3469  0.5802
  984MOL0     C29789   0.755   2.349   5.404  0.6452 -0.4289 -0.1698
  984MOL0     C29790   0.674   2.460   5.365 -0.3121  0.0439 -0.4698
  984MOL0     O29791   0.568   2.483   5.449 -0.5657  0.2133  0.5123
  984MOL0     C29792   0.464   2.565   5.392  0.4229  0.2816  0.0096
  984MOL0     C29793   0.382   2.605   5.519  0.3863 -0.2737 -0.0763
  984MOL0     C29794   0.273   2.497   5.552 -0.2737  0.2065 -0.6304
  984MOL0     C29795   0.229   2.494   5.698  0.2498  0.2617  0.2271
  984MOL0     C29796   0.167   2.627   5.741  0.2785  0.1698 -0.6618
  984MOL0     C29797   0.112   2.597   5.891 -0.8427  0.1411 -0.3622
  984MOL0     C29798   0.007   2.682   5.960  0.0339 -0.2350  1.1600
  984MOL0     C29799  -0.065   2.607   6.061  0.5026  0.4448 -0.4057
  984MOL0    Cl29800  -0.189   2.724   6.131 -0.2592 -0.4065  0.1425
  984MOL0     C29801   0.720   2.531   5.256 -0.1486  0.7102  0.0121
  984MOL0     C29802   0.832   2.483   5.176 -0.2079 -0.8536 -0.4424
  984MOL0     O29803   0.855   2.172   5.016 -0.2951  0.7165  0.1978
  984MOL0     C29804   1.056   2.173   4.803  0.3313 -0.6245 -0.1375
  984MOL0     C29805   1.160   2.158   4.711 -0.0116 -0.4585 -0.7152
  984MOL0     N29806   1.671   1.774   4.278 -0.2422  0.8638 -0.1887
  984MOL0     N29807   1.792   1.739   4.267  0.0994 -0.2103 -0.5202
  984MOL0     C29808   1.558   1.966   5.062 -0.2549 -1.0096 -0.7697
  984MOL0     C29809   1.453   1.943   5.150  0.3457 -0.0613 -1.1414
  984MOL0     C29810   1.189   2.083   5.514  0.1840 -0.2708  0.3965
  984MOL0     C29811   1.183   1.967   5.591 -0.0261  0.7862 -0.5480
  984MOL0     C29812   1.085   1.954   5.686  0.9119  0.7843 -0.0886
  984MOL0     C29813   0.995   2.055   5.720 -0.5105 -0.6864  0.0725
  984MOL0     O29814   0.900   2.041   5.821  0.0256  0.1763 -0.1606
  984MOL0     C29815   0.934   2.000   5.958 -0.0107  0.8386 -1.0372
  984MOL0     C29816   0.809   2.016   6.046 -0.8141 -0.8736 -0.6929
  984MOL0     C29817   0.688   1.931   5.995 -0.8269 -0.3397  0.1697
  984MOL0     C29818   0.562   1.955   6.076 -0.6148 -0.2695 -0.1275
  984MOL0     C29819   0.567   1.886   6.206  0.1801 -0.5304 -0.3045
  984MOL0     C29820   0.581   1.832   6.311 -0.2788  0.1332  0.1386
  984MOL0     C29821   1.006   2.174   5.648  0.3812 -0.5360  0.6162
  984MOL0     C29822   1.100   2.187   5.549 -0.2669 -0.5897 -0.1835
  984MOL0     H29823   1.554   2.169   5.396 -1.4441 -1.0305 -0.0081
  984MOL0     H29824   1.743   2.191   5.243  0.4356  0.5418 -1.5851
  984MOL0     H29825   1.703   2.071   4.828  1.5805 -0.0483 -2.0385
  984MOL0     H29826   1.763   1.917   4.878 -3.6411  0.8231 -2.3805
  984MOL0     H29827   1.997   2.023   4.877  0.2234 -0.0756 -1.3266
  984MOL0     H29828   1.935   2.175   4.853  1.1335 -1.4144  4.1810
  984MOL0     H29829   1.895   2.151   4.638  0.1353  1.1682  3.7788
  984MOL0     H29830   1.875   1.964   4.639  1.1518 -0.9983 -0.4547
  984MOL0     H29831   2.154   2.087   4.713 -1.4151 -1.0049  1.2281
  984MOL0     H29832   2.104   1.927   4.723 -3.8904 -2.7027 -0.4421
  984MOL0     H29833   2.242   1.995   4.511 -0.7105  1.8711  2.0025
  984MOL0     H29834   2.112   2.111   4.473 -0.5986  0.6272  0.7227
  984MOL0     H29835   2.108   1.891   4.340  1.5147  2.1262  0.1797
  984MOL0     H29836   1.962   1.933   4.421  1.2334  2.5137 -0.9654
  984MOL0     H29837   2.166   1.724   4.520  0.3027  0.7730  1.0783
  984MOL0     H29838   2.020   1.761   4.602  1.5129  2.0083  1.3304
  984MOL0     H29839   2.004   1.571   4.433 -0.5440  0.2477 -0.3623
  984MOL0     H29840   2.034   1.690   4.306 -1.4843 -0.4454 -1.0823
  984MOL0     H29841   1.751   1.696   4.588  0.6412 -1.1734 -0.0579
  984MOL0     H29842   1.476   1.681   4.523  1.5087  1.3167  2.2433
  984MOL0     H29843   1.427   1.771   4.381 -1.1939  1.7934  0.9590
  984MOL0     H29844   1.589   1.948   4.553 -0.3198 -0.3239 -0.3847
  984MOL0     H29845   1.458   1.867   4.653  0.8369 -0.8367  0.4540
  984MOL0     H29846   1.361   1.985   4.397  1.5232 -1.9358  0.0724
  984MOL0     H29847   1.282   1.942   4.548 -0.1257  0.2499 -0.3487
  984MOL0     H29848   1.322   2.200   4.504  1.8177  1.5959  1.0066
  984MOL0     H29849   1.489   2.157   4.505  1.5021 -0.7282  1.9428
  984MOL0     H29850   1.418   2.190   4.935 -0.3550 -0.8745 -0.1102
  984MOL0     H29851   1.237   2.248   5.087 -0.9476  3.4404 -0.2464
  984MOL0     H29852   0.912   2.216   5.369 -1.2524 -0.2861  0.5186
  984MOL0     H29853   0.735   2.299   5.498 -0.0573 -1.7474 -1.0018
  984MOL0     H29854   0.394   2.507   5.331 -0.3690 -0.7968  1.8664
  984MOL0     H29855   0.483   2.658   5.337  2.2374 -0.1947 -0.2223
  984MOL0     H29856   0.326   2.697   5.498  0.2844 -0.5815 -1.2330
  984MOL0     H29857   0.448   2.622   5.605  0.4125 -0.1425 -0.1228
  984MOL0     H29858   0.322   2.400   5.536  0.5770  0.8321 -1.9848
  984MOL0     H29859   0.192   2.503   5.480 -0.8200 -0.0119 -0.0435
  984MOL0     H29860   0.152   2.416   5.705  1.5896 -0.9474  3.5110
  984MOL0     H29861   0.308   2.464   5.768 -0.9898 -0.1223  1.5090
  984MOL0     H29862   0.090   2.668   5.675 -1.2376  4.4099  3.2353
  984MOL0     H29863   0.244   2.705   5.747  1.4361 -0.9947  0.3567
  984MOL0     H29864   0.201   2.594   5.955 -0.2189  2.2307 -1.0636
  984MOL0     H29865   0.073   2.495   5.888 -1.1678  0.2844 -1.3796
  984MOL0     H29866   0.044   2.779   5.994 -0.2712  1.1256 -2.0650
  984MOL0     H29867  -0.065   2.699   5.880  0.6229 -1.5924  0.3128
  984MOL0     H29868   0.001   2.557   6.133 -0.0441  1.5489  0.8964
  984MOL0     H29869  -0.115   2.527   6.005  0.9024 -0.3122  0.2822
  984MOL0     H29870   0.671   2.621   5.220 -1.8352 -0.3372 -0.3895
  984MOL0     H29871   0.856   2.538   5.086 -3.3339 -0.2493 -1.0066
  984MOL0     H29872   0.953   2.151   4.778  0.2692 -1.3806  0.7005
  984MOL0     H29873   1.145   2.115   4.612 -1.3056  1.3047 -1.3442
  984MOL0     H29874   1.561   1.921   4.963  0.7626 -0.2009 -1.1345
  984MOL0     H29875   1.373   1.874   5.125 -0.2992  0.4775 -0.6074
  984MOL0     H29876   1.249   1.885   5.568 -1.5790 -1.9064  3.5096
  984MOL0     H29877   1.082   1.861   5.741 -0.8391  1.1860  0.5745
  984MOL0     H29878   1.012   2.053   6.014 -2.1979  0.1156  3.0082
  984MOL0     H29879   0.975   1.899   5.952  2.1182  1.4287  1.4681
  984MOL0     H29880   0.817   1.995   6.153 -3.7713  3.0015  0.5147
  984MOL0     H29881   0.782   2.122   6.039 -2.2743 -1.1348  0.4677
  984MOL0     H29882   0.717   1.825   5.988  0.9042  0.1797 -1.1374
  984MOL0     H29883   0.671   1.960   5.891 -0.9029 -1.8356 -0.2565
  984MOL0     H29884   0.555   2.063   6.096  0.3051  0.1825 -2.0009
  984MOL0     H29885   0.479   1.906   6.025 -0.8818  0.8452 -0.7993
  984MOL0     H29886   0.589   1.779   6.404  0.5844 -0.3099 -0.1856
  984MOL0     H29887   0.936   2.252   5.675 -1.4380 -0.4727 -3.6159
  984MOL0     H29888   1.115   2.289   5.517 -0.4352 -0.2274  0.8602
  985MOL0     O29889   4.852   3.985  10.811 -0.1638  0.1706  0.3661
  985MOL0     C29890   4.875   4.103  10.785  1.3190 -0.4724  0.0201
  985MOL0     O29891   4.775   4.201  10.760 -0.3374 -0.3815  1.1965
  985MOL0     C29892   4.652   4.178  10.815  0.2942  0.5532  0.3501
  985MOL0     C29893   4.624   4.119  10.937  0.4841 -1.1906  0.1950
  985MOL0     C29894   4.497   4.108  10.980 -0.0180  0.4119  0.5166
  985MOL0     C29895   4.388   4.150  10.908  0.3994 -0.4934  0.5332
  985MOL0     O29896   4.266   4.130  10.956  0.4691  0.0948  0.1197
  985MOL0     C29897   4.168   4.217  10.900 -0.4011  0.1456  0.6499
  985MOL0     C29898   4.040   4.199  10.984 -0.0094  0.3207  0.0074
  985MOL0     C29899   3.978   4.065  10.955  0.0716 -0.0710  0.5809
  985MOL0     C29900   3.886   4.022  11.070 -0.1806 -0.5421 -0.2182
  985MOL0     C29901   3.808   3.890  11.053  0.0829 -0.3777  0.5694
  985MOL0     C29902   3.706   3.863  11.169  0.0990 -0.1463  0.1252
  985MOL0     C29903   3.607   3.750  11.118  0.0545  0.7610 -0.4334
  985MOL0     C29904   3.667   3.611  11.110  0.1993 -0.4193 -0.3659
  985MOL0     N29905   3.572   3.504  11.074  0.3290  0.3941 -0.2033
  985MOL0     C29906   3.529   3.454  10.951 -0.5124  0.7416 -0.3371
  985MOL0     C29907   3.422   3.366  10.975 -0.7833 -0.5802 -0.0082
  985MOL0     C29908   3.362   3.286  10.855  1.1836  0.1359 -0.1867
  985MOL0     C29909   3.265   3.370  10.755 -0.5041  0.6575  0.1045
  985MOL0     C29910   3.239   3.297  10.630  0.0433 -0.4959  0.4396
  985MOL0     C29911   3.146   3.379  10.537 -0.3364  0.6367  0.5894
  985MOL0     O29912   3.013   3.396  10.596 -0.4315  0.0259  0.2940
  985MOL0     C29913   2.930   3.284  10.589  0.2363 -0.5493  0.4144
  985MOL0     C29914   2.962   3.153  10.529  0.2229 -0.3235  0.4075
  985MOL0     C29915   2.867   3.054  10.532  0.7367  0.1644 -0.0186
  985MOL0     C29916   2.740   3.071  10.581 -0.4463  0.9774  0.1602
  985MOL0     C29917   2.647   2.946  10.563  0.0740 -0.6318  0.5486
  985MOL0     O29918   2.524   2.938  10.630  0.1687 -0.1454 -0.4215
  985MOL0     C29919   2.423   2.868  10.568  0.3676  0.7731  0.6025
  985MOL0     C29920   2.341   2.797  10.650 -0.0186 -0.2537 -0.1393
  985MOL0     C29921   2.227   2.745  10.593 -0.0954  0.3393 -0.5025
  985MOL0     C29922   2.190   2.761  10.461 -0.4176  0.8734  0.3048
  985MOL0     O29923   2.091   2.696  10.399  0.2510 -0.1517 -0.7990
  985MOL0     C29924   1.965   2.678  10.469  0.0577 -0.0743 -0.2046
  985MOL0     C29925   1.877   2.598  10.372 -1.0581 -0.0042 -0.3262
  985MOL0     C29926   1.758   2.529  10.444 -0.2234 -0.1524 -0.2742
  985MOL0     C29927   1.658   2.626  10.511 -0.8045 -0.5384 -0.4526
  985MOL0     C29928   1.543   2.562  10.591  0.2702 -0.3960  0.0104
  985MOL0     C29929   1.450   2.668  10.665 -0.2283 -0.7162  0.9101
  985MOL0     C29930   1.367   2.617  10.776  0.8446  0.0991 -0.6081
  985MOL0     C29931   1.273   2.731  10.825 -0.0636  0.2066  0.3283
  985MOL0    Cl29932   1.186   2.669  10.973 -0.7500 -0.6263  0.0857
  985MOL0     C29933   2.278   2.832  10.377  0.9252  0.4077 -0.8246
  985MOL0     C29934   2.388   2.895  10.434 -0.8032  0.5186  0.2453
  985MOL0     O29935   2.682   2.870  10.473  0.2402  0.1719 -0.2623
  985MOL0     C29936   2.711   3.195  10.644 -0.5773 -0.7063 -0.1705
  985MOL0     C29937   2.800   3.298  10.641  0.1938  0.3939 -0.2955
  985MOL0     N29938   3.400   3.375  11.110  0.1309 -0.4708  0.4513
  985MOL0     N29939   3.490   3.449  11.166 -0.3627  0.1957 -0.4485
  985MOL0     C29940   4.420   4.194  10.783 -1.1884 -0.1038  1.2968
  985MOL0     C29941   4.546   4.210  10.729 -0.6916  0.5339  0.4629
  985MOL0     C29942   5.009   4.161  10.787  0.0763 -0.6742  0.4092
  985MOL0     C29943   5.032   4.279  10.710  0.2522  0.3446  0.3064
  985MOL0     C29944   5.159   4.332  10.714  0.2172 -0.0314  0.1603
  985MOL0     C29945   5.257   4.277  10.795 -0.5734 -0.8707 -0.4873
  985MOL0     O29946   5.373   4.353  10.787 -0.4076 -0.4769 -0.8995
  985MOL0     C29947   5.492   4.303  10.854  0.0498  0.4700 -0.3155
  985MOL0     C29948   5.553   4.202  10.763 -0.0674 -0.4925  0.5534
  985MOL0     C29949   5.702   4.176  10.786  0.8922 -0.8104 -0.5489
  985MOL0     C29950   5.749   4.051  10.706 -0.7138 -0.1352 -0.2268
  985MOL0     C29951   5.690   3.924  10.751 -0.1455  0.4803 -0.5658
  985MOL0     C29952   5.643   3.818  10.780  0.1094  0.0452 -0.2052
  985MOL0     C29953   5.240   4.158  10.863 -0.2197  0.3343 -0.2246
  985MOL0     C29954   5.113   4.096  10.855 -0.3237 -0.3817  0.0884
  985MOL0     H29955   4.707   4.099  11.003  1.8415  1.1156 -0.6753
  985MOL0     H29956   4.467   4.077  11.080 -0.0265 -0.4015  0.2705
  985MOL0     H29957   4.145   4.192  10.796  1.4762  1.4224 -0.1181
  985MOL0     H29958   4.199   4.321  10.915 -0.1932 -0.0348  1.4700
  985MOL0     H29959   3.969   4.281  10.973  0.7816  1.0956  0.5521
  985MOL0     H29960   4.070   4.194  11.089  0.4926 -1.5116 -0.1807
  985MOL0     H29961   4.059   3.994  10.935  0.4092  0.9587 -2.2432
  985MOL0     H29962   3.919   4.073  10.863  0.5102  0.3923  0.3343
  985MOL0     H29963   3.938   4.026  11.166 -2.2402  1.8430  0.9228
  985MOL0     H29964   3.810   4.100  11.073 -0.4094 -0.4363 -3.8149
  985MOL0     H29965   3.876   3.804  11.047  2.1325  1.1052  1.2863
  985MOL0     H29966   3.765   3.908  10.955  1.8072 -0.2006 -0.2024
  985MOL0     H29967   3.657   3.955  11.201  4.7345  2.3139  0.9332
  985MOL0     H29968   3.776   3.830  11.247  0.6061 -0.0349 -0.2804
  985MOL0     H29969   3.522   3.752  11.187  0.3665 -0.4764  0.0194
  985MOL0     H29970   3.569   3.768  11.017  0.7366 -1.5302 -1.1608
  985MOL0     H29971   3.714   3.589  11.207  0.6651 -0.9246 -0.6996
  985MOL0     H29972   3.740   3.614  11.029 -0.6777 -0.5436 -1.1694
  985MOL0     H29973   3.587   3.480  10.863  0.5619 -0.1286  0.0981
  985MOL0     H29974   3.318   3.197  10.901  1.1317  0.1541 -0.2004
  985MOL0     H29975   3.450   3.255  10.797  0.7932 -0.8433 -0.2831
  985MOL0     H29976   3.297   3.473  10.735 -0.5184  0.6582  0.0856
  985MOL0     H29977   3.172   3.383  10.811 -0.8388 -3.5426  0.8444
  985MOL0     H29978   3.337   3.298  10.581  0.0853 -1.6147  0.4747
  985MOL0     H29979   3.197   3.196  10.637  0.7827 -1.0195 -1.7822
  985MOL0     H29980   3.157   3.339  10.435  1.7616 -1.3262  1.5148
  985MOL0     H29981   3.202   3.473  10.540  0.7323 -0.0144  2.5453
  985MOL0     H29982   3.042   3.124  10.462 -1.1665 -1.4105 -0.8578
  985MOL0     H29983   2.892   2.960  10.484  0.2192  0.7633 -1.5069
  985MOL0     H29984   2.366   2.777  10.754  0.1955 -1.8425 -0.4691
  985MOL0     H29985   2.155   2.702  10.661 -0.2661  1.3504 -0.0149
  985MOL0     H29986   1.920   2.773  10.499  2.2367  2.1350 -3.2433
  985MOL0     H29987   1.977   2.628  10.565 -1.2170  2.4178  1.3676
  985MOL0     H29988   1.940   2.528  10.315  1.1912  0.0406  1.9341
  985MOL0     H29989   1.834   2.670  10.302  2.3085  0.2526 -2.3403
  985MOL0     H29990   1.804   2.475  10.527  1.3813  1.8753  0.2429
  985MOL0     H29991   1.704   2.457  10.381  0.8152 -0.0346 -1.3334
  985MOL0     H29992   1.717   2.689  10.579 -2.8713  2.1782 -0.9899
  985MOL0     H29993   1.620   2.689  10.429  1.7241 -1.5165 -2.5200
  985MOL0     H29994   1.590   2.497  10.666  1.1831  0.0476 -0.1568
  985MOL0     H29995   1.476   2.506  10.526  0.5207 -1.0562  0.3108
  985MOL0     H29996   1.385   2.711  10.588  1.6863 -1.0648 -1.0118
  985MOL0     H29997   1.514   2.748  10.702 -0.7084  0.2130 -0.2046
  985MOL0     H29998   1.309   2.532  10.738 -2.3558  1.5047  0.7744
  985MOL0     H29999   1.423   2.585  10.864  0.1956  0.6236  0.0039
  985MOL0     H30000   1.205   2.757  10.743  1.4302  2.6732 -0.2165
  985MOL0     H30001   1.326   2.821  10.858  0.2548 -0.4480  1.7043
  985MOL0     H30002   2.263   2.840  10.269  2.0302  3.3765 -0.8481
  985MOL0     H30003   2.459   2.951  10.373 -1.3502  0.2033 -0.7052
  985MOL0     H30004   2.616   3.212  10.693  0.7896  1.3848  1.9073
  985MOL0     H30005   2.763   3.395  10.675  2.4731  1.1580  0.1870
  985MOL0     H30006   4.342   4.232  10.718 -0.9691 -1.4765  0.1833
  985MOL0     H30007   4.570   4.252  10.632  1.0368  0.0524  0.6587
  985MOL0     H30008   4.950   4.323  10.654  2.0419  1.1428 -1.7960
  985MOL0     H30009   5.181   4.426  10.664 -1.6036  0.6932  0.6338
  985MOL0     H30010   5.467   4.263  10.953 -0.0355 -1.2379 -0.9837
  985MOL0     H30011   5.564   4.385  10.865 -0.6268  1.4458 -2.5903
  985MOL0     H30012   5.496   4.110  10.779 -0.0008 -0.7796 -0.7440
  985MOL0     H30013   5.524   4.244  10.666 -1.6014  0.3821  1.3550
  985MOL0     H30014   5.732   4.163  10.890 -1.4704 -1.8375  0.0528
  985MOL0     H30015   5.758   4.261  10.745 -0.1341  0.6475  0.9481
  985MOL0     H30016   5.731   4.073  10.601  3.6096 -1.7179 -1.5075
  985MOL0     H30017   5.858   4.050  10.710 -0.6286  2.0947 -0.4311
  985MOL0     H30018   5.586   3.730  10.805  1.6162 -0.8484  0.2152
  985MOL0     H30019   5.319   4.109  10.918 -1.1447 -0.3593  0.5050
  985MOL0     H30020   5.104   4.000  10.904  1.0468  0.2551  1.7022
  986MOL0     O30021   5.280   0.075   3.257 -0.9380  0.1665  0.7105
  986MOL0     C30022   5.220  -0.028   3.287  0.8434  0.4217 -0.5787
  986MOL0     O30023   5.279  -0.154   3.287  0.3162  0.5531 -0.7300
  986MOL0     C30024   5.396  -0.180   3.214 -0.5197  0.2617  0.2881
  986MOL0     C30025   5.433  -0.116   3.096 -1.4988  0.4816  0.7695
  986MOL0     C30026   5.547  -0.154   3.024 -0.7639 -1.4091 -0.6471
  986MOL0     C30027   5.623  -0.257   3.075  0.3882  0.0001 -0.0632
  986MOL0     O30028   5.739  -0.305   3.029 -0.4854  0.2185 -0.0629
  986MOL0     C30029   5.784  -0.258   2.896  0.1976 -0.4602  0.6893
  986MOL0     C30030   5.909  -0.330   2.841  0.0901 -0.2897 -0.7543
  986MOL0     C30031   5.984  -0.229   2.749  0.3098 -0.5814 -0.0205
  986MOL0     C30032   6.106  -0.295   2.679  0.0688 -0.3441  0.4284
  986MOL0     C30033   6.186  -0.210   2.584 -0.2724 -0.4609 -0.1876
  986MOL0     C30034   6.291  -0.284   2.508  0.4510  0.3863  0.3399
  986MOL0     C30035   6.374  -0.188   2.427  0.8668  0.1468 -0.1065
  986MOL0     C30036   6.469  -0.264   2.343 -0.6885 -0.0260  0.1360
  986MOL0     N30037   6.422  -0.238   2.214  0.2026  0.2061 -0.3083
  986MOL0     C30038   6.306  -0.269   2.154 -0.4572 -0.2477  0.3491
  986MOL0     C30039   6.304  -0.219   2.027 -0.2125 -0.1601 -0.1774
  986MOL0     C30040   6.192  -0.225   1.928  0.2379  0.3197  0.3887
  986MOL0     C30041   6.073  -0.128   1.966 -0.3133  0.0236 -0.0481
  986MOL0     C30042   5.963  -0.127   1.867  0.8563 -0.0365 -0.7957
  986MOL0     C30043   5.826  -0.120   1.939 -0.4618  0.0757  0.3268
  986MOL0     O30044   5.740  -0.068   1.839  0.6333 -0.6295 -0.2527
  986MOL0     C30045   5.617  -0.135   1.831 -1.0796  0.2346 -0.2327
  986MOL0     C30046   5.597  -0.192   1.705  0.1173 -0.1225 -0.8301
  986MOL0     C30047   5.480  -0.258   1.683 -0.4013  0.0935 -0.6126
  986MOL0     C30048   5.394  -0.292   1.790  0.5534 -0.4988 -0.2415
  986MOL0     C30049   5.273  -0.369   1.766 -0.5737  0.1489  0.1403
  986MOL0     O30050   5.187  -0.393   1.874 -0.3274 -0.6571  0.1188
  986MOL0     C30051   5.071  -0.458   1.862 -0.4009  0.5506  0.3175
  986MOL0     C30052   5.040  -0.559   1.774  0.1776 -0.0361  0.1830
  986MOL0     C30053   4.920  -0.626   1.774  0.3162 -0.3899  0.5415
  986MOL0     C30054   4.819  -0.591   1.857 -0.3768 -0.2719 -0.3587
  986MOL0     O30055   4.695  -0.658   1.840 -0.0374  0.0289 -0.1754
  986MOL0     C30056   4.588  -0.587   1.894  0.4183  0.5398 -0.4455
  986MOL0     C30057   4.451  -0.648   1.847 -0.5934 -0.6697 -0.2379
  986MOL0     C30058   4.325  -0.578   1.902  0.5066 -1.1131  0.1190
  986MOL0     C30059   4.200  -0.638   1.856  1.3424 -0.2916 -0.3274
  986MOL0     C30060   4.079  -0.542   1.854  0.3996 -0.2028 -0.8549
  986MOL0     C30061   3.942  -0.606   1.865  0.1392  0.0297 -0.2084
  986MOL0     C30062   3.915  -0.724   1.768  0.7146 -0.3281 -0.0172
  986MOL0     C30063   3.789  -0.801   1.796  0.6274  0.4435 -0.4672
  986MOL0    Cl30064   3.799  -0.890   1.944  0.5686  0.1547  0.0825
  986MOL0     C30065   4.844  -0.478   1.940 -0.3529 -0.2130 -0.3698
  986MOL0     C30066   4.971  -0.412   1.944  0.6402  0.1291  0.0427
  986MOL0     O30067   5.260  -0.417   1.653 -0.4317  0.0763  0.4129
  986MOL0     C30068   5.415  -0.232   1.916 -0.3235 -0.2082  0.1208
  986MOL0     C30069   5.524  -0.147   1.937  0.3968 -0.7354  0.2939
  986MOL0     N30070   6.426  -0.153   2.011  0.7375  0.1783  0.0661
  986MOL0     N30071   6.491  -0.172   2.123 -0.4079  0.0012 -0.1829
  986MOL0     C30072   5.590  -0.327   3.187 -0.2872 -0.1712 -0.4962
  986MOL0     C30073   5.480  -0.288   3.259  0.8167 -1.0460 -0.0714
  986MOL0     C30074   5.075  -0.020   3.330  0.3412  0.0649  0.2801
  986MOL0     C30075   5.012  -0.130   3.393 -0.3717  0.2505  0.0172
  986MOL0     C30076   4.873  -0.138   3.415 -0.0019 -0.2564 -0.3757
  986MOL0     C30077   4.797  -0.032   3.388  0.7006 -0.6363  0.4449
  986MOL0     O30078   4.660  -0.034   3.418 -0.2523 -0.2869 -0.7375
  986MOL0     C30079   4.586  -0.139   3.348 -0.2186  0.0077 -1.0033
  986MOL0     C30080   4.444  -0.127   3.356  0.4916  0.1698 -0.0886
  986MOL0     C30081   4.385  -0.002   3.300  0.1325  0.1569 -0.0953
  986MOL0     C30082   4.230   0.002   3.301 -0.2969 -0.1655  0.2732
  986MOL0     C30083   4.170   0.123   3.241  0.6730  0.7669 -0.0248
  986MOL0     C30084   4.142   0.234   3.198 -0.0172  0.3903 -0.7274
  986MOL0     C30085   4.852   0.092   3.338 -0.8236  0.3804 -0.0132
  986MOL0     C30086   4.990   0.090   3.296  0.3313  0.1341 -0.8700
  986MOL0     H30087   5.387  -0.024   3.062 -0.2345  1.4267  1.5401
  986MOL0     H30088   5.565  -0.104   2.929  0.1951  0.7313  0.5775
  986MOL0     H30089   5.809  -0.152   2.906  3.9815 -1.2333  0.7806
  986MOL0     H30090   5.706  -0.275   2.821  2.8895 -1.9507 -1.9754
  986MOL0     H30091   5.886  -0.423   2.788  0.9682 -1.5057  0.9186
  986MOL0     H30092   5.979  -0.352   2.922  0.5328 -1.3507 -1.3966
  986MOL0     H30093   6.012  -0.132   2.791  2.7803 -0.6475 -1.3798
  986MOL0     H30094   5.907  -0.197   2.678  0.7749 -0.4476 -0.4701
  986MOL0     H30095   6.172  -0.314   2.764  0.4300  0.1293  0.2603
  986MOL0     H30096   6.084  -0.393   2.636  1.5010 -1.1118  1.3743
  986MOL0     H30097   6.231  -0.128   2.641 -2.3251  1.2066 -0.8381
  986MOL0     H30098   6.123  -0.156   2.513 -0.3642 -2.3841 -1.6531
  986MOL0     H30099   6.251  -0.348   2.429  2.2357  1.7832 -1.8119
  986MOL0     H30100   6.349  -0.345   2.578  1.1536  0.7299  0.0747
  986MOL0     H30101   6.305  -0.124   2.371  0.7848  0.8777  0.7971
  986MOL0     H30102   6.432  -0.127   2.497 -0.5427 -0.3687  1.5933
  986MOL0     H30103   6.460  -0.365   2.385  2.6356  1.3698  5.0393
  986MOL0     H30104   6.572  -0.235   2.367 -1.3518  2.7970 -0.1290
  986MOL0     H30105   6.223  -0.322   2.200 -3.1265  2.5634 -0.9053
  986MOL0     H30106   6.163  -0.329   1.910 -1.8117  0.8332  0.4846
  986MOL0     H30107   6.238  -0.186   1.837  2.5226 -0.9015  0.9449
  986MOL0     H30108   6.114  -0.027   1.967 -1.6321  0.5813  1.3232
  986MOL0     H30109   6.028  -0.153   2.063  0.4613 -0.1431  0.2759
  986MOL0     H30110   5.976  -0.043   1.799 -2.2477  0.3725 -1.0426
  986MOL0     H30111   5.955  -0.218   1.807  3.2146  0.2369 -1.6374
  986MOL0     H30112   5.808  -0.056   2.026 -0.9190 -0.4779  0.6476
  986MOL0     H30113   5.797  -0.221   1.972  1.7740 -0.1720  1.7768
  986MOL0     H30114   5.665  -0.158   1.627 -1.0827  2.9097 -0.6793
  986MOL0     H30115   5.466  -0.284   1.578  0.5870  3.0935 -1.5863
  986MOL0     H30116   5.117  -0.601   1.710 -0.3399 -0.7261  0.0083
  986MOL0     H30117   4.897  -0.716   1.718 -2.6266  0.3986  0.3139
  986MOL0     H30118   4.583  -0.486   1.852  0.0620  0.3763 -0.7983
  986MOL0     H30119   4.590  -0.596   2.003 -3.0704 -2.3113 -0.4174
  986MOL0     H30120   4.443  -0.755   1.871 -3.3534 -0.6559 -0.8261
  986MOL0     H30121   4.440  -0.637   1.738 -1.7027  0.7245 -0.0135
  986MOL0     H30122   4.320  -0.473   1.873  1.4633 -0.7769  1.1099
  986MOL0     H30123   4.328  -0.579   2.011  1.7544  2.6243  0.2639
  986MOL0     H30124   4.218  -0.677   1.755  0.2298  2.0606 -1.5186
  986MOL0     H30125   4.183  -0.730   1.913  3.1599 -0.0492  0.6493
  986MOL0     H30126   4.087  -0.486   1.760  2.8617  0.3218 -0.4186
  986MOL0     H30127   4.099  -0.469   1.933  1.5135 -1.0716 -0.3012
  986MOL0     H30128   3.867  -0.526   1.857  0.2828  0.0432 -1.6148
  986MOL0     H30129   3.933  -0.648   1.966 -0.9548 -1.7617 -0.9957
  986MOL0     H30130   3.919  -0.676   1.669  1.9614  0.4622  0.3886
  986MOL0     H30131   3.992  -0.801   1.780  0.9881 -0.0712 -0.1037
  986MOL0     H30132   3.763  -0.872   1.716  1.0686 -1.7552  1.2240
  986MOL0     H30133   3.709  -0.726   1.793  0.8884  0.7028 -2.5281
  986MOL0     H30134   4.767  -0.439   2.007 -2.3262  0.1051 -2.6575
  986MOL0     H30135   4.985  -0.333   2.017 -0.0510 -1.0811  1.5412
  986MOL0     H30136   5.346  -0.261   1.995  0.1426 -2.2679 -0.1592
  986MOL0     H30137   5.539  -0.093   2.030  2.2186  1.3534 -1.0928
  986MOL0     H30138   5.653  -0.409   3.219  2.5679  1.3640 -1.7834
  986MOL0     H30139   5.455  -0.340   3.350  3.1019 -0.4529  0.9786
  986MOL0     H30140   5.066  -0.220   3.421 -0.8173  0.1919  0.6876
  986MOL0     H30141   4.828  -0.227   3.457 -0.2259  0.4492  0.9377
  986MOL0     H30142   4.610  -0.237   3.392 -0.9714  0.7685  1.2602
  986MOL0     H30143   4.619  -0.126   3.245 -1.1575  1.2168 -1.1767
  986MOL0     H30144   4.403  -0.212   3.299  0.1338  0.9126 -0.9656
  986MOL0     H30145   4.409  -0.159   3.455 -0.4047 -0.1050 -0.4804
  986MOL0     H30146   4.420  -0.000   3.196 -0.7453  2.4725 -0.4229
  986MOL0     H30147   4.426   0.083   3.356  0.6618 -1.4471  2.0513
  986MOL0     H30148   4.189  -0.082   3.244  1.0071 -1.7105  1.5108
  986MOL0     H30149   4.201  -0.008   3.405 -1.9283  2.2285  0.1125
  986MOL0     H30150   4.103   0.329   3.166 -1.0904  0.4062  0.5693
  986MOL0     H30151   4.791   0.179   3.315 -2.8147 -1.3361 -1.6994
  986MOL0     H30152   5.027   0.178   3.244 -1.5331  1.2658 -0.3969
  987MOL0     O30153   6.732   7.122   8.197  0.1164 -1.1151 -0.3803
  987MOL0     C30154   6.784   7.234   8.204 -0.0897  0.5408  0.3715
  987MOL0     O30155   6.723   7.346   8.269  0.8431 -0.0482  0.8775
  987MOL0     C30156   6.588   7.338   8.311  0.6746  0.5700  0.1322
  987MOL0     C30157   6.485   7.419   8.259 -0.0981 -0.9067  0.3298
  987MOL0     C30158   6.360   7.421   8.310 -0.1158  0.8022  0.1692
  987MOL0     C30159   6.333   7.332   8.415 -0.6951  0.8976  0.4149
  987MOL0     O30160   6.203   7.321   8.461 -0.6787  0.6483  0.0255
  987MOL0     C30161   6.140   7.194   8.435  0.3085  0.1840  0.2539
  987MOL0     C30162   5.999   7.191   8.469  0.2760  0.0347 -0.2543
  987MOL0     C30163   5.921   7.327   8.425  0.2850 -0.5837 -0.2189
  987MOL0     C30164   5.774   7.296   8.384  0.1720  0.0641 -0.3209
  987MOL0     C30165   5.749   7.202   8.272 -0.8028  0.1332 -0.2116
  987MOL0     C30166   5.829   7.230   8.139  0.2430  0.2802 -0.1182
  987MOL0     C30167   5.791   7.106   8.054 -0.1769  0.2148  0.7550
  987MOL0     C30168   5.878   7.085   7.922  0.2005 -0.0112 -0.4530
  987MOL0     N30169   5.825   6.974   7.838 -0.4223 -0.3546  0.4589
  987MOL0     C30170   5.820   6.844   7.876 -0.0318  0.7623 -0.5900
  987MOL0     C30171   5.772   6.778   7.767  0.9535  0.7904 -0.4123
  987MOL0     C30172   5.721   6.634   7.762 -0.1862 -0.0544  0.0021
  987MOL0     C30173   5.600   6.612   7.853  0.7896 -0.6252  0.4852
  987MOL0     C30174   5.483   6.706   7.826 -0.4812  0.1152 -0.8716
  987MOL0     C30175   5.343   6.664   7.867 -0.3429 -0.6847 -0.3989
  987MOL0     O30176   5.305   6.551   7.787  0.4860 -0.0814 -0.1736
  987MOL0     C30177   5.175   6.506   7.795  1.0724 -0.4736 -0.5355
  987MOL0     C30178   5.138   6.421   7.691 -0.6062 -0.2717  0.1069
  987MOL0     C30179   5.011   6.369   7.681  0.4373 -0.0299  0.3189
  987MOL0     C30180   4.908   6.408   7.779  0.8896 -0.5682 -0.5136
  987MOL0     C30181   4.764   6.357   7.770  0.0323 -0.3074  0.1047
  987MOL0     O30182   4.748   6.235   7.704  0.7050  0.1151  0.0186
  987MOL0     C30183   4.616   6.184   7.722  0.5067  0.6738  0.5951
  987MOL0     C30184   4.566   6.142   7.846 -0.7903 -1.0082 -0.2839
  987MOL0     C30185   4.433   6.091   7.855 -0.2543  0.7549 -0.5755
  987MOL0     C30186   4.343   6.088   7.753  0.0114 -0.3010 -0.2074
  987MOL0     O30187   4.212   6.050   7.774  0.3228 -0.3859 -0.2466
  987MOL0     C30188   4.118   6.063   7.666  0.2408  0.1770 -0.7226
  987MOL0     C30189   3.976   6.045   7.722  0.1488 -0.7376  0.2807
  987MOL0     C30190   3.898   6.020   7.597  0.4662  0.2504  0.4316
  987MOL0     C30191   3.746   6.011   7.633 -0.6868 -0.1730 -0.8123
  987MOL0     C30192   3.661   5.989   7.503  0.5108 -0.2123  0.0111
  987MOL0     C30193   3.680   5.841   7.463  0.9137 -0.2899 -0.2030
  987MOL0     C30194   3.621   5.805   7.327 -0.0320 -0.7434 -0.2122
  987MOL0     C30195   3.473   5.846   7.310  0.5345 -0.3075 -0.0134
  987MOL0    Cl30196   3.394   5.805   7.158  0.2314  0.6583  0.0805
  987MOL0     C30197   4.400   6.131   7.627  0.0261 -0.3345 -0.3594
  987MOL0     C30198   4.529   6.174   7.606 -1.1049  0.2279  1.3542
  987MOL0     O30199   4.671   6.417   7.830 -0.5718  0.7911  1.3408
  987MOL0     C30200   4.944   6.507   7.878 -0.0899 -0.5630  0.1259
  987MOL0     C30201   5.074   6.559   7.882 -1.0608  0.2027  0.2147
  987MOL0     N30202   5.760   6.868   7.662  0.1842 -0.4180  1.1116
  987MOL0     N30203   5.785   6.989   7.703  0.4670  0.0055  0.0082
  987MOL0     C30204   6.434   7.245   8.458  0.0472 -0.7260  0.9652
  987MOL0     C30205   6.562   7.247   8.410 -0.0540  0.1711  0.4246
  987MOL0     C30206   6.921   7.261   8.146  1.4954  0.2912 -0.3045
  987MOL0     C30207   6.999   7.167   8.074  0.2750  0.7405  0.7896
  987MOL0     C30208   7.130   7.197   8.025 -0.4373  0.6404  0.3305
  987MOL0     C30209   7.182   7.323   8.053 -0.5191  0.5838  0.0954
  987MOL0     O30210   7.303   7.373   8.015  0.2115 -0.0443  0.0284
  987MOL0     C30211   7.393   7.282   7.947 -0.0400 -0.6036 -0.0090
  987MOL0     C30212   7.510   7.357   7.889 -0.2228  0.5977 -1.1198
  987MOL0     C30213   7.588   7.254   7.804 -0.6095 -0.0994  0.2035
  987MOL0     C30214   7.710   7.322   7.742 -0.8311  0.0854  0.8143
  987MOL0     C30215   7.820   7.232   7.713 -0.3412 -0.7228 -0.6684
  987MOL0     C30216   7.900   7.142   7.700  0.4317 -0.0777  0.6702
  987MOL0     C30217   7.103   7.414   8.121  0.1823  0.2818  0.0079
  987MOL0     C30218   6.978   7.388   8.160 -0.3724 -0.0107  0.0265
  987MOL0     H30219   6.521   7.489   8.184  0.2406  2.0963  3.0624
  987MOL0     H30220   6.287   7.486   8.263 -1.3725 -0.6835 -0.0137
  987MOL0     H30221   6.196   7.108   8.472  0.5682 -0.9565 -2.5141
  987MOL0     H30222   6.150   7.191   8.326 -0.1107  0.7335  0.1960
  987MOL0     H30223   5.994   7.166   8.575  0.3437  0.1146 -0.2325
  987MOL0     H30224   5.962   7.102   8.417  0.4781  0.3303 -0.9242
  987MOL0     H30225   5.964   7.365   8.332 -0.2891 -2.4194 -1.2743
  987MOL0     H30226   5.936   7.400   8.506  3.3002 -0.0279 -1.1269
  987MOL0     H30227   5.727   7.261   8.477  1.0613  2.6699  1.2206
  987MOL0     H30228   5.730   7.393   8.361  0.3163  0.4312  0.8452
  987MOL0     H30229   5.643   7.203   8.247 -1.3132 -4.5403  0.8314
  987MOL0     H30230   5.775   7.100   8.303  2.1889  0.9771  0.3499
  987MOL0     H30231   5.936   7.218   8.154 -0.1047 -4.1399  0.0971
  987MOL0     H30232   5.797   7.321   8.085  1.0368  0.2876 -0.5925
  987MOL0     H30233   5.790   7.017   8.118  1.2426  1.0055  1.9576
  987MOL0     H30234   5.687   7.122   8.023  0.0542  0.6145  0.1637
  987MOL0     H30235   5.982   7.071   7.954 -0.0282 -0.3433  0.1628
  987MOL0     H30236   5.877   7.171   7.855  1.7545 -0.5159 -1.1657
  987MOL0     H30237   5.853   6.797   7.968  0.5751 -0.3075 -1.3262
  987MOL0     H30238   5.798   6.561   7.787 -0.4354  0.1488  1.5139
  987MOL0     H30239   5.696   6.618   7.657 -0.6389  0.3929  0.0392
  987MOL0     H30240   5.632   6.625   7.956  2.9872  2.9859 -0.4401
  987MOL0     H30241   5.572   6.507   7.841 -1.0421  0.0909 -2.8913
  987MOL0     H30242   5.510   6.795   7.885  1.8103  0.2114 -1.9474
  987MOL0     H30243   5.491   6.740   7.722  0.9022  1.2119 -0.4385
  987MOL0     H30244   5.284   6.751   7.838  0.9374  0.7288  1.0619
  987MOL0     H30245   5.338   6.659   7.976 -0.4103  3.5465 -0.0513
  987MOL0     H30246   5.214   6.385   7.623  1.3973  4.6011 -0.6598
  987MOL0     H30247   4.981   6.300   7.603 -0.7493 -0.8098  1.4324
  987MOL0     H30248   4.632   6.158   7.931  0.4838 -1.3422 -1.1759
  987MOL0     H30249   4.400   6.058   7.954 -2.2664  0.6888 -1.2223
  987MOL0     H30250   4.140   5.979   7.599 -0.6931 -0.3778 -0.3671
  987MOL0     H30251   4.125   6.164   7.625  0.2532  0.4897  0.0376
  987MOL0     H30252   3.941   6.140   7.762  1.7432  0.8880 -1.9059
  987MOL0     H30253   3.972   5.962   7.794 -1.4101 -1.1659 -0.2577
  987MOL0     H30254   3.934   5.928   7.550 -2.1439 -0.3079 -0.6755
  987MOL0     H30255   3.919   6.105   7.531 -0.0420  0.4106  0.4673
  987MOL0     H30256   3.722   5.930   7.704  0.8320 -0.1437 -0.2256
  987MOL0     H30257   3.714   6.105   7.679 -0.5860  0.7993 -2.6388
  987MOL0     H30258   3.701   6.050   7.421 -0.2372 -1.1566 -1.1031
  987MOL0     H30259   3.558   6.015   7.530  1.3511  1.2555  1.9873
  987MOL0     H30260   3.619   5.785   7.535  0.2326 -0.2039 -0.7015
  987MOL0     H30261   3.781   5.799   7.469 -0.3499 -4.0264 -1.9234
  987MOL0     H30262   3.675   5.873   7.260 -1.6680  3.4287  2.3207
  987MOL0     H30263   3.629   5.699   7.299 -0.1330 -0.7177 -0.3415
  987MOL0     H30264   3.444   5.950   7.326 -0.6052 -0.7699  1.1137
  987MOL0     H30265   3.420   5.786   7.385 -0.5550 -2.3594 -2.2813
  987MOL0     H30266   4.341   6.142   7.537  0.9271 -1.1643 -1.0675
  987MOL0     H30267   4.563   6.201   7.507 -1.0056 -3.4731  0.2148
  987MOL0     H30268   4.875   6.561   7.942 -0.4102 -0.1346 -0.5737
  987MOL0     H30269   5.105   6.639   7.949 -1.8496  0.9737 -0.3182
  987MOL0     H30270   6.410   7.177   8.539 -0.7082 -0.0517  1.3114
  987MOL0     H30271   6.644   7.186   8.446 -1.1811 -0.1202  2.6900
  987MOL0     H30272   6.960   7.066   8.067 -1.3221  1.3947 -0.1818
  987MOL0     H30273   7.190   7.118   7.981 -0.4731 -0.5181  2.2719
  987MOL0     H30274   7.359   7.223   7.862  4.1825  0.1130 -2.4808
  987MOL0     H30275   7.432   7.215   8.024 -1.4381 -0.4856  0.8365
  987MOL0     H30276   7.470   7.437   7.825 -0.5274  1.7677  0.4848
  987MOL0     H30277   7.567   7.397   7.973  0.4408  2.1139 -2.2326
  987MOL0     H30278   7.528   7.207   7.725 -1.3927  1.0967  0.0543
  987MOL0     H30279   7.616   7.178   7.877  0.8542 -0.7645 -0.9907
  987MOL0     H30280   7.689   7.387   7.657  2.5309 -0.2385 -0.4196
  987MOL0     H30281   7.744   7.390   7.820  1.5992 -1.1755  0.9749
  987MOL0     H30282   7.972   7.065   7.682 -0.3735 -0.4300 -1.1594
  987MOL0     H30283   7.143   7.512   8.146 -0.9581  0.6191  0.6093
  987MOL0     H30284   6.930   7.469   8.215  0.8279 -0.1319  1.3242
  988MOL0     O30285   2.967   0.066   1.751  0.3657  0.2491 -0.7171
  988MOL0     C30286   2.942  -0.007   1.657  0.0988  0.6757  0.2225
  988MOL0     O30287   2.820  -0.056   1.617 -0.3550 -0.1993 -0.0540
  988MOL0     C30288   2.696  -0.001   1.652  0.2688 -0.7211 -0.7377
  988MOL0     C30289   2.579  -0.082   1.634 -1.1951  0.1368 -0.6851
  988MOL0     C30290   2.447  -0.028   1.656 -0.4156  0.1818 -1.2635
  988MOL0     C30291   2.432   0.105   1.702  0.0534 -0.5674 -0.0342
  988MOL0     O30292   2.304   0.160   1.726 -0.3987 -0.1332 -0.1075
  988MOL0     C30293   2.192   0.074   1.709  0.4488 -0.2403 -1.1712
  988MOL0     C30294   2.067   0.152   1.759 -0.1953 -0.4127  0.2458
  988MOL0     C30295   1.935   0.075   1.720 -0.0767 -0.4874 -0.6815
  988MOL0     C30296   1.813   0.132   1.783 -0.1733  0.1894  0.4573
  988MOL0     C30297   1.686   0.107   1.695 -0.1471  0.3549  0.6226
  988MOL0     C30298   1.558   0.102   1.768  0.3641 -1.1776 -0.3634
  988MOL0     C30299   1.546  -0.022   1.865 -0.1919  0.5541 -0.2502
  988MOL0     C30300   1.417  -0.030   1.949 -0.7874 -0.0124 -0.1562
  988MOL0     N30301   1.297  -0.035   1.865  0.0403  1.1449 -0.3404
  988MOL0     C30302   1.273  -0.139   1.771  0.2792 -0.5447 -0.4440
  988MOL0     C30303   1.144  -0.098   1.724 -0.4004  0.1439  0.2567
  988MOL0     C30304   1.055  -0.194   1.654 -0.3321  0.9981 -0.6397
  988MOL0     C30305   0.985  -0.283   1.761 -0.3312  0.2280 -0.6655
  988MOL0     C30306   0.846  -0.320   1.709  0.6996 -0.4830  0.0440
  988MOL0     C30307   0.767  -0.407   1.810 -0.2463  0.4028 -0.8705
  988MOL0     O30308   0.630  -0.441   1.777  0.0549 -0.5018 -0.0621
  988MOL0     C30309   0.557  -0.509   1.880 -1.0395  0.4580 -0.1748
  988MOL0     C30310   0.618  -0.571   1.988  0.2072  0.4842  0.5003
  988MOL0     C30311   0.544  -0.647   2.078  0.4008  0.7444 -0.5501
  988MOL0     C30312   0.396  -0.657   2.068  0.2373  0.4140 -0.3843
  988MOL0     C30313   0.310  -0.717   2.167  0.5575  0.6387 -0.1949
  988MOL0     O30314   0.179  -0.718   2.159  0.2085  0.1045  0.0739
  988MOL0     C30315   0.106  -0.763   2.266  1.3487  0.4685 -0.3678
  988MOL0     C30316  -0.023  -0.795   2.222 -0.2673  0.9312 -0.2636
  988MOL0     C30317  -0.119  -0.840   2.304  0.2191 -0.4115 -0.4361
  988MOL0     C30318  -0.084  -0.869   2.433  0.4726 -0.3428 -0.1361
  988MOL0     O30319  -0.182  -0.901   2.521 -0.1755  0.2081 -0.2541
  988MOL0     C30320  -0.257  -1.012   2.481  0.4059  0.0477 -0.4006
  988MOL0     C30321  -0.308  -1.070   2.612  0.2071  0.0761 -0.5342
  988MOL0     C30322  -0.440  -1.151   2.598  1.0090  0.4006  0.0801
  988MOL0     C30323  -0.466  -1.229   2.727  0.7483  0.0029 -0.4185
  988MOL0     C30324  -0.614  -1.275   2.727 -0.1293  0.1858 -0.1663
  988MOL0     C30325  -0.644  -1.366   2.843 -0.4821 -0.2371 -0.6481
  988MOL0     C30326  -0.799  -1.396   2.848 -0.6618  0.3802 -0.0563
  988MOL0     C30327  -0.857  -1.417   2.985  0.5272  0.7671 -0.0025
  988MOL0    Cl30328  -0.779  -1.569   3.052  0.0554 -0.3479  0.1138
  988MOL0     C30329   0.046  -0.839   2.483  0.1327 -1.0688 -0.6338
  988MOL0     C30330   0.138  -0.784   2.402  0.2350 -0.0573 -0.3768
  988MOL0     O30331   0.372  -0.761   2.265  0.3357 -0.3187  0.6999
  988MOL0     C30332   0.341  -0.595   1.956  0.3539  0.7084 -0.3290
  988MOL0     C30333   0.421  -0.525   1.865  0.4794  0.5818  0.1268
  988MOL0     N30334   1.103   0.011   1.784  0.9316 -0.6414  0.2209
  988MOL0     N30335   1.199   0.057   1.848  0.7114 -0.4051 -0.0848
  988MOL0     C30336   2.542   0.179   1.740  0.0943  0.3919  0.4678
  988MOL0     C30337   2.670   0.129   1.700  0.9249  0.1441  0.3444
  988MOL0     C30338   3.055  -0.042   1.564 -0.1065 -0.0476 -0.6143
  988MOL0     C30339   3.171   0.044   1.563  0.3955  0.8340  0.0660
  988MOL0     C30340   3.278   0.028   1.478  0.5231 -0.1431 -0.1943
  988MOL0     C30341   3.279  -0.067   1.384  0.1193 -0.3272 -0.3122
  988MOL0     O30342   3.379  -0.088   1.291 -0.0179 -0.0753  0.6251
  988MOL0     C30343   3.504  -0.025   1.305  0.5032 -0.1172  0.1598
  988MOL0     C30344   3.502   0.115   1.241  0.1450  0.6974  0.2855
  988MOL0     C30345   3.591   0.204   1.326  0.5228 -0.1596  0.8328
  988MOL0     C30346   3.539   0.347   1.326  1.0423 -0.5990  0.3411
  988MOL0     C30347   3.626   0.442   1.390 -0.1084 -0.1718 -0.3136
  988MOL0     C30348   3.707   0.527   1.437  0.9938  0.6542 -0.9852
  988MOL0     C30349   3.175  -0.160   1.395  0.0747 -0.0512 -0.0381
  988MOL0     C30350   3.064  -0.149   1.474  0.7980 -0.2851 -0.4583
  988MOL0     H30351   2.598  -0.177   1.587  1.8811 -0.2197  1.0421
  988MOL0     H30352   2.361  -0.084   1.621 -1.1699  1.8429 -2.1770
  988MOL0     H30353   2.193  -0.016   1.772 -1.5193  0.2381 -0.3711
  988MOL0     H30354   2.186   0.053   1.602  0.4386 -0.4621 -1.1282
  988MOL0     H30355   2.062   0.250   1.712 -1.8938 -0.3506  0.4920
  988MOL0     H30356   2.077   0.179   1.865  1.6140  0.5144 -0.1140
  988MOL0     H30357   1.955  -0.028   1.753 -0.5199 -1.1620 -2.3958
  988MOL0     H30358   1.922   0.080   1.611 -0.9953 -0.4007 -0.5742
  988MOL0     H30359   1.800   0.103   1.888 -2.0734  0.5740  0.3743
  988MOL0     H30360   1.832   0.240   1.781  1.1280 -0.0407 -0.2684
  988MOL0     H30361   1.683   0.011   1.643 -0.0795  0.7414 -0.1150
  988MOL0     H30362   1.667   0.188   1.623  0.3132  0.8650  1.0638
  988MOL0     H30363   1.483   0.083   1.691  0.9537 -2.6142 -0.6023
  988MOL0     H30364   1.533   0.187   1.832  1.0051 -1.6371  0.5251
  988MOL0     H30365   1.560  -0.112   1.804  1.1710 -0.8348  1.9390
  988MOL0     H30366   1.631  -0.023   1.935 -0.5458  0.6787  0.1820
  988MOL0     H30367   1.408   0.054   2.018 -1.1663  1.5792 -2.0331
  988MOL0     H30368   1.423  -0.127   2.000 -0.9670  0.2276  0.3200
  988MOL0     H30369   1.326  -0.232   1.752 -1.0856 -1.8283  1.6693
  988MOL0     H30370   1.114  -0.254   1.584 -1.9365  0.3833 -1.5201
  988MOL0     H30371   0.989  -0.130   1.595  0.9725  2.3751 -0.6583
  988MOL0     H30372   0.996  -0.220   1.850  2.5369  0.0719 -0.8062
  988MOL0     H30373   1.042  -0.375   1.780 -1.0930 -0.1524 -0.1852
  988MOL0     H30374   0.799  -0.224   1.685 -1.3461 -2.0110 -2.6819
  988MOL0     H30375   0.847  -0.370   1.612  1.4829 -0.7509  0.1842
  988MOL0     H30376   0.764  -0.349   1.903  1.9667  1.7561 -1.5786
  988MOL0     H30377   0.827  -0.496   1.831 -1.9423 -0.3790  1.0522
  988MOL0     H30378   0.724  -0.567   2.011  0.3692  1.8344 -0.4195
  988MOL0     H30379   0.595  -0.702   2.157  0.3744 -0.7542 -1.5405
  988MOL0     H30380  -0.048  -0.781   2.117 -1.7388  1.3477  0.1172
  988MOL0     H30381  -0.220  -0.848   2.266 -0.5803 -3.0312  1.9256
  988MOL0     H30382  -0.203  -1.089   2.426  0.0040  1.8793 -3.5829
  988MOL0     H30383  -0.339  -0.976   2.418 -0.4515 -1.5654 -0.2526
  988MOL0     H30384  -0.330  -0.987   2.680  1.3651 -1.5472  1.9472
  988MOL0     H30385  -0.234  -1.129   2.667 -0.7256  1.9028  2.9541
  988MOL0     H30386  -0.437  -1.217   2.511 -2.1796  0.6532 -0.3134
  988MOL0     H30387  -0.525  -1.083   2.591 -0.6463 -1.5677  0.4427
  988MOL0     H30388  -0.408  -1.322   2.732  0.9421  0.1618  0.4268
  988MOL0     H30389  -0.442  -1.155   2.804  0.5392  0.0129 -0.3621
  988MOL0     H30390  -0.638  -1.323   2.632  0.9433  0.5751 -0.6482
  988MOL0     H30391  -0.679  -1.186   2.728  2.1607  1.9517 -0.6388
  988MOL0     H30392  -0.611  -1.318   2.936 -1.5331  2.2506 -1.4677
  988MOL0     H30393  -0.589  -1.459   2.825  1.8459  0.7232  1.0144
  988MOL0     H30394  -0.853  -1.308   2.812 -1.0605  0.4518  0.6989
  988MOL0     H30395  -0.811  -1.470   2.768  0.4976  0.9198 -0.7549
  988MOL0     H30396  -0.963  -1.438   2.995  0.1966  2.0392 -0.6312
  988MOL0     H30397  -0.832  -1.329   3.046  1.2732  2.1818 -2.2107
  988MOL0     H30398   0.077  -0.844   2.587  0.3157  1.5059 -0.5022
  988MOL0     H30399   0.234  -0.752   2.441  0.8778 -0.2609 -1.7321
  988MOL0     H30400   0.234  -0.601   1.943  0.1751 -1.1720  1.4219
  988MOL0     H30401   0.361  -0.489   1.783 -1.9255 -0.1175  1.4817
  988MOL0     H30402   2.534   0.285   1.761  0.0663  0.5025 -0.0911
  988MOL0     H30403   2.754   0.197   1.715  0.6130  1.0245 -1.5610
  988MOL0     H30404   3.180   0.124   1.636  1.9795  0.2880  0.5087
  988MOL0     H30405   3.357   0.102   1.474  0.5814 -0.2606 -1.7640
  988MOL0     H30406   3.580  -0.089   1.259 -1.3459  0.3920 -4.0974
  988MOL0     H30407   3.520  -0.017   1.413 -0.6877  1.5166  0.2474
  988MOL0     H30408   3.530   0.101   1.136  1.9589  1.1516  0.6724
  988MOL0     H30409   3.402   0.158   1.248 -0.9600 -1.7171  0.1206
  988MOL0     H30410   3.686   0.197   1.272  0.4266 -0.3902  0.6918
  988MOL0     H30411   3.597   0.163   1.427 -0.8687  0.1033  1.0445
  988MOL0     H30412   3.530   0.375   1.220 -0.2540  0.0053  0.5927
  988MOL0     H30413   3.436   0.352   1.362  1.4968  0.2169  1.6078
  988MOL0     H30414   3.783   0.602   1.448  0.0729  1.9130 -2.6110
  988MOL0     H30415   3.184  -0.251   1.336 -0.3324 -1.2385  1.6584
  988MOL0     H30416   2.971  -0.203   1.487  0.7678 -0.0143  0.4675
  989MOL0     O30417  11.035   5.875  11.020  0.1501 -0.0103  0.1290
  989MOL0     C30418  11.104   5.804  10.947  0.3031 -0.2588  0.6875
  989MOL0     O30419  11.069   5.773  10.818  0.1041 -0.0813 -0.1072
  989MOL0     C30420  10.944   5.811  10.764 -0.2458  0.7104  0.0202
  989MOL0     C30421  10.935   5.934  10.696  0.3923  0.1235  0.1731
  989MOL0     C30422  10.820   5.974  10.640 -0.4247 -0.3895  0.6292
  989MOL0     C30423  10.716   5.888  10.647 -0.0170  0.8368  0.3642
  989MOL0     O30424  10.600   5.930  10.587  0.2633  0.6859 -0.3520
  989MOL0     C30425  10.503   6.011  10.662  0.1203 -0.2342  0.7278
  989MOL0     C30426  10.383   5.919  10.702 -0.0287 -0.1546  0.2339
  989MOL0     C30427  10.278   5.998  10.784 -0.3209 -0.5318 -0.4077
  989MOL0     C30428  10.165   5.906  10.827  0.9658  0.1048  0.7093
  989MOL0     C30429  10.080   5.985  10.933  1.1093 -0.6684 -0.1238
  989MOL0     C30430   9.940   5.927  10.924  0.4995  0.0176 -0.5287
  989MOL0     C30431   9.860   5.982  11.043  0.8331 -0.3143 -0.5651
  989MOL0     C30432   9.725   5.933  11.049  0.7689  0.7469 -0.6904
  989MOL0     N30433   9.644   5.996  11.154 -0.2257 -0.3215 -0.8511
  989MOL0     C30434   9.516   5.969  11.163 -0.1488 -0.2493  0.8079
  989MOL0     C30435   9.483   6.029  11.285 -0.3838  0.5976  0.7915
  989MOL0     C30436   9.352   6.016  11.365  0.2296  0.4754 -0.4486
  989MOL0     C30437   9.271   6.153  11.361 -0.6019  0.2139 -1.0395
  989MOL0     C30438   9.257   6.222  11.220 -0.4107 -0.5838  0.6982
  989MOL0     C30439   9.170   6.347  11.229 -0.0360  0.0063 -0.6821
  989MOL0     O30440   9.038   6.311  11.262 -0.2918  0.1363  0.1379
  989MOL0     C30441   8.932   6.368  11.189  0.5265 -0.3991 -0.2758
  989MOL0     C30442   8.941   6.469  11.098  1.5526 -0.4923 -0.3748
  989MOL0     C30443   8.832   6.519  11.023  0.8873  0.3155 -0.1651
  989MOL0     C30444   8.704   6.462  11.032 -0.8593  0.2374 -0.1285
  989MOL0     C30445   8.603   6.492  10.935  0.9874  0.9081  0.2240
  989MOL0     O30446   8.472   6.453  10.962 -0.5303 -0.2314 -1.2444
  989MOL0     C30447   8.362   6.504  10.903 -0.4631  0.3555 -0.3689
  989MOL0     C30448   8.353   6.552  10.772 -0.2120 -0.1878  0.2403
  989MOL0     C30449   8.233   6.608  10.720  0.1955  0.0654  0.8608
  989MOL0     C30450   8.119   6.611  10.802  1.2726  0.2000 -0.2943
  989MOL0     O30451   8.009   6.685  10.754  0.0146 -0.5623 -0.2032
  989MOL0     C30452   8.008   6.822  10.804  0.2850  0.2997 -0.1277
  989MOL0     C30453   7.922   6.906  10.701  0.2833 -0.2875  0.0998
  989MOL0     C30454   7.953   7.054  10.715 -0.0347  0.8037  0.8812
  989MOL0     C30455   7.928   7.101  10.856  0.4595  0.1069 -0.7278
  989MOL0     C30456   7.787   7.055  10.917 -1.0211  0.1441 -0.7861
  989MOL0     C30457   7.744   7.148  11.032  0.5469 -0.7559  0.9005
  989MOL0     C30458   7.617   7.096  11.100 -0.6837 -0.1565  0.6415
  989MOL0     C30459   7.584   7.190  11.220  0.6403  0.8214 -0.4219
  989MOL0    Cl30460   7.709   7.160  11.357 -0.1846 -0.1985 -0.0905
  989MOL0     C30461   8.125   6.566  10.937 -0.0649  0.2827 -0.4889
  989MOL0     C30462   8.247   6.512  10.983 -0.1689  0.4101  1.0769
  989MOL0     O30463   8.634   6.570  10.842  0.2837 -0.0685  0.3321
  989MOL0     C30464   8.689   6.355  11.118  0.0666  0.0821 -0.2541
  989MOL0     C30465   8.803   6.303  11.198 -0.0358  0.4092  0.0343
  989MOL0     N30466   9.602   6.073  11.353 -0.2322 -0.2113  0.8293
  989MOL0     N30467   9.697   6.051  11.272 -0.4745  0.6165 -0.2563
  989MOL0     C30468  10.722   5.759  10.695 -0.0538 -0.7921 -0.2429
  989MOL0     C30469  10.839   5.722  10.761  0.3543 -0.3006 -0.7080
  989MOL0     C30470  11.229   5.759  11.010  0.5422  0.8469  0.4466
  989MOL0     C30471  11.306   5.661  10.938 -0.7262  0.7146 -0.0064
  989MOL0     C30472  11.431   5.631  10.984 -1.1925  0.4587  0.7708
  989MOL0     C30473  11.480   5.683  11.108  0.1350 -0.2693  0.2706
  989MOL0     O30474  11.602   5.635  11.157  0.5865  0.2048  0.0037
  989MOL0     C30475  11.650   5.679  11.286 -0.0055 -0.1297 -0.4529
  989MOL0     C30476  11.717   5.825  11.281  0.9040  0.0524 -0.2434
  989MOL0     C30477  11.812   5.861  11.397 -0.2502  0.4785 -0.2094
  989MOL0     C30478  11.939   5.769  11.401  0.3635 -0.8012  0.3497
  989MOL0     C30479  12.032   5.821  11.505 -0.2401 -1.1680 -0.2897
  989MOL0     C30480  12.110   5.852  11.591  0.7873 -0.3653  0.1487
  989MOL0     C30481  11.403   5.782  11.173  0.0209  0.3379  0.0021
  989MOL0     C30482  11.285   5.818  11.126  0.0713  0.0327 -0.1369
  989MOL0     H30483  11.027   5.990  10.682 -0.1581  0.4888 -2.6599
  989MOL0     H30484  10.815   6.066  10.584  1.1267 -0.9271 -0.4620
  989MOL0     H30485  10.462   6.096  10.606 -0.2743 -1.0657 -0.2660
  989MOL0     H30486  10.547   6.043  10.757 -0.1642 -0.7103  1.0245
  989MOL0     H30487  10.428   5.841  10.764 -0.0090 -0.0806  0.3114
  989MOL0     H30488  10.347   5.875  10.608  2.3683 -1.8156  0.0086
  989MOL0     H30489  10.237   6.071  10.714  3.6850  0.4801 -1.9231
  989MOL0     H30490  10.321   6.048  10.871 -1.3516  2.6860 -1.6352
  989MOL0     H30491  10.107   5.890  10.736 -2.7349 -1.9386  3.1291
  989MOL0     H30492  10.199   5.810  10.869  0.9417 -1.6964 -2.9600
  989MOL0     H30493  10.073   6.092  10.913 -2.6699 -0.1961  2.6365
  989MOL0     H30494  10.125   5.973  11.032  1.4543  1.3468  0.0017
  989MOL0     H30495   9.944   5.817  10.928  1.7469  0.0860  1.7811
  989MOL0     H30496   9.892   5.961  10.832 -2.2231 -0.0459  0.7548
  989MOL0     H30497   9.909   5.948  11.134 -1.9286  2.4159  2.1749
  989MOL0     H30498   9.850   6.091  11.050  0.2566 -0.4612  1.3456
  989MOL0     H30499   9.721   5.824  11.049  1.6205  0.7075 -0.2158
  989MOL0     H30500   9.687   5.961  10.950  0.9615 -2.3037 -1.7047
  989MOL0     H30501   9.454   5.928  11.083  1.6998 -1.5906 -0.0178
  989MOL0     H30502   9.392   5.990  11.463  3.2617  1.0289 -1.4316
  989MOL0     H30503   9.292   5.934  11.325  2.8111 -1.9341  0.3068
  989MOL0     H30504   9.322   6.220  11.432 -1.0574 -2.1607  1.7296
  989MOL0     H30505   9.176   6.136  11.413  0.3928 -1.7019  0.3069
  989MOL0     H30506   9.356   6.239  11.177 -0.1203 -2.4255  0.5387
  989MOL0     H30507   9.212   6.158  11.144 -0.1620 -0.8946  0.8096
  989MOL0     H30508   9.177   6.393  11.129 -1.0225  1.2902 -0.1950
  989MOL0     H30509   9.218   6.407  11.307  1.0665 -1.1378 -0.4494
  989MOL0     H30510   9.037   6.509  11.065  0.4874  1.4417 -1.3516
  989MOL0     H30511   8.854   6.595  10.948 -2.1448 -0.6179 -2.1881
  989MOL0     H30512   8.436   6.542  10.704 -1.3558 -0.3129 -1.1690
  989MOL0     H30513   8.248   6.656  10.624  2.9445 -0.4119  0.9788
  989MOL0     H30514   8.113   6.854  10.813  0.1872  0.6246 -0.1449
  989MOL0     H30515   7.964   6.829  10.904  0.6211  0.2787  0.0262
  989MOL0     H30516   7.820   6.882  10.730  0.7078 -1.1718  0.9376
  989MOL0     H30517   7.931   6.871  10.598  0.6394  1.1727 -0.3964
  989MOL0     H30518   7.885   7.109  10.650  0.2721 -0.1012 -0.2561
  989MOL0     H30519   8.054   7.074  10.678 -0.4897  0.6544 -0.5014
  989MOL0     H30520   8.011   7.073  10.921  0.0258 -2.6566 -1.2078
  989MOL0     H30521   7.911   7.208  10.846 -2.2243 -0.3791 -2.7500
  989MOL0     H30522   7.785   6.950  10.947 -3.5294  0.4919  0.5552
  989MOL0     H30523   7.712   7.056  10.837 -2.5757 -1.1547  0.5645
  989MOL0     H30524   7.716   7.244  10.988  3.0165 -0.3380  0.0626
  989MOL0     H30525   7.832   7.145  11.097  1.5260 -3.1046 -0.3929
  989MOL0     H30526   7.533   7.082  11.030 -0.9256 -3.2839  1.4139
  989MOL0     H30527   7.637   7.000  11.147 -0.9992  1.2636  3.9596
  989MOL0     H30528   7.482   7.174  11.255  2.1216 -0.6088  3.9209
  989MOL0     H30529   7.601   7.293  11.187  1.7323  0.6341 -0.4855
  989MOL0     H30530   8.044   6.570  11.008  3.1260 -0.8451  3.6025
  989MOL0     H30531   8.246   6.473  11.085  0.8503 -3.6612 -0.2803
  989MOL0     H30532   8.592   6.306  11.117  1.2207 -2.3493 -0.7230
  989MOL0     H30533   8.790   6.211  11.255 -3.0626 -1.0446 -2.6068
  989MOL0     H30534  10.632   5.704  10.720 -0.6223  1.3175  2.7607
  989MOL0     H30535  10.872   5.629  10.806  2.6366  0.3552 -0.8811
  989MOL0     H30536  11.268   5.605  10.854 -1.9028 -1.6389  1.9523
  989MOL0     H30537  11.499   5.572  10.925 -2.8270  1.4264 -2.3331
  989MOL0     H30538  11.724   5.610  11.327 -0.5755 -0.8175 -0.5815
  989MOL0     H30539  11.576   5.667  11.366 -0.3199  1.1800 -0.5175
  989MOL0     H30540  11.780   5.827  11.191  0.6454  0.8576 -0.4184
  989MOL0     H30541  11.644   5.905  11.264  0.8495  0.1021  0.2188
  989MOL0     H30542  11.763   5.856  11.495 -0.7440  2.5103 -0.3047
  989MOL0     H30543  11.839   5.965  11.379  1.7772 -0.0872 -0.6389
  989MOL0     H30544  11.908   5.667  11.426 -2.0050 -0.6125 -1.4404
  989MOL0     H30545  11.993   5.761  11.306  3.4401  2.0228  1.6932
  989MOL0     H30546  12.188   5.865  11.664  1.1893 -1.7478 -0.0131
  989MOL0     H30547  11.446   5.830  11.260  2.7157  0.5366 -1.3249
  989MOL0     H30548  11.221   5.894  11.170  1.1436  1.7368 -1.3802
  990MOL0     O30549   1.213  10.702   1.957  0.0543  0.0333  0.2765
  990MOL0     C30550   1.300  10.710   2.043 -0.5875 -0.3018  1.2921
  990MOL0     O30551   1.298  10.667   2.168 -0.2389  0.3684 -0.7011
  990MOL0     C30552   1.181  10.623   2.208 -0.3402 -1.1853 -0.3915
  990MOL0     C30553   1.169  10.493   2.262 -0.2059  0.3867 -0.4926
  990MOL0     C30554   1.043  10.460   2.323  0.0357 -0.8902  1.3969
  990MOL0     C30555   0.930  10.553   2.325  0.7406  0.0990  0.8213
  990MOL0     O30556   0.811  10.533   2.389 -0.2988 -0.0766 -0.1888
  990MOL0     C30557   0.798  10.405   2.453  0.2809 -0.3643 -0.0739
  990MOL0     C30558   0.660  10.397   2.520  0.4329 -0.4687 -0.4468
  990MOL0     C30559   0.633  10.259   2.587  0.5413 -0.1713 -0.0075
  990MOL0     C30560   0.488  10.243   2.627  0.5094  0.6763  0.1734
  990MOL0     C30561   0.467  10.096   2.670  0.0759  0.1849  0.2600
  990MOL0     C30562   0.319  10.074   2.695 -0.0680  0.2774  0.0807
  990MOL0     C30563   0.275   9.930   2.721  0.3527 -0.5298 -0.6217
  990MOL0     C30564   0.323   9.863   2.852  0.2056 -0.2836  0.1883
  990MOL0     N30565   0.272   9.935   2.973  0.5755 -0.5895  0.6482
  990MOL0     C30566   0.350   9.994   3.068 -0.3026 -0.6020  0.3891
  990MOL0     C30567   0.263  10.063   3.153  0.0104 -0.1446  0.6259
  990MOL0     C30568   0.305  10.129   3.280  0.3666 -0.8926  0.0772
  990MOL0     C30569   0.279  10.058   3.408  0.5613 -0.8137  0.5049
  990MOL0     C30570   0.148   9.982   3.401  0.3266 -0.4402 -0.6444
  990MOL0     C30571   0.104   9.913   3.527  0.2353  0.7610  0.7539
  990MOL0     O30572  -0.022   9.857   3.507 -0.3630 -0.0474  0.1383
  990MOL0     C30573  -0.044   9.727   3.468 -0.2890  0.1173 -0.3157
  990MOL0     C30574  -0.168   9.689   3.434  0.1548 -0.3494  0.9720
  990MOL0     C30575  -0.202   9.562   3.390  0.1876 -0.3671 -0.8257
  990MOL0     C30576  -0.103   9.455   3.398  0.0096 -0.9628  0.5418
  990MOL0     C30577  -0.139   9.322   3.381 -0.6785  0.0876  0.6561
  990MOL0     O30578  -0.051   9.244   3.304  0.4575  0.6871  0.6357
  990MOL0     C30579  -0.084   9.116   3.286  0.8777  0.0485 -1.0402
  990MOL0     C30580  -0.089   9.069   3.158  0.6746  0.2217  0.4848
  990MOL0     C30581  -0.122   8.938   3.124  1.2487 -0.2320 -0.4718
  990MOL0     C30582  -0.147   8.846   3.226 -0.3327  0.2651 -0.1627
  990MOL0     O30583  -0.166   8.708   3.215 -0.0967 -0.2903  0.1324
  990MOL0     C30584  -0.148   8.656   3.085 -0.5911 -0.2422 -0.7216
  990MOL0     C30585   0.003   8.641   3.047  0.2488 -0.6744 -0.0504
  990MOL0     C30586   0.092   8.575   3.144  0.1001  0.2410 -0.5451
  990MOL0     C30587   0.238   8.599   3.114  0.7732  0.5528 -0.2889
  990MOL0     C30588   0.327   8.520   3.209  0.3354  0.4450 -0.2368
  990MOL0     C30589   0.463   8.512   3.154  0.4142  0.2287 -0.5483
  990MOL0     C30590   0.540   8.640   3.183  0.5745  0.1652 -0.6557
  990MOL0     C30591   0.694   8.641   3.168  1.0866 -0.4997 -0.2951
  990MOL0    Cl30592   0.775   8.539   3.289  0.2356 -0.2440  0.3093
  990MOL0     C30593  -0.127   8.894   3.350  0.1978  0.0597 -0.6253
  990MOL0     C30594  -0.098   9.024   3.393  0.9447 -0.5385  0.8702
  990MOL0     O30595  -0.248   9.286   3.435 -0.7318  0.2161  0.2049
  990MOL0     C30596   0.026   9.498   3.414 -0.7910  0.7286 -0.2758
  990MOL0     C30597   0.058   9.623   3.456 -0.4076  0.0637 -0.6741
  990MOL0     N30598   0.132  10.035   3.097 -0.7743  0.4991 -0.5403
  990MOL0     N30599   0.144   9.957   2.996  0.8557 -0.4293  0.0372
  990MOL0     C30600   0.941  10.675   2.257  0.5170  0.0769  0.3110
  990MOL0     C30601   1.067  10.711   2.195 -0.1307  0.2765 -0.4781
  990MOL0     C30602   1.425  10.767   1.984 -0.5092 -0.5649  0.9282
  990MOL0     C30603   1.449  10.785   1.846 -0.4731  0.0069 -0.5691
  990MOL0     C30604   1.575  10.817   1.798 -0.7673 -0.8869  0.2458
  990MOL0     C30605   1.682  10.839   1.881 -0.3638  0.2762 -0.6115
  990MOL0     O30606   1.803  10.875   1.828  0.4962  0.1876 -0.1416
  990MOL0     C30607   1.927  10.884   1.908 -0.2743  0.4952 -0.2864
  990MOL0     C30608   2.037  10.831   1.826 -0.1073 -0.1360  0.0108
  990MOL0     C30609   2.019  10.679   1.786 -0.0235 -0.4387 -0.1359
  990MOL0     C30610   2.001  10.574   1.893 -0.2266 -0.4786  0.2130
  990MOL0     C30611   2.080  10.593   2.008 -0.5118  0.4545  0.5505
  990MOL0     C30612   2.154  10.625   2.094 -0.1530 -0.4873  0.0056
  990MOL0     C30613   1.664  10.810   2.018  0.6851  0.0370 -0.1269
  990MOL0     C30614   1.538  10.778   2.074 -0.4482 -0.3863  0.1916
  990MOL0     H30615   1.242  10.413   2.272 -1.0066 -0.3121 -0.0875
  990MOL0     H30616   1.028  10.361   2.363 -2.5195  0.4874  4.3138
  990MOL0     H30617   0.881  10.396   2.523  0.1296  0.3308  0.1983
  990MOL0     H30618   0.801  10.320   2.384 -0.1875 -1.3922  1.1224
  990MOL0     H30619   0.578  10.414   2.450  0.2993 -0.3511 -0.2632
  990MOL0     H30620   0.653  10.476   2.596 -0.2641 -0.8657 -0.0845
  990MOL0     H30621   0.704  10.235   2.667  0.4471 -2.7045 -0.6172
  990MOL0     H30622   0.653  10.180   2.514 -2.0733 -2.2537  1.3689
  990MOL0     H30623   0.460  10.309   2.709  1.1347  2.4414 -0.9808
  990MOL0     H30624   0.425  10.266   2.540  2.6478  1.3575 -1.2905
  990MOL0     H30625   0.523  10.084   2.764 -1.0748 -0.2863  0.9095
  990MOL0     H30626   0.512  10.033   2.593 -0.9740 -1.7628  1.1648
  990MOL0     H30627   0.259  10.109   2.611 -0.8629  3.5106  1.8173
  990MOL0     H30628   0.294  10.134   2.783 -1.3485 -4.5493  3.3729
  990MOL0     H30629   0.165   9.929   2.721  0.2594  0.1506 -3.5035
  990MOL0     H30630   0.306   9.869   2.636 -0.1187  2.3193 -3.0066
  990MOL0     H30631   0.431   9.854   2.836 -0.1583  0.4696 -3.8132
  990MOL0     H30632   0.285   9.761   2.853  0.1893 -0.3420 -1.7705
  990MOL0     H30633   0.457   9.975   3.080 -0.2781 -1.7720 -1.3731
  990MOL0     H30634   0.247  10.222   3.275 -1.2687 -1.9130 -1.1548
  990MOL0     H30635   0.403  10.177   3.284 -0.3053  0.4117  2.8311
  990MOL0     H30636   0.269  10.145   3.474  1.2572 -1.9097  2.1348
  990MOL0     H30637   0.363   9.994   3.439  2.4733 -0.4352 -3.3078
  990MOL0     H30638   0.070  10.055   3.379 -0.0535 -1.3176 -2.3994
  990MOL0     H30639   0.148   9.909   3.320  0.9223 -0.7837 -0.3443
  990MOL0     H30640   0.110   9.986   3.608 -1.5933  0.0102  1.6145
  990MOL0     H30641   0.174   9.841   3.569  0.2697  0.8226  0.8019
  990MOL0     H30642  -0.249   9.762   3.433 -2.3619 -2.9876 -0.1486
  990MOL0     H30643  -0.308   9.554   3.369  0.5738 -0.6850 -2.7925
  990MOL0     H30644  -0.067   9.144   3.082  0.3385  1.6387  1.7557
  990MOL0     H30645  -0.116   8.915   3.018  2.6298 -1.2675 -0.1996
  990MOL0     H30646  -0.204   8.703   3.004  0.3030 -0.4969 -1.5027
  990MOL0     H30647  -0.197   8.558   3.089 -2.3045  0.5996  2.2556
  990MOL0     H30648   0.045   8.742   3.040  2.3381 -1.5710 -1.9676
  990MOL0     H30649   0.013   8.589   2.951 -4.0493  1.7589 -2.0989
  990MOL0     H30650   0.070   8.468   3.142 -0.6994  0.3469  0.7905
  990MOL0     H30651   0.062   8.622   3.239  0.5215 -0.6549  0.0402
  990MOL0     H30652   0.249   8.568   3.009 -0.5528 -2.5378  0.3921
  990MOL0     H30653   0.252   8.707   3.126  0.1380  0.6166 -0.0739
  990MOL0     H30654   0.276   8.424   3.199  1.6799 -0.4228  0.8597
  990MOL0     H30655   0.321   8.557   3.312 -1.5244  0.7073 -0.3942
  990MOL0     H30656   0.456   8.501   3.045  0.1725  0.7208 -0.5852
  990MOL0     H30657   0.517   8.436   3.210 -1.3927 -2.1152 -1.8342
  990MOL0     H30658   0.495   8.720   3.123 -0.5089 -0.1851 -0.3330
  990MOL0     H30659   0.529   8.662   3.289  0.9790  2.4320 -1.0386
  990MOL0     H30660   0.730   8.743   3.188  1.0733 -0.9113  2.1498
  990MOL0     H30661   0.725   8.608   3.069  0.3392 -1.4466 -0.2263
  990MOL0     H30662  -0.124   8.831   3.439  0.0510  1.4209  0.3648
  990MOL0     H30663  -0.094   9.049   3.498 -0.6528 -0.1674  0.8726
  990MOL0     H30664   0.104   9.422   3.405 -2.9874 -1.6401 -0.5279
  990MOL0     H30665   0.160   9.646   3.487 -0.9853  0.2329  1.1976
  990MOL0     H30666   0.856  10.741   2.262 -1.5320 -2.3676 -0.2366
  990MOL0     H30667   1.068  10.800   2.133  0.4086  0.3022 -0.4414
  990MOL0     H30668   1.369  10.768   1.775  0.1555 -5.4280 -0.3733
  990MOL0     H30669   1.598  10.827   1.692  0.2289 -0.5230  0.4898
  990MOL0     H30670   1.922  10.815   1.992  0.1227  0.9227  0.0912
  990MOL0     H30671   1.956  10.987   1.931  0.7684  0.3626 -0.9425
  990MOL0     H30672   2.038  10.885   1.730 -1.1557 -1.2048 -0.6340
  990MOL0     H30673   2.130  10.840   1.883 -0.2851 -1.0589  0.4680
  990MOL0     H30674   2.095  10.645   1.715  0.1908 -0.9666  0.3397
  990MOL0     H30675   1.937  10.678   1.713  0.2849  2.0256 -0.6175
  990MOL0     H30676   1.900  10.579   1.933  0.1900  3.3291  1.2328
  990MOL0     H30677   2.032  10.482   1.843  1.3561  0.0425  0.1718
  990MOL0     H30678   2.197  10.661   2.185 -1.7129  0.1629  0.5180
  990MOL0     H30679   1.744  10.799   2.091  1.3799 -1.4118 -1.0694
  990MOL0     H30680   1.536  10.767   2.182 -0.5444  0.5639  0.2966
  991MOL0     O30681   4.656   1.926   8.656 -0.5434 -0.5557 -0.2132
  991MOL0     C30682   4.750   1.869   8.709 -0.4268 -0.4029  0.4586
  991MOL0     O30683   4.765   1.735   8.720 -0.6668  0.4041 -0.0277
  991MOL0     C30684   4.665   1.644   8.699 -0.8891 -0.2737 -0.2680
  991MOL0     C30685   4.705   1.516   8.712 -1.1791 -0.0711 -0.0206
  991MOL0     C30686   4.621   1.414   8.704 -0.0422  0.4603  0.2228
  991MOL0     C30687   4.488   1.433   8.684  0.6037 -0.4616 -0.1113
  991MOL0     O30688   4.414   1.324   8.673  0.7083  0.0626 -0.1957
  991MOL0     C30689   4.274   1.338   8.650  0.0339 -0.5737 -0.0458
  991MOL0     C30690   4.215   1.197   8.630  0.7807  0.6601 -0.1234
  991MOL0     C30691   4.063   1.186   8.666 -0.6961  0.8202  0.0342
  991MOL0     C30692   3.989   1.081   8.568 -0.8279 -0.4935 -0.2686
  991MOL0     C30693   3.862   1.031   8.640 -0.6680 -1.1474 -0.6612
  991MOL0     C30694   3.773   0.952   8.541  0.0434 -0.1594 -0.6857
  991MOL0     C30695   3.658   0.882   8.608  0.6281 -0.0545 -0.0400
  991MOL0     C30696   3.549   0.840   8.512  0.1120  0.5795 -0.0944
  991MOL0     N30697   3.442   0.786   8.588  0.0721  0.5994  0.7461
  991MOL0     C30698   3.416   0.659   8.636 -0.2321  0.5436  0.6446
  991MOL0     C30699   3.302   0.668   8.705  0.0376  0.6166  0.0703
  991MOL0     C30700   3.230   0.555   8.768 -0.0172  0.2918  0.2885
  991MOL0     C30701   3.099   0.581   8.837  0.6901  0.4144 -0.0369
  991MOL0     C30702   2.999   0.471   8.824  0.3288  0.4037  0.2665
  991MOL0     C30703   2.854   0.521   8.807  0.1301 -0.8182  0.1851
  991MOL0     O30704   2.778   0.415   8.751  0.0576  0.3074  0.0422
  991MOL0     C30705   2.645   0.431   8.714  0.2308 -0.3540  0.2264
  991MOL0     C30706   2.580   0.561   8.706  0.1481  0.6819  0.2205
  991MOL0     C30707   2.447   0.571   8.698  0.1845 -0.3005 -0.0754
  991MOL0     C30708   2.369   0.453   8.665  0.5206 -0.0649 -0.0468
  991MOL0     C30709   2.221   0.468   8.658 -0.0305 -0.1887  0.6539
  991MOL0     O30710   2.140   0.359   8.640 -0.2626  0.8333 -0.0919
  991MOL0     C30711   2.008   0.381   8.666  0.2014  0.1798  0.5626
  991MOL0     C30712   1.918   0.438   8.567 -1.0062  0.7781  0.0414
  991MOL0     C30713   1.786   0.457   8.597  0.6135 -0.2824 -0.5651
  991MOL0     C30714   1.737   0.410   8.723  0.4182 -0.6762  0.7844
  991MOL0     O30715   1.598   0.416   8.734 -0.1263  0.2871  0.5139
  991MOL0     C30716   1.548   0.432   8.861 -0.6587 -0.3756 -0.0378
  991MOL0     C30717   1.397   0.463   8.836  0.9243 -0.1732 -0.6515
  991MOL0     C30718   1.375   0.586   8.747 -0.3601 -0.6011 -0.3491
  991MOL0     C30719   1.230   0.634   8.744  0.7324 -0.5908  0.2428
  991MOL0     C30720   1.213   0.737   8.628  0.1149 -0.5813 -0.4841
  991MOL0     C30721   1.249   0.685   8.493  0.0195 -0.1761  1.0756
  991MOL0     C30722   1.155   0.750   8.392 -0.3449 -0.5331  0.1852
  991MOL0     C30723   1.198   0.699   8.254 -0.4778  0.4787 -0.2797
  991MOL0    Cl30724   1.085   0.752   8.122  0.1193  0.2048 -0.2823
  991MOL0     C30725   1.826   0.350   8.811 -0.1494  1.0519 -0.1174
  991MOL0     C30726   1.960   0.338   8.787 -0.5967  0.6357  0.9109
  991MOL0     O30727   2.181   0.583   8.671  0.3410  0.0640  0.4874
  991MOL0     C30728   2.431   0.333   8.646 -0.3308  0.5172  1.0868
  991MOL0     C30729   2.571   0.318   8.674 -0.4081  0.4301 -0.7164
  991MOL0     N30730   3.265   0.799   8.704 -0.0388 -0.1819 -0.1648
  991MOL0     N30731   3.349   0.872   8.631 -0.3658  0.1394  0.3905
  991MOL0     C30732   4.433   1.563   8.688 -0.6472  0.6098 -0.0159
  991MOL0     C30733   4.525   1.668   8.692 -0.3735  0.0406  0.6832
  991MOL0     C30734   4.875   1.953   8.739  0.3740 -0.3675  1.1023
  991MOL0     C30735   5.005   1.903   8.716  0.1109 -0.1644 -0.1511
  991MOL0     C30736   5.113   1.991   8.693  0.4353 -0.3079 -0.4357
  991MOL0     C30737   5.104   2.130   8.714 -0.1668  0.2459 -0.4033
  991MOL0     O30738   5.223   2.197   8.699  0.1655 -0.1335 -0.2724
  991MOL0     C30739   5.212   2.338   8.690 -0.5735 -0.7159  0.6203
  991MOL0     C30740   5.343   2.399   8.632  0.6780  0.3529  0.4189
  991MOL0     C30741   5.449   2.391   8.738 -0.2160  0.0675  0.9446
  991MOL0     C30742   5.539   2.264   8.728  0.1539  0.8891  0.5345
  991MOL0     C30743   5.641   2.288   8.630  0.6203  1.1708  0.7106
  991MOL0     C30744   5.737   2.295   8.559  0.0039  0.6212 -0.1142
  991MOL0     C30745   4.973   2.177   8.751  0.0995 -0.0011 -0.2882
  991MOL0     C30746   4.863   2.096   8.756  0.1839 -0.4235 -0.1404
  991MOL0     H30747   4.810   1.496   8.727 -1.2170  1.4294  2.9921
  991MOL0     H30748   4.651   1.310   8.714 -0.7666  0.2441  0.2742
  991MOL0     H30749   4.256   1.398   8.560  0.9003  0.1408  0.2442
  991MOL0     H30750   4.220   1.381   8.735 -0.4793  0.1794 -0.7372
  991MOL0     H30751   4.276   1.143   8.703  2.8479  2.7179 -0.2327
  991MOL0     H30752   4.229   1.177   8.524 -1.5947  2.6891 -0.9295
  991MOL0     H30753   4.016   1.281   8.640 -2.5589 -0.4914 -1.8069
  991MOL0     H30754   4.036   1.162   8.769  1.5206  0.4040  0.5600
  991MOL0     H30755   3.959   1.136   8.479  2.9010  0.5046 -1.0981
  991MOL0     H30756   4.057   1.004   8.530  1.2929  1.0068  0.2527
  991MOL0     H30757   3.805   1.110   8.690 -1.5386 -1.7108 -0.7470
  991MOL0     H30758   3.884   0.963   8.723 -0.5126  2.0337  2.1334
  991MOL0     H30759   3.840   0.881   8.492 -2.1879 -1.6399 -1.7408
  991MOL0     H30760   3.737   1.019   8.462 -0.6090  1.1820  0.7000
  991MOL0     H30761   3.699   0.805   8.674 -0.8806 -1.2091 -0.3881
  991MOL0     H30762   3.617   0.958   8.675 -3.1964 -2.2157  0.3355
  991MOL0     H30763   3.580   0.756   8.449 -1.2728 -0.8471  1.0145
  991MOL0     H30764   3.515   0.919   8.445  0.3104  0.5390 -0.2417
  991MOL0     H30765   3.467   0.564   8.622 -0.7693 -0.0380  2.3564
  991MOL0     H30766   3.288   0.519   8.853  2.1195  1.5752 -0.5395
  991MOL0     H30767   3.227   0.466   8.704  1.2807 -0.4842  1.2611
  991MOL0     H30768   3.063   0.673   8.790  1.1360  0.4467 -0.3201
  991MOL0     H30769   3.118   0.598   8.943  0.2403  0.2782  0.0710
  991MOL0     H30770   3.026   0.418   8.732  0.5710  2.8381 -1.1628
  991MOL0     H30771   3.003   0.401   8.908 -0.5874 -1.7786 -1.4233
  991MOL0     H30772   2.854   0.604   8.736 -3.0789 -1.1784 -0.3834
  991MOL0     H30773   2.815   0.559   8.902 -3.6443 -0.2521 -1.4349
  991MOL0     H30774   2.654   0.641   8.708  0.2003  0.6244  1.5965
  991MOL0     H30775   2.406   0.672   8.703  1.1638  0.1430 -0.7389
  991MOL0     H30776   1.959   0.464   8.470 -0.5177  1.1257  0.3392
  991MOL0     H30777   1.711   0.500   8.531  3.3093  0.4191 -3.3652
  991MOL0     H30778   1.598   0.517   8.910 -1.2453 -0.2456  0.3530
  991MOL0     H30779   1.558   0.341   8.920  1.7046 -0.3760 -0.3657
  991MOL0     H30780   1.345   0.473   8.932  2.0623  0.1113 -0.0518
  991MOL0     H30781   1.354   0.375   8.786 -0.0696  1.0013 -1.9425
  991MOL0     H30782   1.414   0.578   8.645 -2.2961  0.4489 -1.2081
  991MOL0     H30783   1.431   0.668   8.793 -2.2286  1.9269 -2.2960
  991MOL0     H30784   1.161   0.550   8.734  0.2475 -0.2783  0.9194
  991MOL0     H30785   1.196   0.679   8.838  3.4262 -2.8904  2.4894
  991MOL0     H30786   1.264   0.830   8.656 -1.8607  1.0062 -1.9187
  991MOL0     H30787   1.107   0.764   8.631  0.9736  3.3913 -0.2222
  991MOL0     H30788   1.242   0.576   8.492 -2.0935 -0.0731  1.4527
  991MOL0     H30789   1.349   0.718   8.461  0.2793  0.2972  2.2877
  991MOL0     H30790   1.052   0.718   8.410 -1.3878  3.8182  3.9890
  991MOL0     H30791   1.166   0.859   8.391  1.9999 -0.7137 -0.6622
  991MOL0     H30792   1.193   0.591   8.272  2.1482  0.4786  0.9318
  991MOL0     H30793   1.297   0.738   8.229  0.2162 -0.6390  0.6273
  991MOL0     H30794   1.798   0.311   8.909  1.5106  2.2319  0.8780
  991MOL0     H30795   2.027   0.297   8.861  1.5788  0.4636 -1.0135
  991MOL0     H30796   2.383   0.238   8.626  1.2304 -0.4630  1.7562
  991MOL0     H30797   2.620   0.221   8.675 -1.2606 -0.0147 -1.0299
  991MOL0     H30798   4.326   1.575   8.699 -0.7885  1.7532 -2.2352
  991MOL0     H30799   4.486   1.769   8.702 -0.5013  0.1457 -0.6341
  991MOL0     H30800   5.031   1.797   8.719 -0.3259 -0.2546  1.1201
  991MOL0     H30801   5.209   1.952   8.659  0.7711 -0.2864  0.4573
  991MOL0     H30802   5.180   2.382   8.785 -0.8303 -4.1027  2.2829
  991MOL0     H30803   5.131   2.360   8.620  1.5415 -0.1550 -1.8171
  991MOL0     H30804   5.379   2.337   8.549 -0.0367  0.9301 -0.3373
  991MOL0     H30805   5.321   2.504   8.610 -0.1240  0.4349  1.5816
  991MOL0     H30806   5.399   2.409   8.834 -0.7344  1.6577  0.4074
  991MOL0     H30807   5.504   2.483   8.722 -1.4336  0.5100 -1.0572
  991MOL0     H30808   5.598   2.251   8.820  3.1659  0.1517 -1.3620
  991MOL0     H30809   5.491   2.170   8.702  2.3523  0.4234 -2.3028
  991MOL0     H30810   5.814   2.311   8.485  0.1449  0.3901 -0.0197
  991MOL0     H30811   4.961   2.283   8.770  1.0809  0.7841 -3.4131
  991MOL0     H30812   4.770   2.144   8.785 -1.0308 -2.6532 -0.1089
  992MOL0     O30813   2.173  11.069   3.554  0.1598 -0.6218  0.4431
  992MOL0     C30814   2.175  11.014   3.443 -0.3071  0.0046 -0.5039
  992MOL0     O30815   2.068  10.945   3.392 -0.2038  0.3693  0.2704
  992MOL0     C30816   1.951  10.951   3.460  0.3956  0.8758  0.7207
  992MOL0     C30817   1.914  10.834   3.534  0.0857  0.7017 -0.7238
  992MOL0     C30818   1.793  10.835   3.601 -0.6281 -0.8364  0.3257
  992MOL0     C30819   1.708  10.947   3.600  0.4043 -0.3003 -0.7497
  992MOL0     O30820   1.590  10.955   3.676 -0.1533  0.2781 -0.4982
  992MOL0     C30821   1.523  10.834   3.692  0.3432  0.4317  0.5186
  992MOL0     C30822   1.372  10.856   3.689  0.0069 -0.4710 -0.1462
  992MOL0     C30823   1.324  10.970   3.788  0.2008  0.2429  0.3557
  992MOL0     C30824   1.158  10.981   3.776 -0.2407  0.4405  0.0478
  992MOL0     C30825   1.094  10.879   3.880 -0.0668  0.0795  0.6853
  992MOL0     C30826   1.122  10.927   4.022  0.9502  0.2397 -0.3354
  992MOL0     C30827   1.037  10.852   4.124 -0.0019 -0.1849  0.3870
  992MOL0     C30828   0.888  10.878   4.119 -0.5023  0.7497 -0.0368
  992MOL0     N30829   0.811  10.795   4.214  0.1421  1.1064 -0.8186
  992MOL0     C30830   0.819  10.807   4.354  0.1694  1.0811  0.6548
  992MOL0     C30831   0.732  10.716   4.402 -0.9258  0.0300 -0.2680
  992MOL0     C30832   0.696  10.702   4.543  0.2816  0.3649  1.0515
  992MOL0     C30833   0.547  10.701   4.569 -0.3986 -0.3815  0.5817
  992MOL0     C30834   0.499  10.846   4.558 -0.6286  0.0328 -0.2193
  992MOL0     C30835   0.347  10.857   4.563 -0.3553  0.4420  0.0378
  992MOL0     O30836   0.308  10.857   4.706  0.1356 -0.2851  0.1555
  992MOL0     C30837   0.172  10.858   4.728 -0.2206 -0.4156  0.3817
  992MOL0     C30838   0.126  10.977   4.790 -0.3950  0.6131  0.3940
  992MOL0     C30839  -0.016  10.999   4.807 -0.3718 -0.3030  0.7821
  992MOL0     C30840  -0.106  10.906   4.755 -0.4282 -0.0096  0.4078
  992MOL0     C30841  -0.256  10.924   4.758  0.0060 -0.9642 -0.5757
  992MOL0     O30842  -0.332  10.818   4.756  0.4658  0.8547 -0.3449
  992MOL0     C30843  -0.468  10.827   4.766 -0.3648 -0.0509  0.6626
  992MOL0     C30844  -0.539  10.789   4.653  0.9041  0.3745  0.0241
  992MOL0     C30845  -0.685  10.790   4.643 -0.4091  0.1488 -0.2951
  992MOL0     C30846  -0.751  10.828   4.765 -0.0203 -0.8553 -0.7121
  992MOL0     O30847  -0.888  10.848   4.784  0.2727  0.1542 -0.7701
  992MOL0     C30848  -0.981  10.801   4.678  0.4641  0.5303 -0.0135
  992MOL0     C30849  -1.123  10.793   4.727 -0.6672 -0.4710 -0.7083
  992MOL0     C30850  -1.223  10.788   4.610  0.9273 -0.3174 -0.1777
  992MOL0     C30851  -1.225  10.655   4.529 -0.5021 -0.6725 -1.2696
  992MOL0     C30852  -1.338  10.637   4.423 -1.1424 -1.1249  0.3054
  992MOL0     C30853  -1.335  10.760   4.330  0.4756  0.0389  0.4443
  992MOL0     C30854  -1.391  10.736   4.192  0.3423 -0.2256 -0.1848
  992MOL0     C30855  -1.451  10.866   4.139  0.6833  1.2208 -0.6090
  992MOL0    Cl30856  -1.594  10.910   4.231 -0.3624 -0.0937 -0.0992
  992MOL0     C30857  -0.675  10.868   4.875  0.9779  0.4176 -0.3057
  992MOL0     C30858  -0.539  10.857   4.883  0.0275 -0.1056  0.4439
  992MOL0     O30859  -0.293  11.040   4.779  0.3750 -1.0700 -0.0740
  992MOL0     C30860  -0.057  10.795   4.684 -0.1588 -0.0086  0.1640
  992MOL0     C30861   0.081  10.770   4.666  0.5371  0.5912 -0.5618
  992MOL0     N30862   0.694  10.631   4.297 -0.1312 -0.3274 -0.5044
  992MOL0     N30863   0.741  10.682   4.188 -0.2180  0.8529  0.5063
  992MOL0     C30864   1.749  11.063   3.534  0.5022 -0.0523 -0.0511
  992MOL0     C30865   1.875  11.063   3.466  0.2755 -0.4990 -0.1491
  992MOL0     C30866   2.295  11.009   3.369 -0.5125 -0.4023  0.5640
  992MOL0     C30867   2.413  11.075   3.418  1.2779  0.0795  0.3067
  992MOL0     C30868   2.540  11.028   3.369 -0.1891 -0.3920  0.4049
  992MOL0     C30869   2.552  10.937   3.272 -0.2934  0.0331  0.2593
  992MOL0     O30870   2.683  10.907   3.241 -0.0066 -0.5288 -0.1364
  992MOL0     C30871   2.714  10.778   3.182  0.4110  0.4246 -0.6828
  992MOL0     C30872   2.870  10.768   3.181  0.1804  0.4290  0.0434
  992MOL0     C30873   2.921  10.757   3.330 -0.8647  0.2049  0.3226
  992MOL0     C30874   3.074  10.732   3.331 -0.9240 -0.2108 -0.6751
  992MOL0     C30875   3.134  10.739   3.463 -0.4411 -0.1550 -0.7688
  992MOL0     C30876   3.176  10.728   3.579 -0.3012 -0.8440  0.1710
  992MOL0     C30877   2.436  10.873   3.227 -0.1572  0.3429 -0.2370
  992MOL0     C30878   2.310  10.914   3.263  0.0769 -0.1190  0.4844
  992MOL0     H30879   1.970  10.742   3.524  1.0415  1.1366  0.3754
  992MOL0     H30880   1.769  10.743   3.653 -3.3831 -0.0325  0.6272
  992MOL0     H30881   1.547  10.786   3.788 -1.8987 -1.4769  0.2042
  992MOL0     H30882   1.557  10.765   3.614  1.2907  1.8270 -0.3497
  992MOL0     H30883   1.322  10.761   3.710 -0.4275 -0.0577  0.7325
  992MOL0     H30884   1.339  10.893   3.592 -1.3730 -2.9107 -0.6887
  992MOL0     H30885   1.366  11.068   3.766 -0.0895  0.5103  0.9676
  992MOL0     H30886   1.346  10.950   3.894 -1.0769  1.8470  0.9780
  992MOL0     H30887   1.128  11.082   3.806 -0.8902  0.6132 -1.1141
  992MOL0     H30888   1.120  10.975   3.673  1.4038  2.9889 -0.8236
  992MOL0     H30889   1.155  10.789   3.870  0.5514  0.4755  0.8368
  992MOL0     H30890   0.990  10.853   3.863 -0.0905  0.0278  0.9055
  992MOL0     H30891   1.091  11.031   4.038 -0.2250 -0.3838  2.0401
  992MOL0     H30892   1.226  10.907   4.051  0.4825 -1.6284  0.1929
  992MOL0     H30893   1.047  10.746   4.103 -0.5131 -0.2231  0.3191
  992MOL0     H30894   1.066  10.881   4.226 -0.2130 -0.9985  0.6809
  992MOL0     H30895   0.857  10.854   4.016 -0.7441  0.3001  0.1406
  992MOL0     H30896   0.869  10.985   4.134 -2.6189  0.5798 -1.0452
  992MOL0     H30897   0.867  10.884   4.414 -0.1643  2.3895 -0.6771
  992MOL0     H30898   0.744  10.779   4.604 -0.4279  1.5892  0.1039
  992MOL0     H30899   0.747  10.607   4.561  1.3676  0.3119 -1.6917
  992MOL0     H30900   0.520  10.652   4.664 -5.5874 -0.1920 -0.4537
  992MOL0     H30901   0.508  10.653   4.479 -0.5652 -0.1096  0.5071
  992MOL0     H30902   0.542  10.895   4.646  3.3924 -1.4742 -1.1222
  992MOL0     H30903   0.518  10.892   4.461  0.0041  0.1691 -0.0306
  992MOL0     H30904   0.295  10.781   4.505  0.4344 -0.2955  0.2807
  992MOL0     H30905   0.320  10.951   4.513  0.7347 -0.0812 -1.6004
  992MOL0     H30906   0.201  11.047   4.823  1.7021  0.9976 -4.3228
  992MOL0     H30907  -0.045  11.082   4.869 -0.4330  0.2407  0.0390
  992MOL0     H30908  -0.487  10.775   4.558 -0.9949  1.8843 -1.3263
  992MOL0     H30909  -0.742  10.766   4.553 -0.2782 -0.6190 -0.1828
  992MOL0     H30910  -0.948  10.702   4.646 -0.7784 -0.1467  0.7410
  992MOL0     H30911  -0.981  10.862   4.588 -1.1539  0.0110 -0.3921
  992MOL0     H30912  -1.144  10.881   4.789 -0.6942 -3.1152  3.3712
  992MOL0     H30913  -1.125  10.705   4.792  0.0380 -0.9236 -1.2812
  992MOL0     H30914  -1.194  10.871   4.545  1.5667  0.8503  1.5215
  992MOL0     H30915  -1.320  10.813   4.654  1.6759 -2.9801  3.5046
  992MOL0     H30916  -1.128  10.639   4.481 -1.5085 -2.8276 -2.7301
  992MOL0     H30917  -1.240  10.576   4.602 -0.4935  0.9360  0.5402
  992MOL0     H30918  -1.435  10.634   4.473 -1.6917 -1.3084 -0.7462
  992MOL0     H30919  -1.327  10.540   4.374 -1.2664 -0.3132 -1.3678
  992MOL0     H30920  -1.231  10.793   4.321  0.1660  1.1603  0.7892
  992MOL0     H30921  -1.380  10.847   4.379  1.2377 -1.0681  3.3255
  992MOL0     H30922  -1.314  10.696   4.126  0.0363 -1.8853  0.4127
  992MOL0     H30923  -1.468  10.660   4.182  0.0601 -0.3558  2.2593
  992MOL0     H30924  -1.481  10.853   4.035 -3.4589  0.6256  0.4577
  992MOL0     H30925  -1.388  10.955   4.151 -3.1110  3.9902  1.0435
  992MOL0     H30926  -0.718  10.904   4.968  2.1639  0.6194  0.1849
  992MOL0     H30927  -0.483  10.863   4.976 -0.1225 -3.4969  0.8939
  992MOL0     H30928  -0.124  10.719   4.646  0.4511  0.0268 -1.0365
  992MOL0     H30929   0.108  10.679   4.613 -1.0450 -0.3366  0.1521
  992MOL0     H30930   1.681  11.148   3.537 -0.5638 -0.6288 -3.6414
  992MOL0     H30931   1.909  11.145   3.403  0.9823  0.8262  1.8478
  992MOL0     H30932   2.406  11.149   3.497  1.0386 -0.2271  0.5744
  992MOL0     H30933   2.622  11.074   3.423  1.2184 -1.6866 -0.5586
  992MOL0     H30934   2.689  10.774   3.075  2.4270  1.5765 -1.2385
  992MOL0     H30935   2.677  10.691   3.237  4.6782 -0.2388  1.5665
  992MOL0     H30936   2.900  10.673   3.137 -1.2540 -0.5130  0.9791
  992MOL0     H30937   2.915  10.850   3.125 -0.1853 -1.0619 -2.6078
  992MOL0     H30938   2.870  10.675   3.382 -0.8137  1.5305  2.5922
  992MOL0     H30939   2.901  10.856   3.373 -0.2961  1.4051 -2.0203
  992MOL0     H30940   3.103  10.636   3.288  1.8519  0.9870 -1.7773
  992MOL0     H30941   3.118  10.803   3.259  0.6717 -0.4311  0.0435
  992MOL0     H30942   3.210  10.729   3.681 -0.1231  2.1884  0.1776
  992MOL0     H30943   2.428  10.788   3.159  0.4033 -0.5747  0.8088
  992MOL0     H30944   2.226  10.848   3.245 -0.0391 -0.4367  2.0282
  993MOL0     O30945   5.819   0.469   6.980 -0.1106  0.6648 -0.5603
  993MOL0     C30946   5.831   0.416   7.089  0.1486  0.2553 -0.0971
  993MOL0     O30947   5.733   0.382   7.175  0.4040 -0.1478 -0.1886
  993MOL0     C30948   5.601   0.378   7.129  0.3239 -0.0840  0.3255
  993MOL0     C30949   5.549   0.357   7.003  0.8741 -0.4750  0.1888
  993MOL0     C30950   5.416   0.341   6.977  0.8381 -0.4474  0.3650
  993MOL0     C30951   5.322   0.339   7.090  0.1259 -0.5882 -0.2741
  993MOL0     O30952   5.188   0.339   7.080 -0.5174 -0.2859  1.3474
  993MOL0     C30953   5.133   0.399   6.953 -0.3703 -0.0228 -0.7291
  993MOL0     C30954   4.982   0.408   6.955  0.6220 -0.1885  0.0751
  993MOL0     C30955   4.914   0.428   6.820  0.3741 -0.2463  0.0207
  993MOL0     C30956   4.762   0.427   6.849  0.1072  0.8883  0.0243
  993MOL0     C30957   4.681   0.448   6.729  0.7279  0.4407  0.7436
  993MOL0     C30958   4.531   0.420   6.751 -0.4633  0.1023  0.1160
  993MOL0     C30959   4.450   0.477   6.640 -0.5588  0.9723  0.2015
  993MOL0     C30960   4.306   0.418   6.631  0.0821  0.5509  0.1904
  993MOL0     N30961   4.236   0.469   6.507  0.0094  0.6374 -0.2456
  993MOL0     C30962   4.224   0.406   6.383 -0.3641 -0.2482  0.7096
  993MOL0     C30963   4.220   0.509   6.292 -1.2906 -0.2773 -0.6083
  993MOL0     C30964   4.238   0.490   6.147  0.8409  0.7711  0.1921
  993MOL0     C30965   4.106   0.511   6.063  0.0989  0.0633 -0.9247
  993MOL0     C30966   3.986   0.422   6.103 -0.0694 -0.1209 -0.1260
  993MOL0     C30967   3.867   0.413   6.004  0.4743 -1.2233 -0.2680
  993MOL0     O30968   3.780   0.530   6.006  0.2299 -0.1050 -0.4689
  993MOL0     C30969   3.644   0.501   5.993  0.1957 -0.1681  0.5793
  993MOL0     C30970   3.555   0.608   6.025  0.6681 -0.4694 -0.1169
  993MOL0     C30971   3.421   0.609   5.993 -0.1869  0.5150 -0.7022
  993MOL0     C30972   3.372   0.490   5.932  0.1339 -0.6037 -0.0529
  993MOL0     C30973   3.233   0.492   5.885 -0.5315  0.1863 -1.1675
  993MOL0     O30974   3.180   0.372   5.831 -0.3939 -0.0134 -0.4644
  993MOL0     C30975   3.050   0.361   5.776 -0.1982  0.1407 -0.5294
  993MOL0     C30976   3.002   0.229   5.776  0.1019  0.5717  0.3564
  993MOL0     C30977   2.877   0.204   5.717 -0.1197  0.4321 -0.1551
  993MOL0     C30978   2.796   0.301   5.660  0.4773  0.4087 -0.0626
  993MOL0     O30979   2.670   0.280   5.612  0.0773  0.4204  0.1275
  993MOL0     C30980   2.563   0.271   5.704 -0.1691 -0.1306 -0.0033
  993MOL0     C30981   2.427   0.315   5.644 -0.8768  0.3639  0.1749
  993MOL0     C30982   2.424   0.470   5.610 -0.4241  0.4638 -0.2785
  993MOL0     C30983   2.281   0.512   5.591 -0.6610  0.1255  0.6855
  993MOL0     C30984   2.221   0.423   5.472  0.0346  0.6012 -0.3035
  993MOL0     C30985   2.284   0.436   5.335  0.0111  0.5546 -0.0798
  993MOL0     C30986   2.202   0.367   5.221 -0.1463 -0.2316  0.6406
  993MOL0     C30987   2.280   0.333   5.091  0.6409 -0.0860  0.7138
  993MOL0    Cl30988   2.346   0.483   5.014 -0.3740  0.2806 -0.3244
  993MOL0     C30989   2.851   0.436   5.658  0.7332  0.6187 -0.1837
  993MOL0     C30990   2.980   0.463   5.710  1.1924  0.5455  0.2817
  993MOL0     O30991   3.172   0.598   5.890  0.2906  0.1918  0.4052
  993MOL0     C30992   3.455   0.382   5.906  0.6148 -0.1370  0.1727
  993MOL0     C30993   3.591   0.385   5.929  0.3531 -0.2494 -0.8925
  993MOL0     N30994   4.213   0.630   6.359 -0.0696 -0.8812 -0.1938
  993MOL0     N30995   4.222   0.598   6.486  0.0620 -0.3937  0.1088
  993MOL0     C30996   5.371   0.353   7.218  0.2366  0.0331  0.0671
  993MOL0     C30997   5.509   0.377   7.238 -0.0494  0.1531  0.3397
  993MOL0     C30998   5.969   0.404   7.137 -0.1067 -0.5524  0.7288
  993MOL0     C30999   6.092   0.409   7.059 -0.7188 -0.0051  0.4319
  993MOL0     C31000   6.220   0.399   7.120 -0.1003  0.0743 -0.4549
  993MOL0     C31001   6.235   0.385   7.262 -0.6287  0.0271  0.9999
  993MOL0     O31002   6.351   0.351   7.317  0.2150  0.7472  0.9495
  993MOL0     C31003   6.472   0.371   7.242  0.0481 -0.2051 -0.1352
  993MOL0     C31004   6.591   0.325   7.322  0.3467  0.8116  0.1058
  993MOL0     C31005   6.592   0.173   7.331  0.0408 -0.8210 -0.8057
  993MOL0     C31006   6.625   0.110   7.469  0.1722  0.4516  0.1621
  993MOL0     C31007   6.539   0.146   7.585  0.0607 -0.0253  0.7339
  993MOL0     C31008   6.478   0.203   7.673 -0.3558  0.1868  0.1722
  993MOL0     C31009   6.115   0.380   7.326 -0.1685  0.5942  0.1429
  993MOL0     C31010   5.989   0.395   7.274 -0.2212 -0.1925 -1.0173
  993MOL0     H31011   5.607   0.349   6.911  1.9461  0.6397  0.7468
  993MOL0     H31012   5.381   0.330   6.875 -2.8624 -1.4698  1.5809
  993MOL0     H31013   5.162   0.325   6.878 -3.5213 -3.8787  1.4527
  993MOL0     H31014   5.173   0.500   6.937 -2.7611  1.0703 -0.2593
  993MOL0     H31015   4.956   0.492   7.019  2.4185  1.1566 -0.8657
  993MOL0     H31016   4.935   0.317   6.995  0.2965 -0.6549 -1.3164
  993MOL0     H31017   4.941   0.338   6.765 -0.6245 -0.3106 -0.3838
  993MOL0     H31018   4.950   0.509   6.755 -1.2481 -0.2444 -0.9178
  993MOL0     H31019   4.740   0.327   6.886  0.0036 -0.9483 -4.3835
  993MOL0     H31020   4.745   0.507   6.922  0.9142  2.9684 -1.9280
  993MOL0     H31021   4.719   0.383   6.649 -0.3592  2.0091 -1.1339
  993MOL0     H31022   4.691   0.555   6.705 -1.1004  1.1697  2.9283
  993MOL0     H31023   4.505   0.458   6.850  0.8247 -2.2223  1.4391
  993MOL0     H31024   4.523   0.311   6.763  1.1451  0.2533  4.6207
  993MOL0     H31025   4.444   0.585   6.654 -0.1554  1.1412 -0.8256
  993MOL0     H31026   4.500   0.445   6.548 -0.5579  2.2612 -0.2600
  993MOL0     H31027   4.266   0.441   6.730 -0.8149  0.4440 -0.1385
  993MOL0     H31028   4.313   0.309   6.619  0.3911  0.6559 -0.6474
  993MOL0     H31029   4.223   0.298   6.370 -1.3633 -0.3342  1.4177
  993MOL0     H31030   4.263   0.384   6.134 -2.5695 -0.1518  0.3631
  993MOL0     H31031   4.321   0.551   6.109  0.9047 -0.2119 -1.3466
  993MOL0     H31032   4.137   0.496   5.960 -1.6690 -2.0216 -1.2285
  993MOL0     H31033   4.061   0.611   6.066 -0.4144 -0.1251 -1.9964
  993MOL0     H31034   4.031   0.322   6.107 -0.1061 -0.1349 -0.0529
  993MOL0     H31035   3.960   0.454   6.205 -2.0168 -0.0559 -0.6096
  993MOL0     H31036   3.815   0.320   6.029 -1.2074 -0.3269 -0.2815
  993MOL0     H31037   3.909   0.406   5.903  1.4953 -2.0275  0.1938
  993MOL0     H31038   3.596   0.702   6.058  2.9512 -0.4913 -2.5304
  993MOL0     H31039   3.364   0.700   6.004  2.3966  2.1695 -0.0570
  993MOL0     H31040   3.063   0.150   5.819 -2.4417 -2.4337 -1.1877
  993MOL0     H31041   2.839   0.102   5.716  3.4010 -1.0551 -1.0999
  993MOL0     H31042   2.588   0.341   5.784  2.1789 -0.5699 -0.2788
  993MOL0     H31043   2.565   0.169   5.744 -0.8568  0.2419  1.0197
  993MOL0     H31044   2.347   0.296   5.717 -1.6236  3.3660  0.2886
  993MOL0     H31045   2.401   0.250   5.560  1.8367 -1.6551  0.7523
  993MOL0     H31046   2.481   0.495   5.521  3.2971 -1.7436  1.2574
  993MOL0     H31047   2.460   0.530   5.694 -1.6739 -0.1801  0.7724
  993MOL0     H31048   2.223   0.514   5.684  0.1007  0.1558  1.1656
  993MOL0     H31049   2.278   0.615   5.554  1.8048 -0.1787 -0.5478
  993MOL0     H31050   2.114   0.447   5.472 -0.5510 -0.0297  6.2322
  993MOL0     H31051   2.207   0.322   5.511  0.3166  0.7879  0.2970
  993MOL0     H31052   2.385   0.392   5.340 -0.1346  0.3110  0.8980
  993MOL0     H31053   2.297   0.542   5.310 -3.5454  1.0879 -0.0557
  993MOL0     H31054   2.156   0.280   5.269 -2.3463 -0.5371 -1.7872
  993MOL0     H31055   2.116   0.423   5.185  0.1271 -1.2680 -1.8614
  993MOL0     H31056   2.209   0.285   5.023  1.0464  1.0536 -0.5743
  993MOL0     H31057   2.357   0.256   5.100 -2.1395 -3.2810 -0.7066
  993MOL0     H31058   2.790   0.507   5.604 -0.9906 -1.3067 -0.9398
  993MOL0     H31059   3.028   0.560   5.696  2.5608 -0.1681 -0.1070
  993MOL0     H31060   3.408   0.302   5.851  0.3676 -0.3786  0.7249
  993MOL0     H31061   3.641   0.291   5.907  2.8953  0.7336  0.2556
  993MOL0     H31062   5.295   0.362   7.295 -1.3645  1.5080 -1.5966
  993MOL0     H31063   5.549   0.385   7.339  0.4446  2.4987  0.0174
  993MOL0     H31064   6.079   0.427   6.953  1.6206  1.0333  0.2539
  993MOL0     H31065   6.303   0.390   7.050  1.1645 -0.5178  1.0783
  993MOL0     H31066   6.488   0.475   7.213 -1.4428 -0.1792 -0.9538
  993MOL0     H31067   6.479   0.314   7.149 -0.9950 -2.2398  0.9380
  993MOL0     H31068   6.679   0.354   7.264  0.5862 -2.6201 -1.4816
  993MOL0     H31069   6.592   0.375   7.420  2.6950 -0.7853  0.9812
  993MOL0     H31070   6.671   0.145   7.261 -0.6773  1.0442 -2.4668
  993MOL0     H31071   6.498   0.125   7.304 -1.2212 -1.3179  3.6221
  993MOL0     H31072   6.622   0.001   7.461 -2.1624  0.3635  1.3898
  993MOL0     H31073   6.727   0.128   7.505  0.5758 -3.6970  1.6640
  993MOL0     H31074   6.438   0.251   7.761  1.0815  1.7911 -0.0031
  993MOL0     H31075   6.126   0.352   7.431 -0.4177  3.0591  0.8953
  993MOL0     H31076   5.902   0.395   7.339 -2.6797  0.2733 -4.0483
  994MOL0     O31077   7.844  10.514   4.027 -0.2881  0.0652  0.0026
  994MOL0     C31078   7.810  10.606   3.954 -0.0469  0.7559  0.1987
  994MOL0     O31079   7.891  10.685   3.885  0.2161  0.7003  0.3694
  994MOL0     C31080   8.028  10.686   3.883 -0.9509 -0.4240 -0.0510
  994MOL0     C31081   8.084  10.773   3.787  0.8711 -0.0811 -1.4069
  994MOL0     C31082   8.219  10.795   3.774  0.2199  0.4506  0.0130
  994MOL0     C31083   8.308  10.723   3.856 -0.4415  0.0639 -0.4631
  994MOL0     O31084   8.444  10.755   3.843  0.5204 -0.4533 -0.3933
  994MOL0     C31085   8.533  10.664   3.901 -0.0859  0.3497 -0.2634
  994MOL0     C31086   8.681  10.701   3.859 -0.5909 -0.5566  0.0619
  994MOL0     C31087   8.709  10.671   3.711  0.4506 -0.4472 -0.4222
  994MOL0     C31088   8.847  10.721   3.671  0.7098  0.7595  0.2506
  994MOL0     C31089   8.968  10.651   3.746  0.0395  0.2858 -0.5719
  994MOL0     C31090   8.978  10.499   3.720 -0.6383  0.4610  0.1225
  994MOL0     C31091   9.125  10.458   3.729 -1.0290 -0.5787 -0.3063
  994MOL0     C31092   9.164  10.309   3.708  0.4103 -0.1479 -0.4307
  994MOL0     N31093   9.101  10.230   3.813 -0.2177  0.3890 -0.2311
  994MOL0     C31094   8.976  10.170   3.806  0.6042  0.2483  0.2384
  994MOL0     C31095   8.972  10.085   3.909  0.0227  0.1560  1.2827
  994MOL0     C31096   8.863   9.997   3.955  0.4267  0.2753 -0.1480
  994MOL0     C31097   8.749  10.079   4.020  0.2920 -0.1579 -0.1259
  994MOL0     C31098   8.640   9.978   4.078  0.4817 -0.1430 -0.3502
  994MOL0     C31099   8.545   9.940   3.971 -0.2053 -0.5097  0.1003
  994MOL0     O31100   8.439   9.871   4.031 -0.7221  0.2618 -0.3013
  994MOL0     C31101   8.326   9.868   3.964 -0.3456 -0.2723  0.7247
  994MOL0     C31102   8.313   9.893   3.827  0.8585  0.1033  0.3850
  994MOL0     C31103   8.188   9.882   3.762  0.0328  0.1747 -0.2890
  994MOL0     C31104   8.075   9.835   3.839  0.2411  0.1083  0.8281
  994MOL0     C31105   7.932   9.819   3.786 -0.1204  0.0105 -0.7355
  994MOL0     O31106   7.842   9.759   3.870 -0.0568  0.6995 -0.4274
  994MOL0     C31107   7.708   9.752   3.838  0.1597 -0.0104  0.3360
  994MOL0     C31108   7.642   9.633   3.826  0.7046 -0.0078  0.7421
  994MOL0     C31109   7.497   9.627   3.799 -0.5808  0.3330  0.7209
  994MOL0     C31110   7.423   9.742   3.780 -0.5548 -0.0185 -0.9327
  994MOL0     O31111   7.290   9.726   3.750 -0.4216  0.0170 -0.0714
  994MOL0     C31112   7.213   9.845   3.741  0.4005  0.0951 -0.6327
  994MOL0     C31113   7.067   9.815   3.714  0.0656 -0.0235  0.2397
  994MOL0     C31114   7.035   9.780   3.577  0.1468 -0.3701  0.3004
  994MOL0     C31115   6.884   9.739   3.576 -0.3861  0.7861  0.0423
  994MOL0     C31116   6.834   9.711   3.430  0.1873  0.3040  0.3405
  994MOL0     C31117   6.919   9.599   3.363 -0.1242 -0.3828  0.4544
  994MOL0     C31118   6.863   9.513   3.249  0.5408  0.0833  0.4918
  994MOL0     C31119   6.749   9.422   3.303 -0.5453  0.0002  0.6933
  994MOL0    Cl31120   6.673   9.326   3.180 -0.1383  0.1579  0.3102
  994MOL0     C31121   7.494   9.860   3.781 -0.2154 -0.3550 -0.2919
  994MOL0     C31122   7.631   9.868   3.814  0.2897  0.3409 -1.1059
  994MOL0     O31123   7.918   9.837   3.664  0.2451 -0.1279  0.2984
  994MOL0     C31124   8.099   9.803   3.972  0.0477  0.7924  0.3657
  994MOL0     C31125   8.218   9.821   4.035 -1.1628 -0.3377  0.5248
  994MOL0     N31126   9.090  10.099   3.980  0.3747  0.6780  0.3442
  994MOL0     N31127   9.170  10.176   3.907 -0.3075 -0.4720  0.1769
  994MOL0     C31128   8.258  10.624   3.953 -0.1400 -0.6615  0.8272
  994MOL0     C31129   8.119  10.609   3.957  0.2313  0.3936 -0.3051
  994MOL0     C31130   7.667  10.632   3.926  0.3297  0.4325  0.4619
  994MOL0     C31131   7.570  10.538   3.963  0.1437  0.2424  0.8187
  994MOL0     C31132   7.430  10.559   3.933 -0.3525 -0.8131 -0.2563
  994MOL0     C31133   7.394  10.668   3.852  1.2662 -0.1247  0.4599
  994MOL0     O31134   7.264  10.684   3.815  0.2267 -0.2638  0.1065
  994MOL0     C31135   7.208  10.576   3.739  0.5545 -0.6971  0.5846
  994MOL0     C31136   7.062  10.549   3.777 -0.1137 -0.3422 -0.4830
  994MOL0     C31137   7.048  10.491   3.917  0.0608 -0.5105 -0.7495
  994MOL0     C31138   6.903  10.507   3.965 -0.0181 -0.4914  0.2478
  994MOL0     C31139   6.889  10.474   4.109  0.5218  1.0326  0.4457
  994MOL0     C31140   6.872  10.451   4.226 -1.1457  0.6770 -0.2535
  994MOL0     C31141   7.493  10.771   3.826 -0.4693  1.0425 -0.3027
  994MOL0     C31142   7.628  10.751   3.860 -0.2832  0.0080 -0.0979
  994MOL0     H31143   8.006  10.836   3.746  1.9646  1.3838 -1.3094
  994MOL0     H31144   8.259  10.872   3.709 -0.9999  0.8158 -0.3269
  994MOL0     H31145   8.514  10.562   3.864 -1.2497  0.4612 -0.0015
  994MOL0     H31146   8.529  10.676   4.009  0.1715 -0.9556 -0.0902
  994MOL0     H31147   8.745  10.645   3.927  0.8644 -0.6495 -1.3403
  994MOL0     H31148   8.699  10.808   3.873  0.6149 -0.7649  0.1763
  994MOL0     H31149   8.632  10.716   3.647  0.5739 -2.3119 -1.9796
  994MOL0     H31150   8.711  10.565   3.683  1.8953 -0.8740  1.1607
  994MOL0     H31151   8.869  10.705   3.565  2.3591  0.5668  0.5986
  994MOL0     H31152   8.843  10.828   3.695 -0.7332  0.8582 -0.3078
  994MOL0     H31153   8.950  10.663   3.853 -2.7962  1.9062 -1.1306
  994MOL0     H31154   9.056  10.705   3.712  0.3060 -0.7289 -1.5489
  994MOL0     H31155   8.951  10.463   3.620 -0.4921  1.7319 -0.3989
  994MOL0     H31156   8.911  10.449   3.791 -3.1443  2.6977 -0.5061
  994MOL0     H31157   9.174  10.506   3.644 -1.1327 -1.5480 -0.9298
  994MOL0     H31158   9.178  10.485   3.822 -2.2688  0.5354  0.0953
  994MOL0     H31159   9.272  10.296   3.697  0.3666 -0.2793 -0.7006
  994MOL0     H31160   9.122  10.263   3.619 -1.5878 -0.1017  0.4329
  994MOL0     H31161   8.890  10.186   3.742  0.6826  0.0993  0.0963
  994MOL0     H31162   8.900   9.919   4.022 -1.1430 -0.7025 -0.3759
  994MOL0     H31163   8.829   9.939   3.869  2.4776 -0.4679 -0.5191
  994MOL0     H31164   8.710  10.146   3.943  1.7524 -1.3843 -2.0097
  994MOL0     H31165   8.789  10.148   4.095  0.2267  0.3708 -0.5687
  994MOL0     H31166   8.688   9.891   4.124 -0.0544 -1.0105 -1.3547
  994MOL0     H31167   8.581  10.030   4.153 -0.6519 -1.2049 -0.4714
  994MOL0     H31168   8.596   9.875   3.899  0.6537  0.3472 -0.0832
  994MOL0     H31169   8.517  10.034   3.922  1.2116  0.0481  0.3043
  994MOL0     H31170   8.389   9.926   3.757 -0.3547 -2.1143 -2.2069
  994MOL0     H31171   8.168   9.918   3.662  2.1918  0.5887 -0.6153
  994MOL0     H31172   7.698   9.540   3.823  0.3350 -0.2132 -0.7523
  994MOL0     H31173   7.444   9.536   3.771 -0.4743  0.0441  1.4267
  994MOL0     H31174   7.248   9.902   3.655 -0.9539 -0.5894 -1.6699
  994MOL0     H31175   7.224   9.891   3.840  2.0123 -1.8924  0.1886
  994MOL0     H31176   7.024   9.913   3.736 -0.4138 -0.5306  1.6684
  994MOL0     H31177   7.022   9.745   3.785  1.8063 -0.6445  0.7619
  994MOL0     H31178   7.112   9.710   3.545  0.2231 -0.9373  1.6941
  994MOL0     H31179   7.034   9.866   3.508 -0.2160  0.0520  0.8264
  994MOL0     H31180   6.885   9.646   3.634  0.6203  2.6131  3.2352
  994MOL0     H31181   6.827   9.815   3.630 -0.5976  0.8998 -0.3360
  994MOL0     H31182   6.845   9.800   3.368 -0.2974 -1.6379 -2.7786
  994MOL0     H31183   6.728   9.689   3.439  0.6309 -3.4257 -1.3687
  994MOL0     H31184   6.959   9.528   3.435  1.7639 -2.0870 -2.1019
  994MOL0     H31185   7.010   9.647   3.326  0.4786 -1.1658  0.9053
  994MOL0     H31186   6.826   9.573   3.165 -1.5880  2.1667  2.7297
  994MOL0     H31187   6.942   9.450   3.208 -0.9151 -1.8574  0.5339
  994MOL0     H31188   6.673   9.480   3.356 -1.3388 -1.6046  1.3873
  994MOL0     H31189   6.782   9.350   3.378  1.0654 -1.1737 -1.0567
  994MOL0     H31190   7.446   9.957   3.787 -0.3562 -0.4580  0.3471
  994MOL0     H31191   7.673   9.967   3.826 -0.5284  0.4784  0.9776
  994MOL0     H31192   8.024   9.764   4.040  0.2600 -0.3369 -0.0254
  994MOL0     H31193   8.245   9.784   4.133  0.9789 -0.7633 -0.1640
  994MOL0     H31194   8.317  10.568   4.024  0.6024 -1.9328 -0.7359
  994MOL0     H31195   8.073  10.542   4.029  0.2854  0.3848 -0.2792
  994MOL0     H31196   7.600  10.450   4.019  2.4396  0.8215  0.6064
  994MOL0     H31197   7.357  10.485   3.962 -0.0892 -1.3354 -0.8893
  994MOL0     H31198   7.257  10.479   3.744  4.0444  0.9182  0.2964
  994MOL0     H31199   7.204  10.598   3.632  1.3837 -0.1975  0.6534
  994MOL0     H31200   7.004  10.641   3.769  5.1496  3.7592  2.1244
  994MOL0     H31201   7.010  10.478   3.712  1.8818 -2.9044  0.5225
  994MOL0     H31202   7.109  10.556   3.981 -0.6674  1.7620 -2.2839
  994MOL0     H31203   7.073  10.387   3.944 -1.7091 -0.8588 -0.3644
  994MOL0     H31204   6.857  10.606   3.960 -0.8574 -0.8431  0.7736
  994MOL0     H31205   6.854  10.432   3.901  0.8275  0.3945 -1.4815
  994MOL0     H31206   6.855  10.428   4.329  1.5726 -2.7967 -0.3662
  994MOL0     H31207   7.450  10.858   3.777 -0.6624  2.5453  2.3423
  994MOL0     H31208   7.700  10.832   3.846  1.8458 -1.3640  2.1525
  995MOL0     O31209   2.991   5.465  11.076 -0.1750  0.4015 -0.0680
  995MOL0     C31210   2.943   5.578  11.077  0.3937  0.0282 -0.7013
  995MOL0     O31211   2.815   5.612  11.037 -0.0439  0.2098 -0.2042
  995MOL0     C31212   2.732   5.522  10.972  0.0404 -0.3113 -0.2416
  995MOL0     C31213   2.605   5.502  11.023  0.3369  0.0531  0.8238
  995MOL0     C31214   2.508   5.423  10.953  0.5881  0.6517 -0.1891
  995MOL0     C31215   2.543   5.357  10.838 -0.4089 -1.4067 -0.1046
  995MOL0     O31216   2.433   5.316  10.761  0.3378  0.0947 -0.1642
  995MOL0     C31217   2.430   5.300  10.616  0.1119  0.5093 -0.4624
  995MOL0     C31218   2.361   5.170  10.584  0.0763  0.5719  0.7581
  995MOL0     C31219   2.223   5.156  10.646  0.1234  0.2193  0.3173
  995MOL0     C31220   2.143   5.029  10.615  0.2090  0.5005 -0.5377
  995MOL0     C31221   2.009   5.035  10.686  0.3478 -0.1802 -0.1228
  995MOL0     C31222   1.929   4.912  10.650  0.2293 -0.0884  0.0257
  995MOL0     C31223   1.788   4.913  10.712  0.4308 -0.5011 -0.9629
  995MOL0     C31224   1.685   5.008  10.643 -0.0819 -0.0123  0.0329
  995MOL0     N31225   1.544   4.975  10.628  0.5545  0.1290  0.4884
  995MOL0     C31226   1.497   4.845  10.631 -0.0512 -0.2363 -0.0556
  995MOL0     C31227   1.378   4.845  10.555  0.4906 -0.5152  0.3505
  995MOL0     C31228   1.283   4.725  10.543  0.5050  0.4309 -0.0133
  995MOL0     C31229   1.169   4.742  10.644 -0.1857  0.2898 -0.2913
  995MOL0     C31230   1.098   4.607  10.678 -0.3215 -0.6579  0.1378
  995MOL0     C31231   0.969   4.627  10.740  0.1690 -0.2909 -0.1250
  995MOL0     O31232   0.890   4.507  10.739  0.4634 -0.0071 -0.5867
  995MOL0     C31233   0.756   4.517  10.753 -0.2060 -0.3897  0.2595
  995MOL0     C31234   0.678   4.395  10.760  0.5211 -0.1489  0.0113
  995MOL0     C31235   0.539   4.398  10.775 -1.2415 -0.3903 -1.0366
  995MOL0     C31236   0.471   4.519  10.768  1.1290  0.1738 -0.5157
  995MOL0     C31237   0.329   4.523  10.777 -0.3799 -0.7046  0.3829
  995MOL0     O31238   0.256   4.415  10.756 -0.6478  0.1133  0.6615
  995MOL0     C31239   0.124   4.404  10.810  0.4089  0.5571  0.1810
  995MOL0     C31240   0.010   4.416  10.731 -0.5171 -0.1243  0.2481
  995MOL0     C31241  -0.119   4.416  10.787 -0.4980 -0.4782 -0.4317
  995MOL0     C31242  -0.139   4.380  10.920  0.3154 -0.3132 -0.0533
  995MOL0     O31243  -0.270   4.378  10.966 -0.2161  0.6207  1.0046
  995MOL0     C31244  -0.302   4.290  11.076  0.3214  0.1953  0.7538
  995MOL0     C31245  -0.449   4.302  11.107  0.3095  0.3845  0.1806
  995MOL0     C31246  -0.548   4.271  10.994  0.1405 -0.1655  0.3540
  995MOL0     C31247  -0.690   4.274  11.038  0.7872 -0.0497 -0.6391
  995MOL0     C31248  -0.792   4.261  10.923 -0.2050  0.2805 -0.3394
  995MOL0     C31249  -0.935   4.266  10.969 -0.1390 -0.0454  0.6223
  995MOL0     C31250  -1.033   4.188  10.884 -0.9837  1.3785 -0.7626
  995MOL0     C31251  -1.174   4.245  10.886  0.0833 -0.8724 -0.8880
  995MOL0    Cl31252  -1.270   4.215  11.035 -0.2223  0.2735 -0.0401
  995MOL0     C31253  -0.030   4.374  11.001 -0.2579 -1.0320  0.3244
  995MOL0     C31254   0.098   4.378  10.947 -1.3858 -0.1427 -0.1356
  995MOL0     O31255   0.279   4.631  10.801  0.2406  0.1963 -0.4652
  995MOL0     C31256   0.547   4.633  10.764 -0.5081 -0.2080 -0.2166
  995MOL0     C31257   0.680   4.639  10.755 -0.6870  0.8378 -0.8861
  995MOL0     N31258   1.355   4.974  10.512  0.0052 -0.5534 -0.4505
  995MOL0     N31259   1.452   5.054  10.559  0.3553  0.3749 -0.2373
  995MOL0     C31260   2.675   5.361  10.796  0.0417 -0.4842  0.0159
  995MOL0     C31261   2.772   5.441  10.863  0.7399  0.4015 -0.6413
  995MOL0     C31262   3.020   5.696  11.129  0.1640  0.7837  0.7164
  995MOL0     C31263   3.007   5.826  11.073  0.4660  0.3458 -0.2183
  995MOL0     C31264   3.097   5.927  11.117  0.5520 -0.6305  0.1302
  995MOL0     C31265   3.199   5.903  11.219  0.7040  0.3241  0.1269
  995MOL0     O31266   3.300   5.987  11.267 -0.5411 -0.0340  0.5980
  995MOL0     C31267   3.312   6.110  11.196  0.1503 -0.1761 -1.2268
  995MOL0     C31268   3.447   6.181  11.229 -0.0508  0.8823  0.7462
  995MOL0     C31269   3.443   6.326  11.185 -0.1799 -0.7834 -0.8003
  995MOL0     C31270   3.409   6.334  11.033 -0.8164  0.1589  0.3497
  995MOL0     C31271   3.474   6.451  10.971  0.7626 -0.6117  0.8197
  995MOL0     C31272   3.524   6.550  10.919  0.9811  1.0437  0.4088
  995MOL0     C31273   3.205   5.773  11.276  0.3558 -0.0814  0.2287
  995MOL0     C31274   3.117   5.673  11.223 -0.7282  0.1093  0.2932
  995MOL0     H31275   2.578   5.564  11.107  0.9235 -2.0486  2.6404
  995MOL0     H31276   2.407   5.416  10.992  0.0191 -4.9312 -1.7484
  995MOL0     H31277   2.525   5.303  10.562 -0.8866 -0.1775 -2.3599
  995MOL0     H31278   2.379   5.386  10.571  1.0209  0.7332 -1.0771
  995MOL0     H31279   2.421   5.085  10.616  1.7460  1.0610 -0.8841
  995MOL0     H31280   2.357   5.181  10.475 -1.9784 -0.4180  0.6892
  995MOL0     H31281   2.156   5.239  10.624  1.3263  0.6240 -2.1745
  995MOL0     H31282   2.249   5.163  10.752  3.4191  0.3608 -0.4002
  995MOL0     H31283   2.130   5.013  10.508  0.5351 -1.4881 -0.3183
  995MOL0     H31284   2.202   4.941  10.641  1.9143  2.0746  1.2840
  995MOL0     H31285   1.962   5.132  10.668 -2.7560 -1.2280  1.3571
  995MOL0     H31286   2.022   5.030  10.795 -1.7441 -1.8018  0.1307
  995MOL0     H31287   1.978   4.821  10.686  0.2139  0.4461  1.4402
  995MOL0     H31288   1.926   4.898  10.541  0.1943 -1.4758  0.1835
  995MOL0     H31289   1.741   4.816  10.699 -0.9921 -0.1332  0.9681
  995MOL0     H31290   1.795   4.949  10.815  1.6677 -0.7482 -0.9446
  995MOL0     H31291   1.726   5.027  10.543  1.0346 -0.4921  0.3814
  995MOL0     H31292   1.697   5.105  10.691 -3.6525  0.3106  0.5166
  995MOL0     H31293   1.550   4.760  10.674  0.1556  0.6038  1.4328
  995MOL0     H31294   1.339   4.634  10.567 -1.3070 -1.4690 -2.3875
  995MOL0     H31295   1.237   4.719  10.444 -1.3228 -1.1089  0.8777
  995MOL0     H31296   1.092   4.811  10.608 -0.5133  0.8437  1.4035
  995MOL0     H31297   1.200   4.772  10.744  1.1301  3.1795 -1.4634
  995MOL0     H31298   1.087   4.546  10.589  1.3931  0.2752 -0.7555
  995MOL0     H31299   1.158   4.544  10.744 -0.4992 -2.8214 -1.6853
  995MOL0     H31300   0.913   4.703  10.683 -1.3028  1.0381  2.8809
  995MOL0     H31301   0.985   4.677  10.836 -5.1259  0.2121  0.8257
  995MOL0     H31302   0.730   4.300  10.757 -0.4003 -0.6432 -1.7743
  995MOL0     H31303   0.481   4.307  10.792 -1.4715 -0.0681 -0.0343
  995MOL0     H31304   0.026   4.422  10.624  1.7385  1.5440  0.5888
  995MOL0     H31305  -0.206   4.434  10.724  0.3030 -0.6225 -1.6089
  995MOL0     H31306  -0.244   4.314  11.166 -0.2183 -2.7769  1.9952
  995MOL0     H31307  -0.290   4.184  11.053  1.4787  0.9067 -2.4261
  995MOL0     H31308  -0.469   4.402  11.145 -0.1026 -0.5249  2.4980
  995MOL0     H31309  -0.468   4.241  11.196  1.1027  1.0233  0.7982
  995MOL0     H31310  -0.528   4.173  10.950  0.1510  0.2061 -0.4795
  995MOL0     H31311  -0.534   4.343  10.913  0.3109 -0.3047  0.2616
  995MOL0     H31312  -0.708   4.196  11.113 -2.9203 -0.3413 -1.6065
  995MOL0     H31313  -0.723   4.368  11.082 -0.3819 -1.2642  1.2677
  995MOL0     H31314  -0.772   4.159  10.891  1.9819  0.8642 -0.9891
  995MOL0     H31315  -0.752   4.332  10.850  1.2236  1.4134  1.4311
  995MOL0     H31316  -0.958   4.373  10.957  2.2095  0.3704 -0.6327
  995MOL0     H31317  -0.945   4.234  11.073 -0.3127  0.6017  0.8146
  995MOL0     H31318  -1.007   4.190  10.778  0.2682  3.2719 -0.4546
  995MOL0     H31319  -1.019   4.088  10.926 -0.6390  1.2795 -1.1058
  995MOL0     H31320  -1.240   4.218  10.803  0.3065  1.3759 -1.8851
  995MOL0     H31321  -1.171   4.351  10.859 -1.0072 -0.7187 -0.4725
  995MOL0     H31322  -0.048   4.341  11.102 -0.4650 -3.3551 -0.4137
  995MOL0     H31323   0.185   4.359  11.010 -1.1932  0.7229 -0.1212
  995MOL0     H31324   0.512   4.736  10.764 -1.5684 -0.5022 -2.2710
  995MOL0     H31325   0.726   4.737  10.758  1.1516 -0.0027 -0.7341
  995MOL0     H31326   2.699   5.310  10.704 -2.2218 -0.5820 -0.5942
  995MOL0     H31327   2.873   5.456  10.826  0.5413  0.8550 -1.0117
  995MOL0     H31328   2.924   5.857  11.011 -0.4487  0.7457  1.1590
  995MOL0     H31329   3.082   6.028  11.081  1.8248  1.0598  3.8440
  995MOL0     H31330   3.226   6.173  11.222 -0.9608 -2.4796  1.2224
  995MOL0     H31331   3.305   6.094  11.088 -0.2549 -1.3243 -1.0522
  995MOL0     H31332   3.470   6.163  11.335 -1.8764  1.7133  1.3227
  995MOL0     H31333   3.521   6.125  11.171  0.3885  1.2382  0.9575
  995MOL0     H31334   3.544   6.363  11.206 -0.7072 -0.7190  1.9654
  995MOL0     H31335   3.375   6.388  11.245  1.0545  0.2485 -0.4046
  995MOL0     H31336   3.449   6.244  10.986  1.1701  2.0083 -1.7257
  995MOL0     H31337   3.300   6.336  11.021 -0.6725  1.5418 -1.1163
  995MOL0     H31338   3.554   6.640  10.868 -0.0815  0.9237 -0.4609
  995MOL0     H31339   3.275   5.753  11.357  0.7693 -3.0426 -0.7601
  995MOL0     H31340   3.111   5.574  11.267 -1.5163  0.5297  1.1810
  996MOL0     O31341   7.934   1.408   8.802 -0.3008 -0.8048  0.1056
  996MOL0     C31342   7.948   1.491   8.713 -0.4242 -0.3621 -0.1348
  996MOL0     O31343   7.847   1.564   8.658 -0.0081 -0.1682 -0.0726
  996MOL0     C31344   7.724   1.522   8.686 -0.1560 -0.0106  0.8123
  996MOL0     C31345   7.680   1.400   8.654 -0.2798 -0.1625  0.3583
  996MOL0     C31346   7.553   1.359   8.678  0.5417 -0.3365  0.4259
  996MOL0     C31347   7.462   1.450   8.729  0.3206 -0.2495 -0.4039
  996MOL0     O31348   7.331   1.424   8.744 -0.2173  0.2268  0.2689
  996MOL0     C31349   7.262   1.334   8.663  0.6573 -0.0810 -0.0104
  996MOL0     C31350   7.109   1.353   8.682 -0.0704  0.2379 -0.7024
  996MOL0     C31351   7.062   1.318   8.828 -0.6441 -0.3456  0.4792
  996MOL0     C31352   6.912   1.330   8.847  0.3174  0.6202 -0.1004
  996MOL0     C31353   6.836   1.197   8.822 -0.0365  0.2102  0.9600
  996MOL0     C31354   6.756   1.152   8.944 -0.0455  0.1506  0.0277
  996MOL0     C31355   6.622   1.236   8.975 -0.0593 -0.3666  0.0249
  996MOL0     C31356   6.516   1.192   8.877  0.4045 -0.2239 -0.3836
  996MOL0     N31357   6.393   1.240   8.942  1.1407  0.2206  0.5393
  996MOL0     C31358   6.351   1.368   8.923 -0.0524 -0.5232  0.2875
  996MOL0     C31359   6.231   1.367   8.988  0.6587 -0.7538 -0.7181
  996MOL0     C31360   6.136   1.479   9.010 -0.5315  0.2624  0.3462
  996MOL0     C31361   6.044   1.516   8.892  0.5346  0.1563 -0.0824
  996MOL0     C31362   5.939   1.409   8.863  0.2861  0.3422  0.5097
  996MOL0     C31363   5.829   1.460   8.770  0.3320  0.2657 -0.0578
  996MOL0     O31364   5.877   1.495   8.641 -0.0411 -0.5000 -0.6564
  996MOL0     C31365   5.782   1.510   8.540  0.5176  0.1282 -0.6030
  996MOL0     C31366   5.640   1.499   8.553 -0.0074 -0.4548 -0.1829
  996MOL0     C31367   5.557   1.527   8.441 -1.0147  0.3096 -1.3060
  996MOL0     C31368   5.616   1.570   8.325  0.5501 -0.2704  0.7213
  996MOL0     C31369   5.537   1.628   8.215  0.4859 -0.4678 -0.2202
  996MOL0     O31370   5.597   1.692   8.106  0.3033 -0.2128  0.7092
  996MOL0     C31371   5.517   1.742   8.005  0.0133 -0.4252  0.4451
  996MOL0     C31372   5.512   1.884   7.984  0.5693 -0.2316 -0.3446
  996MOL0     C31373   5.439   1.940   7.877 -0.3045 -0.2289 -0.8367
  996MOL0     C31374   5.365   1.861   7.790 -0.0752 -0.2527 -0.1092
  996MOL0     O31375   5.305   1.929   7.692 -0.5818 -0.0767  0.8890
  996MOL0     C31376   5.250   1.842   7.587 -0.5097  1.4733  0.7340
  996MOL0     C31377   5.231   1.921   7.451  0.0829  0.3920  0.0099
  996MOL0     C31378   5.090   1.984   7.440 -0.3195  0.0196  0.6399
  996MOL0     C31379   5.083   2.101   7.334 -0.6729  0.5135 -0.2668
  996MOL0     C31380   4.957   2.181   7.358  0.7446  0.7294 -0.2629
  996MOL0     C31381   4.917   2.278   7.244 -0.9573 -0.5326 -0.6816
  996MOL0     C31382   5.038   2.365   7.190  0.0762 -0.0973 -0.6935
  996MOL0     C31383   5.096   2.454   7.300  0.2114 -0.6018 -0.7985
  996MOL0    Cl31384   4.975   2.540   7.397  0.0954  0.3206 -0.0756
  996MOL0     C31385   5.367   1.719   7.809  0.0806 -0.5382 -0.1767
  996MOL0     C31386   5.441   1.665   7.917  0.3338  0.4381 -0.0115
  996MOL0     O31387   5.409   1.609   8.218 -0.6433  0.2790  0.7318
  996MOL0     C31388   5.755   1.576   8.314  0.4275 -0.6456 -0.7273
  996MOL0     C31389   5.834   1.546   8.417 -0.3777  0.8263 -0.3898
  996MOL0     N31390   6.208   1.240   9.039 -0.2085 -0.0158 -0.1659
  996MOL0     N31391   6.306   1.164   9.015  0.2128  0.3472 -0.0727
  996MOL0     C31392   7.504   1.578   8.769  0.1913 -0.7697  0.4471
  996MOL0     C31393   7.639   1.610   8.754 -0.0432  0.2942 -0.3193
  996MOL0     C31394   8.076   1.524   8.656 -0.2695  0.6417 -0.0019
  996MOL0     C31395   8.085   1.593   8.536  0.2870  0.0576 -0.5628
  996MOL0     C31396   8.209   1.620   8.479 -0.4160 -0.3544  0.4720
  996MOL0     C31397   8.327   1.581   8.545 -0.1420 -0.3488 -0.9576
  996MOL0     O31398   8.446   1.616   8.493  0.3758  0.2962  0.1501
  996MOL0     C31399   8.568   1.599   8.569  0.7992 -0.7424 -0.8709
  996MOL0     C31400   8.703   1.638   8.491  0.3731 -0.1649 -0.6396
  996MOL0     C31401   8.703   1.638   8.344 -0.0029 -0.6645  1.0640
  996MOL0     C31402   8.838   1.675   8.287 -0.1960 -0.1705 -0.4468
  996MOL0     C31403   8.956   1.595   8.310 -0.9671  0.3335  0.6370
  996MOL0     C31404   9.042   1.513   8.328 -0.6589  0.3808 -0.1917
  996MOL0     C31405   8.317   1.517   8.675  0.3197 -0.1511  0.8362
  996MOL0     C31406   8.192   1.481   8.717  0.1476  0.7235 -1.0195
  996MOL0     H31407   7.735   1.337   8.586  0.6627  1.2146 -0.2148
  996MOL0     H31408   7.529   1.254   8.662  3.5562 -0.9182 -1.0907
  996MOL0     H31409   7.292   1.232   8.689  1.1293 -0.2041 -0.9723
  996MOL0     H31410   7.284   1.346   8.557 -2.6082 -1.6701 -1.0170
  996MOL0     H31411   7.055   1.288   8.613 -0.9521  1.7417 -1.5048
  996MOL0     H31412   7.085   1.456   8.651 -0.3148  0.0057 -1.3045
  996MOL0     H31413   7.110   1.388   8.897 -0.4818  0.6594 -0.6362
  996MOL0     H31414   7.103   1.218   8.848  0.6230 -0.0321 -0.4315
  996MOL0     H31415   6.893   1.366   8.949 -1.0084  1.4464 -0.6198
  996MOL0     H31416   6.867   1.401   8.777 -5.0629 -1.1632  1.0539
  996MOL0     H31417   6.911   1.123   8.791  1.0699  1.3450  0.8370
  996MOL0     H31418   6.763   1.209   8.742  0.6237  1.8942  0.5786
  996MOL0     H31419   6.823   1.146   9.030  0.3150 -2.8422 -0.3511
  996MOL0     H31420   6.736   1.045   8.933 -0.5625  0.0584  1.6445
  996MOL0     H31421   6.594   1.196   9.073  0.0163  0.3058  0.3249
  996MOL0     H31422   6.642   1.343   8.968 -1.0168 -0.1829 -0.1186
  996MOL0     H31423   6.507   1.084   8.859 -0.9117 -0.2365  0.2767
  996MOL0     H31424   6.518   1.240   8.779  2.7416  1.1951  0.2767
  996MOL0     H31425   6.393   1.450   8.864  0.1916 -0.0484  1.1021
  996MOL0     H31426   6.199   1.562   9.042  0.2618 -0.0607 -0.3303
  996MOL0     H31427   6.068   1.459   9.093 -2.1183 -0.5316 -1.0783
  996MOL0     H31428   6.102   1.520   8.799 -1.3419 -3.2951 -1.6109
  996MOL0     H31429   5.994   1.613   8.899 -0.3965 -0.1853 -1.4816
  996MOL0     H31430   5.982   1.314   8.831 -0.2944  0.2008  0.1311
  996MOL0     H31431   5.898   1.383   8.962 -1.8977 -1.7085 -0.8310
  996MOL0     H31432   5.782   1.550   8.810 -0.4564 -0.5041  0.7838
  996MOL0     H31433   5.757   1.377   8.768  1.2236 -0.8044  3.6241
  996MOL0     H31434   5.598   1.495   8.653  0.9368  2.6889  0.4523
  996MOL0     H31435   5.449   1.519   8.453 -0.9849 -0.6839 -1.6353
  996MOL0     H31436   5.586   1.945   8.035 -1.0127  3.4553 -2.0524
  996MOL0     H31437   5.449   2.048   7.875 -1.2318 -0.1082 -0.0236
  996MOL0     H31438   5.148   1.813   7.613 -0.4211  0.0558 -0.3936
  996MOL0     H31439   5.318   1.758   7.567 -0.3201  2.1746 -1.8492
  996MOL0     H31440   5.269   1.866   7.364  2.6815  1.9641  0.0548
  996MOL0     H31441   5.302   2.003   7.465 -0.6559  0.8478  1.2608
  996MOL0     H31442   5.057   2.023   7.537  0.7093 -0.5135  1.2170
  996MOL0     H31443   5.010   1.912   7.418 -1.6226  0.8400  2.4916
  996MOL0     H31444   5.170   2.165   7.352 -0.7615  0.1259  1.7679
  996MOL0     H31445   5.105   2.064   7.233  0.5465  0.7294 -0.0991
  996MOL0     H31446   4.968   2.231   7.455  0.0440 -1.9870  1.3298
  996MOL0     H31447   4.869   2.116   7.359  1.4084 -0.2645 -2.2706
  996MOL0     H31448   4.827   2.336   7.269 -0.8409 -0.6614  0.0481
  996MOL0     H31449   4.882   2.214   7.162 -1.0858 -0.4665 -0.6792
  996MOL0     H31450   5.111   2.295   7.148 -0.4551 -1.4894  0.6153
  996MOL0     H31451   5.006   2.429   7.108  2.0218  0.3990 -1.1274
  996MOL0     H31452   5.162   2.531   7.259 -1.0829  1.7532  1.3286
  996MOL0     H31453   5.165   2.401   7.366  1.9272  2.8605  0.4050
  996MOL0     H31454   5.316   1.653   7.740  3.1639 -1.6619 -1.5247
  996MOL0     H31455   5.447   1.557   7.911 -0.4438  0.4556 -3.4524
  996MOL0     H31456   5.808   1.617   8.228  1.3585  1.1183  0.6214
  996MOL0     H31457   5.941   1.545   8.402 -0.2560  3.9400 -0.3345
  996MOL0     H31458   7.433   1.640   8.822  0.9459 -0.6629  1.3629
  996MOL0     H31459   7.679   1.711   8.756 -0.5908  0.5612 -1.6683
  996MOL0     H31460   7.994   1.620   8.483  0.6690 -1.7985 -2.3175
  996MOL0     H31461   8.208   1.656   8.377 -1.3433 -2.0457 -0.1623
  996MOL0     H31462   8.589   1.496   8.598  1.7958 -0.2927  0.1034
  996MOL0     H31463   8.560   1.665   8.656 -3.0924 -2.5083  0.3525
  996MOL0     H31464   8.741   1.734   8.527  0.6567 -0.1658 -0.9284
  996MOL0     H31465   8.775   1.561   8.520 -0.1862 -0.1028  1.0222
  996MOL0     H31466   8.637   1.719   8.311 -0.2579 -1.5099 -0.6379
  996MOL0     H31467   8.659   1.546   8.305  0.6352 -1.9061  3.1130
  996MOL0     H31468   8.815   1.669   8.180 -1.3073  1.5286 -0.3332
  996MOL0     H31469   8.856   1.780   8.313 -1.2443  0.1456 -0.9644
  996MOL0     H31470   9.103   1.426   8.343 -1.5592 -0.6376 -2.1391
  996MOL0     H31471   8.401   1.497   8.740  0.5104 -0.1865  0.5819
  996MOL0     H31472   8.183   1.429   8.812 -0.8005  3.5124  0.5077
  997MOL0     O31473   0.722   3.652   3.525 -0.6089  0.3319  0.0964
  997MOL0     C31474   0.645   3.593   3.460  0.6854  0.2093 -0.2777
  997MOL0     O31475   0.664   3.541   3.331  0.3454  0.5647 -0.0016
  997MOL0     C31476   0.780   3.538   3.275 -0.6355 -0.7389 -0.2661
  997MOL0     C31477   0.832   3.426   3.211 -0.2261 -0.5192  0.4819
  997MOL0     C31478   0.960   3.423   3.169 -0.2040 -0.5511 -0.4360
  997MOL0     C31479   1.048   3.532   3.184 -0.0516  0.1403 -0.6631
  997MOL0     O31480   1.177   3.516   3.123 -0.4285 -0.2721 -0.6498
  997MOL0     C31481   1.270   3.628   3.111  0.5122 -0.2583 -0.0642
  997MOL0     C31482   1.384   3.578   3.022 -0.6793  1.2398 -0.6842
  997MOL0     C31483   1.437   3.442   3.081 -0.4643 -0.6480 -0.1242
  997MOL0     C31484   1.564   3.419   3.008  0.1297  0.7209 -0.4207
  997MOL0     C31485   1.639   3.305   3.083  0.3426  0.1305  0.9722
  997MOL0     C31486   1.558   3.178   3.097 -0.8475 -0.7205 -0.3181
  997MOL0     C31487   1.646   3.074   3.167  0.6495 -0.2118 -0.1268
  997MOL0     C31488   1.592   2.935   3.182  0.0409 -0.2698 -0.0245
  997MOL0     N31489   1.689   2.844   3.246  0.2404 -0.0618  0.6658
  997MOL0     C31490   1.700   2.820   3.383 -0.7526  0.2430  0.0832
  997MOL0     C31491   1.800   2.729   3.390 -0.8796  0.0853 -0.0161
  997MOL0     C31492   1.857   2.665   3.519 -0.6052 -0.9859 -0.0094
  997MOL0     C31493   1.753   2.644   3.628  0.0830  0.7874 -0.4299
  997MOL0     C31494   1.808   2.561   3.741  0.5974  0.3965 -0.1686
  997MOL0     C31495   1.705   2.531   3.854 -0.1014 -0.5160  0.0304
  997MOL0     O31496   1.711   2.641   3.946 -0.0680 -0.0485 -0.0258
  997MOL0     C31497   1.636   2.620   4.058 -0.3391 -0.3205  0.2420
  997MOL0     C31498   1.544   2.509   4.075 -0.1652 -0.6937 -0.1043
  997MOL0     C31499   1.478   2.504   4.195  0.0033 -0.7100  0.5840
  997MOL0     C31500   1.489   2.599   4.291  1.3296 -0.1577 -0.3910
  997MOL0     C31501   1.400   2.581   4.415  0.3676 -0.6226  0.1687
  997MOL0     O31502   1.417   2.674   4.509 -0.0360  0.3547 -0.0434
  997MOL0     C31503   1.351   2.680   4.623 -0.8223 -0.3087  0.5329
  997MOL0     C31504   1.303   2.565   4.692  0.6494 -0.4549 -0.4599
  997MOL0     C31505   1.237   2.574   4.812 -0.1514  0.5712  0.3995
  997MOL0     C31506   1.206   2.699   4.860 -0.2190  1.0436  0.2143
  997MOL0     O31507   1.127   2.705   4.970 -0.5258  0.0094  0.3173
  997MOL0     C31508   1.181   2.645   5.086  0.0832 -0.1768 -0.0621
  997MOL0     C31509   1.188   2.755   5.199 -0.0255  0.8916  0.2794
  997MOL0     C31510   1.044   2.792   5.238 -0.0965 -0.3748 -0.3972
  997MOL0     C31511   1.049   2.921   5.324 -0.8339  0.4739 -0.1531
  997MOL0     C31512   0.921   3.001   5.316 -0.0779 -0.3464  0.7591
  997MOL0     C31513   0.793   2.935   5.364 -0.1549  0.2189 -0.1408
  997MOL0     C31514   0.742   2.983   5.503  0.1114 -0.3015  0.2446
  997MOL0     C31515   0.599   2.932   5.513  0.0774 -0.4072 -0.3443
  997MOL0    Cl31516   0.533   2.996   5.670  0.3557 -0.2542 -0.0140
  997MOL0     C31517   1.248   2.813   4.795 -0.0420 -0.4093  0.7946
  997MOL0     C31518   1.328   2.799   4.681 -0.3924 -0.4023  0.2856
  997MOL0     O31519   1.314   2.491   4.418  0.5678 -0.4264  0.2727
  997MOL0     C31520   1.584   2.689   4.281 -0.2549 -1.7064 -0.7206
  997MOL0     C31521   1.652   2.707   4.165  0.1117  0.1785  0.2564
  997MOL0     N31522   1.832   2.695   3.261 -0.2584 -0.5400 -0.7738
  997MOL0     N31523   1.781   2.782   3.178 -0.1430  0.4771  0.4873
  997MOL0     C31524   0.991   3.647   3.239 -1.2712  0.1734 -0.5586
  997MOL0     C31525   0.857   3.652   3.275  0.4516 -0.0606  0.4517
  997MOL0     C31526   0.501   3.582   3.519 -0.3111  0.4527 -0.2815
  997MOL0     C31527   0.394   3.511   3.462  0.6505 -0.2296  0.3867
  997MOL0     C31528   0.264   3.510   3.510 -0.0630 -0.1599  0.9392
  997MOL0     C31529   0.232   3.571   3.629  0.8561 -0.3298  0.1221
  997MOL0     O31530   0.101   3.562   3.666  0.3345 -0.2673 -0.4851
  997MOL0     C31531   0.077   3.588   3.811 -0.3102  0.9264 -0.1389
  997MOL0     C31532  -0.074   3.581   3.834 -0.0664  0.2425 -0.2897
  997MOL0     C31533  -0.095   3.574   3.990 -0.3383  0.6077  0.4071
  997MOL0     C31534  -0.240   3.612   4.027 -0.8119 -0.1065 -0.1555
  997MOL0     C31535  -0.255   3.595   4.166 -0.4673  0.2534 -0.6973
  997MOL0     C31536  -0.285   3.597   4.285  0.1381 -0.1885 -1.0426
  997MOL0     C31537   0.333   3.634   3.694 -0.3382  0.3507 -0.2715
  997MOL0     C31538   0.468   3.640   3.640 -0.4504 -0.3454 -0.4462
  997MOL0     H31539   0.770   3.339   3.190  1.6601 -1.3159 -2.3624
  997MOL0     H31540   0.998   3.332   3.123 -2.0480 -1.5389 -0.1054
  997MOL0     H31541   1.306   3.655   3.210 -0.7603  0.2574  0.2766
  997MOL0     H31542   1.230   3.717   3.062  1.8083 -0.2841 -1.2211
  997MOL0     H31543   1.462   3.654   3.019  2.6138 -1.6246  2.8340
  997MOL0     H31544   1.352   3.563   2.919  1.7247  3.0808 -1.7929
  997MOL0     H31545   1.359   3.366   3.068 -0.3952 -0.7874  0.2655
  997MOL0     H31546   1.465   3.446   3.186  1.1839 -0.4098 -0.5486
  997MOL0     H31547   1.546   3.381   2.908  1.2121 -0.3421 -0.2324
  997MOL0     H31548   1.631   3.505   2.994 -1.1320  1.3371 -3.2777
  997MOL0     H31549   1.669   3.339   3.183 -0.5259  1.7313  0.7206
  997MOL0     H31550   1.729   3.282   3.025  0.0472 -1.2392  1.0371
  997MOL0     H31551   1.522   3.141   3.001 -1.7842 -0.6010 -0.0199
  997MOL0     H31552   1.474   3.180   3.167 -1.9178 -3.5947 -1.3816
  997MOL0     H31553   1.734   3.067   3.102 -0.0402 -1.2593 -1.0005
  997MOL0     H31554   1.691   3.107   3.261 -1.0931  2.2600 -0.0862
  997MOL0     H31555   1.568   2.906   3.079  1.9691 -0.7183 -0.3861
  997MOL0     H31556   1.496   2.946   3.233 -0.3095  0.4726 -0.8078
  997MOL0     H31557   1.636   2.857   3.462 -0.7971  1.5608 -0.5413
  997MOL0     H31558   1.932   2.731   3.563 -2.8259  2.1355 -0.5928
  997MOL0     H31559   1.908   2.573   3.489  2.5674  0.5248  0.3392
  997MOL0     H31560   1.671   2.591   3.578  0.9714 -1.2014  0.1379
  997MOL0     H31561   1.723   2.739   3.673  0.8778  0.7263  0.2614
  997MOL0     H31562   1.838   2.464   3.701  2.2261  1.5443 -1.9164
  997MOL0     H31563   1.887   2.624   3.784  0.2919  2.0017 -1.8580
  997MOL0     H31564   1.724   2.435   3.902  0.5975 -0.5445 -0.2892
  997MOL0     H31565   1.606   2.530   3.806 -0.2948  0.4173  0.3832
  997MOL0     H31566   1.527   2.428   4.005  0.2953 -0.2878 -0.7024
  997MOL0     H31567   1.415   2.417   4.210 -0.3960 -0.7145 -0.9401
  997MOL0     H31568   1.328   2.467   4.653 -1.2989 -0.8806 -0.7337
  997MOL0     H31569   1.210   2.476   4.850  2.2093  0.4753  2.0965
  997MOL0     H31570   1.281   2.603   5.070 -0.4187 -0.6813 -2.2732
  997MOL0     H31571   1.113   2.565   5.117  1.3848 -1.1711  0.3326
  997MOL0     H31572   1.240   2.842   5.156  0.5852  0.5278  0.2634
  997MOL0     H31573   1.241   2.724   5.289  1.1070  2.7026  0.3002
  997MOL0     H31574   0.992   2.711   5.291 -0.0753 -0.9509 -1.2434
  997MOL0     H31575   0.994   2.825   5.147  0.8773  2.7865  0.0845
  997MOL0     H31576   1.062   2.891   5.429 -1.6590 -0.9083 -0.4197
  997MOL0     H31577   1.133   2.985   5.298 -0.5771  0.2763  0.1703
  997MOL0     H31578   0.909   3.026   5.210  1.1950 -1.7907  0.2407
  997MOL0     H31579   0.942   3.098   5.361 -1.2784  1.0547 -1.5016
  997MOL0     H31580   0.808   2.827   5.369  2.6680  0.5650  0.0781
  997MOL0     H31581   0.720   2.961   5.286 -0.5958  2.2285  0.8582
  997MOL0     H31582   0.794   2.928   5.582  0.3874 -3.0897 -1.7202
  997MOL0     H31583   0.746   3.092   5.512  0.0924 -0.3749  1.3099
  997MOL0     H31584   0.603   2.824   5.502 -0.3705 -0.1396 -6.2822
  997MOL0     H31585   0.531   2.948   5.429  1.1719 -2.1340 -1.6341
  997MOL0     H31586   1.230   2.915   4.830 -2.5065 -0.8884  1.1076
  997MOL0     H31587   1.362   2.884   4.623  0.8875  0.5954  2.3850
  997MOL0     H31588   1.606   2.748   4.369  1.3196 -1.6750 -1.1050
  997MOL0     H31589   1.727   2.786   4.162 -0.0239  0.2891 -0.5657
  997MOL0     H31590   1.058   3.732   3.239 -2.1133  0.8675 -1.7094
  997MOL0     H31591   0.820   3.743   3.322 -2.5579 -2.0030  2.1892
  997MOL0     H31592   0.404   3.473   3.361 -0.9375  2.2870 -0.8246
  997MOL0     H31593   0.189   3.452   3.458 -0.2087  0.5551  0.3290
  997MOL0     H31594   0.110   3.687   3.843 -2.5378  1.3061  1.1775
  997MOL0     H31595   0.136   3.514   3.866  3.5565  2.7599 -1.4993
  997MOL0     H31596  -0.108   3.668   3.777  0.5556  0.4166 -0.3992
  997MOL0     H31597  -0.112   3.489   3.788  0.5178  1.2414 -2.9447
  997MOL0     H31598  -0.027   3.653   4.023  3.3559 -2.7103  1.6093
  997MOL0     H31599  -0.061   3.482   4.041  1.8207  0.4679 -1.1512
  997MOL0     H31600  -0.235   3.719   4.007  3.1611  0.1349  1.2259
  997MOL0     H31601  -0.314   3.551   3.974 -0.6632 -2.2017  1.8973
  997MOL0     H31602  -0.295   3.591   4.391 -0.5643  0.1643 -1.0841
  997MOL0     H31603   0.320   3.683   3.790 -0.1317  1.6334 -0.8811
  997MOL0     H31604   0.546   3.695   3.692  1.2854 -1.8582 -1.3488
  998MOL0     O31605   4.744   8.315   4.952 -0.0487 -0.3558  0.5879
  998MOL0     C31606   4.857   8.362   4.965  0.3275  0.3218  0.1591
  998MOL0     O31607   4.893   8.465   5.057  0.5169  0.4683  0.0450
  998MOL0     C31608   4.805   8.564   5.088 -0.0083 -0.1692  0.2972
  998MOL0     C31609   4.842   8.640   5.195 -0.0448  0.8671 -0.2921
  998MOL0     C31610   4.752   8.734   5.251  0.1688 -0.8807 -0.2727
  998MOL0     C31611   4.624   8.759   5.196 -0.1203  1.0478 -0.7605
  998MOL0     O31612   4.537   8.849   5.249  0.3764 -0.3916  0.7015
  998MOL0     C31613   4.422   8.894   5.177 -0.7658 -0.1336 -0.9626
  998MOL0     C31614   4.375   9.017   5.251 -0.3623  1.0011 -0.3603
  998MOL0     C31615   4.311   8.974   5.384  0.2642 -0.9276 -0.0132
  998MOL0     C31616   4.225   9.077   5.450 -0.5454 -0.1393  0.5433
  998MOL0     C31617   4.112   9.146   5.362  0.5797  0.0837  0.5260
  998MOL0     C31618   4.031   9.039   5.284 -0.1834 -0.3064 -0.9995
  998MOL0     C31619   3.905   9.103   5.221  0.5172  0.1616 -0.4566
  998MOL0     C31620   3.821   8.989   5.161 -0.1639 -0.3418  0.7361
  998MOL0     N31621   3.699   9.033   5.096  0.4360 -0.0428 -0.0416
  998MOL0     C31622   3.629   8.951   5.008 -0.0280 -0.2928  0.0325
  998MOL0     C31623   3.504   9.011   4.993 -0.5359 -0.4148 -0.5434
  998MOL0     C31624   3.380   8.970   4.922  0.2361  0.0404  0.3851
  998MOL0     C31625   3.266   8.944   5.014  0.2783  0.4125 -0.7294
  998MOL0     C31626   3.148   8.886   4.927 -0.5032  0.6547  0.4728
  998MOL0     C31627   3.015   8.892   5.012  0.1564 -0.7372  0.7336
  998MOL0     O31628   3.028   8.825   5.140  0.0665  0.0168 -0.1228
  998MOL0     C31629   2.940   8.721   5.165  0.1965 -0.3606  0.4279
  998MOL0     C31630   2.984   8.604   5.220  0.1203 -0.2468 -0.4633
  998MOL0     C31631   2.902   8.494   5.239  0.2705 -0.0601  0.5993
  998MOL0     C31632   2.760   8.503   5.221 -0.4937  0.1753 -0.0313
  998MOL0     C31633   2.667   8.396   5.269  0.0601  1.1130  0.1783
  998MOL0     O31634   2.529   8.413   5.256 -0.3256 -0.0690 -0.4669
  998MOL0     C31635   2.436   8.322   5.296 -0.3140 -0.4919  0.9810
  998MOL0     C31636   2.408   8.303   5.434 -0.4725  0.3385  0.6065
  998MOL0     C31637   2.305   8.215   5.464 -0.7211 -0.4605  0.5311
  998MOL0     C31638   2.216   8.150   5.370  0.3073 -0.1397 -0.3866
  998MOL0     O31639   2.113   8.064   5.398 -0.1959  0.5786  0.1707
  998MOL0     C31640   2.033   8.111   5.510  0.0152  0.4204 -0.1052
  998MOL0     C31641   1.893   8.066   5.478 -0.0134  0.2860 -0.5398
  998MOL0     C31642   1.871   7.912   5.470 -0.2030 -0.3017 -0.8756
  998MOL0     C31643   1.725   7.872   5.449 -0.3501 -0.1807  0.5729
  998MOL0     C31644   1.700   7.723   5.451  0.0622  0.5339 -0.6156
  998MOL0     C31645   1.726   7.654   5.317 -0.5846 -1.0264 -0.0821
  998MOL0     C31646   1.730   7.508   5.345  0.3092 -0.0227 -0.3026
  998MOL0     C31647   1.744   7.432   5.214  0.4628  0.1908  0.2605
  998MOL0    Cl31648   1.593   7.434   5.112 -0.1622  0.2592 -0.6493
  998MOL0     C31649   2.257   8.168   5.240 -0.0179  0.0486 -0.2316
  998MOL0     C31650   2.365   8.252   5.202  0.1151 -0.4734 -0.0804
  998MOL0     O31651   2.725   8.302   5.327  0.1671 -0.1272  1.1544
  998MOL0     C31652   2.710   8.631   5.169 -0.0371 -0.0368 -0.1164
  998MOL0     C31653   2.801   8.733   5.146 -0.5397 -0.6192  0.1144
  998MOL0     N31654   3.499   9.126   5.073 -0.6561 -0.6313 -0.2544
  998MOL0     N31655   3.613   9.141   5.133 -0.0565 -0.4926 -0.3778
  998MOL0     C31656   4.586   8.674   5.086  0.5275  0.4064  0.9194
  998MOL0     C31657   4.680   8.583   5.036 -0.4388  0.1330  0.6056
  998MOL0     C31658   4.957   8.296   4.873  0.0017  0.9259 -0.0795
  998MOL0     C31659   4.921   8.225   4.752  0.7651  0.4222 -0.9473
  998MOL0     C31660   5.020   8.168   4.672 -0.0958 -0.0189 -0.0085
  998MOL0     C31661   5.152   8.173   4.717  0.6539 -0.0555 -0.3651
  998MOL0     O31662   5.240   8.124   4.625 -0.6663  0.1045  0.0752
  998MOL0     C31663   5.379   8.165   4.614 -0.2780 -0.1710  0.8333
  998MOL0     C31664   5.470   8.070   4.699 -0.0631 -0.3282 -0.6078
  998MOL0     C31665   5.606   8.119   4.742 -0.2436 -0.1395 -1.4838
  998MOL0     C31666   5.684   8.015   4.813  0.2897  0.2661  0.6038
  998MOL0     C31667   5.815   8.077   4.844  0.5718  0.5166  0.7077
  998MOL0     C31668   5.925   8.128   4.877  0.1166 -0.0787  0.1054
  998MOL0     C31669   5.181   8.234   4.841 -0.3673 -0.9024  0.2677
  998MOL0     C31670   5.090   8.301   4.915  0.5135 -0.3299 -0.8539
  998MOL0     H31671   4.941   8.620   5.235 -0.0777  1.9980  0.3738
  998MOL0     H31672   4.796   8.795   5.330 -1.4509  1.1406 -0.8221
  998MOL0     H31673   4.338   8.825   5.174  0.0436 -1.4231  2.2014
  998MOL0     H31674   4.444   8.931   5.076  1.0886  0.2360 -0.4662
  998MOL0     H31675   4.317   9.080   5.184  0.4084 -0.1080 -2.1655
  998MOL0     H31676   4.463   9.076   5.278  1.1669 -1.8726  1.5388
  998MOL0     H31677   4.389   8.947   5.456 -0.9378 -0.8137  1.3826
  998MOL0     H31678   4.247   8.888   5.358 -2.7953  1.4010 -0.8018
  998MOL0     H31679   4.169   9.029   5.530  1.4465  0.0569  2.1344
  998MOL0     H31680   4.285   9.158   5.491  0.5886  0.0533 -1.3500
  998MOL0     H31681   4.153   9.206   5.280 -0.1668  0.3772  0.3524
  998MOL0     H31682   4.050   9.211   5.425  0.2309  0.8986 -0.6319
  998MOL0     H31683   3.992   8.967   5.357  0.1292  1.5264  1.1034
  998MOL0     H31684   4.091   8.988   5.208 -1.2177 -0.7239 -1.5367
  998MOL0     H31685   3.842   9.153   5.294 -0.6828  1.5108 -2.3126
  998MOL0     H31686   3.948   9.171   5.145  1.5472 -0.9418 -0.9045
  998MOL0     H31687   3.801   8.921   5.245 -0.6090 -0.1353  0.7965
  998MOL0     H31688   3.887   8.937   5.091 -2.2547 -4.5984  1.6066
  998MOL0     H31689   3.650   8.855   4.963 -1.4857 -1.6385  2.0709
  998MOL0     H31690   3.400   8.880   4.865  2.4406 -0.8030  2.3474
  998MOL0     H31691   3.353   9.055   4.858 -1.6178 -2.1357 -1.8745
  998MOL0     H31692   3.235   9.034   5.067 -0.7142  2.1773 -4.0093
  998MOL0     H31693   3.292   8.881   5.099 -4.1048  0.4164  0.8680
  998MOL0     H31694   3.130   8.935   4.832  2.2999  2.2482  0.6443
  998MOL0     H31695   3.165   8.779   4.912 -0.0605  0.6011  1.2589
  998MOL0     H31696   2.939   8.850   4.945  0.2821  2.1124 -1.3706
  998MOL0     H31697   2.980   8.991   5.042  0.0898 -1.0208  1.6173
  998MOL0     H31698   3.092   8.604   5.225  0.2498 -0.7501 -2.3897
  998MOL0     H31699   2.942   8.401   5.278 -1.6697 -0.9042  0.7182
  998MOL0     H31700   2.476   8.343   5.509 -1.0808  1.9158  0.3657
  998MOL0     H31701   2.300   8.187   5.568 -1.4447  0.2908  0.7120
  998MOL0     H31702   2.044   8.219   5.526  4.0841 -0.0294  1.4419
  998MOL0     H31703   2.064   8.071   5.608  1.8433 -0.4946 -1.0053
  998MOL0     H31704   1.859   8.097   5.379  3.8721  2.9603 -1.2465
  998MOL0     H31705   1.825   8.113   5.550 -1.0813 -0.9826 -0.6714
  998MOL0     H31706   1.911   7.870   5.563  2.4136  0.7733 -1.4177
  998MOL0     H31707   1.937   7.875   5.390  0.0688  0.0769 -0.8288
  998MOL0     H31708   1.685   7.918   5.540  2.7270  2.2366  0.8620
  998MOL0     H31709   1.683   7.917   5.359 -0.2119 -2.0640 -0.4866
  998MOL0     H31710   1.594   7.715   5.475  0.9856 -1.5027  4.0041
  998MOL0     H31711   1.762   7.672   5.526 -1.2578 -0.6832 -0.3062
  998MOL0     H31712   1.819   7.681   5.266 -1.1903  0.1438 -0.6213
  998MOL0     H31713   1.649   7.683   5.244  2.3633  2.6109 -2.0762
  998MOL0     H31714   1.820   7.479   5.400  0.7691 -0.1090 -1.1000
  998MOL0     H31715   1.646   7.475   5.408  2.0218 -1.0779  1.5746
  998MOL0     H31716   1.758   7.325   5.234 -1.7015 -0.4492 -1.2831
  998MOL0     H31717   1.828   7.476   5.160 -2.4008  1.8438 -3.2495
  998MOL0     H31718   2.201   8.108   5.169  0.4593 -0.2317 -0.3717
  998MOL0     H31719   2.390   8.270   5.098 -0.5118  1.5703  0.0612
  998MOL0     H31720   2.607   8.660   5.152  0.6826  2.7116 -0.1982
  998MOL0     H31721   2.764   8.819   5.091  0.1051 -0.5001 -0.1459
  998MOL0     H31722   4.493   8.693   5.034  0.5578  3.2135  1.6986
  998MOL0     H31723   4.656   8.521   4.950  0.8325 -1.4801  1.3697
  998MOL0     H31724   4.816   8.225   4.723  0.4128 -0.9630  0.1988
  998MOL0     H31725   4.992   8.116   4.580 -2.7411 -0.9111  1.1852
  998MOL0     H31726   5.399   8.265   4.655  5.2122 -1.6186  2.5330
  998MOL0     H31727   5.411   8.167   4.510  2.0241 -0.9646  1.4517
  998MOL0     H31728   5.414   8.038   4.787 -0.4758 -1.0325 -1.1128
  998MOL0     H31729   5.484   7.975   4.647 -0.0433 -2.2085  2.6049
  998MOL0     H31730   5.598   8.196   4.819 -0.4903 -1.4340 -0.1787
  998MOL0     H31731   5.663   8.162   4.659 -0.7199  0.2015 -1.6393
  998MOL0     H31732   5.631   7.978   4.902 -1.8694  1.6518 -0.0336
  998MOL0     H31733   5.694   7.926   4.751 -0.1970  0.3443  0.4064
  998MOL0     H31734   6.026   8.152   4.903 -0.2332  0.2728  1.1754
  998MOL0     H31735   5.282   8.234   4.881  1.7610  1.0717 -4.3486
  998MOL0     H31736   5.122   8.358   5.002  1.7670 -0.5329 -1.1521
  999MOL0     O31737   9.806   4.592  10.232  0.8341 -0.1495  0.3530
  999MOL0     C31738   9.876   4.505  10.179  0.2484 -0.5922 -1.0588
  999MOL0     O31739   9.833   4.415  10.086  0.1845  0.5836  0.7194
  999MOL0     C31740   9.710   4.418  10.018 -0.9404 -0.0901  0.1735
  999MOL0     C31741   9.651   4.541   9.968  0.2134  0.0362 -0.4231
  999MOL0     C31742   9.539   4.535   9.877  0.0992 -0.7038 -0.1971
  999MOL0     C31743   9.491   4.411   9.831  0.2894 -0.1082 -0.7906
  999MOL0     O31744   9.392   4.402   9.744  1.0814 -0.1542  0.6045
  999MOL0     C31745   9.268   4.340   9.785 -0.3505  0.0439  0.0986
  999MOL0     C31746   9.183   4.358   9.663 -0.0951  0.4556  0.2895
  999MOL0     C31747   9.196   4.497   9.598 -0.1277 -0.5168  0.0502
  999MOL0     C31748   9.074   4.508   9.502  0.3246 -0.0249 -0.3611
  999MOL0     C31749   9.093   4.630   9.405  0.9683  0.2666 -0.3293
  999MOL0     C31750   8.979   4.655   9.310 -0.1069  0.0944  0.5356
  999MOL0     C31751   8.845   4.674   9.376  0.8231 -0.2079  0.7387
  999MOL0     C31752   8.734   4.676   9.262  0.3646  0.0550 -0.7867
  999MOL0     N31753   8.593   4.686   9.315 -0.5878 -0.0686 -0.6243
  999MOL0     C31754   8.521   4.579   9.360 -0.4408  0.8284  0.1034
  999MOL0     C31755   8.404   4.633   9.391  0.0037 -0.5858  0.7640
  999MOL0     C31756   8.278   4.550   9.427  0.3319 -0.0676 -0.3654
  999MOL0     C31757   8.155   4.643   9.467 -0.4594 -0.6724  0.0274
  999MOL0     C31758   8.034   4.565   9.517  0.5871  0.0599 -0.0413
  999MOL0     C31759   7.904   4.625   9.458 -0.8009 -0.4650  0.4078
  999MOL0     O31760   7.792   4.572   9.527  0.6563  0.9300 -0.0676
  999MOL0     C31761   7.679   4.566   9.450 -0.1743  0.6324  0.1640
  999MOL0     C31762   7.626   4.432   9.428 -1.5735  0.0092 -0.2494
  999MOL0     C31763   7.523   4.411   9.344  0.4473  0.7291 -0.8570
  999MOL0     C31764   7.449   4.517   9.302 -0.3006  0.6581  0.6235
  999MOL0     C31765   7.333   4.489   9.219 -0.4182  0.8550 -0.5634
  999MOL0     O31766   7.306   4.354   9.186  0.5946  0.2712 -0.2877
  999MOL0     C31767   7.183   4.320   9.135  0.6601  0.7507  0.1282
  999MOL0     C31768   7.059   4.346   9.199  0.9903  0.3152  0.1855
  999MOL0     C31769   6.937   4.289   9.150  0.1493 -0.4373 -0.0960
  999MOL0     C31770   6.945   4.206   9.034  0.1338  0.1546 -0.4915
  999MOL0     O31771   6.839   4.161   8.963 -0.5359  0.5423  0.7031
  999MOL0     C31772   6.744   4.252   8.914 -0.7087 -0.3078 -0.4144
  999MOL0     C31773   6.617   4.274   9.002 -1.0126  0.3100  0.4526
  999MOL0     C31774   6.512   4.168   8.982 -0.0637 -0.2666 -0.9442
  999MOL0     C31775   6.372   4.202   9.030 -0.1362 -0.1826 -0.0084
  999MOL0     C31776   6.279   4.085   9.055  0.9002  0.1378  0.4693
  999MOL0     C31777   6.244   3.999   8.932  0.7918 -0.0319  0.4465
  999MOL0     C31778   6.105   3.925   8.951  0.4753  0.3185 -0.1140
  999MOL0     C31779   5.986   4.004   8.894 -0.7168  0.0474 -0.7298
  999MOL0    Cl31780   5.829   3.924   8.941 -0.4578  0.4647  0.4466
  999MOL0     C31781   7.058   4.184   8.966  1.0696 -0.1756 -0.1299
  999MOL0     C31782   7.176   4.236   9.018 -0.2258 -0.1625  0.1815
  999MOL0     O31783   7.260   4.585   9.196 -0.2384  0.2694 -0.1194
  999MOL0     C31784   7.482   4.650   9.339 -0.3421  0.0989 -0.0527
  999MOL0     C31785   7.596   4.671   9.412 -0.3849  0.5221 -1.0320
  999MOL0     N31786   8.413   4.773   9.397  0.8136 -0.2337  0.1716
  999MOL0     N31787   8.530   4.805   9.346  0.0298  0.1320  0.1575
  999MOL0     C31788   9.552   4.292   9.886  0.3324 -0.4955  0.6135
  999MOL0     C31789   9.658   4.294   9.974  1.0530 -0.4401 -0.3953
  999MOL0     C31790  10.021   4.505  10.203 -0.1474  0.4267  0.1798
  999MOL0     C31791  10.104   4.403  10.152  0.3225  1.2328 -0.6604
  999MOL0     C31792  10.248   4.410  10.170 -0.0184 -0.4048  0.2692
  999MOL0     C31793  10.307   4.514  10.243 -0.3886 -0.1303 -0.2045
  999MOL0     O31794  10.444   4.511  10.276  0.2520 -0.3317 -0.1854
  999MOL0     C31795  10.482   4.440  10.394  0.0701 -0.1135  0.2501
  999MOL0     C31796  10.595   4.516  10.480 -0.3990 -0.9551  0.3506
  999MOL0     C31797  10.727   4.548  10.412  0.0506  0.1067  0.5353
  999MOL0     C31798  10.832   4.610  10.499 -0.0216 -0.0850  0.3002
  999MOL0     C31799  10.973   4.605  10.455  0.5039  0.4063  0.6107
  999MOL0     C31800  11.088   4.609  10.431  0.3573  0.3354 -0.0880
  999MOL0     C31801  10.224   4.618  10.292  0.1346  0.0801  0.0992
  999MOL0     C31802  10.084   4.615  10.269  0.0830  0.5414 -0.2896
  999MOL0     H31803   9.703   4.627  10.007  2.6133 -1.7181  0.5212
  999MOL0     H31804   9.499   4.628   9.837  1.2906 -0.0743  0.0217
  999MOL0     H31805   9.235   4.381   9.881  1.0797  1.0599  0.2051
  999MOL0     H31806   9.268   4.231   9.794 -0.1920 -0.0447 -0.8568
  999MOL0     H31807   9.082   4.330   9.694  0.1661 -0.7284  0.1194
  999MOL0     H31808   9.204   4.284   9.585 -0.0348  3.4398 -2.7429
  999MOL0     H31809   9.294   4.504   9.551  0.7472 -1.3973  1.6592
  999MOL0     H31810   9.187   4.586   9.662 -1.7624  0.6701 -1.7225
  999MOL0     H31811   9.064   4.419   9.440 -5.5391  1.3106 -1.8767
  999MOL0     H31812   8.983   4.501   9.562  1.9053 -0.8755  2.1214
  999MOL0     H31813   9.181   4.628   9.339 -0.0438  0.1557 -1.7208
  999MOL0     H31814   9.092   4.720   9.467 -1.6119 -1.0498  1.7713
  999MOL0     H31815   8.981   4.577   9.233 -0.4555  2.1067 -1.6261
  999MOL0     H31816   9.003   4.753   9.268 -3.2818  0.3921 -0.8659
  999MOL0     H31817   8.810   4.592   9.439 -2.0266  0.4744  0.1972
  999MOL0     H31818   8.840   4.765   9.436 -2.2405 -1.0929  2.0426
  999MOL0     H31819   8.742   4.575   9.220  1.3962 -0.7267  1.1451
  999MOL0     H31820   8.760   4.744   9.181  2.3234  0.4650  0.1174
  999MOL0     H31821   8.563   4.479   9.362  2.9350  2.0412  3.9234
  999MOL0     H31822   8.298   4.481   9.510 -0.3148  0.4290  0.2266
  999MOL0     H31823   8.248   4.491   9.340  1.1917  0.4475 -1.0200
  999MOL0     H31824   8.129   4.693   9.373 -0.2977 -0.6434 -0.0022
  999MOL0     H31825   8.181   4.722   9.538 -3.1042 -0.4461  0.8332
  999MOL0     H31826   8.038   4.455   9.511  2.5287 -0.0239  1.6039
  999MOL0     H31827   8.039   4.588   9.624  0.3523 -2.4442  0.5882
  999MOL0     H31828   7.894   4.601   9.352 -1.2351  1.0216  0.0862
  999MOL0     H31829   7.910   4.733   9.474  0.3392 -0.7287  1.9836
  999MOL0     H31830   7.690   4.356   9.472 -1.2472 -0.0630 -0.8416
  999MOL0     H31831   7.501   4.306   9.326  0.6590  0.4045  0.6372
  999MOL0     H31832   7.045   4.416   9.281  1.9766 -0.8781  1.4310
  999MOL0     H31833   6.844   4.314   9.201  0.8568  1.9612  0.1162
  999MOL0     H31834   6.705   4.220   8.817 -1.0421  0.7241 -0.6386
  999MOL0     H31835   6.798   4.346   8.897  1.7803 -1.3299  1.2237
  999MOL0     H31836   6.583   4.373   8.971  1.3586  0.3720 -2.3499
  999MOL0     H31837   6.643   4.272   9.109  0.8801 -0.2999  0.0307
  999MOL0     H31838   6.552   4.082   9.036 -2.7951 -0.3220  1.1990
  999MOL0     H31839   6.497   4.132   8.880 -1.5925  0.0951 -0.8762
  999MOL0     H31840   6.374   4.265   9.120 -0.2871 -1.9522  1.2728
  999MOL0     H31841   6.324   4.265   8.955  2.7131  1.7529 -0.3691
  999MOL0     H31842   6.185   4.133   9.082 -0.8429 -1.4634 -2.2951
  999MOL0     H31843   6.321   4.024   9.136  0.7546  2.4659  2.4075
  999MOL0     H31844   6.320   3.924   8.909 -0.1395 -0.8347 -0.0818
  999MOL0     H31845   6.235   4.062   8.843 -1.3544  1.1763  1.4411
  999MOL0     H31846   6.107   3.833   8.892  0.1431 -1.0342  1.9033
  999MOL0     H31847   6.085   3.900   9.055  0.2643 -0.1450 -0.2615
  999MOL0     H31848   5.998   4.021   8.787  1.7869  1.5339 -0.2768
  999MOL0     H31849   5.991   4.098   8.951 -1.2510 -1.3779  1.8334
  999MOL0     H31850   7.062   4.110   8.887 -2.4701 -1.0576  0.3820
  999MOL0     H31851   7.269   4.206   8.970  1.4589  0.3097  2.9554
  999MOL0     H31852   7.429   4.735   9.298 -0.3800 -0.9414 -2.3498
  999MOL0     H31853   7.627   4.766   9.455  4.4045 -1.9218  1.7649
  999MOL0     H31854   9.513   4.195   9.855 -1.1759  0.0616  0.6756
  999MOL0     H31855   9.711   4.200   9.989  3.7266  0.8148 -1.3634
  999MOL0     H31856  10.048   4.318  10.113 -1.2187  1.4972  0.8540
  999MOL0     H31857  10.327   4.339  10.146  1.9413  0.4234  3.6695
  999MOL0     H31858  10.525   4.344  10.364  0.6614  1.0656 -3.1932
  999MOL0     H31859  10.396   4.424  10.459  1.9724 -0.4347  2.8716
  999MOL0     H31860  10.559   4.612  10.519 -0.3603 -1.2870  1.2447
  999MOL0     H31861  10.607   4.452  10.568 -1.3865 -2.2487 -0.4217
  999MOL0     H31862  10.705   4.614  10.328  1.6520 -0.5399 -0.4659
  999MOL0     H31863  10.766   4.457  10.363 -1.0014  0.7033 -1.5444
  999MOL0     H31864  10.795   4.713  10.509 -0.6073 -0.4562  2.5542
  999MOL0     H31865  10.830   4.570  10.601  0.7860  3.4285  1.8389
  999MOL0     H31866  11.194   4.612  10.418  0.0560  0.8984 -3.0590
  999MOL0     H31867  10.264   4.697  10.355 -3.0310  1.6607  0.3534
  999MOL0     H31868  10.023   4.696  10.308  0.5978  1.1348 -0.6997
 1000MOL0     O31869   7.566   4.753   3.370 -0.0005 -0.5357  0.8865
 1000MOL0     C31870   7.515   4.866   3.359  0.3247  0.3984  0.0302
 1000MOL0     O31871   7.372   4.890   3.357 -0.6853  0.2460 -0.3365
 1000MOL0     C31872   7.291   4.789   3.320  0.2474 -0.2664 -0.6159
 1000MOL0     C31873   7.291   4.729   3.197 -0.3754 -0.2730 -0.1098
 1000MOL0     C31874   7.200   4.628   3.159 -0.4708  0.1505 -0.3553
 1000MOL0     C31875   7.107   4.585   3.256  0.3970  0.5609 -0.1305
 1000MOL0     O31876   7.012   4.485   3.232  0.3186  0.3733  0.4772
 1000MOL0     C31877   6.878   4.529   3.202  0.1350  0.0790 -0.0403
 1000MOL0     C31878   6.792   4.410   3.176  0.1532  0.0295 -0.5890
 1000MOL0     C31879   6.651   4.442   3.118  0.4060  0.3416 -0.8076
 1000MOL0     C31880   6.562   4.312   3.120 -0.6279  0.4904  0.6552
 1000MOL0     C31881   6.416   4.351   3.095 -0.1683 -0.1053 -0.0840
 1000MOL0     C31882   6.352   4.229   3.064 -0.3158 -0.1989  0.9283
 1000MOL0     C31883   6.199   4.254   3.050  0.7973  0.2440 -0.0289
 1000MOL0     C31884   6.102   4.141   3.067  0.0470 -0.2828  0.1721
 1000MOL0     N31885   5.973   4.167   3.007 -0.8361  0.3190 -0.1755
 1000MOL0     C31886   5.872   4.248   3.065 -0.3325 -0.0342 -0.3882
 1000MOL0     C31887   5.783   4.254   2.970 -0.5261 -0.6474  1.1893
 1000MOL0     C31888   5.669   4.353   2.997  0.2213  0.0650  0.7675
 1000MOL0     C31889   5.541   4.272   2.980  0.1404 -0.1938 -0.0162
 1000MOL0     C31890   5.423   4.352   3.031 -0.6584 -0.4793  0.1955
 1000MOL0     C31891   5.289   4.285   3.003 -1.1944 -0.1025  0.5730
 1000MOL0     O31892   5.174   4.354   3.060  0.3647 -0.3196 -0.4720
 1000MOL0     C31893   5.046   4.301   3.046 -0.9670  0.3801 -0.7218
 1000MOL0     C31894   5.027   4.184   2.966  0.9690 -0.0644  0.0105
 1000MOL0     C31895   4.902   4.119   2.962  0.0409 -0.4411  0.0189
 1000MOL0     C31896   4.798   4.169   3.045  0.2027 -0.3129  0.0793
 1000MOL0     C31897   4.665   4.105   3.037  0.3456 -0.1081 -0.1211
 1000MOL0     O31898   4.559   4.173   3.099 -0.5866  0.2940 -0.4010
 1000MOL0     C31899   4.444   4.096   3.121  0.1228  0.3996 -0.3065
 1000MOL0     C31900   4.405   4.077   3.251 -0.6604  0.7868  0.1757
 1000MOL0     C31901   4.281   4.027   3.297 -0.7753  0.2608  0.0973
 1000MOL0     C31902   4.192   3.986   3.191  0.5418 -0.3624 -0.3856
 1000MOL0     O31903   4.059   3.943   3.214 -0.5344 -0.4711 -0.1996
 1000MOL0     C31904   4.030   3.895   3.350  0.4666  0.1978  0.0987
 1000MOL0     C31905   4.099   3.767   3.393 -0.0677 -0.2316  0.1361
 1000MOL0     C31906   4.108   3.663   3.276  0.7427  0.3247 -0.3300
 1000MOL0     C31907   4.178   3.530   3.344  0.7621  0.2265 -0.1458
 1000MOL0     C31908   4.227   3.429   3.241  1.0980  0.5146  0.1639
 1000MOL0     C31909   4.115   3.357   3.156 -0.3821  0.2427 -0.6269
 1000MOL0     C31910   4.133   3.205   3.175 -0.7619  0.4088  0.0309
 1000MOL0     C31911   4.041   3.128   3.083 -0.0958 -0.2334  0.0210
 1000MOL0    Cl31912   4.018   3.202   2.921  0.0278 -0.2419  0.2260
 1000MOL0     C31913   4.224   4.009   3.058  0.2657  0.3417  0.1649
 1000MOL0     C31914   4.348   4.062   3.028 -0.0924  0.4306  0.8940
 1000MOL0     O31915   4.657   4.001   2.980 -0.3116  0.6326  0.2994
 1000MOL0     C31916   4.814   4.286   3.122 -0.1399 -0.3489  0.1774
 1000MOL0     C31917   4.936   4.351   3.118 -0.5806  0.3841  0.0514
 1000MOL0     N31918   5.818   4.178   2.862 -0.2887  0.3752 -0.0319
 1000MOL0     N31919   5.937   4.124   2.885 -0.1383 -0.2967  0.2516
 1000MOL0     C31920   7.102   4.641   3.385 -0.1909 -0.5338  0.5490
 1000MOL0     C31921   7.193   4.755   3.406  0.3967  0.6283 -0.5032
 1000MOL0     C31922   7.595   4.994   3.356  0.4398  0.4401  0.7667
 1000MOL0     C31923   7.539   5.126   3.335  0.6587  0.0492 -0.0578
 1000MOL0     C31924   7.619   5.243   3.321  0.0745  0.1666 -0.1665
 1000MOL0     C31925   7.755   5.232   3.329  0.1105 -0.1252 -0.7832
 1000MOL0     O31926   7.820   5.350   3.315 -0.6424 -0.1130 -0.0121
 1000MOL0     C31927   7.963   5.363   3.329  0.0328  0.1594 -0.1113
 1000MOL0     C31928   8.007   5.312   3.472  0.3418  0.4384 -0.7711
 1000MOL0     C31929   8.073   5.427   3.555  0.6057  1.0197  0.0745
 1000MOL0     C31930   8.177   5.387   3.646  0.0214 -0.5497  0.6741
 1000MOL0     C31931   8.122   5.305   3.748 -0.6501  0.1593 -0.1012
 1000MOL0     C31932   8.073   5.243   3.835  0.4645  0.3869 -0.2940
 1000MOL0     C31933   7.812   5.106   3.349 -0.4836 -0.2385 -0.3106
 1000MOL0     C31934   7.738   4.989   3.362  0.3348  0.0113 -0.1388
 1000MOL0     H31935   7.358   4.779   3.127  1.2358 -2.6610 -0.3991
 1000MOL0     H31936   7.217   4.583   3.061  0.9779 -0.5187  0.1690
 1000MOL0     H31937   6.882   4.584   3.108  0.8323 -0.3946 -0.2914
 1000MOL0     H31938   6.829   4.577   3.287  1.2131  2.4322 -0.6819
 1000MOL0     H31939   6.784   4.355   3.270 -0.0651 -0.3793 -0.8471
 1000MOL0     H31940   6.845   4.343   3.107  1.2548 -0.8590  1.0579
 1000MOL0     H31941   6.656   4.503   3.027 -1.3934  2.1594  0.2281
 1000MOL0     H31942   6.603   4.501   3.197  3.2666  0.6155  0.8984
 1000MOL0     H31943   6.599   4.245   3.042  1.7788  2.5280 -0.0603
 1000MOL0     H31944   6.573   4.261   3.216 -1.4851  2.9816  2.1816
 1000MOL0     H31945   6.408   4.423   3.013 -0.0723  2.3404  1.9642
 1000MOL0     H31946   6.373   4.392   3.187  3.3679 -0.4333  1.8754
 1000MOL0     H31947   6.366   4.166   3.153  0.4115  2.6062  2.9523
 1000MOL0     H31948   6.390   4.175   2.977 -1.7071 -0.2413  0.3160
 1000MOL0     H31949   6.169   4.336   3.117 -0.2094  0.6203 -0.9081
 1000MOL0     H31950   6.194   4.297   2.950  2.0021 -0.0281 -0.2245
 1000MOL0     H31951   6.092   4.115   3.173  0.9150  1.8728  0.8322
 1000MOL0     H31952   6.134   4.048   3.019 -0.5567 -0.2922 -0.2151
 1000MOL0     H31953   5.874   4.302   3.159 -2.0099 -0.1670 -0.2507
 1000MOL0     H31954   5.665   4.431   2.921 -0.4857 -2.6100 -2.1504
 1000MOL0     H31955   5.676   4.390   3.100  2.1160 -0.1715  0.7669
 1000MOL0     H31956   5.541   4.179   3.038  1.7277  0.7701  1.6453
 1000MOL0     H31957   5.525   4.247   2.875 -1.7196  0.7215  0.0247
 1000MOL0     H31958   5.438   4.366   3.138 -1.9022  1.8534  0.1399
 1000MOL0     H31959   5.426   4.453   2.990  1.3262 -0.0724  1.2468
 1000MOL0     H31960   5.299   4.179   3.029  1.0965  0.0186  0.3950
 1000MOL0     H31961   5.273   4.295   2.895 -1.0612  1.7678  0.6948
 1000MOL0     H31962   5.102   4.135   2.905 -0.2671  0.8494 -2.3888
 1000MOL0     H31963   4.879   4.033   2.899  0.6663 -0.6073  0.0144
 1000MOL0     H31964   4.473   4.118   3.325 -1.9991  1.2633  1.1916
 1000MOL0     H31965   4.266   4.017   3.404  2.6919  0.9033  0.7499
 1000MOL0     H31966   3.921   3.884   3.345  0.4253  0.9939 -1.0673
 1000MOL0     H31967   4.057   3.972   3.423  0.8771  0.4189 -0.2846
 1000MOL0     H31968   4.051   3.732   3.485  1.5114  0.7086  1.3710
 1000MOL0     H31969   4.204   3.794   3.407 -0.4065  1.3451 -0.1663
 1000MOL0     H31970   4.157   3.696   3.184 -1.2002  0.1135 -1.5080
 1000MOL0     H31971   4.002   3.649   3.253  0.0830  0.7496  2.2133
 1000MOL0     H31972   4.267   3.563   3.400  1.8277 -1.8957 -0.5029
 1000MOL0     H31973   4.104   3.485   3.410 -0.8557 -1.2439 -2.7785
 1000MOL0     H31974   4.281   3.352   3.296 -1.1658 -0.3078  1.3692
 1000MOL0     H31975   4.300   3.472   3.171  1.8963 -1.0359  0.0167
 1000MOL0     H31976   4.132   3.391   3.053  4.0180 -0.2736 -0.2439
 1000MOL0     H31977   4.019   3.387   3.200  0.1433  1.3199 -0.1838
 1000MOL0     H31978   4.236   3.185   3.145 -0.8709 -3.1342  1.5033
 1000MOL0     H31979   4.113   3.173   3.277 -0.2308  2.2497  0.7630
 1000MOL0     H31980   3.943   3.119   3.132 -0.3355 -2.0635 -0.7428
 1000MOL0     H31981   4.073   3.024   3.087 -1.6553 -0.7916 -0.9351
 1000MOL0     H31982   4.164   3.984   2.972  0.9476 -0.2710 -0.1403
 1000MOL0     H31983   4.374   4.076   2.924 -1.2970 -1.3648  0.2879
 1000MOL0     H31984   4.735   4.345   3.166 -1.9790  0.3965 -3.6832
 1000MOL0     H31985   4.940   4.448   3.166  0.9559  0.0762  0.5813
 1000MOL0     H31986   7.026   4.609   3.454 -0.7915 -2.7191 -1.0268
 1000MOL0     H31987   7.184   4.818   3.494  2.2029 -0.6907  0.6913
 1000MOL0     H31988   7.431   5.130   3.332  0.6052 -1.3692 -1.5731
 1000MOL0     H31989   7.567   5.338   3.311 -3.1812 -1.3245  0.9826
 1000MOL0     H31990   8.004   5.461   3.303  1.3844 -0.8593 -2.1060
 1000MOL0     H31991   8.009   5.289   3.262 -2.5740 -2.2921  0.5968
 1000MOL0     H31992   7.920   5.285   3.532  1.0638  0.6748  0.4163
 1000MOL0     H31993   8.078   5.229   3.462 -0.8165 -0.7300  0.2540
 1000MOL0     H31994   7.999   5.493   3.600 -3.3758 -3.2946  0.6561
 1000MOL0     H31995   8.123   5.484   3.476  0.9423 -2.3817 -2.4505
 1000MOL0     H31996   8.263   5.337   3.600 -0.2976  0.9617 -1.7048
 1000MOL0     H31997   8.225   5.475   3.689  1.4178 -0.0297 -1.7475
 1000MOL0     H31998   8.014   5.194   3.910  2.1039  1.0423  1.5204
 1000MOL0     H31999   7.919   5.092   3.361 -0.4452  0.7961  0.7282
 1000MOL0     H32000   7.775   4.889   3.383  0.1509  0.4957  2.8070
 1001MOL0     O32001   2.778   8.274   0.883 -0.1277  0.3196  0.1871
 1001MOL0     C32002   2.822   8.160   0.884  0.4381 -1.8152 -0.0422
 1001MOL0     O32003   2.748   8.046   0.897  0.0062 -0.0169  0.2207
 1001MOL0     C32004   2.605   8.054   0.899  0.5781  0.0251 -0.4328
 1001MOL0     C32005   2.544   7.946   0.960 -0.2311 -0.1572  0.6635
 1001MOL0     C32006   2.405   7.940   0.962  0.2200 -0.4546 -0.4291
 1001MOL0     C32007   2.326   8.032   0.898 -0.0656 -0.4695 -0.4761
 1001MOL0     O32008   2.191   8.000   0.910 -0.4541  0.2711  0.0927
 1001MOL0     C32009   2.099   8.109   0.908 -0.2239  0.7565 -0.1129
 1001MOL0     C32010   1.964   8.076   0.976  0.1949  0.3652 -0.4704
 1001MOL0     C32011   1.891   7.960   0.894  0.3014 -0.9098 -0.0244
 1001MOL0     C32012   1.747   7.949   0.937  0.4469  0.0841 -0.2678
 1001MOL0     C32013   1.676   7.876   0.836  0.1013  1.0094  0.7181
 1001MOL0     C32014   1.527   7.840   0.865  0.4522 -0.4751 -0.2356
 1001MOL0     C32015   1.467   7.759   0.759 -0.2821  0.6366  0.0947
 1001MOL0     C32016   1.316   7.753   0.780 -0.0018 -0.2815 -0.7035
 1001MOL0     N32017   1.235   7.690   0.672  0.2196 -0.1238 -0.1311
 1001MOL0     C32018   1.195   7.559   0.664 -0.4295 -0.8519 -0.4015
 1001MOL0     C32019   1.105   7.541   0.565 -0.2881  0.0092 -0.2589
 1001MOL0     C32020   1.026   7.423   0.524  0.2710 -0.0169  0.3275
 1001MOL0     C32021   0.877   7.450   0.551  0.1952 -0.0104 -0.2216
 1001MOL0     C32022   0.788   7.328   0.533 -0.1063  0.5900  0.3240
 1001MOL0     C32023   0.639   7.356   0.525  0.4476  1.1809  0.1113
 1001MOL0     O32024   0.573   7.281   0.422 -0.5991  0.0959 -0.5445
 1001MOL0     C32025   0.437   7.268   0.421 -1.6115  0.5078 -0.5895
 1001MOL0     C32026   0.351   7.344   0.497  0.6177 -0.8960  0.5106
 1001MOL0     C32027   0.216   7.323   0.497  0.4086  0.3875  0.8093
 1001MOL0     C32028   0.159   7.213   0.411  0.1255 -0.5251  0.2386
 1001MOL0     C32029   0.008   7.192   0.405 -0.0831 -0.0770 -0.0613
 1001MOL0     O32030  -0.075   7.284   0.472  0.4960  0.2243 -0.5039
 1001MOL0     C32031  -0.208   7.263   0.468 -0.1917  1.2103  0.4336
 1001MOL0     C32032  -0.276   7.144   0.501 -0.7412  0.1781 -0.3124
 1001MOL0     C32033  -0.412   7.141   0.503 -0.4341  0.1647 -0.6458
 1001MOL0     C32034  -0.493   7.250   0.495 -0.1042  0.1897 -0.0240
 1001MOL0     O32035  -0.632   7.265   0.505  0.6064 -0.6085 -0.4282
 1001MOL0     C32036  -0.702   7.173   0.419  0.3838  0.1826 -0.5758
 1001MOL0     C32037  -0.841   7.217   0.370 -0.2685 -0.0501  0.3145
 1001MOL0     C32038  -0.929   7.263   0.486 -0.0508 -0.4697  0.5872
 1001MOL0     C32039  -1.074   7.270   0.432  0.4863 -0.7919 -0.1588
 1001MOL0     C32040  -1.155   7.324   0.552  0.8737  0.5356  0.3713
 1001MOL0     C32041  -1.244   7.437   0.491  0.0341 -0.0347 -0.1321
 1001MOL0     C32042  -1.289   7.527   0.597 -0.2588 -0.5611 -0.6293
 1001MOL0     C32043  -1.424   7.592   0.561  0.1974 -0.0743  0.2054
 1001MOL0    Cl32044  -1.495   7.698   0.691 -0.4828  0.0751  0.5779
 1001MOL0     C32045  -0.433   7.372   0.469 -0.3629  0.4464 -0.8230
 1001MOL0     C32046  -0.291   7.372   0.445 -0.1289 -0.2143  0.2140
 1001MOL0     O32047  -0.031   7.094   0.343  0.1317  0.1355 -0.4252
 1001MOL0     C32048   0.259   7.133   0.342 -0.3331  0.3086 -0.1733
 1001MOL0     C32049   0.394   7.164   0.342  0.7905 -0.3062 -0.0454
 1001MOL0     N32050   1.080   7.666   0.512  0.2245  0.3245  0.3512
 1001MOL0     N32051   1.169   7.749   0.567 -0.0217 -0.2893 -0.6944
 1001MOL0     C32052   2.386   8.145   0.843 -0.3048  0.0473 -0.0086
 1001MOL0     C32053   2.524   8.152   0.845 -0.0245  0.8692  0.1685
 1001MOL0     C32054   2.964   8.148   0.861 -0.2932 -0.1818  0.2133
 1001MOL0     C32055   3.020   8.024   0.878 -0.1181  0.6400  0.9902
 1001MOL0     C32056   3.155   7.997   0.846  0.7913 -0.2520 -0.3348
 1001MOL0     C32057   3.241   8.099   0.821  0.6923 -0.3900  0.8107
 1001MOL0     O32058   3.375   8.061   0.797 -0.5837 -0.1810 -0.5025
 1001MOL0     C32059   3.464   8.174   0.794  0.0827 -0.7131  0.3166
 1001MOL0     C32060   3.609   8.119   0.791 -0.3052  0.4121  0.4273
 1001MOL0     C32061   3.699   8.235   0.816 -1.0278  0.3439  0.9826
 1001MOL0     C32062   3.841   8.194   0.860  0.1309  0.6541 -0.0860
 1001MOL0     C32063   3.832   8.129   0.993 -1.1805 -0.4306 -0.1399
 1001MOL0     C32064   3.823   8.071   1.102 -0.0671 -0.3263 -0.2200
 1001MOL0     C32065   3.187   8.226   0.825 -0.5107  0.1211 -0.5281
 1001MOL0     C32066   3.051   8.252   0.838 -0.2531 -1.1456  0.1067
 1001MOL0     H32067   2.601   7.874   1.018  1.5379 -0.0507 -0.8739
 1001MOL0     H32068   2.366   7.844   0.994 -2.6355  0.2367 -1.5115
 1001MOL0     H32069   2.085   8.128   0.801  0.1377  0.4803 -0.2107
 1001MOL0     H32070   2.133   8.190   0.974 -0.9330 -0.0428  1.2791
 1001MOL0     H32071   1.903   8.166   0.986 -0.2309  0.2371 -1.6772
 1001MOL0     H32072   1.985   8.028   1.072 -1.7099 -0.6557 -0.4891
 1001MOL0     H32073   1.936   7.861   0.906 -1.2079 -1.4632  1.6204
 1001MOL0     H32074   1.899   7.980   0.787 -1.6607 -2.2068 -0.4646
 1001MOL0     H32075   1.745   7.893   1.031  2.1494 -0.5637 -0.5819
 1001MOL0     H32076   1.710   8.050   0.957  1.6876  0.4034  0.5069
 1001MOL0     H32077   1.720   7.777   0.819 -1.9410  0.0168  0.8255
 1001MOL0     H32078   1.676   7.921   0.736 -0.8759 -0.8322 -0.1733
 1001MOL0     H32079   1.471   7.933   0.881  1.9290  0.9761 -2.8260
 1001MOL0     H32080   1.522   7.771   0.950 -0.7510 -2.2151 -1.6461
 1001MOL0     H32081   1.477   7.804   0.660 -0.3173 -2.0273 -1.2126
 1001MOL0     H32082   1.515   7.662   0.746 -1.5122  0.3883 -3.8278
 1001MOL0     H32083   1.283   7.855   0.799  0.1642 -0.6028  1.5440
 1001MOL0     H32084   1.287   7.692   0.866  0.8254 -0.9553 -0.8888
 1001MOL0     H32085   1.239   7.478   0.722  1.8601  1.5687  1.5051
 1001MOL0     H32086   1.060   7.336   0.581  0.8492  0.9507  1.5122
 1001MOL0     H32087   1.048   7.406   0.418  0.9777  2.0089  0.1010
 1001MOL0     H32088   0.847   7.521   0.473  2.6491  0.3121 -0.9686
 1001MOL0     H32089   0.856   7.496   0.648  0.3245  0.7726 -0.5542
 1001MOL0     H32090   0.825   7.278   0.443 -1.5395  0.1108 -0.0137
 1001MOL0     H32091   0.795   7.257   0.616  1.3003 -1.5218 -1.4767
 1001MOL0     H32092   0.613   7.461   0.507  0.0567  0.8752 -1.2288
 1001MOL0     H32093   0.589   7.320   0.616 -0.8974 -1.4100 -1.5550
 1001MOL0     H32094   0.382   7.432   0.553  0.9189  0.6521 -1.9616
 1001MOL0     H32095   0.147   7.391   0.545  1.5348  2.5922 -0.5509
 1001MOL0     H32096  -0.216   7.054   0.508 -1.6780 -0.5006 -0.8343
 1001MOL0     H32097  -0.461   7.045   0.519  1.7051 -0.7967  0.6739
 1001MOL0     H32098  -0.720   7.077   0.468  0.4104 -1.2795 -3.2218
 1001MOL0     H32099  -0.638   7.143   0.335  2.0605  0.7197  0.4640
 1001MOL0     H32100  -0.892   7.131   0.326 -3.2730  0.5304  2.3746
 1001MOL0     H32101  -0.817   7.296   0.298  4.1463 -0.0845  1.4850
 1001MOL0     H32102  -0.894   7.359   0.527 -0.8177  0.3571 -0.6345
 1001MOL0     H32103  -0.921   7.184   0.561 -0.2494  0.8727  2.0655
 1001MOL0     H32104  -1.071   7.332   0.342  2.4502 -0.3031  0.1842
 1001MOL0     H32105  -1.107   7.171   0.399 -0.2734 -0.7034  0.3036
 1001MOL0     H32106  -1.098   7.357   0.639  1.5303 -0.4896  0.3505
 1001MOL0     H32107  -1.224   7.240   0.568  2.0223 -1.4140 -3.7019
 1001MOL0     H32108  -1.336   7.409   0.439  0.3745 -0.5186 -0.4844
 1001MOL0     H32109  -1.183   7.498   0.424 -1.9759  1.1042 -1.0125
 1001MOL0     H32110  -1.297   7.474   0.692 -0.4806 -0.2539 -0.4755
 1001MOL0     H32111  -1.205   7.595   0.608 -0.3054 -0.8919  2.4833
 1001MOL0     H32112  -1.490   7.509   0.534  1.8021 -1.4218  0.2562
 1001MOL0     H32113  -1.406   7.652   0.472 -0.7669  0.6708  0.4913
 1001MOL0     H32114  -0.493   7.462   0.466 -0.2510  0.5316 -0.4457
 1001MOL0     H32115  -0.236   7.465   0.438  0.4995 -0.4579  1.5122
 1001MOL0     H32116   0.237   7.053   0.272  0.8580 -0.4095  0.2504
 1001MOL0     H32117   0.465   7.111   0.279 -0.2794 -0.2937 -1.3001
 1001MOL0     H32118   2.328   8.231   0.811 -1.5970 -0.8393 -0.1454
 1001MOL0     H32119   2.573   8.235   0.795 -0.2892  0.5906 -0.5710
 1001MOL0     H32120   2.952   7.941   0.893  1.2232 -0.7071 -0.0047
 1001MOL0     H32121   3.191   7.896   0.829 -0.4319 -0.2810 -3.6510
 1001MOL0     H32122   3.441   8.243   0.876 -0.6497 -1.4387  0.7367
 1001MOL0     H32123   3.444   8.239   0.708 -0.3777  1.1221  1.7492
 1001MOL0     H32124   3.607   8.050   0.876 -0.3988 -2.2924 -1.6254
 1001MOL0     H32125   3.620   8.064   0.697 -0.9443  1.8952 -0.5656
 1001MOL0     H32126   3.667   8.297   0.900  0.6186  1.9471  0.4933
 1001MOL0     H32127   3.717   8.295   0.727  0.3640 -0.3265  0.7860
 1001MOL0     H32128   3.873   8.118   0.789 -2.1199 -1.3520  0.9011
 1001MOL0     H32129   3.908   8.279   0.878  0.9999 -0.4736  2.4602
 1001MOL0     H32130   3.825   8.019   1.195  0.0478 -1.3312 -0.7750
 1001MOL0     H32131   3.246   8.314   0.800 -0.1579 -0.1351 -0.6061
 1001MOL0     H32132   3.005   8.349   0.849 -0.6412 -1.5284  2.3792
 1002MOL0     O32133   6.353   7.022   2.469  0.3878  0.3318  0.5145
 1002MOL0     C32134   6.342   6.937   2.386 -0.0716 -0.5366  0.1861
 1002MOL0     O32135   6.224   6.890   2.329 -0.1862 -0.2916 -0.5035
 1002MOL0     C32136   6.107   6.946   2.377 -1.2117  0.7122 -0.4756
 1002MOL0     C32137   6.018   6.988   2.273  0.4933 -0.4125  0.6150
 1002MOL0     C32138   5.888   7.020   2.298  0.9924 -1.1610 -0.6707
 1002MOL0     C32139   5.851   7.017   2.437 -0.0870 -0.1544  0.7474
 1002MOL0     O32140   5.724   7.061   2.460  0.1133 -0.3841 -0.0074
 1002MOL0     C32141   5.702   7.160   2.566 -0.6465  0.6986  0.2212
 1002MOL0     C32142   5.557   7.209   2.555 -0.1490  0.5474 -0.0813
 1002MOL0     C32143   5.530   7.314   2.667  0.1966 -0.8556  0.4268
 1002MOL0     C32144   5.408   7.400   2.635 -0.1127 -0.4541 -0.5087
 1002MOL0     C32145   5.336   7.444   2.758  0.3060  0.0926 -0.2639
 1002MOL0     C32146   5.203   7.511   2.725 -1.0857  0.0910  0.2261
 1002MOL0     C32147   5.086   7.408   2.715  0.2828 -0.5445  0.5819
 1002MOL0     C32148   4.980   7.476   2.627 -0.7988  0.1700  0.3668
 1002MOL0     N32149   5.016   7.464   2.483  0.1266 -0.5677  0.0340
 1002MOL0     C32150   5.055   7.576   2.405 -0.0318  0.2731  0.6272
 1002MOL0     C32151   5.047   7.527   2.277  0.0821  0.4594  0.0281
 1002MOL0     C32152   5.088   7.605   2.156 -0.5316  0.2205  0.1865
 1002MOL0     C32153   4.980   7.617   2.053 -0.8807  0.0890  0.6896
 1002MOL0     C32154   5.036   7.693   1.934  0.7868  0.4431  0.3272
 1002MOL0     C32155   4.929   7.735   1.827 -0.0117 -0.8896  0.0619
 1002MOL0     O32156   4.848   7.834   1.893 -0.0995 -0.5010 -0.0734
 1002MOL0     C32157   4.715   7.803   1.917 -0.2132  0.3449  0.4849
 1002MOL0     C32158   4.661   7.846   2.033  0.3408  0.6029 -0.1195
 1002MOL0     C32159   4.527   7.829   2.060 -0.3315  0.0992  0.9060
 1002MOL0     C32160   4.433   7.788   1.960 -0.5371  0.2658  0.8239
 1002MOL0     C32161   4.284   7.768   1.986  0.2611 -0.4905  0.2869
 1002MOL0     O32162   4.241   7.797   2.111  0.1399 -0.1179  0.2755
 1002MOL0     C32163   4.125   7.731   2.145 -0.4193 -0.7287  0.0412
 1002MOL0     C32164   4.141   7.607   2.216  0.1250  0.2528  0.1730
 1002MOL0     C32165   4.033   7.526   2.235  0.7878 -0.2428  0.0345
 1002MOL0     C32166   3.902   7.570   2.204  0.5332  0.0494  0.5004
 1002MOL0     O32167   3.804   7.480   2.222  0.5590  0.6800 -0.0193
 1002MOL0     C32168   3.687   7.501   2.137  0.4860 -0.4668 -0.6042
 1002MOL0     C32169   3.595   7.386   2.157 -0.0012 -0.2376 -0.0980
 1002MOL0     C32170   3.664   7.257   2.103  0.5113 -0.7776 -0.3820
 1002MOL0     C32171   3.578   7.130   2.141 -1.2194  0.2143 -0.3918
 1002MOL0     C32172   3.655   6.997   2.139  0.4417  0.3449  0.3671
 1002MOL0     C32173   3.680   6.954   1.990  0.2566  0.3975  0.2995
 1002MOL0     C32174   3.771   6.835   1.964  0.1892 -0.7810 -0.2138
 1002MOL0     C32175   3.747   6.779   1.830 -1.1031  0.2066 -0.2586
 1002MOL0    Cl32176   3.886   6.665   1.797 -0.2035  0.1596  0.5417
 1002MOL0     C32177   3.887   7.700   2.152  0.1380 -0.0526  0.0889
 1002MOL0     C32178   4.004   7.776   2.115  0.7054 -1.1530 -0.9559
 1002MOL0     O32179   4.210   7.731   1.898  0.0894  0.4656 -0.3366
 1002MOL0     C32180   4.492   7.754   1.837 -0.5197 -0.0578  0.4256
 1002MOL0     C32181   4.629   7.761   1.812 -0.0955 -0.0445 -0.2550
 1002MOL0     N32182   4.996   7.397   2.276 -0.3721 -0.1605  0.5494
 1002MOL0     N32183   4.984   7.362   2.393 -0.2938  0.3155 -0.6251
 1002MOL0     C32184   5.937   6.975   2.539  0.7934 -0.5366  0.7461
 1002MOL0     C32185   6.071   6.943   2.508  0.4381 -1.2164  0.2393
 1002MOL0     C32186   6.468   6.887   2.335 -0.1778 -0.2091  0.2887
 1002MOL0     C32187   6.601   6.930   2.381  0.8759  0.7105 -0.7664
 1002MOL0     C32188   6.716   6.863   2.327  0.0584  0.4170 -1.0641
 1002MOL0     C32189   6.710   6.748   2.249 -0.2205 -1.2628 -0.1277
 1002MOL0     O32190   6.822   6.688   2.195  0.2745 -1.0438  0.7939
 1002MOL0     C32191   6.934   6.692   2.279 -0.4386 -0.0339  0.6072
 1002MOL0     C32192   7.034   6.606   2.209 -0.3129 -0.0684 -0.1715
 1002MOL0     C32193   7.147   6.574   2.314 -0.1991  0.7150  0.6073
 1002MOL0     C32194   7.250   6.480   2.234 -0.3851  0.3553 -0.3958
 1002MOL0     C32195   7.384   6.464   2.305  0.4405  0.2032 -0.5679
 1002MOL0     C32196   7.496   6.446   2.360  0.4867 -0.8281  0.0163
 1002MOL0     C32197   6.585   6.705   2.208 -0.3115  0.3566  0.6282
 1002MOL0     C32198   6.469   6.776   2.254  0.0893  0.6507  0.2626
 1002MOL0     H32199   6.054   6.977   2.171 -0.5685 -3.7064  0.4662
 1002MOL0     H32200   5.824   7.056   2.219 -1.0999 -0.1340  1.3828
 1002MOL0     H32201   5.760   7.251   2.550  0.1504  0.8647  3.3038
 1002MOL0     H32202   5.717   7.119   2.667  0.5564 -0.1621 -0.2738
 1002MOL0     H32203   5.483   7.130   2.570 -0.1878  0.9498  2.1862
 1002MOL0     H32204   5.542   7.248   2.454  2.0317  1.5978 -0.0634
 1002MOL0     H32205   5.611   7.388   2.664 -0.2179 -0.4200 -1.1658
 1002MOL0     H32206   5.529   7.269   2.767  1.1915  0.8172  1.2354
 1002MOL0     H32207   5.428   7.489   2.575 -0.3695 -0.0901 -0.0602
 1002MOL0     H32208   5.329   7.343   2.587 -1.5702 -0.7086  2.0042
 1002MOL0     H32209   5.389   7.521   2.816 -2.6990  2.1290  0.0096
 1002MOL0     H32210   5.309   7.363   2.827 -1.4411 -0.5440 -1.6317
 1002MOL0     H32211   5.214   7.569   2.633 -3.4890 -1.0971 -0.9026
 1002MOL0     H32212   5.177   7.584   2.803 -0.3274  1.6182 -0.9017
 1002MOL0     H32213   5.123   7.310   2.682 -0.5624 -1.7189  2.8616
 1002MOL0     H32214   5.043   7.399   2.815 -0.1521 -0.6047  0.3928
 1002MOL0     H32215   4.971   7.583   2.650  1.3237  0.0981  1.8249
 1002MOL0     H32216   4.884   7.427   2.642 -0.6366 -0.4611 -0.5875
 1002MOL0     H32217   5.076   7.674   2.444 -2.4409  0.4045  1.7720
 1002MOL0     H32218   5.180   7.560   2.118  0.0710  0.7224  1.0353
 1002MOL0     H32219   5.133   7.695   2.200  1.8147 -1.4948  1.5025
 1002MOL0     H32220   4.895   7.677   2.086 -0.4209  0.6019  0.9611
 1002MOL0     H32221   4.942   7.520   2.019 -0.4746  0.6900 -1.6898
 1002MOL0     H32222   5.091   7.784   1.959 -0.4632  0.8121  1.8886
 1002MOL0     H32223   5.096   7.618   1.881 -0.6191 -0.1762 -0.4608
 1002MOL0     H32224   4.873   7.649   1.788 -0.4433 -0.4125 -0.3907
 1002MOL0     H32225   4.988   7.784   1.748  0.0829  0.2154  0.7892
 1002MOL0     H32226   4.729   7.884   2.108 -3.0130  0.7893  3.1292
 1002MOL0     H32227   4.479   7.865   2.150  2.7514  2.2201  1.8518
 1002MOL0     H32228   4.239   7.572   2.245  0.4406  0.5074 -0.5809
 1002MOL0     H32229   4.046   7.430   2.285  0.0035 -0.5846 -0.3938
 1002MOL0     H32230   3.707   7.507   2.030 -4.2236  2.1276 -1.5942
 1002MOL0     H32231   3.644   7.594   2.174  1.9644 -0.4488  1.2496
 1002MOL0     H32232   3.502   7.401   2.101  0.4606 -1.4536 -1.2477
 1002MOL0     H32233   3.578   7.390   2.265  1.7389  1.2249  0.1665
 1002MOL0     H32234   3.766   7.256   2.142  1.5093 -2.1420 -2.8167
 1002MOL0     H32235   3.668   7.262   1.994 -1.7798 -1.5777 -0.5639
 1002MOL0     H32236   3.532   7.152   2.238 -2.3953  2.8283 -1.4485
 1002MOL0     H32237   3.496   7.120   2.070 -0.4006 -4.2509 -0.9958
 1002MOL0     H32238   3.586   6.927   2.185 -0.6083  1.5000  0.6040
 1002MOL0     H32239   3.745   7.014   2.199  0.5728  0.0059  0.2657
 1002MOL0     H32240   3.723   7.042   1.942  2.2943 -0.8227 -0.2380
 1002MOL0     H32241   3.582   6.940   1.943 -0.8317  1.4268  2.1740
 1002MOL0     H32242   3.874   6.875   1.960 -0.3189  0.6811  0.4338
 1002MOL0     H32243   3.767   6.763   2.046  0.9151  0.7477  1.2200
 1002MOL0     H32244   3.734   6.848   1.746  0.7223 -0.9925 -1.5983
 1002MOL0     H32245   3.664   6.709   1.839  2.0236 -3.9333 -0.3391
 1002MOL0     H32246   3.793   7.739   2.114  0.6665  0.1992 -1.0092
 1002MOL0     H32247   3.997   7.865   2.054 -2.6227 -0.9234 -0.4391
 1002MOL0     H32248   4.433   7.733   1.748  2.2445 -0.9952 -1.3137
 1002MOL0     H32249   4.665   7.746   1.710  2.4797  1.0494  0.4033
 1002MOL0     H32250   5.900   6.970   2.641 -2.0186  0.7644 -0.0855
 1002MOL0     H32251   6.130   6.912   2.594 -1.3565  0.5908  2.2484
 1002MOL0     H32252   6.601   7.006   2.459 -1.1525  0.0467 -0.0303
 1002MOL0     H32253   6.811   6.910   2.352  0.1296 -0.0554 -0.4183
 1002MOL0     H32254   6.915   6.659   2.381  1.1713  0.9630  1.2560
 1002MOL0     H32255   6.975   6.793   2.286  0.1450 -0.2638  0.5886
 1002MOL0     H32256   6.984   6.513   2.182  0.8347 -1.7848  3.1138
 1002MOL0     H32257   7.076   6.649   2.117 -0.2579 -0.3086 -0.2579
 1002MOL0     H32258   7.101   6.534   2.405  0.0481  2.7745  1.6900
 1002MOL0     H32259   7.199   6.665   2.344  2.5067  0.0726 -1.6346
 1002MOL0     H32260   7.202   6.383   2.218  1.8381 -0.6161 -1.7349
 1002MOL0     H32261   7.260   6.517   2.132 -1.2185  1.0362 -0.2374
 1002MOL0     H32262   7.589   6.430   2.411  0.6434 -0.0911 -0.0285
 1002MOL0     H32263   6.579   6.629   2.130  2.1756  1.2538 -0.5269
 1002MOL0     H32264   6.373   6.751   2.211 -0.0619  1.1090  0.3270
 1003MOL0     O32265   5.410   8.053   1.372  0.5274 -0.0781  0.1813
 1003MOL0     C32266   5.423   7.934   1.402  0.1262 -0.2960 -0.1567
 1003MOL0     O32267   5.321   7.846   1.441  0.1634 -0.1508  1.0597
 1003MOL0     C32268   5.193   7.892   1.435 -0.6299 -0.8153 -0.5027
 1003MOL0     C32269   5.136   7.956   1.547  0.1108  0.0859 -0.8110
 1003MOL0     C32270   5.001   7.995   1.553 -0.4055 -0.4568 -0.3715
 1003MOL0     C32271   4.928   7.981   1.431  0.2755  0.2875 -0.4075
 1003MOL0     O32272   4.792   8.020   1.426 -0.3870  0.4119 -1.0374
 1003MOL0     C32273   4.700   7.911   1.437  0.8536  0.0426  0.2105
 1003MOL0     C32274   4.564   7.978   1.479 -0.8901  0.2942 -0.1449
 1003MOL0     C32275   4.443   7.885   1.476  0.3570  0.6717 -1.1869
 1003MOL0     C32276   4.313   7.956   1.528  0.2093 -0.0286 -0.1224
 1003MOL0     C32277   4.202   7.864   1.559  0.3527 -0.2945  0.3479
 1003MOL0     C32278   4.087   7.944   1.627  0.6779 -0.1152 -0.1786
 1003MOL0     C32279   3.955   7.875   1.662  0.2051 -1.4771 -0.5361
 1003MOL0     C32280   3.866   7.980   1.730  0.2854  0.3014 -0.2308
 1003MOL0     N32281   3.795   8.052   1.619 -0.5883  0.8441  0.3515
 1003MOL0     C32282   3.668   8.025   1.575 -0.1721  0.3777  1.0549
 1003MOL0     C32283   3.644   8.112   1.470  0.1420  0.9230 -0.6234
 1003MOL0     C32284   3.515   8.125   1.403  0.9728  0.1705  0.2308
 1003MOL0     C32285   3.508   8.030   1.289  1.0394 -0.1915  0.1573
 1003MOL0     C32286   3.413   8.074   1.185 -1.1360  0.2290  0.5258
 1003MOL0     C32287   3.276   8.091   1.247  0.2569  0.3136  0.4739
 1003MOL0     O32288   3.221   7.981   1.319 -0.1093 -0.1652 -0.6412
 1003MOL0     C32289   3.086   7.942   1.318 -0.7055  0.1389 -0.1394
 1003MOL0     C32290   3.056   7.833   1.395 -0.2674 -0.1498  0.4651
 1003MOL0     C32291   2.932   7.779   1.396  0.1517  0.6275 -0.6134
 1003MOL0     C32292   2.832   7.832   1.315  0.5012 -0.5649 -0.6007
 1003MOL0     C32293   2.698   7.768   1.316 -0.0613 -0.1475 -0.0032
 1003MOL0     O32294   2.680   7.672   1.407 -0.1841  0.3682  0.7907
 1003MOL0     C32295   2.556   7.609   1.398  0.0119 -0.2472  0.5839
 1003MOL0     C32296   2.456   7.655   1.488  0.7059  0.3379  0.6864
 1003MOL0     C32297   2.334   7.583   1.486  0.4149  0.0317 -0.2976
 1003MOL0     C32298   2.309   7.482   1.393 -0.2726 -0.1680 -0.5667
 1003MOL0     O32299   2.180   7.432   1.402 -0.2423  0.6914  0.4397
 1003MOL0     C32300   2.124   7.358   1.292 -0.2363 -0.1138  0.4386
 1003MOL0     C32301   1.975   7.337   1.301  1.1756  0.0439  0.5343
 1003MOL0     C32302   1.921   7.258   1.180 -1.0044  0.0564 -0.8507
 1003MOL0     C32303   1.769   7.218   1.205  0.6750  0.0286 -1.0644
 1003MOL0     C32304   1.725   7.126   1.087  0.2662  0.6929  0.0673
 1003MOL0     C32305   1.582   7.071   1.119  0.4104  0.8951 -0.1748
 1003MOL0     C32306   1.541   6.979   0.988  0.2638  0.0905  0.0523
 1003MOL0     C32307   1.634   6.850   0.972  0.4604  0.0112  0.4220
 1003MOL0    Cl32308   1.538   6.735   0.888 -0.0689 -0.3011  0.1472
 1003MOL0     C32309   2.406   7.444   1.299  0.1479  0.1732  0.8900
 1003MOL0     C32310   2.532   7.505   1.308  0.2317  0.4736  0.0554
 1003MOL0     O32311   2.607   7.819   1.250 -0.3113  0.2680 -0.0502
 1003MOL0     C32312   2.861   7.950   1.243  0.4048 -0.4070 -0.7622
 1003MOL0     C32313   2.989   8.002   1.239  0.0367  0.9899 -0.0743
 1003MOL0     N32314   3.765   8.185   1.458 -0.0684  0.4077  0.6992
 1003MOL0     N32315   3.850   8.146   1.536 -0.0728  0.1448 -0.6016
 1003MOL0     C32316   4.985   7.929   1.314  0.9197 -0.4087 -0.6714
 1003MOL0     C32317   5.113   7.873   1.322 -0.0569 -0.0317  0.0683
 1003MOL0     C32318   5.558   7.881   1.396 -0.0886 -0.0778 -0.4788
 1003MOL0     C32319   5.580   7.743   1.420  0.5239 -0.9023  0.6111
 1003MOL0     C32320   5.704   7.696   1.414 -0.0108  0.4596 -0.5621
 1003MOL0     C32321   5.810   7.772   1.401 -0.0398 -0.4087 -0.5604
 1003MOL0     O32322   5.942   7.736   1.401  0.5003 -0.4824 -0.0755
 1003MOL0     C32323   5.976   7.651   1.512  0.0042  0.0657 -0.3741
 1003MOL0     C32324   6.016   7.732   1.637  0.3950 -0.0230  0.4970
 1003MOL0     C32325   6.012   7.667   1.771 -0.4077 -0.2290  0.3183
 1003MOL0     C32326   5.972   7.746   1.900  0.1238 -0.0689  0.6558
 1003MOL0     C32327   6.030   7.883   1.908 -0.0475 -0.1312  0.3139
 1003MOL0     C32328   6.073   7.995   1.922  0.1887 -1.2836  1.1857
 1003MOL0     C32329   5.795   7.907   1.374 -0.3898 -0.9945  0.4851
 1003MOL0     C32330   5.668   7.965   1.356  0.0285 -0.3501 -0.8038
 1003MOL0     H32331   5.198   7.975   1.635 -0.2564  0.6062 -0.6548
 1003MOL0     H32332   4.957   8.016   1.650  1.7378  2.0394  0.1715
 1003MOL0     H32333   4.731   7.838   1.513 -1.2739 -1.5164 -0.3310
 1003MOL0     H32334   4.682   7.860   1.342  0.5247 -1.9948  1.3012
 1003MOL0     H32335   4.545   8.069   1.420 -1.5315  0.8470  0.8847
 1003MOL0     H32336   4.577   8.007   1.583  0.3407  0.0658 -0.2279
 1003MOL0     H32337   4.466   7.795   1.534  1.8344  1.6597 -0.1745
 1003MOL0     H32338   4.429   7.851   1.373 -2.3870  1.8280 -1.2807
 1003MOL0     H32339   4.331   8.028   1.608 -4.3892  3.1307 -1.5089
 1003MOL0     H32340   4.282   8.025   1.449  0.8718 -0.4974 -0.8071
 1003MOL0     H32341   4.234   7.786   1.629 -0.7141 -0.9006  0.1853
 1003MOL0     H32342   4.158   7.820   1.470 -2.9167 -1.3437  2.3082
 1003MOL0     H32343   4.067   8.028   1.559 -3.7372  0.0393  1.0543
 1003MOL0     H32344   4.126   7.983   1.721  0.7959 -0.7059  0.0251
 1003MOL0     H32345   3.914   7.836   1.569 -1.6829  3.3917 -2.0962
 1003MOL0     H32346   3.964   7.804   1.744  0.7173 -0.6437  0.1441
 1003MOL0     H32347   3.925   8.057   1.781  1.3131  0.0324 -0.9984
 1003MOL0     H32348   3.795   7.924   1.793 -0.3080  1.5628  0.2593
 1003MOL0     H32349   3.589   7.965   1.618  0.3697 -0.8904  0.3428
 1003MOL0     H32350   3.499   8.226   1.367 -2.2530 -0.1316  0.5005
 1003MOL0     H32351   3.436   8.112   1.478 -0.7733 -0.8563 -1.6677
 1003MOL0     H32352   3.478   7.929   1.318  1.6549 -0.9462 -1.6592
 1003MOL0     H32353   3.609   8.021   1.247  0.7923 -1.8560 -0.1617
 1003MOL0     H32354   3.458   8.162   1.139  0.2675 -1.1670 -0.8964
 1003MOL0     H32355   3.407   8.001   1.104  2.2057  0.8553 -0.4471
 1003MOL0     H32356   3.212   8.119   1.163 -0.0309 -2.7107 -0.4464
 1003MOL0     H32357   3.286   8.172   1.319  1.1633 -1.7235  2.7948
 1003MOL0     H32358   3.142   7.784   1.439  0.0217 -0.0141  0.0525
 1003MOL0     H32359   2.919   7.683   1.445  2.1135  1.2740  1.3058
 1003MOL0     H32360   2.464   7.742   1.552  1.0958  0.1423  0.9130
 1003MOL0     H32361   2.257   7.600   1.561 -1.9656 -2.1957 -2.0518
 1003MOL0     H32362   2.173   7.261   1.283  1.1856  0.6571 -0.6965
 1003MOL0     H32363   2.155   7.411   1.201 -1.7585  0.9181  0.4856
 1003MOL0     H32364   1.925   7.434   1.304  1.5834  0.2543  0.6221
 1003MOL0     H32365   1.959   7.280   1.392 -0.5908  0.3191  0.4236
 1003MOL0     H32366   1.974   7.163   1.168 -4.4984 -2.3320  0.8203
 1003MOL0     H32367   1.926   7.318   1.088 -0.5345 -0.1920 -0.9897
 1003MOL0     H32368   1.756   7.171   1.302  0.2347  1.9180 -0.1536
 1003MOL0     H32369   1.701   7.304   1.210  0.7804  0.0381  0.9647
 1003MOL0     H32370   1.793   7.045   1.061 -0.3386  0.6331 -1.4227
 1003MOL0     H32371   1.720   7.180   0.993  3.2826 -2.0795 -1.8912
 1003MOL0     H32372   1.505   7.149   1.127 -2.6933 -1.8039 -1.4231
 1003MOL0     H32373   1.569   7.008   1.207 -0.6734  0.5795 -0.5451
 1003MOL0     H32374   1.433   6.962   0.999 -0.1735  2.5926  0.1839
 1003MOL0     H32375   1.555   7.042   0.899 -3.5792 -1.1408 -1.6383
 1003MOL0     H32376   1.654   6.804   1.069 -0.5201  0.7456  0.9912
 1003MOL0     H32377   1.729   6.857   0.919  2.1498 -3.7406  2.5308
 1003MOL0     H32378   2.391   7.358   1.234 -0.8933  3.0250 -3.0249
 1003MOL0     H32379   2.617   7.482   1.246 -2.3442 -1.7664 -2.9643
 1003MOL0     H32380   2.788   7.999   1.180  1.9348  2.7731 -0.2540
 1003MOL0     H32381   3.013   8.086   1.174 -0.2955 -0.9282 -2.8303
 1003MOL0     H32382   4.924   7.917   1.225 -1.9701  2.1145  0.8218
 1003MOL0     H32383   5.150   7.812   1.240 -0.6398  0.3233 -0.4607
 1003MOL0     H32384   5.500   7.675   1.448  1.2493 -1.3826  1.5554
 1003MOL0     H32385   5.716   7.588   1.414 -3.5495 -0.1461 -4.3319
 1003MOL0     H32386   6.058   7.581   1.490 -1.1043 -1.1124 -0.8382
 1003MOL0     H32387   5.897   7.584   1.545  0.6777 -1.1395 -1.1481
 1003MOL0     H32388   6.120   7.760   1.619  0.2596 -0.0323 -0.3665
 1003MOL0     H32389   5.951   7.819   1.632  0.1037  0.0050  3.1659
 1003MOL0     H32390   6.116   7.642   1.792 -0.5905 -2.8212 -1.3678
 1003MOL0     H32391   5.962   7.570   1.760  0.6179 -0.7290 -0.0518
 1003MOL0     H32392   5.864   7.755   1.905  0.2730  1.8474  1.2709
 1003MOL0     H32393   6.008   7.681   1.981  0.2164 -1.2982 -0.3462
 1003MOL0     H32394   6.101   8.097   1.938  2.2945 -1.3893 -1.1187
 1003MOL0     H32395   5.878   7.970   1.346 -0.2134  0.3320  3.5590
 1003MOL0     H32396   5.661   8.069   1.324 -1.7736 -0.4917 -0.9925
 1004MOL0     O32397   2.613   0.504   9.542 -0.8165 -0.1141  0.5673
 1004MOL0     C32398   2.710   0.567   9.570  0.2368 -0.2325  0.3396
 1004MOL0     O32399   2.735   0.613   9.700  0.9427 -0.2036  0.7683
 1004MOL0     C32400   2.634   0.578   9.792 -0.5966  0.7783 -0.8608
 1004MOL0     C32401   2.665   0.488   9.893 -0.4039 -0.9019 -0.5973
 1004MOL0     C32402   2.580   0.464   9.999  0.4429 -0.0582 -0.5358
 1004MOL0     C32403   2.445   0.514   9.988 -0.1010  0.8559  0.0820
 1004MOL0     O32404   2.352   0.468  10.076  0.6567 -0.1028  0.1156
 1004MOL0     C32405   2.212   0.516  10.054  0.6216  0.3223  0.1688
 1004MOL0     C32406   2.132   0.485  10.177 -0.9334 -0.0116  0.1658
 1004MOL0     C32407   1.998   0.553  10.164  0.7193  0.3603  1.1568
 1004MOL0     C32408   1.923   0.511  10.296  0.6176 -0.1105 -0.7692
 1004MOL0     C32409   1.908   0.630  10.393 -0.0151  0.1971  0.1496
 1004MOL0     C32410   1.810   0.612  10.509  0.2124  0.5262 -0.2596
 1004MOL0     C32411   1.793   0.745  10.587  0.2095  0.0416  1.1990
 1004MOL0     C32412   1.694   0.743  10.707 -0.4991  0.4046  0.4274
 1004MOL0     N32413   1.698   0.872  10.778  0.0579 -1.1542  0.1163
 1004MOL0     C32414   1.602   0.972  10.766  0.3634  0.5317 -0.2983
 1004MOL0     C32415   1.628   1.068  10.860 -0.0094 -0.2467  0.9083
 1004MOL0     C32416   1.540   1.171  10.921 -0.0052  0.2967  0.6386
 1004MOL0     C32417   1.460   1.118  11.040 -0.4299  1.2514 -0.4866
 1004MOL0     C32418   1.358   1.224  11.092 -0.4297  0.0741  0.4599
 1004MOL0     C32419   1.237   1.156  11.172  0.1342  0.8290  0.0199
 1004MOL0     O32420   1.163   1.264  11.230 -0.1742  1.1328 -0.4965
 1004MOL0     C32421   1.027   1.256  11.201  0.4831 -0.7924 -1.0167
 1004MOL0     C32422   0.942   1.201  11.294  0.6965 -0.2610 -0.3921
 1004MOL0     C32423   0.805   1.198  11.275 -0.2604 -0.3769 -0.3807
 1004MOL0     C32424   0.755   1.231  11.147  0.5364 -0.5411  0.7164
 1004MOL0     C32425   0.610   1.231  11.123  0.2096 -0.2738 -0.0503
 1004MOL0     O32426   0.566   1.283  11.007 -0.3246 -0.8204 -0.0662
 1004MOL0     C32427   0.431   1.291  10.990  0.2476 -0.2313 -0.7344
 1004MOL0     C32428   0.368   1.234  10.875 -0.0578  0.1314  0.2509
 1004MOL0     C32429   0.227   1.242  10.857  0.5631  0.5341 -0.0178
 1004MOL0     C32430   0.147   1.316  10.941  0.3696 -1.0655 -0.0244
 1004MOL0     O32431   0.006   1.335  10.938  0.8429 -0.5204 -0.3083
 1004MOL0     C32432  -0.066   1.285  10.824  0.0692  0.0499  0.2621
 1004MOL0     C32433  -0.113   1.138  10.845  1.3360 -0.7359  1.3418
 1004MOL0     C32434  -0.214   1.131  10.965  0.2660  0.6861 -0.8266
 1004MOL0     C32435  -0.235   0.980  11.006  0.0734 -0.2422  0.5613
 1004MOL0     C32436  -0.313   0.979  11.143  0.0110 -0.5130 -0.2440
 1004MOL0     C32437  -0.464   1.003  11.139 -0.0821 -0.5320 -0.6210
 1004MOL0     C32438  -0.548   0.883  11.084 -0.3234 -0.2031 -0.4054
 1004MOL0     C32439  -0.702   0.894  11.088 -0.4798  0.2019  0.1238
 1004MOL0    Cl32440  -0.765   0.968  11.243 -0.4532 -0.1166  0.0981
 1004MOL0     C32441   0.213   1.375  11.062 -0.0324  1.2497 -0.0547
 1004MOL0     C32442   0.350   1.362  11.078 -0.1383  0.2479 -0.1809
 1004MOL0     O32443   0.531   1.189  11.216 -0.6559  0.9256 -0.3022
 1004MOL0     C32444   0.836   1.284  11.051  0.2290 -0.0145 -0.2065
 1004MOL0     C32445   0.971   1.297  11.077  0.0597  0.2309 -0.6096
 1004MOL0     N32446   1.748   1.026  10.919  0.7464 -0.0689 -0.8772
 1004MOL0     N32447   1.789   0.920  10.861  0.2500  0.4033  1.1633
 1004MOL0     C32448   2.415   0.608   9.881  0.1262 -0.5563 -0.4011
 1004MOL0     C32449   2.511   0.640   9.793 -0.7062  0.7290  1.1134
 1004MOL0     C32450   2.815   0.598   9.473  0.3201 -0.3664  0.8081
 1004MOL0     C32451   2.928   0.683   9.506  0.4602  0.6197 -0.1980
 1004MOL0     C32452   3.034   0.704   9.413  0.5632  1.5800  0.6240
 1004MOL0     C32453   3.032   0.634   9.289  0.1320  0.6483 -0.0704
 1004MOL0     O32454   3.129   0.644   9.200  0.0695 -0.0106 -0.1591
 1004MOL0     C32455   3.248   0.718   9.236  0.1796 -0.6290  0.5286
 1004MOL0     C32456   3.334   0.710   9.101  0.0127 -0.2986 -0.7882
 1004MOL0     C32457   3.471   0.755   9.121 -0.1870 -0.4343  0.0210
 1004MOL0     C32458   3.542   0.794   8.989 -0.6699  0.8961 -0.4687
 1004MOL0     C32459   3.681   0.850   9.015  0.2601  0.2838  0.4314
 1004MOL0     C32460   3.798   0.888   9.032  0.4599 -0.2996 -0.0314
 1004MOL0     C32461   2.919   0.560   9.256  0.6918 -0.2299 -0.0900
 1004MOL0     C32462   2.811   0.546   9.349 -0.0694 -0.1467  0.2439
 1004MOL0     H32463   2.762   0.440   9.902 -0.2516 -0.4628  0.2269
 1004MOL0     H32464   2.609   0.402  10.083 -1.1575 -0.3489 -0.1630
 1004MOL0     H32465   2.180   0.470   9.960 -2.0060  0.0676  1.0878
 1004MOL0     H32466   2.204   0.623  10.038  0.1808  0.7235  2.6849
 1004MOL0     H32467   2.188   0.525  10.262  0.4962 -0.7788 -0.3823
 1004MOL0     H32468   2.110   0.380  10.195 -1.3547  0.3055  1.6482
 1004MOL0     H32469   1.952   0.512  10.073  2.0743 -1.1098  1.0854
 1004MOL0     H32470   2.011   0.660  10.146 -2.9787  0.7934  0.3309
 1004MOL0     H32471   1.826   0.475  10.260 -1.2390  2.5733  1.1460
 1004MOL0     H32472   1.966   0.424  10.347  1.4004  0.3259 -0.6850
 1004MOL0     H32473   1.890   0.713  10.325  0.0565 -1.4322 -1.9349
 1004MOL0     H32474   2.002   0.662  10.438 -0.6281  1.1476  0.7792
 1004MOL0     H32475   1.843   0.531  10.575 -1.7288 -0.4104 -0.3830
 1004MOL0     H32476   1.722   0.578  10.453  0.6412  0.3260 -0.8145
 1004MOL0     H32477   1.895   0.770  10.618  0.7880 -1.3428  0.4709
 1004MOL0     H32478   1.769   0.822  10.512  1.2037 -0.8544 -0.0652
 1004MOL0     H32479   1.735   0.668  10.775 -1.4699 -0.2193  0.3510
 1004MOL0     H32480   1.591   0.717  10.681 -0.3955  1.6854 -1.4414
 1004MOL0     H32481   1.516   0.958  10.702  0.7121 -0.4085 -0.5806
 1004MOL0     H32482   1.478   1.213  10.841  4.1217 -0.3779 -3.2940
 1004MOL0     H32483   1.603   1.254  10.953 -0.3197  1.6751 -2.0291
 1004MOL0     H32484   1.530   1.092  11.120  1.0837 -1.4090 -2.5096
 1004MOL0     H32485   1.415   1.026  11.001  1.4277  0.1765 -0.1844
 1004MOL0     H32486   1.405   1.307  11.145 -0.8752  1.1820 -0.8088
 1004MOL0     H32487   1.314   1.271  11.004  2.1418  0.8684 -0.4897
 1004MOL0     H32488   1.273   1.086  11.248 -3.5880 -0.2159  1.0445
 1004MOL0     H32489   1.177   1.091  11.107  1.9560 -0.7273 -0.2043
 1004MOL0     H32490   0.982   1.177  11.392 -2.6777  2.6400  1.9775
 1004MOL0     H32491   0.743   1.164  11.358  0.1683  0.7882  0.4432
 1004MOL0     H32492   0.437   1.184  10.809  0.4184 -0.5443  1.2450
 1004MOL0     H32493   0.176   1.199  10.772 -0.3462  3.1639 -0.9021
 1004MOL0     H32494  -0.002   1.299  10.737  0.2007  1.1006  0.5125
 1004MOL0     H32495  -0.154   1.347  10.808 -2.2149 -2.6946  1.2263
 1004MOL0     H32496  -0.022   1.077  10.849  0.2524 -2.5423  0.1426
 1004MOL0     H32497  -0.172   1.110  10.757 -0.8110  3.9511  0.9939
 1004MOL0     H32498  -0.310   1.181  10.952  0.4175  1.4138  0.6445
 1004MOL0     H32499  -0.165   1.182  11.048  2.2308 -1.9411 -0.2212
 1004MOL0     H32500  -0.276   0.927  10.920  2.8624 -0.3977 -0.7697
 1004MOL0     H32501  -0.137   0.938  11.026 -0.2341 -0.3112  2.0952
 1004MOL0     H32502  -0.274   1.049  11.217 -2.8397  0.5810  0.3569
 1004MOL0     H32503  -0.303   0.879  11.188  1.5983 -0.5223 -0.5822
 1004MOL0     H32504  -0.491   1.097  11.089  1.0323  1.7669  2.7165
 1004MOL0     H32505  -0.487   1.006  11.246  1.3404 -0.7818 -0.2904
 1004MOL0     H32506  -0.523   0.857  10.980 -1.7040 -0.7300 -0.6242
 1004MOL0     H32507  -0.529   0.795  11.146 -0.1277  0.5507  0.6238
 1004MOL0     H32508  -0.737   0.791  11.074  0.6480 -0.1318 -0.2761
 1004MOL0     H32509  -0.740   0.950  11.002  0.6790 -1.4010 -1.5008
 1004MOL0     H32510   0.147   1.422  11.135 -2.5984 -0.4704 -1.0898
 1004MOL0     H32511   0.400   1.422  11.154 -1.1354  1.5553 -0.5026
 1004MOL0     H32512   0.813   1.304  10.947  4.6170 -1.6479 -1.7512
 1004MOL0     H32513   1.040   1.349  11.011 -0.6601  2.5935  0.4134
 1004MOL0     H32514   2.319   0.659   9.876  0.9511  1.1782  0.5806
 1004MOL0     H32515   2.504   0.722   9.723  1.2639  1.5879  1.8403
 1004MOL0     H32516   2.931   0.724   9.606 -0.1618  0.3617 -0.0746
 1004MOL0     H32517   3.125   0.757   9.438  0.9181  0.3444  2.1174
 1004MOL0     H32518   3.290   0.668   9.324  0.5328 -0.0089  0.7222
 1004MOL0     H32519   3.226   0.822   9.259 -4.6895 -1.1920 -0.6503
 1004MOL0     H32520   3.342   0.604   9.073  1.9500 -0.1769 -0.8674
 1004MOL0     H32521   3.281   0.765   9.024  0.4904  2.3478  0.6623
 1004MOL0     H32522   3.526   0.677   9.174  0.6670 -0.9503 -1.5702
 1004MOL0     H32523   3.465   0.850   9.176 -1.3776 -0.1603 -0.5411
 1004MOL0     H32524   3.564   0.700   8.937 -1.5669 -2.1982  4.0544
 1004MOL0     H32525   3.477   0.859   8.930 -1.5968  0.5779  0.1823
 1004MOL0     H32526   3.902   0.913   9.040 -0.5206  4.2740  0.9596
 1004MOL0     H32527   2.905   0.510   9.160  1.0243  0.6277 -0.5932
 1004MOL0     H32528   2.721   0.489   9.330  0.2629 -1.6008  2.6935
 1005MOL0     O32529   7.295   4.275   9.788  0.8635 -0.0202 -0.7367
 1005MOL0     C32530   7.373   4.373   9.768  0.5603 -0.0438  0.0051
 1005MOL0     O32531   7.342   4.495   9.722  0.7907  0.0278  0.1701
 1005MOL0     C32532   7.208   4.529   9.694 -0.4362 -0.2414  0.2348
 1005MOL0     C32533   7.102   4.513   9.776  0.5301  0.0982  0.6276
 1005MOL0     C32534   6.969   4.542   9.735  0.0629 -0.2747  0.9011
 1005MOL0     C32535   6.947   4.602   9.603  0.6332 -0.0941 -1.0899
 1005MOL0     O32536   6.828   4.645   9.550  0.1979 -0.1536 -0.4567
 1005MOL0     C32537   6.719   4.650   9.646  0.1966  0.0256 -0.2805
 1005MOL0     C32538   6.586   4.673   9.570  0.2081 -0.2412 -0.0048
 1005MOL0     C32539   6.472   4.718   9.662  0.3105 -0.3463 -0.0067
 1005MOL0     C32540   6.476   4.651   9.806  0.5642 -0.1321  0.2845
 1005MOL0     C32541   6.354   4.693   9.886 -0.1121 -0.6044 -0.2800
 1005MOL0     C32542   6.367   4.834   9.937 -0.5903  0.4167  0.5227
 1005MOL0     C32543   6.244   4.881  10.017  0.1303 -0.4933 -0.3476
 1005MOL0     C32544   6.115   4.915   9.943  0.1323 -0.3958  0.8281
 1005MOL0     N32545   6.055   4.797   9.880  0.0169 -0.8329  0.3774
 1005MOL0     C32546   6.000   4.693   9.952 -0.7234  0.2775  0.1902
 1005MOL0     C32547   5.957   4.612   9.852 -0.5579  0.3423  0.0740
 1005MOL0     C32548   5.890   4.477   9.865 -0.1006 -0.6824  0.8792
 1005MOL0     C32549   5.754   4.517   9.907 -0.3591 -0.0424  0.5246
 1005MOL0     C32550   5.675   4.382   9.911 -0.1295 -0.3427 -0.4043
 1005MOL0     C32551   5.523   4.406   9.955 -0.4775  0.5644  0.1968
 1005MOL0     O32552   5.436   4.397   9.845 -0.2515  0.6801  0.0889
 1005MOL0     C32553   5.298   4.371   9.862 -0.1440  0.5273 -0.3447
 1005MOL0     C32554   5.216   4.345   9.747  0.0458  0.1158 -0.0594
 1005MOL0     C32555   5.071   4.314   9.765 -0.3561  0.9559  0.1297
 1005MOL0     C32556   5.017   4.306   9.891  0.8934  0.1620 -0.1832
 1005MOL0     C32557   4.872   4.282   9.918 -0.2142  0.0449 -0.2317
 1005MOL0     O32558   4.783   4.274   9.812 -0.3399  0.4072  0.0866
 1005MOL0     C32559   4.647   4.240   9.827 -0.2010  0.0440 -0.4557
 1005MOL0     C32560   4.567   4.298   9.929  0.0963  0.6654  0.0453
 1005MOL0     C32561   4.428   4.261   9.947 -0.4256 -0.7301 -0.3807
 1005MOL0     C32562   4.368   4.176   9.856  0.3152  0.3631  0.1539
 1005MOL0     O32563   4.242   4.119   9.871  0.2438  0.5180 -0.1232
 1005MOL0     C32564   4.136   4.193   9.925  0.4401 -0.5809 -0.0718
 1005MOL0     C32565   4.011   4.122   9.873 -0.5795  0.4054  0.0356
 1005MOL0     C32566   3.965   3.993   9.941 -0.3736  0.5145 -0.4847
 1005MOL0     C32567   3.848   3.923   9.867 -0.2384 -0.5218 -0.4863
 1005MOL0     C32568   3.770   3.800   9.935  0.1918 -0.0809  0.8548
 1005MOL0     C32569   3.704   3.849  10.067  0.3856  0.6875  0.1299
 1005MOL0     C32570   3.575   3.770  10.107 -0.4636  0.1267  0.3207
 1005MOL0     C32571   3.503   3.841  10.223  0.3122  0.7252 -0.0113
 1005MOL0    Cl32572   3.406   3.728  10.313 -0.1258 -0.1028  0.2640
 1005MOL0     C32573   4.451   4.120   9.752 -0.2498  0.3703 -0.0300
 1005MOL0     C32574   4.590   4.158   9.732  0.3492 -0.3084 -1.2347
 1005MOL0     O32575   4.841   4.258  10.032  0.2363  1.0061  0.5745
 1005MOL0     C32576   5.105   4.331   9.997  0.5473 -0.1808 -0.6276
 1005MOL0     C32577   5.241   4.361   9.983  0.6851  0.0345 -0.3244
 1005MOL0     N32578   5.981   4.673   9.727  0.0311 -0.1793  0.2268
 1005MOL0     N32579   6.023   4.793   9.748  0.2823  0.4442 -0.8041
 1005MOL0     C32580   7.062   4.621   9.528  0.8578 -0.9432  0.6500
 1005MOL0     C32581   7.190   4.588   9.568  0.0943  0.2418 -0.2857
 1005MOL0     C32582   7.512   4.357   9.810  0.4014  0.0937 -0.8790
 1005MOL0     C32583   7.552   4.255   9.906 -0.0121  0.1604  1.2340
 1005MOL0     C32584   7.684   4.248   9.949 -0.9075 -0.9021 -0.6398
 1005MOL0     C32585   7.782   4.345   9.901  0.5865 -0.4703  0.0057
 1005MOL0     O32586   7.909   4.368   9.944  0.0145  0.6235 -0.5764
 1005MOL0     C32587   7.969   4.272  10.034  0.7341  0.0259 -0.9855
 1005MOL0     C32588   8.114   4.305  10.074 -0.0086 -0.0240  0.3855
 1005MOL0     C32589   8.195   4.349   9.942 -0.9548 -0.4269  0.5739
 1005MOL0     C32590   8.342   4.374   9.991  0.0959 -0.8868 -0.0850
 1005MOL0     C32591   8.414   4.407   9.866  0.0934  0.1722  0.6724
 1005MOL0     C32592   8.475   4.439   9.765 -0.4313  0.1394 -0.4042
 1005MOL0     C32593   7.744   4.442   9.809 -0.3765  0.2685  0.5430
 1005MOL0     C32594   7.610   4.451   9.769  0.0179  0.6477  0.4257
 1005MOL0     H32595   7.117   4.479   9.878 -1.0877 -2.0637  0.2012
 1005MOL0     H32596   6.886   4.525   9.802 -1.2859 -2.6706 -1.1883
 1005MOL0     H32597   6.735   4.723   9.726 -2.1589 -1.5856  1.8160
 1005MOL0     H32598   6.711   4.557   9.703 -2.2650  0.1134 -0.3455
 1005MOL0     H32599   6.563   4.577   9.522 -0.3096 -1.4798  2.5766
 1005MOL0     H32600   6.595   4.740   9.484 -1.3425  0.8777  0.6542
 1005MOL0     H32601   6.383   4.700   9.601  0.6261 -0.5345 -0.4201
 1005MOL0     H32602   6.475   4.826   9.679 -1.8320 -0.1160 -0.7034
 1005MOL0     H32603   6.469   4.543   9.786  2.1555  0.1147 -1.9989
 1005MOL0     H32604   6.563   4.662   9.871 -1.9002  2.7095  3.4828
 1005MOL0     H32605   6.327   4.617   9.959 -0.1166 -1.1418 -0.8360
 1005MOL0     H32606   6.271   4.696   9.814  0.4806  0.0564 -0.9636
 1005MOL0     H32607   6.386   4.903   9.854 -0.9897 -2.0519 -1.7631
 1005MOL0     H32608   6.458   4.839   9.997  0.8110 -0.1328 -1.4447
 1005MOL0     H32609   6.234   4.798  10.088 -1.6907 -0.7112 -0.7916
 1005MOL0     H32610   6.263   4.967  10.081 -1.7885 -1.3409  1.4917
 1005MOL0     H32611   6.123   4.993   9.866  3.4867 -0.1028  1.3506
 1005MOL0     H32612   6.042   4.946  10.019  1.2444 -2.2281  2.7500
 1005MOL0     H32613   5.997   4.687  10.060  2.1886 -5.1950  0.3591
 1005MOL0     H32614   5.950   4.420   9.936  3.6118  2.5410  0.6742
 1005MOL0     H32615   5.904   4.425   9.770  1.2147  2.7764 -1.0338
 1005MOL0     H32616   5.714   4.587   9.833  2.3899  0.9968 -0.1042
 1005MOL0     H32617   5.745   4.570  10.002  0.7840  0.3127  0.4439
 1005MOL0     H32618   5.687   4.322   9.820  0.6013 -4.0991  1.9393
 1005MOL0     H32619   5.722   4.320   9.988 -0.2284 -0.7914 -0.7035
 1005MOL0     H32620   5.525   4.490  10.026  0.2692 -0.2263  1.1445
 1005MOL0     H32621   5.500   4.315  10.012 -0.1975  0.8464  0.7762
 1005MOL0     H32622   5.263   4.350   9.649  0.3714 -0.2867  0.0706
 1005MOL0     H32623   5.013   4.302   9.674  0.3960  0.4713 -0.3012
 1005MOL0     H32624   4.619   4.364   9.998  1.7107 -0.4542 -0.0518
 1005MOL0     H32625   4.381   4.295  10.038 -0.7098  1.0161 -1.1391
 1005MOL0     H32626   4.125   4.298   9.896 -0.3756 -0.6682 -0.1247
 1005MOL0     H32627   4.132   4.192  10.034 -1.7739 -2.6820 -0.0938
 1005MOL0     H32628   4.033   4.107   9.767 -1.5165  0.8201 -0.2227
 1005MOL0     H32629   3.923   4.184   9.892  0.9173  2.6755 -0.0901
 1005MOL0     H32630   3.941   4.026  10.042  0.0348  1.9288 -0.8183
 1005MOL0     H32631   4.048   3.923   9.933 -0.5188  0.3953 -1.0236
 1005MOL0     H32632   3.769   3.993   9.840 -0.5426  0.0602  1.6981
 1005MOL0     H32633   3.895   3.885   9.776  3.5503  1.8577  0.2509
 1005MOL0     H32634   3.840   3.716   9.946 -1.3435 -1.6499 -0.6022
 1005MOL0     H32635   3.697   3.756   9.866  0.5830  2.7661 -1.5754
 1005MOL0     H32636   3.678   3.955  10.065 -0.8561  0.3798 -0.8975
 1005MOL0     H32637   3.777   3.838  10.148 -0.0203 -1.5425  0.2678
 1005MOL0     H32638   3.508   3.776  10.021  1.3003  1.1651 -1.0478
 1005MOL0     H32639   3.584   3.663  10.128 -0.2667 -0.1182 -0.9647
 1005MOL0     H32640   3.435   3.921  10.192  1.4532  2.2361  1.1975
 1005MOL0     H32641   3.580   3.876  10.293  0.4939  1.8317 -0.7367
 1005MOL0     H32642   4.431   4.037   9.685 -1.2443  1.3418 -0.9912
 1005MOL0     H32643   4.658   4.121   9.655 -1.5631 -2.9970 -1.7769
 1005MOL0     H32644   5.067   4.325  10.099  0.8765 -2.3849 -0.5885
 1005MOL0     H32645   5.298   4.378  10.073  1.1530  2.5453 -1.0122
 1005MOL0     H32646   7.050   4.656   9.426 -1.2401  1.5850  1.6594
 1005MOL0     H32647   7.272   4.630   9.511  0.6476  0.8774  0.9394
 1005MOL0     H32648   7.486   4.178   9.945 -1.0745 -0.0915 -0.9089
 1005MOL0     H32649   7.720   4.178  10.023 -3.6046 -0.7326  0.9581
 1005MOL0     H32650   7.963   4.176   9.981  1.4103 -0.8837  0.5148
 1005MOL0     H32651   7.921   4.250  10.129 -3.0406 -0.2743 -2.7596
 1005MOL0     H32652   8.118   4.386  10.147 -4.4949  1.9059 -1.1487
 1005MOL0     H32653   8.167   4.221  10.121  4.0500  1.7780 -0.5881
 1005MOL0     H32654   8.166   4.448   9.907  0.0504 -0.2712  0.1523
 1005MOL0     H32655   8.191   4.273   9.863  1.9030  1.1364 -1.2222
 1005MOL0     H32656   8.343   4.461  10.057 -0.6134 -0.7235 -0.2780
 1005MOL0     H32657   8.391   4.295  10.049  0.0524 -0.6022  0.3404
 1005MOL0     H32658   8.535   4.455   9.678 -0.1122 -0.4725 -0.3063
 1005MOL0     H32659   7.811   4.517   9.768 -0.5752  0.0821 -0.1324
 1005MOL0     H32660   7.583   4.538   9.709  0.9123  0.8019  0.2409
 1006MOL0     O32661   2.128   7.729   2.709  0.4810 -0.0492 -0.0476
 1006MOL0     C32662   2.126   7.840   2.664 -0.0924  0.1160  0.3177
 1006MOL0     O32663   2.012   7.901   2.603  0.0347  0.7661  0.2206
 1006MOL0     C32664   1.891   7.845   2.610 -0.0555  0.3874  1.1210
 1006MOL0     C32665   1.776   7.922   2.649 -0.7784  0.3329 -0.4620
 1006MOL0     C32666   1.648   7.863   2.651 -0.5699  0.1612  0.9873
 1006MOL0     C32667   1.625   7.728   2.625  0.3786 -0.3402 -0.7970
 1006MOL0     O32668   1.490   7.690   2.629 -0.5950 -0.7777  0.0664
 1006MOL0     C32669   1.436   7.587   2.547  0.4537 -0.4734  0.5182
 1006MOL0     C32670   1.311   7.532   2.613  0.1551 -0.2447  0.2813
 1006MOL0     C32671   1.243   7.439   2.519 -0.4974 -0.2119  1.3148
 1006MOL0     C32672   1.140   7.353   2.583  0.4619  0.1907  0.2086
 1006MOL0     C32673   1.005   7.420   2.619  0.6931 -1.4361  0.9727
 1006MOL0     C32674   0.908   7.421   2.498  0.0048 -0.0351  0.0932
 1006MOL0     C32675   0.778   7.494   2.537 -0.2639 -0.3356  0.9888
 1006MOL0     C32676   0.680   7.417   2.634 -0.1902 -0.1072  0.0043
 1006MOL0     N32677   0.637   7.283   2.580  0.5815 -0.1196  0.2689
 1006MOL0     C32678   0.700   7.166   2.618  0.1348  0.1361 -0.2153
 1006MOL0     C32679   0.657   7.075   2.531  0.1749 -0.4360 -0.2337
 1006MOL0     C32680   0.712   6.936   2.520 -0.2535 -0.3085  0.1464
 1006MOL0     C32681   0.730   6.867   2.653  0.2387  0.3189 -0.1893
 1006MOL0     C32682   0.769   6.717   2.646  0.2485  0.2586  0.5095
 1006MOL0     C32683   0.664   6.631   2.563 -0.0367  0.1781 -0.4042
 1006MOL0     O32684   0.530   6.656   2.605  0.3698 -0.4548 -0.1366
 1006MOL0     C32685   0.423   6.593   2.538 -0.2470  0.3088 -0.1087
 1006MOL0     C32686   0.420   6.558   2.402  0.4009  0.2387 -0.3474
 1006MOL0     C32687   0.308   6.488   2.349 -0.3740 -0.1143  0.3265
 1006MOL0     C32688   0.192   6.472   2.424  0.5646 -0.8890 -0.7216
 1006MOL0     C32689   0.076   6.401   2.379  0.6266 -0.3304 -0.6830
 1006MOL0     O32690   0.085   6.319   2.271  0.3784  0.3195 -0.4951
 1006MOL0     C32691  -0.027   6.304   2.202  0.7407  0.4442  0.2134
 1006MOL0     C32692  -0.076   6.391   2.102 -0.3204 -0.5830  0.6149
 1006MOL0     C32693  -0.208   6.373   2.045 -0.5581 -0.2945 -0.1288
 1006MOL0     C32694  -0.277   6.259   2.081 -0.0889 -0.6740 -0.2575
 1006MOL0     O32695  -0.407   6.263   2.028  0.0150  0.5106 -0.0247
 1006MOL0     C32696  -0.501   6.161   2.075 -0.5002 -0.0535  0.4565
 1006MOL0     C32697  -0.638   6.191   2.022 -0.8846 -0.3337 -0.3038
 1006MOL0     C32698  -0.734   6.085   2.074  0.3524 -0.5314 -0.0737
 1006MOL0     C32699  -0.876   6.099   2.012  0.3973 -0.4644  0.1010
 1006MOL0     C32700  -0.971   5.987   2.061  0.1203 -0.1090 -0.2969
 1006MOL0     C32701  -1.104   6.029   2.016 -0.2389  0.3282 -0.0170
 1006MOL0     C32702  -1.218   5.967   2.100  0.2797  0.1279 -0.3762
 1006MOL0     C32703  -1.211   5.812   2.098 -0.0407 -0.4102 -0.8961
 1006MOL0    Cl32704  -1.344   5.762   2.216 -0.0055  0.1197  0.0135
 1006MOL0     C32705  -0.217   6.161   2.165  0.5122 -0.8571  1.1214
 1006MOL0     C32706  -0.102   6.189   2.231  0.9080  0.5057 -1.2170
 1006MOL0     O32707  -0.025   6.425   2.441 -0.0871  0.4714 -0.4515
 1006MOL0     C32708   0.188   6.525   2.554 -0.7576 -0.0035  0.2903
 1006MOL0     C32709   0.302   6.585   2.612 -0.3011 -0.4959 -0.6283
 1006MOL0     N32710   0.550   7.136   2.463  0.4624  0.7059 -0.3290
 1006MOL0     N32711   0.541   7.260   2.490 -0.6818 -0.1252  0.5120
 1006MOL0     C32712   1.736   7.653   2.596 -0.2762  0.1286  0.3054
 1006MOL0     C32713   1.862   7.705   2.586  0.0476  0.2243  0.1381
 1006MOL0     C32714   2.244   7.928   2.671 -0.4189  0.2073 -0.7931
 1006MOL0     C32715   2.247   8.048   2.606 -0.1418 -0.0859  1.3072
 1006MOL0     C32716   2.364   8.128   2.602  0.4044 -0.0107  0.4142
 1006MOL0     C32717   2.470   8.107   2.690 -0.3311 -0.4030  0.6762
 1006MOL0     O32718   2.587   8.184   2.688  0.9006  0.0401 -0.1386
 1006MOL0     C32719   2.627   8.246   2.569  0.4088  0.1003  0.2478
 1006MOL0     C32720   2.765   8.302   2.570  0.0652  0.6856 -0.4068
 1006MOL0     C32721   2.777   8.434   2.648 -0.0177 -0.7252  0.3632
 1006MOL0     C32722   2.827   8.547   2.569  0.4122 -0.3156  0.0463
 1006MOL0     C32723   2.948   8.527   2.491 -0.5681 -0.2095 -0.5470
 1006MOL0     C32724   3.042   8.525   2.413  0.4943 -0.3532  0.3048
 1006MOL0     C32725   2.457   7.991   2.780  0.5545 -0.6559  0.3529
 1006MOL0     C32726   2.352   7.900   2.753 -0.3824 -0.4499 -0.0555
 1006MOL0     H32727   1.796   8.025   2.675  1.7981 -0.3059  0.3185
 1006MOL0     H32728   1.561   7.925   2.672 -1.2117 -1.0644  2.0584
 1006MOL0     H32729   1.503   7.501   2.542  1.1919  0.0153  1.6728
 1006MOL0     H32730   1.411   7.635   2.451 -2.1786  0.8111  1.7424
 1006MOL0     H32731   1.246   7.617   2.634 -1.0652 -0.6030 -1.7381
 1006MOL0     H32732   1.347   7.485   2.705  2.4924  2.6446  0.9777
 1006MOL0     H32733   1.324   7.380   2.476 -1.4091  0.7625 -2.0627
 1006MOL0     H32734   1.204   7.497   2.434 -1.0280  2.1714  3.0653
 1006MOL0     H32735   1.122   7.267   2.517  2.5617  0.0922 -0.2992
 1006MOL0     H32736   1.197   7.313   2.667  0.2535 -1.0783 -0.2220
 1006MOL0     H32737   1.016   7.522   2.656  0.3618 -1.6977  1.7993
 1006MOL0     H32738   0.955   7.364   2.698 -2.3196  0.7042  0.7314
 1006MOL0     H32739   0.882   7.319   2.468  1.0156  0.7869 -4.1578
 1006MOL0     H32740   0.959   7.469   2.414 -2.3168  0.8427 -0.8850
 1006MOL0     H32741   0.806   7.596   2.565  1.2111 -0.5764  0.4485
 1006MOL0     H32742   0.737   7.514   2.438  1.7015  0.4328  0.2898
 1006MOL0     H32743   0.590   7.477   2.648  0.1340 -0.1275  2.4938
 1006MOL0     H32744   0.730   7.401   2.730  2.3353 -0.7139 -1.3255
 1006MOL0     H32745   0.768   7.153   2.701 -2.3464 -0.2568  1.8942
 1006MOL0     H32746   0.806   6.930   2.465 -1.0642 -2.7772 -1.1286
 1006MOL0     H32747   0.635   6.881   2.465  0.9854 -1.6032 -0.3299
 1006MOL0     H32748   0.629   6.862   2.695  0.6493 -0.7671  0.7222
 1006MOL0     H32749   0.796   6.915   2.725 -0.9386 -2.0363  2.6337
 1006MOL0     H32750   0.866   6.704   2.598  0.0148  0.9530 -0.1738
 1006MOL0     H32751   0.774   6.683   2.750 -2.6707  2.9989  1.7314
 1006MOL0     H32752   0.686   6.525   2.583  1.9500  0.4424 -1.0260
 1006MOL0     H32753   0.685   6.624   2.456 -0.9067 -3.3488 -0.4695
 1006MOL0     H32754   0.509   6.567   2.341  1.6834 -2.3651  0.9864
 1006MOL0     H32755   0.321   6.443   2.251  1.3446 -2.1065  1.4131
 1006MOL0     H32756  -0.021   6.478   2.068  0.0060 -0.5595  1.1868
 1006MOL0     H32757  -0.244   6.446   1.974 -1.9418  1.3508  2.1282
 1006MOL0     H32758  -0.512   6.167   2.183  1.4679  1.7894  0.6174
 1006MOL0     H32759  -0.462   6.063   2.046  1.4656  0.8075  0.0165
 1006MOL0     H32760  -0.635   6.195   1.913 -0.7170  1.7005 -0.2662
 1006MOL0     H32761  -0.658   6.289   2.066 -2.2760 -1.9906  3.1045
 1006MOL0     H32762  -0.749   6.102   2.181 -0.2242  1.4824 -0.4266
 1006MOL0     H32763  -0.693   5.988   2.044  0.3734 -1.2252  2.0727
 1006MOL0     H32764  -0.913   6.198   2.040  1.4341 -0.0253 -0.0198
 1006MOL0     H32765  -0.867   6.092   1.903  0.9046 -1.2287  0.1778
 1006MOL0     H32766  -0.972   5.980   2.170  0.6186 -3.1120 -0.3865
 1006MOL0     H32767  -0.950   5.882   2.035  0.8337 -0.0368 -0.0227
 1006MOL0     H32768  -1.116   5.989   1.914 -1.1732  0.4629  0.0350
 1006MOL0     H32769  -1.123   6.136   2.009  0.5910  0.3895 -1.8708
 1006MOL0     H32770  -1.207   6.002   2.203  4.0041 -0.7823 -0.3081
 1006MOL0     H32771  -1.321   5.992   2.074  0.2679 -0.6123 -1.0798
 1006MOL0     H32772  -1.116   5.772   2.135 -0.3014  0.1347  0.4392
 1006MOL0     H32773  -1.236   5.769   2.001  1.6468 -3.4852 -0.1007
 1006MOL0     H32774  -0.266   6.068   2.191 -1.1385 -0.0528  1.0526
 1006MOL0     H32775  -0.064   6.117   2.302  0.6132 -0.6110 -2.1654
 1006MOL0     H32776   0.104   6.526   2.623 -1.3976  0.0130 -0.4732
 1006MOL0     H32777   0.300   6.620   2.715  0.1234  0.7182 -1.0118
 1006MOL0     H32778   1.726   7.547   2.575 -0.9328  0.0921  0.7835
 1006MOL0     H32779   1.942   7.636   2.559 -1.6766 -1.7997 -0.0274
 1006MOL0     H32780   2.159   8.073   2.547  0.8380  2.8127  0.9261
 1006MOL0     H32781   2.372   8.214   2.536 -1.7715 -2.0577 -2.8140
 1006MOL0     H32782   2.558   8.328   2.547 -0.5766 -0.1760  2.1194
 1006MOL0     H32783   2.619   8.171   2.489  0.1556  1.4922 -1.0700
 1006MOL0     H32784   2.837   8.230   2.610  0.1638  0.9283 -0.1533
 1006MOL0     H32785   2.795   8.322   2.467  0.4984  3.9411  0.2561
 1006MOL0     H32786   2.849   8.413   2.727 -0.0639 -1.6883  0.1650
 1006MOL0     H32787   2.680   8.460   2.692  1.4939  1.4339  2.6918
 1006MOL0     H32788   2.747   8.569   2.498  0.2344 -1.5477 -0.1502
 1006MOL0     H32789   2.835   8.636   2.633  0.3718  0.9709 -1.6675
 1006MOL0     H32790   3.121   8.529   2.341  0.2780  2.9670  0.1170
 1006MOL0     H32791   2.527   7.966   2.859  1.7221 -4.1451 -1.5565
 1006MOL0     H32792   2.357   7.818   2.824  1.5405  0.8274  1.4140
 1007MOL0     O32793   6.115   9.632   8.291 -0.2214 -0.0075  0.3783
 1007MOL0     C32794   6.122   9.742   8.224  0.9159  0.0518  0.5029
 1007MOL0     O32795   6.233   9.792   8.169 -0.6359 -0.2852 -0.2758
 1007MOL0     C32796   6.362   9.733   8.184 -0.0134 -0.1254 -0.4326
 1007MOL0     C32797   6.431   9.704   8.064 -0.0325  0.5499 -0.7052
 1007MOL0     C32798   6.566   9.682   8.071 -0.4700 -0.1269 -0.0064
 1007MOL0     C32799   6.639   9.671   8.190 -0.4929  0.3561 -0.2466
 1007MOL0     O32800   6.769   9.677   8.203  0.1003 -0.2686  0.6481
 1007MOL0     C32801   6.846   9.782   8.129 -0.2038  1.0071 -0.9863
 1007MOL0     C32802   6.988   9.763   8.185 -1.0646 -0.1160  0.1514
 1007MOL0     C32803   7.095   9.810   8.076 -0.3048  0.2064 -0.5029
 1007MOL0     C32804   7.223   9.835   8.148  0.0145  0.6591 -0.4236
 1007MOL0     C32805   7.342   9.873   8.054  0.2586  0.1434  0.7184
 1007MOL0     C32806   7.471   9.881   8.138 -0.2495  0.0703 -0.9423
 1007MOL0     C32807   7.606   9.905   8.065  0.4117 -0.3534  0.7142
 1007MOL0     C32808   7.732   9.873   8.149  0.1581  0.0960  0.0600
 1007MOL0     N32809   7.748   9.725   8.158 -0.4338  1.0785  0.1441
 1007MOL0     C32810   7.714   9.644   8.267 -0.5922 -0.1229 -0.2581
 1007MOL0     C32811   7.753   9.518   8.232  0.5698  1.1938  0.5646
 1007MOL0     C32812   7.723   9.399   8.320  0.6870  0.4532  0.5213
 1007MOL0     C32813   7.580   9.353   8.289 -0.8978 -0.6852 -0.5084
 1007MOL0     C32814   7.530   9.245   8.378  0.3153 -0.5554 -0.1385
 1007MOL0     C32815   7.389   9.197   8.341  0.4801 -0.6292  0.4589
 1007MOL0     O32816   7.291   9.301   8.360  0.0394  0.1667 -0.0060
 1007MOL0     C32817   7.157   9.271   8.345  0.3073 -0.4101  0.2679
 1007MOL0     C32818   7.105   9.160   8.286 -0.6784  0.1321  0.6531
 1007MOL0     C32819   6.967   9.147   8.258 -0.0415 -0.5680  0.4716
 1007MOL0     C32820   6.876   9.247   8.290  0.1013  0.0688  0.7553
 1007MOL0     C32821   6.734   9.227   8.264  0.7469 -0.0970  0.7619
 1007MOL0     O32822   6.641   9.296   8.341  0.1233 -0.3831 -0.7364
 1007MOL0     C32823   6.506   9.267   8.330 -0.1707  0.2464  0.2786
 1007MOL0     C32824   6.449   9.161   8.403  0.2740  0.3229  0.7091
 1007MOL0     C32825   6.312   9.135   8.396 -0.1499 -0.1532  0.4977
 1007MOL0     C32826   6.235   9.220   8.308  0.7065  0.2808 -0.7523
 1007MOL0     O32827   6.095   9.203   8.321  0.7570  0.0554  0.3195
 1007MOL0     C32828   6.004   9.283   8.240 -0.0431 -0.3053  0.4492
 1007MOL0     C32829   5.856   9.241   8.247  0.6219 -0.4593  0.5777
 1007MOL0     C32830   5.774   9.373   8.226 -0.0867  1.0280 -0.2780
 1007MOL0     C32831   5.620   9.349   8.243  0.0751  0.1482 -0.5360
 1007MOL0     C32832   5.542   9.472   8.227  0.1527 -0.5545  0.7075
 1007MOL0     C32833   5.389   9.434   8.232 -0.6945  0.2397  0.5692
 1007MOL0     C32834   5.295   9.546   8.213 -0.6042 -0.1034 -0.0613
 1007MOL0     C32835   5.292   9.662   8.323  0.8259 -0.6215  0.0682
 1007MOL0    Cl32836   5.169   9.784   8.299  0.2454  0.0444 -0.4179
 1007MOL0     C32837   6.294   9.330   8.241  0.0224  0.0809 -0.6519
 1007MOL0     C32838   6.430   9.344   8.248 -0.4271 -0.2812  0.5789
 1007MOL0     O32839   6.707   9.142   8.178 -0.2128  0.0785 -0.1110
 1007MOL0     C32840   6.929   9.365   8.347 -0.1146  0.2536 -0.2974
 1007MOL0     C32841   7.065   9.373   8.369 -0.4243 -0.1856  0.1104
 1007MOL0     N32842   7.809   9.519   8.112 -0.4324 -0.8674 -0.3440
 1007MOL0     N32843   7.803   9.643   8.061 -0.1365 -0.2971 -0.1097
 1007MOL0     C32844   6.563   9.676   8.308 -0.5364 -0.4191 -0.6614
 1007MOL0     C32845   6.425   9.705   8.305 -0.9285  0.1207  0.9040
 1007MOL0     C32846   5.999   9.822   8.213  0.9420  0.2781  0.3718
 1007MOL0     C32847   5.878   9.774   8.274  0.0243 -0.0012  0.1028
 1007MOL0     C32848   5.756   9.842   8.263  0.1638  0.1009 -0.4174
 1007MOL0     C32849   5.747   9.964   8.192 -0.4764  0.1987  0.0046
 1007MOL0     O32850   5.643  10.052   8.175 -0.4576 -0.3715 -0.1555
 1007MOL0     C32851   5.525  10.010   8.238 -0.2366 -0.0744 -0.2891
 1007MOL0     C32852   5.437  10.136   8.233  0.7327  0.6019  0.4929
 1007MOL0     C32853   5.305  10.116   8.301 -0.4263 -0.2623  0.3894
 1007MOL0     C32854   5.302  10.093   8.449  0.2389  0.0442 -0.7380
 1007MOL0     C32855   5.175  10.060   8.509 -0.2330  0.3390 -0.3761
 1007MOL0     C32856   5.069  10.034   8.556  0.8795 -1.6787  0.3453
 1007MOL0     C32857   5.863  10.007   8.129  0.1913  0.0086  0.0860
 1007MOL0     C32858   5.983   9.947   8.136  0.5330  0.3054 -0.9251
 1007MOL0     H32859   6.379   9.716   7.969 -2.1523  1.2598  0.4621
 1007MOL0     H32860   6.621   9.671   7.978  0.8798 -1.1213  0.8809
 1007MOL0     H32861   6.806   9.881   8.150 -0.5774  0.6267  0.1863
 1007MOL0     H32862   6.848   9.757   8.022  0.1060 -0.4497 -0.6630
 1007MOL0     H32863   7.016   9.660   8.206  0.8571  0.3972  0.3560
 1007MOL0     H32864   7.008   9.824   8.274  5.6333 -1.8766  0.3672
 1007MOL0     H32865   7.067   9.900   8.021 -2.0902 -1.3266 -2.2422
 1007MOL0     H32866   7.106   9.733   7.999  1.6389  0.7180 -0.7932
 1007MOL0     H32867   7.198   9.907   8.226  0.6955 -1.4969  1.9274
 1007MOL0     H32868   7.248   9.749   8.211 -0.0145  1.9617  1.4665
 1007MOL0     H32869   7.308   9.966   8.007  2.8092  1.1702  0.7634
 1007MOL0     H32870   7.355   9.792   7.981  1.2306 -0.0103  1.0570
 1007MOL0     H32871   7.477   9.798   8.209  0.4919  3.2276  3.0915
 1007MOL0     H32872   7.455   9.965   8.206 -2.0195 -0.7656 -0.2574
 1007MOL0     H32873   7.619   9.847   7.973  0.7536 -0.5158  0.8626
 1007MOL0     H32874   7.606  10.009   8.031  4.2679 -0.7492 -1.0157
 1007MOL0     H32875   7.734   9.915   8.251 -0.2256  0.1858  0.0330
 1007MOL0     H32876   7.813   9.930   8.103  0.3429  0.9166  1.3451
 1007MOL0     H32877   7.668   9.666   8.363  1.7635 -0.3088  0.9901
 1007MOL0     H32878   7.728   9.417   8.427 -2.2535  0.9403  0.6408
 1007MOL0     H32879   7.796   9.318   8.306 -0.1197 -1.3103  4.8807
 1007MOL0     H32880   7.568   9.336   8.182 -2.1424  1.7888 -0.8499
 1007MOL0     H32881   7.498   9.425   8.296 -2.7472 -2.5849 -1.3964
 1007MOL0     H32882   7.599   9.161   8.368  0.8009 -0.2341  0.4135
 1007MOL0     H32883   7.535   9.286   8.480  1.2268  0.7218 -0.6777
 1007MOL0     H32884   7.364   9.102   8.389  0.9806 -0.1572  1.7083
 1007MOL0     H32885   7.400   9.174   8.235 -2.4807 -0.2082 -0.0046
 1007MOL0     H32886   7.180   9.087   8.258  1.5566  1.7393  2.0717
 1007MOL0     H32887   6.942   9.046   8.228  0.1635 -1.4825  3.1464
 1007MOL0     H32888   6.522   9.103   8.459  0.0621  0.6737  1.3550
 1007MOL0     H32889   6.264   9.055   8.450  2.6037 -2.9353 -0.8944
 1007MOL0     H32890   6.047   9.294   8.140  0.0905  0.0420  0.5423
 1007MOL0     H32891   6.001   9.384   8.282 -0.4469  0.7156 -1.8983
 1007MOL0     H32892   5.827   9.207   8.347 -0.2875  0.0251  0.4930
 1007MOL0     H32893   5.846   9.161   8.174  4.6133 -0.2732 -0.3972
 1007MOL0     H32894   5.794   9.417   8.128  0.8759  2.7283  0.6187
 1007MOL0     H32895   5.807   9.461   8.282  2.1059  0.3063 -0.3233
 1007MOL0     H32896   5.596   9.282   8.159 -3.1202  0.7475 -0.2254
 1007MOL0     H32897   5.606   9.304   8.342  0.6063  1.8800  0.3594
 1007MOL0     H32898   5.561   9.520   8.131  2.4894 -3.1314 -0.2636
 1007MOL0     H32899   5.571   9.545   8.303 -1.4990  1.8304 -0.8216
 1007MOL0     H32900   5.362   9.385   8.326  0.8075  0.4087  1.1254
 1007MOL0     H32901   5.375   9.374   8.142 -0.3702  3.2769 -1.6606
 1007MOL0     H32902   5.297   9.596   8.116 -1.2616  0.3857  0.1643
 1007MOL0     H32903   5.194   9.505   8.197 -1.0528  0.5302  1.0498
 1007MOL0     H32904   5.387   9.716   8.327  0.9026 -0.7551  0.0637
 1007MOL0     H32905   5.275   9.621   8.423 -0.1823  1.0147  0.5946
 1007MOL0     H32906   6.228   9.410   8.206 -1.1353 -0.6795 -0.2701
 1007MOL0     H32907   6.476   9.426   8.193 -0.0844 -1.4482 -0.9491
 1007MOL0     H32908   6.860   9.444   8.374 -0.8368 -0.6242  0.5218
 1007MOL0     H32909   7.092   9.466   8.418 -2.9397 -0.0533  1.4282
 1007MOL0     H32910   6.620   9.663   8.399 -1.4296 -1.6982 -0.2612
 1007MOL0     H32911   6.372   9.714   8.400  0.8309 -2.1838  2.2012
 1007MOL0     H32912   5.873   9.680   8.327 -2.1907 -0.5142 -0.9311
 1007MOL0     H32913   5.668   9.793   8.304 -1.4107  2.4762 -0.7817
 1007MOL0     H32914   5.540   9.962   8.335 -0.6625  0.3875  0.0113
 1007MOL0     H32915   5.471   9.935   8.179  0.3252 -1.1521  0.5362
 1007MOL0     H32916   5.485  10.221   8.283  0.8160 -0.5584  2.4855
 1007MOL0     H32917   5.402  10.156   8.132  1.2065 -3.2166 -0.5787
 1007MOL0     H32918   5.253  10.033   8.253  1.0397 -1.2139  0.3942
 1007MOL0     H32919   5.257  10.212   8.279  2.5748  1.1164 -0.6772
 1007MOL0     H32920   5.367  10.010   8.477 -1.1405 -1.3304 -1.4804
 1007MOL0     H32921   5.340  10.180   8.504  0.7366 -1.0557  0.7289
 1007MOL0     H32922   4.973  10.023   8.603 -1.7876  1.0256 -3.7840
 1007MOL0     H32923   5.865  10.109   8.094  3.9708 -0.4962 -1.6634
 1007MOL0     H32924   6.074   9.997   8.106  1.8494 -1.6567 -0.3582
 1008MOL0     O32925   5.799   2.830   8.100 -0.2566  0.3123 -0.4225
 1008MOL0     C32926   5.893   2.905   8.101 -0.6658 -0.2173  0.3526
 1008MOL0     O32927   5.896   3.039   8.064  0.2794  0.7365 -0.4412
 1008MOL0     C32928   5.773   3.097   8.046 -0.5975 -0.8296 -0.1406
 1008MOL0     C32929   5.677   3.106   8.148  0.4806 -0.3659  0.7669
 1008MOL0     C32930   5.565   3.183   8.133  0.2303  0.3392 -0.2954
 1008MOL0     C32931   5.546   3.248   8.011 -0.1245  0.5685 -0.3429
 1008MOL0     O32932   5.455   3.349   8.013 -0.3607 -0.1515 -0.4408
 1008MOL0     C32933   5.362   3.351   7.911 -0.1643  0.9184  0.5754
 1008MOL0     C32934   5.222   3.357   7.972 -0.8756 -0.1054  0.1884
 1008MOL0     C32935   5.169   3.233   8.058  0.4222  0.1848  0.4925
 1008MOL0     C32936   5.035   3.277   8.121 -0.0813  0.1887 -1.3690
 1008MOL0     C32937   4.977   3.173   8.214  0.4632 -0.4389 -0.2127
 1008MOL0     C32938   4.917   3.055   8.140 -0.0518 -0.4157 -0.1276
 1008MOL0     C32939   4.902   2.941   8.228  0.4604  0.3210 -0.0274
 1008MOL0     C32940   4.877   2.812   8.148  0.9686 -0.1116 -0.1828
 1008MOL0     N32941   4.852   2.705   8.239  0.4748 -0.5456 -0.4443
 1008MOL0     C32942   4.948   2.631   8.304 -0.2440  0.2739 -0.4398
 1008MOL0     C32943   4.881   2.520   8.350 -0.0101 -0.1779 -0.0624
 1008MOL0     C32944   4.941   2.401   8.417  0.6415 -0.7150 -0.5723
 1008MOL0     C32945   4.857   2.280   8.366 -0.4001 -0.4083 -0.8948
 1008MOL0     C32946   4.864   2.259   8.215 -0.6933  0.0122  0.0478
 1008MOL0     C32947   4.851   2.112   8.175 -0.9320 -0.6558  0.9687
 1008MOL0     O32948   4.758   2.046   8.261 -0.2071 -0.1894  1.2817
 1008MOL0     C32949   4.693   1.949   8.188 -0.2718 -0.5136 -0.6144
 1008MOL0     C32950   4.573   1.907   8.246  0.3330 -0.6311  0.2069
 1008MOL0     C32951   4.488   1.808   8.187  0.5466  0.7692 -0.1959
 1008MOL0     C32952   4.519   1.740   8.074 -0.6669  0.4689  0.1244
 1008MOL0     C32953   4.431   1.628   8.009  0.3699  0.2206 -0.3308
 1008MOL0     O32954   4.326   1.582   8.083 -0.8209  0.2042  1.0475
 1008MOL0     C32955   4.243   1.506   8.004  0.3777 -0.6019  0.0711
 1008MOL0     C32956   4.118   1.555   7.965  0.4160  0.1384  0.1952
 1008MOL0     C32957   4.023   1.476   7.893  1.0753  0.7179 -0.3111
 1008MOL0     C32958   4.059   1.342   7.852 -0.4145 -0.8534 -0.5345
 1008MOL0     O32959   3.965   1.282   7.780  0.6837 -0.0162  0.4239
 1008MOL0     C32960   4.002   1.171   7.699  0.1435 -0.5113 -0.3715
 1008MOL0     C32961   3.982   1.042   7.781 -0.1845  0.7880 -0.6516
 1008MOL0     C32962   3.856   0.964   7.727  1.0183  0.9032 -0.2450
 1008MOL0     C32963   3.849   0.826   7.786  0.6491  0.3769  0.5958
 1008MOL0     C32964   3.717   0.742   7.741  0.7502 -0.1684 -0.0624
 1008MOL0     C32965   3.706   0.607   7.822  0.2111  0.3452 -0.2083
 1008MOL0     C32966   3.575   0.528   7.787 -0.2847  0.0168 -0.0719
 1008MOL0     C32967   3.454   0.574   7.884 -0.1842 -0.1271 -0.6186
 1008MOL0    Cl32968   3.314   0.485   7.842 -0.0998 -0.4884 -0.5490
 1008MOL0     C32969   4.184   1.291   7.884 -0.7114 -0.0604 -0.4103
 1008MOL0     C32970   4.279   1.373   7.954  0.5781 -0.1174  0.9958
 1008MOL0     O32971   4.452   1.608   7.887  0.4891  0.1332 -0.7821
 1008MOL0     C32972   4.630   1.781   8.018 -0.1986  0.1810  0.1959
 1008MOL0     C32973   4.725   1.872   8.075  0.0960  0.2735  0.0510
 1008MOL0     N32974   4.748   2.529   8.318  0.4162 -0.1809 -0.0190
 1008MOL0     N32975   4.731   2.641   8.245 -0.6055 -0.2693 -0.1109
 1008MOL0     C32976   5.639   3.234   7.911 -0.3562 -0.4301 -0.2143
 1008MOL0     C32977   5.750   3.158   7.929 -0.4746 -0.5015 -0.9844
 1008MOL0     C32978   6.023   2.856   8.147  0.9125  0.4522  0.2128
 1008MOL0     C32979   6.039   2.725   8.191 -0.3284  0.1567 -0.5860
 1008MOL0     C32980   6.170   2.686   8.239  0.1660  0.5268  1.2925
 1008MOL0     C32981   6.281   2.776   8.246  0.6851  0.2678 -0.4267
 1008MOL0     O32982   6.408   2.765   8.313 -0.3365  0.1542  0.0389
 1008MOL0     C32983   6.442   2.636   8.374 -0.0153 -0.1747  0.6715
 1008MOL0     C32984   6.578   2.633   8.438 -0.3452  1.0454 -0.3959
 1008MOL0     C32985   6.698   2.646   8.344  0.3831 -0.3022  0.3337
 1008MOL0     C32986   6.736   2.791   8.314 -0.7121 -0.2534  0.2519
 1008MOL0     C32987   6.876   2.798   8.269  0.0929 -0.6815  0.4188
 1008MOL0     C32988   6.989   2.805   8.233  0.1642 -0.4006  0.3738
 1008MOL0     C32989   6.254   2.910   8.199  0.5620 -0.1167 -0.1610
 1008MOL0     C32990   6.129   2.948   8.143  0.2045  0.3641 -1.2700
 1008MOL0     H32991   5.705   3.071   8.246  1.3977  0.7772  0.9378
 1008MOL0     H32992   5.485   3.187   8.207 -1.0645  1.5273 -1.7002
 1008MOL0     H32993   5.373   3.255   7.859 -0.6595  0.9704  0.3688
 1008MOL0     H32994   5.385   3.438   7.849 -1.4092  1.5077  0.9137
 1008MOL0     H32995   5.154   3.377   7.888 -0.2572  0.9285 -0.0856
 1008MOL0     H32996   5.223   3.445   8.037  3.0143 -0.8312  1.3709
 1008MOL0     H32997   5.253   3.208   8.123  1.1236  1.2691  0.0421
 1008MOL0     H32998   5.150   3.154   7.985 -1.0689  1.3830 -0.4809
 1008MOL0     H32999   5.054   3.364   8.186 -1.1702 -0.7133  0.2032
 1008MOL0     H33000   4.969   3.307   8.039  0.6436  3.6374 -0.8520
 1008MOL0     H33001   4.891   3.222   8.259 -0.8101 -2.8616  0.1889
 1008MOL0     H33002   5.045   3.137   8.292 -0.4214  2.1079  1.8532
 1008MOL0     H33003   4.984   3.026   8.058 -0.2472  2.2258 -1.3035
 1008MOL0     H33004   4.822   3.080   8.093  0.0354  1.6409  0.6958
 1008MOL0     H33005   4.995   2.928   8.285  0.3882  0.6478  0.1653
 1008MOL0     H33006   4.818   2.958   8.296  1.3266 -3.6619  2.3870
 1008MOL0     H33007   4.971   2.787   8.098  1.0467 -0.3751  0.0919
 1008MOL0     H33008   4.789   2.823   8.084 -0.5255  4.1468  2.1861
 1008MOL0     H33009   5.054   2.652   8.313 -0.1019 -1.0641  1.4574
 1008MOL0     H33010   4.924   2.407   8.525  1.7179  0.1552 -0.4254
 1008MOL0     H33011   5.050   2.394   8.406  0.8339 -1.2022  1.2005
 1008MOL0     H33012   4.755   2.286   8.406  0.2731  2.6156  0.7009
 1008MOL0     H33013   4.900   2.188   8.405  1.1524 -0.5046 -2.6938
 1008MOL0     H33014   4.792   2.316   8.155  1.0581  0.7467 -1.4662
 1008MOL0     H33015   4.961   2.301   8.186 -1.0952 -0.0879 -1.5529
 1008MOL0     H33016   4.945   2.058   8.187 -0.7968 -0.3848  1.1361
 1008MOL0     H33017   4.824   2.110   8.069  1.7189  0.2854  0.2105
 1008MOL0     H33018   4.531   1.954   8.335 -0.3766 -0.6301 -0.1194
 1008MOL0     H33019   4.392   1.781   8.229  1.5219  4.1403  5.1488
 1008MOL0     H33020   4.087   1.654   7.997 -2.2611 -0.6753  0.3909
 1008MOL0     H33021   3.934   1.525   7.853 -0.8099 -2.0841  0.1293
 1008MOL0     H33022   4.102   1.175   7.654  1.3805  1.4610  2.2939
 1008MOL0     H33023   3.944   1.167   7.606  2.1908  1.4436 -1.8430
 1008MOL0     H33024   3.988   1.061   7.888  0.6373 -0.1589 -0.5220
 1008MOL0     H33025   4.072   0.986   7.756 -1.1596 -0.9561 -0.3891
 1008MOL0     H33026   3.857   0.945   7.619 -1.8504 -2.0228  0.0847
 1008MOL0     H33027   3.763   1.021   7.736  2.3332  3.1732 -0.2158
 1008MOL0     H33028   3.934   0.762   7.761  1.8405  0.6723  3.4549
 1008MOL0     H33029   3.857   0.832   7.895  2.0227  0.3855  0.5158
 1008MOL0     H33030   3.719   0.733   7.632 -0.9348  2.3289 -0.3752
 1008MOL0     H33031   3.631   0.806   7.760  0.5510  0.3101 -2.3312
 1008MOL0     H33032   3.707   0.636   7.928  1.3551  1.0894 -0.4054
 1008MOL0     H33033   3.794   0.548   7.793  0.6765  1.4973 -1.2074
 1008MOL0     H33034   3.546   0.550   7.684  0.9362 -1.2227 -0.7161
 1008MOL0     H33035   3.595   0.421   7.798  3.0294  0.2161 -2.5203
 1008MOL0     H33036   3.446   0.681   7.867 -2.4491 -0.2261 -0.4659
 1008MOL0     H33037   3.469   0.560   7.992 -3.3026 -0.9313 -0.1983
 1008MOL0     H33038   4.210   1.190   7.853  1.6299  0.5422 -0.6551
 1008MOL0     H33039   4.378   1.332   7.968  0.1432 -1.5032  0.1565
 1008MOL0     H33040   4.657   1.752   7.917 -0.5172  1.7387 -0.3717
 1008MOL0     H33041   4.808   1.906   8.014 -1.1494  0.1652 -1.7931
 1008MOL0     H33042   5.625   3.300   7.825  0.7545  0.5942  0.3599
 1008MOL0     H33043   5.828   3.144   7.854  2.1727  0.9944  1.2826
 1008MOL0     H33044   5.955   2.656   8.198 -1.7408  1.8737  0.1359
 1008MOL0     H33045   6.189   2.591   8.289 -0.3911  0.8696  2.1846
 1008MOL0     H33046   6.432   2.566   8.291 -0.4459 -1.7993  2.0484
 1008MOL0     H33047   6.362   2.627   8.449 -0.7098 -1.7473 -0.2216
 1008MOL0     H33048   6.594   2.699   8.524  1.0856 -1.0028  1.0060
 1008MOL0     H33049   6.590   2.534   8.483  0.7964  1.4224  0.1842
 1008MOL0     H33050   6.669   2.615   8.244  1.5957  0.5678 -0.3084
 1008MOL0     H33051   6.784   2.587   8.378  1.3195  0.5874 -0.4557
 1008MOL0     H33052   6.677   2.839   8.236  2.6332  1.9161 -1.2095
 1008MOL0     H33053   6.739   2.869   8.390  2.4926  2.4889 -2.3437
 1008MOL0     H33054   7.085   2.815   8.187 -0.2103  2.4637 -0.0121
 1008MOL0     H33055   6.330   2.988   8.199  0.9218 -0.4587  0.9280
 1008MOL0     H33056   6.122   3.047   8.100 -1.8053  1.4813  1.3420
 1009MOL0     O33057   2.375   2.593   2.321  0.4137  0.3152 -0.1639
 1009MOL0     C33058   2.365   2.473   2.346  0.2005 -0.0582  0.1669
 1009MOL0     O33059   2.466   2.383   2.354 -0.3803  0.1996 -0.2907
 1009MOL0     C33060   2.588   2.424   2.317  0.1737  0.3205  0.7304
 1009MOL0     C33061   2.658   2.536   2.374 -0.3448  0.3086  0.5880
 1009MOL0     C33062   2.799   2.547   2.355  0.4964  0.5661 -0.4595
 1009MOL0     C33063   2.874   2.446   2.298 -0.2242 -0.3912  0.4161
 1009MOL0     O33064   3.008   2.443   2.272 -0.2068  0.1114 -0.0005
 1009MOL0     C33065   3.080   2.555   2.344  0.2190  0.5698 -0.0815
 1009MOL0     C33066   3.221   2.567   2.293 -0.2978  0.2036  0.3568
 1009MOL0     C33067   3.310   2.443   2.299  0.4945 -0.0040 -0.4695
 1009MOL0     C33068   3.458   2.486   2.268 -0.6691 -0.7296  0.5932
 1009MOL0     C33069   3.543   2.354   2.266 -0.3779  0.1967  1.0187
 1009MOL0     C33070   3.540   2.297   2.408 -0.0569  1.1202 -0.3960
 1009MOL0     C33071   3.637   2.183   2.409 -0.8963  0.4539 -0.7914
 1009MOL0     C33072   3.642   2.094   2.530  0.0877  0.3910  0.0530
 1009MOL0     N33073   3.522   2.014   2.554  0.3854  0.2626  0.7329
 1009MOL0     C33074   3.458   1.940   2.458 -1.3600 -0.5479 -0.5893
 1009MOL0     C33075   3.364   1.875   2.527 -0.1657  0.0262  0.5107
 1009MOL0     C33076   3.263   1.785   2.486  0.1182 -0.3147  0.6795
 1009MOL0     C33077   3.137   1.864   2.440  0.0018  0.8375 -0.6144
 1009MOL0     C33078   3.024   1.755   2.439 -0.2841  0.2356  0.0101
 1009MOL0     C33079   2.902   1.814   2.385 -0.4298 -0.6953 -0.4219
 1009MOL0     O33080   2.875   1.933   2.456  0.0588  0.6610 -0.3614
 1009MOL0     C33081   2.808   1.933   2.578  0.4516 -0.7897  0.0383
 1009MOL0     C33082   2.766   2.060   2.623  0.6096 -0.0341 -0.1789
 1009MOL0     C33083   2.701   2.077   2.743 -0.5879 -0.0178 -1.2646
 1009MOL0     C33084   2.663   1.969   2.822  0.2252  0.4910  0.7096
 1009MOL0     C33085   2.589   1.996   2.945 -0.2461  0.1174 -0.0538
 1009MOL0     O33086   2.523   1.888   2.980 -0.2463  0.6024 -0.6484
 1009MOL0     C33087   2.427   1.900   3.076  0.5665  0.6271  0.4836
 1009MOL0     C33088   2.430   1.835   3.209  0.1813 -0.4602 -0.1351
 1009MOL0     C33089   2.331   1.861   3.311 -0.2878 -0.6263  0.3456
 1009MOL0     C33090   2.226   1.948   3.275  0.2001  0.8775 -0.3325
 1009MOL0     O33091   2.117   1.977   3.361  0.3603  0.3733  0.6868
 1009MOL0     C33092   2.127   1.955   3.498  0.1061  1.2923  1.1145
 1009MOL0     C33093   2.058   2.065   3.573 -0.2884 -0.0827  0.3517
 1009MOL0     C33094   2.084   2.074   3.725  0.7057  0.2454 -0.2723
 1009MOL0     C33095   2.047   2.211   3.784 -0.0668 -0.0457  0.7416
 1009MOL0     C33096   2.088   2.223   3.936 -0.3161  0.0015  0.3862
 1009MOL0     C33097   1.997   2.149   4.037  0.1449 -0.8426 -0.9753
 1009MOL0     C33098   1.845   2.188   4.055 -0.1765  1.2729  0.6680
 1009MOL0     C33099   1.779   2.096   4.148  0.8917  0.3445 -0.3452
 1009MOL0    Cl33100   1.783   2.134   4.332 -0.4193  0.0657  0.1859
 1009MOL0     C33101   2.216   2.002   3.152 -0.2633 -0.3770 -0.8670
 1009MOL0     C33102   2.318   1.980   3.059  0.0584  0.1360  0.3345
 1009MOL0     O33103   2.576   2.113   2.986 -0.3160 -0.3339 -0.3214
 1009MOL0     C33104   2.699   1.838   2.778  0.2487  0.0959  0.6808
 1009MOL0     C33105   2.777   1.821   2.660 -0.1468 -0.4782 -0.3121
 1009MOL0     N33106   3.374   1.915   2.662 -0.1087  0.8023 -0.3734
 1009MOL0     N33107   3.464   2.005   2.678  0.2627 -0.0816  0.2263
 1009MOL0     C33108   2.803   2.328   2.267  0.2258 -0.7653  1.0636
 1009MOL0     C33109   2.662   2.321   2.268  0.1567 -0.0878  0.0211
 1009MOL0     C33110   2.231   2.422   2.387  0.6020 -0.4221 -0.1547
 1009MOL0     C33111   2.132   2.514   2.443 -0.0062  0.5364  0.3618
 1009MOL0     C33112   2.004   2.461   2.482 -0.5016  0.6002  0.9030
 1009MOL0     C33113   1.978   2.325   2.459 -0.9201  0.0983  0.1310
 1009MOL0     O33114   1.862   2.266   2.490  0.8102 -0.2934 -0.4752
 1009MOL0     C33115   1.755   2.351   2.540 -0.0617  0.2596 -0.3507
 1009MOL0     C33116   1.633   2.269   2.575 -0.0675  0.5954 -0.3000
 1009MOL0     C33117   1.673   2.148   2.664 -0.2930  0.3176  0.2239
 1009MOL0     C33118   1.561   2.061   2.720  0.5297 -0.4383  0.9229
 1009MOL0     C33119   1.512   2.124   2.840 -0.3098  0.6276 -0.2493
 1009MOL0     C33120   1.473   2.192   2.923  0.5879 -0.6551  0.3792
 1009MOL0     C33121   2.085   2.237   2.417 -0.1983  0.7460 -1.0088
 1009MOL0     C33122   2.209   2.285   2.388  0.2179  0.1559 -0.0227
 1009MOL0     H33123   2.602   2.614   2.425  2.3047  2.2202  0.7753
 1009MOL0     H33124   2.846   2.641   2.381  0.3922  0.7548 -0.9507
 1009MOL0     H33125   3.070   2.540   2.452 -1.8416  1.3492 -0.1184
 1009MOL0     H33126   3.031   2.653   2.339 -0.2709  0.5496  2.8046
 1009MOL0     H33127   3.275   2.648   2.344  2.5129  0.0726 -2.1227
 1009MOL0     H33128   3.220   2.603   2.190  0.7726 -1.2321 -0.1951
 1009MOL0     H33129   3.272   2.361   2.239 -0.8334  0.5927 -0.4800
 1009MOL0     H33130   3.309   2.409   2.403 -0.0065 -2.7995 -1.2968
 1009MOL0     H33131   3.464   2.545   2.176  0.8017  0.7985  1.6070
 1009MOL0     H33132   3.492   2.559   2.342  2.4962  1.0670 -2.3502
 1009MOL0     H33133   3.647   2.376   2.238 -0.9987 -0.3504 -2.0059
 1009MOL0     H33134   3.498   2.286   2.194 -0.7205  2.4284 -1.0182
 1009MOL0     H33135   3.445   2.266   2.452  1.4447 -0.8737  1.6990
 1009MOL0     H33136   3.582   2.368   2.481  0.2794 -1.0990  1.7115
 1009MOL0     H33137   3.622   2.124   2.318 -1.3809 -2.6045  1.1380
 1009MOL0     H33138   3.737   2.226   2.420 -0.0397 -1.6675  0.2886
 1009MOL0     H33139   3.658   2.156   2.618  2.3314  0.4647 -0.3542
 1009MOL0     H33140   3.723   2.021   2.528  1.1580  1.5654 -0.6018
 1009MOL0     H33141   3.490   1.923   2.356  1.0453  1.1099 -0.2077
 1009MOL0     H33142   3.228   1.723   2.568 -0.3728 -0.0752  0.6516
 1009MOL0     H33143   3.300   1.725   2.402 -0.0135 -1.2222  1.2645
 1009MOL0     H33144   3.150   1.907   2.340  2.4218  2.8509  0.4411
 1009MOL0     H33145   3.115   1.946   2.510  0.9210  0.9368 -0.4265
 1009MOL0     H33146   3.053   1.661   2.391 -0.0423  0.3196 -0.0114
 1009MOL0     H33147   2.998   1.720   2.540 -1.1006 -4.1958 -1.4814
 1009MOL0     H33148   2.817   1.745   2.386 -0.5288 -0.6041  1.3214
 1009MOL0     H33149   2.920   1.838   2.280 -1.5972 -2.2691 -1.0313
 1009MOL0     H33150   2.789   2.149   2.566  2.6035 -0.8541 -0.7421
 1009MOL0     H33151   2.683   2.180   2.773  0.7391  0.2117 -1.2226
 1009MOL0     H33152   2.509   1.764   3.232 -0.4491 -1.4087 -0.8150
 1009MOL0     H33153   2.349   1.822   3.411 -3.2512  1.9582  2.0771
 1009MOL0     H33154   2.230   1.948   3.536  0.4734 -0.7263 -0.0903
 1009MOL0     H33155   2.079   1.859   3.517  0.3536  0.8295 -0.4741
 1009MOL0     H33156   1.950   2.052   3.562 -0.4378  0.7406  0.7569
 1009MOL0     H33157   2.090   2.159   3.528 -3.0311  0.9022  0.2761
 1009MOL0     H33158   2.190   2.056   3.746  1.2351 -0.8401 -3.3653
 1009MOL0     H33159   2.027   1.999   3.781 -2.0425 -0.0104 -3.1807
 1009MOL0     H33160   2.098   2.292   3.733 -0.0771 -0.8239 -0.5563
 1009MOL0     H33161   1.941   2.237   3.776 -1.2668 -4.5970 -2.3009
 1009MOL0     H33162   2.081   2.329   3.960  1.6506  0.6352 -1.5171
 1009MOL0     H33163   2.193   2.200   3.951 -0.1753  0.3864  0.0147
 1009MOL0     H33164   2.054   2.169   4.129 -0.1992 -0.1378 -0.9128
 1009MOL0     H33165   2.011   2.042   4.021  1.7764 -1.1369  1.7313
 1009MOL0     H33166   1.820   2.290   4.087 -1.0045  1.9735 -1.9960
 1009MOL0     H33167   1.807   2.188   3.953 -0.8394  2.0904  0.9051
 1009MOL0     H33168   1.818   1.994   4.139  2.1492  0.5828  1.7676
 1009MOL0     H33169   1.674   2.089   4.119  0.7235 -3.2462  0.6883
 1009MOL0     H33170   2.134   2.066   3.121  0.3979 -0.5579 -3.1645
 1009MOL0     H33171   2.293   2.026   2.965 -2.2542  0.3829  1.0114
 1009MOL0     H33172   2.661   1.759   2.843 -0.8257 -0.3096 -0.4138
 1009MOL0     H33173   2.810   1.719   2.642  6.3444  0.8704  1.3119
 1009MOL0     H33174   2.859   2.244   2.227 -1.1786 -1.1555 -0.1889
 1009MOL0     H33175   2.607   2.234   2.233  0.7423 -0.6669  0.5087
 1009MOL0     H33176   2.152   2.620   2.442  0.1262  0.5162 -1.0181
 1009MOL0     H33177   1.932   2.536   2.513 -2.4541  0.0885 -1.9719
 1009MOL0     H33178   1.727   2.422   2.461 -0.8947 -1.1506 -1.3689
 1009MOL0     H33179   1.788   2.400   2.632 -1.1066  1.4456 -0.5758
 1009MOL0     H33180   1.561   2.325   2.635 -0.9409 -1.6431  0.8785
 1009MOL0     H33181   1.577   2.228   2.490 -0.1542 -1.0456  0.5202
 1009MOL0     H33182   1.711   2.200   2.752 -2.6484 -0.3706  1.7327
 1009MOL0     H33183   1.745   2.083   2.613 -1.9760  0.9546 -3.2953
 1009MOL0     H33184   1.477   2.060   2.650  2.0200  1.4930 -1.0323
 1009MOL0     H33185   1.581   1.956   2.742 -2.3048 -0.5980  3.3459
 1009MOL0     H33186   1.434   2.249   3.005 -2.1919  0.5831 -1.6451
 1009MOL0     H33187   2.074   2.130   2.404  4.1168  0.1415 -1.1877
 1009MOL0     H33188   2.282   2.211   2.359  1.4594  0.0653  2.9897
 1010MOL0     O33189   9.585   2.314   5.066 -0.5429  0.2371  0.4970
 1010MOL0     C33190   9.649   2.418   5.088  0.6209 -0.6976 -0.4813
 1010MOL0     O33191   9.594   2.535   5.145 -0.2367  0.3089  0.2316
 1010MOL0     C33192   9.467   2.520   5.203 -0.7606 -0.2013 -0.1575
 1010MOL0     C33193   9.451   2.574   5.330 -0.6669 -0.7225 -0.2443
 1010MOL0     C33194   9.328   2.580   5.393 -0.1398  0.6194  0.4748
 1010MOL0     C33195   9.223   2.513   5.332  0.0366 -0.1650  0.7184
 1010MOL0     O33196   9.101   2.520   5.402  0.1514  0.2319  0.3742
 1010MOL0     C33197   8.979   2.488   5.332 -0.6027 -0.8780  0.1937
 1010MOL0     C33198   8.865   2.507   5.433  0.2239  0.2563 -0.5842
 1010MOL0     C33199   8.730   2.436   5.391  0.0646  0.2056  0.1158
 1010MOL0     C33200   8.692   2.499   5.257 -0.8969 -0.4879  0.0064
 1010MOL0     C33201   8.557   2.457   5.224  0.0971 -0.0424  0.7392
 1010MOL0     C33202   8.443   2.475   5.324  0.0832 -0.0606 -0.6108
 1010MOL0     C33203   8.309   2.454   5.257 -0.0339  0.1186  0.1634
 1010MOL0     C33204   8.278   2.552   5.135 -0.7249  0.2913  0.6173
 1010MOL0     N33205   8.132   2.565   5.110 -0.2605  0.3341 -0.3140
 1010MOL0     C33206   8.050   2.607   5.211 -0.0366  0.2110  0.2893
 1010MOL0     C33207   7.929   2.594   5.150  0.0752 -0.7071 -0.0398
 1010MOL0     C33208   7.798   2.640   5.210 -0.4462  0.4956  0.6159
 1010MOL0     C33209   7.677   2.536   5.183  0.6851 -0.8466 -0.8378
 1010MOL0     C33210   7.610   2.566   5.045 -0.0305 -0.4421 -0.5600
 1010MOL0     C33211   7.480   2.490   5.044  1.0603  0.3569 -0.3827
 1010MOL0     O33212   7.441   2.502   4.902 -0.1723 -0.1764  0.1537
 1010MOL0     C33213   7.313   2.448   4.862  0.3646  0.5543 -0.2762
 1010MOL0     C33214   7.278   2.453   4.728  0.3360 -0.7232 -0.1079
 1010MOL0     C33215   7.160   2.392   4.680  0.2436  0.1567  0.7925
 1010MOL0     C33216   7.071   2.327   4.770  0.2679 -0.6521 -0.3326
 1010MOL0     C33217   6.950   2.253   4.725 -0.2397 -0.3814 -0.1479
 1010MOL0     O33218   6.883   2.191   4.825  0.1982 -0.1424 -0.2098
 1010MOL0     C33219   6.769   2.118   4.791  0.1188 -0.7158 -0.2152
 1010MOL0     C33220   6.789   2.005   4.717  0.4297  1.0670  0.1160
 1010MOL0     C33221   6.682   1.918   4.703  0.6550  1.3782 -0.2590
 1010MOL0     C33222   6.557   1.955   4.741  0.3146  0.1938  0.7318
 1010MOL0     O33223   6.454   1.868   4.693 -0.2726 -0.7764 -0.3285
 1010MOL0     C33224   6.327   1.881   4.748  0.6055 -0.0243  0.6789
 1010MOL0     C33225   6.263   1.737   4.726 -0.9534  0.3938 -0.5291
 1010MOL0     C33226   6.137   1.721   4.809  0.2203 -0.2822 -0.5177
 1010MOL0     C33227   6.073   1.580   4.785 -0.0970 -0.6487 -0.2375
 1010MOL0     C33228   5.944   1.567   4.863 -0.0925  0.0827 -0.0711
 1010MOL0     C33229   5.877   1.439   4.823 -0.4163  0.0385  0.3798
 1010MOL0     C33230   5.752   1.414   4.905 -0.1281  0.1203  0.4122
 1010MOL0     C33231   5.660   1.317   4.833 -0.1589  0.5064  0.8330
 1010MOL0    Cl33232   5.506   1.304   4.916  0.0141 -0.0331  0.2579
 1010MOL0     C33233   6.536   2.070   4.821 -0.3332 -1.3547  0.9013
 1010MOL0     C33234   6.645   2.155   4.846  0.8226 -0.9208  0.2347
 1010MOL0     O33235   6.939   2.244   4.602 -0.7449  0.6617 -0.3086
 1010MOL0     C33236   7.108   2.326   4.900  0.6763 -0.0612  0.4138
 1010MOL0     C33237   7.228   2.378   4.946 -0.2907  0.1207  0.1862
 1010MOL0     N33238   7.946   2.557   5.018 -0.1873  0.8262  0.2021
 1010MOL0     N33239   8.071   2.543   4.991 -0.0751  0.2791 -0.3271
 1010MOL0     C33240   9.240   2.447   5.211  0.0080  0.0435  0.8538
 1010MOL0     C33241   9.362   2.448   5.152  0.7382  0.0895 -0.2469
 1010MOL0     C33242   9.792   2.414   5.037  0.1703 -0.0179  0.9402
 1010MOL0     C33243   9.862   2.531   5.065  0.0974 -0.8202  0.2680
 1010MOL0     C33244   9.998   2.537   5.032 -0.2740 -0.2514  0.9837
 1010MOL0     C33245  10.065   2.421   4.973  0.1195 -1.1170  0.2890
 1010MOL0     O33246  10.200   2.447   4.952 -0.3675  0.3195  0.2666
 1010MOL0     C33247  10.266   2.359   4.855  0.1019  0.1836 -0.1245
 1010MOL0     C33248  10.408   2.404   4.869 -0.0260 -0.2819  0.0909
 1010MOL0     C33249  10.514   2.306   4.812  0.8010  0.9790 -0.1063
 1010MOL0     C33250  10.658   2.329   4.871  0.1834  0.0321  0.0924
 1010MOL0     C33251  10.673   2.292   5.013  0.2886 -0.2690 -0.2032
 1010MOL0     C33252  10.682   2.259   5.130 -0.5928  0.3598  0.9139
 1010MOL0     C33253   9.988   2.311   4.949 -0.6815 -0.4348 -0.8072
 1010MOL0     C33254   9.848   2.311   4.968 -0.7192  0.1529 -0.1706
 1010MOL0     H33255   9.537   2.625   5.372 -1.7920  0.7912  0.3041
 1010MOL0     H33256   9.310   2.620   5.492 -2.2744 -0.5879  0.6186
 1010MOL0     H33257   8.969   2.383   5.306 -0.4246 -0.8402 -0.0328
 1010MOL0     H33258   8.963   2.553   5.245 -0.5437  2.1335  2.2658
 1010MOL0     H33259   8.855   2.615   5.450 -0.6947 -0.2681  3.2961
 1010MOL0     H33260   8.891   2.466   5.531 -0.9266 -2.6630 -1.3940
 1010MOL0     H33261   8.657   2.451   5.471  1.9944  0.6015  1.8877
 1010MOL0     H33262   8.744   2.328   5.379  1.2965  0.2734  0.7018
 1010MOL0     H33263   8.702   2.607   5.271  1.0221 -0.6743  0.3844
 1010MOL0     H33264   8.764   2.475   5.179  0.5585 -2.7868  1.9271
 1010MOL0     H33265   8.549   2.354   5.188 -2.0953  0.1254  0.6251
 1010MOL0     H33266   8.529   2.521   5.140 -0.9263  0.5837  1.5148
 1010MOL0     H33267   8.446   2.577   5.361  0.6005  0.7114 -2.6383
 1010MOL0     H33268   8.459   2.412   5.412 -1.3829 -1.3097 -1.1852
 1010MOL0     H33269   8.312   2.350   5.224 -3.2082  0.5265 -1.7778
 1010MOL0     H33270   8.232   2.471   5.333  0.5243  2.2613  0.3260
 1010MOL0     H33271   8.337   2.532   5.045  0.3865  0.5539  1.2569
 1010MOL0     H33272   8.316   2.651   5.161 -1.4552  1.1024 -1.2465
 1010MOL0     H33273   8.069   2.645   5.311  0.4570  0.0650  0.2522
 1010MOL0     H33274   7.776   2.741   5.176 -3.7145 -0.9650 -2.0661
 1010MOL0     H33275   7.816   2.643   5.318  0.7462  1.5433  0.4248
 1010MOL0     H33276   7.601   2.544   5.261 -0.3851 -0.0056 -1.9185
 1010MOL0     H33277   7.712   2.433   5.181  5.0137  0.3943  0.0294
 1010MOL0     H33278   7.589   2.673   5.040  2.4191  0.3610  2.7501
 1010MOL0     H33279   7.681   2.548   4.964 -1.7564  0.8381 -2.4574
 1010MOL0     H33280   7.395   2.522   5.106  1.9158 -0.1016  1.0869
 1010MOL0     H33281   7.498   2.387   5.076  1.1382  0.7306  0.8350
 1010MOL0     H33282   7.355   2.491   4.662  1.1274  0.5330  1.4765
 1010MOL0     H33283   7.150   2.385   4.572 -0.3022 -1.4261  0.9178
 1010MOL0     H33284   6.892   1.978   4.696  0.6345  2.2977 -0.5179
 1010MOL0     H33285   6.703   1.824   4.652 -0.3101  1.2369 -0.4263
 1010MOL0     H33286   6.268   1.954   4.692  0.2139 -1.2569 -0.5651
 1010MOL0     H33287   6.337   1.902   4.855 -0.1988  3.5994  0.1593
 1010MOL0     H33288   6.334   1.659   4.755  1.0573  2.7962  1.5069
 1010MOL0     H33289   6.221   1.731   4.625 -2.3798  3.9099 -0.2836
 1010MOL0     H33290   6.064   1.795   4.775 -0.4032 -0.6199  0.0614
 1010MOL0     H33291   6.149   1.739   4.917 -2.8990 -1.6643  0.1566
 1010MOL0     H33292   6.076   1.569   4.676  2.7506  1.2623 -0.4384
 1010MOL0     H33293   6.140   1.503   4.826 -0.7551 -1.2882 -0.3288
 1010MOL0     H33294   5.873   1.643   4.830 -0.1674  0.3309  0.6456
 1010MOL0     H33295   5.951   1.584   4.970 -3.1272  2.2209 -0.0871
 1010MOL0     H33296   5.947   1.356   4.822  0.3575  0.6755 -0.9388
 1010MOL0     H33297   5.844   1.443   4.719  1.6925 -2.4554 -0.4925
 1010MOL0     H33298   5.789   1.360   4.993  2.1322  1.1405  0.1568
 1010MOL0     H33299   5.700   1.505   4.937 -0.2338 -0.2635  1.3710
 1010MOL0     H33300   5.696   1.213   4.840 -1.2119 -0.1010 -1.6745
 1010MOL0     H33301   5.640   1.341   4.728 -0.7636  1.4450  1.1545
 1010MOL0     H33302   6.436   2.104   4.847  0.3172 -0.9127  3.0590
 1010MOL0     H33303   6.634   2.248   4.901 -1.2159 -0.8725 -0.1677
 1010MOL0     H33304   7.060   2.259   4.972  2.6973 -1.3231  0.6545
 1010MOL0     H33305   7.245   2.382   5.053 -0.2757  3.2626  0.1716
 1010MOL0     H33306   9.151   2.408   5.162  0.3288 -0.2257  0.4891
 1010MOL0     H33307   9.378   2.409   5.052 -0.3447  1.7368 -1.1113
 1010MOL0     H33308   9.819   2.613   5.123  1.5698  0.5795 -0.5414
 1010MOL0     H33309  10.055   2.629   5.035 -1.0799  0.2618  3.8464
 1010MOL0     H33310  10.216   2.378   4.759 -3.5484  1.9092  1.8904
 1010MOL0     H33311  10.256   2.257   4.893 -0.1749  0.7921  1.5031
 1010MOL0     H33312  10.424   2.491   4.804  2.7599 -1.0601 -0.3898
 1010MOL0     H33313  10.433   2.442   4.968  0.9322 -1.6400  0.4000
 1010MOL0     H33314  10.518   2.320   4.704 -0.5464  0.5515 -0.2276
 1010MOL0     H33315  10.473   2.207   4.835 -0.7458  0.6139 -3.7662
 1010MOL0     H33316  10.723   2.264   4.813 -0.8681 -0.8638 -0.1182
 1010MOL0     H33317  10.683   2.434   4.852  0.4355 -0.0814 -0.2083
 1010MOL0     H33318  10.678   2.239   5.235 -1.9674 -1.8659  0.5093
 1010MOL0     H33319  10.031   2.220   4.906  4.0255  1.3340 -0.3908
 1010MOL0     H33320   9.801   2.216   4.945  2.0788 -1.1125 -1.1108
 1011MOL0     O33321   8.274  11.102   2.749  0.9181 -0.4264 -0.4176
 1011MOL0     C33322   8.340  11.156   2.839 -0.4242  0.5622  0.5488
 1011MOL0     O33323   8.302  11.248   2.929 -0.1193  0.2156 -0.8420
 1011MOL0     C33324   8.175  11.288   2.939  0.4567  0.5938  0.2095
 1011MOL0     C33325   8.096  11.315   2.823 -0.2559  0.2802  0.8114
 1011MOL0     C33326   7.961  11.358   2.831 -0.5642  0.6953 -0.0687
 1011MOL0     C33327   7.905  11.373   2.955 -0.4995  0.0289  0.6893
 1011MOL0     O33328   7.778  11.423   2.973 -0.0183 -0.5622 -0.0241
 1011MOL0     C33329   7.712  11.398   3.099  0.1364  0.5378  0.8126
 1011MOL0     C33330   7.570  11.465   3.090  0.5236  1.0861  0.8675
 1011MOL0     C33331   7.473  11.366   3.020 -0.0509  1.1283  0.6638
 1011MOL0     C33332   7.348  11.435   2.967  0.5689 -0.5015  0.3483
 1011MOL0     C33333   7.262  11.335   2.886  0.2730  0.4704 -0.1601
 1011MOL0     C33334   7.131  11.398   2.847  1.4174 -0.2833 -0.1814
 1011MOL0     C33335   7.082  11.349   2.717 -0.8859  0.4316 -0.0517
 1011MOL0     C33336   7.064  11.194   2.709 -0.0430  0.4443  0.3147
 1011MOL0     N33337   6.991  11.140   2.591 -0.7741 -0.3310  0.4609
 1011MOL0     C33338   6.996  11.177   2.461 -0.4256  0.0823  0.5592
 1011MOL0     C33339   6.904  11.103   2.402  0.7831 -0.3621 -0.3799
 1011MOL0     C33340   6.870  11.114   2.259 -0.7357 -0.6666 -0.0916
 1011MOL0     C33341   6.932  10.992   2.185  0.5976 -0.1856  1.0138
 1011MOL0     C33342   6.886  11.003   2.038  0.6126  0.9669  0.6373
 1011MOL0     C33343   6.917  10.880   1.962 -0.0871 -0.1724  1.2992
 1011MOL0     O33344   6.867  10.902   1.836 -0.1717 -0.0611  0.8661
 1011MOL0     C33345   6.739  10.882   1.799  0.2709 -0.1840  0.2997
 1011MOL0     C33346   6.702  10.911   1.667  0.0493 -0.1538 -0.7621
 1011MOL0     C33347   6.576  10.888   1.611  0.3504  0.6450 -0.5616
 1011MOL0     C33348   6.478  10.841   1.695 -1.0486 -1.2886  0.4392
 1011MOL0     C33349   6.341  10.813   1.647 -0.5820 -0.7375 -0.0845
 1011MOL0     O33350   6.307  10.855   1.522 -0.6267  0.1695 -0.2806
 1011MOL0     C33351   6.177  10.852   1.488  0.3643  0.1255  0.2717
 1011MOL0     C33352   6.085  10.939   1.539 -0.4257 -0.0575  0.7476
 1011MOL0     C33353   5.956  10.939   1.495  0.0863 -0.4851  0.0474
 1011MOL0     C33354   5.910  10.843   1.411  0.4496  0.4168  0.6174
 1011MOL0     O33355   5.782  10.852   1.355 -0.3642 -0.2519 -0.0651
 1011MOL0     C33356   5.719  10.747   1.289  0.5338  0.1409 -0.2272
 1011MOL0     C33357   5.601  10.778   1.202  0.0418 -0.0758  1.5662
 1011MOL0     C33358   5.517  10.658   1.155 -0.5095 -0.0045  0.8002
 1011MOL0     C33359   5.374  10.690   1.117 -0.0754 -0.2165 -0.3767
 1011MOL0     C33360   5.313  10.563   1.060 -0.7849 -0.0000 -0.5396
 1011MOL0     C33361   5.168  10.586   1.023  0.4189  1.2426 -0.4990
 1011MOL0     C33362   5.100  10.457   0.971  0.4055 -0.0518  0.3007
 1011MOL0     C33363   5.030  10.385   1.083 -0.4929 -1.0939  0.0989
 1011MOL0    Cl33364   4.946  10.247   1.012 -0.1743  0.1438  0.4123
 1011MOL0     C33365   5.999  10.744   1.359  0.0029  0.0576 -0.3454
 1011MOL0     C33366   6.134  10.749   1.400  0.0379 -0.3198 -0.4088
 1011MOL0     O33367   6.266  10.761   1.724 -0.1197  0.9381  0.4430
 1011MOL0     C33368   6.514  10.810   1.825  0.5575 -0.0117  0.0707
 1011MOL0     C33369   6.644  10.829   1.884  0.5787  0.0481 -0.0068
 1011MOL0     N33370   6.845  11.020   2.494  0.0938 -0.6377  0.0164
 1011MOL0     N33371   6.894  11.043   2.611 -0.5319  0.0325  0.2676
 1011MOL0     C33372   7.984  11.351   3.069 -1.1430  0.5280  0.5577
 1011MOL0     C33373   8.120  11.302   3.060  0.5600 -0.0132  0.5739
 1011MOL0     C33374   8.480  11.106   2.847 -0.2037 -0.4783  0.3471
 1011MOL0     C33375   8.542  11.011   2.756  0.7823  0.2421  0.0851
 1011MOL0     C33376   8.669  10.956   2.780  0.1493 -0.7427 -0.5467
 1011MOL0     C33377   8.748  10.990   2.893  0.0907  0.2171  0.5000
 1011MOL0     O33378   8.874  10.951   2.907  0.1145 -0.4418  0.0005
 1011MOL0     C33379   8.953  10.993   3.020 -0.9436  0.1902 -0.3437
 1011MOL0     C33380   9.094  10.975   2.973 -0.5114  0.1026  0.2316
 1011MOL0     C33381   9.199  11.005   3.084 -0.1226 -0.7693 -0.5294
 1011MOL0     C33382   9.338  11.024   3.031 -0.7110  0.6327 -0.6169
 1011MOL0     C33383   9.381  10.899   2.969  0.4435  0.0274  0.0562
 1011MOL0     C33384   9.422  10.796   2.922  0.0913  0.4533 -1.1706
 1011MOL0     C33385   8.686  11.086   2.973 -0.7485  0.9054  0.0908
 1011MOL0     C33386   8.558  11.140   2.960 -0.1315 -0.1861 -0.1028
 1011MOL0     H33387   8.130  11.307   2.720 -3.0151  6.1530 -1.0333
 1011MOL0     H33388   7.903  11.383   2.743  0.4437  2.6010 -0.2398
 1011MOL0     H33389   7.777  11.441   3.176 -0.1251 -1.4787  2.2498
 1011MOL0     H33390   7.704  11.290   3.115  0.5864  0.8424  3.4315
 1011MOL0     H33391   7.570  11.559   3.035  1.3479  0.8539  0.4526
 1011MOL0     H33392   7.534  11.481   3.192 -3.0251 -3.4409  0.6624
 1011MOL0     H33393   7.459  11.275   3.078  2.2398  0.2307 -0.0679
 1011MOL0     H33394   7.529  11.323   2.936 -0.8854  2.4500 -0.6235
 1011MOL0     H33395   7.296  11.483   3.051  0.1613 -0.5809  0.1444
 1011MOL0     H33396   7.373  11.521   2.905 -0.6006 -2.4908 -3.1530
 1011MOL0     H33397   7.252  11.238   2.936  1.0856  0.3123 -0.2843
 1011MOL0     H33398   7.316  11.324   2.792 -0.0362  1.4207 -0.4569
 1011MOL0     H33399   7.144  11.506   2.842 -1.8220  0.4665  3.0140
 1011MOL0     H33400   7.051  11.370   2.917  0.3841  3.1144  0.1506
 1011MOL0     H33401   6.986  11.393   2.689  0.4178  2.3719 -1.7119
 1011MOL0     H33402   7.141  11.380   2.630  1.8787  0.0332  1.5545
 1011MOL0     H33403   7.008  11.166   2.798 -0.1876 -1.5680 -0.3657
 1011MOL0     H33404   7.159  11.140   2.712 -1.0683 -1.4125  2.8338
 1011MOL0     H33405   7.050  11.254   2.406 -2.6526  1.2244 -0.1487
 1011MOL0     H33406   6.910  11.212   2.231  2.3037 -0.7948  3.0967
 1011MOL0     H33407   6.762  11.111   2.245 -0.6502 -1.3809 -0.6690
 1011MOL0     H33408   6.897  10.897   2.227 -3.6181  1.4495  1.7015
 1011MOL0     H33409   7.041  10.995   2.188  0.5751  0.2367  1.4959
 1011MOL0     H33410   6.779  11.023   2.030  0.6873  1.0227 -0.2629
 1011MOL0     H33411   6.941  11.089   1.998 -0.2743  1.3201  0.1722
 1011MOL0     H33412   6.881  10.783   1.999 -1.3562 -1.0269 -1.8941
 1011MOL0     H33413   7.025  10.860   1.968  0.9451  4.2632  0.8762
 1011MOL0     H33414   6.778  10.962   1.608 -0.4110  1.7698  0.2234
 1011MOL0     H33415   6.550  10.905   1.507 -1.0513 -1.2155 -0.5798
 1011MOL0     H33416   6.111  11.027   1.598 -2.6405  0.9832  0.2952
 1011MOL0     H33417   5.887  11.014   1.532 -1.4514 -1.6376 -0.4072
 1011MOL0     H33418   5.682  10.667   1.354  0.6456 -1.0012 -1.5100
 1011MOL0     H33419   5.792  10.701   1.222 -0.3085  0.6474 -1.5460
 1011MOL0     H33420   5.625  10.831   1.110  1.2377 -1.0796  1.2778
 1011MOL0     H33421   5.543  10.846   1.266  0.1929 -1.6404  3.4511
 1011MOL0     H33422   5.523  10.574   1.226  2.1482 -3.5012 -3.0994
 1011MOL0     H33423   5.568  10.610   1.071 -1.7083  0.3269 -0.1467
 1011MOL0     H33424   5.312  10.732   1.197  0.1389  3.0199 -1.7526
 1011MOL0     H33425   5.388  10.770   1.044 -1.6016 -0.0211 -0.4794
 1011MOL0     H33426   5.313  10.485   1.137 -0.0203 -0.7031 -1.2191
 1011MOL0     H33427   5.364  10.535   0.967 -0.5677  2.0097 -1.0579
 1011MOL0     H33428   5.153  10.657   0.942  1.1884  1.7226 -0.2294
 1011MOL0     H33429   5.121  10.640   1.106 -0.0498  0.1372 -0.0200
 1011MOL0     H33430   5.022  10.498   0.906  2.1573  0.5128 -1.5530
 1011MOL0     H33431   5.172  10.395   0.917  1.4937 -0.3050  1.9685
 1011MOL0     H33432   4.971  10.453   1.145  1.9282  0.7847  0.4856
 1011MOL0     H33433   5.113  10.348   1.142 -0.2470 -0.3364  0.2340
 1011MOL0     H33434   5.965  10.657   1.304  1.1417  0.2071 -1.3415
 1011MOL0     H33435   6.198  10.666   1.373  0.8264  0.7872 -2.0845
 1011MOL0     H33436   6.449  10.748   1.886  0.2555  2.2775  2.2531
 1011MOL0     H33437   6.672  10.808   1.987 -1.0186  0.9105  0.6299
 1011MOL0     H33438   7.965  11.377   3.173  2.2602  2.4477  0.8399
 1011MOL0     H33439   8.190  11.276   3.138  2.2043 -0.2792 -0.9466
 1011MOL0     H33440   8.496  10.992   2.660  2.4188  0.4072 -0.7796
 1011MOL0     H33441   8.710  10.903   2.695 -1.3104  0.8380 -2.3306
 1011MOL0     H33442   8.932  10.936   3.111  0.5429 -0.9229 -0.6676
 1011MOL0     H33443   8.943  11.099   3.045 -0.7178 -0.0500  0.8252
 1011MOL0     H33444   9.111  10.872   2.940 -0.1732 -0.1892  1.2789
 1011MOL0     H33445   9.106  11.039   2.885  2.7059  2.1791  1.9829
 1011MOL0     H33446   9.201  10.922   3.155  1.2604 -2.7172 -2.6840
 1011MOL0     H33447   9.186  11.102   3.133 -1.5376 -1.9779  1.6328
 1011MOL0     H33448   9.344  11.100   2.952 -0.7292  0.9583 -0.3085
 1011MOL0     H33449   9.413  11.055   3.105 -0.9918 -1.8450  0.7880
 1011MOL0     H33450   9.465  10.708   2.879 -0.3808  1.0690 -2.9806
 1011MOL0     H33451   8.733  11.123   3.064 -1.1919  1.8610 -0.0575
 1011MOL0     H33452   8.547  11.216   3.037 -2.9095 -1.0004  0.4070
 1012MOL0     O33453   1.818   1.971   0.173  0.8970 -0.5925  0.1017
 1012MOL0     C33454   1.801   2.069   0.101 -0.5899  0.3126  0.1269
 1012MOL0     O33455   1.689   2.102   0.035 -0.0070  0.0780 -0.2155
 1012MOL0     C33456   1.576   2.026   0.049  0.4375 -0.4144  0.4392
 1012MOL0     C33457   1.453   2.083   0.087  0.0904 -0.1506  0.9904
 1012MOL0     C33458   1.336   2.001   0.083 -0.0661 -0.8602 -0.4012
 1012MOL0     C33459   1.337   1.873   0.033  0.6704 -0.6752 -0.3105
 1012MOL0     O33460   1.217   1.801   0.034  0.2014  0.4328 -0.0467
 1012MOL0     C33461   1.187   1.718  -0.083 -0.5660 -0.0980  0.4489
 1012MOL0     C33462   1.033   1.697  -0.073 -0.6097 -0.6465  0.0887
 1012MOL0     C33463   0.959   1.697  -0.204 -0.5423 -0.5273 -0.2361
 1012MOL0     C33464   0.803   1.695  -0.187  0.4272  0.4495  0.9085
 1012MOL0     C33465   0.730   1.638  -0.310  0.3781  0.0278 -0.2244
 1012MOL0     C33466   0.578   1.661  -0.304 -0.1564 -0.3257 -0.4055
 1012MOL0     C33467   0.520   1.605  -0.431 -0.0840 -0.3124 -0.6179
 1012MOL0     C33468   0.364   1.642  -0.434 -0.8230 -0.2065 -0.1958
 1012MOL0     N33469   0.335   1.788  -0.419  0.3887 -0.4419  0.0590
 1012MOL0     C33470   0.267   1.839  -0.308 -0.1183  0.4299 -1.0483
 1012MOL0     C33471   0.275   1.972  -0.326  0.6363  0.7744  0.1861
 1012MOL0     C33472   0.247   2.077  -0.222 -0.7669  0.4550 -0.5673
 1012MOL0     C33473   0.103   2.115  -0.201  0.6175  0.0318 -0.1218
 1012MOL0     C33474   0.075   2.232  -0.294 -0.1258 -0.7569 -0.0957
 1012MOL0     C33475  -0.079   2.260  -0.297  0.0037 -0.1499  0.1239
 1012MOL0     O33476  -0.140   2.154  -0.366  0.4833 -0.6199  0.1372
 1012MOL0     C33477  -0.277   2.131  -0.336 -1.4645  0.3882 -0.4632
 1012MOL0     C33478  -0.354   2.228  -0.279  0.7104  0.4569  0.4032
 1012MOL0     C33479  -0.485   2.199  -0.250  0.6896 -0.4981  0.2199
 1012MOL0     C33480  -0.547   2.075  -0.282 -0.5036 -0.7394  0.3640
 1012MOL0     C33481  -0.685   2.042  -0.255  0.1873 -0.3009  0.1197
 1012MOL0     O33482  -0.761   2.131  -0.182 -0.6691  0.1442 -0.2232
 1012MOL0     C33483  -0.895   2.110  -0.158  0.2597 -0.1683 -0.4392
 1012MOL0     C33484  -0.992   2.051  -0.241  0.5428 -0.3318 -0.4054
 1012MOL0     C33485  -1.131   2.042  -0.203  0.0362 -0.2803  0.1485
 1012MOL0     C33486  -1.175   2.098  -0.081  0.7504 -0.0317 -0.3394
 1012MOL0     O33487  -1.301   2.086  -0.023  0.3901  0.4620  0.1108
 1012MOL0     C33488  -1.395   1.980  -0.061 -0.8956  0.3317 -0.0991
 1012MOL0     C33489  -1.347   1.834  -0.026 -0.4255 -0.1733 -0.1149
 1012MOL0     C33490  -1.459   1.730  -0.041 -0.3623  0.3986 -0.9329
 1012MOL0     C33491  -1.588   1.754   0.041  0.7770  0.8018 -0.1453
 1012MOL0     C33492  -1.678   1.628   0.015 -0.2993  0.0363 -0.3223
 1012MOL0     C33493  -1.809   1.632   0.087  0.2857 -0.0684 -0.2616
 1012MOL0     C33494  -1.891   1.504   0.090  0.6669  0.5893  0.1750
 1012MOL0     C33495  -1.947   1.461  -0.044 -0.0341  0.2190  0.0813
 1012MOL0    Cl33496  -2.060   1.577  -0.106 -0.3646 -0.9426 -0.1081
 1012MOL0     C33497  -1.077   2.159  -0.002  0.1638  1.2575  0.6093
 1012MOL0     C33498  -0.944   2.156  -0.033  1.0382 -0.2386  0.9021
 1012MOL0     O33499  -0.730   1.944  -0.309 -0.4354  0.6885 -0.2317
 1012MOL0     C33500  -0.465   1.983  -0.334 -0.5592 -0.0512  0.1473
 1012MOL0     C33501  -0.325   2.007  -0.361  0.4927  1.1902  0.0851
 1012MOL0     N33502   0.313   2.001  -0.461 -1.2604 -0.2785 -0.2355
 1012MOL0     N33503   0.365   1.889  -0.510  0.1942 -0.9997  0.6721
 1012MOL0     C33504   1.454   1.822  -0.018  0.5961  1.1464 -0.7154
 1012MOL0     C33505   1.572   1.896   0.007 -0.5414  1.0201 -0.2922
 1012MOL0     C33506   1.919   2.154   0.084 -0.4969 -0.6137  0.4916
 1012MOL0     C33507   2.043   2.134   0.147  0.7849  0.6943  0.5730
 1012MOL0     C33508   2.163   2.211   0.120 -1.0399 -0.0425 -0.4773
 1012MOL0     C33509   2.154   2.307   0.017  1.0543  0.3692  1.0964
 1012MOL0     O33510   2.266   2.384  -0.013 -0.2798  0.4837  0.4134
 1012MOL0     C33511   2.376   2.388   0.073 -0.9787 -1.1151 -0.3023
 1012MOL0     C33512   2.443   2.514   0.035 -0.7337  0.7352 -0.1287
 1012MOL0     C33513   2.491   2.512  -0.112 -0.2486  0.4860  0.3243
 1012MOL0     C33514   2.544   2.654  -0.143  0.4132  0.4534  0.6646
 1012MOL0     C33515   2.583   2.664  -0.284 -0.1517  0.4290  0.4650
 1012MOL0     C33516   2.590   2.664  -0.404  0.0791 -0.1378 -0.0147
 1012MOL0     C33517   2.037   2.316  -0.058 -0.0717  0.5200  0.1336
 1012MOL0     C33518   1.919   2.252  -0.017 -0.7135 -0.4085  0.6675
 1012MOL0     H33519   1.459   2.185   0.124 -0.4933  0.7830 -1.3071
 1012MOL0     H33520   1.243   2.048   0.113  0.3877 -0.4687  0.4180
 1012MOL0     H33521   1.249   1.628  -0.081  2.1644  1.6671  0.8575
 1012MOL0     H33522   1.218   1.767  -0.176  2.2307  0.1308  1.3900
 1012MOL0     H33523   0.991   1.784  -0.022 -2.4069 -2.0141  1.0262
 1012MOL0     H33524   1.014   1.604  -0.020 -1.5320 -0.5434 -0.0454
 1012MOL0     H33525   1.000   1.611  -0.257  1.8025  1.5049 -1.9857
 1012MOL0     H33526   0.987   1.786  -0.261  2.7842  0.6234  2.7901
 1012MOL0     H33527   0.790   1.636  -0.096 -2.7133  0.7108  0.7176
 1012MOL0     H33528   0.753   1.791  -0.179 -0.3583 -0.1060  5.0049
 1012MOL0     H33529   0.740   1.532  -0.335 -1.8206 -0.0393 -1.0525
 1012MOL0     H33530   0.779   1.687  -0.394  3.1436 -0.2726  1.1123
 1012MOL0     H33531   0.553   1.766  -0.289 -3.5354 -0.7310 -2.2775
 1012MOL0     H33532   0.530   1.606  -0.222 -0.2290 -0.6564 -0.6707
 1012MOL0     H33533   0.552   1.655  -0.523  0.3150  0.9289  0.1717
 1012MOL0     H33534   0.548   1.500  -0.446 -0.4179 -0.3478 -1.0296
 1012MOL0     H33535   0.319   1.598  -0.344  0.0195 -0.6324  0.0307
 1012MOL0     H33536   0.315   1.600  -0.522 -0.8388 -2.4425  0.8056
 1012MOL0     H33537   0.244   1.788  -0.215  0.2104  1.1168 -0.5763
 1012MOL0     H33538   0.311   2.161  -0.249 -0.1575 -0.8164 -3.4826
 1012MOL0     H33539   0.287   2.040  -0.127  1.7608 -0.3419 -1.8601
 1012MOL0     H33540   0.090   2.160  -0.102  1.8077  0.9751 -0.3684
 1012MOL0     H33541   0.035   2.034  -0.230 -0.1755  0.4334  0.5936
 1012MOL0     H33542   0.128   2.317  -0.250 -2.0502  0.3528  0.1946
 1012MOL0     H33543   0.111   2.215  -0.396 -0.4774 -3.6527  0.1757
 1012MOL0     H33544  -0.106   2.355  -0.345  2.0961  0.0508 -0.7822
 1012MOL0     H33545  -0.111   2.255  -0.192 -2.4099 -0.0138 -0.5488
 1012MOL0     H33546  -0.324   2.331  -0.264 -1.4701  1.4381 -1.3451
 1012MOL0     H33547  -0.553   2.272  -0.205 -3.3213 -3.4732 -0.4915
 1012MOL0     H33548  -0.954   2.011  -0.334  0.1405 -0.7082 -0.4116
 1012MOL0     H33549  -1.202   1.990  -0.267 -0.4231 -1.0463  1.2396
 1012MOL0     H33550  -1.407   1.980  -0.169  3.7561 -1.3165 -0.8456
 1012MOL0     H33551  -1.491   2.000  -0.012 -1.8621 -2.1748 -0.8283
 1012MOL0     H33552  -1.300   1.832   0.073 -0.3603 -1.6553 -0.1461
 1012MOL0     H33553  -1.279   1.805  -0.106 -4.1180 -2.1114 -2.9132
 1012MOL0     H33554  -1.410   1.637  -0.011 -0.9480 -0.1496 -1.6413
 1012MOL0     H33555  -1.487   1.735  -0.147 -3.5133  4.3035 -0.1714
 1012MOL0     H33556  -1.570   1.785   0.144 -1.9477  1.3023  0.2510
 1012MOL0     H33557  -1.650   1.830  -0.007  2.3746  1.9642 -0.4291
 1012MOL0     H33558  -1.625   1.540   0.053  1.2781 -0.1630 -2.7876
 1012MOL0     H33559  -1.692   1.602  -0.090  1.4965  1.0379 -0.8570
 1012MOL0     H33560  -1.872   1.714   0.051 -0.2604  0.7618  2.3772
 1012MOL0     H33561  -1.791   1.650   0.193  1.2615 -0.3765 -0.3672
 1012MOL0     H33562  -1.830   1.426   0.138 -0.6695 -0.2657  0.5569
 1012MOL0     H33563  -1.971   1.507   0.164 -1.3350 -0.2744 -1.8690
 1012MOL0     H33564  -2.018   1.378  -0.041  1.1371 -0.9328 -1.6219
 1012MOL0     H33565  -1.869   1.427  -0.113  0.2856  1.8130 -0.3710
 1012MOL0     H33566  -1.110   2.193   0.096 -2.0772  0.6888  0.1221
 1012MOL0     H33567  -0.885   2.198   0.047  0.0472  0.5459  1.2444
 1012MOL0     H33568  -0.503   1.884  -0.357  2.3748 -1.6078  1.4852
 1012MOL0     H33569  -0.268   1.930  -0.412  0.5205  2.1197 -1.3321
 1012MOL0     H33570   1.471   1.721  -0.055 -0.6045  0.9076 -0.6502
 1012MOL0     H33571   1.654   1.850  -0.046  0.8946  1.1777  1.6894
 1012MOL0     H33572   2.031   2.053   0.219  1.0449 -0.1754 -0.3481
 1012MOL0     H33573   2.249   2.189   0.182 -2.1466  0.0303  1.1448
 1012MOL0     H33574   2.437   2.300   0.053  0.0599 -1.2527  2.9498
 1012MOL0     H33575   2.341   2.389   0.176 -1.2181  1.8986 -0.3217
 1012MOL0     H33576   2.376   2.600   0.049 -2.0443 -0.3801  0.5946
 1012MOL0     H33577   2.521   2.533   0.110 -0.4894  1.6841 -0.5985
 1012MOL0     H33578   2.412   2.489  -0.184 -2.2952  2.2184  1.9031
 1012MOL0     H33579   2.566   2.434  -0.125 -2.0062 -1.1752 -0.2681
 1012MOL0     H33580   2.454   2.713  -0.124 -0.9068 -1.3946  0.4878
 1012MOL0     H33581   2.625   2.684  -0.077  2.2790 -1.5542 -0.5948
 1012MOL0     H33582   2.581   2.662  -0.510  1.4452  0.8067 -0.1871
 1012MOL0     H33583   2.039   2.388  -0.139 -0.9266  2.4588  1.7639
 1012MOL0     H33584   1.830   2.275  -0.075  0.2010 -2.4640 -1.7653
 1013MOL0     O33585   3.582  10.455   6.009  0.0425  0.1766  0.6153
 1013MOL0     C33586   3.621  10.561   5.962 -1.0753 -0.3968  0.0510
 1013MOL0     O33587   3.547  10.651   5.897  0.5034  0.2982  0.4857
 1013MOL0     C33588   3.411  10.656   5.923 -1.0723 -0.2069  0.4165
 1013MOL0     C33589   3.337  10.658   5.800 -0.4684  0.4469 -0.4581
 1013MOL0     C33590   3.197  10.665   5.801 -0.2263  0.0452  0.2409
 1013MOL0     C33591   3.132  10.661   5.926  0.9937  0.5437 -0.2458
 1013MOL0     O33592   2.993  10.671   5.942  0.1939 -0.3397 -0.4434
 1013MOL0     C33593   2.912  10.566   5.894 -0.0506 -1.0150 -0.3728
 1013MOL0     C33594   2.756  10.602   5.912  0.2944 -0.0286 -0.0320
 1013MOL0     C33595   2.671  10.476   5.921  0.7430 -0.6438  0.3815
 1013MOL0     C33596   2.517  10.489   5.917 -0.4668 -0.6771 -0.8323
 1013MOL0     C33597   2.458  10.349   5.969 -0.0467 -0.8671 -0.2783
 1013MOL0     C33598   2.312  10.332   5.953  0.5053  1.1085 -0.2412
 1013MOL0     C33599   2.266  10.305   5.813 -0.9280 -0.1243  0.4603
 1013MOL0     C33600   2.145  10.212   5.808  0.5488 -0.0473  0.3648
 1013MOL0     N33601   2.025  10.271   5.874  0.1712  0.5719 -0.3766
 1013MOL0     C33602   1.989  10.404   5.875 -0.7176  0.3588  0.7935
 1013MOL0     C33603   1.877  10.403   5.949  0.0244  0.0130  0.2650
 1013MOL0     C33604   1.773  10.506   5.984 -0.4370  0.8605  1.2803
 1013MOL0     C33605   1.672  10.527   5.874 -0.2389  1.6699 -0.2430
 1013MOL0     C33606   1.580  10.643   5.899 -0.5924  0.3658  0.2820
 1013MOL0     C33607   1.437  10.607   5.865  0.9271  0.5952 -0.4544
 1013MOL0     O33608   1.442  10.538   5.735  0.7186 -0.3722  0.1758
 1013MOL0     C33609   1.322  10.557   5.667  0.6087  0.6285  0.1043
 1013MOL0     C33610   1.322  10.570   5.528  0.5029 -0.3684  0.7462
 1013MOL0     C33611   1.203  10.594   5.455  0.8847  0.0423  1.0255
 1013MOL0     C33612   1.077  10.597   5.513  0.1775 -0.7747 -0.2055
 1013MOL0     C33613   0.947  10.611   5.447  0.2992 -0.0467 -0.4735
 1013MOL0     O33614   0.839  10.635   5.528  0.3725 -0.0554 -0.0199
 1013MOL0     C33615   0.707  10.654   5.479  0.2379 -0.0226  0.0122
 1013MOL0     C33616   0.653  10.563   5.391 -0.9758 -0.0623 -0.5644
 1013MOL0     C33617   0.517  10.578   5.353  0.0743 -0.1973 -0.1395
 1013MOL0     C33618   0.439  10.683   5.393  0.0179 -0.3212 -0.5340
 1013MOL0     O33619   0.304  10.697   5.355  0.2565 -0.2236  0.1026
 1013MOL0     C33620   0.262  10.651   5.227 -0.1414  0.0840  0.8863
 1013MOL0     C33621   0.161  10.742   5.165 -0.3166  0.5189 -0.3285
 1013MOL0     C33622   0.015  10.693   5.193 -0.3884  0.1027 -0.1887
 1013MOL0     C33623  -0.084  10.786   5.123 -0.4699  0.1536  0.0087
 1013MOL0     C33624  -0.232  10.778   5.144  0.5034 -0.6655 -0.3376
 1013MOL0     C33625  -0.255  10.793   5.297  0.3463  0.3725  0.5354
 1013MOL0     C33626  -0.413  10.793   5.317 -0.7508 -0.3944  0.6152
 1013MOL0     C33627  -0.439  10.775   5.462 -0.8570 -0.6811 -0.1034
 1013MOL0    Cl33628  -0.618  10.743   5.487 -0.0005 -0.0320 -0.4494
 1013MOL0     C33629   0.496  10.777   5.478  0.9639 -0.0903 -0.1080
 1013MOL0     C33630   0.633  10.766   5.523  0.7828  0.4952 -0.3814
 1013MOL0     O33631   0.952  10.618   5.327  0.3184  0.0332 -0.1356
 1013MOL0     C33632   1.078  10.565   5.657 -0.9837  0.5266 -0.1609
 1013MOL0     C33633   1.191  10.542   5.730  0.4355 -0.0403 -0.3836
 1013MOL0     N33634   1.848  10.275   5.988  0.1563 -0.5364  0.1897
 1013MOL0     N33635   1.932  10.196   5.933  0.1187 -0.1815  0.4527
 1013MOL0     C33636   3.201  10.657   6.052 -0.5347 -0.3847  0.0052
 1013MOL0     C33637   3.342  10.649   6.045  0.5256 -0.1151 -0.2661
 1013MOL0     C33638   3.771  10.584   5.955  0.9961  1.0840  0.1017
 1013MOL0     C33639   3.821  10.712   5.918  0.6631  0.0761 -0.7103
 1013MOL0     C33640   3.961  10.732   5.909  0.4235  0.0822 -0.6836
 1013MOL0     C33641   4.048  10.633   5.938 -0.0485  0.0764 -0.3245
 1013MOL0     O33642   4.179  10.668   5.925 -0.2721 -0.2295 -0.3533
 1013MOL0     C33643   4.284  10.576   5.938 -0.1914  0.4030 -0.5542
 1013MOL0     C33644   4.416  10.636   5.913 -0.3499 -0.4463  0.1956
 1013MOL0     C33645   4.518  10.518   5.905 -0.3436  0.2702 -0.4931
 1013MOL0     C33646   4.655  10.558   5.946 -0.2943  0.3220  0.6435
 1013MOL0     C33647   4.698  10.689   5.905  0.5657 -0.4999  0.0017
 1013MOL0     C33648   4.734  10.794   5.863  0.3712 -0.3878 -0.2434
 1013MOL0     C33649   4.001  10.503   5.976  0.7442  0.2847 -0.2452
 1013MOL0     C33650   3.860  10.483   5.987 -0.6118 -0.0490  0.2804
 1013MOL0     H33651   3.401  10.658   5.713 -1.6785  2.4821 -1.4348
 1013MOL0     H33652   3.144  10.665   5.706  0.7453  1.6342 -0.3538
 1013MOL0     H33653   2.931  10.483   5.963 -0.3616  0.5274  1.6546
 1013MOL0     H33654   2.931  10.541   5.789  1.2497 -1.2325 -0.1014
 1013MOL0     H33655   2.735  10.656   5.820 -0.2283 -1.7240 -0.9541
 1013MOL0     H33656   2.744  10.663   6.002 -1.8812  0.3574 -0.5214
 1013MOL0     H33657   2.700  10.433   6.018  1.0241 -2.8358 -0.6134
 1013MOL0     H33658   2.707  10.405   5.846 -0.1294 -0.9118  0.2002
 1013MOL0     H33659   2.478  10.571   5.979 -1.3406  0.8483 -3.2616
 1013MOL0     H33660   2.488  10.517   5.815 -1.0269  1.6146 -0.1182
 1013MOL0     H33661   2.486  10.337   6.074  0.6195 -3.5065 -0.6962
 1013MOL0     H33662   2.518  10.271   5.922 -2.0798 -1.8495 -1.3576
 1013MOL0     H33663   2.258  10.416   5.998 -2.0049  0.6538 -2.1635
 1013MOL0     H33664   2.292  10.245   6.015 -0.7934  0.6324 -1.2872
 1013MOL0     H33665   2.244  10.401   5.765  0.3115  0.3234  0.7406
 1013MOL0     H33666   2.351  10.258   5.763 -0.5977  0.5372  0.3814
 1013MOL0     H33667   2.169  10.113   5.847  0.2897  0.2242  1.2359
 1013MOL0     H33668   2.111  10.188   5.707 -0.5015  2.1762  0.1325
 1013MOL0     H33669   2.023  10.484   5.810 -1.1658 -0.0149  0.0957
 1013MOL0     H33670   1.825  10.601   6.000  1.6218 -0.1785  1.0891
 1013MOL0     H33671   1.710  10.472   6.067  0.1573 -1.7644  0.7375
 1013MOL0     H33672   1.619  10.432   5.864  0.3445  1.5284 -2.5345
 1013MOL0     H33673   1.717  10.547   5.776  0.2072  1.4618 -0.0832
 1013MOL0     H33674   1.583  10.684   6.000  0.3796  0.7698  0.1004
 1013MOL0     H33675   1.617  10.721   5.832  2.2475 -0.4392  0.7706
 1013MOL0     H33676   1.377  10.699   5.857  1.3654  0.8576 -0.8007
 1013MOL0     H33677   1.396  10.537   5.938 -2.8938  0.7459 -2.2196
 1013MOL0     H33678   1.416  10.553   5.476 -0.7127 -1.0482 -1.2913
 1013MOL0     H33679   1.184  10.612   5.350  0.7495 -0.1941  1.0096
 1013MOL0     H33680   0.707  10.486   5.337  0.0016  1.8814 -2.5248
 1013MOL0     H33681   0.473  10.508   5.282  0.9265  0.2302 -1.1151
 1013MOL0     H33682   0.224  10.549   5.235  0.7198 -0.5713 -2.1230
 1013MOL0     H33683   0.348  10.645   5.159 -0.0506 -0.8681  1.0655
 1013MOL0     H33684   0.170  10.756   5.057  0.4402  0.5142 -0.2746
 1013MOL0     H33685   0.181  10.843   5.204 -0.5436  0.7014 -0.6831
 1013MOL0     H33686  -0.008  10.693   5.300  0.0561  0.9990 -0.0843
 1013MOL0     H33687   0.005  10.589   5.159 -0.8752 -0.3987  1.3974
 1013MOL0     H33688  -0.043  10.884   5.147  0.1257 -0.6761  2.6455
 1013MOL0     H33689  -0.060  10.775   5.017  1.6716  0.8341  0.3838
 1013MOL0     H33690  -0.265  10.681   5.105  1.5896 -1.1640 -0.0765
 1013MOL0     H33691  -0.284  10.855   5.086 -1.6014 -2.2689 -0.6779
 1013MOL0     H33692  -0.216  10.888   5.335  2.4750 -1.0018  1.9818
 1013MOL0     H33693  -0.214  10.712   5.359 -0.8981  0.2556  1.2506
 1013MOL0     H33694  -0.463  10.887   5.290  0.2911  0.2960  1.0130
 1013MOL0     H33695  -0.456  10.713   5.256  1.1223  1.2181 -3.1585
 1013MOL0     H33696  -0.406  10.866   5.513  2.1295 -1.5112 -0.4035
 1013MOL0     H33697  -0.388  10.684   5.494  1.4580 -0.0691 -1.8572
 1013MOL0     H33698   0.420  10.850   5.507 -2.0126 -2.5086 -1.2469
 1013MOL0     H33699   0.681  10.848   5.575  3.3935 -1.5845  0.6937
 1013MOL0     H33700   0.980  10.553   5.703 -1.3233  0.3029 -0.9288
 1013MOL0     H33701   1.181  10.489   5.824 -0.4524  1.5009  0.4419
 1013MOL0     H33702   3.148  10.652   6.147 -0.3028 -0.8557  0.1092
 1013MOL0     H33703   3.401  10.631   6.134 -0.2659  1.7383  0.6756
 1013MOL0     H33704   3.750  10.785   5.881 -0.8807 -0.4403  1.1215
 1013MOL0     H33705   3.988  10.830   5.872  0.2959  0.2739 -0.2762
 1013MOL0     H33706   4.273  10.500   5.860 -0.1701 -0.0566 -0.1168
 1013MOL0     H33707   4.276  10.527   6.035 -0.2965 -1.7771 -1.6196
 1013MOL0     H33708   4.408  10.698   5.824  0.1052  0.3810  0.7119
 1013MOL0     H33709   4.434  10.697   6.002  1.4306  0.4104 -0.7163
 1013MOL0     H33710   4.533  10.484   5.802 -0.9389 -0.8753 -0.2238
 1013MOL0     H33711   4.488  10.426   5.956 -1.7767  0.8324 -0.3010
 1013MOL0     H33712   4.656  10.546   6.055 -2.5767 -1.5803  0.5352
 1013MOL0     H33713   4.728  10.487   5.905  0.8284  1.2700  0.9541
 1013MOL0     H33714   4.774  10.890   5.833  0.9706 -0.8437 -0.9370
 1013MOL0     H33715   4.069  10.419   5.993 -0.3537 -0.7573 -0.8368
 1013MOL0     H33716   3.821  10.384   6.008  1.7506 -0.6442  2.3321
 1014MOL0     O33717  10.549   0.109   3.518  0.1706  0.0303  0.0510
 1014MOL0     C33718  10.653   0.148   3.579 -1.2769 -0.5437 -0.0712
 1014MOL0     O33719  10.661   0.142   3.714 -0.7948  0.4345  0.2750
 1014MOL0     C33720  10.544   0.101   3.784 -1.0607 -0.0766 -0.9391
 1014MOL0     C33721  10.473  -0.015   3.750 -0.9182  0.2368  0.0077
 1014MOL0     C33722  10.360  -0.062   3.825 -0.4012  1.0646 -0.3271
 1014MOL0     C33723  10.317   0.008   3.938 -0.4082  0.5728  0.7325
 1014MOL0     O33724  10.208  -0.047   3.992  0.0234  0.0992 -0.2438
 1014MOL0     C33725  10.165  -0.015   4.126  0.0798  0.0442 -0.2525
 1014MOL0     C33726  10.016   0.019   4.136  0.2627  0.1402 -0.7698
 1014MOL0     C33727   9.984   0.150   4.055  0.0172 -0.1484  0.2524
 1014MOL0     C33728   9.856   0.219   4.106 -1.2338  0.0398 -0.9016
 1014MOL0     C33729   9.733   0.144   4.106  0.3231  0.3311 -0.3335
 1014MOL0     C33730   9.606   0.232   4.123  0.1325 -0.0795  0.4862
 1014MOL0     C33731   9.467   0.159   4.138 -0.0671 -0.2170  0.1707
 1014MOL0     C33732   9.362   0.229   4.220 -0.2117  0.3457  0.2935
 1014MOL0     N33733   9.227   0.166   4.215 -0.6227 -0.1433 -1.1362
 1014MOL0     C33734   9.133   0.181   4.122 -0.5049 -0.2943 -1.2200
 1014MOL0     C33735   9.020   0.129   4.181 -0.5280  0.4786 -0.2138
 1014MOL0     C33736   8.885   0.122   4.119 -0.1112 -0.0031  0.0106
 1014MOL0     C33737   8.777   0.066   4.212  0.6939  0.2768 -0.7125
 1014MOL0     C33738   8.654   0.029   4.128 -0.3838 -0.7547  0.2033
 1014MOL0     C33739   8.548  -0.013   4.223 -0.8223 -0.3853 -0.2215
 1014MOL0     O33740   8.463  -0.089   4.141 -0.0107  0.4342 -0.4124
 1014MOL0     C33741   8.332  -0.100   4.180  0.2569  0.1607 -0.1705
 1014MOL0     C33742   8.275  -0.050   4.303  0.8121 -0.0808  0.0118
 1014MOL0     C33743   8.140  -0.075   4.332 -0.8278  0.1990  0.3622
 1014MOL0     C33744   8.059  -0.145   4.231  0.5296 -0.0894  0.2015
 1014MOL0     C33745   7.917  -0.166   4.260  0.0155  0.3785 -0.5676
 1014MOL0     O33746   7.837  -0.209   4.162  0.2995 -0.1954  0.6465
 1014MOL0     C33747   7.701  -0.232   4.181 -0.0084 -0.4678  0.4041
 1014MOL0     C33748   7.659  -0.351   4.232 -0.0313  0.4432  0.5345
 1014MOL0     C33749   7.518  -0.376   4.238  0.3504 -1.0503  0.0485
 1014MOL0     C33750   7.425  -0.280   4.186 -0.2767  0.1679 -0.3581
 1014MOL0     O33751   7.289  -0.299   4.186 -0.0103 -0.4797  0.0283
 1014MOL0     C33752   7.236  -0.433   4.190  0.2044  0.1472 -0.5834
 1014MOL0     C33753   7.086  -0.411   4.192 -0.2921  0.3024  0.5499
 1014MOL0     C33754   7.028  -0.374   4.333  0.1444  1.2662  0.6836
 1014MOL0     C33755   6.885  -0.318   4.335 -0.1907  0.4159  0.1236
 1014MOL0     C33756   6.779  -0.422   4.287 -0.6352 -0.4707 -0.8241
 1014MOL0     C33757   6.634  -0.364   4.315  0.3384 -0.8813 -0.2818
 1014MOL0     C33758   6.540  -0.482   4.319  0.2121 -0.3640 -0.3768
 1014MOL0     C33759   6.395  -0.430   4.302 -0.2924 -1.0377 -0.5238
 1014MOL0    Cl33760   6.348  -0.335   4.448 -0.0252 -0.0417  0.3802
 1014MOL0     C33761   7.478  -0.160   4.137  0.2522  0.9142 -0.2467
 1014MOL0     C33762   7.609  -0.133   4.138  0.2823 -0.5436  0.1731
 1014MOL0     O33763   7.882  -0.142   4.376  0.2054  0.6231 -0.8734
 1014MOL0     C33764   8.111  -0.185   4.107  0.1162 -0.2762 -0.4339
 1014MOL0     C33765   8.247  -0.164   4.088  0.6614 -0.1286  0.0732
 1014MOL0     N33766   9.057   0.068   4.297  0.2390  0.2277 -0.1706
 1014MOL0     N33767   9.180   0.087   4.312 -0.1372 -0.5192 -0.4162
 1014MOL0     C33768  10.391   0.116   3.979  1.0585 -0.4818 -0.1219
 1014MOL0     C33769  10.499   0.170   3.904 -0.3792 -0.3920 -0.5228
 1014MOL0     C33770  10.770   0.176   3.491 -0.8526 -0.1481 -0.4195
 1014MOL0     C33771  10.749   0.221   3.356 -0.6343  0.1642  1.0019
 1014MOL0     C33772  10.858   0.255   3.274 -0.2394  0.3103 -0.2533
 1014MOL0     C33773  10.990   0.231   3.316  0.3712 -0.5873  0.5588
 1014MOL0     O33774  11.102   0.264   3.247  1.0014 -0.4611  0.6747
 1014MOL0     C33775  11.088   0.283   3.101  0.0225  0.3731  0.0927
 1014MOL0     C33776  11.231   0.276   3.038  0.6452  0.6311 -0.1251
 1014MOL0     C33777  11.328   0.376   3.100 -0.1582  0.8916  0.3161
 1014MOL0     C33778  11.450   0.413   3.012  0.5024  0.0950  0.2299
 1014MOL0     C33779  11.413   0.507   2.911  0.1510 -0.2414 -0.7572
 1014MOL0     C33780  11.378   0.594   2.832  0.0297 -0.5128  0.1384
 1014MOL0     C33781  11.011   0.195   3.450 -0.0015 -0.0114 -0.2199
 1014MOL0     C33782  10.908   0.174   3.542  0.2324 -0.6328  0.6277
 1014MOL0     H33783  10.509  -0.078   3.669  3.8791  1.1958  1.0980
 1014MOL0     H33784  10.316  -0.157   3.795 -1.3710  1.2665  0.3717
 1014MOL0     H33785  10.224   0.061   4.178  0.4279 -0.9233  0.8197
 1014MOL0     H33786  10.180  -0.105   4.187 -1.2187  1.0413  1.6345
 1014MOL0     H33787   9.986   0.033   4.240 -2.7965 -1.0332 -1.3963
 1014MOL0     H33788   9.953  -0.055   4.088 -1.0333  1.9086 -1.9343
 1014MOL0     H33789   9.967   0.125   3.950  0.2599  2.5167 -0.4857
 1014MOL0     H33790  10.059   0.228   4.069  0.9387 -0.7283 -1.2136
 1014MOL0     H33791   9.872   0.251   4.209  1.3232  2.7089 -1.9527
 1014MOL0     H33792   9.835   0.318   4.062 -0.9202  1.2989  1.6053
 1014MOL0     H33793   9.734   0.054   4.168  1.3014  2.0786  2.3961
 1014MOL0     H33794   9.730   0.104   4.004  2.7787 -1.3269  0.1517
 1014MOL0     H33795   9.586   0.310   4.048  1.0828 -0.4668 -0.1835
 1014MOL0     H33796   9.631   0.287   4.215 -0.9819 -1.9184  1.9532
 1014MOL0     H33797   9.425   0.159   4.037  2.5036 -2.9331 -1.0469
 1014MOL0     H33798   9.466   0.055   4.170 -1.5345  0.1217  1.3420
 1014MOL0     H33799   9.348   0.331   4.184 -2.7901 -0.6944 -1.9825
 1014MOL0     H33800   9.388   0.228   4.326 -2.5463 -0.1750  0.9268
 1014MOL0     H33801   9.143   0.228   4.025  1.5745  0.4450 -0.6899
 1014MOL0     H33802   8.898   0.069   4.024  0.0116  0.9436 -0.5082
 1014MOL0     H33803   8.860   0.227   4.101  0.1548  0.7418  3.4049
 1014MOL0     H33804   8.745   0.133   4.293 -1.4968 -3.2396  1.5831
 1014MOL0     H33805   8.805  -0.025   4.265 -0.5845 -0.3885 -1.1403
 1014MOL0     H33806   8.626   0.125   4.085 -0.1513  0.5510  2.7417
 1014MOL0     H33807   8.689  -0.047   4.057  0.3988 -0.6310  0.4430
 1014MOL0     H33808   8.512   0.080   4.269  1.0907  0.4875 -0.3974
 1014MOL0     H33809   8.593  -0.078   4.299 -1.3068 -0.7072 -0.2035
 1014MOL0     H33810   8.337   0.015   4.363  3.1728  0.4518 -2.7819
 1014MOL0     H33811   8.094  -0.033   4.421 -4.1124 -0.3112 -0.9452
 1014MOL0     H33812   7.725  -0.429   4.269  0.1244  1.5831  2.8837
 1014MOL0     H33813   7.488  -0.475   4.272  1.6221 -2.2881 -2.2124
 1014MOL0     H33814   7.272  -0.491   4.275  0.4015  1.5907  0.3514
 1014MOL0     H33815   7.259  -0.484   4.096 -0.2585 -0.4567 -0.3764
 1014MOL0     H33816   7.042  -0.504   4.154 -0.5570 -0.4524  2.5752
 1014MOL0     H33817   7.072  -0.336   4.114  1.6293 -0.1539 -0.2776
 1014MOL0     H33818   7.094  -0.296   4.371 -0.2969  2.7473 -1.4013
 1014MOL0     H33819   7.022  -0.456   4.405 -0.7003  1.9837  1.4547
 1014MOL0     H33820   6.857  -0.286   4.436  0.9508  0.9502  0.2894
 1014MOL0     H33821   6.880  -0.226   4.277 -2.1958  1.7555  2.2182
 1014MOL0     H33822   6.788  -0.506   4.357 -3.8234 -0.5776 -0.4218
 1014MOL0     H33823   6.795  -0.450   4.183  0.7413 -0.1975 -0.7078
 1014MOL0     H33824   6.616  -0.294   4.232  0.8910  0.5048  0.7286
 1014MOL0     H33825   6.610  -0.310   4.407 -1.4518 -0.1376 -1.1228
 1014MOL0     H33826   6.563  -0.543   4.231  0.8076  0.8122 -1.0452
 1014MOL0     H33827   6.549  -0.545   4.408 -4.3979  0.2771  0.8161
 1014MOL0     H33828   6.329  -0.515   4.284  2.2293 -2.8460 -1.7032
 1014MOL0     H33829   6.392  -0.369   4.211  1.3228 -2.0185 -1.2806
 1014MOL0     H33830   7.413  -0.088   4.088  1.0243  0.5130 -1.9423
 1014MOL0     H33831   7.634  -0.040   4.087 -2.3091 -2.3243 -5.1028
 1014MOL0     H33832   8.050  -0.242   4.038  0.8957 -1.3889 -0.2295
 1014MOL0     H33833   8.294  -0.187   3.993  1.0251  1.6357 -0.2122
 1014MOL0     H33834  10.366   0.181   4.062 -0.9157 -2.5391  1.0005
 1014MOL0     H33835  10.557   0.256   3.937  1.7119 -2.4893  1.6654
 1014MOL0     H33836  10.653   0.236   3.308  0.1257  0.4194 -0.5326
 1014MOL0     H33837  10.825   0.302   3.182 -0.7357  2.5994  1.0168
 1014MOL0     H33838  11.038   0.378   3.080 -0.3492  0.1054 -0.2353
 1014MOL0     H33839  11.022   0.205   3.061  0.7036 -0.8720  1.3134
 1014MOL0     H33840  11.259   0.172   3.057 -1.4246 -0.3272 -1.9179
 1014MOL0     H33841  11.214   0.295   2.932 -1.3679 -1.2973 -0.2234
 1014MOL0     H33842  11.381   0.339   3.189  0.9337 -1.2068 -1.1225
 1014MOL0     H33843  11.275   0.468   3.127 -2.7732 -0.3318 -0.3594
 1014MOL0     H33844  11.532   0.444   3.078 -2.0363  3.3429  2.2271
 1014MOL0     H33845  11.489   0.321   2.969  0.3786 -1.0607  2.4259
 1014MOL0     H33846  11.331   0.662   2.764 -0.7185  0.9812  2.0609
 1014MOL0     H33847  11.110   0.167   3.483 -1.1132 -0.5813  3.0550
 1014MOL0     H33848  10.926   0.142   3.644 -0.1252 -2.2609  0.2093
 1015MOL0     O33849   8.294   6.124  10.732 -0.3466 -0.2993 -0.4182
 1015MOL0     C33850   8.302   6.054  10.638  0.1212  0.5222  0.2479
 1015MOL0     O33851   8.205   6.032  10.544 -0.1925  1.1780 -0.4560
 1015MOL0     C33852   8.085   6.102  10.570  0.1047  1.0939  0.4190
 1015MOL0     C33853   7.962   6.037  10.605  0.0021  0.5650 -0.1338
 1015MOL0     C33854   7.847   6.115  10.621  0.6644  0.1675 -0.2871
 1015MOL0     C33855   7.845   6.258  10.593  0.5619 -0.5344  0.2476
 1015MOL0     O33856   7.738   6.347  10.595  0.1082 -0.2701 -0.1171
 1015MOL0     C33857   7.611   6.278  10.566 -0.2036 -0.6372 -1.0088
 1015MOL0     C33858   7.489   6.364  10.587 -0.1282 -0.0390 -0.7090
 1015MOL0     C33859   7.482   6.449  10.466  0.3862 -0.6379  0.7629
 1015MOL0     C33860   7.367   6.552  10.453  0.9701 -0.2154  0.4643
 1015MOL0     C33861   7.232   6.497  10.402 -0.6733  0.8545 -0.3261
 1015MOL0     C33862   7.163   6.616  10.342 -0.6077  1.1872 -0.4265
 1015MOL0     C33863   7.015   6.582  10.325  0.7098  0.0637  0.8864
 1015MOL0     C33864   6.989   6.486  10.212 -0.8810  0.6994  0.2314
 1015MOL0     N33865   6.838   6.466  10.194 -0.3653 -0.0718 -0.0309
 1015MOL0     C33866   6.750   6.369  10.236 -0.4553 -0.1288 -0.4631
 1015MOL0     C33867   6.630   6.416  10.190 -0.6228  0.5359 -0.5406
 1015MOL0     C33868   6.502   6.346  10.218 -0.1736 -0.1781 -0.2898
 1015MOL0     C33869   6.388   6.433  10.283 -1.5008 -0.6487 -0.6126
 1015MOL0     C33870   6.254   6.363  10.282  0.4701 -0.5394  0.7694
 1015MOL0     C33871   6.233   6.257  10.388  0.3284 -0.0192 -0.4796
 1015MOL0     O33872   6.100   6.206  10.384 -0.6972  0.0608 -0.3866
 1015MOL0     C33873   5.994   6.269  10.428  0.4472 -0.3400  0.0713
 1015MOL0     C33874   5.870   6.204  10.424 -0.5105  0.6822 -0.2702
 1015MOL0     C33875   5.752   6.261  10.466  0.2550 -0.2336  0.2298
 1015MOL0     C33876   5.748   6.392  10.510  0.0653 -0.3593 -0.4180
 1015MOL0     C33877   5.617   6.441  10.562  0.0802 -0.0234  0.3994
 1015MOL0     O33878   5.521   6.354  10.575  0.6571  0.1690  0.0124
 1015MOL0     C33879   5.388   6.388  10.611  0.8745  0.0907  0.9986
 1015MOL0     C33880   5.289   6.294  10.581 -0.8291  0.0104  0.9214
 1015MOL0     C33881   5.156   6.320  10.607  0.2573  0.6572 -0.5438
 1015MOL0     C33882   5.115   6.434  10.672 -0.4538 -0.8021 -0.8141
 1015MOL0     O33883   4.984   6.463  10.677  0.4929  0.3924 -0.2341
 1015MOL0     C33884   4.930   6.577  10.735 -0.3601  0.5663  0.3933
 1015MOL0     C33885   4.786   6.591  10.691 -0.5531  0.4458 -0.2149
 1015MOL0     C33886   4.717   6.708  10.760  0.1426 -1.5261  0.4129
 1015MOL0     C33887   4.565   6.691  10.729 -0.4776 -0.2128  0.1841
 1015MOL0     C33888   4.475   6.776  10.816 -0.1669  0.1532  0.1879
 1015MOL0     C33889   4.482   6.766  10.972 -0.0057  0.3950  0.0511
 1015MOL0     C33890   4.398   6.648  11.022  0.2415 -0.4809  0.0959
 1015MOL0     C33891   4.414   6.638  11.168  0.2748 -0.0486  0.1732
 1015MOL0    Cl33892   4.283   6.728  11.247  0.1480  0.0192 -0.1727
 1015MOL0     C33893   5.212   6.528  10.705 -0.0826 -0.1982  0.2240
 1015MOL0     C33894   5.351   6.508  10.681  1.4139 -0.4920  0.3635
 1015MOL0     O33895   5.620   6.561  10.597 -0.1245  0.8755 -0.7968
 1015MOL0     C33896   5.870   6.460  10.523  0.3667 -0.2297 -0.4163
 1015MOL0     C33897   5.985   6.401  10.478 -0.0324  0.4679 -1.0062
 1015MOL0     N33898   6.647   6.543  10.125  0.0892 -0.8501  0.7329
 1015MOL0     N33899   6.773   6.561  10.116  0.2223  0.4224  0.4807
 1015MOL0     C33900   7.967   6.317  10.561 -0.0331  0.3281  0.0516
 1015MOL0     C33901   8.080   6.238  10.543  0.2216  1.4032  0.1673
 1015MOL0     C33902   8.443   6.007  10.615  0.6080 -0.2733 -0.3143
 1015MOL0     C33903   8.480   5.951  10.489  0.3163 -0.1188 -0.8146
 1015MOL0     C33904   8.605   5.893  10.477  0.4149  0.1941 -0.1026
 1015MOL0     C33905   8.702   5.885  10.576  0.6076 -0.1642  0.0853
 1015MOL0     O33906   8.809   5.804  10.549 -0.7885 -0.1845  0.1462
 1015MOL0     C33907   8.891   5.755  10.659 -0.3000  0.1992 -0.1828
 1015MOL0     C33908   9.024   5.693  10.611  0.5300  0.1125  0.9933
 1015MOL0     C33909   9.003   5.569  10.511 -0.3700  0.2915  0.1898
 1015MOL0     C33910   9.130   5.504  10.454  0.8326 -0.0823 -0.9092
 1015MOL0     C33911   9.229   5.459  10.562 -0.2127  0.1449 -0.1166
 1015MOL0     C33912   9.301   5.426  10.657 -0.4850 -0.5576  0.1487
 1015MOL0     C33913   8.666   5.946  10.702  0.2551  0.1220  0.1035
 1015MOL0     C33914   8.541   6.010  10.713  0.6606 -0.1485 -0.3754
 1015MOL0     H33915   7.962   5.930  10.623 -1.3343 -0.3424 -4.4620
 1015MOL0     H33916   7.757   6.057  10.642  0.8890 -0.0851 -0.0186
 1015MOL0     H33917   7.591   6.197  10.638 -0.4201  1.2349  1.1515
 1015MOL0     H33918   7.620   6.236  10.465  2.2101 -3.7360  0.3222
 1015MOL0     H33919   7.506   6.426  10.676 -1.7197 -1.4951  0.6884
 1015MOL0     H33920   7.398   6.305  10.588 -0.6650  0.7740 -0.4818
 1015MOL0     H33921   7.500   6.387  10.378  2.1195  0.8900 -0.0233
 1015MOL0     H33922   7.576   6.504  10.464  1.1437 -1.8878  0.8656
 1015MOL0     H33923   7.346   6.598  10.550  0.3252  2.8373 -0.9980
 1015MOL0     H33924   7.408   6.640  10.402  1.2004 -0.0990  0.8467
 1015MOL0     H33925   7.180   6.463  10.492  0.5232  3.8574  1.6672
 1015MOL0     H33926   7.244   6.418  10.328  0.0965 -1.0196  1.6986
 1015MOL0     H33927   7.202   6.659  10.249  0.9080 -0.4194 -0.5783
 1015MOL0     H33928   7.171   6.685  10.426 -0.5009 -1.2151  1.6449
 1015MOL0     H33929   6.976   6.542  10.419  1.5689  0.1337  1.2752
 1015MOL0     H33930   6.958   6.674  10.308 -0.0402 -0.7413 -1.4338
 1015MOL0     H33931   7.045   6.396  10.239 -1.3296  1.0001  2.3548
 1015MOL0     H33932   7.037   6.529  10.123  1.1087  1.5343  1.6170
 1015MOL0     H33933   6.775   6.283  10.296  2.2085  0.3705 -0.7233
 1015MOL0     H33934   6.525   6.261  10.282  0.2384 -0.7096 -1.1140
 1015MOL0     H33935   6.467   6.304  10.123 -2.2456 -1.8150  1.1065
 1015MOL0     H33936   6.394   6.534  10.242  0.1246  0.1851  1.4801
 1015MOL0     H33937   6.414   6.454  10.387  1.3959  1.9551 -1.7370
 1015MOL0     H33938   6.171   6.434  10.286 -0.4205 -1.3406 -1.7237
 1015MOL0     H33939   6.253   6.313  10.184 -0.5114  1.3131 -0.2265
 1015MOL0     H33940   6.245   6.303  10.487 -1.9917 -0.7113  0.1806
 1015MOL0     H33941   6.300   6.171  10.377  0.3680  0.1095 -1.3276
 1015MOL0     H33942   5.872   6.106  10.377 -2.3057  1.9018 -3.2027
 1015MOL0     H33943   5.662   6.205  10.442 -0.8767  1.8993 -0.7947
 1015MOL0     H33944   5.316   6.214  10.513 -0.2921  1.0485 -0.1105
 1015MOL0     H33945   5.093   6.246  10.557  2.6095 -3.0266  1.4529
 1015MOL0     H33946   4.978   6.670  10.704  1.0654  0.4054  1.9951
 1015MOL0     H33947   4.940   6.580  10.843 -2.6089 -0.9304  0.7180
 1015MOL0     H33948   4.734   6.503  10.728 -0.7245 -0.0286 -1.5238
 1015MOL0     H33949   4.777   6.591  10.582  1.1273 -0.5310 -0.3910
 1015MOL0     H33950   4.748   6.810  10.736  1.2138 -1.2984  2.5705
 1015MOL0     H33951   4.740   6.711  10.866 -0.2484  1.7341  0.5022
 1015MOL0     H33952   4.558   6.715  10.622 -0.1154  2.7455  0.7244
 1015MOL0     H33953   4.532   6.589  10.746  0.3361 -0.1390  2.6782
 1015MOL0     H33954   4.370   6.759  10.792  0.0518  1.7838 -2.3006
 1015MOL0     H33955   4.484   6.881  10.788  0.6385  0.0421  0.0038
 1015MOL0     H33956   4.438   6.853  11.021  2.8051  0.4542  2.7613
 1015MOL0     H33957   4.584   6.761  11.012  0.6698 -0.1533 -1.6022
 1015MOL0     H33958   4.294   6.652  10.989  0.1883  1.9492  0.4118
 1015MOL0     H33959   4.452   6.569  10.968  2.1034  2.1017 -2.0549
 1015MOL0     H33960   4.511   6.675  11.202 -0.5896 -0.0211  2.8491
 1015MOL0     H33961   4.400   6.534  11.198 -2.7752  0.3005  0.2862
 1015MOL0     H33962   5.191   6.621  10.756  4.2438  1.0124  0.2059
 1015MOL0     H33963   5.419   6.587  10.713 -0.3491  0.3719  2.1634
 1015MOL0     H33964   5.877   6.562  10.560  0.2547 -1.3111  2.8832
 1015MOL0     H33965   6.077   6.459  10.483 -0.3208  0.9259 -1.0058
 1015MOL0     H33966   7.972   6.424  10.542  4.4714  0.5278  1.1765
 1015MOL0     H33967   8.167   6.300  10.521  1.2272  0.1148  0.4269
 1015MOL0     H33968   8.416   5.962  10.402 -2.1911  0.2466  0.9824
 1015MOL0     H33969   8.637   5.856  10.379  0.7096 -0.9865  0.4181
 1015MOL0     H33970   8.833   5.682  10.716 -0.6556 -0.0420 -0.8360
 1015MOL0     H33971   8.909   5.840  10.725 -5.0259  1.6817 -0.4130
 1015MOL0     H33972   9.081   5.770  10.558 -0.0256 -0.2925 -0.2363
 1015MOL0     H33973   9.086   5.667  10.697  2.8752 -1.4556 -1.0084
 1015MOL0     H33974   8.924   5.576  10.435 -0.9940 -2.5968  0.4728
 1015MOL0     H33975   8.964   5.487  10.572  2.0559 -1.7503 -0.8627
 1015MOL0     H33976   9.103   5.418  10.393 -0.7127 -1.1630  1.1584
 1015MOL0     H33977   9.169   5.577  10.383 -0.7836  0.4054 -1.3331
 1015MOL0     H33978   9.351   5.393  10.745 -1.2191  0.4867  0.9968
 1015MOL0     H33979   8.735   5.962  10.785 -0.8183  2.1673  0.6538
 1015MOL0     H33980   8.507   6.045  10.809 -1.0660 -4.0030  0.5995
 1016MOL0     O33981   1.743  11.023   1.431  0.1858  0.3149 -0.0733
 1016MOL0     C33982   1.786  11.117   1.365  0.5902  0.8829  0.6485
 1016MOL0     O33983   1.709  11.191   1.284 -0.4434  0.6835  0.8702
 1016MOL0     C33984   1.574  11.169   1.287 -0.7707  0.2634 -0.1544
 1016MOL0     C33985   1.483  11.243   1.369 -0.0549 -1.0157  0.7482
 1016MOL0     C33986   1.342  11.217   1.377  0.0784 -0.0958 -0.2206
 1016MOL0     C33987   1.292  11.111   1.302 -0.5601 -0.3454  0.8079
 1016MOL0     O33988   1.161  11.083   1.312 -0.0578 -0.0142  0.2454
 1016MOL0     C33989   1.102  10.985   1.231  0.1089  0.3787 -0.0551
 1016MOL0     C33990   0.966  10.949   1.274 -0.6759 -0.1389 -0.1630
 1016MOL0     C33991   0.876  11.067   1.246 -0.3547 -0.1369  0.6855
 1016MOL0     C33992   0.726  11.036   1.259 -0.2413 -0.3562 -0.4275
 1016MOL0     C33993   0.678  10.951   1.378  0.1950  0.1538 -0.2124
 1016MOL0     C33994   0.528  10.936   1.375 -0.0698  0.7110 -0.3316
 1016MOL0     C33995   0.451  10.969   1.513  0.8678 -0.4813 -0.5051
 1016MOL0     C33996   0.292  10.976   1.512  0.1901  0.4544 -0.5243
 1016MOL0     N33997   0.239  10.960   1.655  0.1446 -0.0499  0.0069
 1016MOL0     C33998   0.246  11.045   1.759  0.0146  0.3350  0.3419
 1016MOL0     C33999   0.184  10.994   1.859 -0.5688 -0.7551 -0.6727
 1016MOL0     C34000   0.164  11.058   1.998 -0.6783 -0.5739  0.4755
 1016MOL0     C34001   0.170  10.970   2.124 -0.2477 -1.0872  0.6889
 1016MOL0     C34002   0.037  10.895   2.132  0.5610  0.0372 -0.4002
 1016MOL0     C34003   0.014  10.829   2.267 -0.4902 -0.1750 -0.1769
 1016MOL0     O34004  -0.005  10.920   2.378 -0.1896 -0.3312  0.0277
 1016MOL0     C34005  -0.038  10.868   2.495  0.7098 -0.3601 -0.8654
 1016MOL0     C34006   0.053  10.872   2.604 -0.2160  0.5483  0.2859
 1016MOL0     C34007   0.027  10.808   2.728 -0.1882 -0.1623  1.0310
 1016MOL0     C34008  -0.098  10.736   2.752  0.0725 -0.2744  0.3526
 1016MOL0     C34009  -0.129  10.667   2.878 -0.8228 -0.0339 -0.2183
 1016MOL0     O34010  -0.197  10.549   2.872 -0.2526  0.3128  0.5864
 1016MOL0     C34011  -0.212  10.464   2.980  0.8535  0.5112  0.0572
 1016MOL0     C34012  -0.148  10.341   2.986  0.2085 -0.6835  0.2874
 1016MOL0     C34013  -0.159  10.256   3.099 -0.3446 -0.2486  0.3308
 1016MOL0     C34014  -0.239  10.288   3.203 -0.0613 -0.1597 -0.3055
 1016MOL0     O34015  -0.243  10.205   3.315 -0.9839  0.3375 -0.5548
 1016MOL0     C34016  -0.364  10.156   3.373 -0.1379  0.0278 -0.6225
 1016MOL0     C34017  -0.425  10.057   3.280 -0.2636  0.6293  0.5342
 1016MOL0     C34018  -0.525   9.970   3.350  0.1623  0.2197 -0.6811
 1016MOL0     C34019  -0.574   9.850   3.268  0.4467 -0.4371 -0.0045
 1016MOL0     C34020  -0.661   9.752   3.347  0.0955 -0.1090 -0.4161
 1016MOL0     C34021  -0.795   9.800   3.379  0.7853 -0.0911 -0.0946
 1016MOL0     C34022  -0.881   9.689   3.436  0.3537  0.1875  0.2949
 1016MOL0     C34023  -1.031   9.703   3.449  0.7457 -0.7927 -0.0371
 1016MOL0    Cl34024  -1.095   9.774   3.294 -0.0410  0.0428 -0.3055
 1016MOL0     C34025  -0.303  10.413   3.200 -0.5448  0.5697 -0.1505
 1016MOL0     C34026  -0.302  10.493   3.086  0.3144 -0.5427 -0.4752
 1016MOL0     O34027  -0.078  10.715   2.977 -0.0804 -0.7120 -0.7530
 1016MOL0     C34028  -0.193  10.737   2.643 -0.5690  0.2434  0.4924
 1016MOL0     C34029  -0.162  10.796   2.511 -0.0000  0.4202 -0.0837
 1016MOL0     N34030   0.122  10.879   1.818 -0.6292 -0.6180 -0.1729
 1016MOL0     N34031   0.164  10.859   1.696 -0.4541 -0.2028 -0.1376
 1016MOL0     C34032   1.386  11.031   1.227  0.7079 -0.7735  0.4233
 1016MOL0     C34033   1.523  11.059   1.221  0.7281  0.1535 -0.1380
 1016MOL0     C34034   1.929  11.141   1.366 -1.7320 -0.0690  0.3202
 1016MOL0     C34035   2.010  11.064   1.457  0.3058 -0.4244 -0.1280
 1016MOL0     C34036   2.148  11.070   1.443  1.1035 -0.9272 -0.8520
 1016MOL0     C34037   2.208  11.151   1.335 -0.7156  0.8750 -0.9691
 1016MOL0     O34038   2.344  11.141   1.310  0.2342  0.1914 -0.0556
 1016MOL0     C34039   2.397  11.169   1.178  0.5429 -0.3001  0.2345
 1016MOL0     C34040   2.551  11.149   1.183  0.9714 -0.1702 -0.5746
 1016MOL0     C34041   2.595  11.016   1.241  0.6903 -0.8701 -0.7679
 1016MOL0     C34042   2.738  10.997   1.287  0.2587 -0.2410 -0.0812
 1016MOL0     C34043   2.834  11.003   1.177 -0.7157  0.5218 -1.0667
 1016MOL0     C34044   2.906  10.986   1.084 -0.2125  1.1995  0.5473
 1016MOL0     C34045   2.129  11.215   1.248  0.3658 -0.1118  0.6727
 1016MOL0     C34046   1.995  11.216   1.268  0.7998 -0.4200  0.0555
 1016MOL0     H34047   1.533  11.317   1.430  1.6175 -0.9002 -0.6694
 1016MOL0     H34048   1.273  11.276   1.437 -1.2568 -0.6784 -1.1491
 1016MOL0     H34049   1.156  10.890   1.235  3.1346  1.7639 -3.0882
 1016MOL0     H34050   1.103  11.014   1.125 -0.9012  0.5285 -0.0332
 1016MOL0     H34051   0.957  10.938   1.382  0.8237  2.0691  0.2511
 1016MOL0     H34052   0.921  10.860   1.228  0.0246 -0.9105  0.6201
 1016MOL0     H34053   0.893  11.100   1.143  2.3035 -1.0169  0.7657
 1016MOL0     H34054   0.907  11.145   1.315  1.8237 -2.0202  2.0058
 1016MOL0     H34055   0.677  11.133   1.277 -1.5497 -1.3589  1.9019
 1016MOL0     H34056   0.694  11.000   1.161 -3.4962  2.8801 -0.7770
 1016MOL0     H34057   0.704  11.005   1.469 -2.0855  0.1897  0.4646
 1016MOL0     H34058   0.732  10.856   1.378  0.1181  0.0981 -1.0219
 1016MOL0     H34059   0.493  10.837   1.344 -3.2833  2.0978 -1.6395
 1016MOL0     H34060   0.484  11.000   1.298  1.3165  2.5134  0.3024
 1016MOL0     H34061   0.489  10.910   1.597  1.0093  2.1767  1.4128
 1016MOL0     H34062   0.486  11.072   1.527 -1.2112  0.1411  0.4598
 1016MOL0     H34063   0.242  10.899   1.451 -0.6605 -1.3257  2.2266
 1016MOL0     H34064   0.260  11.070   1.467 -4.2754 -1.3693 -1.7791
 1016MOL0     H34065   0.293  11.143   1.763  0.2189  0.3019 -0.9135
 1016MOL0     H34066   0.064  11.103   1.995 -0.5132 -0.0778 -3.9133
 1016MOL0     H34067   0.243  11.132   2.018  0.7538 -2.1592  0.8576
 1016MOL0     H34068   0.179  11.032   2.213 -0.8832 -1.3299  0.9294
 1016MOL0     H34069   0.256  10.903   2.121  1.6005  1.2040 -0.0192
 1016MOL0     H34070  -0.046  10.964   2.113  0.0122 -0.3039  0.6629
 1016MOL0     H34071   0.022  10.821   2.052  0.9806  0.9123 -1.3138
 1016MOL0     H34072   0.103  10.767   2.284  0.9586  1.1021 -2.5330
 1016MOL0     H34073  -0.076  10.767   2.267 -0.2850 -0.4740 -0.1473
 1016MOL0     H34074   0.151  10.918   2.590 -0.7816  1.2687 -1.5345
 1016MOL0     H34075   0.101  10.812   2.807  1.2013  1.7623 -0.2828
 1016MOL0     H34076  -0.090  10.303   2.902 -1.9264 -3.6751  0.0060
 1016MOL0     H34077  -0.108  10.161   3.089  0.6639  0.5187 -4.3301
 1016MOL0     H34078  -0.438  10.232   3.402 -1.9324 -1.0832 -2.0550
 1016MOL0     H34079  -0.334  10.103   3.464  0.0061 -0.2339 -0.8225
 1016MOL0     H34080  -0.346   9.989   3.249  0.5473  2.2549 -1.1011
 1016MOL0     H34081  -0.460  10.108   3.190  0.7360 -2.2985 -1.6437
 1016MOL0     H34082  -0.605  10.036   3.382  0.7793 -0.2796  2.1234
 1016MOL0     H34083  -0.476   9.934   3.441  1.3651  0.2539 -1.2893
 1016MOL0     H34084  -0.637   9.897   3.193 -0.3433  0.4446  1.1711
 1016MOL0     H34085  -0.486   9.797   3.231 -0.5721 -1.1529 -1.5041
 1016MOL0     H34086  -0.600   9.728   3.435  2.3716  3.3253 -0.8334
 1016MOL0     H34087  -0.670   9.661   3.288  0.4778 -1.1417  1.0620
 1016MOL0     H34088  -0.842   9.828   3.284  1.0955 -1.2914 -0.6222
 1016MOL0     H34089  -0.800   9.891   3.440 -0.8131 -0.7871  0.8787
 1016MOL0     H34090  -0.862   9.598   3.378 -1.2562  0.9600 -1.5891
 1016MOL0     H34091  -0.846   9.671   3.538 -1.3619 -0.1930  0.8443
 1016MOL0     H34092  -1.064   9.764   3.534  3.8062  0.4824  0.3403
 1016MOL0     H34093  -1.059   9.600   3.473  1.1600 -0.9313 -0.1403
 1016MOL0     H34094  -0.350  10.446   3.292  1.3787 -1.0945  1.5301
 1016MOL0     H34095  -0.357  10.586   3.075  2.5829  0.8176 -1.0101
 1016MOL0     H34096  -0.285  10.680   2.649 -1.6899  1.7379 -1.4124
 1016MOL0     H34097  -0.225  10.782   2.424  1.6318 -3.4425 -0.8645
 1016MOL0     H34098   1.354  10.949   1.163  0.3122  0.4525 -1.0246
 1016MOL0     H34099   1.595  10.997   1.170 -1.0173 -1.0483 -1.2204
 1016MOL0     H34100   1.969  11.004   1.537  0.4785  1.1642  1.2189
 1016MOL0     H34101   2.215  11.010   1.504  0.4573  0.8176  1.7019
 1016MOL0     H34102   2.375  11.270   1.140 -1.1157 -0.6958  0.0467
 1016MOL0     H34103   2.347  11.107   1.103 -0.9774 -0.4881  1.3466
 1016MOL0     H34104   2.595  11.165   1.084  0.5366 -0.2708 -0.7872
 1016MOL0     H34105   2.595  11.232   1.239 -0.1110 -0.6600  1.0480
 1016MOL0     H34106   2.578  10.945   1.159  1.6507 -1.7106 -0.2624
 1016MOL0     H34107   2.541  11.011   1.335  2.7665  2.9732  0.8705
 1016MOL0     H34108   2.776  11.067   1.362  1.1816 -2.0195  1.2226
 1016MOL0     H34109   2.741  10.899   1.337  1.1040  1.7201  4.1442
 1016MOL0     H34110   2.960  10.967   0.994 -2.5395  0.4341 -0.7744
 1016MOL0     H34111   2.166  11.272   1.163 -0.1292  2.5247  2.1355
 1016MOL0     H34112   1.930  11.268   1.199  1.1316  1.6666  1.2189
 1017MOL0     O34113   2.691   6.851   7.319  0.1621  0.0039 -0.5097
 1017MOL0     C34114   2.694   6.777   7.223 -0.7788 -0.4844 -0.0820
 1017MOL0     O34115   2.591   6.712   7.170  0.0354  0.2204  0.5717
 1017MOL0     C34116   2.469   6.712   7.242 -0.1181  0.5004  0.2450
 1017MOL0     C34117   2.465   6.623   7.350  0.2430 -0.2339  0.9845
 1017MOL0     C34118   2.337   6.592   7.403 -0.3686  0.1594 -0.1392
 1017MOL0     C34119   2.222   6.663   7.370 -0.1412  0.1684 -0.2468
 1017MOL0     O34120   2.097   6.649   7.417  0.2186 -0.0625 -0.0157
 1017MOL0     C34121   2.061   6.523   7.468 -0.8501  0.1147 -0.3448
 1017MOL0     C34122   1.933   6.529   7.544  0.0201 -0.5268 -0.4503
 1017MOL0     C34123   1.945   6.627   7.661 -0.6433 -0.1165  0.2430
 1017MOL0     C34124   1.814   6.627   7.738 -0.2734 -0.7300  0.3584
 1017MOL0     C34125   1.781   6.759   7.815 -0.9415  0.0010 -0.1382
 1017MOL0     C34126   1.646   6.752   7.878  0.1755 -0.8212  0.2946
 1017MOL0     C34127   1.593   6.886   7.922  0.5311 -0.2059 -0.4885
 1017MOL0     C34128   1.637   6.925   8.058 -0.1844  0.2699  0.5936
 1017MOL0     N34129   1.621   7.071   8.077  0.2093 -0.5646  0.3629
 1017MOL0     C34130   1.514   7.147   8.044 -0.3515  0.4706  0.0922
 1017MOL0     C34131   1.546   7.275   8.082  1.0573  0.3786  0.0492
 1017MOL0     C34132   1.478   7.407   8.069  0.0993 -0.4446 -0.1951
 1017MOL0     C34133   1.387   7.443   8.173  0.3297  0.9046 -0.5444
 1017MOL0     C34134   1.276   7.541   8.132  0.3835 -0.7223 -0.8863
 1017MOL0     C34135   1.171   7.475   8.044 -0.5287 -0.7640 -0.6921
 1017MOL0     O34136   1.082   7.592   8.016 -0.1024  0.1695 -0.3739
 1017MOL0     C34137   0.962   7.611   8.079  0.2611 -0.0175  0.0624
 1017MOL0     C34138   0.856   7.663   8.010 -0.5654 -0.1806 -0.1963
 1017MOL0     C34139   0.724   7.676   8.058  0.6225 -0.1583  0.3189
 1017MOL0     C34140   0.707   7.637   8.197  0.0286  0.8302  0.1219
 1017MOL0     C34141   0.569   7.643   8.254  0.5300 -0.2813 -0.3098
 1017MOL0     O34142   0.472   7.643   8.159  0.4650 -0.3299  0.3811
 1017MOL0     C34143   0.348   7.599   8.204 -0.7343  0.5725 -0.1012
 1017MOL0     C34144   0.323   7.465   8.225 -0.3979  0.7337  0.6581
 1017MOL0     C34145   0.196   7.423   8.265  0.3346  0.4975 -0.0410
 1017MOL0     C34146   0.100   7.517   8.287  0.0047  0.6636  0.3900
 1017MOL0     O34147  -0.028   7.479   8.326  0.3295  0.3676 -0.2705
 1017MOL0     C34148  -0.111   7.574   8.403  0.4327  1.1303 -0.2303
 1017MOL0     C34149  -0.202   7.495   8.500 -0.1462  0.5070  0.3467
 1017MOL0     C34150  -0.264   7.586   8.604 -0.4526 -0.0709 -0.8435
 1017MOL0     C34151  -0.364   7.502   8.691 -0.3653 -0.1814 -0.0447
 1017MOL0     C34152  -0.415   7.581   8.819  0.3144  0.6065  0.2262
 1017MOL0     C34153  -0.310   7.596   8.930 -0.0056  0.2696  1.5113
 1017MOL0     C34154  -0.370   7.640   9.057  1.0882  0.5039  0.3470
 1017MOL0     C34155  -0.469   7.759   9.047 -1.1092 -0.7485 -0.4519
 1017MOL0    Cl34156  -0.396   7.918   9.017 -0.0016 -0.1656 -0.3960
 1017MOL0     C34157   0.130   7.648   8.278 -0.6387  0.2089  0.2510
 1017MOL0     C34158   0.249   7.688   8.224  0.0591 -0.5915 -1.0443
 1017MOL0     O34159   0.552   7.633   8.377 -0.1515 -0.0846  0.4121
 1017MOL0     C34160   0.817   7.598   8.276  0.7401 -0.2769  0.4931
 1017MOL0     C34161   0.940   7.582   8.211  0.4670 -0.3334  0.4239
 1017MOL0     N34162   1.674   7.268   8.122  0.6641  0.4430 -0.0169
 1017MOL0     N34163   1.717   7.146   8.121  0.1831 -0.0895  0.0375
 1017MOL0     C34164   2.231   6.757   7.265 -0.3455  0.4647 -0.2597
 1017MOL0     C34165   2.355   6.773   7.195  0.7741 -0.3640  0.0085
 1017MOL0     C34166   2.831   6.752   7.166 -0.1132 -0.4446 -0.0187
 1017MOL0     C34167   2.948   6.812   7.224 -0.7551  0.1796  0.0016
 1017MOL0     C34168   3.076   6.797   7.181  0.0425 -0.1994 -0.1861
 1017MOL0     C34169   3.091   6.710   7.071 -0.5009 -0.2676  0.2823
 1017MOL0     O34170   3.219   6.682   7.021 -0.3180 -0.4315 -0.2858
 1017MOL0     C34171   3.312   6.785   7.035 -0.3873 -0.3166  0.1201
 1017MOL0     C34172   3.458   6.748   7.001 -0.6812 -0.2454  0.3699
 1017MOL0     C34173   3.476   6.750   6.849 -0.0724 -0.0621  0.4475
 1017MOL0     C34174   3.565   6.860   6.793  0.6520 -0.2802  0.3412
 1017MOL0     C34175   3.616   6.830   6.655  0.5973  0.1495 -0.2387
 1017MOL0     C34176   3.652   6.827   6.539 -0.5571 -0.4296  0.0976
 1017MOL0     C34177   2.986   6.632   7.014 -0.5904  0.0452 -0.4085
 1017MOL0     C34178   2.852   6.661   7.060 -0.5511  0.2977  0.1206
 1017MOL0     H34179   2.553   6.565   7.376  2.5886  2.4282 -0.3776
 1017MOL0     H34180   2.349   6.518   7.481 -1.0378 -0.7309 -0.8582
 1017MOL0     H34181   2.135   6.480   7.537 -3.1146 -0.0703  2.1431
 1017MOL0     H34182   2.035   6.456   7.385 -4.4724 -0.6844  1.2441
 1017MOL0     H34183   1.918   6.432   7.592 -2.2737 -0.6081 -1.2226
 1017MOL0     H34184   1.845   6.547   7.481  0.8659 -0.3463 -1.6188
 1017MOL0     H34185   1.967   6.728   7.627 -0.2059 -0.1315  0.4789
 1017MOL0     H34186   2.027   6.602   7.728 -0.7004 -0.4753  0.1864
 1017MOL0     H34187   1.733   6.605   7.668  0.7757  0.8353 -1.4640
 1017MOL0     H34188   1.821   6.545   7.810  3.5529 -1.4959 -0.6394
 1017MOL0     H34189   1.793   6.846   7.751 -2.1257  0.5848  0.3987
 1017MOL0     H34190   1.863   6.777   7.886  0.6179  1.2774 -2.1607
 1017MOL0     H34191   1.651   6.680   7.960  0.3111  1.6684  2.6060
 1017MOL0     H34192   1.579   6.715   7.800  0.8270 -1.3759 -0.0128
 1017MOL0     H34193   1.621   6.965   7.851  2.7078  0.4214  0.9842
 1017MOL0     H34194   1.485   6.871   7.932  0.4104  1.4658  1.2162
 1017MOL0     H34195   1.742   6.894   8.068  1.1015  3.6252 -0.9733
 1017MOL0     H34196   1.571   6.869   8.124 -0.0183 -0.9236 -0.2272
 1017MOL0     H34197   1.422   7.111   8.000  0.1105  0.0491 -0.5506
 1017MOL0     H34198   1.420   7.404   7.976  2.6262 -2.0276 -1.8791
 1017MOL0     H34199   1.546   7.490   8.048 -1.6660  0.9882 -0.4064
 1017MOL0     H34200   1.447   7.494   8.249  0.4912  1.3283 -0.9486
 1017MOL0     H34201   1.354   7.350   8.221  1.3559  0.6374 -0.3297
 1017MOL0     H34202   1.231   7.583   8.223  0.6867 -1.1377 -0.5366
 1017MOL0     H34203   1.315   7.635   8.092 -0.1550  0.9599  2.1948
 1017MOL0     H34204   1.124   7.396   8.103  0.7312  1.1264  3.1102
 1017MOL0     H34205   1.206   7.432   7.949  0.4394 -1.1450 -0.1809
 1017MOL0     H34206   0.883   7.691   7.909 -2.9095  0.5111 -0.7056
 1017MOL0     H34207   0.644   7.724   8.003  0.0455  0.1985  1.4359
 1017MOL0     H34208   0.400   7.389   8.214 -0.1337  0.4890  3.4429
 1017MOL0     H34209   0.168   7.320   8.286 -0.7096  1.1757  2.1677
 1017MOL0     H34210  -0.163   7.642   8.335  2.6607  2.5946 -0.5798
 1017MOL0     H34211  -0.050   7.648   8.455 -0.4830  3.3704 -2.1465
 1017MOL0     H34212  -0.153   7.417   8.558  0.1972  0.1176 -0.4474
 1017MOL0     H34213  -0.278   7.447   8.438 -0.5125 -0.2657  1.3667
 1017MOL0     H34214  -0.321   7.661   8.548  1.4252  0.9773 -1.4467
 1017MOL0     H34215  -0.183   7.635   8.659  1.5616 -1.8810 -2.0097
 1017MOL0     H34216  -0.452   7.480   8.630 -0.6755 -2.1453  1.0522
 1017MOL0     H34217  -0.314   7.410   8.723 -0.8941 -0.6124 -0.4317
 1017MOL0     H34218  -0.508   7.534   8.852 -1.1236 -0.2825 -4.4658
 1017MOL0     H34219  -0.429   7.682   8.780  3.4619  1.9802  2.2174
 1017MOL0     H34220  -0.240   7.671   8.894 -1.9922  1.4426 -0.0755
 1017MOL0     H34221  -0.265   7.497   8.940 -0.9090 -0.2528  0.5743
 1017MOL0     H34222  -0.422   7.558   9.106  1.1224  0.0337 -0.3818
 1017MOL0     H34223  -0.286   7.671   9.119  2.4682  2.3634 -2.2194
 1017MOL0     H34224  -0.514   7.761   9.147 -1.7733  2.6962 -0.7068
 1017MOL0     H34225  -0.550   7.742   8.976 -0.5279 -2.5616 -0.7352
 1017MOL0     H34226   0.052   7.724   8.280  1.5096  2.5963 -0.5501
 1017MOL0     H34227   0.272   7.794   8.211 -0.7972  0.1052  2.0746
 1017MOL0     H34228   0.794   7.557   8.374 -1.0825 -2.0491 -0.6223
 1017MOL0     H34229   1.017   7.535   8.271  1.0066  0.4320  0.3549
 1017MOL0     H34230   2.155   6.833   7.249  1.3803  2.2109 -0.4446
 1017MOL0     H34231   2.358   6.836   7.107  1.2745 -0.9271 -0.3812
 1017MOL0     H34232   2.939   6.877   7.310  1.5076  0.4175  0.1121
 1017MOL0     H34233   3.145   6.862   7.234 -1.8445 -0.2134  2.5029
 1017MOL0     H34234   3.319   6.832   7.133  0.3143  0.9831 -0.5344
 1017MOL0     H34235   3.269   6.863   6.973 -1.9527 -0.3778  1.0809
 1017MOL0     H34236   3.521   6.828   7.041  0.5669 -0.9024 -0.1964
 1017MOL0     H34237   3.505   6.662   7.049  0.7930  0.5112  0.3391
 1017MOL0     H34238   3.383   6.756   6.792  0.6047  1.8562 -0.5699
 1017MOL0     H34239   3.523   6.658   6.815  0.3211  0.4755 -0.4960
 1017MOL0     H34240   3.517   6.958   6.787  0.8613 -0.2404 -0.8899
 1017MOL0     H34241   3.658   6.869   6.850  1.5207  1.1157 -1.2081
 1017MOL0     H34242   3.692   6.822   6.439  0.9707  2.1641  0.4968
 1017MOL0     H34243   3.008   6.556   6.940  3.7886 -0.0901  0.7506
 1017MOL0     H34244   2.772   6.616   7.002 -0.0609  1.2794 -1.3867
 1018MOL0     O34245   8.248   1.746   2.575 -0.1177 -0.1524  0.2007
 1018MOL0     C34246   8.231   1.865   2.599 -0.5860 -0.5638  0.6204
 1018MOL0     O34247   8.112   1.929   2.588  0.0866 -1.0025 -0.4245
 1018MOL0     C34248   7.994   1.857   2.591  0.9170  0.7017 -0.2629
 1018MOL0     C34249   7.889   1.910   2.670  0.7588  0.3361 -0.3739
 1018MOL0     C34250   7.777   1.837   2.688  0.3092  0.5901 -0.7236
 1018MOL0     C34251   7.753   1.712   2.625  0.1675 -0.4340 -0.0186
 1018MOL0     O34252   7.634   1.651   2.653 -0.2852  0.7520 -0.7783
 1018MOL0     C34253   7.539   1.642   2.554  1.1589  0.3593 -0.7811
 1018MOL0     C34254   7.473   1.779   2.524  0.7133 -0.2334  0.4669
 1018MOL0     C34255   7.337   1.764   2.477  0.1602 -0.0596 -0.4319
 1018MOL0     C34256   7.264   1.908   2.461  0.1135 -0.8418 -0.2986
 1018MOL0     C34257   7.125   1.898   2.386 -0.0835 -0.7438 -0.4870
 1018MOL0     C34258   7.016   1.833   2.456 -0.6718 -0.3329  0.4236
 1018MOL0     C34259   6.878   1.831   2.375 -0.1941  0.2990  0.1663
 1018MOL0     C34260   6.789   1.962   2.399 -0.3462  0.1010  0.6328
 1018MOL0     N34261   6.642   1.927   2.386 -0.2848  1.4696  1.1654
 1018MOL0     C34262   6.559   1.986   2.294 -0.3267 -0.3022 -0.4419
 1018MOL0     C34263   6.435   1.969   2.344  1.2742 -0.5656  0.3688
 1018MOL0     C34264   6.311   2.050   2.293 -0.3083  0.4748 -0.5750
 1018MOL0     C34265   6.190   1.956   2.283  1.0328  0.5535  1.0490
 1018MOL0     C34266   6.067   2.036   2.249  0.7523 -0.0479  0.1247
 1018MOL0     C34267   5.942   1.950   2.231 -0.3323 -0.4299 -0.2787
 1018MOL0     O34268   5.929   1.881   2.100  0.1543 -0.1145 -0.7207
 1018MOL0     C34269   5.823   1.802   2.083  1.3656 -0.6433 -0.2592
 1018MOL0     C34270   5.718   1.769   2.172  0.0485  0.4394  0.2579
 1018MOL0     C34271   5.606   1.693   2.136  0.6465 -0.2214  0.7819
 1018MOL0     C34272   5.612   1.625   2.010 -0.2905 -0.0820  0.0177
 1018MOL0     C34273   5.503   1.538   1.962 -0.5686 -0.4445 -0.2920
 1018MOL0     O34274   5.499   1.513   1.827 -0.2775 -0.6224  0.2072
 1018MOL0     C34275   5.375   1.474   1.769  0.5703  0.1102 -0.7433
 1018MOL0     C34276   5.378   1.391   1.650  0.4779 -0.3337 -0.3067
 1018MOL0     C34277   5.259   1.360   1.583  0.4853 -0.0539  0.3579
 1018MOL0     C34278   5.134   1.408   1.633  0.0392 -0.3802  0.1867
 1018MOL0     O34279   5.023   1.389   1.552  0.0207 -0.9271  0.7448
 1018MOL0     C34280   4.896   1.429   1.593 -0.5995  0.4986 -0.2293
 1018MOL0     C34281   4.782   1.386   1.488 -0.3958 -0.2602 -0.0296
 1018MOL0     C34282   4.649   1.430   1.541  0.0238  0.7697 -0.0666
 1018MOL0     C34283   4.530   1.416   1.446 -0.5342 -0.0729 -0.9741
 1018MOL0     C34284   4.538   1.505   1.320  0.5026  0.1147 -1.2611
 1018MOL0     C34285   4.429   1.467   1.211  0.3707  0.2306 -0.1940
 1018MOL0     C34286   4.279   1.504   1.262 -0.4954 -0.1554  0.8080
 1018MOL0     C34287   4.174   1.454   1.153 -0.7847 -0.5402  0.1366
 1018MOL0    Cl34288   4.186   1.273   1.165 -0.3741  0.0887  0.2843
 1018MOL0     C34289   5.126   1.489   1.746 -0.7166  0.0605 -0.7883
 1018MOL0     C34290   5.244   1.519   1.813  0.0669  0.4359 -0.5555
 1018MOL0     O34291   5.416   1.503   2.037  0.0960 -0.0518 -0.0508
 1018MOL0     C34292   5.718   1.659   1.918  0.2134  0.9392  0.2266
 1018MOL0     C34293   5.812   1.748   1.954 -0.2240  0.1974  0.1490
 1018MOL0     N34294   6.441   1.906   2.463 -0.4516  0.6227 -0.4200
 1018MOL0     N34295   6.562   1.880   2.485  0.7520  0.0300 -0.5011
 1018MOL0     C34296   7.854   1.668   2.534  0.5619  0.4162  0.0160
 1018MOL0     C34297   7.976   1.741   2.513  0.6829  0.4629 -0.0695
 1018MOL0     C34298   8.342   1.953   2.648 -0.6528  0.5303  0.5595
 1018MOL0     C34299   8.475   1.932   2.606 -0.1900  0.1386 -0.1186
 1018MOL0     C34300   8.583   2.033   2.628 -0.0295  0.2170  0.2441
 1018MOL0     C34301   8.549   2.156   2.683  0.1889 -0.1432 -0.0947
 1018MOL0     O34302   8.653   2.244   2.692  0.5111 -0.1690  0.0186
 1018MOL0     C34303   8.635   2.389   2.668 -0.2069  0.4413  0.2997
 1018MOL0     C34304   8.740   2.459   2.583 -0.6080 -0.1002 -0.6979
 1018MOL0     C34305   8.879   2.422   2.645 -0.4258  0.2248  0.3723
 1018MOL0     C34306   8.989   2.524   2.605  0.3015  0.1944 -0.2539
 1018MOL0     C34307   9.118   2.500   2.670  0.0815  0.0142  0.4018
 1018MOL0     C34308   9.230   2.463   2.707  0.0672 -0.4488  0.2097
 1018MOL0     C34309   8.423   2.172   2.731  0.7077 -0.7110  0.3475
 1018MOL0     C34310   8.321   2.072   2.711  0.3947 -1.2787 -0.0182
 1018MOL0     H34311   7.908   2.006   2.717 -0.2438  0.5679 -0.4100
 1018MOL0     H34312   7.702   1.860   2.763 -1.8966 -0.9061 -2.3413
 1018MOL0     H34313   7.456   1.583   2.593  0.1446  2.9424  1.2824
 1018MOL0     H34314   7.562   1.583   2.465 -3.5870 -1.1087 -1.3384
 1018MOL0     H34315   7.529   1.839   2.452 -3.0183  0.6729 -1.9979
 1018MOL0     H34316   7.482   1.837   2.616  0.4931 -0.5777  0.7074
 1018MOL0     H34317   7.267   1.711   2.542 -1.6308 -0.1234 -2.3116
 1018MOL0     H34318   7.340   1.710   2.382  2.6231 -0.6877 -0.0566
 1018MOL0     H34319   7.253   1.953   2.560  0.2700  1.6867 -1.3536
 1018MOL0     H34320   7.324   1.982   2.407 -0.2572 -0.6908 -0.5082
 1018MOL0     H34321   7.136   1.857   2.285  0.1525  2.2230 -1.7653
 1018MOL0     H34322   7.080   1.995   2.366 -1.3126 -1.4915 -1.5509
 1018MOL0     H34323   7.009   1.884   2.553 -0.2844  0.8164 -0.1454
 1018MOL0     H34324   7.051   1.732   2.478  2.1711  0.3278 -0.6534
 1018MOL0     H34325   6.887   1.809   2.269  2.5794  0.3448  0.3277
 1018MOL0     H34326   6.832   1.743   2.421  1.2754 -0.3463  0.4311
 1018MOL0     H34327   6.813   2.039   2.326 -2.4175  0.5253  0.3396
 1018MOL0     H34328   6.802   2.006   2.498 -1.0954  1.1295  0.2887
 1018MOL0     H34329   6.604   2.047   2.215 -0.7612  0.3974 -0.1620
 1018MOL0     H34330   6.333   2.098   2.197  0.7434 -0.0644 -0.6205
 1018MOL0     H34331   6.285   2.130   2.362 -1.3537  0.7243 -1.2351
 1018MOL0     H34332   6.173   1.905   2.378 -4.9839  0.7912  0.4900
 1018MOL0     H34333   6.219   1.887   2.203 -0.9026 -1.3393  1.8881
 1018MOL0     H34334   6.044   2.105   2.331 -1.1195  2.0528 -2.0190
 1018MOL0     H34335   6.093   2.098   2.162  2.4194 -1.8262 -0.7095
 1018MOL0     H34336   5.853   2.013   2.236  0.1316  0.1412  1.3653
 1018MOL0     H34337   5.944   1.876   2.312 -0.0134 -1.4325 -1.1760
 1018MOL0     H34338   5.714   1.829   2.263  1.2374  1.4499 -0.3236
 1018MOL0     H34339   5.512   1.683   2.190 -0.7006  1.3219 -1.1160
 1018MOL0     H34340   5.474   1.367   1.604  1.4581  0.5080  1.1973
 1018MOL0     H34341   5.262   1.302   1.491 -1.8809 -0.6230  0.5547
 1018MOL0     H34342   4.890   1.537   1.583 -1.7968  0.4825  0.2214
 1018MOL0     H34343   4.878   1.399   1.696  0.2777  3.5024  0.8994
 1018MOL0     H34344   4.779   1.277   1.480  0.0231 -0.2108 -0.8737
 1018MOL0     H34345   4.810   1.415   1.387 -1.3399 -2.2828 -0.9386
 1018MOL0     H34346   4.652   1.538   1.553 -0.8647  0.9374 -1.2195
 1018MOL0     H34347   4.625   1.386   1.638  0.9896  1.1178  0.3446
 1018MOL0     H34348   4.546   1.312   1.416 -0.5829 -0.2977 -0.2523
 1018MOL0     H34349   4.433   1.418   1.496  0.4810 -0.6521  1.1613
 1018MOL0     H34350   4.637   1.485   1.277  0.3735 -0.1284 -1.4400
 1018MOL0     H34351   4.536   1.612   1.346 -0.5695  0.1495 -1.4776
 1018MOL0     H34352   4.445   1.362   1.187  0.4708 -0.4145  2.4238
 1018MOL0     H34353   4.454   1.526   1.123  0.5228 -1.2106 -1.1490
 1018MOL0     H34354   4.259   1.459   1.360 -0.0740 -0.7387  0.6280
 1018MOL0     H34355   4.270   1.613   1.270 -1.0661 -0.0956 -0.4166
 1018MOL0     H34356   4.209   1.481   1.053  0.7380 -0.9682  0.5160
 1018MOL0     H34357   4.075   1.501   1.157 -0.3890  0.7877 -2.8918
 1018MOL0     H34358   5.035   1.530   1.788 -1.4775  0.8381 -3.0449
 1018MOL0     H34359   5.230   1.582   1.900  1.1624 -1.6089  1.1869
 1018MOL0     H34360   5.731   1.612   1.821 -0.9555 -0.3536  0.6735
 1018MOL0     H34361   5.884   1.769   1.876 -0.0623 -0.9870 -0.0376
 1018MOL0     H34362   7.842   1.572   2.485 -2.2846 -0.0607  1.4166
 1018MOL0     H34363   8.058   1.708   2.451 -0.4807 -3.5525  0.2326
 1018MOL0     H34364   8.506   1.843   2.551  1.5724  0.3876  0.3880
 1018MOL0     H34365   8.681   2.023   2.583 -0.5688  2.9912 -1.8470
 1018MOL0     H34366   8.624   2.443   2.762 -0.6972  0.3202  0.3190
 1018MOL0     H34367   8.541   2.404   2.613  0.3746  0.8318 -0.5927
 1018MOL0     H34368   8.741   2.437   2.476  0.1887  2.3359 -1.2685
 1018MOL0     H34369   8.724   2.567   2.585 -1.7916 -0.2280 -1.7624
 1018MOL0     H34370   8.908   2.321   2.614  0.1888 -0.8933  4.0791
 1018MOL0     H34371   8.876   2.426   2.754  0.7246  0.9367  0.4015
 1018MOL0     H34372   9.006   2.513   2.497 -0.7293 -0.0681 -0.3976
 1018MOL0     H34373   8.947   2.623   2.628 -1.7314 -0.5894 -0.3512
 1018MOL0     H34374   9.319   2.424   2.752 -0.4813 -1.4012  0.4788
 1018MOL0     H34375   8.399   2.267   2.777  0.0486  0.3055 -1.9408
 1018MOL0     H34376   8.220   2.097   2.743  0.1261 -2.8626  0.4705
 1019MOL0     O34377   0.439   9.631  10.615  0.3184  1.0845  0.2764
 1019MOL0     C34378   0.558   9.595  10.625 -0.3691 -0.8683 -0.0406
 1019MOL0     O34379   0.599   9.503  10.721  0.0367  0.4358  0.1039
 1019MOL0     C34380   0.514   9.452  10.816 -0.0517 -0.4977 -0.0385
 1019MOL0     C34381   0.423   9.530  10.897 -0.0040  0.3373 -0.5693
 1019MOL0     C34382   0.337   9.464  10.990 -0.8839  0.8807  0.1971
 1019MOL0     C34383   0.333   9.324  10.994 -0.2287 -0.0232 -0.0401
 1019MOL0     O34384   0.248   9.277  11.085  0.1088 -0.0088  0.1258
 1019MOL0     C34385   0.217   9.141  11.084 -0.3144 -0.2271  0.1240
 1019MOL0     C34386   0.120   9.127  11.203  0.0861  0.1259  0.1023
 1019MOL0     C34387   0.003   9.226  11.193  0.0676  0.3105 -0.4992
 1019MOL0     C34388  -0.088   9.189  11.076 -0.5232  0.3847  0.0060
 1019MOL0     C34389  -0.196   9.296  11.038 -0.5519  0.5635  0.3574
 1019MOL0     C34390  -0.250   9.252  10.898  0.4286  0.5924 -0.3836
 1019MOL0     C34391  -0.369   9.344  10.857 -0.4458  0.0108  0.4329
 1019MOL0     C34392  -0.494   9.305  10.944 -0.3185 -0.6324 -0.1320
 1019MOL0     N34393  -0.550   9.182  10.896 -0.1676 -0.4542 -0.1096
 1019MOL0     C34394  -0.611   9.165  10.771 -0.4575 -0.3491 -0.1287
 1019MOL0     C34395  -0.669   9.040  10.789  0.3254  0.4181 -0.0812
 1019MOL0     C34396  -0.727   8.964  10.675  0.1904  0.2046 -0.1453
 1019MOL0     C34397  -0.844   9.047  10.625  0.4334 -0.8781 -0.3079
 1019MOL0     C34398  -0.919   8.962  10.522  0.1673  0.0405  0.5489
 1019MOL0     C34399  -1.041   9.030  10.472  0.1835 -0.5201 -0.0740
 1019MOL0     O34400  -1.125   9.066  10.584  0.5952 -0.1395 -0.0203
 1019MOL0     C34401  -1.224   9.152  10.553 -0.0858  0.1240 -0.0312
 1019MOL0     C34402  -1.260   9.237  10.659  0.0453  0.2494  0.9745
 1019MOL0     C34403  -1.359   9.330  10.647  0.3871 -0.0964  0.5846
 1019MOL0     C34404  -1.424   9.342  10.524  0.6449 -0.0609 -0.4393
 1019MOL0     C34405  -1.520   9.448  10.488  0.8418  0.0980 -0.0088
 1019MOL0     O34406  -1.549   9.474  10.355 -0.4228 -0.7228  0.1309
 1019MOL0     C34407  -1.653   9.556  10.322 -0.9601  0.2002  0.5127
 1019MOL0     C34408  -1.644   9.601  10.186 -0.1328 -0.0932  0.0806
 1019MOL0     C34409  -1.736   9.689  10.136 -0.1123  1.4256  0.3006
 1019MOL0     C34410  -1.855   9.717  10.208 -0.3940  0.6502  0.8544
 1019MOL0     O34411  -1.963   9.783  10.164 -0.3590  0.0645  0.5497
 1019MOL0     C34412  -1.975   9.825  10.026  0.7333 -0.2306 -0.3194
 1019MOL0     C34413  -2.129   9.855  10.003  0.5054 -0.5888 -0.3058
 1019MOL0     C34414  -2.205   9.728   9.969  0.5166 -0.0239 -0.3827
 1019MOL0     C34415  -2.363   9.748   9.967 -0.2536  0.0912 -0.1762
 1019MOL0     C34416  -2.430   9.615   9.955 -0.6303 -0.5071  0.1170
 1019MOL0     C34417  -2.584   9.624   9.934  0.1473  0.1522 -0.6090
 1019MOL0     C34418  -2.632   9.484   9.899  0.3664  0.5589  0.6226
 1019MOL0     C34419  -2.784   9.450   9.896  0.3118 -0.4801 -0.5621
 1019MOL0    Cl34420  -2.820   9.272   9.886  0.0325  0.0926  0.0606
 1019MOL0     C34421  -1.864   9.669  10.337 -0.4417  0.1847 -0.3926
 1019MOL0     C34422  -1.761   9.601  10.402  0.5363  0.5337  0.0247
 1019MOL0     O34423  -1.556   9.513  10.581  0.2381 -0.1021 -0.4344
 1019MOL0     C34424  -1.393   9.251  10.429  0.1123  0.4057  0.1200
 1019MOL0     C34425  -1.293   9.157  10.434 -0.2530 -0.1641  0.0935
 1019MOL0     N34426  -0.629   8.989  10.912  1.1030  0.1611 -0.3255
 1019MOL0     N34427  -0.562   9.072  10.976 -0.0702 -0.0719  0.5934
 1019MOL0     C34428   0.426   9.250  10.916  0.4655 -0.0692 -0.1545
 1019MOL0     C34429   0.512   9.314  10.834  1.3214  0.7624  0.5853
 1019MOL0     C34430   0.658   9.668  10.544  0.5717 -0.0764  0.4230
 1019MOL0     C34431   0.618   9.755  10.443 -0.1633 -0.8006  0.0354
 1019MOL0     C34432   0.719   9.826  10.375  0.4243 -0.2760 -0.2575
 1019MOL0     C34433   0.856   9.805  10.400  0.4871 -0.7830  0.1262
 1019MOL0     O34434   0.948   9.875  10.319  0.5628 -0.3385 -0.0177
 1019MOL0     C34435   1.092   9.868  10.339  1.1136  0.0584 -0.3006
 1019MOL0     C34436   1.144   9.941  10.464 -1.0564  0.6547  0.0612
 1019MOL0     C34437   1.139  10.089  10.469 -0.1399 -0.0201 -0.1027
 1019MOL0     C34438   1.230  10.153  10.577 -0.4368 -0.4211 -0.0168
 1019MOL0     C34439   1.373  10.166  10.536 -0.5213 -0.2597  0.6234
 1019MOL0     C34440   1.487  10.146  10.495  0.3152  0.2216  0.7134
 1019MOL0     C34441   0.889   9.709  10.495  0.4085 -0.2122 -0.9817
 1019MOL0     C34442   0.789   9.639  10.570  0.0083 -0.3429 -0.2814
 1019MOL0     H34443   0.412   9.635  10.872  3.4143  0.9209 -0.1165
 1019MOL0     H34444   0.257   9.510  11.047 -1.3165 -1.7573  1.9016
 1019MOL0     H34445   0.308   9.087  11.112 -0.5555 -0.4682  0.4547
 1019MOL0     H34446   0.175   9.100  10.992  1.0131 -0.3254 -0.4602
 1019MOL0     H34447   0.174   9.149  11.296  0.5909  2.0500 -0.6005
 1019MOL0     H34448   0.090   9.022  11.200 -1.9530  0.6826 -0.2454
 1019MOL0     H34449   0.045   9.326  11.180 -0.3697  0.5256 -0.2777
 1019MOL0     H34450  -0.052   9.220  11.288 -1.4134 -0.2259 -1.3567
 1019MOL0     H34451  -0.018   9.179  10.992 -0.8370 -0.5920 -0.1410
 1019MOL0     H34452  -0.137   9.092  11.085  2.9767 -1.4189  1.5586
 1019MOL0     H34453  -0.141   9.391  11.035 -0.9479  0.7777 -1.7657
 1019MOL0     H34454  -0.278   9.297  11.110 -2.2695  1.0666 -1.5112
 1019MOL0     H34455  -0.286   9.149  10.894 -1.6758  1.2855 -0.6765
 1019MOL0     H34456  -0.172   9.262  10.822 -1.1073  2.8694 -1.7763
 1019MOL0     H34457  -0.347   9.450  10.871  0.9055  0.1717 -2.4036
 1019MOL0     H34458  -0.392   9.333  10.751 -3.0300  1.4790  0.7729
 1019MOL0     H34459  -0.576   9.376  10.929  0.4813 -0.0691 -2.1549
 1019MOL0     H34460  -0.464   9.287  11.048  0.6267 -1.9689 -0.6091
 1019MOL0     H34461  -0.599   9.222  10.679 -0.1320  0.8882  0.6642
 1019MOL0     H34462  -0.751   8.866  10.716  0.0367  0.4413  0.3300
 1019MOL0     H34463  -0.649   8.956  10.598 -0.0881  0.0153 -0.4109
 1019MOL0     H34464  -0.810   9.143  10.586  1.1620 -1.6256 -1.5582
 1019MOL0     H34465  -0.912   9.084  10.702  0.9210  4.0768 -1.9414
 1019MOL0     H34466  -0.851   8.936  10.440  0.0082  0.9512  0.1133
 1019MOL0     H34467  -0.938   8.866  10.570  0.2643 -0.4388 -0.3353
 1019MOL0     H34468  -1.095   8.960  10.407  0.1547 -0.5060 -0.0655
 1019MOL0     H34469  -1.027   9.122  10.414 -0.1153 -0.1209  0.4809
 1019MOL0     H34470  -1.224   9.240  10.762 -1.9449  1.7678  1.6860
 1019MOL0     H34471  -1.372   9.408  10.722 -0.6009  2.3167 -1.9240
 1019MOL0     H34472  -1.563   9.570  10.121  1.4796  4.0681 -0.2112
 1019MOL0     H34473  -1.713   9.724  10.036  1.1585 -0.8925 -0.2820
 1019MOL0     H34474  -1.954   9.746   9.953 -2.6602 -1.2386 -0.3692
 1019MOL0     H34475  -1.925   9.920  10.004  1.9322 -1.0043 -1.0629
 1019MOL0     H34476  -2.146   9.926   9.922  1.3489  1.1024  0.9283
 1019MOL0     H34477  -2.173   9.901  10.092 -1.2426 -2.9525  0.1350
 1019MOL0     H34478  -2.172   9.653  10.043  3.2104  0.3418 -1.1216
 1019MOL0     H34479  -2.167   9.690   9.874  3.3480  1.2290  0.1397
 1019MOL0     H34480  -2.401   9.808  10.050 -0.6157 -1.0975  0.5395
 1019MOL0     H34481  -2.381   9.802   9.873  0.3756  1.7408  0.6333
 1019MOL0     H34482  -2.408   9.554  10.043  0.1395  0.0976  0.3555
 1019MOL0     H34483  -2.386   9.578   9.862 -1.9115  1.7804 -1.5032
 1019MOL0     H34484  -2.597   9.696   9.853  1.6575 -1.3591 -2.2747
 1019MOL0     H34485  -2.629   9.651  10.030  0.7971  0.3004 -0.3403
 1019MOL0     H34486  -2.588   9.459   9.802 -1.1881 -0.4091  0.1388
 1019MOL0     H34487  -2.587   9.418   9.973 -1.6096 -2.9794 -1.0907
 1019MOL0     H34488  -2.820   9.509   9.812  0.8885  1.7877  0.6774
 1019MOL0     H34489  -2.827   9.486   9.990  0.7748 -1.4972  0.0506
 1019MOL0     H34490  -1.952   9.683  10.400  1.8986  0.2911  3.1414
 1019MOL0     H34491  -1.772   9.577  10.507  1.0924  0.3618  0.0509
 1019MOL0     H34492  -1.448   9.261  10.337  0.0807 -0.2098  0.0730
 1019MOL0     H34493  -1.276   9.079  10.360  1.7703  0.8976 -0.6181
 1019MOL0     H34494   0.434   9.142  10.916  1.5216 -0.1745 -4.8317
 1019MOL0     H34495   0.563   9.252  10.761 -0.0721  1.0314 -0.6676
 1019MOL0     H34496   0.512   9.774  10.430 -0.3478 -0.9172  1.2726
 1019MOL0     H34497   0.695   9.897  10.296  1.2677 -2.2449 -2.3943
 1019MOL0     H34498   1.148   9.916  10.258 -0.1577  0.7730 -0.7741
 1019MOL0     H34499   1.112   9.760  10.340 -2.0636 -0.6596 -1.9095
 1019MOL0     H34500   1.100   9.908  10.559  0.6998  0.1914  0.7371
 1019MOL0     H34501   1.247   9.909  10.480 -0.9524  0.5136 -0.8241
 1019MOL0     H34502   1.039  10.132  10.480  0.7931  2.4704 -0.6673
 1019MOL0     H34503   1.178  10.120  10.371  3.7619 -1.9192  0.6957
 1019MOL0     H34504   1.187  10.251  10.599 -2.5871 -1.4520  0.6975
 1019MOL0     H34505   1.229  10.089  10.666  0.4939 -0.1655  0.1841
 1019MOL0     H34506   1.586  10.120  10.464  1.0454 -0.1184  3.1047
 1019MOL0     H34507   0.993   9.687  10.515 -0.0430 -0.9831  0.8339
 1019MOL0     H34508   0.821   9.566  10.644 -1.2671 -1.5211 -0.8377
 1020MOL0     O34509   7.984   0.582   7.215 -0.0246  0.3229  0.0570
 1020MOL0     C34510   8.099   0.554   7.253  0.0106 -0.6923  0.4412
 1020MOL0     O34511   8.154   0.433   7.248 -0.1554  0.0073  0.2753
 1020MOL0     C34512   8.084   0.317   7.214 -0.0996  0.3679  0.3731
 1020MOL0     C34513   7.950   0.293   7.229  0.1627 -0.3549 -0.3053
 1020MOL0     C34514   7.894   0.179   7.174  0.1406 -0.3562 -0.4286
 1020MOL0     C34515   7.964   0.086   7.097 -0.5646 -0.3512  0.3611
 1020MOL0     O34516   7.906  -0.025   7.058 -0.1952  0.3191 -0.0248
 1020MOL0     C34517   7.977  -0.150   7.056  0.3588  0.1542 -0.6477
 1020MOL0     C34518   8.013  -0.209   6.918 -0.1474 -0.2863 -0.1298
 1020MOL0     C34519   8.100  -0.338   6.936 -0.0913 -0.2386  0.2461
 1020MOL0     C34520   8.144  -0.378   6.807 -0.7597  0.3223  0.5915
 1020MOL0     C34521   8.221  -0.512   6.825  0.2600 -0.0370 -0.5525
 1020MOL0     C34522   8.356  -0.509   6.901  0.2858  0.1518 -0.6535
 1020MOL0     C34523   8.458  -0.421   6.824  0.0361 -0.4165  0.0787
 1020MOL0     C34524   8.607  -0.470   6.838  0.0729  1.3346 -0.6039
 1020MOL0     N34525   8.686  -0.421   6.956 -0.0265 -0.1972  0.1164
 1020MOL0     C34526   8.692  -0.464   7.085  0.2033 -0.5676 -0.5899
 1020MOL0     C34527   8.785  -0.389   7.148 -0.0402 -0.0102  0.1982
 1020MOL0     C34528   8.819  -0.377   7.297 -0.0422  1.1026  0.1691
 1020MOL0     C34529   8.709  -0.291   7.366 -0.3337  0.5201  0.2604
 1020MOL0     C34530   8.602  -0.365   7.430  0.5711 -0.1500  0.7260
 1020MOL0     C34531   8.508  -0.277   7.514 -0.2133 -1.2652  0.5190
 1020MOL0     O34532   8.407  -0.351   7.583  0.4006  1.0091  0.8878
 1020MOL0     C34533   8.296  -0.394   7.512 -0.2411 -0.8855  0.2905
 1020MOL0     C34534   8.254  -0.363   7.379  0.8734 -0.4390  0.0668
 1020MOL0     C34535   8.122  -0.398   7.338 -0.3816  0.4104 -0.3640
 1020MOL0     C34536   8.042  -0.483   7.414 -0.3586 -0.4889  0.7411
 1020MOL0     C34537   7.901  -0.523   7.365 -0.8746 -0.3710 -0.0293
 1020MOL0     O34538   7.859  -0.459   7.252  0.4852  0.5702  0.5819
 1020MOL0     C34539   7.732  -0.474   7.186 -0.8896  0.1310  1.2628
 1020MOL0     C34540   7.722  -0.436   7.046 -0.4674  0.5773 -0.3001
 1020MOL0     C34541   7.601  -0.445   6.973 -1.0967  0.2631 -0.7350
 1020MOL0     C34542   7.484  -0.486   7.037 -0.4941 -0.5034  0.1567
 1020MOL0     O34543   7.373  -0.499   6.961 -0.1919 -0.5030 -0.0115
 1020MOL0     C34544   7.268  -0.578   7.016 -0.2891 -0.3344  0.0030
 1020MOL0     C34545   7.150  -0.593   6.923 -0.2051  0.0160  0.3333
 1020MOL0     C34546   7.090  -0.454   6.890 -0.0937  0.2885  0.4561
 1020MOL0     C34547   6.950  -0.476   6.818  0.1246  0.6958  0.1982
 1020MOL0     C34548   6.841  -0.519   6.914 -0.4724 -0.5229  0.6038
 1020MOL0     C34549   6.699  -0.557   6.839 -0.4836 -1.0153  0.8881
 1020MOL0     C34550   6.598  -0.616   6.940 -0.0158 -0.6210 -0.3817
 1020MOL0     C34551   6.491  -0.511   6.978 -0.3043  0.1489  0.3394
 1020MOL0    Cl34552   6.432  -0.566   7.138  0.5578  0.3724  0.2847
 1020MOL0     C34553   7.483  -0.502   7.177 -0.1634 -0.1819  0.1335
 1020MOL0     C34554   7.606  -0.507   7.241 -0.2277 -0.1724 -0.0649
 1020MOL0     O34555   7.832  -0.597   7.433  0.4532 -0.0391  0.2141
 1020MOL0     C34556   8.086  -0.516   7.546  0.4098 -0.5141  0.1034
 1020MOL0     C34557   8.211  -0.468   7.586  0.8374  0.3711 -0.1179
 1020MOL0     N34558   8.827  -0.296   7.055  0.0131  1.0289  0.4663
 1020MOL0     N34559   8.767  -0.314   6.943 -0.2582  0.2856  0.4335
 1020MOL0     C34560   8.098   0.117   7.057 -0.3887  0.4868  0.5068
 1020MOL0     C34561   8.161   0.234   7.120 -0.1197  0.3080 -0.2243
 1020MOL0     C34562   8.185   0.662   7.299 -0.5374  0.5545  0.0409
 1020MOL0     C34563   8.314   0.639   7.350  0.5321 -0.8278 -0.9633
 1020MOL0     C34564   8.407   0.742   7.379  0.4139  0.1059 -0.0407
 1020MOL0     C34565   8.378   0.876   7.358 -0.1665  0.6210 -0.4840
 1020MOL0     O34566   8.454   0.990   7.389  0.0223  0.2349 -0.8849
 1020MOL0     C34567   8.573   0.978   7.470 -0.4581 -0.6069 -1.0696
 1020MOL0     C34568   8.704   0.944   7.383  0.5790  0.1925 -0.8266
 1020MOL0     C34569   8.790   1.067   7.365  0.0860 -0.1945 -0.3536
 1020MOL0     C34570   8.899   1.043   7.266  0.2816 -0.2097 -0.4602
 1020MOL0     C34571   9.020   0.980   7.322 -0.4029  0.1812 -0.9098
 1020MOL0     C34572   9.115   0.910   7.356 -0.2001  0.6244  0.1316
 1020MOL0     C34573   8.245   0.901   7.313  0.4822 -0.2162 -0.2944
 1020MOL0     C34574   8.148   0.797   7.280 -1.1803  1.1206  0.1235
 1020MOL0     H34575   7.895   0.358   7.295  1.4798  1.7336 -1.1532
 1020MOL0     H34576   7.788   0.159   7.189 -0.5552  1.8937 -1.9368
 1020MOL0     H34577   7.906  -0.213   7.110 -0.5746  3.4421  2.2977
 1020MOL0     H34578   8.063  -0.140   7.122 -1.0128 -0.1129  1.2681
 1020MOL0     H34579   8.081  -0.135   6.874 -0.4778  1.8276  2.6173
 1020MOL0     H34580   7.923  -0.214   6.856 -0.8906  1.3903  0.7415
 1020MOL0     H34581   8.053  -0.420   6.990  3.0170 -2.2858  0.0686
 1020MOL0     H34582   8.187  -0.307   6.995 -1.7377 -0.1053  2.7745
 1020MOL0     H34583   8.055  -0.397   6.747  0.4549 -0.2936 -1.0911
 1020MOL0     H34584   8.203  -0.309   6.745  1.1225 -1.9765 -0.3287
 1020MOL0     H34585   8.243  -0.559   6.729  2.6729 -1.5018  0.6149
 1020MOL0     H34586   8.159  -0.577   6.888  0.2460  0.5454  0.0409
 1020MOL0     H34587   8.393  -0.611   6.915 -0.0616 -0.3675 -3.0463
 1020MOL0     H34588   8.344  -0.474   7.004  0.1659 -1.3934 -0.1174
 1020MOL0     H34589   8.437  -0.432   6.717  0.7527  3.1882 -0.5692
 1020MOL0     H34590   8.437  -0.317   6.849  0.4048 -0.3183 -0.0132
 1020MOL0     H34591   8.664  -0.436   6.751  0.1704  0.8643 -0.7223
 1020MOL0     H34592   8.601  -0.579   6.839  0.4920  1.3086 -0.8501
 1020MOL0     H34593   8.617  -0.529   7.128 -0.9012 -0.7489 -2.6582
 1020MOL0     H34594   8.916  -0.329   7.316  1.4051 -1.2168 -0.9669
 1020MOL0     H34595   8.827  -0.478   7.337  0.0155  0.6649 -0.9372
 1020MOL0     H34596   8.663  -0.224   7.292  0.8547  0.6339 -0.4046
 1020MOL0     H34597   8.752  -0.237   7.450  0.2125  0.4993  0.0034
 1020MOL0     H34598   8.525  -0.399   7.360 -2.5790  1.7883  2.9486
 1020MOL0     H34599   8.641  -0.447   7.490  1.6676  0.1270  0.4181
 1020MOL0     H34600   8.469  -0.194   7.455  2.9473 -0.5502 -0.8039
 1020MOL0     H34601   8.562  -0.234   7.599  0.2138  0.1257 -0.4336
 1020MOL0     H34602   8.308  -0.285   7.327 -0.1143 -0.2760 -0.7325
 1020MOL0     H34603   8.090  -0.375   7.236 -1.7451 -0.7454 -0.2394
 1020MOL0     H34604   7.810  -0.409   6.988 -0.6622 -1.5770 -1.6819
 1020MOL0     H34605   7.596  -0.423   6.867 -0.3351 -1.4882 -1.1596
 1020MOL0     H34606   7.230  -0.541   7.112 -1.6866  0.7447 -0.9103
 1020MOL0     H34607   7.309  -0.678   7.031  4.5699  1.8248  4.7521
 1020MOL0     H34608   7.083  -0.668   6.966  1.8293 -1.6880  0.7276
 1020MOL0     H34609   7.189  -0.645   6.835 -0.7367 -1.4191  0.9156
 1020MOL0     H34610   7.161  -0.403   6.824 -0.7285 -1.8483 -2.0647
 1020MOL0     H34611   7.073  -0.391   6.978 -1.5478  1.6887 -0.7771
 1020MOL0     H34612   6.914  -0.385   6.769  0.3566  0.6903  0.0169
 1020MOL0     H34613   6.954  -0.550   6.737 -0.2233  2.6268 -1.6988
 1020MOL0     H34614   6.819  -0.439   6.984 -0.6454  0.1590 -0.2115
 1020MOL0     H34615   6.870  -0.615   6.959 -2.0123 -2.7284 -2.6711
 1020MOL0     H34616   6.716  -0.621   6.752  0.1514  1.2151 -0.7296
 1020MOL0     H34617   6.660  -0.464   6.798 -2.1236 -1.8481  0.4626
 1020MOL0     H34618   6.546  -0.701   6.895 -0.0564 -0.1963 -1.1477
 1020MOL0     H34619   6.649  -0.661   7.025 -0.5171  0.7337  0.6724
 1020MOL0     H34620   6.414  -0.517   6.901  0.3296 -2.3759 -0.1891
 1020MOL0     H34621   6.540  -0.414   6.988  0.9534 -0.3592 -0.5688
 1020MOL0     H34622   7.391  -0.525   7.230 -0.5572  2.2682  0.6137
 1020MOL0     H34623   7.627  -0.530   7.345  2.2982 -1.0772 -0.7152
 1020MOL0     H34624   8.028  -0.579   7.613 -0.5289  0.7104  0.4755
 1020MOL0     H34625   8.230  -0.496   7.690 -1.2269 -2.7736 -0.4482
 1020MOL0     H34626   8.160   0.063   6.986 -0.2270  1.2011  0.0996
 1020MOL0     H34627   8.256   0.270   7.082 -0.0491  0.1401 -0.2076
 1020MOL0     H34628   8.345   0.539   7.380 -0.0497 -0.6638  0.2270
 1020MOL0     H34629   8.504   0.721   7.424  0.5472  1.0269  0.1162
 1020MOL0     H34630   8.549   0.907   7.550 -1.8032 -0.9310 -1.7243
 1020MOL0     H34631   8.600   1.070   7.522 -0.2151 -1.8453  1.1200
 1020MOL0     H34632   8.761   0.873   7.444  0.4692  0.3548 -0.5331
 1020MOL0     H34633   8.675   0.906   7.286 -0.5841 -1.7707  0.2400
 1020MOL0     H34634   8.830   1.092   7.464 -0.2399 -1.4010  0.1028
 1020MOL0     H34635   8.732   1.151   7.324  2.0080  1.0174 -0.7237
 1020MOL0     H34636   8.875   0.987   7.175  0.5617 -1.1751  0.0486
 1020MOL0     H34637   8.927   1.142   7.231 -0.1444 -0.0800 -0.4390
 1020MOL0     H34638   9.180   0.839   7.402  0.5177  1.5725  0.6229
 1020MOL0     H34639   8.227   1.008   7.310  0.3016 -0.2376  0.0337
 1020MOL0     H34640   8.051   0.827   7.241 -2.9676 -1.2137  2.4585
 1021MOL0     O34641   8.931   3.465   0.795 -0.0013 -0.1460 -0.2027
 1021MOL0     C34642   9.008   3.458   0.893  0.0095 -0.1741  0.4012
 1021MOL0     O34643   8.978   3.400   1.011  0.0810  0.3770  0.2977
 1021MOL0     C34644   8.856   3.342   1.019  0.2156 -0.6041 -0.3714
 1021MOL0     C34645   8.743   3.424   1.016  0.2103  0.5008 -0.2277
 1021MOL0     C34646   8.619   3.363   1.019  0.5799  0.1780 -0.4600
 1021MOL0     C34647   8.601   3.225   1.035 -0.1382  0.2016 -1.4269
 1021MOL0     O34648   8.478   3.160   1.035 -0.3499  0.1230 -0.7617
 1021MOL0     C34649   8.370   3.218   0.961  0.6817 -0.4326 -0.0203
 1021MOL0     C34650   8.264   3.291   1.054  0.3634 -0.8222 -0.2995
 1021MOL0     C34651   8.182   3.403   0.999  0.1909 -0.3755  0.0700
 1021MOL0     C34652   8.085   3.355   0.885  0.0545  0.6564 -0.5168
 1021MOL0     C34653   8.003   3.238   0.927  0.2675  0.1337  0.5026
 1021MOL0     C34654   7.857   3.270   0.894  0.4884  0.3972 -0.5576
 1021MOL0     C34655   7.761   3.154   0.898  0.5814  0.3751  0.6724
 1021MOL0     C34656   7.788   3.047   1.003 -0.0451  0.3400  0.5548
 1021MOL0     N34657   7.679   2.948   0.991 -0.1277  0.5526 -0.1219
 1021MOL0     C34658   7.544   2.970   1.020 -0.3299 -0.3605 -0.5512
 1021MOL0     C34659   7.469   2.857   0.979 -0.2595 -0.2307  1.1108
 1021MOL0     C34660   7.327   2.829   0.987 -0.0631  0.7301  0.1747
 1021MOL0     C34661   7.261   2.866   1.119  0.4039 -0.9059 -0.1878
 1021MOL0     C34662   7.120   2.799   1.131  0.0365  1.0355 -0.6060
 1021MOL0     C34663   7.020   2.868   1.217 -0.4991 -0.7803 -0.8996
 1021MOL0     O34664   6.984   2.983   1.143 -0.1360  0.2129 -0.5398
 1021MOL0     C34665   6.856   3.009   1.137 -0.0628 -0.0392  0.1215
 1021MOL0     C34666   6.803   3.029   1.008  0.2360 -0.3953 -0.9894
 1021MOL0     C34667   6.673   3.075   0.990  0.0013  0.2667  0.6057
 1021MOL0     C34668   6.584   3.099   1.099 -0.2903  0.5908  1.1176
 1021MOL0     C34669   6.444   3.131   1.079  0.4791  0.1901  0.3293
 1021MOL0     O34670   6.364   3.113   1.190 -0.0561 -1.0312 -0.3765
 1021MOL0     C34671   6.226   3.139   1.170 -0.8197 -0.4009  0.0578
 1021MOL0     C34672   6.195   3.277   1.177  0.0555  0.1438  0.0496
 1021MOL0     C34673   6.061   3.310   1.162  0.7905 -0.4177  0.1064
 1021MOL0     C34674   5.957   3.217   1.158  0.1172  1.1120 -0.8609
 1021MOL0     O34675   5.823   3.239   1.160  0.4263 -0.3149 -0.1222
 1021MOL0     C34676   5.776   3.370   1.203 -0.1756 -0.3221 -0.3718
 1021MOL0     C34677   5.622   3.371   1.202 -0.8950 -0.3255 -0.1102
 1021MOL0     C34678   5.560   3.453   1.321  0.8576  0.0194  0.2938
 1021MOL0     C34679   5.414   3.499   1.291 -0.7692  0.7854  0.1233
 1021MOL0     C34680   5.303   3.389   1.298  0.0822  0.0134  0.5459
 1021MOL0     C34681   5.303   3.325   1.436  0.1896 -0.7211  0.4209
 1021MOL0     C34682   5.184   3.229   1.434 -0.0003 -0.7289  0.0651
 1021MOL0     C34683   5.180   3.156   1.559 -0.3299  1.1045  0.8255
 1021MOL0    Cl34684   5.016   3.101   1.578  0.2314 -0.2978  0.1142
 1021MOL0     C34685   5.998   3.082   1.138  0.6402 -0.4853  0.1471
 1021MOL0     C34686   6.130   3.035   1.152  0.5537 -0.3396  0.4064
 1021MOL0     O34687   6.404   3.169   0.968  0.5015  0.2842 -0.6510
 1021MOL0     C34688   6.643   3.092   1.227 -0.1771  0.8455 -0.2388
 1021MOL0     C34689   6.774   3.047   1.247 -0.8063  0.4935  0.6221
 1021MOL0     N34690   7.564   2.760   0.939 -0.0103 -0.1776 -0.2808
 1021MOL0     N34691   7.681   2.817   0.936  0.0210 -0.2087  0.0261
 1021MOL0     C34692   8.718   3.142   1.047  0.2196  0.2937  0.6065
 1021MOL0     C34693   8.842   3.207   1.038 -0.3054 -1.0991  0.0443
 1021MOL0     C34694   9.141   3.524   0.880  0.0673 -0.3613 -1.0181
 1021MOL0     C34695   9.180   3.593   0.768 -0.3414 -0.3558  0.1692
 1021MOL0     C34696   9.306   3.658   0.760  0.1845  0.5396  0.4895
 1021MOL0     C34697   9.388   3.649   0.866 -0.0269 -0.3914  0.3313
 1021MOL0     O34698   9.507   3.719   0.856  0.2821  0.2243 -0.0547
 1021MOL0     C34699   9.586   3.731   0.971 -1.3514  0.0296 -0.1773
 1021MOL0     C34700   9.704   3.832   0.944 -0.0328 -0.3091 -0.9809
 1021MOL0     C34701   9.792   3.840   1.072  0.5460 -0.3659  0.2378
 1021MOL0     C34702   9.892   3.727   1.081  0.1321  0.5034 -0.1840
 1021MOL0     C34703  10.013   3.762   1.009  0.4845  0.2861  0.6690
 1021MOL0     C34704  10.123   3.784   0.950 -0.3494 -0.1780 -0.1097
 1021MOL0     C34705   9.361   3.569   0.977  0.6914 -0.4218 -0.4795
 1021MOL0     C34706   9.237   3.511   0.983  0.1716  0.5358  0.1973
 1021MOL0     H34707   8.749   3.532   1.006 -1.4948  0.6009 -0.6322
 1021MOL0     H34708   8.528   3.422   1.009  1.0261  1.8370  3.3989
 1021MOL0     H34709   8.310   3.147   0.903  1.5390 -1.1373 -0.0649
 1021MOL0     H34710   8.417   3.279   0.884  4.0387 -3.1129 -0.3037
 1021MOL0     H34711   8.331   3.328   1.132  0.4526 -2.4214  0.4303
 1021MOL0     H34712   8.210   3.215   1.111 -0.1857 -3.5503 -4.0063
 1021MOL0     H34713   8.249   3.482   0.963 -1.0640  0.0518 -1.4360
 1021MOL0     H34714   8.125   3.448   1.081 -0.3016  0.7652 -0.8702
 1021MOL0     H34715   8.014   3.431   0.849 -1.7522 -0.4375  0.5553
 1021MOL0     H34716   8.144   3.312   0.803 -0.7044  0.2681 -0.8769
 1021MOL0     H34717   7.997   3.216   1.034 -0.8646 -0.6733  0.2918
 1021MOL0     H34718   8.044   3.158   0.865  3.3584  1.2674  0.9378
 1021MOL0     H34719   7.843   3.313   0.794 -0.2947 -1.9783 -1.5384
 1021MOL0     H34720   7.825   3.335   0.977 -0.1319 -0.8839  0.2354
 1021MOL0     H34721   7.663   3.204   0.901  0.4454  0.1094  0.7372
 1021MOL0     H34722   7.756   3.103   0.801  0.4350  1.1507  0.2626
 1021MOL0     H34723   7.792   3.086   1.104 -1.5946  2.2917 -0.0764
 1021MOL0     H34724   7.880   2.995   0.976 -1.2514 -1.5402 -0.1638
 1021MOL0     H34725   7.509   3.063   1.064 -0.3548 -0.7865  0.3393
 1021MOL0     H34726   7.310   2.723   0.963  0.3785  0.8329 -0.6398
 1021MOL0     H34727   7.280   2.877   0.901 -2.2622 -0.0517  0.8738
 1021MOL0     H34728   7.249   2.974   1.124 -1.4454 -1.1369  1.4380
 1021MOL0     H34729   7.325   2.844   1.204 -2.3498 -1.9826  1.7488
 1021MOL0     H34730   7.072   2.782   1.035 -3.2073  0.2053  1.0051
 1021MOL0     H34731   7.135   2.699   1.175 -1.8065  0.3446 -1.4631
 1021MOL0     H34732   7.053   2.907   1.314  2.0559  2.6830 -2.8727
 1021MOL0     H34733   6.932   2.805   1.232 -3.5726  2.4141 -3.5577
 1021MOL0     H34734   6.856   3.009   0.915  0.7466 -0.1885 -0.7444
 1021MOL0     H34735   6.619   3.083   0.896 -3.4107  0.5863  2.4347
 1021MOL0     H34736   6.270   3.356   1.177  1.6804 -1.3454  0.8187
 1021MOL0     H34737   6.046   3.417   1.166  0.0036 -0.4478 -1.4124
 1021MOL0     H34738   5.818   3.446   1.137  0.1277  0.3750  0.6066
 1021MOL0     H34739   5.809   3.392   1.305 -1.3606 -0.1383 -0.0144
 1021MOL0     H34740   5.585   3.269   1.212  1.4042 -1.0190  2.1854
 1021MOL0     H34741   5.590   3.407   1.104  0.1743 -0.5101 -0.5487
 1021MOL0     H34742   5.624   3.541   1.338  1.5350 -1.1594  6.0322
 1021MOL0     H34743   5.563   3.397   1.415 -1.4252 -0.1988  0.2719
 1021MOL0     H34744   5.397   3.583   1.359  4.0006  0.9988  1.4343
 1021MOL0     H34745   5.406   3.543   1.191  0.0819 -0.1255 -0.3733
 1021MOL0     H34746   5.323   3.314   1.221  2.2871 -0.2059  1.2578
 1021MOL0     H34747   5.208   3.438   1.275  0.2062 -0.4147 -0.9549
 1021MOL0     H34748   5.298   3.407   1.508  0.7615  0.1190 -0.4730
 1021MOL0     H34749   5.391   3.262   1.448  0.2721 -1.0461 -1.5756
 1021MOL0     H34750   5.092   3.288   1.426  0.2759  0.5872  4.0632
 1021MOL0     H34751   5.195   3.152   1.357  0.7489  0.5396 -1.1241
 1021MOL0     H34752   5.209   3.221   1.642 -0.1159 -0.5749  2.1071
 1021MOL0     H34753   5.249   3.071   1.554 -0.7216  0.6781  2.3599
 1021MOL0     H34754   5.928   3.003   1.114 -0.2619  0.2399  0.3573
 1021MOL0     H34755   6.148   2.930   1.135  4.0004  0.0449  0.9949
 1021MOL0     H34756   6.591   3.123   1.317  0.4299  1.2519 -0.0221
 1021MOL0     H34757   6.817   3.028   1.345 -0.1445  1.0928  0.4517
 1021MOL0     H34758   8.716   3.035   1.066  1.1274  0.0766 -0.4412
 1021MOL0     H34759   8.930   3.142   1.042  1.0989  0.6951 -0.6196
 1021MOL0     H34760   9.116   3.607   0.682  2.4065 -0.4058 -2.0375
 1021MOL0     H34761   9.328   3.717   0.672 -1.0941 -1.8919 -1.5932
 1021MOL0     H34762   9.631   3.633   0.991 -2.7657 -1.2867 -2.9231
 1021MOL0     H34763   9.527   3.756   1.060 -2.0058 -1.3532 -0.2035
 1021MOL0     H34764   9.760   3.804   0.855  2.0895  1.2042 -0.1809
 1021MOL0     H34765   9.652   3.925   0.918 -0.8546 -1.3337 -3.2286
 1021MOL0     H34766   9.724   3.826   1.156 -1.3034 -0.4453 -1.1977
 1021MOL0     H34767   9.844   3.934   1.093 -0.2692 -0.0156  0.7091
 1021MOL0     H34768   9.900   3.726   1.190  1.7624  1.0141 -0.2590
 1021MOL0     H34769   9.835   3.637   1.057 -2.7564  2.7552 -2.5241
 1021MOL0     H34770  10.213   3.777   0.892 -0.4679 -0.7091 -0.2415
 1021MOL0     H34771   9.425   3.558   1.064 -1.7958  0.4420  1.5786
 1021MOL0     H34772   9.220   3.464   1.079  0.3510  2.4911  1.2519
 1022MOL0     O34773   9.175   0.491   1.482 -0.4650  1.1426 -0.8094
 1022MOL0     C34774   9.280   0.467   1.548  0.0033 -0.6701 -0.1550
 1022MOL0     O34775   9.304   0.366   1.633  0.6158  0.4747 -0.6697
 1022MOL0     C34776   9.226   0.250   1.628 -0.1320 -0.5753  1.5479
 1022MOL0     C34777   9.198   0.177   1.751  0.6014  0.3798 -0.2274
 1022MOL0     C34778   9.108   0.063   1.754 -0.7749 -0.3229  0.7935
 1022MOL0     C34779   9.050   0.024   1.633  0.1032  0.1160  0.4438
 1022MOL0     O34780   8.968  -0.082   1.614  0.2431 -0.2821  0.7230
 1022MOL0     C34781   8.980  -0.197   1.697 -0.7756 -0.1090  0.2655
 1022MOL0     C34782   8.949  -0.331   1.616 -0.3258 -0.5659 -0.3915
 1022MOL0     C34783   8.797  -0.357   1.601  1.3212 -0.3582  0.4410
 1022MOL0     C34784   8.781  -0.480   1.516  0.6953 -0.2907 -0.0043
 1022MOL0     C34785   8.641  -0.509   1.481 -0.9327  0.0169 -0.0531
 1022MOL0     C34786   8.561  -0.400   1.404 -0.1898  0.1320 -0.0126
 1022MOL0     C34787   8.444  -0.453   1.336  0.5105 -0.1430  0.2828
 1022MOL0     C34788   8.340  -0.476   1.442  0.5368  0.1155  0.3995
 1022MOL0     N34789   8.212  -0.511   1.378 -0.1499 -0.2895 -0.8585
 1022MOL0     C34790   8.174  -0.647   1.379  1.2718 -0.0031  0.3766
 1022MOL0     C34791   8.041  -0.639   1.331 -0.3313  0.7192 -0.6163
 1022MOL0     C34792   7.939  -0.746   1.307 -0.0784 -0.6968 -1.2875
 1022MOL0     C34793   7.825  -0.712   1.218 -0.1576  0.5750  0.6758
 1022MOL0     C34794   7.729  -0.826   1.203  0.4499 -0.2408  0.0102
 1022MOL0     C34795   7.587  -0.777   1.144  0.2186 -0.5748 -0.8489
 1022MOL0     O34796   7.581  -0.760   1.004  0.5309  0.2899  0.7195
 1022MOL0     C34797   7.460  -0.761   0.937 -0.0612 -1.5000 -0.9656
 1022MOL0     C34798   7.479  -0.759   0.807 -0.1583 -0.0792  0.4147
 1022MOL0     C34799   7.364  -0.760   0.725 -0.1930 -0.2850 -0.1953
 1022MOL0     C34800   7.227  -0.761   0.776 -0.0118  0.9366 -0.3334
 1022MOL0     C34801   7.102  -0.782   0.692  0.9486  0.7484  0.7658
 1022MOL0     O34802   7.105  -0.866   0.591 -0.4485 -0.1294  0.2389
 1022MOL0     C34803   7.005  -0.876   0.493  0.0322  0.0169 -0.2357
 1022MOL0     C34804   6.962  -0.999   0.445 -0.3274 -0.1781  0.0303
 1022MOL0     C34805   6.872  -1.003   0.333  0.6026 -0.2429 -0.5842
 1022MOL0     C34806   6.814  -0.883   0.287 -0.0023 -0.5184 -0.5263
 1022MOL0     O34807   6.718  -0.867   0.187 -0.1314  0.4455  0.1771
 1022MOL0     C34808   6.618  -0.968   0.183 -0.1455 -0.6694 -1.5715
 1022MOL0     C34809   6.492  -0.921   0.118 -0.2140  0.3360 -0.5016
 1022MOL0     C34810   6.428  -0.782   0.147 -0.3287 -0.7026  0.1264
 1022MOL0     C34811   6.334  -0.743   0.035  0.6239 -0.9471 -0.0197
 1022MOL0     C34812   6.208  -0.825   0.035 -0.4357 -0.0038 -0.1115
 1022MOL0     C34813   6.105  -0.766  -0.058  0.3182  0.1390  0.0245
 1022MOL0     C34814   5.969  -0.833  -0.052  0.1359 -0.0445  0.5706
 1022MOL0     C34815   5.883  -0.789  -0.176  0.5637  0.9252 -0.1679
 1022MOL0    Cl34816   5.957  -0.849  -0.327  0.4547 -0.2489  0.3614
 1022MOL0     C34817   6.843  -0.758   0.343 -0.2204  0.4792 -0.4078
 1022MOL0     C34818   6.952  -0.753   0.440 -0.2323  0.0935 -0.3798
 1022MOL0     O34819   7.005  -0.715   0.727  0.3622 -0.0730 -0.2140
 1022MOL0     C34820   7.220  -0.749   0.921 -0.5191  0.3040  0.0703
 1022MOL0     C34821   7.335  -0.761   0.994  0.1072 -0.1090 -0.2754
 1022MOL0     N34822   8.014  -0.500   1.316  0.6377  0.0749 -0.9306
 1022MOL0     N34823   8.121  -0.422   1.345  0.4106  0.4850 -0.5790
 1022MOL0     C34824   9.079   0.099   1.513 -0.0664 -0.1260 -0.4172
 1022MOL0     C34825   9.157   0.207   1.511 -0.3589  1.1283  0.3645
 1022MOL0     C34826   9.386   0.574   1.541  0.5659  0.0791 -1.0311
 1022MOL0     C34827   9.410   0.642   1.420 -1.0664 -0.1590 -0.0627
 1022MOL0     C34828   9.525   0.731   1.408 -0.1870  0.1933 -0.1753
 1022MOL0     C34829   9.606   0.759   1.523  0.0232 -0.9848  0.4665
 1022MOL0     O34830   9.709   0.851   1.497 -0.7812  0.9949  0.0268
 1022MOL0     C34831   9.819   0.846   1.596  1.0665 -0.6519 -0.3465
 1022MOL0     C34832   9.919   0.961   1.582  1.0807 -0.7196  0.7867
 1022MOL0     C34833  10.046   0.944   1.662  0.2828  0.3244 -0.1885
 1022MOL0     C34834  10.161   0.969   1.570 -0.2107 -0.4004  0.1677
 1022MOL0     C34835  10.174   1.107   1.527 -0.4512 -0.2754 -0.2681
 1022MOL0     C34836  10.176   1.217   1.485 -0.0220 -0.2283  0.7388
 1022MOL0     C34837   9.567   0.694   1.641  0.6550 -0.1023 -0.6201
 1022MOL0     C34838   9.468   0.598   1.642  0.1713  0.6992 -1.0791
 1022MOL0     H34839   9.235   0.225   1.841  1.1918  1.4994 -1.0534
 1022MOL0     H34840   9.092   0.016   1.851  1.4463 -0.3491  1.1858
 1022MOL0     H34841   8.908  -0.186   1.779 -1.4234  2.0468 -0.5401
 1022MOL0     H34842   9.078  -0.202   1.746 -0.2013 -0.4698 -0.8863
 1022MOL0     H34843   8.987  -0.423   1.659  0.3963 -0.7314 -1.3438
 1022MOL0     H34844   8.998  -0.323   1.518 -1.3647 -1.2915 -0.9896
 1022MOL0     H34845   8.748  -0.276   1.546  0.5444 -2.4218 -2.1145
 1022MOL0     H34846   8.750  -0.357   1.699  1.4592 -1.8151  0.5291
 1022MOL0     H34847   8.842  -0.476   1.425  1.3577 -0.2816  0.4287
 1022MOL0     H34848   8.819  -0.569   1.567 -0.3792 -1.0899 -0.5550
 1022MOL0     H34849   8.580  -0.534   1.568 -1.8313 -0.2676 -0.7443
 1022MOL0     H34850   8.652  -0.600   1.422  2.9955  2.0811 -2.9254
 1022MOL0     H34851   8.633  -0.371   1.327 -1.2424 -0.7987 -1.3981
 1022MOL0     H34852   8.536  -0.312   1.465 -2.7532 -0.5570  0.0512
 1022MOL0     H34853   8.404  -0.375   1.271 -1.0858 -0.8853  0.2974
 1022MOL0     H34854   8.475  -0.538   1.274  0.2526  0.9576 -1.4377
 1022MOL0     H34855   8.321  -0.375   1.481 -1.7722 -0.4769  0.9950
 1022MOL0     H34856   8.374  -0.550   1.515  2.3581  1.3840  0.9144
 1022MOL0     H34857   8.229  -0.736   1.410  1.7191 -0.0858 -0.6088
 1022MOL0     H34858   7.888  -0.750   1.404 -2.8252  1.2007 -2.5457
 1022MOL0     H34859   7.983  -0.844   1.288  3.9197  0.5300  0.4265
 1022MOL0     H34860   7.869  -0.700   1.118  1.1400 -3.5086  0.5888
 1022MOL0     H34861   7.767  -0.627   1.256 -0.4371  1.0251 -0.7103
 1022MOL0     H34862   7.771  -0.905   1.140  2.5580  1.2214 -0.5343
 1022MOL0     H34863   7.713  -0.871   1.301  0.2278  0.8427  0.4877
 1022MOL0     H34864   7.541  -0.693   1.195 -2.6953 -0.5363 -3.2549
 1022MOL0     H34865   7.524  -0.860   1.177 -0.7782  1.3402  2.4277
 1022MOL0     H34866   7.576  -0.772   0.760 -2.2323 -1.3127 -4.1698
 1022MOL0     H34867   7.376  -0.737   0.619  0.9528 -0.9725 -0.2202
 1022MOL0     H34868   7.010  -1.089   0.482 -0.8374  0.8168  3.4735
 1022MOL0     H34869   6.830  -1.095   0.292 -1.0162 -0.2017  0.8885
 1022MOL0     H34870   6.587  -0.993   0.285  1.9311  1.2560 -0.3691
 1022MOL0     H34871   6.665  -1.059   0.145 -1.0500 -2.1763  0.7178
 1022MOL0     H34872   6.416  -0.999   0.119  0.0263  0.0185 -2.7606
 1022MOL0     H34873   6.532  -0.916   0.017 -0.5617 -0.1025 -0.6647
 1022MOL0     H34874   6.507  -0.707   0.144 -0.4006 -0.5561  1.4210
 1022MOL0     H34875   6.389  -0.768   0.248  3.3107  0.8693  1.4752
 1022MOL0     H34876   6.314  -0.635   0.038  2.2162 -0.6057 -0.4504
 1022MOL0     H34877   6.384  -0.759  -0.061 -0.2517  0.5245 -0.7586
 1022MOL0     H34878   6.163  -0.808   0.134 -0.9289 -3.3157  0.3288
 1022MOL0     H34879   6.247  -0.927   0.027  3.1578  0.9937  2.1477
 1022MOL0     H34880   6.154  -0.756  -0.155  1.5904  2.9680  0.8408
 1022MOL0     H34881   6.093  -0.663  -0.021  1.2161  0.1672  0.2634
 1022MOL0     H34882   5.978  -0.942  -0.050  2.7958  0.1118  1.3212
 1022MOL0     H34883   5.913  -0.814   0.039 -1.1585 -0.7989 -0.0457
 1022MOL0     H34884   5.867  -0.681  -0.183 -1.1708  0.8320  1.4008
 1022MOL0     H34885   5.779  -0.822  -0.167  0.0717  1.8019 -2.0815
 1022MOL0     H34886   6.800  -0.664   0.308  2.0859  0.8334 -2.6141
 1022MOL0     H34887   6.987  -0.656   0.473 -0.8653  0.7907 -1.7109
 1022MOL0     H34888   7.125  -0.732   0.971 -1.1175 -0.7972 -0.6548
 1022MOL0     H34889   7.330  -0.764   1.102  1.8136 -1.3656 -0.1839
 1022MOL0     H34890   9.033   0.070   1.419 -0.5421  0.7788 -0.4746
 1022MOL0     H34891   9.176   0.262   1.420 -0.5042  3.7303  1.8278
 1022MOL0     H34892   9.340   0.648   1.338 -0.3083  2.8198 -0.6082
 1022MOL0     H34893   9.541   0.792   1.320  2.9832  2.7746  1.9455
 1022MOL0     H34894   9.865   0.748   1.580  1.2437 -0.5110 -0.7319
 1022MOL0     H34895   9.781   0.863   1.697 -0.4364 -0.3277 -0.9399
 1022MOL0     H34896   9.929   0.983   1.476 -1.9328  2.3243  0.9463
 1022MOL0     H34897   9.864   1.048   1.620  2.6845  1.0334 -0.7653
 1022MOL0     H34898  10.045   0.842   1.702 -1.0760  0.9558  1.4833
 1022MOL0     H34899  10.052   1.007   1.750  0.7185 -2.0693  1.5955
 1022MOL0     H34900  10.244   0.942   1.636  0.8686  1.7239 -0.2169
 1022MOL0     H34901  10.145   0.904   1.484 -3.5420  1.5308 -0.8403
 1022MOL0     H34902  10.180   1.317   1.447 -0.7966  1.2334  4.1681
 1022MOL0     H34903   9.626   0.709   1.730  4.3071  0.8542 -2.9751
 1022MOL0     H34904   9.444   0.542   1.732 -0.5548  1.3521 -0.8563
 1023MOL0     O34905   2.447   6.162   3.269 -0.4656 -0.7052 -0.0573
 1023MOL0     C34906   2.436   6.120   3.383 -0.0966 -0.2947 -0.3899
 1023MOL0     O34907   2.325   6.064   3.435 -0.0065 -1.0341  0.0315
 1023MOL0     C34908   2.218   6.033   3.349 -0.1519 -0.2455  0.5067
 1023MOL0     C34909   2.107   6.115   3.371  0.2276 -0.1071 -0.0868
 1023MOL0     C34910   1.990   6.098   3.287 -0.4650  0.3702 -0.5100
 1023MOL0     C34911   1.995   5.994   3.193  1.0549  0.4455  0.2234
 1023MOL0     O34912   1.888   5.967   3.110  0.0836  0.5441 -0.2628
 1023MOL0     C34913   1.791   6.067   3.096 -0.1305 -0.4696  0.0494
 1023MOL0     C34914   1.676   6.025   3.003 -0.2688 -0.8185  0.5754
 1023MOL0     C34915   1.611   5.899   3.052 -0.0567 -0.3545 -0.0909
 1023MOL0     C34916   1.524   5.848   2.939  0.2930  0.5698 -0.4693
 1023MOL0     C34917   1.484   5.695   2.949 -0.1961 -0.5201 -0.4310
 1023MOL0     C34918   1.385   5.661   3.062 -0.8278 -0.0586 -0.6655
 1023MOL0     C34919   1.359   5.513   3.068  0.2435  0.3582 -0.6010
 1023MOL0     C34920   1.276   5.460   2.948  0.6405 -0.1256 -0.3591
 1023MOL0     N34921   1.130   5.469   2.982 -0.2647 -0.6973 -0.6736
 1023MOL0     C34922   1.059   5.379   3.056  0.7490 -0.0132  1.0540
 1023MOL0     C34923   0.933   5.426   3.054  0.8913 -0.7474  0.4063
 1023MOL0     C34924   0.812   5.365   3.118 -0.7337  0.1431  0.4670
 1023MOL0     C34925   0.812   5.218   3.143 -0.1761 -0.7847  0.4457
 1023MOL0     C34926   0.681   5.188   3.192  0.1627  0.1820 -0.2657
 1023MOL0     C34927   0.678   5.046   3.231 -0.3105  0.3224 -0.2647
 1023MOL0     O34928   0.571   5.028   3.314 -0.0272 -0.3524 -0.0413
 1023MOL0     C34929   0.456   4.977   3.261  0.3828 -0.1414  0.1396
 1023MOL0     C34930   0.364   4.942   3.362 -0.0572 -0.4661 -0.5416
 1023MOL0     C34931   0.247   4.884   3.331  0.0321 -0.0608  0.1770
 1023MOL0     C34932   0.200   4.879   3.194 -0.3928  0.0510 -0.1084
 1023MOL0     C34933   0.060   4.845   3.168  0.9434  0.4924  0.0364
 1023MOL0     O34934  -0.010   4.812   3.271  0.1216  0.4196  0.1325
 1023MOL0     C34935  -0.146   4.777   3.263 -0.3837 -0.3084  0.0945
 1023MOL0     C34936  -0.252   4.847   3.331 -0.7489 -0.5479 -0.3735
 1023MOL0     C34937  -0.385   4.810   3.311  0.2680  0.2878 -0.2043
 1023MOL0     C34938  -0.421   4.695   3.239 -0.0711  0.5642  0.9299
 1023MOL0     O34939  -0.555   4.657   3.224 -0.3131  0.1399 -0.3409
 1023MOL0     C34940  -0.594   4.530   3.165  0.1206  0.8356 -0.5255
 1023MOL0     C34941  -0.741   4.504   3.176 -0.2618 -0.4359 -0.5721
 1023MOL0     C34942  -0.776   4.472   3.317 -0.0788 -0.6994  0.5283
 1023MOL0     C34943  -0.928   4.461   3.314 -0.3387  0.0069 -0.7808
 1023MOL0     C34944  -0.980   4.413   3.451 -0.3491  0.1745  1.0095
 1023MOL0     C34945  -1.124   4.360   3.439  0.5551 -0.1264 -0.2640
 1023MOL0     C34946  -1.190   4.321   3.573  0.4917  0.4431 -1.1191
 1023MOL0     C34947  -1.308   4.403   3.613 -0.1849  0.3302  0.7941
 1023MOL0    Cl34948  -1.378   4.348   3.774 -0.0162  0.5085  0.3823
 1023MOL0     C34949  -0.316   4.617   3.181  0.0319 -0.7807 -0.0304
 1023MOL0     C34950  -0.181   4.665   3.199  0.4454  0.6069  0.3051
 1023MOL0     O34951   0.017   4.851   3.052 -0.3489  0.0058  0.8105
 1023MOL0     C34952   0.292   4.917   3.100 -0.7216  0.7441  0.3818
 1023MOL0     C34953   0.417   4.961   3.127 -0.3764 -0.2193  0.8363
 1023MOL0     N34954   0.920   5.546   2.989 -1.0966  0.5788 -0.1719
 1023MOL0     N34955   1.045   5.574   2.954  0.3670 -0.3737 -0.3056
 1023MOL0     C34956   2.099   5.900   3.194  0.7576 -0.4153  0.7466
 1023MOL0     C34957   2.216   5.920   3.264 -0.0830  0.0929 -0.5068
 1023MOL0     C34958   2.541   6.147   3.468 -0.5574  0.5267  0.3813
 1023MOL0     C34959   2.640   6.240   3.440 -0.1184  0.0247 -0.5876
 1023MOL0     C34960   2.754   6.254   3.521 -0.0955  0.8500 -0.8987
 1023MOL0     C34961   2.773   6.167   3.628 -0.1159 -0.8323  0.2212
 1023MOL0     O34962   2.889   6.198   3.704 -0.0177  0.3323 -0.1861
 1023MOL0     C34963   2.910   6.130   3.829 -0.2191 -0.3939  0.3715
 1023MOL0     C34964   3.004   6.225   3.893  0.4207  0.3494 -1.3176
 1023MOL0     C34965   3.144   6.211   3.831 -0.2438  0.5805  0.3672
 1023MOL0     C34966   3.248   6.317   3.880  0.3211  0.0620 -0.2149
 1023MOL0     C34967   3.205   6.452   3.853 -0.0706 -0.8577 -0.5654
 1023MOL0     C34968   3.160   6.567   3.824 -0.4397  0.8917  0.4585
 1023MOL0     C34969   2.671   6.071   3.658 -0.8295 -1.1036 -0.1325
 1023MOL0     C34970   2.563   6.057   3.575 -0.5379 -0.6624  0.5048
 1023MOL0     H34971   2.112   6.190   3.449 -1.6252 -0.6950  0.6597
 1023MOL0     H34972   1.902   6.161   3.299 -2.1537 -1.6119 -1.7213
 1023MOL0     H34973   1.840   6.158   3.059  1.6409 -1.2175  0.4884
 1023MOL0     H34974   1.747   6.084   3.195  1.9924 -2.5710  1.4644
 1023MOL0     H34975   1.730   6.016   2.908  0.4974  1.8959  0.6770
 1023MOL0     H34976   1.605   6.105   2.983  0.1878 -0.8332 -1.2950
 1023MOL0     H34977   1.539   5.927   3.129 -0.1222 -1.6685  0.3504
 1023MOL0     H34978   1.684   5.825   3.085  1.1461  1.2084  0.9245
 1023MOL0     H34979   1.444   5.917   2.913  1.8129  2.0312 -1.4545
 1023MOL0     H34980   1.577   5.858   2.844 -0.0052  4.3428 -0.3759
 1023MOL0     H34981   1.568   5.627   2.961  0.0901 -0.2999 -1.1745
 1023MOL0     H34982   1.447   5.665   2.851 -1.2012  1.3923 -0.6925
 1023MOL0     H34983   1.290   5.715   3.057  0.0002  1.5404  0.2138
 1023MOL0     H34984   1.434   5.698   3.152  1.5801  0.2177 -2.0021
 1023MOL0     H34985   1.452   5.455   3.070 -1.5750 -2.8542  2.3705
 1023MOL0     H34986   1.315   5.483   3.163 -0.6250  0.2787 -1.0152
 1023MOL0     H34987   1.306   5.357   2.927  1.4451  0.0151  0.0690
 1023MOL0     H34988   1.296   5.516   2.857 -0.6305  0.3728 -0.3546
 1023MOL0     H34989   1.095   5.285   3.096  1.1112  0.4883  1.9282
 1023MOL0     H34990   0.731   5.394   3.051  0.6297  3.1573 -0.0609
 1023MOL0     H34991   0.803   5.428   3.206 -1.2287  1.1920 -0.3211
 1023MOL0     H34992   0.880   5.184   3.221 -1.5654 -0.4057  1.8666
 1023MOL0     H34993   0.836   5.169   3.048 -0.2121  1.1268 -0.5980
 1023MOL0     H34994   0.658   5.249   3.280  1.4858 -1.1896  1.0889
 1023MOL0     H34995   0.604   5.206   3.117  1.5796 -0.0621 -1.8306
 1023MOL0     H34996   0.759   5.016   3.299 -2.1164 -3.6433  0.4164
 1023MOL0     H34997   0.683   4.975   3.147 -0.9004 -0.3605  0.2689
 1023MOL0     H34998   0.392   4.953   3.466  0.1126  0.8569 -0.7072
 1023MOL0     H34999   0.183   4.867   3.418  1.5415  1.0723  1.5872
 1023MOL0     H35000  -0.226   4.928   3.398  0.0187  0.2951 -1.6512
 1023MOL0     H35001  -0.457   4.882   3.350  1.2687  1.2419 -0.0890
 1023MOL0     H35002  -0.551   4.447   3.222  2.4211  1.2573 -1.5560
 1023MOL0     H35003  -0.560   4.512   3.063  0.3175  0.1342 -0.3471
 1023MOL0     H35004  -0.773   4.421   3.113 -0.8778 -0.6309 -0.0087
 1023MOL0     H35005  -0.792   4.590   3.132 -1.5793 -2.3660 -3.0754
 1023MOL0     H35006  -0.733   4.548   3.383 -0.0446 -0.2038 -0.0567
 1023MOL0     H35007  -0.737   4.375   3.349 -1.3042 -1.4322 -0.1485
 1023MOL0     H35008  -0.967   4.560   3.290  0.1574 -0.0762 -1.9644
 1023MOL0     H35009  -0.955   4.394   3.233  1.0435 -3.8245  1.6386
 1023MOL0     H35010  -0.958   4.480   3.534  5.2051  1.2852 -0.8691
 1023MOL0     H35011  -0.919   4.324   3.472 -2.2009 -1.8115 -1.2801
 1023MOL0     H35012  -1.130   4.276   3.370 -2.0742  0.3012 -0.6577
 1023MOL0     H35013  -1.186   4.438   3.394  1.3388  0.5515 -0.1833
 1023MOL0     H35014  -1.226   4.218   3.567 -0.4879  0.7440 -0.6833
 1023MOL0     H35015  -1.116   4.345   3.650  1.1291 -0.6561 -1.3744
 1023MOL0     H35016  -1.387   4.381   3.539 -0.7976  2.1322  0.8623
 1023MOL0     H35017  -1.306   4.511   3.625 -1.0854  0.4094  0.3799
 1023MOL0     H35018  -0.336   4.527   3.124  0.1488 -1.3825  0.8579
 1023MOL0     H35019  -0.103   4.597   3.165  0.3116 -0.4510  2.0262
 1023MOL0     H35020   0.251   4.892   3.003 -0.7597 -2.8917  1.2005
 1023MOL0     H35021   0.483   4.988   3.045 -0.7270  1.0326  0.9476
 1023MOL0     H35022   2.090   5.814   3.129  0.6873 -1.0835  1.6265
 1023MOL0     H35023   2.297   5.849   3.253 -0.3006 -0.7109  2.2760
 1023MOL0     H35024   2.637   6.311   3.358  2.4809 -0.3635 -1.1309
 1023MOL0     H35025   2.839   6.319   3.501  1.6812 -1.1910 -0.3461
 1023MOL0     H35026   2.964   6.036   3.824 -0.1202 -0.3414  0.4504
 1023MOL0     H35027   2.823   6.124   3.895 -0.4822  3.8722  0.7232
 1023MOL0     H35028   2.961   6.324   3.876 -1.6029 -0.6378 -2.2459
 1023MOL0     H35029   3.006   6.212   4.002 -1.5747 -0.6515 -1.3468
 1023MOL0     H35030   3.129   6.225   3.723 -0.2479  1.0107  0.4243
 1023MOL0     H35031   3.191   6.113   3.848  0.0362  0.9312  1.6954
 1023MOL0     H35032   3.272   6.292   3.984 -2.4494  3.1850  1.3575
 1023MOL0     H35033   3.343   6.320   3.826  0.5181  3.5146  0.1064
 1023MOL0     H35034   3.116   6.662   3.801  2.9654  1.7633 -3.6958
 1023MOL0     H35035   2.686   6.007   3.744  0.5725  1.1337  1.4030
 1023MOL0     H35036   2.494   5.976   3.595  0.6980 -2.4491 -1.9607
 1024MOL0     O35037   6.141   2.068   0.252 -0.3194  0.0595 -0.7805
 1024MOL0     C35038   6.164   2.173   0.318  0.2152  0.9204 -1.2345
 1024MOL0     O35039   6.069   2.248   0.378  0.1159  0.3544 -0.6740
 1024MOL0     C35040   5.942   2.200   0.418  0.5053  0.0518  0.1986
 1024MOL0     C35041   5.843   2.293   0.437 -0.0621  0.3398  0.5065
 1024MOL0     C35042   5.720   2.262   0.491 -0.1350 -0.3151  0.4240
 1024MOL0     C35043   5.687   2.123   0.504  0.7122 -0.4432  0.6385
 1024MOL0     O35044   5.568   2.080   0.567  1.1582 -0.1016  0.2171
 1024MOL0     C35045   5.446   2.159   0.557  0.5318  0.1815  0.1896
 1024MOL0     C35046   5.342   2.075   0.634 -0.2151  0.0813  0.0466
 1024MOL0     C35047   5.283   1.967   0.544 -0.2926  0.2159 -0.4437
 1024MOL0     C35048   5.220   1.840   0.616 -0.6545 -0.0277 -0.0981
 1024MOL0     C35049   5.109   1.873   0.717 -0.0952 -0.2272 -0.6421
 1024MOL0     C35050   4.990   1.960   0.664 -0.2161 -0.3074 -0.7005
 1024MOL0     C35051   4.928   1.916   0.529 -0.0851 -0.2316  0.5107
 1024MOL0     C35052   4.851   1.784   0.552  0.5256  0.3328 -0.2463
 1024MOL0     N35053   4.744   1.757   0.456 -0.0306 -0.3693 -0.1510
 1024MOL0     C35054   4.650   1.665   0.474  0.0042 -0.9666 -0.6271
 1024MOL0     C35055   4.567   1.679   0.372  0.6485  0.3298  0.3067
 1024MOL0     C35056   4.445   1.593   0.330 -0.3537 -0.0262  0.3865
 1024MOL0     C35057   4.339   1.668   0.251 -0.0410 -0.2097 -0.4463
 1024MOL0     C35058   4.214   1.578   0.230  0.0307 -1.2610  0.7012
 1024MOL0     C35059   4.217   1.514   0.087  0.8411 -0.3385 -1.0518
 1024MOL0     O35060   4.209   1.605  -0.024  0.1450  0.1059 -0.1161
 1024MOL0     C35061   4.089   1.651  -0.056  1.5431 -0.7002 -0.1871
 1024MOL0     C35062   4.003   1.575  -0.138  1.0079 -0.0590  0.2673
 1024MOL0     C35063   3.876   1.618  -0.179 -0.2997 -0.0164 -0.0526
 1024MOL0     C35064   3.824   1.734  -0.117  0.0809  0.1167  1.0754
 1024MOL0     C35065   3.682   1.764  -0.134  0.2118 -0.2382  0.0742
 1024MOL0     O35066   3.606   1.681  -0.222  0.0023 -0.7242 -0.4172
 1024MOL0     C35067   3.476   1.715  -0.217 -0.0402  0.8471 -0.5572
 1024MOL0     C35068   3.408   1.662  -0.106  0.6899 -1.0611 -0.7002
 1024MOL0     C35069   3.267   1.678  -0.089 -0.4206  0.0263  0.9769
 1024MOL0     C35070   3.197   1.762  -0.178 -0.6394  0.1532  0.2976
 1024MOL0     O35071   3.063   1.792  -0.176 -0.7518 -0.2107  0.3428
 1024MOL0     C35072   2.990   1.757  -0.057  0.1308 -0.6444 -0.7250
 1024MOL0     C35073   2.841   1.771  -0.089 -1.2709  0.6650 -0.4491
 1024MOL0     C35074   2.781   1.633  -0.143 -0.5166 -0.4498  0.4148
 1024MOL0     C35075   2.635   1.627  -0.149 -0.5044 -0.0962 -0.3291
 1024MOL0     C35076   2.586   1.505  -0.221  0.6134 -0.1864  0.4164
 1024MOL0     C35077   2.431   1.494  -0.209 -0.0674  0.5404  0.2039
 1024MOL0     C35078   2.385   1.375  -0.291 -0.3659  0.1804 -0.3846
 1024MOL0     C35079   2.240   1.331  -0.256  0.2356 -0.7285 -0.9826
 1024MOL0    Cl35080   2.118   1.466  -0.292  0.0380 -0.1497 -0.2178
 1024MOL0     C35081   3.259   1.811  -0.290 -0.3244 -0.1884  0.7282
 1024MOL0     C35082   3.396   1.791  -0.309 -0.2417  0.8531 -0.3794
 1024MOL0     O35083   3.634   1.858  -0.068  0.7325 -0.2164  0.5601
 1024MOL0     C35084   3.913   1.809  -0.035  0.2346  0.3440  0.9166
 1024MOL0     C35085   4.036   1.767   0.011  0.5105 -1.0716 -0.0481
 1024MOL0     N35086   4.611   1.783   0.296 -0.3036  0.3170 -0.2905
 1024MOL0     N35087   4.715   1.840   0.346 -0.2034 -0.6742  0.8064
 1024MOL0     C35088   5.776   2.028   0.468  0.3611 -0.7280 -0.5050
 1024MOL0     C35089   5.904   2.064   0.431 -0.2359  0.0263  0.3086
 1024MOL0     C35090   6.309   2.213   0.334 -0.1571 -0.5907  0.2956
 1024MOL0     C35091   6.339   2.332   0.410  0.0246  0.4193  0.1868
 1024MOL0     C35092   6.468   2.392   0.403 -0.5445 -0.4342  0.3882
 1024MOL0     C35093   6.564   2.325   0.330 -0.3652 -0.2055 -0.1017
 1024MOL0     O35094   6.679   2.402   0.294  0.9986  0.1723 -0.1429
 1024MOL0     C35095   6.763   2.350   0.190 -0.2897  0.5077  0.2854
 1024MOL0     C35096   6.886   2.437   0.197  0.4327 -0.0863  0.4586
 1024MOL0     C35097   6.993   2.399   0.095  0.0549  0.2342  0.2752
 1024MOL0     C35098   7.105   2.503   0.091 -0.3758 -0.1972  0.1128
 1024MOL0     C35099   7.218   2.459   0.007 -1.6565  0.1882 -0.4888
 1024MOL0     C35100   7.306   2.426  -0.072  0.2079 -0.0542  0.1204
 1024MOL0     C35101   6.543   2.194   0.284  0.2028 -0.1783 -0.2729
 1024MOL0     C35102   6.414   2.137   0.285  0.0008  0.2330  0.6698
 1024MOL0     H35103   5.863   2.398   0.419  0.6320  0.3990  1.5276
 1024MOL0     H35104   5.651   2.344   0.512  1.4521  1.4762 -0.9741
 1024MOL0     H35105   5.415   2.184   0.455 -1.5932 -0.0590  0.7284
 1024MOL0     H35106   5.443   2.258   0.604 -5.3160  0.3217  0.1469
 1024MOL0     H35107   5.260   2.140   0.667 -0.2651 -1.5342  3.4708
 1024MOL0     H35108   5.392   2.026   0.718 -0.8431  0.1387  0.4537
 1024MOL0     H35109   5.358   1.922   0.478 -0.8853  2.9623 -3.2777
 1024MOL0     H35110   5.214   2.023   0.480  1.5833  0.6617 -2.1817
 1024MOL0     H35111   5.204   1.771   0.532  1.3184  0.9327 -1.3525
 1024MOL0     H35112   5.303   1.798   0.672  1.0259  0.1293 -2.3071
 1024MOL0     H35113   5.152   1.941   0.791  0.0177  0.1731 -1.0657
 1024MOL0     H35114   5.080   1.780   0.767 -0.9543  1.0986  1.4576
 1024MOL0     H35115   5.021   2.062   0.641 -0.3640 -0.0551  0.1915
 1024MOL0     H35116   4.908   1.977   0.734  0.2561 -1.1157  0.0788
 1024MOL0     H35117   4.855   1.992   0.501 -0.6224 -0.9129  0.0311
 1024MOL0     H35118   5.008   1.914   0.455  0.8591  2.2770  1.3550
 1024MOL0     H35119   4.805   1.770   0.650 -0.9701 -0.2990 -1.0091
 1024MOL0     H35120   4.924   1.702   0.542 -0.9746 -1.2568  1.1225
 1024MOL0     H35121   4.648   1.590   0.552 -1.3803  2.6198  3.2033
 1024MOL0     H35122   4.399   1.566   0.426 -2.4185  4.4982  0.8933
 1024MOL0     H35123   4.495   1.513   0.275 -0.1101  0.8748 -0.7155
 1024MOL0     H35124   4.370   1.710   0.155 -1.7958  0.9703 -0.5341
 1024MOL0     H35125   4.317   1.753   0.317 -2.6785 -1.9933  1.1610
 1024MOL0     H35126   4.211   1.496   0.303 -1.3371 -1.4623  0.4380
 1024MOL0     H35127   4.132   1.646   0.254  1.0021  0.1633  0.1297
 1024MOL0     H35128   4.137   1.441   0.082  0.3758  0.2612 -4.2416
 1024MOL0     H35129   4.315   1.466   0.080  0.6219 -0.9873  0.0678
 1024MOL0     H35130   4.040   1.481  -0.177 -0.9932 -0.2932 -1.2235
 1024MOL0     H35131   3.819   1.566  -0.255 -1.0272 -1.9446  1.7099
 1024MOL0     H35132   3.475   1.620  -0.031  1.4239  0.8408 -0.2087
 1024MOL0     H35133   3.233   1.629   0.001  0.1959  0.2118  1.3141
 1024MOL0     H35134   3.013   1.834   0.017  0.9511 -0.3174 -1.3079
 1024MOL0     H35135   3.010   1.659  -0.011 -1.6294 -1.7374 -2.1604
 1024MOL0     H35136   2.817   1.850  -0.160 -0.0466  1.8296  0.3979
 1024MOL0     H35137   2.797   1.785   0.011  2.2814  0.4570  1.2974
 1024MOL0     H35138   2.824   1.550  -0.086 -0.8892  0.2544  1.7814
 1024MOL0     H35139   2.809   1.625  -0.248  0.7205  0.1310  0.6889
 1024MOL0     H35140   2.592   1.625  -0.048 -1.5277  0.4026 -0.7358
 1024MOL0     H35141   2.599   1.714  -0.205  0.2006  0.6596  0.3704
 1024MOL0     H35142   2.620   1.410  -0.178 -1.9033 -0.5399  1.8377
 1024MOL0     H35143   2.613   1.510  -0.327 -2.3380 -0.9505 -0.4725
 1024MOL0     H35144   2.377   1.579  -0.251 -0.3448  1.0759  1.5948
 1024MOL0     H35145   2.414   1.472  -0.103  1.0402  0.2208  0.3366
 1024MOL0     H35146   2.384   1.406  -0.396  2.5813  1.3274 -0.1665
 1024MOL0     H35147   2.445   1.286  -0.270 -1.2313  0.1282  2.2199
 1024MOL0     H35148   2.237   1.315  -0.148 -1.4386 -0.3246 -0.9471
 1024MOL0     H35149   2.216   1.238  -0.307  0.5462 -3.0136  2.6696
 1024MOL0     H35150   3.208   1.883  -0.353  0.2170  1.3742  2.0150
 1024MOL0     H35151   3.451   1.828  -0.395 -0.9732 -1.2695 -1.8238
 1024MOL0     H35152   3.877   1.907  -0.004 -0.5835  0.6042 -0.7377
 1024MOL0     H35153   4.090   1.826   0.085 -2.6445  1.2252  0.5961
 1024MOL0     H35154   5.736   1.927   0.475  0.0515 -0.6641 -1.2129
 1024MOL0     H35155   5.977   1.985   0.415  2.1745  1.7282  2.1281
 1024MOL0     H35156   6.253   2.383   0.453 -0.3484  0.1372 -0.2218
 1024MOL0     H35157   6.484   2.486   0.454 -1.5130 -0.0968  0.0904
 1024MOL0     H35158   6.716   2.372   0.094 -0.4402  0.7212  0.4085
 1024MOL0     H35159   6.799   2.247   0.199  0.4082  0.7114 -0.1003
 1024MOL0     H35160   6.856   2.542   0.197 -1.7300 -0.6648  0.8423
 1024MOL0     H35161   6.934   2.427   0.295  1.2131  2.2197  0.3734
 1024MOL0     H35162   6.955   2.404  -0.007  1.9139  0.1617 -0.4684
 1024MOL0     H35163   7.029   2.297   0.113 -1.4230 -0.6824 -1.6003
 1024MOL0     H35164   7.073   2.600   0.053  0.5979  0.6399  1.3650
 1024MOL0     H35165   7.146   2.517   0.192 -0.1638 -0.7481  0.1096
 1024MOL0     H35166   7.383   2.390  -0.137 -0.8345 -3.2879  0.4781
 1024MOL0     H35167   6.618   2.127   0.245  0.6012  0.6094 -0.8925
 1024MOL0     H35168   6.405   2.043   0.231  1.0086  0.3757  0.2232
  11.22594  11.22594  11.22594
